<event>
 7    1  0.1935465E-015  0.9000827E+02  0.7816164E-02  0.1186338E+00
        -11   -1    0    0    0    0  0.00000000000E+00  0.00000000000E+00  0.45593999997E+02  0.45594000000E+02  0.51100000000E-03 0.  1.
         11   -1    0    0    0    0 -0.00000000000E+00 -0.00000000000E+00 -0.45593999997E+02  0.45594000000E+02  0.51100000000E-03 0. -1.
    9900012    2    1    2    0    0 -0.15783142286E+00 -0.11390315959E+01  0.26356315035E+00  0.90008267289E+02  0.90000535616E+02 0.  0.
         12    1    1    2    0    0  0.15783142286E+00  0.11390315959E+01 -0.26356315035E+00  0.11797327108E+01  0.00000000000E+00 0. -1.
         11    1    3    3    0    0 -0.92084378553E+01  0.59188960136E+01  0.26944582846E+00  0.10949943336E+02  0.51100000000E-03 0. -1.
        -11    1    3    3    0    0  0.53879858466E+01  0.23999258131E+02  0.27865486678E+02  0.37168267788E+02  0.51100000000E-03 0.  1.
         12    1    3    3    0    0  0.36626205859E+01 -0.31057185741E+02 -0.27871369356E+02  0.41890056164E+02  0.00000000000E+00 0. -1.
</event>
<event>
 7    1  0.1935465E-015  0.9000744E+02  0.7816164E-02  0.1186340E+00
        -11   -1    0    0    0    0  0.00000000000E+00  0.00000000000E+00  0.45593999997E+02  0.45594000000E+02  0.51100000000E-03 0.  1.
         11   -1    0    0    0    0 -0.00000000000E+00 -0.00000000000E+00 -0.45593999997E+02  0.45594000000E+02  0.51100000000E-03 0. -1.
    9900012    2    1    2    0    0 -0.10877821646E+01  0.45652012807E+00  0.45191652797E-01  0.90007439561E+02  0.89999696963E+02 0.  0.
         12    1    1    2    0    0  0.10877821646E+01 -0.45652012807E+00 -0.45191652797E-01  0.11805604391E+01  0.00000000000E+00 0. -1.
         11    1    3    3    0    0  0.17369973734E+02 -0.20725485288E+02 -0.25369040030E+02  0.37078968705E+02  0.51100000000E-03 0. -1.
        -11    1    3    3    0    0 -0.56390407058E+00 -0.32518795902E+01 -0.75041679821E+01  0.81978805819E+01  0.51100000000E-03 0.  1.
        -12    1    3    3    0    0 -0.17893851828E+02  0.24433885007E+02  0.32918399665E+02  0.44730590274E+02  0.00000000000E+00 0.  1.
</event>
<event>
 7    1  0.1935465E-015  0.9000789E+02  0.7816164E-02  0.1186339E+00
        -11   -1    0    0    0    0  0.00000000000E+00  0.00000000000E+00  0.45593999997E+02  0.45594000000E+02  0.51100000000E-03 0.  1.
         11   -1    0    0    0    0 -0.00000000000E+00 -0.00000000000E+00 -0.45593999997E+02  0.45594000000E+02  0.51100000000E-03 0. -1.
    9900012    2    1    2    0    0  0.11674956507E+01 -0.11956701846E+00  0.12378077690E+00  0.90007888121E+02  0.90000151444E+02 0.  0.
         12    1    1    2    0    0 -0.11674956507E+01  0.11956701846E+00 -0.12378077690E+00  0.11801118791E+01  0.00000000000E+00 0. -1.
         11    1    3    3    0    0  0.14800486760E+02  0.26333551030E+02 -0.25065996804E+02  0.39253210241E+02  0.51100000000E-03 0. -1.
        -11    1    3    3    0    0  0.71090703668E+01 -0.39477201402E+01 -0.34549444044E+01  0.88351580000E+01  0.51100000000E-03 0.  1.
        -12    1    3    3    0    0 -0.20742061477E+02 -0.22505397908E+02  0.28644721986E+02  0.41919519880E+02  0.00000000000E+00 0.  1.
</event>
<event>
 7    1  0.1935465E-015  0.9000770E+02  0.7816164E-02  0.1186339E+00
        -11   -1    0    0    0    0  0.00000000000E+00  0.00000000000E+00  0.45593999997E+02  0.45594000000E+02  0.51100000000E-03 0.  1.
         11   -1    0    0    0    0 -0.00000000000E+00 -0.00000000000E+00 -0.45593999997E+02  0.45594000000E+02  0.51100000000E-03 0. -1.
    9900012    2    1    2    0    0  0.60316811216E+00 -0.88353090839E-01  0.10106919323E+01  0.90007696555E+02  0.89999957350E+02 0.  0.
         12    1    1    2    0    0 -0.60316811216E+00  0.88353090839E-01 -0.10106919323E+01  0.11803034450E+01  0.00000000000E+00 0. -1.
         11    1    3    3    0    0  0.86843072890E+01 -0.58275024947E+01  0.80595372023E+01  0.13203526748E+02  0.51100000000E-03 0. -1.
        -11    1    3    3    0    0 -0.73669413081E+01 -0.34601737378E+02 -0.86708072578E+01  0.36424373056E+02  0.51100000000E-03 0.  1.
         12    1    3    3    0    0 -0.71419786866E+00  0.40340886781E+02  0.16219619879E+01  0.40379796750E+02  0.00000000000E+00 0. -1.
</event>
<event>
 7    1  0.1935465E-015  0.9000771E+02  0.7816164E-02  0.1186339E+00
        -11   -1    0    0    0    0  0.00000000000E+00  0.00000000000E+00  0.45593999997E+02  0.45594000000E+02  0.51100000000E-03 0. -1.
         11   -1    0    0    0    0 -0.00000000000E+00 -0.00000000000E+00 -0.45593999997E+02  0.45594000000E+02  0.51100000000E-03 0.  1.
    9900012    2    1    2    0    0  0.88042546271E+00  0.31944365986E+00 -0.71825302215E+00  0.90007711624E+02  0.89999972617E+02 0.  0.
         12    1    1    2    0    0 -0.88042546271E+00 -0.31944365986E+00  0.71825302215E+00  0.11802883762E+01  0.00000000000E+00 0. -1.
         11    1    3    3    0    0  0.51152072245E+01  0.15766348607E+02  0.34309489753E+02  0.38103598002E+02  0.51100000000E-03 0. -1.
        -11    1    3    3    0    0  0.90953887419E+01  0.88579579355E+00  0.19450493959E+01  0.93431230308E+01  0.51100000000E-03 0.  1.
        -12    1    3    3    0    0 -0.13330170504E+02 -0.16332700741E+02 -0.36972792171E+02  0.42560990591E+02  0.00000000000E+00 0.  1.
</event>
<event>
 7    1  0.1935465E-015  0.9000765E+02  0.7816164E-02  0.1186339E+00
        -11   -1    0    0    0    0  0.00000000000E+00  0.00000000000E+00  0.45593999997E+02  0.45594000000E+02  0.51100000000E-03 0. -1.
         11   -1    0    0    0    0 -0.00000000000E+00 -0.00000000000E+00 -0.45593999997E+02  0.45594000000E+02  0.51100000000E-03 0.  1.
    9900012    2    1    2    0    0  0.95072108718E+00 -0.67092737174E+00 -0.19803083289E+00  0.90007648216E+02  0.89999908372E+02 0.  0.
         12    1    1    2    0    0 -0.95072108718E+00  0.67092737174E+00  0.19803083289E+00  0.11803517842E+01  0.00000000000E+00 0. -1.
         11    1    3    3    0    0  0.90965324839E+01 -0.33912848471E+01  0.17169138370E+01  0.98587782980E+01  0.51100000000E-03 0. -1.
        -11    1    3    3    0    0 -0.21009125143E+02  0.80405320964E+01 -0.36495707565E+02  0.42871554283E+02  0.51100000000E-03 0.  1.
         12    1    3    3    0    0  0.12863313746E+02 -0.53201746211E+01  0.34580762895E+02  0.37277315635E+02  0.00000000000E+00 0. -1.
</event>
<event>
 7    1  0.1935465E-015  0.9000802E+02  0.7816164E-02  0.1186338E+00
        -11   -1    0    0    0    0  0.00000000000E+00  0.00000000000E+00  0.45593999997E+02  0.45594000000E+02  0.51100000000E-03 0.  1.
         11   -1    0    0    0    0 -0.00000000000E+00 -0.00000000000E+00 -0.45593999997E+02  0.45594000000E+02  0.51100000000E-03 0. -1.
    9900012    2    1    2    0    0 -0.20621366820E+00  0.30161680222E+00  0.11219884556E+01  0.90008019124E+02  0.90000284176E+02 0.  0.
         12    1    1    2    0    0  0.20621366820E+00 -0.30161680222E+00 -0.11219884556E+01  0.11799808756E+01  0.00000000000E+00 0. -1.
         11    1    3    3    0    0  0.40749500936E+01 -0.59229012931E+01 -0.74307424984E+01  0.10339338099E+02  0.51100000000E-03 0. -1.
        -11    1    3    3    0    0  0.27250182304E+02  0.12270750684E+02  0.28968824655E+02  0.41621347409E+02  0.51100000000E-03 0.  1.
         12    1    3    3    0    0 -0.31531346066E+02 -0.60462325892E+01 -0.20416093701E+02  0.38047333616E+02  0.00000000000E+00 0. -1.
</event>
<event>
 7    1  0.1935465E-015  0.9000775E+02  0.7816164E-02  0.1186339E+00
        -11   -1    0    0    0    0  0.00000000000E+00  0.00000000000E+00  0.45593999997E+02  0.45594000000E+02  0.51100000000E-03 0.  1.
         11   -1    0    0    0    0 -0.00000000000E+00 -0.00000000000E+00 -0.45593999997E+02  0.45594000000E+02  0.51100000000E-03 0. -1.
    9900012    2    1    2    0    0  0.23337349148E+00 -0.63253371171E-01  0.11552142587E+01  0.90007752501E+02  0.90000014034E+02 0.  0.
         12    1    1    2    0    0 -0.23337349148E+00  0.63253371171E-01 -0.11552142587E+01  0.11802474990E+01  0.00000000000E+00 0. -1.
         11    1    3    3    0    0 -0.32297481297E+01 -0.35716735935E+02  0.12490506558E+02  0.37975376932E+02  0.51100000000E-03 0. -1.
        -11    1    3    3    0    0  0.19498771551E+01 -0.73552642353E+01 -0.35149694716E+00  0.76174459799E+01  0.51100000000E-03 0.  1.
        -12    1    3    3    0    0  0.15132444661E+01  0.43008746799E+02 -0.10983795352E+02  0.44414929589E+02  0.00000000000E+00 0.  1.
</event>
<event>
 7    1  0.1935465E-015  0.9000781E+02  0.7816164E-02  0.1186339E+00
        -11   -1    0    0    0    0  0.00000000000E+00  0.00000000000E+00  0.45593999997E+02  0.45594000000E+02  0.51100000000E-03 0.  1.
         11   -1    0    0    0    0 -0.00000000000E+00 -0.00000000000E+00 -0.45593999997E+02  0.45594000000E+02  0.51100000000E-03 0. -1.
    9900012    2    1    2    0    0  0.13423342657E+00  0.11588593041E+01 -0.17855259122E+00  0.90007807419E+02  0.90000069677E+02 0.  0.
         12    1    1    2    0    0 -0.13423342657E+00 -0.11588593041E+01  0.17855259122E+00  0.11801925806E+01  0.00000000000E+00 0. -1.
         11    1    3    3    0    0  0.37616604425E+02  0.11174685448E+02 -0.15152868873E+02  0.42065329651E+02  0.51100000000E-03 0. -1.
        -11    1    3    3    0    0 -0.88647275851E+01  0.26885107514E+00 -0.62576401985E+01  0.10854203664E+02  0.51100000000E-03 0.  1.
        -12    1    3    3    0    0 -0.28617643413E+02 -0.10284677219E+02  0.21231956480E+02  0.37088274104E+02  0.00000000000E+00 0.  1.
</event>
<event>
 7    1  0.1935465E-015  0.9000770E+02  0.7816164E-02  0.1186339E+00
        -11   -1    0    0    0    0  0.00000000000E+00  0.00000000000E+00  0.45593999997E+02  0.45594000000E+02  0.51100000000E-03 0. -1.
         11   -1    0    0    0    0 -0.00000000000E+00 -0.00000000000E+00 -0.45593999997E+02  0.45594000000E+02  0.51100000000E-03 0.  1.
    9900012    2    1    2    0    0 -0.99508636100E-01 -0.70330568025E+00 -0.94263285330E+00  0.90007704467E+02  0.89999965366E+02 0.  0.
         12    1    1    2    0    0  0.99508636100E-01  0.70330568025E+00  0.94263285330E+00  0.11802955328E+01  0.00000000000E+00 0. -1.
         11    1    3    3    0    0 -0.73439011491E+01  0.76299596984E+01 -0.11873437970E+01  0.10656404395E+02  0.51100000000E-03 0. -1.
        -11    1    3    3    0    0 -0.20894013568E+02  0.24303824620E+02 -0.12518524010E+02  0.34408561984E+02  0.51100000000E-03 0.  1.
         12    1    3    3    0    0  0.28138406081E+02 -0.32637089999E+02  0.12763234953E+02  0.44942738088E+02  0.00000000000E+00 0. -1.
</event>
<event>
 7    1  0.1935465E-015  0.9000781E+02  0.7816164E-02  0.1186339E+00
        -11   -1    0    0    0    0  0.00000000000E+00  0.00000000000E+00  0.45593999997E+02  0.45594000000E+02  0.51100000000E-03 0.  1.
         11   -1    0    0    0    0 -0.00000000000E+00 -0.00000000000E+00 -0.45593999997E+02  0.45594000000E+02  0.51100000000E-03 0. -1.
    9900012    2    1    2    0    0 -0.67639289688E+00 -0.43893978463E+00 -0.86178584973E+00  0.90007809195E+02  0.90000071476E+02 0.  0.
         12    1    1    2    0    0  0.67639289688E+00  0.43893978463E+00  0.86178584973E+00  0.11801908050E+01  0.00000000000E+00 0. -1.
         11    1    3    3    0    0 -0.98297486453E+01  0.33211422857E+02 -0.18479659665E+02  0.39257106213E+02  0.51100000000E-03 0. -1.
        -11    1    3    3    0    0 -0.89208936165E+01 -0.32219064169E+01 -0.28027433413E+01  0.98903182140E+01  0.51100000000E-03 0.  1.
        -12    1    3    3    0    0  0.18074249365E+02 -0.30428456225E+02  0.20420617157E+02  0.40860384768E+02  0.00000000000E+00 0.  1.
</event>
<event>
 7    1  0.1935465E-015  0.9000824E+02  0.7816164E-02  0.1186338E+00
        -11   -1    0    0    0    0  0.00000000000E+00  0.00000000000E+00  0.45593999997E+02  0.45594000000E+02  0.51100000000E-03 0. -1.
         11   -1    0    0    0    0 -0.00000000000E+00 -0.00000000000E+00 -0.45593999997E+02  0.45594000000E+02  0.51100000000E-03 0.  1.
    9900012    2    1    2    0    0  0.69781101892E-01 -0.10267815134E+01 -0.57677743668E+00  0.90008244987E+02  0.90000513020E+02 0.  0.
         12    1    1    2    0    0 -0.69781101892E-01  0.10267815134E+01  0.57677743668E+00  0.11797550127E+01  0.00000000000E+00 0. -1.
         11    1    3    3    0    0 -0.12301840500E+02  0.16464126236E+01 -0.70759250137E+01  0.14286870520E+02  0.51100000000E-03 0. -1.
        -11    1    3    3    0    0 -0.14405259593E+02  0.24699080040E+02 -0.14489687387E+02  0.32054751592E+02  0.51100000000E-03 0.  1.
         12    1    3    3    0    0  0.26776881195E+02 -0.27372274177E+02  0.20988834964E+02  0.43666622875E+02  0.00000000000E+00 0. -1.
</event>
<event>
 7    1  0.1935465E-015  0.9000774E+02  0.7816164E-02  0.1186339E+00
        -11   -1    0    0    0    0  0.00000000000E+00  0.00000000000E+00  0.45593999997E+02  0.45594000000E+02  0.51100000000E-03 0.  1.
         11   -1    0    0    0    0 -0.00000000000E+00 -0.00000000000E+00 -0.45593999997E+02  0.45594000000E+02  0.51100000000E-03 0. -1.
    9900012    2    1    2    0    0 -0.57377472538E-01  0.65203602563E+00  0.98212058545E+00  0.90007744097E+02  0.90000005519E+02 0.  0.
         12    1    1    2    0    0  0.57377472538E-01 -0.65203602563E+00 -0.98212058545E+00  0.11802559034E+01  0.00000000000E+00 0. -1.
         11    1    3    3    0    0  0.16148001365E+02 -0.30121315052E+02 -0.13269949993E+02  0.36662557761E+02  0.51100000000E-03 0. -1.
        -11    1    3    3    0    0  0.90805429179E+01 -0.94431935968E+00 -0.24893308861E+01  0.94628096916E+01  0.51100000000E-03 0.  1.
        -12    1    3    3    0    0 -0.25285921755E+02  0.31717670437E+02  0.16741401464E+02  0.43882376644E+02  0.00000000000E+00 0.  1.
</event>
<event>
 7    1  0.1935465E-015  0.9000781E+02  0.7816164E-02  0.1186339E+00
        -11   -1    0    0    0    0  0.00000000000E+00  0.00000000000E+00  0.45593999997E+02  0.45594000000E+02  0.51100000000E-03 0. -1.
         11   -1    0    0    0    0 -0.00000000000E+00 -0.00000000000E+00 -0.45593999997E+02  0.45594000000E+02  0.51100000000E-03 0.  1.
    9900012    2    1    2    0    0 -0.55438983911E+00 -0.22356346489E+00 -0.10176032195E+01  0.90007811443E+02  0.90000073754E+02 0.  0.
         12    1    1    2    0    0  0.55438983911E+00  0.22356346489E+00  0.10176032195E+01  0.11801885565E+01  0.00000000000E+00 0. -1.
         11    1    3    3    0    0  0.93914920902E+00 -0.11169726336E+02  0.20136641649E+01  0.11388574594E+02  0.51100000000E-03 0. -1.
        -11    1    3    3    0    0 -0.26814379588E+02 -0.20732754568E+02  0.11110607743E+02  0.35669365979E+02  0.51100000000E-03 0.  1.
         12    1    3    3    0    0  0.25320840539E+02  0.31678917439E+02 -0.14141875127E+02  0.42949870871E+02  0.00000000000E+00 0. -1.
</event>
<event>
 7    1  0.1935465E-015  0.9000787E+02  0.7816164E-02  0.1186339E+00
        -11   -1    0    0    0    0  0.00000000000E+00  0.00000000000E+00  0.45593999997E+02  0.45594000000E+02  0.51100000000E-03 0.  1.
         11   -1    0    0    0    0 -0.00000000000E+00 -0.00000000000E+00 -0.45593999997E+02  0.45594000000E+02  0.51100000000E-03 0. -1.
    9900012    2    1    2    0    0  0.66510058924E+00  0.43668884220E+00  0.87157997474E+00  0.90007869672E+02  0.90000132752E+02 0.  0.
         12    1    1    2    0    0 -0.66510058924E+00 -0.43668884220E+00 -0.87157997474E+00  0.11801303280E+01  0.00000000000E+00 0. -1.
         11    1    3    3    0    0 -0.46262365487E+01  0.89579422194E+01 -0.83474844894E-01  0.10082349018E+02  0.51100000000E-03 0. -1.
        -11    1    3    3    0    0  0.36223462431E+02  0.14733813600E+02  0.96142092333E+01  0.40269808954E+02  0.51100000000E-03 0.  1.
         12    1    3    3    0    0 -0.30932125293E+02 -0.23255066978E+02 -0.86591544137E+01  0.39655711700E+02  0.00000000000E+00 0. -1.
</event>
<event>
 7    1  0.1935465E-015  0.9000773E+02  0.7816164E-02  0.1186339E+00
        -11   -1    0    0    0    0  0.00000000000E+00  0.00000000000E+00  0.45593999997E+02  0.45594000000E+02  0.51100000000E-03 0.  1.
         11   -1    0    0    0    0 -0.00000000000E+00 -0.00000000000E+00 -0.45593999997E+02  0.45594000000E+02  0.51100000000E-03 0. -1.
    9900012    2    1    2    0    0 -0.31716695735E+00 -0.11343404685E+01  0.75624454260E-01  0.90007727898E+02  0.89999989106E+02 0.  0.
         12    1    1    2    0    0  0.31716695735E+00  0.11343404685E+01 -0.75624454260E-01  0.11802721023E+01  0.00000000000E+00 0. -1.
         11    1    3    3    0    0 -0.41212473200E+01 -0.10257365767E+02  0.10041499992E+01  0.11099844568E+02  0.51100000000E-03 0. -1.
        -11    1    3    3    0    0 -0.23466881257E+02 -0.22833667741E+02 -0.12950306490E+02  0.35210528779E+02  0.51100000000E-03 0.  1.
         12    1    3    3    0    0  0.27270961620E+02  0.31956693039E+02  0.12021780945E+02  0.43697354551E+02  0.00000000000E+00 0. -1.
</event>
<event>
 7    1  0.1935465E-015  0.9000786E+02  0.7816164E-02  0.1186339E+00
        -11   -1    0    0    0    0  0.00000000000E+00  0.00000000000E+00  0.45593999997E+02  0.45594000000E+02  0.51100000000E-03 0. -1.
         11   -1    0    0    0    0 -0.00000000000E+00 -0.00000000000E+00 -0.45593999997E+02  0.45594000000E+02  0.51100000000E-03 0.  1.
    9900012    2    1    2    0    0  0.37372423434E+00 -0.59118481152E+00 -0.95055456210E+00  0.90007863033E+02  0.90000126025E+02 0.  0.
         12    1    1    2    0    0 -0.37372423434E+00  0.59118481152E+00  0.95055456210E+00  0.11801369667E+01  0.00000000000E+00 0. -1.
         11    1    3    3    0    0 -0.37772599164E+00 -0.23019395941E+02  0.31341830972E+02  0.38888888327E+02  0.51100000000E-03 0. -1.
        -11    1    3    3    0    0  0.24829984247E+01 -0.74000609353E+01 -0.10273201889E+01  0.78728374844E+01  0.51100000000E-03 0.  1.
        -12    1    3    3    0    0 -0.17315481988E+01  0.29828272065E+02 -0.31265065345E+02  0.43246137221E+02  0.00000000000E+00 0.  1.
</event>
<event>
 7    1  0.2858520E-015  0.9000775E+02  0.7816164E-02  0.1186339E+00
        -11   -1    0    0    0    0  0.00000000000E+00  0.00000000000E+00  0.45593999997E+02  0.45594000000E+02  0.51100000000E-03 0. -1.
         11   -1    0    0    0    0 -0.00000000000E+00 -0.00000000000E+00 -0.45593999997E+02  0.45594000000E+02  0.51100000000E-03 0.  1.
    9900012    2    1    2    0    0  0.11851774143E+00 -0.74309933259E+00 -0.90925735112E+00  0.90007749178E+02  0.90000010667E+02 0.  0.
         12    1    1    2    0    0 -0.11851774143E+00  0.74309933259E+00  0.90925735112E+00  0.11802508224E+01  0.00000000000E+00 0. -1.
         11    1    3    3    0    0  0.91707029493E+01 -0.84402311673E+00 -0.33803310077E+01  0.98102398334E+01  0.51100000000E-03 0. -1.
        -11    1    3    3    0    0  0.25289363758E+02 -0.20739401853E+02 -0.15497101363E+02  0.36191640740E+02  0.51100000000E-03 0.  1.
         12    1    3    3    0    0 -0.34341548966E+02  0.20840325637E+02  0.17968175020E+02  0.44005868604E+02  0.00000000000E+00 0. -1.
</event>
<event>
 7    1  0.1935465E-015  0.9000774E+02  0.7816164E-02  0.1186339E+00
        -11   -1    0    0    0    0  0.00000000000E+00  0.00000000000E+00  0.45593999997E+02  0.45594000000E+02  0.51100000000E-03 0.  1.
         11   -1    0    0    0    0 -0.00000000000E+00 -0.00000000000E+00 -0.45593999997E+02  0.45594000000E+02  0.51100000000E-03 0. -1.
    9900012    2    1    2    0    0 -0.46063748613E+00 -0.64200471374E+00  0.87672972739E+00  0.90007740723E+02  0.90000002101E+02 0.  0.
         12    1    1    2    0    0  0.46063748613E+00  0.64200471374E+00 -0.87672972739E+00  0.11802592770E+01  0.00000000000E+00 0. -1.
         11    1    3    3    0    0  0.32378515217E+02 -0.13509065362E+02  0.18461289451E+02  0.39644448578E+02  0.51100000000E-03 0. -1.
        -11    1    3    3    0    0  0.36925069095E+01  0.38022010170E+01  0.42990928616E+01  0.68244808992E+01  0.51100000000E-03 0.  1.
        -12    1    3    3    0    0 -0.36531659613E+02  0.90648596308E+01 -0.21883652586E+02  0.43538811245E+02  0.00000000000E+00 0.  1.
</event>
<event>
 7    1  0.1935465E-015  0.9000780E+02  0.7816164E-02  0.1186339E+00
        -11   -1    0    0    0    0  0.00000000000E+00  0.00000000000E+00  0.45593999997E+02  0.45594000000E+02  0.51100000000E-03 0.  1.
         11   -1    0    0    0    0 -0.00000000000E+00 -0.00000000000E+00 -0.45593999997E+02  0.45594000000E+02  0.51100000000E-03 0. -1.
    9900012    2    1    2    0    0  0.87807440752E+00 -0.78115471750E+00 -0.10793863078E+00  0.90007801667E+02  0.90000063849E+02 0.  0.
         12    1    1    2    0    0 -0.87807440752E+00  0.78115471750E+00  0.10793863078E+00  0.11801983333E+01  0.00000000000E+00 0. -1.
         11    1    3    3    0    0 -0.36147996642E+01  0.17409141622E+01  0.10847831961E+02  0.11566028585E+02  0.51100000000E-03 0. -1.
        -11    1    3    3    0    0 -0.67102250505E+01 -0.32448875931E+02  0.15851132661E+02  0.36731663130E+02  0.51100000000E-03 0.  1.
         12    1    3    3    0    0  0.11203099122E+02  0.29926807051E+02 -0.26806903252E+02  0.41710109952E+02  0.00000000000E+00 0. -1.
</event>
<event>
 7    1  0.1935465E-015  0.9000772E+02  0.7816164E-02  0.1186339E+00
        -11   -1    0    0    0    0  0.00000000000E+00  0.00000000000E+00  0.45593999997E+02  0.45594000000E+02  0.51100000000E-03 0. -1.
         11   -1    0    0    0    0 -0.00000000000E+00 -0.00000000000E+00 -0.45593999997E+02  0.45594000000E+02  0.51100000000E-03 0.  1.
    9900012    2    1    2    0    0  0.13334432220E+00  0.10639683418E+01 -0.49321245060E+00  0.90007717042E+02  0.89999978106E+02 0.  0.
         12    1    1    2    0    0 -0.13334432220E+00 -0.10639683418E+01  0.49321245060E+00  0.11802829585E+01  0.00000000000E+00 0. -1.
         11    1    3    3    0    0  0.75345538818E+01 -0.11872726963E+02  0.47462441297E+01  0.14841090975E+02  0.51100000000E-03 0. -1.
        -11    1    3    3    0    0 -0.34340688183E+02  0.15346882967E+01 -0.22610613536E+02  0.41144598403E+02  0.51100000000E-03 0.  1.
         12    1    3    3    0    0  0.26939478623E+02  0.11402007008E+02  0.17371156956E+02  0.34022027663E+02  0.00000000000E+00 0. -1.
</event>
<event>
 7    1  0.1935465E-015  0.9000774E+02  0.7816164E-02  0.1186339E+00
        -11   -1    0    0    0    0  0.00000000000E+00  0.00000000000E+00  0.45593999997E+02  0.45594000000E+02  0.51100000000E-03 0.  1.
         11   -1    0    0    0    0 -0.00000000000E+00 -0.00000000000E+00 -0.45593999997E+02  0.45594000000E+02  0.51100000000E-03 0. -1.
    9900012    2    1    2    0    0  0.11590544157E+01 -0.11425267662E+00  0.19118244982E+00  0.90007740901E+02  0.90000002280E+02 0.  0.
         12    1    1    2    0    0 -0.11590544157E+01  0.11425267662E+00 -0.19118244982E+00  0.11802590994E+01  0.00000000000E+00 0. -1.
         11    1    3    3    0    0 -0.20965770073E+02 -0.31805401679E+02 -0.81937238890E+01  0.38965166522E+02  0.51100000000E-03 0. -1.
        -11    1    3    3    0    0  0.68370304296E+01 -0.46154515554E+01 -0.47470758973E+01  0.95174633170E+01  0.51100000000E-03 0.  1.
        -12    1    3    3    0    0  0.15287794059E+02  0.36306600557E+02  0.13131982236E+02  0.41525111061E+02  0.00000000000E+00 0.  1.
</event>
<event>
 7    1  0.1935465E-015  0.9000777E+02  0.7816164E-02  0.1186339E+00
        -11   -1    0    0    0    0  0.00000000000E+00  0.00000000000E+00  0.45593999997E+02  0.45594000000E+02  0.51100000000E-03 0. -1.
         11   -1    0    0    0    0 -0.00000000000E+00 -0.00000000000E+00 -0.45593999997E+02  0.45594000000E+02  0.51100000000E-03 0.  1.
    9900012    2    1    2    0    0 -0.36020858687E+00 -0.83628047142E-01 -0.11208025364E+01  0.90007770276E+02  0.90000032043E+02 0.  0.
         12    1    1    2    0    0  0.36020858687E+00  0.83628047142E-01  0.11208025364E+01  0.11802297242E+01  0.00000000000E+00 0. -1.
         11    1    3    3    0    0  0.26072025174E+01  0.50459929850E+01 -0.15133106650E+00  0.56817648248E+01  0.51100000000E-03 0. -1.
        -11    1    3    3    0    0 -0.36848566899E+02  0.73791292483E+01 -0.20976557593E+02  0.43038173749E+02  0.51100000000E-03 0.  1.
         12    1    3    3    0    0  0.33881155794E+02 -0.12508750280E+02  0.20007086123E+02  0.41287831702E+02  0.00000000000E+00 0. -1.
</event>
<event>
 7    1  0.2127164E-015  0.9000780E+02  0.7816164E-02  0.1186339E+00
        -11   -1    0    0    0    0  0.00000000000E+00  0.00000000000E+00  0.45593999997E+02  0.45594000000E+02  0.51100000000E-03 0.  1.
         11   -1    0    0    0    0 -0.00000000000E+00 -0.00000000000E+00 -0.45593999997E+02  0.45594000000E+02  0.51100000000E-03 0. -1.
    9900012    2    1    2    0    0  0.49733126274E+00 -0.92452034651E+00 -0.53925680723E+00  0.90007799102E+02  0.90000061250E+02 0.  0.
         12    1    1    2    0    0 -0.49733126274E+00  0.92452034651E+00  0.53925680723E+00  0.11802008982E+01  0.00000000000E+00 0. -1.
         11    1    3    3    0    0  0.83322346741E+01  0.31230680175E+01 -0.37734540900E+01  0.96653320965E+01  0.51100000000E-03 0. -1.
        -11    1    3    3    0    0 -0.26312737626E+02  0.13525791172E+02  0.30857082331E+02  0.42748879733E+02  0.51100000000E-03 0.  1.
         12    1    3    3    0    0  0.18477834215E+02 -0.17573379536E+02 -0.27622885048E+02  0.37593587272E+02  0.00000000000E+00 0. -1.
</event>
<event>
 7    1  0.1935465E-015  0.9000778E+02  0.7816164E-02  0.1186339E+00
        -11   -1    0    0    0    0  0.00000000000E+00  0.00000000000E+00  0.45593999997E+02  0.45594000000E+02  0.51100000000E-03 0.  1.
         11   -1    0    0    0    0 -0.00000000000E+00 -0.00000000000E+00 -0.45593999997E+02  0.45594000000E+02  0.51100000000E-03 0. -1.
    9900012    2    1    2    0    0 -0.95955800179E+00  0.26189031588E+00  0.63527933557E+00  0.90007780558E+02  0.90000042462E+02 0.  0.
         12    1    1    2    0    0  0.95955800179E+00 -0.26189031588E+00 -0.63527933557E+00  0.11802194417E+01  0.00000000000E+00 0. -1.
         11    1    3    3    0    0 -0.57960204895E+01  0.56054248803E+01 -0.63750605192E-01  0.80634177620E+01  0.51100000000E-03 0. -1.
        -11    1    3    3    0    0 -0.31365902930E+02  0.19394190694E+02 -0.66887830184E+01  0.37479251831E+02  0.51100000000E-03 0.  1.
         12    1    3    3    0    0  0.36202365418E+02 -0.24737725258E+02  0.73878129592E+01  0.44465110965E+02  0.00000000000E+00 0. -1.
</event>
<event>
 7    1  0.1935465E-015  0.9000788E+02  0.7816164E-02  0.1186339E+00
        -11   -1    0    0    0    0  0.00000000000E+00  0.00000000000E+00  0.45593999997E+02  0.45594000000E+02  0.51100000000E-03 0.  1.
         11   -1    0    0    0    0 -0.00000000000E+00 -0.00000000000E+00 -0.45593999997E+02  0.45594000000E+02  0.51100000000E-03 0. -1.
    9900012    2    1    2    0    0 -0.67689827249E+00 -0.29302342059E+00  0.92120796697E+00  0.90007882161E+02  0.90000145405E+02 0.  0.
         12    1    1    2    0    0  0.67689827249E+00  0.29302342059E+00 -0.92120796697E+00  0.11801178393E+01  0.00000000000E+00 0. -1.
         11    1    3    3    0    0 -0.73128138701E+00 -0.33045496408E+02 -0.70938023310E+01  0.33806236659E+02  0.51100000000E-03 0. -1.
        -11    1    3    3    0    0 -0.13247955082E+01 -0.32842350860E+01 -0.13669776639E+02  0.14121050841E+02  0.51100000000E-03 0.  1.
        -12    1    3    3    0    0  0.13791786227E+01  0.36036708073E+02  0.21684786937E+02  0.42080594660E+02  0.00000000000E+00 0.  1.
</event>
<event>
 7    1  0.1935465E-015  0.9000775E+02  0.7816164E-02  0.1186339E+00
        -11   -1    0    0    0    0  0.00000000000E+00  0.00000000000E+00  0.45593999997E+02  0.45594000000E+02  0.51100000000E-03 0.  1.
         11   -1    0    0    0    0 -0.00000000000E+00 -0.00000000000E+00 -0.45593999997E+02  0.45594000000E+02  0.51100000000E-03 0. -1.
    9900012    2    1    2    0    0 -0.11770721731E+01  0.64233826030E-01 -0.58089515950E-01  0.90007746096E+02  0.90000007545E+02 0.  0.
         12    1    1    2    0    0  0.11770721731E+01 -0.64233826030E-01  0.58089515950E-01  0.11802539036E+01  0.00000000000E+00 0. -1.
         11    1    3    3    0    0  0.16417043150E+02 -0.22472343033E+01 -0.36323220321E+02  0.39924249555E+02  0.51100000000E-03 0. -1.
        -11    1    3    3    0    0 -0.74237871453E+01 -0.70984892588E+01 -0.10056837464E+01  0.10320492498E+02  0.51100000000E-03 0.  1.
        -12    1    3    3    0    0 -0.10170328178E+02  0.94099573882E+01  0.37270814551E+02  0.39763004044E+02  0.00000000000E+00 0.  1.
</event>
<event>
 7    1  0.1935465E-015  0.9000774E+02  0.7816164E-02  0.1186339E+00
        -11   -1    0    0    0    0  0.00000000000E+00  0.00000000000E+00  0.45593999997E+02  0.45594000000E+02  0.51100000000E-03 0. -1.
         11   -1    0    0    0    0 -0.00000000000E+00 -0.00000000000E+00 -0.45593999997E+02  0.45594000000E+02  0.51100000000E-03 0.  1.
    9900012    2    1    2    0    0 -0.54456032510E+00 -0.31269470832E+00 -0.99934874275E+00  0.90007736539E+02  0.89999997861E+02 0.  0.
         12    1    1    2    0    0  0.54456032510E+00  0.31269470832E+00  0.99934874275E+00  0.11802634612E+01  0.00000000000E+00 0. -1.
         11    1    3    3    0    0  0.22261653333E+01 -0.68226515238E+00  0.53484917442E+01  0.58333234120E+01  0.51100000000E-03 0. -1.
        -11    1    3    3    0    0 -0.28860545779E+02 -0.30099843539E+02  0.61677003098E+01  0.42154148208E+02  0.51100000000E-03 0.  1.
         12    1    3    3    0    0  0.26089820121E+02  0.30469413984E+02 -0.12515540797E+02  0.42020264919E+02  0.00000000000E+00 0. -1.
</event>
<event>
 7    1  0.1935465E-015  0.9000778E+02  0.7816164E-02  0.1186339E+00
        -11   -1    0    0    0    0  0.00000000000E+00  0.00000000000E+00  0.45593999997E+02  0.45594000000E+02  0.51100000000E-03 0. -1.
         11   -1    0    0    0    0 -0.00000000000E+00 -0.00000000000E+00 -0.45593999997E+02  0.45594000000E+02  0.51100000000E-03 0.  1.
    9900012    2    1    2    0    0 -0.11134215214E+01 -0.27770902605E+00  0.27583424417E+00  0.90007782089E+02  0.90000044012E+02 0.  0.
         12    1    1    2    0    0  0.11134215214E+01  0.27770902605E+00 -0.27583424417E+00  0.11802179111E+01  0.00000000000E+00 0. -1.
         11    1    3    3    0    0 -0.53911537591E+01 -0.65331913966E+01 -0.49429062662E+01  0.98071122812E+01  0.51100000000E-03 0. -1.
        -11    1    3    3    0    0  0.19840714144E+01 -0.36701819779E+02 -0.79413672464E+00  0.36763987377E+02  0.51100000000E-03 0.  1.
         12    1    3    3    0    0  0.22936608233E+01  0.42957302149E+02  0.60128772350E+01  0.43436682431E+02  0.00000000000E+00 0. -1.
</event>
<event>
 7    1  0.1990941E-015  0.9000780E+02  0.7816164E-02  0.1186339E+00
        -11   -1    0    0    0    0  0.00000000000E+00  0.00000000000E+00  0.45593999997E+02  0.45594000000E+02  0.51100000000E-03 0. -1.
         11   -1    0    0    0    0 -0.00000000000E+00 -0.00000000000E+00 -0.45593999997E+02  0.45594000000E+02  0.51100000000E-03 0.  1.
    9900012    2    1    2    0    0  0.38436289429E+00 -0.85090056150E+00 -0.72187713421E+00  0.90007799510E+02  0.90000061663E+02 0.  0.
         12    1    1    2    0    0 -0.38436289429E+00  0.85090056150E+00  0.72187713421E+00  0.11802004902E+01  0.00000000000E+00 0. -1.
         11    1    3    3    0    0  0.90764795409E+00 -0.48090186754E+01 -0.88559713092E+01  0.10118236680E+02  0.51100000000E-03 0. -1.
        -11    1    3    3    0    0  0.96694636777E+01 -0.14599711303E+02 -0.30880518323E+02  0.35500091692E+02  0.51100000000E-03 0.  1.
         12    1    3    3    0    0 -0.10192748738E+02  0.18557829417E+02  0.39014612498E+02  0.44389471138E+02  0.00000000000E+00 0. -1.
</event>
<event>
 7    1  0.1935465E-015  0.9000778E+02  0.7816164E-02  0.1186339E+00
        -11   -1    0    0    0    0  0.00000000000E+00  0.00000000000E+00  0.45593999997E+02  0.45594000000E+02  0.51100000000E-03 0.  1.
         11   -1    0    0    0    0 -0.00000000000E+00 -0.00000000000E+00 -0.45593999997E+02  0.45594000000E+02  0.51100000000E-03 0. -1.
    9900012    2    1    2    0    0  0.15532078840E+00  0.11099889076E+01  0.36977087130E+00  0.90007775267E+02  0.90000037101E+02 0.  0.
         12    1    1    2    0    0 -0.15532078840E+00 -0.11099889076E+01 -0.36977087130E+00  0.11802247327E+01  0.00000000000E+00 0. -1.
         11    1    3    3    0    0 -0.88576972435E+01 -0.16908548079E+01  0.50102517322E+01  0.10316027003E+02  0.51100000000E-03 0. -1.
        -11    1    3    3    0    0 -0.31086088792E+02  0.18817071185E+02 -0.87038929589E+00  0.36348103969E+02  0.51100000000E-03 0.  1.
         12    1    3    3    0    0  0.40099106824E+02 -0.16016227469E+02 -0.37700915651E+01  0.43343644296E+02  0.00000000000E+00 0. -1.
</event>
<event>
 7    1  0.1935465E-015  0.9000777E+02  0.7816164E-02  0.1186339E+00
        -11   -1    0    0    0    0  0.00000000000E+00  0.00000000000E+00  0.45593999997E+02  0.45594000000E+02  0.51100000000E-03 0. -1.
         11   -1    0    0    0    0 -0.00000000000E+00 -0.00000000000E+00 -0.45593999997E+02  0.45594000000E+02  0.51100000000E-03 0.  1.
    9900012    2    1    2    0    0 -0.81653836155E+00 -0.79184321670E+00 -0.31493952520E+00  0.90007772276E+02  0.90000034070E+02 0.  0.
         12    1    1    2    0    0  0.81653836155E+00  0.79184321670E+00  0.31493952520E+00  0.11802277239E+01  0.00000000000E+00 0. -1.
         11    1    3    3    0    0  0.10318171164E+02 -0.12224917462E+01 -0.32775174063E+01  0.10895010915E+02  0.51100000000E-03 0. -1.
        -11    1    3    3    0    0 -0.20622449678E+01 -0.21033201402E+02 -0.31245628268E+02  0.37721846477E+02  0.51100000000E-03 0.  1.
         12    1    3    3    0    0 -0.90724645577E+01  0.21463849931E+02  0.34208206149E+02  0.41390914884E+02  0.00000000000E+00 0. -1.
</event>
<event>
 7    1  0.1935465E-015  0.9000771E+02  0.7816164E-02  0.1186339E+00
        -11   -1    0    0    0    0  0.00000000000E+00  0.00000000000E+00  0.45593999997E+02  0.45594000000E+02  0.51100000000E-03 0.  1.
         11   -1    0    0    0    0 -0.00000000000E+00 -0.00000000000E+00 -0.45593999997E+02  0.45594000000E+02  0.51100000000E-03 0. -1.
    9900012    2    1    2    0    0 -0.98119503339E+00  0.54782908550E+00 -0.36087951695E+00  0.90007705788E+02  0.89999966705E+02 0.  0.
         12    1    1    2    0    0  0.98119503339E+00 -0.54782908550E+00  0.36087951695E+00  0.11802942117E+01  0.00000000000E+00 0. -1.
         11    1    3    3    0    0  0.26418132570E+02  0.49516148490E+01 -0.24564648463E+02  0.36412335444E+02  0.51100000000E-03 0. -1.
        -11    1    3    3    0    0  0.86638515183E+01 -0.71800427229E+01  0.29084521420E+01  0.11622152587E+02  0.51100000000E-03 0.  1.
        -12    1    3    3    0    0 -0.36063179122E+02  0.27762569594E+01  0.21295316804E+02  0.41973217757E+02  0.00000000000E+00 0.  1.
</event>
<event>
 7    1  0.1935465E-015  0.9000772E+02  0.7816164E-02  0.1186339E+00
        -11   -1    0    0    0    0  0.00000000000E+00  0.00000000000E+00  0.45593999997E+02  0.45594000000E+02  0.51100000000E-03 0. -1.
         11   -1    0    0    0    0 -0.00000000000E+00 -0.00000000000E+00 -0.45593999997E+02  0.45594000000E+02  0.51100000000E-03 0.  1.
    9900012    2    1    2    0    0  0.43783689959E+00 -0.40092105173E+00 -0.10201067534E+01  0.90007721800E+02  0.89999982928E+02 0.  0.
         12    1    1    2    0    0 -0.43783689959E+00  0.40092105173E+00  0.10201067534E+01  0.11802781997E+01  0.00000000000E+00 0. -1.
         11    1    3    3    0    0  0.45449172094E+01 -0.48560248010E+01  0.45755136792E+01  0.80729533008E+01  0.51100000000E-03 0. -1.
        -11    1    3    3    0    0  0.32485311348E+02  0.98406487066E+01 -0.23056948752E+02  0.41033604599E+02  0.51100000000E-03 0.  1.
         12    1    3    3    0    0 -0.36592391658E+02 -0.53855449573E+01  0.17461328320E+02  0.40901163901E+02  0.00000000000E+00 0. -1.
</event>
<event>
 7    1  0.1935465E-015  0.9000765E+02  0.7816164E-02  0.1186339E+00
        -11   -1    0    0    0    0  0.00000000000E+00  0.00000000000E+00  0.45593999997E+02  0.45594000000E+02  0.51100000000E-03 0. -1.
         11   -1    0    0    0    0 -0.00000000000E+00 -0.00000000000E+00 -0.45593999997E+02  0.45594000000E+02  0.51100000000E-03 0.  1.
    9900012    2    1    2    0    0 -0.19854793940E+00 -0.15289191720E+00 -0.11534421478E+01  0.90007650047E+02  0.89999910228E+02 0.  0.
         12    1    1    2    0    0  0.19854793940E+00  0.15289191720E+00  0.11534421478E+01  0.11803499527E+01  0.00000000000E+00 0. -1.
         11    1    3    3    0    0 -0.39456729436E+01  0.45003542583E+00 -0.10846527476E+02  0.11550672076E+02  0.51100000000E-03 0. -1.
        -11    1    3    3    0    0 -0.17196096437E+02  0.32082262763E+02 -0.54159886656E+01  0.36800954474E+02  0.51100000000E-03 0.  1.
         12    1    3    3    0    0  0.20943221442E+02 -0.32685190106E+02  0.15109073994E+02  0.41656023497E+02  0.00000000000E+00 0. -1.
</event>
<event>
 7    1  0.1935465E-015  0.9000770E+02  0.7816164E-02  0.1186339E+00
        -11   -1    0    0    0    0  0.00000000000E+00  0.00000000000E+00  0.45593999997E+02  0.45594000000E+02  0.51100000000E-03 0.  1.
         11   -1    0    0    0    0 -0.00000000000E+00 -0.00000000000E+00 -0.45593999997E+02  0.45594000000E+02  0.51100000000E-03 0. -1.
    9900012    2    1    2    0    0 -0.10843598178E+01 -0.32382649471E+00  0.33527037549E+00  0.90007700869E+02  0.89999961721E+02 0.  0.
         12    1    1    2    0    0  0.10843598178E+01  0.32382649471E+00 -0.33527037549E+00  0.11802991306E+01  0.00000000000E+00 0. -1.
         11    1    3    3    0    0  0.91423775322E+01  0.10375523164E+02  0.39732361175E+01  0.14388229681E+02  0.51100000000E-03 0. -1.
        -11    1    3    3    0    0 -0.18629495395E+02 -0.18801586034E+02  0.30004017331E+02  0.40009983658E+02  0.51100000000E-03 0.  1.
         12    1    3    3    0    0  0.84027580451E+01  0.81022363756E+01 -0.33641983073E+02  0.35609487530E+02  0.00000000000E+00 0. -1.
</event>
<event>
 7    1  0.1935465E-015  0.9000749E+02  0.7816164E-02  0.1186340E+00
        -11   -1    0    0    0    0  0.00000000000E+00  0.00000000000E+00  0.45593999997E+02  0.45594000000E+02  0.51100000000E-03 0. -1.
         11   -1    0    0    0    0 -0.00000000000E+00 -0.00000000000E+00 -0.45593999997E+02  0.45594000000E+02  0.51100000000E-03 0.  1.
    9900012    2    1    2    0    0  0.37043590804E+00  0.89357557435E-01 -0.11173148363E+01  0.90007491644E+02  0.89999749733E+02 0.  0.
         12    1    1    2    0    0 -0.37043590804E+00 -0.89357557435E-01  0.11173148363E+01  0.11805083559E+01  0.00000000000E+00 0. -1.
         11    1    3    3    0    0  0.16607978483E+02 -0.24588411349E+02  0.27645488036E+02  0.40554752261E+02  0.51100000000E-03 0. -1.
        -11    1    3    3    0    0  0.73990058312E+01  0.74397699129E+01 -0.11124559447E+02  0.15292196925E+02  0.51100000000E-03 0.  1.
        -12    1    3    3    0    0 -0.23636548407E+02  0.17237998994E+02 -0.17638243425E+02  0.34160542458E+02  0.00000000000E+00 0.  1.
</event>
<event>
 7    1  0.1935465E-015  0.9000773E+02  0.7816164E-02  0.1186339E+00
        -11   -1    0    0    0    0  0.00000000000E+00  0.00000000000E+00  0.45593999997E+02  0.45594000000E+02  0.51100000000E-03 0. -1.
         11   -1    0    0    0    0 -0.00000000000E+00 -0.00000000000E+00 -0.45593999997E+02  0.45594000000E+02  0.51100000000E-03 0.  1.
    9900012    2    1    2    0    0 -0.10723829854E+01  0.60906169866E-01 -0.48919899029E+00  0.90007732877E+02  0.89999994151E+02 0.  0.
         12    1    1    2    0    0  0.10723829854E+01 -0.60906169866E-01  0.48919899029E+00  0.11802671227E+01  0.00000000000E+00 0. -1.
         11    1    3    3    0    0  0.45518086233E+01 -0.13274473097E+01 -0.43545947508E+01  0.64376683519E+01  0.51100000000E-03 0. -1.
        -11    1    3    3    0    0  0.65226988613E+01 -0.11049789372E+02 -0.36999170482E+02  0.39160976268E+02  0.51100000000E-03 0.  1.
         12    1    3    3    0    0 -0.12146890470E+02  0.12438142851E+02  0.40864566243E+02  0.44409088258E+02  0.00000000000E+00 0. -1.
</event>
<event>
 7    1  0.1935465E-015  0.9000779E+02  0.7816164E-02  0.1186339E+00
        -11   -1    0    0    0    0  0.00000000000E+00  0.00000000000E+00  0.45593999997E+02  0.45594000000E+02  0.51100000000E-03 0.  1.
         11   -1    0    0    0    0 -0.00000000000E+00 -0.00000000000E+00 -0.45593999997E+02  0.45594000000E+02  0.51100000000E-03 0. -1.
    9900012    2    1    2    0    0  0.61018668761E+00  0.20653989909E+00  0.98889078718E+00  0.90007791750E+02  0.90000053801E+02 0.  0.
         12    1    1    2    0    0 -0.61018668761E+00 -0.20653989909E+00 -0.98889078718E+00  0.11802082497E+01  0.00000000000E+00 0. -1.
         11    1    3    3    0    0  0.14140674444E+02 -0.19674176848E+02 -0.29952167714E+02  0.38524852491E+02  0.51100000000E-03 0. -1.
        -11    1    3    3    0    0 -0.50695470312E+01  0.14018580887E+01 -0.68123818630E+01  0.86066288471E+01  0.51100000000E-03 0.  1.
        -12    1    3    3    0    0 -0.84609407254E+01  0.18478858658E+02  0.37753440364E+02  0.42876310413E+02  0.00000000000E+00 0.  1.
</event>
<event>
 7    1  0.1935465E-015  0.9000774E+02  0.7816164E-02  0.1186339E+00
        -11   -1    0    0    0    0  0.00000000000E+00  0.00000000000E+00  0.45593999997E+02  0.45594000000E+02  0.51100000000E-03 0.  1.
         11   -1    0    0    0    0 -0.00000000000E+00 -0.00000000000E+00 -0.45593999997E+02  0.45594000000E+02  0.51100000000E-03 0. -1.
    9900012    2    1    2    0    0 -0.86327212741E+00 -0.74136437467E+00  0.31330159198E+00  0.90007738254E+02  0.89999999599E+02 0.  0.
         12    1    1    2    0    0  0.86327212741E+00  0.74136437467E+00 -0.31330159198E+00  0.11802617462E+01  0.00000000000E+00 0. -1.
         11    1    3    3    0    0  0.76156778428E+01  0.37278043404E+01 -0.35324423145E+02  0.36327812280E+02  0.51100000000E-03 0. -1.
        -11    1    3    3    0    0  0.75755516969E+01 -0.63782774545E+00 -0.54810254823E+01  0.93721634825E+01  0.51100000000E-03 0.  1.
        -12    1    3    3    0    0 -0.16054501667E+02 -0.38313409696E+01  0.41118750220E+02  0.44307762492E+02  0.00000000000E+00 0.  1.
</event>
<event>
 7    1  0.1935465E-015  0.9000774E+02  0.7816164E-02  0.1186339E+00
        -11   -1    0    0    0    0  0.00000000000E+00  0.00000000000E+00  0.45593999997E+02  0.45594000000E+02  0.51100000000E-03 0.  1.
         11   -1    0    0    0    0 -0.00000000000E+00 -0.00000000000E+00 -0.45593999997E+02  0.45594000000E+02  0.51100000000E-03 0. -1.
    9900012    2    1    2    0    0  0.31999621944E+00 -0.10692791312E+01 -0.38374502536E+00  0.90007739145E+02  0.90000000502E+02 0.  0.
         12    1    1    2    0    0 -0.31999621944E+00  0.10692791312E+01  0.38374502536E+00  0.11802608548E+01  0.00000000000E+00 0. -1.
         11    1    3    3    0    0  0.71300748824E+01 -0.25511439386E+01 -0.19659187546E+01  0.78237548552E+01  0.51100000000E-03 0. -1.
        -11    1    3    3    0    0 -0.10658235309E+02 -0.18673767456E+02  0.36105527659E+02  0.42022811647E+02  0.51100000000E-03 0.  1.
         12    1    3    3    0    0  0.38481566456E+01  0.20155632264E+02 -0.34523353930E+02  0.40161172643E+02  0.00000000000E+00 0. -1.
</event>
<event>
 7    1  0.1935465E-015  0.9000783E+02  0.7816164E-02  0.1186339E+00
        -11   -1    0    0    0    0  0.00000000000E+00  0.00000000000E+00  0.45593999997E+02  0.45594000000E+02  0.51100000000E-03 0.  1.
         11   -1    0    0    0    0 -0.00000000000E+00 -0.00000000000E+00 -0.45593999997E+02  0.45594000000E+02  0.51100000000E-03 0. -1.
    9900012    2    1    2    0    0  0.57878196798E+00  0.71712330482E+00  0.73726089675E+00  0.90007827118E+02  0.90000089636E+02 0.  0.
         12    1    1    2    0    0 -0.57878196798E+00 -0.71712330482E+00 -0.73726089675E+00  0.11801728817E+01  0.00000000000E+00 0. -1.
         11    1    3    3    0    0 -0.89833724499E+01 -0.96707885742E+01 -0.35613280035E+02  0.37980664125E+02  0.51100000000E-03 0. -1.
        -11    1    3    3    0    0  0.78926947016E+01  0.71933613836E+01 -0.40833194331E+01  0.11432960050E+02  0.51100000000E-03 0.  1.
        -12    1    3    3    0    0  0.16694597163E+01  0.31945504954E+01  0.40433860365E+02  0.40594202944E+02  0.00000000000E+00 0.  1.
</event>
<event>
 7    1  0.1935465E-015  0.9000752E+02  0.7816164E-02  0.1186339E+00
        -11   -1    0    0    0    0  0.00000000000E+00  0.00000000000E+00  0.45593999997E+02  0.45594000000E+02  0.51100000000E-03 0.  1.
         11   -1    0    0    0    0 -0.00000000000E+00 -0.00000000000E+00 -0.45593999997E+02  0.45594000000E+02  0.51100000000E-03 0. -1.
    9900012    2    1    2    0    0  0.69365392061E+00  0.29968541366E-01  0.95471786484E+00  0.90007517016E+02  0.89999775440E+02 0.  0.
         12    1    1    2    0    0 -0.69365392061E+00 -0.29968541366E-01 -0.95471786484E+00  0.11804829844E+01  0.00000000000E+00 0. -1.
         11    1    3    3    0    0  0.34798584657E+02 -0.36825136589E+00 -0.15129352061E+02  0.37946994574E+02  0.51100000000E-03 0. -1.
        -11    1    3    3    0    0  0.19217577982E+01 -0.74176048450E+01 -0.54168614432E+01  0.93838373189E+01  0.51100000000E-03 0.  1.
        -12    1    3    3    0    0 -0.36026688534E+02  0.78158247523E+01  0.21500931369E+02  0.42676685122E+02  0.00000000000E+00 0.  1.
</event>
<event>
 7    1  0.1935465E-015  0.9000752E+02  0.7816164E-02  0.1186339E+00
        -11   -1    0    0    0    0  0.00000000000E+00  0.00000000000E+00  0.45593999997E+02  0.45594000000E+02  0.51100000000E-03 0.  1.
         11   -1    0    0    0    0 -0.00000000000E+00 -0.00000000000E+00 -0.45593999997E+02  0.45594000000E+02  0.51100000000E-03 0. -1.
    9900012    2    1    2    0    0  0.46200847099E+00  0.94848447780E+00  0.52957913755E+00  0.90007521836E+02  0.89999780324E+02 0.  0.
         12    1    1    2    0    0 -0.46200847099E+00 -0.94848447780E+00 -0.52957913755E+00  0.11804781636E+01  0.00000000000E+00 0. -1.
         11    1    3    3    0    0 -0.21288032333E+02  0.30385193160E+02 -0.76159099113E+01  0.37874032899E+02  0.51100000000E-03 0. -1.
        -11    1    3    3    0    0 -0.64495672948E+01  0.26032368815E+01  0.63430427445E+01  0.94131797004E+01  0.51100000000E-03 0.  1.
        -12    1    3    3    0    0  0.28199608099E+02 -0.32039945563E+02  0.18024463043E+01  0.42720309237E+02  0.00000000000E+00 0.  1.
</event>
<event>
 7    1  0.1935465E-015  0.9000754E+02  0.7816164E-02  0.1186339E+00
        -11   -1    0    0    0    0  0.00000000000E+00  0.00000000000E+00  0.45593999997E+02  0.45594000000E+02  0.51100000000E-03 0. -1.
         11   -1    0    0    0    0 -0.00000000000E+00 -0.00000000000E+00 -0.45593999997E+02  0.45594000000E+02  0.51100000000E-03 0.  1.
    9900012    2    1    2    0    0 -0.37064889481E+00  0.11196487665E+01  0.49973897217E-01  0.90007537652E+02  0.89999796349E+02 0.  0.
         12    1    1    2    0    0  0.37064889481E+00 -0.11196487665E+01 -0.49973897217E-01  0.11804623475E+01  0.00000000000E+00 0. -1.
         11    1    3    3    0    0 -0.30466069194E+02 -0.17563291163E+02  0.17853703624E+02  0.39438627029E+02  0.51100000000E-03 0. -1.
        -11    1    3    3    0    0 -0.64134231359E+00 -0.61312947359E+01 -0.75683248517E+01  0.97613337420E+01  0.51100000000E-03 0.  1.
        -12    1    3    3    0    0  0.30736762613E+02  0.24814234666E+02 -0.10235404875E+02  0.40807576881E+02  0.00000000000E+00 0.  1.
</event>
<event>
 7    1  0.2544405E-015  0.9000774E+02  0.7816164E-02  0.1186339E+00
        -11   -1    0    0    0    0  0.00000000000E+00  0.00000000000E+00  0.45593999997E+02  0.45594000000E+02  0.51100000000E-03 0.  1.
         11   -1    0    0    0    0 -0.00000000000E+00 -0.00000000000E+00 -0.45593999997E+02  0.45594000000E+02  0.51100000000E-03 0. -1.
    9900012    2    1    2    0    0  0.90014595863E+00  0.20466955268E+00  0.73543046856E+00  0.90007741407E+02  0.90000002793E+02 0.  0.
         12    1    1    2    0    0 -0.90014595863E+00 -0.20466955268E+00 -0.73543046856E+00  0.11802585932E+01  0.00000000000E+00 0. -1.
         11    1    3    3    0    0  0.74951326331E-02  0.10005987061E+01 -0.94361497809E+01  0.94890556377E+01  0.51100000000E-03 0. -1.
        -11    1    3    3    0    0  0.65721481913E-01 -0.34600855640E+02  0.25903882451E+02  0.43223080138E+02  0.51100000000E-03 0.  1.
         12    1    3    3    0    0  0.82692934408E+00  0.33804926486E+02 -0.15732302201E+02  0.37295605632E+02  0.00000000000E+00 0. -1.
</event>
<event>
 7    1  0.1935465E-015  0.9000779E+02  0.7816164E-02  0.1186339E+00
        -11   -1    0    0    0    0  0.00000000000E+00  0.00000000000E+00  0.45593999997E+02  0.45594000000E+02  0.51100000000E-03 0. -1.
         11   -1    0    0    0    0 -0.00000000000E+00 -0.00000000000E+00 -0.45593999997E+02  0.45594000000E+02  0.51100000000E-03 0.  1.
    9900012    2    1    2    0    0 -0.33206929802E+00 -0.48362349799E+00 -0.10240782409E+01  0.90007789023E+02  0.90000051038E+02 0.  0.
         12    1    1    2    0    0  0.33206929802E+00  0.48362349799E+00  0.10240782409E+01  0.11802109769E+01  0.00000000000E+00 0. -1.
         11    1    3    3    0    0  0.10176205904E+02  0.32801313201E+02  0.11063131196E+02  0.36081493684E+02  0.51100000000E-03 0. -1.
        -11    1    3    3    0    0  0.15306687245E+01  0.84466360251E+01 -0.49536895649E+01  0.99109861997E+01  0.51100000000E-03 0.  1.
        -12    1    3    3    0    0 -0.12038943927E+02 -0.41731572724E+02 -0.71335198720E+01  0.44015309140E+02  0.00000000000E+00 0.  1.
</event>
<event>
 7    1  0.1935465E-015  0.9000772E+02  0.7816164E-02  0.1186339E+00
        -11   -1    0    0    0    0  0.00000000000E+00  0.00000000000E+00  0.45593999997E+02  0.45594000000E+02  0.51100000000E-03 0.  1.
         11   -1    0    0    0    0 -0.00000000000E+00 -0.00000000000E+00 -0.45593999997E+02  0.45594000000E+02  0.51100000000E-03 0. -1.
    9900012    2    1    2    0    0 -0.73039643253E+00  0.17953618975E+00  0.90958584766E+00  0.90007720963E+02  0.89999982079E+02 0.  0.
         12    1    1    2    0    0  0.73039643253E+00 -0.17953618975E+00 -0.90958584766E+00  0.11802790375E+01  0.00000000000E+00 0. -1.
         11    1    3    3    0    0  0.43534282363E+01 -0.55651017069E+01  0.53442485281E+01  0.88591019301E+01  0.51100000000E-03 0. -1.
        -11    1    3    3    0    0 -0.30329616987E+02  0.35942017049E+01  0.27006064351E+02  0.40769246553E+02  0.51100000000E-03 0.  1.
         12    1    3    3    0    0  0.25245792318E+02  0.21504361917E+01 -0.31440727032E+02  0.40379372480E+02  0.00000000000E+00 0. -1.
</event>
<event>
 7    1  0.1935465E-015  0.9000785E+02  0.7816164E-02  0.1186339E+00
        -11   -1    0    0    0    0  0.00000000000E+00  0.00000000000E+00  0.45593999997E+02  0.45594000000E+02  0.51100000000E-03 0. -1.
         11   -1    0    0    0    0 -0.00000000000E+00 -0.00000000000E+00 -0.45593999997E+02  0.45594000000E+02  0.51100000000E-03 0.  1.
    9900012    2    1    2    0    0 -0.89458908370E+00 -0.24880804842E+00  0.72839496498E+00  0.90007849883E+02  0.90000112701E+02 0.  0.
         12    1    1    2    0    0  0.89458908370E+00  0.24880804842E+00 -0.72839496498E+00  0.11801501170E+01  0.00000000000E+00 0. -1.
         11    1    3    3    0    0 -0.28185588933E+01  0.18587608969E+02  0.41019333641E+01  0.19242383922E+02  0.51100000000E-03 0. -1.
        -11    1    3    3    0    0  0.73464714103E+01  0.24272897483E+02  0.65608324292E+01  0.26195204081E+02  0.51100000000E-03 0.  1.
         12    1    3    3    0    0 -0.54225016007E+01 -0.43109314501E+02 -0.99343708283E+01  0.44570261880E+02  0.00000000000E+00 0. -1.
</event>
<event>
 7    1  0.1935465E-015  0.9000773E+02  0.7816164E-02  0.1186339E+00
        -11   -1    0    0    0    0  0.00000000000E+00  0.00000000000E+00  0.45593999997E+02  0.45594000000E+02  0.51100000000E-03 0. -1.
         11   -1    0    0    0    0 -0.00000000000E+00 -0.00000000000E+00 -0.45593999997E+02  0.45594000000E+02  0.51100000000E-03 0.  1.
    9900012    2    1    2    0    0  0.41002248000E+00 -0.75179418030E+00 -0.81223558669E+00  0.90007729026E+02  0.89999990249E+02 0.  0.
         12    1    1    2    0    0 -0.41002248000E+00  0.75179418030E+00  0.81223558669E+00  0.11802709739E+01  0.00000000000E+00 0. -1.
         11    1    3    3    0    0  0.41735600142E+01 -0.40672800423E+01  0.70788640654E+01  0.91690613943E+01  0.51100000000E-03 0. -1.
        -11    1    3    3    0    0  0.11935379928E+02  0.39020383320E+02 -0.91353002777E+01  0.41815037007E+02  0.51100000000E-03 0.  1.
         12    1    3    3    0    0 -0.15698917462E+02 -0.35704897458E+02  0.12442006256E+01  0.39023630625E+02  0.00000000000E+00 0. -1.
</event>
<event>
 7    1  0.1935465E-015  0.9000853E+02  0.7816164E-02  0.1186337E+00
        -11   -1    0    0    0    0  0.00000000000E+00  0.00000000000E+00  0.45593999997E+02  0.45594000000E+02  0.51100000000E-03 0.  1.
         11   -1    0    0    0    0 -0.00000000000E+00 -0.00000000000E+00 -0.45593999997E+02  0.45594000000E+02  0.51100000000E-03 0. -1.
    9900012    2    1    2    0    0 -0.42041356765E+00 -0.31592939653E-01  0.11015436183E+01  0.90008532313E+02  0.90000804136E+02 0.  0.
         12    1    1    2    0    0  0.42041356765E+00  0.31592939653E-01 -0.11015436183E+01  0.11794676870E+01  0.00000000000E+00 0. -1.
         11    1    3    3    0    0  0.14635407079E+02 -0.32654093128E+02 -0.52676987922E+01  0.36169511874E+02  0.51100000000E-03 0. -1.
        -11    1    3    3    0    0  0.33371106435E+00 -0.78797798001E+01 -0.46189863202E+01  0.91398756917E+01  0.51100000000E-03 0.  1.
        -12    1    3    3    0    0 -0.15389531711E+02  0.40502279988E+02  0.10988228731E+02  0.44699144747E+02  0.00000000000E+00 0.  1.
</event>
<event>
 7    1  0.1935465E-015  0.9000778E+02  0.7816164E-02  0.1186339E+00
        -11   -1    0    0    0    0  0.00000000000E+00  0.00000000000E+00  0.45593999997E+02  0.45594000000E+02  0.51100000000E-03 0.  1.
         11   -1    0    0    0    0 -0.00000000000E+00 -0.00000000000E+00 -0.45593999997E+02  0.45594000000E+02  0.51100000000E-03 0. -1.
    9900012    2    1    2    0    0 -0.79771720312E+00  0.71933936233E+00 -0.48899782441E+00  0.90007779374E+02  0.90000041261E+02 0.  0.
         12    1    1    2    0    0  0.79771720312E+00 -0.71933936233E+00  0.48899782441E+00  0.11802206263E+01  0.00000000000E+00 0. -1.
         11    1    3    3    0    0  0.23614299051E+02  0.19189475817E+02 -0.10234856703E+02  0.32103323719E+02  0.51100000000E-03 0. -1.
        -11    1    3    3    0    0  0.10072804774E+02  0.82816278991E+01 -0.58656221822E+00  0.13053383170E+02  0.51100000000E-03 0.  1.
        -12    1    3    3    0    0 -0.34484821028E+02 -0.26751764353E+02  0.10332421097E+02  0.44851072485E+02  0.00000000000E+00 0.  1.
</event>
<event>
 7    1  0.1935465E-015  0.9000785E+02  0.7816164E-02  0.1186339E+00
        -11   -1    0    0    0    0  0.00000000000E+00  0.00000000000E+00  0.45593999997E+02  0.45594000000E+02  0.51100000000E-03 0. -1.
         11   -1    0    0    0    0 -0.00000000000E+00 -0.00000000000E+00 -0.45593999997E+02  0.45594000000E+02  0.51100000000E-03 0.  1.
    9900012    2    1    2    0    0  0.47148993902E+00  0.42757586752E+00 -0.99380135065E+00  0.90007845345E+02  0.90000108104E+02 0.  0.
         12    1    1    2    0    0 -0.47148993902E+00 -0.42757586752E+00  0.99380135065E+00  0.11801546550E+01  0.00000000000E+00 0. -1.
         11    1    3    3    0    0 -0.49781691867E+01 -0.29594010236E+02 -0.24658564617E+02  0.38841117640E+02  0.51100000000E-03 0. -1.
        -11    1    3    3    0    0 -0.55357057994E+01  0.37478754524E+01 -0.67504883504E+01  0.95005106355E+01  0.51100000000E-03 0.  1.
        -12    1    3    3    0    0  0.10985364925E+02  0.26273710651E+02  0.30415251617E+02  0.41666217069E+02  0.00000000000E+00 0.  1.
</event>
<event>
 7    1  0.1935465E-015  0.9000765E+02  0.7816164E-02  0.1186339E+00
        -11   -1    0    0    0    0  0.00000000000E+00  0.00000000000E+00  0.45593999997E+02  0.45594000000E+02  0.51100000000E-03 0. -1.
         11   -1    0    0    0    0 -0.00000000000E+00 -0.00000000000E+00 -0.45593999997E+02  0.45594000000E+02  0.51100000000E-03 0.  1.
    9900012    2    1    2    0    0 -0.18203979959E+00 -0.37468452930E+00 -0.11043982484E+01  0.90007651545E+02  0.89999911745E+02 0.  0.
         12    1    1    2    0    0  0.18203979959E+00  0.37468452930E+00  0.11043982484E+01  0.11803484554E+01  0.00000000000E+00 0. -1.
         11    1    3    3    0    0  0.20029329813E+02  0.29671304707E+02  0.20371441134E+01  0.35856803151E+02  0.51100000000E-03 0. -1.
        -11    1    3    3    0    0  0.82987678010E+01  0.34081317253E+01 -0.47808476336E+01  0.10165697872E+02  0.51100000000E-03 0.  1.
        -12    1    3    3    0    0 -0.28510137413E+02 -0.33454120962E+02  0.16393052718E+01  0.43985150522E+02  0.00000000000E+00 0.  1.
</event>
<event>
 7    1  0.1935465E-015  0.9000779E+02  0.7816164E-02  0.1186339E+00
        -11   -1    0    0    0    0  0.00000000000E+00  0.00000000000E+00  0.45593999997E+02  0.45594000000E+02  0.51100000000E-03 0. -1.
         11   -1    0    0    0    0 -0.00000000000E+00 -0.00000000000E+00 -0.45593999997E+02  0.45594000000E+02  0.51100000000E-03 0.  1.
    9900012    2    1    2    0    0  0.40216489468E+00  0.10248199172E+01  0.42533750224E+00  0.90007786267E+02  0.90000048246E+02 0.  0.
         12    1    1    2    0    0 -0.40216489468E+00 -0.10248199172E+01 -0.42533750224E+00  0.11802137332E+01  0.00000000000E+00 0. -1.
         11    1    3    3    0    0 -0.14462453968E+02 -0.90541391352E+01  0.36569412102E+02  0.40354205630E+02  0.51100000000E-03 0. -1.
        -11    1    3    3    0    0 -0.33516435946E+01  0.88733478927E+01 -0.37225397870E+00  0.94925439634E+01  0.51100000000E-03 0.  1.
        -12    1    3    3    0    0  0.18216262457E+02  0.12056111597E+01 -0.35771820621E+02  0.40161036674E+02  0.00000000000E+00 0.  1.
</event>
<event>
 7    1  0.1935465E-015  0.9000769E+02  0.7816164E-02  0.1186339E+00
        -11   -1    0    0    0    0  0.00000000000E+00  0.00000000000E+00  0.45593999997E+02  0.45594000000E+02  0.51100000000E-03 0. -1.
         11   -1    0    0    0    0 -0.00000000000E+00 -0.00000000000E+00 -0.45593999997E+02  0.45594000000E+02  0.51100000000E-03 0.  1.
    9900012    2    1    2    0    0 -0.11726603094E+01  0.13411278382E+00  0.31128074218E-02  0.90007691511E+02  0.89999952239E+02 0.  0.
         12    1    1    2    0    0  0.11726603094E+01 -0.13411278382E+00 -0.31128074218E-02  0.11803084892E+01  0.00000000000E+00 0. -1.
         11    1    3    3    0    0  0.89571540790E+01 -0.44815684515E+01  0.11727570728E+01  0.10084167015E+02  0.51100000000E-03 0. -1.
        -11    1    3    3    0    0  0.28360616089E+02 -0.19566934514E+02 -0.18239362234E+00  0.34456098719E+02  0.51100000000E-03 0.  1.
         12    1    3    3    0    0 -0.38490430478E+02  0.24182615750E+02 -0.98725064304E+00  0.45467425776E+02  0.00000000000E+00 0. -1.
</event>
<event>
 7    1  0.1935465E-015  0.9000769E+02  0.7816164E-02  0.1186339E+00
        -11   -1    0    0    0    0  0.00000000000E+00  0.00000000000E+00  0.45593999997E+02  0.45594000000E+02  0.51100000000E-03 0. -1.
         11   -1    0    0    0    0 -0.00000000000E+00 -0.00000000000E+00 -0.45593999997E+02  0.45594000000E+02  0.51100000000E-03 0.  1.
    9900012    2    1    2    0    0 -0.56788603627E+00 -0.35027101151E+00 -0.97361997385E+00  0.90007694876E+02  0.89999955649E+02 0.  0.
         12    1    1    2    0    0  0.56788603627E+00  0.35027101151E+00  0.97361997385E+00  0.11803051238E+01  0.00000000000E+00 0. -1.
         11    1    3    3    0    0 -0.28665411906E+02 -0.25383477519E+02  0.11668759372E+02  0.40027324620E+02  0.51100000000E-03 0. -1.
        -11    1    3    3    0    0 -0.61956797504E+01  0.56542088156E+01 -0.52711214845E+01  0.99066264120E+01  0.51100000000E-03 0.  1.
        -12    1    3    3    0    0  0.34293205620E+02  0.19378997692E+02 -0.73712578618E+01  0.40073743844E+02  0.00000000000E+00 0.  1.
</event>
<event>
 7    1  0.1935465E-015  0.9000770E+02  0.7816164E-02  0.1186339E+00
        -11   -1    0    0    0    0  0.00000000000E+00  0.00000000000E+00  0.45593999997E+02  0.45594000000E+02  0.51100000000E-03 0.  1.
         11   -1    0    0    0    0 -0.00000000000E+00 -0.00000000000E+00 -0.45593999997E+02  0.45594000000E+02  0.51100000000E-03 0. -1.
    9900012    2    1    2    0    0 -0.91209633466E+00  0.55195181903E-01  0.74709382709E+00  0.90007696896E+02  0.89999957695E+02 0.  0.
         12    1    1    2    0    0  0.91209633466E+00 -0.55195181903E-01 -0.74709382709E+00  0.11803031044E+01  0.00000000000E+00 0. -1.
         11    1    3    3    0    0  0.17410300127E+02  0.32350748437E+01 -0.31640266320E+02  0.36258663969E+02  0.51100000000E-03 0. -1.
        -11    1    3    3    0    0  0.83151128242E+00  0.38573823795E+00 -0.84513866812E+01  0.85009494821E+01  0.51100000000E-03 0.  1.
        -12    1    3    3    0    0 -0.19153907744E+02 -0.35656178997E+01  0.40838746828E+02  0.45248083444E+02  0.00000000000E+00 0.  1.
</event>
<event>
 7    1  0.1935465E-015  0.9000772E+02  0.7816164E-02  0.1186339E+00
        -11   -1    0    0    0    0  0.00000000000E+00  0.00000000000E+00  0.45593999997E+02  0.45594000000E+02  0.51100000000E-03 0. -1.
         11   -1    0    0    0    0 -0.00000000000E+00 -0.00000000000E+00 -0.45593999997E+02  0.45594000000E+02  0.51100000000E-03 0.  1.
    9900012    2    1    2    0    0 -0.22617975005E+00 -0.11159709533E+01  0.31065909649E+00  0.90007721422E+02  0.89999982545E+02 0.  0.
         12    1    1    2    0    0  0.22617975005E+00  0.11159709533E+01 -0.31065909649E+00  0.11802785783E+01  0.00000000000E+00 0. -1.
         11    1    3    3    0    0  0.36854228837E+01 -0.44826737273E+01 -0.71492854532E+01  0.92080936317E+01  0.51100000000E-03 0. -1.
        -11    1    3    3    0    0 -0.39905330471E+02 -0.62425675646E+01  0.14445273062E+02  0.42896048348E+02  0.51100000000E-03 0.  1.
         12    1    3    3    0    0  0.35993727837E+02  0.96092703386E+01 -0.69853285123E+01  0.37903579442E+02  0.00000000000E+00 0. -1.
</event>
<event>
 7    1  0.1935465E-015  0.9000782E+02  0.7816164E-02  0.1186339E+00
        -11   -1    0    0    0    0  0.00000000000E+00  0.00000000000E+00  0.45593999997E+02  0.45594000000E+02  0.51100000000E-03 0.  1.
         11   -1    0    0    0    0 -0.00000000000E+00 -0.00000000000E+00 -0.45593999997E+02  0.45594000000E+02  0.51100000000E-03 0. -1.
    9900012    2    1    2    0    0  0.75555822244E+00  0.88817776978E+00  0.18192194826E+00  0.90007820533E+02  0.90000082964E+02 0.  0.
         12    1    1    2    0    0 -0.75555822244E+00 -0.88817776978E+00 -0.18192194826E+00  0.11801794666E+01  0.00000000000E+00 0. -1.
         11    1    3    3    0    0 -0.25380204594E+02  0.14337521536E+02  0.10200743878E+02  0.30883239548E+02  0.51100000000E-03 0. -1.
        -11    1    3    3    0    0 -0.51960061917E+01  0.35269567968E+01  0.14545427675E+02  0.15843212146E+02  0.51100000000E-03 0.  1.
        -12    1    3    3    0    0  0.31331769009E+02 -0.16976300563E+02 -0.24564249604E+02  0.43281368840E+02  0.00000000000E+00 0.  1.
</event>
<event>
 7    1  0.1935465E-015  0.9000775E+02  0.7816164E-02  0.1186339E+00
        -11   -1    0    0    0    0  0.00000000000E+00  0.00000000000E+00  0.45593999997E+02  0.45594000000E+02  0.51100000000E-03 0. -1.
         11   -1    0    0    0    0 -0.00000000000E+00 -0.00000000000E+00 -0.45593999997E+02  0.45594000000E+02  0.51100000000E-03 0.  1.
    9900012    2    1    2    0    0 -0.21784791514E-01 -0.25974103242E-01 -0.11797658086E+01  0.90007747233E+02  0.90000008696E+02 0.  0.
         12    1    1    2    0    0  0.21784791514E-01  0.25974103242E-01  0.11797658086E+01  0.11802527671E+01  0.00000000000E+00 0. -1.
         11    1    3    3    0    0 -0.50957964197E+01 -0.40750901228E+01 -0.11352217881E+02  0.13093752394E+02  0.51100000000E-03 0. -1.
        -11    1    3    3    0    0 -0.11000641098E+02  0.42199961451E+01 -0.30759274603E+02  0.32938661879E+02  0.51100000000E-03 0.  1.
         12    1    3    3    0    0  0.16074652726E+02 -0.17088012560E+00  0.40931726676E+02  0.43975332960E+02  0.00000000000E+00 0. -1.
</event>
<event>
 7    1  0.1935465E-015  0.9000775E+02  0.7816164E-02  0.1186339E+00
        -11   -1    0    0    0    0  0.00000000000E+00  0.00000000000E+00  0.45593999997E+02  0.45594000000E+02  0.51100000000E-03 0. -1.
         11   -1    0    0    0    0 -0.00000000000E+00 -0.00000000000E+00 -0.45593999997E+02  0.45594000000E+02  0.51100000000E-03 0.  1.
    9900012    2    1    2    0    0 -0.46634989881E+00  0.10362018212E+01 -0.31906424408E+00  0.90007746453E+02  0.90000007907E+02 0.  0.
         12    1    1    2    0    0  0.46634989881E+00 -0.10362018212E+01  0.31906424408E+00  0.11802535466E+01  0.00000000000E+00 0. -1.
         11    1    3    3    0    0 -0.70642236516E+01 -0.32892007034E+01 -0.46306696969E+01  0.90645021468E+01  0.51100000000E-03 0. -1.
        -11    1    3    3    0    0  0.14478954490E+02  0.19821473848E+02 -0.32208713971E+02  0.40496076410E+02  0.51100000000E-03 0.  1.
         12    1    3    3    0    0 -0.78810807372E+01 -0.15496071324E+02  0.36520319424E+02  0.40447167897E+02  0.00000000000E+00 0. -1.
</event>
<event>
 7    1  0.1935465E-015  0.9000771E+02  0.7816164E-02  0.1186339E+00
        -11   -1    0    0    0    0  0.00000000000E+00  0.00000000000E+00  0.45593999997E+02  0.45594000000E+02  0.51100000000E-03 0. -1.
         11   -1    0    0    0    0 -0.00000000000E+00 -0.00000000000E+00 -0.45593999997E+02  0.45594000000E+02  0.51100000000E-03 0.  1.
    9900012    2    1    2    0    0  0.66432194869E+00  0.18783645050E+00 -0.95732857244E+00  0.90007710129E+02  0.89999971103E+02 0.  0.
         12    1    1    2    0    0 -0.66432194869E+00 -0.18783645050E+00  0.95732857244E+00  0.11802898709E+01  0.00000000000E+00 0. -1.
         11    1    3    3    0    0 -0.34598020990E+02 -0.92122945639E+01 -0.51449513469E+01  0.36171258648E+02  0.51100000000E-03 0. -1.
        -11    1    3    3    0    0 -0.85130374387E+01 -0.13043219159E+00 -0.16007804223E+01  0.86632163318E+01  0.51100000000E-03 0.  1.
        -12    1    3    3    0    0  0.43775380378E+02  0.95305632060E+01  0.57884031968E+01  0.45173235149E+02  0.00000000000E+00 0.  1.
</event>
<event>
 7    1  0.1935465E-015  0.9000772E+02  0.7816164E-02  0.1186339E+00
        -11   -1    0    0    0    0  0.00000000000E+00  0.00000000000E+00  0.45593999997E+02  0.45594000000E+02  0.51100000000E-03 0.  1.
         11   -1    0    0    0    0 -0.00000000000E+00 -0.00000000000E+00 -0.45593999997E+02  0.45594000000E+02  0.51100000000E-03 0. -1.
    9900012    2    1    2    0    0 -0.92597686196E+00  0.58151237390E+00  0.44436782891E+00  0.90007723525E+02  0.89999984676E+02 0.  0.
         12    1    1    2    0    0  0.92597686196E+00 -0.58151237390E+00 -0.44436782891E+00  0.11802764749E+01  0.00000000000E+00 0. -1.
         11    1    3    3    0    0  0.39866036947E+00  0.45669965498E+01  0.49866620239E+01  0.67737128651E+01  0.51100000000E-03 0. -1.
        -11    1    3    3    0    0 -0.17620543514E+02 -0.17297812240E+02  0.32389648157E+02  0.40728210985E+02  0.51100000000E-03 0.  1.
         12    1    3    3    0    0  0.16295906283E+02  0.13312328064E+02 -0.36931942352E+02  0.42505799675E+02  0.00000000000E+00 0. -1.
</event>
<event>
 7    1  0.1939695E-015  0.9000768E+02  0.7816164E-02  0.1186339E+00
        -11   -1    0    0    0    0  0.00000000000E+00  0.00000000000E+00  0.45593999997E+02  0.45594000000E+02  0.51100000000E-03 0.  1.
         11   -1    0    0    0    0 -0.00000000000E+00 -0.00000000000E+00 -0.45593999997E+02  0.45594000000E+02  0.51100000000E-03 0. -1.
    9900012    2    1    2    0    0 -0.10360486802E+01 -0.52976336655E+00 -0.19773546487E+00  0.90007684192E+02  0.89999944823E+02 0.  0.
         12    1    1    2    0    0  0.10360486802E+01  0.52976336655E+00  0.19773546487E+00  0.11803158079E+01  0.00000000000E+00 0. -1.
         11    1    3    3    0    0 -0.17330953361E+00  0.84775402624E+01  0.28025950025E+01  0.89304683026E+01  0.51100000000E-03 0. -1.
        -11    1    3    3    0    0  0.12956709736E+02  0.17365011090E+02  0.29758169233E+02  0.36809897768E+02  0.51100000000E-03 0.  1.
         12    1    3    3    0    0 -0.13819448883E+02 -0.26372314719E+02 -0.32758499700E+02  0.44267318121E+02  0.00000000000E+00 0. -1.
</event>
<event>
 7    1  0.1935465E-015  0.9000764E+02  0.7816164E-02  0.1186339E+00
        -11   -1    0    0    0    0  0.00000000000E+00  0.00000000000E+00  0.45593999997E+02  0.45594000000E+02  0.51100000000E-03 0. -1.
         11   -1    0    0    0    0 -0.00000000000E+00 -0.00000000000E+00 -0.45593999997E+02  0.45594000000E+02  0.51100000000E-03 0.  1.
    9900012    2    1    2    0    0  0.41033393718E+00  0.16605312846E+00 -0.10942158132E+01  0.90007637417E+02  0.89999897431E+02 0.  0.
         12    1    1    2    0    0 -0.41033393718E+00 -0.16605312846E+00  0.10942158132E+01  0.11803625830E+01  0.00000000000E+00 0. -1.
         11    1    3    3    0    0  0.43485542098E+01  0.19540541285E+02  0.16930927796E+02  0.26218295019E+02  0.51100000000E-03 0. -1.
        -11    1    3    3    0    0 -0.79210385859E+00  0.20833116765E+02 -0.67164479937E+01  0.21903352633E+02  0.51100000000E-03 0.  1.
        -12    1    3    3    0    0 -0.31461164141E+01 -0.40207604922E+02 -0.11308695615E+02  0.41885989764E+02  0.00000000000E+00 0.  1.
</event>
<event>
 7    1  0.1935465E-015  0.9000770E+02  0.7816164E-02  0.1186339E+00
        -11   -1    0    0    0    0  0.00000000000E+00  0.00000000000E+00  0.45593999997E+02  0.45594000000E+02  0.51100000000E-03 0. -1.
         11   -1    0    0    0    0 -0.00000000000E+00 -0.00000000000E+00 -0.45593999997E+02  0.45594000000E+02  0.51100000000E-03 0.  1.
    9900012    2    1    2    0    0 -0.11424820004E+01  0.11209002816E+00 -0.27438540379E+00  0.90007696376E+02  0.89999957168E+02 0.  0.
         12    1    1    2    0    0  0.11424820004E+01 -0.11209002816E+00  0.27438540379E+00  0.11803036243E+01  0.00000000000E+00 0. -1.
         11    1    3    3    0    0 -0.99488890879E+01  0.31326238702E+01  0.78069870745E+00  0.10459599281E+02  0.51100000000E-03 0. -1.
        -11    1    3    3    0    0  0.21996036767E+02  0.15804934670E+02 -0.31407836809E+02  0.41473772516E+02  0.51100000000E-03 0.  1.
         12    1    3    3    0    0 -0.13189629679E+02 -0.18825468512E+02  0.30352752698E+02  0.38074324579E+02  0.00000000000E+00 0. -1.
</event>
<event>
 7    1  0.1935465E-015  0.9000779E+02  0.7816164E-02  0.1186339E+00
        -11   -1    0    0    0    0  0.00000000000E+00  0.00000000000E+00  0.45593999997E+02  0.45594000000E+02  0.51100000000E-03 0. -1.
         11   -1    0    0    0    0 -0.00000000000E+00 -0.00000000000E+00 -0.45593999997E+02  0.45594000000E+02  0.51100000000E-03 0.  1.
    9900012    2    1    2    0    0  0.88963150133E+00  0.67361891690E+00 -0.38430744916E+00  0.90007788634E+02  0.90000050644E+02 0.  0.
         12    1    1    2    0    0 -0.88963150133E+00 -0.67361891690E+00  0.38430744916E+00  0.11802113662E+01  0.00000000000E+00 0. -1.
         11    1    3    3    0    0 -0.39059631262E+02  0.15344542533E+02  0.85818874612E+01  0.42834081904E+02  0.51100000000E-03 0. -1.
        -11    1    3    3    0    0  0.26223070124E+01 -0.52944436974E+01  0.33154718508E+01  0.67749525450E+01  0.51100000000E-03 0.  1.
        -12    1    3    3    0    0  0.37326955751E+02 -0.93764799186E+01 -0.12281666761E+02  0.40398754185E+02  0.00000000000E+00 0.  1.
</event>
<event>
 7    1  0.1935465E-015  0.9000767E+02  0.7816164E-02  0.1186339E+00
        -11   -1    0    0    0    0  0.00000000000E+00  0.00000000000E+00  0.45593999997E+02  0.45594000000E+02  0.51100000000E-03 0.  1.
         11   -1    0    0    0    0 -0.00000000000E+00 -0.00000000000E+00 -0.45593999997E+02  0.45594000000E+02  0.51100000000E-03 0. -1.
    9900012    2    1    2    0    0  0.50823692000E+00  0.24545363792E+00  0.10366405318E+01  0.90007671297E+02  0.89999931758E+02 0.  0.
         12    1    1    2    0    0 -0.50823692000E+00 -0.24545363792E+00 -0.10366405318E+01  0.11803287031E+01  0.00000000000E+00 0. -1.
         11    1    3    3    0    0 -0.10890566072E+01  0.39759773320E+02  0.41402366911E+01  0.39989588381E+02  0.51100000000E-03 0. -1.
        -11    1    3    3    0    0 -0.12273680618E+01  0.13197312337E+01 -0.85390161292E+01  0.87271369649E+01  0.51100000000E-03 0.  1.
        -12    1    3    3    0    0  0.28246615890E+01 -0.40834050916E+02  0.54354199698E+01  0.41290945951E+02  0.00000000000E+00 0.  1.
</event>
<event>
 7    1  0.1935465E-015  0.9000720E+02  0.7816164E-02  0.1186340E+00
        -11   -1    0    0    0    0  0.00000000000E+00  0.00000000000E+00  0.45593999997E+02  0.45594000000E+02  0.51100000000E-03 0.  1.
         11   -1    0    0    0    0 -0.00000000000E+00 -0.00000000000E+00 -0.45593999997E+02  0.45594000000E+02  0.51100000000E-03 0. -1.
    9900012    2    1    2    0    0  0.34368875454E+00  0.87874582097E+00  0.70991045339E+00  0.90007199835E+02  0.89999454071E+02 0.  0.
         12    1    1    2    0    0 -0.34368875454E+00 -0.87874582097E+00 -0.70991045339E+00  0.11808001650E+01  0.00000000000E+00 0. -1.
         11    1    3    3    0    0  0.72912582836E+01 -0.13664180410E+02 -0.16344084437E+01  0.15573810223E+02  0.51100000000E-03 0. -1.
        -11    1    3    3    0    0  0.31750119215E+02  0.59688755253E+01  0.10494220224E+02  0.33968017363E+02  0.51100000000E-03 0.  1.
         12    1    3    3    0    0 -0.38697688744E+02  0.85740507059E+01 -0.81499013269E+01  0.40465372249E+02  0.00000000000E+00 0. -1.
</event>
<event>
 7    1  0.1935465E-015  0.9000769E+02  0.7816164E-02  0.1186339E+00
        -11   -1    0    0    0    0  0.00000000000E+00  0.00000000000E+00  0.45593999997E+02  0.45594000000E+02  0.51100000000E-03 0.  1.
         11   -1    0    0    0    0 -0.00000000000E+00 -0.00000000000E+00 -0.45593999997E+02  0.45594000000E+02  0.51100000000E-03 0. -1.
    9900012    2    1    2    0    0  0.56234725555E-01  0.64537673737E+00  0.98663445903E+00  0.90007694517E+02  0.89999955285E+02 0.  0.
         12    1    1    2    0    0 -0.56234725555E-01 -0.64537673737E+00 -0.98663445903E+00  0.11803054830E+01  0.00000000000E+00 0. -1.
         11    1    3    3    0    0 -0.16946837676E+00  0.87060221999E+01  0.13660054052E+01  0.88141654798E+01  0.51100000000E-03 0. -1.
        -11    1    3    3    0    0  0.10755035549E+02  0.35072371370E+02  0.19187237257E+01  0.36734500461E+02  0.51100000000E-03 0.  1.
         12    1    3    3    0    0 -0.10529332446E+02 -0.43133016832E+02 -0.22980946718E+01  0.44459028576E+02  0.00000000000E+00 0. -1.
</event>
<event>
 7    1  0.2242473E-015  0.9000769E+02  0.7816164E-02  0.1186339E+00
        -11   -1    0    0    0    0  0.00000000000E+00  0.00000000000E+00  0.45593999997E+02  0.45594000000E+02  0.51100000000E-03 0.  1.
         11   -1    0    0    0    0 -0.00000000000E+00 -0.00000000000E+00 -0.45593999997E+02  0.45594000000E+02  0.51100000000E-03 0. -1.
    9900012    2    1    2    0    0 -0.82924910497E+00 -0.83983043229E+00  0.12375963156E-01  0.90007693939E+02  0.89999954699E+02 0.  0.
         12    1    1    2    0    0  0.82924910497E+00  0.83983043229E+00 -0.12375963156E-01  0.11803060610E+01  0.00000000000E+00 0. -1.
         11    1    3    3    0    0 -0.18507599427E+01  0.86497398800E+01  0.21608283550E+01  0.91056296760E+01  0.51100000000E-03 0. -1.
        -11    1    3    3    0    0  0.17686520069E+02  0.20833855331E+02  0.24909409626E+02  0.36977577101E+02  0.51100000000E-03 0.  1.
         12    1    3    3    0    0 -0.16665009231E+02 -0.30323425644E+02 -0.27057862018E+02  0.43924487162E+02  0.00000000000E+00 0. -1.
</event>
<event>
 7    1  0.1935465E-015  0.9000776E+02  0.7816164E-02  0.1186339E+00
        -11   -1    0    0    0    0  0.00000000000E+00  0.00000000000E+00  0.45593999997E+02  0.45594000000E+02  0.51100000000E-03 0.  1.
         11   -1    0    0    0    0 -0.00000000000E+00 -0.00000000000E+00 -0.45593999997E+02  0.45594000000E+02  0.51100000000E-03 0. -1.
    9900012    2    1    2    0    0 -0.29834123879E-01 -0.10774845760E+01  0.48072748711E+00  0.90007761887E+02  0.90000023544E+02 0.  0.
         12    1    1    2    0    0  0.29834123879E-01  0.10774845760E+01 -0.48072748711E+00  0.11802381130E+01  0.00000000000E+00 0. -1.
         11    1    3    3    0    0 -0.39360409086E+02 -0.69539455678E+01 -0.11728166052E+02  0.41655120232E+02  0.51100000000E-03 0. -1.
        -11    1    3    3    0    0  0.46787508493E+01  0.64473919127E+01 -0.52563190521E+01  0.95440275683E+01  0.51100000000E-03 0.  1.
        -12    1    3    3    0    0  0.34651824113E+02 -0.57093092099E+00  0.17465212591E+02  0.38808614086E+02  0.00000000000E+00 0.  1.
</event>
<event>
 7    1  0.1935465E-015  0.9000769E+02  0.7816164E-02  0.1186339E+00
        -11   -1    0    0    0    0  0.00000000000E+00  0.00000000000E+00  0.45593999997E+02  0.45594000000E+02  0.51100000000E-03 0.  1.
         11   -1    0    0    0    0 -0.00000000000E+00 -0.00000000000E+00 -0.45593999997E+02  0.45594000000E+02  0.51100000000E-03 0. -1.
    9900012    2    1    2    0    0 -0.63661484252E+00 -0.57656975312E+00  0.80958534579E+00  0.90007686664E+02  0.89999947328E+02 0.  0.
         12    1    1    2    0    0  0.63661484252E+00  0.57656975312E+00 -0.80958534579E+00  0.11803133355E+01  0.00000000000E+00 0. -1.
         11    1    3    3    0    0 -0.93099682612E+01  0.54759632092E+00  0.53664081876E+01  0.10759819137E+02  0.51100000000E-03 0. -1.
        -11    1    3    3    0    0  0.11954390084E+02  0.30259268660E+02  0.20930139403E+02  0.38685934367E+02  0.51100000000E-03 0.  1.
         12    1    3    3    0    0 -0.32810366657E+01 -0.31383434734E+02 -0.25486962245E+02  0.40561933161E+02  0.00000000000E+00 0. -1.
</event>
<event>
 7    1  0.1935465E-015  0.9000762E+02  0.7816164E-02  0.1186339E+00
        -11   -1    0    0    0    0  0.00000000000E+00  0.00000000000E+00  0.45593999997E+02  0.45594000000E+02  0.51100000000E-03 0.  1.
         11   -1    0    0    0    0 -0.00000000000E+00 -0.00000000000E+00 -0.45593999997E+02  0.45594000000E+02  0.51100000000E-03 0. -1.
    9900012    2    1    2    0    0 -0.10193672486E+01  0.54001512534E+00 -0.25012532730E+00  0.90007623534E+02  0.89999883364E+02 0.  0.
         12    1    1    2    0    0  0.10193672486E+01 -0.54001512534E+00  0.25012532730E+00  0.11803764664E+01  0.00000000000E+00 0. -1.
         11    1    3    3    0    0  0.87002706144E+01  0.28426066791E+02 -0.20726149051E+02  0.36239608672E+02  0.51100000000E-03 0. -1.
        -11    1    3    3    0    0  0.44783950894E+01  0.78536135548E+01 -0.19521737847E+01  0.92491216444E+01  0.51100000000E-03 0.  1.
        -12    1    3    3    0    0 -0.14198032952E+02 -0.35739665220E+02  0.22428197509E+02  0.44518893217E+02  0.00000000000E+00 0.  1.
</event>
<event>
 7    1  0.1935465E-015  0.9000774E+02  0.7816164E-02  0.1186339E+00
        -11   -1    0    0    0    0  0.00000000000E+00  0.00000000000E+00  0.45593999997E+02  0.45594000000E+02  0.51100000000E-03 0.  1.
         11   -1    0    0    0    0 -0.00000000000E+00 -0.00000000000E+00 -0.45593999997E+02  0.45594000000E+02  0.51100000000E-03 0. -1.
    9900012    2    1    2    0    0 -0.79556473187E+00 -0.33197142893E+00  0.80615977367E+00  0.90007736532E+02  0.89999997855E+02 0.  0.
         12    1    1    2    0    0  0.79556473187E+00  0.33197142893E+00 -0.80615977367E+00  0.11802634676E+01  0.00000000000E+00 0. -1.
         11    1    3    3    0    0 -0.33320797649E+02 -0.14684121198E+02 -0.17418486083E+02  0.40364621006E+02  0.51100000000E-03 0. -1.
        -11    1    3    3    0    0 -0.37360585211E+01  0.83037459372E+01  0.13952887081E+01  0.92117946516E+01  0.51100000000E-03 0.  1.
        -12    1    3    3    0    0  0.36261291438E+02  0.60484038315E+01  0.16829357149E+02  0.40431320875E+02  0.00000000000E+00 0.  1.
</event>
<event>
 7    1  0.1935465E-015  0.9000771E+02  0.7816164E-02  0.1186339E+00
        -11   -1    0    0    0    0  0.00000000000E+00  0.00000000000E+00  0.45593999997E+02  0.45594000000E+02  0.51100000000E-03 0. -1.
         11   -1    0    0    0    0 -0.00000000000E+00 -0.00000000000E+00 -0.45593999997E+02  0.45594000000E+02  0.51100000000E-03 0.  1.
    9900012    2    1    2    0    0 -0.94472087079E+00 -0.62186824776E+00 -0.33745516908E+00  0.90007706125E+02  0.89999967045E+02 0.  0.
         12    1    1    2    0    0  0.94472087079E+00  0.62186824776E+00  0.33745516908E+00  0.11802938754E+01  0.00000000000E+00 0. -1.
         11    1    3    3    0    0  0.12873686078E+01 -0.84011705920E+01  0.27739566928E+01  0.89404597893E+01  0.51100000000E-03 0. -1.
        -11    1    3    3    0    0  0.35164562396E+02  0.15556108418E+02 -0.14677458710E+02  0.41157827349E+02  0.51100000000E-03 0.  1.
         12    1    3    3    0    0 -0.37396651875E+02 -0.77768060735E+01  0.11566046848E+02  0.39909418987E+02  0.00000000000E+00 0. -1.
</event>
<event>
 7    1  0.1935465E-015  0.9000765E+02  0.7816164E-02  0.1186339E+00
        -11   -1    0    0    0    0  0.00000000000E+00  0.00000000000E+00  0.45593999997E+02  0.45594000000E+02  0.51100000000E-03 0.  1.
         11   -1    0    0    0    0 -0.00000000000E+00 -0.00000000000E+00 -0.45593999997E+02  0.45594000000E+02  0.51100000000E-03 0. -1.
    9900012    2    1    2    0    0  0.84995681124E+00  0.79272596673E+00  0.20585140452E+00  0.90007654356E+02  0.89999914593E+02 0.  0.
         12    1    1    2    0    0 -0.84995681124E+00 -0.79272596673E+00 -0.20585140452E+00  0.11803456443E+01  0.00000000000E+00 0. -1.
         11    1    3    3    0    0  0.46090532152E+01  0.35610963716E+00  0.50927682328E+01  0.68779702055E+01  0.51100000000E-03 0. -1.
        -11    1    3    3    0    0 -0.17052013545E+02  0.23600038521E+02  0.28251285952E+02  0.40569300491E+02  0.51100000000E-03 0.  1.
         12    1    3    3    0    0  0.13292917141E+02 -0.23163422192E+02 -0.33138202780E+02  0.42560383659E+02  0.00000000000E+00 0. -1.
</event>
<event>
 7    1  0.1935465E-015  0.9000773E+02  0.7816164E-02  0.1186339E+00
        -11   -1    0    0    0    0  0.00000000000E+00  0.00000000000E+00  0.45593999997E+02  0.45594000000E+02  0.51100000000E-03 0.  1.
         11   -1    0    0    0    0 -0.00000000000E+00 -0.00000000000E+00 -0.45593999997E+02  0.45594000000E+02  0.51100000000E-03 0. -1.
    9900012    2    1    2    0    0  0.11482602578E+01 -0.26409040104E+00 -0.69149850779E-01  0.90007734326E+02  0.89999995619E+02 0.  0.
         12    1    1    2    0    0 -0.11482602578E+01  0.26409040104E+00  0.69149850779E-01  0.11802656741E+01  0.00000000000E+00 0. -1.
         11    1    3    3    0    0 -0.22922732557E+02 -0.18546208028E+02 -0.24410575896E+02  0.38279102862E+02  0.51100000000E-03 0. -1.
        -11    1    3    3    0    0  0.79883986877E+00  0.36685669646E+01 -0.82703472455E+01  0.90826853150E+01  0.51100000000E-03 0.  1.
        -12    1    3    3    0    0  0.23272152946E+02  0.14613550663E+02  0.32611773291E+02  0.42645946148E+02  0.00000000000E+00 0.  1.
</event>
<event>
 7    1  0.1935465E-015  0.9000770E+02  0.7816164E-02  0.1186339E+00
        -11   -1    0    0    0    0  0.00000000000E+00  0.00000000000E+00  0.45593999997E+02  0.45594000000E+02  0.51100000000E-03 0. -1.
         11   -1    0    0    0    0 -0.00000000000E+00 -0.00000000000E+00 -0.45593999997E+02  0.45594000000E+02  0.51100000000E-03 0.  1.
    9900012    2    1    2    0    0  0.59915305645E+00  0.96056343983E+00 -0.33383435866E+00  0.90007698392E+02  0.89999959211E+02 0.  0.
         12    1    1    2    0    0 -0.59915305645E+00 -0.96056343983E+00  0.33383435866E+00  0.11803016081E+01  0.00000000000E+00 0. -1.
         11    1    3    3    0    0  0.11222756916E+01 -0.14015370363E+02  0.10950937577E+01  0.14102813185E+02  0.51100000000E-03 0. -1.
        -11    1    3    3    0    0  0.11795297653E+02  0.23187706917E+02 -0.32415104099E+02  0.41563659281E+02  0.51100000000E-03 0.  1.
         12    1    3    3    0    0 -0.12318420288E+02 -0.82117731143E+01  0.30986175982E+02  0.34341225926E+02  0.00000000000E+00 0. -1.
</event>
<event>
 7    1  0.1935465E-015  0.9000770E+02  0.7816164E-02  0.1186339E+00
        -11   -1    0    0    0    0  0.00000000000E+00  0.00000000000E+00  0.45593999997E+02  0.45594000000E+02  0.51100000000E-03 0. -1.
         11   -1    0    0    0    0 -0.00000000000E+00 -0.00000000000E+00 -0.45593999997E+02  0.45594000000E+02  0.51100000000E-03 0.  1.
    9900012    2    1    2    0    0  0.76909790085E+00  0.56132589130E+00 -0.69750794625E+00  0.90007696788E+02  0.89999957586E+02 0.  0.
         12    1    1    2    0    0 -0.76909790085E+00 -0.56132589130E+00  0.69750794625E+00  0.11803032121E+01  0.00000000000E+00 0. -1.
         11    1    3    3    0    0  0.16962479797E+01 -0.16799658801E+02  0.50559682794E+01  0.17625793842E+02  0.51100000000E-03 0. -1.
        -11    1    3    3    0    0  0.36270975045E+01 -0.27159061205E+02 -0.22867084078E+01  0.27495444667E+02  0.51100000000E-03 0.  1.
         12    1    3    3    0    0 -0.45542475833E+01  0.44520045897E+02 -0.34667678178E+01  0.44886458279E+02  0.00000000000E+00 0. -1.
</event>
<event>
 7    1  0.1935465E-015  0.9000780E+02  0.7816164E-02  0.1186339E+00
        -11   -1    0    0    0    0  0.00000000000E+00  0.00000000000E+00  0.45593999997E+02  0.45594000000E+02  0.51100000000E-03 0. -1.
         11   -1    0    0    0    0 -0.00000000000E+00 -0.00000000000E+00 -0.45593999997E+02  0.45594000000E+02  0.51100000000E-03 0.  1.
    9900012    2    1    2    0    0  0.93786107054E+00  0.11638476375E+00 -0.70692041206E+00  0.90007802868E+02  0.90000065066E+02 0.  0.
         12    1    1    2    0    0 -0.93786107054E+00 -0.11638476375E+00  0.70692041206E+00  0.11801971318E+01  0.00000000000E+00 0. -1.
         11    1    3    3    0    0 -0.17143736489E+02  0.33105746388E+02  0.19486630332E+02  0.42066933649E+02  0.51100000000E-03 0. -1.
        -11    1    3    3    0    0 -0.30634132855E+01 -0.56999495159E+01  0.21494966362E+01  0.68186700677E+01  0.51100000000E-03 0.  1.
        -12    1    3    3    0    0  0.21145010845E+02 -0.27289412108E+02 -0.22343047380E+02  0.41122199151E+02  0.00000000000E+00 0.  1.
</event>
<event>
 7    1  0.1935465E-015  0.9000774E+02  0.7816164E-02  0.1186339E+00
        -11   -1    0    0    0    0  0.00000000000E+00  0.00000000000E+00  0.45593999997E+02  0.45594000000E+02  0.51100000000E-03 0.  1.
         11   -1    0    0    0    0 -0.00000000000E+00 -0.00000000000E+00 -0.45593999997E+02  0.45594000000E+02  0.51100000000E-03 0. -1.
    9900012    2    1    2    0    0 -0.46484238702E+00 -0.52787979696E+00  0.94776941668E+00  0.90007744777E+02  0.90000006208E+02 0.  0.
         12    1    1    2    0    0  0.46484238702E+00  0.52787979696E+00 -0.94776941668E+00  0.11802552232E+01  0.00000000000E+00 0. -1.
         11    1    3    3    0    0  0.17189138640E+00  0.12559334278E+02  0.26296796093E+01  0.12832834421E+02  0.51100000000E-03 0. -1.
        -11    1    3    3    0    0  0.57519895985E+01  0.22232762111E+02  0.23864075423E+02  0.33119106139E+02  0.51100000000E-03 0.  1.
         12    1    3    3    0    0 -0.63887233719E+01 -0.35319976186E+02 -0.25545985616E+02  0.44055804217E+02  0.00000000000E+00 0. -1.
</event>
<event>
 7    1  0.1935465E-015  0.9000774E+02  0.7816164E-02  0.1186339E+00
        -11   -1    0    0    0    0  0.00000000000E+00  0.00000000000E+00  0.45593999997E+02  0.45594000000E+02  0.51100000000E-03 0.  1.
         11   -1    0    0    0    0 -0.00000000000E+00 -0.00000000000E+00 -0.45593999997E+02  0.45594000000E+02  0.51100000000E-03 0. -1.
    9900012    2    1    2    0    0 -0.10659729135E+01  0.48053648879E+00  0.16063574404E+00  0.90007738414E+02  0.89999999761E+02 0.  0.
         12    1    1    2    0    0  0.10659729135E+01 -0.48053648879E+00 -0.16063574404E+00  0.11802615861E+01  0.00000000000E+00 0. -1.
         11    1    3    3    0    0 -0.13684632682E+01 -0.69800941923E+01 -0.58267280556E+01  0.91948445743E+01  0.51100000000E-03 0. -1.
        -11    1    3    3    0    0 -0.24581002815E+02 -0.18595653373E+02  0.25352012000E+02  0.39909253770E+02  0.51100000000E-03 0.  1.
         12    1    3    3    0    0  0.24883493169E+02  0.26056284054E+02 -0.19364648200E+02  0.40903640070E+02  0.00000000000E+00 0. -1.
</event>
<event>
 7    1  0.1935465E-015  0.9000775E+02  0.7816164E-02  0.1186339E+00
        -11   -1    0    0    0    0  0.00000000000E+00  0.00000000000E+00  0.45593999997E+02  0.45594000000E+02  0.51100000000E-03 0.  1.
         11   -1    0    0    0    0 -0.00000000000E+00 -0.00000000000E+00 -0.45593999997E+02  0.45594000000E+02  0.51100000000E-03 0. -1.
    9900012    2    1    2    0    0 -0.27068628902E+00 -0.64290061381E+00  0.95204530649E+00  0.90007753190E+02  0.90000014732E+02 0.  0.
         12    1    1    2    0    0  0.27068628902E+00  0.64290061381E+00 -0.95204530649E+00  0.11802468097E+01  0.00000000000E+00 0. -1.
         11    1    3    3    0    0  0.43291797477E+01  0.25086003615E+01 -0.40152347382E+02  0.40462895022E+02  0.51100000000E-03 0. -1.
        -11    1    3    3    0    0 -0.41901028879E+01 -0.10358363787E+02  0.41935012541E+01  0.11934744052E+02  0.51100000000E-03 0.  1.
        -12    1    3    3    0    0 -0.40976314885E+00  0.72068628112E+01  0.36910891434E+02  0.37610114117E+02  0.00000000000E+00 0.  1.
</event>
<event>
 7    1  0.1935465E-015  0.9000765E+02  0.7816164E-02  0.1186339E+00
        -11   -1    0    0    0    0  0.00000000000E+00  0.00000000000E+00  0.45593999997E+02  0.45594000000E+02  0.51100000000E-03 0. -1.
         11   -1    0    0    0    0 -0.00000000000E+00 -0.00000000000E+00 -0.45593999997E+02  0.45594000000E+02  0.51100000000E-03 0.  1.
    9900012    2    1    2    0    0 -0.93898397545E+00  0.57493482162E+00  0.42543086358E+00  0.90007647351E+02  0.89999907496E+02 0.  0.
         12    1    1    2    0    0  0.93898397545E+00 -0.57493482162E+00 -0.42543086358E+00  0.11803526486E+01  0.00000000000E+00 0. -1.
         11    1    3    3    0    0  0.27402812139E+02  0.25841628011E+02  0.20239615376E+02  0.42759161383E+02  0.51100000000E-03 0. -1.
        -11    1    3    3    0    0 -0.11634828228E+02  0.29223425918E+00 -0.94844627855E+01  0.15013649235E+02  0.51100000000E-03 0.  1.
        -12    1    3    3    0    0 -0.16706967886E+02 -0.25558927449E+02 -0.10329721727E+02  0.32234836733E+02  0.00000000000E+00 0.  1.
</event>
<event>
 7    1  0.1935465E-015  0.9000784E+02  0.7816164E-02  0.1186339E+00
        -11   -1    0    0    0    0  0.00000000000E+00  0.00000000000E+00  0.45593999997E+02  0.45594000000E+02  0.51100000000E-03 0.  1.
         11   -1    0    0    0    0 -0.00000000000E+00 -0.00000000000E+00 -0.45593999997E+02  0.45594000000E+02  0.51100000000E-03 0. -1.
    9900012    2    1    2    0    0 -0.16911952429E+00  0.80099352662E-01  0.11652254936E+01  0.90007844175E+02  0.90000106918E+02 0.  0.
         12    1    1    2    0    0  0.16911952429E+00 -0.80099352662E-01 -0.11652254936E+01  0.11801558248E+01  0.00000000000E+00 0. -1.
         11    1    3    3    0    0 -0.29500347804E+02 -0.13122305238E+02 -0.22273406326E+02  0.39224610195E+02  0.51100000000E-03 0. -1.
        -11    1    3    3    0    0 -0.68019111089E+01  0.29565054628E+01  0.49899604612E+01  0.89390505620E+01  0.51100000000E-03 0.  1.
        -12    1    3    3    0    0  0.36133139389E+02  0.10245899128E+02  0.18448671359E+02  0.41844183418E+02  0.00000000000E+00 0.  1.
</event>
<event>
 7    1  0.1935465E-015  0.9000776E+02  0.7816164E-02  0.1186339E+00
        -11   -1    0    0    0    0  0.00000000000E+00  0.00000000000E+00  0.45593999997E+02  0.45594000000E+02  0.51100000000E-03 0. -1.
         11   -1    0    0    0    0 -0.00000000000E+00 -0.00000000000E+00 -0.45593999997E+02  0.45594000000E+02  0.51100000000E-03 0.  1.
    9900012    2    1    2    0    0  0.12995035931E+00  0.11688153200E+01  0.99758711862E-01  0.90007759284E+02  0.90000020906E+02 0.  0.
         12    1    1    2    0    0 -0.12995035931E+00 -0.11688153200E+01 -0.99758711862E-01  0.11802407165E+01  0.00000000000E+00 0. -1.
         11    1    3    3    0    0  0.12949686663E+02  0.20531461755E+02  0.17877960788E+02  0.30147251760E+02  0.51100000000E-03 0. -1.
        -11    1    3    3    0    0  0.13667946407E+02 -0.37429153766E+01  0.10849248948E+02  0.17847363321E+02  0.51100000000E-03 0.  1.
        -12    1    3    3    0    0 -0.26487682711E+02 -0.15619731058E+02 -0.28627451024E+02  0.42013144203E+02  0.00000000000E+00 0.  1.
</event>
<event>
 7    1  0.1935465E-015  0.9000776E+02  0.7816164E-02  0.1186339E+00
        -11   -1    0    0    0    0  0.00000000000E+00  0.00000000000E+00  0.45593999997E+02  0.45594000000E+02  0.51100000000E-03 0.  1.
         11   -1    0    0    0    0 -0.00000000000E+00 -0.00000000000E+00 -0.45593999997E+02  0.45594000000E+02  0.51100000000E-03 0. -1.
    9900012    2    1    2    0    0 -0.79303213843E+00  0.19465107057E+00 -0.85215661645E+00  0.90007762773E+02  0.90000024442E+02 0.  0.
         12    1    1    2    0    0  0.79303213843E+00 -0.19465107057E+00  0.85215661645E+00  0.11802372265E+01  0.00000000000E+00 0. -1.
         11    1    3    3    0    0  0.87287054309E+01  0.42398333872E+01  0.21634419344E+00  0.97063531114E+01  0.51100000000E-03 0. -1.
        -11    1    3    3    0    0 -0.76114798511E+01 -0.27246778856E+02  0.30159265874E+02  0.41350972199E+02  0.51100000000E-03 0.  1.
         12    1    3    3    0    0 -0.19102577183E+01  0.23201596539E+02 -0.31227766683E+02  0.38950437463E+02  0.00000000000E+00 0. -1.
</event>
<event>
 7    1  0.1935465E-015  0.9000773E+02  0.7816164E-02  0.1186339E+00
        -11   -1    0    0    0    0  0.00000000000E+00  0.00000000000E+00  0.45593999997E+02  0.45594000000E+02  0.51100000000E-03 0. -1.
         11   -1    0    0    0    0 -0.00000000000E+00 -0.00000000000E+00 -0.45593999997E+02  0.45594000000E+02  0.51100000000E-03 0.  1.
    9900012    2    1    2    0    0 -0.94681195075E+00 -0.25334299493E+00 -0.65756606473E+00  0.90007733643E+02  0.89999994927E+02 0.  0.
         12    1    1    2    0    0  0.94681195075E+00  0.25334299493E+00  0.65756606473E+00  0.11802663567E+01  0.00000000000E+00 0. -1.
         11    1    3    3    0    0 -0.17393207676E+01  0.21924096000E+01  0.10178187948E+02  0.10555918091E+02  0.51100000000E-03 0. -1.
        -11    1    3    3    0    0  0.76047396521E+01  0.35297461235E+02  0.75990236025E+01  0.36898346776E+02  0.51100000000E-03 0.  1.
         12    1    3    3    0    0 -0.68122308352E+01 -0.37743213830E+02 -0.18434777615E+02  0.42553468776E+02  0.00000000000E+00 0. -1.
</event>
<event>
 7    1  0.1935465E-015  0.9000777E+02  0.7816164E-02  0.1186339E+00
        -11   -1    0    0    0    0  0.00000000000E+00  0.00000000000E+00  0.45593999997E+02  0.45594000000E+02  0.51100000000E-03 0.  1.
         11   -1    0    0    0    0 -0.00000000000E+00 -0.00000000000E+00 -0.45593999997E+02  0.45594000000E+02  0.51100000000E-03 0. -1.
    9900012    2    1    2    0    0  0.51758321790E+00 -0.41858287474E+00  0.97459309810E+00  0.90007773023E+02  0.90000034827E+02 0.  0.
         12    1    1    2    0    0 -0.51758321790E+00  0.41858287474E+00 -0.97459309810E+00  0.11802269770E+01  0.00000000000E+00 0. -1.
         11    1    3    3    0    0 -0.14627961149E+01  0.19097555438E+01 -0.92396331329E+01  0.95476572730E+01  0.51100000000E-03 0. -1.
        -11    1    3    3    0    0  0.35214442534E+02  0.99682876338E+01  0.22492333989E+02  0.42957290533E+02  0.51100000000E-03 0.  1.
         12    1    3    3    0    0 -0.33234063202E+02 -0.12296626052E+02 -0.12278107758E+02  0.37502825217E+02  0.00000000000E+00 0. -1.
</event>
<event>
 7    1  0.1935465E-015  0.9000769E+02  0.7816164E-02  0.1186339E+00
        -11   -1    0    0    0    0  0.00000000000E+00  0.00000000000E+00  0.45593999997E+02  0.45594000000E+02  0.51100000000E-03 0.  1.
         11   -1    0    0    0    0 -0.00000000000E+00 -0.00000000000E+00 -0.45593999997E+02  0.45594000000E+02  0.51100000000E-03 0. -1.
    9900012    2    1    2    0    0  0.11234400453E+01 -0.24380819263E+00  0.26751170306E+00  0.90007693903E+02  0.89999954663E+02 0.  0.
         12    1    1    2    0    0 -0.11234400453E+01  0.24380819263E+00 -0.26751170306E+00  0.11803060965E+01  0.00000000000E+00 0. -1.
         11    1    3    3    0    0 -0.18843779918E+01 -0.39782110175E+01  0.77722814463E+01  0.89322674869E+01  0.51100000000E-03 0. -1.
        -11    1    3    3    0    0  0.39305091233E+02 -0.11616936859E+02 -0.74937444557E+01  0.41665328813E+02  0.51100000000E-03 0.  1.
         12    1    3    3    0    0 -0.36297273196E+02  0.15351339684E+02 -0.11025287527E-01  0.39410097604E+02  0.00000000000E+00 0. -1.
</event>
<event>
 7    1  0.1935465E-015  0.9000765E+02  0.7816164E-02  0.1186339E+00
        -11   -1    0    0    0    0  0.00000000000E+00  0.00000000000E+00  0.45593999997E+02  0.45594000000E+02  0.51100000000E-03 0.  1.
         11   -1    0    0    0    0 -0.00000000000E+00 -0.00000000000E+00 -0.45593999997E+02  0.45594000000E+02  0.51100000000E-03 0. -1.
    9900012    2    1    2    0    0 -0.11223761607E+01  0.51620890570E-01  0.36169491935E+00  0.90007654213E+02  0.89999914448E+02 0.  0.
         12    1    1    2    0    0  0.11223761607E+01 -0.51620890570E-01 -0.36169491935E+00  0.11803457871E+01  0.00000000000E+00 0. -1.
         11    1    3    3    0    0  0.50186582996E+01  0.11237152357E+02 -0.56771258131E+01  0.13553238800E+02  0.51100000000E-03 0. -1.
        -11    1    3    3    0    0  0.10113366572E+02  0.30127857510E+02  0.13048320969E+01  0.31806769226E+02  0.51100000000E-03 0.  1.
         12    1    3    3    0    0 -0.16254401032E+02 -0.41313388976E+02  0.47339886356E+01  0.44647646187E+02  0.00000000000E+00 0. -1.
</event>
<event>
 7    1  0.1935465E-015  0.9000794E+02  0.7816164E-02  0.1186339E+00
        -11   -1    0    0    0    0  0.00000000000E+00  0.00000000000E+00  0.45593999997E+02  0.45594000000E+02  0.51100000000E-03 0. -1.
         11   -1    0    0    0    0 -0.00000000000E+00 -0.00000000000E+00 -0.45593999997E+02  0.45594000000E+02  0.51100000000E-03 0.  1.
    9900012    2    1    2    0    0 -0.89997877446E+00  0.68795728754E+00  0.33059041577E+00  0.90007941931E+02  0.90000205964E+02 0.  0.
         12    1    1    2    0    0  0.89997877446E+00 -0.68795728754E+00 -0.33059041577E+00  0.11800580693E+01  0.00000000000E+00 0. -1.
         11    1    3    3    0    0 -0.82529775282E+01  0.10112476098E+01  0.20639549331E+01  0.85670397476E+01  0.51100000000E-03 0. -1.
        -11    1    3    3    0    0  0.96697779541E+00  0.10471511251E+02 -0.39901943317E+02  0.41264423838E+02  0.51100000000E-03 0.  1.
         12    1    3    3    0    0  0.63860209583E+01 -0.10794801573E+02  0.38168578799E+02  0.40176478346E+02  0.00000000000E+00 0. -1.
</event>
<event>
 7    1  0.1935465E-015  0.9000776E+02  0.7816164E-02  0.1186339E+00
        -11   -1    0    0    0    0  0.00000000000E+00  0.00000000000E+00  0.45593999997E+02  0.45594000000E+02  0.51100000000E-03 0. -1.
         11   -1    0    0    0    0 -0.00000000000E+00 -0.00000000000E+00 -0.45593999997E+02  0.45594000000E+02  0.51100000000E-03 0.  1.
    9900012    2    1    2    0    0 -0.64413696263E+00 -0.66136241896E+00 -0.73529653629E+00  0.90007756944E+02  0.90000018535E+02 0.  0.
         12    1    1    2    0    0  0.64413696263E+00  0.66136241896E+00  0.73529653629E+00  0.11802430564E+01  0.00000000000E+00 0. -1.
         11    1    3    3    0    0  0.29641808272E+02 -0.33216376371E+01  0.26358803039E+02  0.39805232974E+02  0.51100000000E-03 0. -1.
        -11    1    3    3    0    0 -0.41391060623E+01  0.47160839406E+01  0.55155333882E+01  0.83543255591E+01  0.51100000000E-03 0.  1.
        -12    1    3    3    0    0 -0.26146839172E+02 -0.20558087225E+01 -0.32609632963E+02  0.41848198411E+02  0.00000000000E+00 0.  1.
</event>
<event>
 7    1  0.1935465E-015  0.9000777E+02  0.7816164E-02  0.1186339E+00
        -11   -1    0    0    0    0  0.00000000000E+00  0.00000000000E+00  0.45593999997E+02  0.45594000000E+02  0.51100000000E-03 0.  1.
         11   -1    0    0    0    0 -0.00000000000E+00 -0.00000000000E+00 -0.45593999997E+02  0.45594000000E+02  0.51100000000E-03 0. -1.
    9900012    2    1    2    0    0  0.56824681287E+00 -0.10343370187E+01 -0.13499190163E-01  0.90007771320E+02  0.90000033102E+02 0.  0.
         12    1    1    2    0    0 -0.56824681287E+00  0.10343370187E+01  0.13499190163E-01  0.11802286798E+01  0.00000000000E+00 0. -1.
         11    1    3    3    0    0 -0.19490940269E+02 -0.29944529421E+02 -0.10780235482E+02  0.37320035800E+02  0.51100000000E-03 0. -1.
        -11    1    3    3    0    0 -0.64061793271E+01 -0.26304126435E-01 -0.71279577065E+01  0.95837157097E+01  0.51100000000E-03 0.  1.
        -12    1    3    3    0    0  0.26465366409E+02  0.28936496529E+02  0.17894693998E+02  0.43104019810E+02  0.00000000000E+00 0.  1.
</event>
<event>
 7    1  0.1935465E-015  0.9000732E+02  0.7816164E-02  0.1186340E+00
        -11   -1    0    0    0    0  0.00000000000E+00  0.00000000000E+00  0.45593999997E+02  0.45594000000E+02  0.51100000000E-03 0. -1.
         11   -1    0    0    0    0 -0.00000000000E+00 -0.00000000000E+00 -0.45593999997E+02  0.45594000000E+02  0.51100000000E-03 0.  1.
    9900012    2    1    2    0    0 -0.11700769569E+01 -0.98868031767E-01 -0.12308627530E+00  0.90007320025E+02  0.89999575848E+02 0.  0.
         12    1    1    2    0    0  0.11700769569E+01  0.98868031767E-01  0.12308627530E+00  0.11806799753E+01  0.00000000000E+00 0. -1.
         11    1    3    3    0    0  0.78365246830E+01  0.12734172197E+01 -0.38861896003E+01  0.88394106360E+01  0.51100000000E-03 0. -1.
        -11    1    3    3    0    0 -0.84413614891E+01  0.29200632421E+01 -0.38073840368E+02  0.39107552643E+02  0.51100000000E-03 0.  1.
         12    1    3    3    0    0 -0.56524015074E+00 -0.42923484935E+01  0.41836943693E+02  0.42060356746E+02  0.00000000000E+00 0. -1.
</event>
<event>
 7    1  0.1935465E-015  0.9000774E+02  0.7816164E-02  0.1186339E+00
        -11   -1    0    0    0    0  0.00000000000E+00  0.00000000000E+00  0.45593999997E+02  0.45594000000E+02  0.51100000000E-03 0. -1.
         11   -1    0    0    0    0 -0.00000000000E+00 -0.00000000000E+00 -0.45593999997E+02  0.45594000000E+02  0.51100000000E-03 0.  1.
    9900012    2    1    2    0    0 -0.11372414967E+01 -0.21499951138E+00 -0.23121517706E+00  0.90007744320E+02  0.90000005745E+02 0.  0.
         12    1    1    2    0    0  0.11372414967E+01  0.21499951138E+00  0.23121517706E+00  0.11802556798E+01  0.00000000000E+00 0. -1.
         11    1    3    3    0    0 -0.25471987199E+01 -0.17455597371E+01 -0.51057452179E+01  0.59668948881E+01  0.51100000000E-03 0. -1.
        -11    1    3    3    0    0 -0.10496139032E+02 -0.37349032727E+02 -0.11101840734E+02  0.40353067395E+02  0.51100000000E-03 0.  1.
         12    1    3    3    0    0  0.11906096255E+02  0.38879592953E+02  0.15976370775E+02  0.43687782037E+02  0.00000000000E+00 0. -1.
</event>
<event>
 7    1  0.1935465E-015  0.9000772E+02  0.7816164E-02  0.1186339E+00
        -11   -1    0    0    0    0  0.00000000000E+00  0.00000000000E+00  0.45593999997E+02  0.45594000000E+02  0.51100000000E-03 0. -1.
         11   -1    0    0    0    0 -0.00000000000E+00 -0.00000000000E+00 -0.45593999997E+02  0.45594000000E+02  0.51100000000E-03 0.  1.
    9900012    2    1    2    0    0  0.10916163092E+01 -0.44290112050E+00 -0.72642612860E-01  0.90007718458E+02  0.89999979542E+02 0.  0.
         12    1    1    2    0    0 -0.10916163092E+01  0.44290112050E+00  0.72642612860E-01  0.11802815419E+01  0.00000000000E+00 0. -1.
         11    1    3    3    0    0  0.19973424179E+02 -0.28116179684E+02  0.33302794127E+01  0.34648924870E+02  0.51100000000E-03 0. -1.
        -11    1    3    3    0    0  0.71063669485E+01 -0.66733328741E+01 -0.72029490294E+01  0.12120903342E+02  0.51100000000E-03 0.  1.
        -12    1    3    3    0    0 -0.25988174819E+02  0.34346611437E+02  0.38000270038E+01  0.43237890245E+02  0.00000000000E+00 0.  1.
</event>
<event>
 7    1  0.1935465E-015  0.9000778E+02  0.7816164E-02  0.1186339E+00
        -11   -1    0    0    0    0  0.00000000000E+00  0.00000000000E+00  0.45593999997E+02  0.45594000000E+02  0.51100000000E-03 0.  1.
         11   -1    0    0    0    0 -0.00000000000E+00 -0.00000000000E+00 -0.45593999997E+02  0.45594000000E+02  0.51100000000E-03 0. -1.
    9900012    2    1    2    0    0  0.80258044997E+00  0.86529849402E+00  0.70841913287E-02  0.90007776696E+02  0.90000038548E+02 0.  0.
         12    1    1    2    0    0 -0.80258044997E+00 -0.86529849402E+00 -0.70841913287E-02  0.11802233044E+01  0.00000000000E+00 0. -1.
         11    1    3    3    0    0  0.17380810545E+02  0.20264955351E+01 -0.28292953262E+01  0.17725805247E+02  0.51100000000E-03 0. -1.
        -11    1    3    3    0    0 -0.11152147835E+02  0.58172666991E+01  0.35909076333E+02  0.38048295054E+02  0.51100000000E-03 0.  1.
         12    1    3    3    0    0 -0.54260822597E+01 -0.69784637403E+01 -0.33072696815E+02  0.34233676395E+02  0.00000000000E+00 0. -1.
</event>
<event>
 7    1  0.1935465E-015  0.9000774E+02  0.7816164E-02  0.1186339E+00
        -11   -1    0    0    0    0  0.00000000000E+00  0.00000000000E+00  0.45593999997E+02  0.45594000000E+02  0.51100000000E-03 0.  1.
         11   -1    0    0    0    0 -0.00000000000E+00 -0.00000000000E+00 -0.45593999997E+02  0.45594000000E+02  0.51100000000E-03 0. -1.
    9900012    2    1    2    0    0 -0.24005276806E-01 -0.93232902041E+00 -0.72333156849E+00  0.90007736380E+02  0.89999997700E+02 0.  0.
         12    1    1    2    0    0  0.24005276806E-01  0.93232902041E+00  0.72333156849E+00  0.11802636204E+01  0.00000000000E+00 0. -1.
         11    1    3    3    0    0  0.32905936220E+01  0.45901707049E+01 -0.55273726811E+01  0.79025010283E+01  0.51100000000E-03 0. -1.
        -11    1    3    3    0    0  0.38521667536E+02  0.49470123932E+01  0.23622045030E+01  0.38909790693E+02  0.51100000000E-03 0.  1.
         12    1    3    3    0    0 -0.41836266435E+02 -0.10469512119E+02  0.24418366096E+01  0.43195444658E+02  0.00000000000E+00 0. -1.
</event>
<event>
 7    1  0.1935465E-015  0.9000769E+02  0.7816164E-02  0.1186339E+00
        -11   -1    0    0    0    0  0.00000000000E+00  0.00000000000E+00  0.45593999997E+02  0.45594000000E+02  0.51100000000E-03 0.  1.
         11   -1    0    0    0    0 -0.00000000000E+00 -0.00000000000E+00 -0.45593999997E+02  0.45594000000E+02  0.51100000000E-03 0. -1.
    9900012    2    1    2    0    0  0.40928942723E+00 -0.76799935967E+00  0.79736717154E+00  0.90007688491E+02  0.89999949179E+02 0.  0.
         12    1    1    2    0    0 -0.40928942723E+00  0.76799935967E+00 -0.79736717154E+00  0.11803115089E+01  0.00000000000E+00 0. -1.
         11    1    3    3    0    0  0.87655897476E+00  0.95100397192E+01  0.17021200890E+01  0.97008465690E+01  0.51100000000E-03 0. -1.
        -11    1    3    3    0    0 -0.22145701482E+01  0.34782083955E+02 -0.41368734921E+01  0.35097170937E+02  0.51100000000E-03 0.  1.
         12    1    3    3    0    0  0.17473006006E+01 -0.45060123034E+02  0.32321205747E+01  0.45209670986E+02  0.00000000000E+00 0. -1.
</event>
<event>
 7    1  0.1935465E-015  0.9000773E+02  0.7816164E-02  0.1186339E+00
        -11   -1    0    0    0    0  0.00000000000E+00  0.00000000000E+00  0.45593999997E+02  0.45594000000E+02  0.51100000000E-03 0.  1.
         11   -1    0    0    0    0 -0.00000000000E+00 -0.00000000000E+00 -0.45593999997E+02  0.45594000000E+02  0.51100000000E-03 0. -1.
    9900012    2    1    2    0    0  0.11765017396E+00  0.59196192810E+00  0.10142843488E+01  0.90007731714E+02  0.89999992972E+02 0.  0.
         12    1    1    2    0    0 -0.11765017396E+00 -0.59196192810E+00 -0.10142843488E+01  0.11802682864E+01  0.00000000000E+00 0. -1.
         11    1    3    3    0    0 -0.70833014440E+00 -0.55909025279E+00 -0.23771830017E+01  0.25426979351E+01  0.51100000000E-03 0. -1.
        -11    1    3    3    0    0 -0.36231121575E+02  0.23947628887E+02 -0.27936752015E+01  0.43519969224E+02  0.51100000000E-03 0.  1.
         12    1    3    3    0    0  0.37057101894E+02 -0.22796576706E+02  0.61851425519E+01  0.43945064554E+02  0.00000000000E+00 0. -1.
</event>
<event>
 7    1  0.1935465E-015  0.9000773E+02  0.7816164E-02  0.1186339E+00
        -11   -1    0    0    0    0  0.00000000000E+00  0.00000000000E+00  0.45593999997E+02  0.45594000000E+02  0.51100000000E-03 0.  1.
         11   -1    0    0    0    0 -0.00000000000E+00 -0.00000000000E+00 -0.45593999997E+02  0.45594000000E+02  0.51100000000E-03 0. -1.
    9900012    2    1    2    0    0  0.65616000255E+00  0.95519595701E+00 -0.22383362158E+00  0.90007725983E+02  0.89999987166E+02 0.  0.
         12    1    1    2    0    0 -0.65616000255E+00 -0.95519595701E+00  0.22383362158E+00  0.11802740171E+01  0.00000000000E+00 0. -1.
         11    1    3    3    0    0 -0.28804264400E+01  0.76357846521E+01  0.68764516071E+01  0.10671815717E+02  0.51100000000E-03 0. -1.
        -11    1    3    3    0    0  0.50965694444E+01  0.30811610074E+02  0.16183601386E+02  0.35174412427E+02  0.51100000000E-03 0.  1.
         12    1    3    3    0    0 -0.15599830018E+01 -0.37492198769E+02 -0.23283886615E+02  0.44161497839E+02  0.00000000000E+00 0. -1.
</event>
<event>
 7    1  0.1935465E-015  0.9000766E+02  0.7816164E-02  0.1186339E+00
        -11   -1    0    0    0    0  0.00000000000E+00  0.00000000000E+00  0.45593999997E+02  0.45594000000E+02  0.51100000000E-03 0.  1.
         11   -1    0    0    0    0 -0.00000000000E+00 -0.00000000000E+00 -0.45593999997E+02  0.45594000000E+02  0.51100000000E-03 0. -1.
    9900012    2    1    2    0    0  0.82448046868E+00 -0.84371973568E+00  0.39736496383E-01  0.90007656819E+02  0.89999917089E+02 0.  0.
         12    1    1    2    0    0 -0.82448046868E+00  0.84371973568E+00 -0.39736496383E-01  0.11803431809E+01  0.00000000000E+00 0. -1.
         11    1    3    3    0    0 -0.17308004625E+02 -0.26478054517E+02 -0.18664220834E+02  0.36728837917E+02  0.51100000000E-03 0. -1.
        -11    1    3    3    0    0 -0.14968811106E+01 -0.85677758876E+01 -0.17245546486E+01  0.88668780141E+01  0.51100000000E-03 0.  1.
        -12    1    3    3    0    0  0.19629366204E+02  0.34202110669E+02  0.20428511979E+02  0.44411940888E+02  0.00000000000E+00 0.  1.
</event>
<event>
 7    1  0.1935465E-015  0.9000775E+02  0.7816164E-02  0.1186339E+00
        -11   -1    0    0    0    0  0.00000000000E+00  0.00000000000E+00  0.45593999997E+02  0.45594000000E+02  0.51100000000E-03 0.  1.
         11   -1    0    0    0    0 -0.00000000000E+00 -0.00000000000E+00 -0.45593999997E+02  0.45594000000E+02  0.51100000000E-03 0. -1.
    9900012    2    1    2    0    0 -0.68492656805E+00  0.15358265798E+00  0.94883409584E+00  0.90007746562E+02  0.90000008017E+02 0.  0.
         12    1    1    2    0    0  0.68492656805E+00 -0.15358265798E+00 -0.94883409584E+00  0.11802534380E+01  0.00000000000E+00 0. -1.
         11    1    3    3    0    0  0.94936241260E+01  0.19344378779E+01 -0.78757728680E+01  0.12485941994E+02  0.51100000000E-03 0. -1.
        -11    1    3    3    0    0 -0.13950436002E+02  0.14728123398E+01  0.41841926076E+02  0.44130835239E+02  0.51100000000E-03 0.  1.
         12    1    3    3    0    0  0.37718853084E+01 -0.32536675597E+01 -0.33017319112E+02  0.33390969329E+02  0.00000000000E+00 0. -1.
</event>
<event>
 7    1  0.1935465E-015  0.9000776E+02  0.7816164E-02  0.1186339E+00
        -11   -1    0    0    0    0  0.00000000000E+00  0.00000000000E+00  0.45593999997E+02  0.45594000000E+02  0.51100000000E-03 0. -1.
         11   -1    0    0    0    0 -0.00000000000E+00 -0.00000000000E+00 -0.45593999997E+02  0.45594000000E+02  0.51100000000E-03 0.  1.
    9900012    2    1    2    0    0 -0.10131349633E+01 -0.16876746481E-01  0.60517186191E+00  0.90007762625E+02  0.90000024292E+02 0.  0.
         12    1    1    2    0    0  0.10131349633E+01  0.16876746481E-01 -0.60517186191E+00  0.11802373748E+01  0.00000000000E+00 0. -1.
         11    1    3    3    0    0  0.13634706161E+02  0.23606072128E+01  0.36086344194E+02  0.38648440022E+02  0.51100000000E-03 0. -1.
        -11    1    3    3    0    0  0.78106676164E+01 -0.63222464514E+01 -0.11067461184E+01  0.10109511167E+02  0.51100000000E-03 0.  1.
        -12    1    3    3    0    0 -0.22458508741E+02  0.39447624921E+01 -0.34374426214E+02  0.41249811437E+02  0.00000000000E+00 0.  1.
</event>
<event>
 7    1  0.2055385E-015  0.9000774E+02  0.7816164E-02  0.1186339E+00
        -11   -1    0    0    0    0  0.00000000000E+00  0.00000000000E+00  0.45593999997E+02  0.45594000000E+02  0.51100000000E-03 0.  1.
         11   -1    0    0    0    0 -0.00000000000E+00 -0.00000000000E+00 -0.45593999997E+02  0.45594000000E+02  0.51100000000E-03 0. -1.
    9900012    2    1    2    0    0  0.11769943640E+01  0.37856053334E-01  0.79084685925E-01  0.90007744434E+02  0.90000005860E+02 0.  0.
         12    1    1    2    0    0 -0.11769943640E+01 -0.37856053334E-01 -0.79084685925E-01  0.11802555661E+01  0.00000000000E+00 0. -1.
         11    1    3    3    0    0  0.20186103898E+01  0.81028850831E+01  0.42639861841E+01  0.93761992841E+01  0.51100000000E-03 0. -1.
        -11    1    3    3    0    0  0.39925026586E-01  0.28255751505E+01  0.37465458706E+02  0.37571878649E+02  0.51100000000E-03 0.  1.
         12    1    3    3    0    0 -0.88154105235E+00 -0.10890604180E+02 -0.41650360204E+02  0.43059666501E+02  0.00000000000E+00 0. -1.
</event>
<event>
 7    1  0.1935465E-015  0.9000786E+02  0.7816164E-02  0.1186339E+00
        -11   -1    0    0    0    0  0.00000000000E+00  0.00000000000E+00  0.45593999997E+02  0.45594000000E+02  0.51100000000E-03 0.  1.
         11   -1    0    0    0    0 -0.00000000000E+00 -0.00000000000E+00 -0.45593999997E+02  0.45594000000E+02  0.51100000000E-03 0. -1.
    9900012    2    1    2    0    0  0.92291878292E+00  0.49377132355E+00  0.54510811340E+00  0.90007859307E+02  0.90000122250E+02 0.  0.
         12    1    1    2    0    0 -0.92291878292E+00 -0.49377132355E+00 -0.54510811340E+00  0.11801406929E+01  0.00000000000E+00 0. -1.
         11    1    3    3    0    0  0.49007505298E+01  0.78216959614E+01 -0.29299144300E+01  0.96840426629E+01  0.51100000000E-03 0. -1.
        -11    1    3    3    0    0 -0.35949245817E+02  0.13187451841E+02 -0.10730903220E+02  0.39766939096E+02  0.51100000000E-03 0.  1.
         12    1    3    3    0    0  0.31971414070E+02 -0.20515376479E+02  0.14205925763E+02  0.40556877549E+02  0.00000000000E+00 0. -1.
</event>
<event>
 7    1  0.1935465E-015  0.9000762E+02  0.7816164E-02  0.1186339E+00
        -11   -1    0    0    0    0  0.00000000000E+00  0.00000000000E+00  0.45593999997E+02  0.45594000000E+02  0.51100000000E-03 0.  1.
         11   -1    0    0    0    0 -0.00000000000E+00 -0.00000000000E+00 -0.45593999997E+02  0.45594000000E+02  0.51100000000E-03 0. -1.
    9900012    2    1    2    0    0  0.38253453403E+00 -0.10897975562E+01 -0.24352739320E+00  0.90007619987E+02  0.89999879771E+02 0.  0.
         12    1    1    2    0    0 -0.38253453403E+00  0.10897975562E+01  0.24352739320E+00  0.11803800127E+01  0.00000000000E+00 0. -1.
         11    1    3    3    0    0 -0.33572932164E+00 -0.29221962221E+02 -0.26301839973E+02  0.39316950244E+02  0.51100000000E-03 0. -1.
        -11    1    3    3    0    0  0.83340510284E+01 -0.31447842473E+01 -0.55263991233E+00  0.89247681001E+01  0.51100000000E-03 0.  1.
        -12    1    3    3    0    0 -0.76157871728E+01  0.31276948912E+02  0.26610952492E+02  0.41765901643E+02  0.00000000000E+00 0.  1.
</event>
<event>
 7    1  0.1935465E-015  0.9000776E+02  0.7816164E-02  0.1186339E+00
        -11   -1    0    0    0    0  0.00000000000E+00  0.00000000000E+00  0.45593999997E+02  0.45594000000E+02  0.51100000000E-03 0.  1.
         11   -1    0    0    0    0 -0.00000000000E+00 -0.00000000000E+00 -0.45593999997E+02  0.45594000000E+02  0.51100000000E-03 0. -1.
    9900012    2    1    2    0    0 -0.76796250627E+00  0.88261028856E+00 -0.15559711681E+00  0.90007755197E+02  0.90000016765E+02 0.  0.
         12    1    1    2    0    0  0.76796250627E+00 -0.88261028856E+00  0.15559711681E+00  0.11802448031E+01  0.00000000000E+00 0. -1.
         11    1    3    3    0    0  0.32631115844E+00 -0.80623391072E+01 -0.53438972881E+01  0.96780695047E+01  0.51100000000E-03 0. -1.
        -11    1    3    3    0    0  0.14834629587E+02 -0.27516783986E+02  0.20842300468E+02  0.37571812905E+02  0.51100000000E-03 0.  1.
         12    1    3    3    0    0 -0.15928903252E+02  0.36461733382E+02 -0.15654000297E+02  0.42757872787E+02  0.00000000000E+00 0. -1.
</event>
<event>
 7    1  0.1935465E-015  0.9000713E+02  0.7816164E-02  0.1186340E+00
        -11   -1    0    0    0    0  0.00000000000E+00  0.00000000000E+00  0.45593999997E+02  0.45594000000E+02  0.51100000000E-03 0. -1.
         11   -1    0    0    0    0 -0.00000000000E+00 -0.00000000000E+00 -0.45593999997E+02  0.45594000000E+02  0.51100000000E-03 0.  1.
    9900012    2    1    2    0    0  0.39968637475E+00 -0.10258653173E+01  0.42696724587E+00  0.90007131728E+02  0.89999385064E+02 0.  0.
         12    1    1    2    0    0 -0.39968637475E+00  0.10258653173E+01 -0.42696724587E+00  0.11808682723E+01  0.00000000000E+00 0. -1.
         11    1    3    3    0    0 -0.51612061321E+01 -0.11576770030E+02  0.19430541317E+01  0.12823225518E+02  0.51100000000E-03 0. -1.
        -11    1    3    3    0    0 -0.44918303549E+01 -0.32552165590E+02  0.70795026712E+00  0.32868240269E+02  0.51100000000E-03 0.  1.
         12    1    3    3    0    0  0.10052722862E+02  0.43103070303E+02 -0.22240371529E+01  0.44315665940E+02  0.00000000000E+00 0. -1.
</event>
<event>
 7    1  0.1935465E-015  0.9000767E+02  0.7816164E-02  0.1186339E+00
        -11   -1    0    0    0    0  0.00000000000E+00  0.00000000000E+00  0.45593999997E+02  0.45594000000E+02  0.51100000000E-03 0.  1.
         11   -1    0    0    0    0 -0.00000000000E+00 -0.00000000000E+00 -0.45593999997E+02  0.45594000000E+02  0.51100000000E-03 0. -1.
    9900012    2    1    2    0    0 -0.17822272588E+00  0.23098748071E+00  0.11437056274E+01  0.90007669064E+02  0.89999929496E+02 0.  0.
         12    1    1    2    0    0  0.17822272588E+00 -0.23098748071E+00 -0.11437056274E+01  0.11803309360E+01  0.00000000000E+00 0. -1.
         11    1    3    3    0    0 -0.35265524095E+02 -0.16342060535E+02 -0.17147282796E+01  0.38905789101E+02  0.51100000000E-03 0. -1.
        -11    1    3    3    0    0 -0.43731306060E+01  0.94314001460E+00  0.71585353991E+01  0.84414698783E+01  0.51100000000E-03 0.  1.
        -12    1    3    3    0    0  0.39460431975E+02  0.15629908002E+02 -0.43001014920E+01  0.42660410085E+02  0.00000000000E+00 0.  1.
</event>
<event>
 7    1  0.1935465E-015  0.9000775E+02  0.7816164E-02  0.1186339E+00
        -11   -1    0    0    0    0  0.00000000000E+00  0.00000000000E+00  0.45593999997E+02  0.45594000000E+02  0.51100000000E-03 0.  1.
         11   -1    0    0    0    0 -0.00000000000E+00 -0.00000000000E+00 -0.45593999997E+02  0.45594000000E+02  0.51100000000E-03 0. -1.
    9900012    2    1    2    0    0 -0.83702067884E+00  0.73226771213E+00  0.39518338950E+00  0.90007750225E+02  0.90000011728E+02 0.  0.
         12    1    1    2    0    0  0.83702067884E+00 -0.73226771213E+00 -0.39518338950E+00  0.11802497746E+01  0.00000000000E+00 0. -1.
         11    1    3    3    0    0  0.17828389142E+01 -0.67549948417E+01 -0.82489997267E+01  0.10809924452E+02  0.51100000000E-03 0. -1.
        -11    1    3    3    0    0 -0.36137936545E+01 -0.25703302219E+02 -0.21990742895E+02  0.34019288983E+02  0.51100000000E-03 0.  1.
         12    1    3    3    0    0  0.99393406141E+00  0.33190564773E+02  0.30634926011E+02  0.45178536791E+02  0.00000000000E+00 0. -1.
</event>
<event>
 7    1  0.1935465E-015  0.9000659E+02  0.7816164E-02  0.1186341E+00
        -11   -1    0    0    0    0  0.00000000000E+00  0.00000000000E+00  0.45593999997E+02  0.45594000000E+02  0.51100000000E-03 0. -1.
         11   -1    0    0    0    0 -0.00000000000E+00 -0.00000000000E+00 -0.45593999997E+02  0.45594000000E+02  0.51100000000E-03 0.  1.
    9900012    2    1    2    0    0 -0.90959959977E+00  0.70637167443E+00 -0.26344668947E+00  0.90006587061E+02  0.89998833203E+02 0.  0.
         12    1    1    2    0    0  0.90959959977E+00 -0.70637167443E+00  0.26344668947E+00  0.11814129390E+01  0.00000000000E+00 0. -1.
         11    1    3    3    0    0  0.40725069294E+01 -0.95536537212E+01  0.40261571225E+00  0.10393253186E+02  0.51100000000E-03 0. -1.
        -11    1    3    3    0    0 -0.36214015106E+02 -0.33147168997E+01 -0.18901070231E+02  0.40984054147E+02  0.51100000000E-03 0.  1.
         12    1    3    3    0    0  0.31231908577E+02  0.13574742295E+02  0.18235007829E+02  0.38629279728E+02  0.00000000000E+00 0. -1.
</event>
<event>
 7    1  0.1935465E-015  0.9000780E+02  0.7816164E-02  0.1186339E+00
        -11   -1    0    0    0    0  0.00000000000E+00  0.00000000000E+00  0.45593999997E+02  0.45594000000E+02  0.51100000000E-03 0.  1.
         11   -1    0    0    0    0 -0.00000000000E+00 -0.00000000000E+00 -0.45593999997E+02  0.45594000000E+02  0.51100000000E-03 0. -1.
    9900012    2    1    2    0    0 -0.97633579086E+00 -0.42965288551E+00  0.50500643690E+00  0.90007803118E+02  0.90000065319E+02 0.  0.
         12    1    1    2    0    0  0.97633579086E+00  0.42965288551E+00 -0.50500643690E+00  0.11801968818E+01  0.00000000000E+00 0. -1.
         11    1    3    3    0    0 -0.13034956900E+01 -0.60012389535E+01 -0.59299498488E+01  0.85368773835E+01  0.51100000000E-03 0. -1.
        -11    1    3    3    0    0 -0.28322511513E+02  0.16810349148E+02  0.28539115148E+02  0.43580197230E+02  0.51100000000E-03 0.  1.
         12    1    3    3    0    0  0.28649671412E+02 -0.11238763080E+02 -0.22104158863E+02  0.37890728505E+02  0.00000000000E+00 0. -1.
</event>
<event>
 7    1  0.2040567E-015  0.9000779E+02  0.7816164E-02  0.1186339E+00
        -11   -1    0    0    0    0  0.00000000000E+00  0.00000000000E+00  0.45593999997E+02  0.45594000000E+02  0.51100000000E-03 0.  1.
         11   -1    0    0    0    0 -0.00000000000E+00 -0.00000000000E+00 -0.45593999997E+02  0.45594000000E+02  0.51100000000E-03 0. -1.
    9900012    2    1    2    0    0 -0.93231759439E+00  0.18955632427E+00  0.69838251240E+00  0.90007794158E+02  0.90000056240E+02 0.  0.
         12    1    1    2    0    0  0.93231759439E+00 -0.18955632427E+00 -0.69838251240E+00  0.11802058424E+01  0.00000000000E+00 0. -1.
         11    1    3    3    0    0 -0.24350074464E+01  0.13010209414E+01 -0.10360894254E+02  0.10722408626E+02  0.51100000000E-03 0. -1.
        -11    1    3    3    0    0  0.36164928611E+02 -0.14164350911E+02  0.15828152637E+02  0.41941164914E+02  0.51100000000E-03 0.  1.
         12    1    3    3    0    0 -0.34662238759E+02  0.13052886294E+02 -0.47688758710E+01  0.37344220617E+02  0.00000000000E+00 0. -1.
</event>
<event>
 7    1  0.1935465E-015  0.9000751E+02  0.7816164E-02  0.1186340E+00
        -11   -1    0    0    0    0  0.00000000000E+00  0.00000000000E+00  0.45593999997E+02  0.45594000000E+02  0.51100000000E-03 0. -1.
         11   -1    0    0    0    0 -0.00000000000E+00 -0.00000000000E+00 -0.45593999997E+02  0.45594000000E+02  0.51100000000E-03 0.  1.
    9900012    2    1    2    0    0  0.10156823589E-01 -0.38203514041E+00 -0.11169162130E+01  0.90007510340E+02  0.89999768677E+02 0.  0.
         12    1    1    2    0    0 -0.10156823589E-01  0.38203514041E+00  0.11169162130E+01  0.11804896596E+01  0.00000000000E+00 0. -1.
         11    1    3    3    0    0 -0.31183955679E+02 -0.17234913218E+02 -0.18192054312E+01  0.35676194220E+02  0.51100000000E-03 0. -1.
        -11    1    3    3    0    0 -0.60314218199E+01 -0.64991518715E+01  0.49976400621E+01  0.10178085806E+02  0.51100000000E-03 0.  1.
        -12    1    3    3    0    0  0.37225534322E+02  0.23352029949E+02 -0.42953508439E+01  0.44153230314E+02  0.00000000000E+00 0.  1.
</event>
<event>
 7    1  0.1935465E-015  0.9000771E+02  0.7816164E-02  0.1186339E+00
        -11   -1    0    0    0    0  0.00000000000E+00  0.00000000000E+00  0.45593999997E+02  0.45594000000E+02  0.51100000000E-03 0. -1.
         11   -1    0    0    0    0 -0.00000000000E+00 -0.00000000000E+00 -0.45593999997E+02  0.45594000000E+02  0.51100000000E-03 0.  1.
    9900012    2    1    2    0    0 -0.77827334148E+00  0.37321480715E-01 -0.88655719885E+00  0.90007709377E+02  0.89999970341E+02 0.  0.
         12    1    1    2    0    0  0.77827334148E+00 -0.37321480715E-01  0.88655719885E+00  0.11802906226E+01  0.00000000000E+00 0. -1.
         11    1    3    3    0    0 -0.33838005748E+02  0.19386834203E+02 -0.13649685058E+02  0.41317960694E+02  0.51100000000E-03 0. -1.
        -11    1    3    3    0    0  0.68929530339E+01  0.65418914306E+01  0.60665034369E+01  0.11274378441E+02  0.51100000000E-03 0.  1.
        -12    1    3    3    0    0  0.26166779373E+02 -0.25891404153E+02  0.66966244226E+01  0.37415370243E+02  0.00000000000E+00 0.  1.
</event>
<event>
 7    1  0.1935465E-015  0.9000736E+02  0.7816164E-02  0.1186340E+00
        -11   -1    0    0    0    0  0.00000000000E+00  0.00000000000E+00  0.45593999997E+02  0.45594000000E+02  0.51100000000E-03 0.  1.
         11   -1    0    0    0    0 -0.00000000000E+00 -0.00000000000E+00 -0.45593999997E+02  0.45594000000E+02  0.51100000000E-03 0. -1.
    9900012    2    1    2    0    0 -0.87922480342E+00 -0.34617059576E+00  0.70784014398E+00  0.90007361187E+02  0.89999617554E+02 0.  0.
         12    1    1    2    0    0  0.87922480342E+00  0.34617059576E+00 -0.70784014398E+00  0.11806388126E+01  0.00000000000E+00 0. -1.
         11    1    3    3    0    0 -0.51655686502E+01  0.20524885135E+01 -0.39064281228E+02  0.39457747994E+02  0.51100000000E-03 0. -1.
        -11    1    3    3    0    0  0.11123840011E+02  0.19581324177E+01  0.14597830100E+01  0.11388813189E+02  0.51100000000E-03 0.  1.
        -12    1    3    3    0    0 -0.68374961647E+01 -0.43567915270E+01  0.38312338362E+02  0.39160800004E+02  0.00000000000E+00 0.  1.
</event>
<event>
 7    1  0.1935465E-015  0.9000777E+02  0.7816164E-02  0.1186339E+00
        -11   -1    0    0    0    0  0.00000000000E+00  0.00000000000E+00  0.45593999997E+02  0.45594000000E+02  0.51100000000E-03 0. -1.
         11   -1    0    0    0    0 -0.00000000000E+00 -0.00000000000E+00 -0.45593999997E+02  0.45594000000E+02  0.51100000000E-03 0.  1.
    9900012    2    1    2    0    0  0.66250363327E+00 -0.48827382322E+00 -0.84594571274E+00  0.90007768438E+02  0.90000030182E+02 0.  0.
         12    1    1    2    0    0 -0.66250363327E+00  0.48827382322E+00  0.84594571274E+00  0.11802315618E+01  0.00000000000E+00 0. -1.
         11    1    3    3    0    0  0.13531561172E+02 -0.14560360495E+02 -0.37290492257E+01  0.20224071150E+02  0.51100000000E-03 0. -1.
        -11    1    3    3    0    0  0.17945180922E+02 -0.17800599938E+02 -0.87999023550E+00  0.25291604527E+02  0.51100000000E-03 0.  1.
        -12    1    3    3    0    0 -0.30814238461E+02  0.31872686610E+02  0.37630937484E+01  0.44492092761E+02  0.00000000000E+00 0.  1.
</event>
<event>
 7    1  0.1935465E-015  0.9000775E+02  0.7816164E-02  0.1186339E+00
        -11   -1    0    0    0    0  0.00000000000E+00  0.00000000000E+00  0.45593999997E+02  0.45594000000E+02  0.51100000000E-03 0. -1.
         11   -1    0    0    0    0 -0.00000000000E+00 -0.00000000000E+00 -0.45593999997E+02  0.45594000000E+02  0.51100000000E-03 0.  1.
    9900012    2    1    2    0    0 -0.85475374435E+00 -0.30602198001E+00 -0.75415101833E+00  0.90007746987E+02  0.90000008447E+02 0.  0.
         12    1    1    2    0    0  0.85475374435E+00  0.30602198001E+00  0.75415101833E+00  0.11802530128E+01  0.00000000000E+00 0. -1.
         11    1    3    3    0    0 -0.10321749722E+02 -0.16539787780E+02 -0.28465259341E+02  0.34501798312E+02  0.51100000000E-03 0. -1.
        -11    1    3    3    0    0  0.72945099010E+00  0.96866357077E+01 -0.11354761577E+02  0.14943012441E+02  0.51100000000E-03 0.  1.
         12    1    3    3    0    0  0.87375449880E+01  0.65471300927E+01  0.39065869900E+02  0.40562936234E+02  0.00000000000E+00 0. -1.
</event>
<event>
 7    1  0.1935465E-015  0.9000775E+02  0.7816164E-02  0.1186339E+00
        -11   -1    0    0    0    0  0.00000000000E+00  0.00000000000E+00  0.45593999997E+02  0.45594000000E+02  0.51100000000E-03 0.  1.
         11   -1    0    0    0    0 -0.00000000000E+00 -0.00000000000E+00 -0.45593999997E+02  0.45594000000E+02  0.51100000000E-03 0. -1.
    9900012    2    1    2    0    0 -0.64584396762E-01 -0.20612078741E+00  0.11603159836E+01  0.90007749982E+02  0.90000011482E+02 0.  0.
         12    1    1    2    0    0  0.64584396762E-01  0.20612078741E+00 -0.11603159836E+01  0.11802500180E+01  0.00000000000E+00 0. -1.
         11    1    3    3    0    0 -0.24771457540E+01  0.94942647424E+01 -0.18362403753E+02  0.20819586594E+02  0.51100000000E-03 0. -1.
        -11    1    3    3    0    0 -0.18535466439E+02 -0.24133341305E+02 -0.82473255619E+01  0.31527766458E+02  0.51100000000E-03 0.  1.
         12    1    3    3    0    0  0.20948027796E+02  0.14432955775E+02  0.27770045299E+02  0.37660396929E+02  0.00000000000E+00 0. -1.
</event>
<event>
 7    1  0.1935465E-015  0.9000770E+02  0.7816164E-02  0.1186339E+00
        -11   -1    0    0    0    0  0.00000000000E+00  0.00000000000E+00  0.45593999997E+02  0.45594000000E+02  0.51100000000E-03 0.  1.
         11   -1    0    0    0    0 -0.00000000000E+00 -0.00000000000E+00 -0.45593999997E+02  0.45594000000E+02  0.51100000000E-03 0. -1.
    9900012    2    1    2    0    0 -0.88075278001E+00  0.14014916895E+00  0.77313804418E+00  0.90007699325E+02  0.89999960156E+02 0.  0.
         12    1    1    2    0    0  0.88075278001E+00 -0.14014916895E+00 -0.77313804418E+00  0.11803006754E+01  0.00000000000E+00 0. -1.
         11    1    3    3    0    0 -0.91702752231E+00 -0.17828004296E+02 -0.96185770209E+00  0.17877467582E+02  0.51100000000E-03 0. -1.
        -11    1    3    3    0    0 -0.13580819709E+02  0.29889393172E+02 -0.24001086829E+02  0.40667759434E+02  0.51100000000E-03 0.  1.
         12    1    3    3    0    0  0.13617094451E+02 -0.11921239707E+02  0.25736082575E+02  0.31462472309E+02  0.00000000000E+00 0. -1.
</event>
<event>
 7    1  0.1935465E-015  0.9000771E+02  0.7816164E-02  0.1186339E+00
        -11   -1    0    0    0    0  0.00000000000E+00  0.00000000000E+00  0.45593999997E+02  0.45594000000E+02  0.51100000000E-03 0. -1.
         11   -1    0    0    0    0 -0.00000000000E+00 -0.00000000000E+00 -0.45593999997E+02  0.45594000000E+02  0.51100000000E-03 0.  1.
    9900012    2    1    2    0    0 -0.68890835016E+00  0.23942041084E+00 -0.92799049251E+00  0.90007710543E+02  0.89999971522E+02 0.  0.
         12    1    1    2    0    0  0.68890835016E+00 -0.23942041084E+00  0.92799049251E+00  0.11802894570E+01  0.00000000000E+00 0. -1.
         11    1    3    3    0    0 -0.68617205916E+01 -0.20609993574E+01  0.40890811831E+01  0.82493340951E+01  0.51100000000E-03 0. -1.
        -11    1    3    3    0    0 -0.28633100762E+02  0.25017558280E+02  0.66240592399E+01  0.38595476972E+02  0.51100000000E-03 0.  1.
         12    1    3    3    0    0  0.34805913004E+02 -0.22717138512E+02 -0.11641130916E+02  0.43162899476E+02  0.00000000000E+00 0. -1.
</event>
<event>
 7    1  0.1935465E-015  0.9000775E+02  0.7816164E-02  0.1186339E+00
        -11   -1    0    0    0    0  0.00000000000E+00  0.00000000000E+00  0.45593999997E+02  0.45594000000E+02  0.51100000000E-03 0. -1.
         11   -1    0    0    0    0 -0.00000000000E+00 -0.00000000000E+00 -0.45593999997E+02  0.45594000000E+02  0.51100000000E-03 0.  1.
    9900012    2    1    2    0    0  0.31903270753E+00  0.11337233685E+01 -0.76718156519E-01  0.90007747391E+02  0.90000008857E+02 0.  0.
         12    1    1    2    0    0 -0.31903270753E+00 -0.11337233685E+01  0.76718156519E-01  0.11802526087E+01  0.00000000000E+00 0. -1.
         11    1    3    3    0    0  0.10100432100E+02 -0.66206314185E+01 -0.48105816002E+01  0.12999737866E+02  0.51100000000E-03 0. -1.
        -11    1    3    3    0    0 -0.20064661148E+02 -0.23511629805E+02 -0.19132851705E+02  0.36351800199E+02  0.51100000000E-03 0.  1.
         12    1    3    3    0    0  0.10283261756E+02  0.31265984592E+02  0.23866715149E+02  0.40656209327E+02  0.00000000000E+00 0. -1.
</event>
<event>
 7    1  0.2168173E-015  0.9000773E+02  0.7816164E-02  0.1186339E+00
        -11   -1    0    0    0    0  0.00000000000E+00  0.00000000000E+00  0.45593999997E+02  0.45594000000E+02  0.51100000000E-03 0.  1.
         11   -1    0    0    0    0 -0.00000000000E+00 -0.00000000000E+00 -0.45593999997E+02  0.45594000000E+02  0.51100000000E-03 0. -1.
    9900012    2    1    2    0    0 -0.78648399429E+00 -0.87759385009E+00 -0.65557873494E-01  0.90007734829E+02  0.89999996129E+02 0.  0.
         12    1    1    2    0    0  0.78648399429E+00  0.87759385009E+00  0.65557873494E-01  0.11802651710E+01  0.00000000000E+00 0. -1.
         11    1    3    3    0    0  0.42099983701E+00 -0.97419002936E+01  0.17854632889E+01  0.99131095833E+01  0.51100000000E-03 0. -1.
        -11    1    3    3    0    0 -0.17838054588E+02  0.13632669301E+02  0.33736842152E+02  0.40524318407E+02  0.51100000000E-03 0.  1.
         12    1    3    3    0    0  0.16630570756E+02 -0.47683628571E+01 -0.35587863314E+02  0.39570306839E+02  0.00000000000E+00 0. -1.
</event>
<event>
 7    1  0.2347048E-015  0.9000772E+02  0.7816164E-02  0.1186339E+00
        -11   -1    0    0    0    0  0.00000000000E+00  0.00000000000E+00  0.45593999997E+02  0.45594000000E+02  0.51100000000E-03 0.  1.
         11   -1    0    0    0    0 -0.00000000000E+00 -0.00000000000E+00 -0.45593999997E+02  0.45594000000E+02  0.51100000000E-03 0. -1.
    9900012    2    1    2    0    0 -0.52594060425E+00 -0.43133165734E+00  0.96456885659E+00  0.90007723085E+02  0.89999984229E+02 0.  0.
         12    1    1    2    0    0  0.52594060425E+00  0.43133165734E+00 -0.96456885659E+00  0.11802769154E+01  0.00000000000E+00 0. -1.
         11    1    3    3    0    0  0.81882511312E+01 -0.55909623906E+01  0.18912031379E+01  0.10093709259E+02  0.51100000000E-03 0. -1.
        -11    1    3    3    0    0 -0.29028457574E+02 -0.11696632088E+02  0.27110474239E+02  0.41405801104E+02  0.51100000000E-03 0.  1.
         12    1    3    3    0    0  0.20314265838E+02  0.16856262822E+02 -0.28037108520E+02  0.38508212722E+02  0.00000000000E+00 0. -1.
</event>
<event>
 7    1  0.1935465E-015  0.9000777E+02  0.7816164E-02  0.1186339E+00
        -11   -1    0    0    0    0  0.00000000000E+00  0.00000000000E+00  0.45593999997E+02  0.45594000000E+02  0.51100000000E-03 0. -1.
         11   -1    0    0    0    0 -0.00000000000E+00 -0.00000000000E+00 -0.45593999997E+02  0.45594000000E+02  0.51100000000E-03 0.  1.
    9900012    2    1    2    0    0  0.88535262408E+00  0.62469106118E+00 -0.46780893308E+00  0.90007774009E+02  0.90000035826E+02 0.  0.
         12    1    1    2    0    0 -0.88535262408E+00 -0.62469106118E+00  0.46780893308E+00  0.11802259905E+01  0.00000000000E+00 0. -1.
         11    1    3    3    0    0 -0.61457244618E+01 -0.57577479492E+01 -0.78892259587E+01  0.11539561391E+02  0.51100000000E-03 0. -1.
        -11    1    3    3    0    0 -0.46515686840E+01 -0.12066077156E+02 -0.31382308056E+02  0.33942253436E+02  0.51100000000E-03 0.  1.
         12    1    3    3    0    0  0.11682645770E+02  0.18448516166E+02  0.38803725081E+02  0.44525959182E+02  0.00000000000E+00 0. -1.
</event>
<event>
 7    1  0.1935465E-015  0.9000785E+02  0.7816164E-02  0.1186339E+00
        -11   -1    0    0    0    0  0.00000000000E+00  0.00000000000E+00  0.45593999997E+02  0.45594000000E+02  0.51100000000E-03 0.  1.
         11   -1    0    0    0    0 -0.00000000000E+00 -0.00000000000E+00 -0.45593999997E+02  0.45594000000E+02  0.51100000000E-03 0. -1.
    9900012    2    1    2    0    0 -0.63634703646E+00  0.44250704133E+00  0.88994035035E+00  0.90007854306E+02  0.90000117183E+02 0.  0.
         12    1    1    2    0    0  0.63634703646E+00 -0.44250704133E+00 -0.88994035035E+00  0.11801456942E+01  0.00000000000E+00 0. -1.
         11    1    3    3    0    0  0.32906827495E+02 -0.64160299646E+01 -0.11433720660E+02  0.35422516916E+02  0.51100000000E-03 0. -1.
        -11    1    3    3    0    0  0.26347334523E+01  0.10094594829E+02 -0.78320140555E+01  0.13045424851E+02  0.51100000000E-03 0.  1.
        -12    1    3    3    0    0 -0.36177907984E+02 -0.32360578228E+01  0.20155675066E+02  0.41539912538E+02  0.00000000000E+00 0.  1.
</event>
<event>
 7    1  0.1935465E-015  0.9000760E+02  0.7816164E-02  0.1186339E+00
        -11   -1    0    0    0    0  0.00000000000E+00  0.00000000000E+00  0.45593999997E+02  0.45594000000E+02  0.51100000000E-03 0.  1.
         11   -1    0    0    0    0 -0.00000000000E+00 -0.00000000000E+00 -0.45593999997E+02  0.45594000000E+02  0.51100000000E-03 0. -1.
    9900012    2    1    2    0    0 -0.64539820895E+00  0.98078450831E+00 -0.12195140390E+00  0.90007597846E+02  0.89999857338E+02 0.  0.
         12    1    1    2    0    0  0.64539820895E+00 -0.98078450831E+00  0.12195140390E+00  0.11804021538E+01  0.00000000000E+00 0. -1.
         11    1    3    3    0    0 -0.24793778541E+01 -0.90385952433E+01 -0.89485078644E+00  0.94151089588E+01  0.51100000000E-03 0. -1.
        -11    1    3    3    0    0  0.40521145699E+02  0.80982716507E+00 -0.30329119886E+01  0.40642559272E+02  0.51100000000E-03 0.  1.
         12    1    3    3    0    0 -0.38687166054E+02  0.92095525865E+01  0.38058113711E+01  0.39949929616E+02  0.00000000000E+00 0. -1.
</event>
<event>
 7    1  0.1935465E-015  0.9000773E+02  0.7816164E-02  0.1186339E+00
        -11   -1    0    0    0    0  0.00000000000E+00  0.00000000000E+00  0.45593999997E+02  0.45594000000E+02  0.51100000000E-03 0.  1.
         11   -1    0    0    0    0 -0.00000000000E+00 -0.00000000000E+00 -0.45593999997E+02  0.45594000000E+02  0.51100000000E-03 0. -1.
    9900012    2    1    2    0    0 -0.10139627247E+01 -0.50476875857E+00  0.33185644194E+00  0.90007728589E+02  0.89999989806E+02 0.  0.
         12    1    1    2    0    0  0.10139627247E+01  0.50476875857E+00 -0.33185644194E+00  0.11802714115E+01  0.00000000000E+00 0. -1.
         11    1    3    3    0    0  0.76170142999E+01 -0.35549238606E+01  0.53597104738E+01  0.99690966052E+01  0.51100000000E-03 0. -1.
        -11    1    3    3    0    0  0.37488367204E+01  0.75908598960E+01  0.35980125786E+02  0.36962743169E+02  0.51100000000E-03 0.  1.
         12    1    3    3    0    0 -0.12379813745E+02 -0.45407047939E+01 -0.41007979818E+02  0.43075888814E+02  0.00000000000E+00 0. -1.
</event>
<event>
 7    1  0.1935465E-015  0.9000768E+02  0.7816164E-02  0.1186339E+00
        -11   -1    0    0    0    0  0.00000000000E+00  0.00000000000E+00  0.45593999997E+02  0.45594000000E+02  0.51100000000E-03 0. -1.
         11   -1    0    0    0    0 -0.00000000000E+00 -0.00000000000E+00 -0.45593999997E+02  0.45594000000E+02  0.51100000000E-03 0.  1.
    9900012    2    1    2    0    0  0.10124521153E+00 -0.58242088680E+00 -0.10216098278E+01  0.90007681686E+02  0.89999942284E+02 0.  0.
         12    1    1    2    0    0 -0.10124521153E+00  0.58242088680E+00  0.10216098278E+01  0.11803183140E+01  0.00000000000E+00 0. -1.
         11    1    3    3    0    0  0.36457203068E+02  0.72741764843E+01  0.15000443358E+02  0.40088085515E+02  0.51100000000E-03 0. -1.
        -11    1    3    3    0    0 -0.39530934677E+01  0.73325855241E+01  0.36363078852E+01  0.90893615689E+01  0.51100000000E-03 0.  1.
        -12    1    3    3    0    0 -0.32402864389E+02 -0.15189182895E+02 -0.19658361071E+02  0.40830234602E+02  0.00000000000E+00 0.  1.
</event>
<event>
 7    1  0.1935465E-015  0.9000775E+02  0.7816164E-02  0.1186339E+00
        -11   -1    0    0    0    0  0.00000000000E+00  0.00000000000E+00  0.45593999997E+02  0.45594000000E+02  0.51100000000E-03 0.  1.
         11   -1    0    0    0    0 -0.00000000000E+00 -0.00000000000E+00 -0.45593999997E+02  0.45594000000E+02  0.51100000000E-03 0. -1.
    9900012    2    1    2    0    0 -0.30924936676E+00  0.10827403658E+01 -0.35360985401E+00  0.90007745028E+02  0.90000006462E+02 0.  0.
         12    1    1    2    0    0  0.30924936676E+00 -0.10827403658E+01  0.35360985401E+00  0.11802549722E+01  0.00000000000E+00 0. -1.
         11    1    3    3    0    0  0.55031964680E+01 -0.20240193964E+01  0.69908150164E+01  0.91243257689E+01  0.51100000000E-03 0. -1.
        -11    1    3    3    0    0 -0.37373111971E+02 -0.18914057363E+02 -0.65190646040E+01  0.42390910203E+02  0.51100000000E-03 0.  1.
         12    1    3    3    0    0  0.31560666136E+02  0.22020817125E+02 -0.82536026642E+00  0.38492509055E+02  0.00000000000E+00 0. -1.
</event>
<event>
 7    1  0.1935465E-015  0.9000774E+02  0.7816164E-02  0.1186339E+00
        -11   -1    0    0    0    0  0.00000000000E+00  0.00000000000E+00  0.45593999997E+02  0.45594000000E+02  0.51100000000E-03 0.  1.
         11   -1    0    0    0    0 -0.00000000000E+00 -0.00000000000E+00 -0.45593999997E+02  0.45594000000E+02  0.51100000000E-03 0. -1.
    9900012    2    1    2    0    0 -0.10613063861E+01 -0.44713711780E+00  0.25829437833E+00  0.90007737812E+02  0.89999999151E+02 0.  0.
         12    1    1    2    0    0  0.10613063861E+01  0.44713711780E+00 -0.25829437833E+00  0.11802621883E+01  0.00000000000E+00 0. -1.
         11    1    3    3    0    0  0.66195015794E+01 -0.54067576850E+01  0.36840562153E+01  0.93071531782E+01  0.51100000000E-03 0. -1.
        -11    1    3    3    0    0  0.26352601863E+02 -0.60201038236E+01  0.23593869974E+02  0.35879966215E+02  0.51100000000E-03 0.  1.
         12    1    3    3    0    0 -0.34033409828E+02  0.10979724391E+02 -0.27019631811E+02  0.44820618419E+02  0.00000000000E+00 0. -1.
</event>
<event>
 7    1  0.1935465E-015  0.9000776E+02  0.7816164E-02  0.1186339E+00
        -11   -1    0    0    0    0  0.00000000000E+00  0.00000000000E+00  0.45593999997E+02  0.45594000000E+02  0.51100000000E-03 0.  1.
         11   -1    0    0    0    0 -0.00000000000E+00 -0.00000000000E+00 -0.45593999997E+02  0.45594000000E+02  0.51100000000E-03 0. -1.
    9900012    2    1    2    0    0 -0.58219207900E+00 -0.22243878280E+00  0.10022680940E+01  0.90007759363E+02  0.90000020987E+02 0.  0.
         12    1    1    2    0    0  0.58219207900E+00  0.22243878280E+00 -0.10022680940E+01  0.11802406370E+01  0.00000000000E+00 0. -1.
         11    1    3    3    0    0 -0.46902709402E+01 -0.85348626388E+01 -0.23941107289E+01  0.10028673302E+02  0.51100000000E-03 0. -1.
        -11    1    3    3    0    0  0.13291503363E+02 -0.31557777706E+02 -0.11969970745E+02  0.36274475810E+02  0.51100000000E-03 0.  1.
         12    1    3    3    0    0 -0.91834245020E+01  0.39870201562E+02  0.15366349568E+02  0.43704610251E+02  0.00000000000E+00 0. -1.
</event>
<event>
 7    1  0.1935465E-015  0.9000773E+02  0.7816164E-02  0.1186339E+00
        -11   -1    0    0    0    0  0.00000000000E+00  0.00000000000E+00  0.45593999997E+02  0.45594000000E+02  0.51100000000E-03 0.  1.
         11   -1    0    0    0    0 -0.00000000000E+00 -0.00000000000E+00 -0.45593999997E+02  0.45594000000E+02  0.51100000000E-03 0. -1.
    9900012    2    1    2    0    0 -0.79468663929E+00 -0.41171853612E+00  0.76941398930E+00  0.90007730160E+02  0.89999991398E+02 0.  0.
         12    1    1    2    0    0  0.79468663929E+00  0.41171853612E+00 -0.76941398930E+00  0.11802698397E+01  0.00000000000E+00 0. -1.
         11    1    3    3    0    0 -0.28810593104E+02 -0.49211025319E+01 -0.21816736872E+02  0.36472421542E+02  0.51100000000E-03 0. -1.
        -11    1    3    3    0    0 -0.51042894758E+01  0.28472475804E+01 -0.69822216176E+01  0.91056031549E+01  0.51100000000E-03 0.  1.
        -12    1    3    3    0    0  0.33120195940E+02  0.16621364154E+01  0.29568372478E+02  0.44429705464E+02  0.00000000000E+00 0.  1.
</event>
<event>
 7    1  0.1935465E-015  0.9000783E+02  0.7816164E-02  0.1186339E+00
        -11   -1    0    0    0    0  0.00000000000E+00  0.00000000000E+00  0.45593999997E+02  0.45594000000E+02  0.51100000000E-03 0.  1.
         11   -1    0    0    0    0 -0.00000000000E+00 -0.00000000000E+00 -0.45593999997E+02  0.45594000000E+02  0.51100000000E-03 0. -1.
    9900012    2    1    2    0    0 -0.10097242035E+01  0.44489537947E+00  0.41870647094E+00  0.90007834768E+02  0.90000097387E+02 0.  0.
         12    1    1    2    0    0  0.10097242035E+01 -0.44489537947E+00 -0.41870647094E+00  0.11801652319E+01  0.00000000000E+00 0. -1.
         11    1    3    3    0    0  0.59810284635E-01 -0.58913454457E+01  0.31577758948E+01  0.66845401707E+01  0.51100000000E-03 0. -1.
        -11    1    3    3    0    0 -0.35293944569E+02 -0.13460137006E+02 -0.16825638851E+02  0.41351419981E+02  0.51100000000E-03 0.  1.
         12    1    3    3    0    0  0.34224410081E+02  0.19796377831E+02  0.14086569427E+02  0.41971874616E+02  0.00000000000E+00 0. -1.
</event>
<event>
 7    1  0.1935465E-015  0.9000768E+02  0.7816164E-02  0.1186339E+00
        -11   -1    0    0    0    0  0.00000000000E+00  0.00000000000E+00  0.45593999997E+02  0.45594000000E+02  0.51100000000E-03 0.  1.
         11   -1    0    0    0    0 -0.00000000000E+00 -0.00000000000E+00 -0.45593999997E+02  0.45594000000E+02  0.51100000000E-03 0. -1.
    9900012    2    1    2    0    0 -0.22581083263E+00  0.72671627725E+00  0.90224745224E+00  0.90007679050E+02  0.89999939614E+02 0.  0.
         12    1    1    2    0    0  0.22581083263E+00 -0.72671627725E+00 -0.90224745224E+00  0.11803209499E+01  0.00000000000E+00 0. -1.
         11    1    3    3    0    0  0.64414815046E+01 -0.19500578992E+01 -0.56107718211E+01  0.87622012345E+01  0.51100000000E-03 0. -1.
        -11    1    3    3    0    0  0.70377119232E+01  0.28294710781E+02 -0.24982605471E+02  0.38395971451E+02  0.51100000000E-03 0.  1.
         12    1    3    3    0    0 -0.13705004260E+02 -0.25617936604E+02  0.31495624744E+02  0.42849506365E+02  0.00000000000E+00 0. -1.
</event>
<event>
 7    1  0.1935465E-015  0.9000796E+02  0.7816164E-02  0.1186339E+00
        -11   -1    0    0    0    0  0.00000000000E+00  0.00000000000E+00  0.45593999997E+02  0.45594000000E+02  0.51100000000E-03 0.  1.
         11   -1    0    0    0    0 -0.00000000000E+00 -0.00000000000E+00 -0.45593999997E+02  0.45594000000E+02  0.51100000000E-03 0. -1.
    9900012    2    1    2    0    0 -0.11103247761E+01  0.35656761091E+00 -0.18039719966E+00  0.90007955628E+02  0.90000219842E+02 0.  0.
         12    1    1    2    0    0  0.11103247761E+01 -0.35656761091E+00  0.18039719966E+00  0.11800443717E+01  0.00000000000E+00 0. -1.
         11    1    3    3    0    0 -0.94556021474E+01  0.70462333469E+00  0.45241975390E+00  0.94926071187E+01  0.51100000000E-03 0. -1.
        -11    1    3    3    0    0 -0.14984735962E+02  0.33036285424E+02  0.11437079612E+02  0.38036104648E+02  0.51100000000E-03 0.  1.
         12    1    3    3    0    0  0.23330013333E+02 -0.33384341148E+02 -0.12069896565E+02  0.42479243862E+02  0.00000000000E+00 0. -1.
</event>
<event>
 7    1  0.1935465E-015  0.9000704E+02  0.7816164E-02  0.1186340E+00
        -11   -1    0    0    0    0  0.00000000000E+00  0.00000000000E+00  0.45593999997E+02  0.45594000000E+02  0.51100000000E-03 0.  1.
         11   -1    0    0    0    0 -0.00000000000E+00 -0.00000000000E+00 -0.45593999997E+02  0.45594000000E+02  0.51100000000E-03 0. -1.
    9900012    2    1    2    0    0  0.42880990315E+00 -0.27032295062E+00  0.10666415505E+01  0.90007035721E+02  0.89999287790E+02 0.  0.
         12    1    1    2    0    0 -0.42880990315E+00  0.27032295062E+00 -0.10666415505E+01  0.11809642789E+01  0.00000000000E+00 0. -1.
         11    1    3    3    0    0 -0.17051708855E+02  0.25794957450E+02 -0.20316250069E+02  0.36998521887E+02  0.51100000000E-03 0. -1.
        -11    1    3    3    0    0 -0.78704275608E+01 -0.11386815883E+02 -0.38260817034E+01  0.14361131829E+02  0.51100000000E-03 0.  1.
        -12    1    3    3    0    0  0.25350946319E+02 -0.14678464517E+02  0.25208973323E+02  0.38647382005E+02  0.00000000000E+00 0.  1.
</event>
<event>
 7    1  0.1935465E-015  0.9000782E+02  0.7816164E-02  0.1186339E+00
        -11   -1    0    0    0    0  0.00000000000E+00  0.00000000000E+00  0.45593999997E+02  0.45594000000E+02  0.51100000000E-03 0.  1.
         11   -1    0    0    0    0 -0.00000000000E+00 -0.00000000000E+00 -0.45593999997E+02  0.45594000000E+02  0.51100000000E-03 0. -1.
    9900012    2    1    2    0    0  0.69676507628E+00  0.43076908167E+00  0.84958221399E+00  0.90007816323E+02  0.90000078698E+02 0.  0.
         12    1    1    2    0    0 -0.69676507628E+00 -0.43076908167E+00 -0.84958221399E+00  0.11801836770E+01  0.00000000000E+00 0. -1.
         11    1    3    3    0    0  0.10400785708E+02  0.21011713310E+02 -0.36567250197E+02  0.43437682107E+02  0.51100000000E-03 0. -1.
        -11    1    3    3    0    0 -0.60946505340E+01 -0.54982220851E+01  0.28589789357E+01  0.86918911662E+01  0.51100000000E-03 0.  1.
        -12    1    3    3    0    0 -0.36093700976E+01 -0.15082722143E+02  0.34557853475E+02  0.37878243050E+02  0.00000000000E+00 0.  1.
</event>
<event>
 7    1  0.1935465E-015  0.9000772E+02  0.7816164E-02  0.1186339E+00
        -11   -1    0    0    0    0  0.00000000000E+00  0.00000000000E+00  0.45593999997E+02  0.45594000000E+02  0.51100000000E-03 0. -1.
         11   -1    0    0    0    0 -0.00000000000E+00 -0.00000000000E+00 -0.45593999997E+02  0.45594000000E+02  0.51100000000E-03 0.  1.
    9900012    2    1    2    0    0 -0.32798216359E+00 -0.10923159435E+01 -0.30388424259E+00  0.90007715266E+02  0.89999976308E+02 0.  0.
         12    1    1    2    0    0  0.32798216359E+00  0.10923159435E+01  0.30388424259E+00  0.11802847338E+01  0.00000000000E+00 0. -1.
         11    1    3    3    0    0  0.65984552898E+01  0.12863563563E+02  0.37599762431E+02  0.40283408679E+02  0.51100000000E-03 0. -1.
        -11    1    3    3    0    0  0.86059711534E+01 -0.47513189810E+01 -0.27542545128E+01  0.10209000428E+02  0.51100000000E-03 0.  1.
        -12    1    3    3    0    0 -0.15532408607E+02 -0.92045605251E+01 -0.35149392160E+02  0.39515306159E+02  0.00000000000E+00 0.  1.
</event>
<event>
 7    1  0.1935465E-015  0.9000803E+02  0.7816164E-02  0.1186338E+00
        -11   -1    0    0    0    0  0.00000000000E+00  0.00000000000E+00  0.45593999997E+02  0.45594000000E+02  0.51100000000E-03 0. -1.
         11   -1    0    0    0    0 -0.00000000000E+00 -0.00000000000E+00 -0.45593999997E+02  0.45594000000E+02  0.51100000000E-03 0.  1.
    9900012    2    1    2    0    0  0.76314047084E+00  0.78742771921E+00 -0.43576764073E+00  0.90008034226E+02  0.90000299477E+02 0.  0.
         12    1    1    2    0    0 -0.76314047084E+00 -0.78742771921E+00  0.43576764073E+00  0.11799657740E+01  0.00000000000E+00 0. -1.
         11    1    3    3    0    0  0.23732954724E+02 -0.25448193774E+02  0.18960739763E+02  0.39627936596E+02  0.51100000000E-03 0. -1.
        -11    1    3    3    0    0  0.49834848496E+01 -0.13966878341E+01 -0.78699359978E+01  0.94192224213E+01  0.51100000000E-03 0.  1.
        -12    1    3    3    0    0 -0.27953299103E+02  0.27632309327E+02 -0.11526571406E+02  0.40960875208E+02  0.00000000000E+00 0.  1.
</event>
<event>
 7    1  0.1935465E-015  0.9000786E+02  0.7816164E-02  0.1186339E+00
        -11   -1    0    0    0    0  0.00000000000E+00  0.00000000000E+00  0.45593999997E+02  0.45594000000E+02  0.51100000000E-03 0.  1.
         11   -1    0    0    0    0 -0.00000000000E+00 -0.00000000000E+00 -0.45593999997E+02  0.45594000000E+02  0.51100000000E-03 0. -1.
    9900012    2    1    2    0    0 -0.13880910829E+00 -0.37371291834E+00  0.11107616979E+01  0.90007864049E+02  0.90000127054E+02 0.  0.
         12    1    1    2    0    0  0.13880910829E+00  0.37371291834E+00 -0.11107616979E+01  0.11801359513E+01  0.00000000000E+00 0. -1.
         11    1    3    3    0    0  0.70514265097E+01  0.36380141878E+01  0.70034553574E+00  0.79654408028E+01  0.51100000000E-03 0. -1.
        -11    1    3    3    0    0  0.86209013033E+01  0.18496116795E+02  0.33368810505E+02  0.39113984590E+02  0.51100000000E-03 0.  1.
         12    1    3    3    0    0 -0.15811136921E+02 -0.22507843901E+02 -0.32958394342E+02  0.42928438656E+02  0.00000000000E+00 0. -1.
</event>
<event>
 7    1  0.1935465E-015  0.9000770E+02  0.7816164E-02  0.1186339E+00
        -11   -1    0    0    0    0  0.00000000000E+00  0.00000000000E+00  0.45593999997E+02  0.45594000000E+02  0.51100000000E-03 0. -1.
         11   -1    0    0    0    0 -0.00000000000E+00 -0.00000000000E+00 -0.45593999997E+02  0.45594000000E+02  0.51100000000E-03 0.  1.
    9900012    2    1    2    0    0  0.77773292260E+00  0.72352290038E+00 -0.51454906155E+00  0.90007697232E+02  0.89999958036E+02 0.  0.
         12    1    1    2    0    0 -0.77773292260E+00 -0.72352290038E+00  0.51454906155E+00  0.11803027675E+01  0.00000000000E+00 0. -1.
         11    1    3    3    0    0  0.26539420663E+02  0.13038084648E+01  0.20576112200E+02  0.33606802276E+02  0.51100000000E-03 0. -1.
        -11    1    3    3    0    0  0.11389991865E+02 -0.80116009987E+01 -0.92045920502E+01  0.16692578600E+02  0.51100000000E-03 0.  1.
        -12    1    3    3    0    0 -0.37151679606E+02  0.74313154343E+01 -0.11886069212E+02  0.39708316357E+02  0.00000000000E+00 0.  1.
</event>
<event>
 7    1  0.1935465E-015  0.9000775E+02  0.7816164E-02  0.1186339E+00
        -11   -1    0    0    0    0  0.00000000000E+00  0.00000000000E+00  0.45593999997E+02  0.45594000000E+02  0.51100000000E-03 0. -1.
         11   -1    0    0    0    0 -0.00000000000E+00 -0.00000000000E+00 -0.45593999997E+02  0.45594000000E+02  0.51100000000E-03 0.  1.
    9900012    2    1    2    0    0  0.44018648297E+00  0.93232918308E+00  0.57444959539E+00  0.90007748254E+02  0.90000009731E+02 0.  0.
         12    1    1    2    0    0 -0.44018648297E+00 -0.93232918308E+00 -0.57444959539E+00  0.11802517456E+01  0.00000000000E+00 0. -1.
         11    1    3    3    0    0  0.31739920066E+01  0.99170592019E+01  0.36938739616E+02  0.38378285177E+02  0.51100000000E-03 0. -1.
        -11    1    3    3    0    0 -0.40292827605E+00 -0.67396376586E-01  0.71439717838E+01  0.71556429883E+01  0.51100000000E-03 0.  1.
        -12    1    3    3    0    0 -0.23308772476E+01 -0.89173336422E+01 -0.43508261805E+02  0.44473820089E+02  0.00000000000E+00 0.  1.
</event>
<event>
 7    1  0.1935465E-015  0.9000813E+02  0.7816164E-02  0.1186338E+00
        -11   -1    0    0    0    0  0.00000000000E+00  0.00000000000E+00  0.45593999997E+02  0.45594000000E+02  0.51100000000E-03 0.  1.
         11   -1    0    0    0    0 -0.00000000000E+00 -0.00000000000E+00 -0.45593999997E+02  0.45594000000E+02  0.51100000000E-03 0. -1.
    9900012    2    1    2    0    0  0.80928711228E+00 -0.37860442681E+00  0.77058615402E+00  0.90008131379E+02  0.90000397912E+02 0.  0.
         12    1    1    2    0    0 -0.80928711228E+00  0.37860442681E+00 -0.77058615402E+00  0.11798686210E+01  0.00000000000E+00 0. -1.
         11    1    3    3    0    0  0.27243058338E+02 -0.26885744140E+02 -0.11261873169E+02  0.39898085833E+02  0.51100000000E-03 0. -1.
        -11    1    3    3    0    0 -0.33261968178E+01 -0.55711245826E+01  0.81030473826E+01  0.10380770276E+02  0.51100000000E-03 0.  1.
        -12    1    3    3    0    0 -0.23107574408E+02  0.32078264296E+02  0.39294119407E+01  0.39729275270E+02  0.00000000000E+00 0.  1.
</event>
<event>
 7    1  0.1935465E-015  0.9000786E+02  0.7816164E-02  0.1186339E+00
        -11   -1    0    0    0    0  0.00000000000E+00  0.00000000000E+00  0.45593999997E+02  0.45594000000E+02  0.51100000000E-03 0.  1.
         11   -1    0    0    0    0 -0.00000000000E+00 -0.00000000000E+00 -0.45593999997E+02  0.45594000000E+02  0.51100000000E-03 0. -1.
    9900012    2    1    2    0    0 -0.43910283422E+00 -0.43700967143E+00  0.10044665404E+01  0.90007855186E+02  0.90000118074E+02 0.  0.
         12    1    1    2    0    0  0.43910283422E+00  0.43700967143E+00 -0.10044665404E+01  0.11801448143E+01  0.00000000000E+00 0. -1.
         11    1    3    3    0    0 -0.14411245749E+02  0.83369179253E+01 -0.32144631170E+02  0.36200352455E+02  0.51100000000E-03 0. -1.
        -11    1    3    3    0    0 -0.74120621401E+01  0.50911546288E+01 -0.30863238162E+01  0.95070455760E+01  0.51100000000E-03 0.  1.
        -12    1    3    3    0    0  0.21384205055E+02 -0.13865082226E+02  0.36235421526E+02  0.44300457155E+02  0.00000000000E+00 0.  1.
</event>
<event>
 7    1  0.1935465E-015  0.9000774E+02  0.7816164E-02  0.1186339E+00
        -11   -1    0    0    0    0  0.00000000000E+00  0.00000000000E+00  0.45593999997E+02  0.45594000000E+02  0.51100000000E-03 0. -1.
         11   -1    0    0    0    0 -0.00000000000E+00 -0.00000000000E+00 -0.45593999997E+02  0.45594000000E+02  0.51100000000E-03 0.  1.
    9900012    2    1    2    0    0  0.82429554930E+00  0.10911111936E+00 -0.83764470534E+00  0.90007738571E+02  0.89999999920E+02 0.  0.
         12    1    1    2    0    0 -0.82429554930E+00 -0.10911111936E+00  0.83764470534E+00  0.11802614292E+01  0.00000000000E+00 0. -1.
         11    1    3    3    0    0  0.35928603206E+02 -0.10299445580E+02  0.14165559518E+02  0.39970066104E+02  0.51100000000E-03 0. -1.
        -11    1    3    3    0    0  0.55417371625E+00  0.23941405465E+01  0.69715997349E+01  0.73920376480E+01  0.51100000000E-03 0.  1.
        -12    1    3    3    0    0 -0.35658481373E+02  0.80144161525E+01 -0.21974803958E+02  0.42645634819E+02  0.00000000000E+00 0.  1.
</event>
<event>
 7    1  0.1935465E-015  0.9000777E+02  0.7816164E-02  0.1186339E+00
        -11   -1    0    0    0    0  0.00000000000E+00  0.00000000000E+00  0.45593999997E+02  0.45594000000E+02  0.51100000000E-03 0. -1.
         11   -1    0    0    0    0 -0.00000000000E+00 -0.00000000000E+00 -0.45593999997E+02  0.45594000000E+02  0.51100000000E-03 0.  1.
    9900012    2    1    2    0    0  0.30103483568E+00 -0.56269575677E+00 -0.99281809055E+00  0.90007772798E+02  0.90000034599E+02 0.  0.
         12    1    1    2    0    0 -0.30103483568E+00  0.56269575677E+00  0.99281809055E+00  0.11802272018E+01  0.00000000000E+00 0. -1.
         11    1    3    3    0    0 -0.23302878279E+02 -0.26730525553E+02  0.33857653548E+01  0.35623146123E+02  0.51100000000E-03 0. -1.
        -11    1    3    3    0    0 -0.98651143727E+01  0.23591349131E+00  0.49344382849E+01  0.11032897091E+02  0.51100000000E-03 0.  1.
        -12    1    3    3    0    0  0.33469027487E+02  0.25931916305E+02 -0.93130217303E+01  0.43351729584E+02  0.00000000000E+00 0.  1.
</event>
<event>
 7    1  0.1935465E-015  0.9000794E+02  0.7816164E-02  0.1186339E+00
        -11   -1    0    0    0    0  0.00000000000E+00  0.00000000000E+00  0.45593999997E+02  0.45594000000E+02  0.51100000000E-03 0.  1.
         11   -1    0    0    0    0 -0.00000000000E+00 -0.00000000000E+00 -0.45593999997E+02  0.45594000000E+02  0.51100000000E-03 0. -1.
    9900012    2    1    2    0    0  0.63082863866E+00  0.47506288646E+00  0.87686971836E+00  0.90007944908E+02  0.90000208980E+02 0.  0.
         12    1    1    2    0    0 -0.63082863866E+00 -0.47506288646E+00 -0.87686971836E+00  0.11800550921E+01  0.00000000000E+00 0. -1.
         11    1    3    3    0    0 -0.22278057760E+02  0.20343499216E+02 -0.19652377382E+02  0.36005357309E+02  0.51100000000E-03 0. -1.
        -11    1    3    3    0    0 -0.14805250214E+01  0.10167670697E+02  0.15784820164E+00  0.10276108118E+02  0.51100000000E-03 0.  1.
        -12    1    3    3    0    0  0.24389411420E+02 -0.30036107027E+02  0.20371398899E+02  0.43726479481E+02  0.00000000000E+00 0.  1.
</event>
<event>
 7    1  0.3191295E-015  0.9000777E+02  0.7816164E-02  0.1186339E+00
        -11   -1    0    0    0    0  0.00000000000E+00  0.00000000000E+00  0.45593999997E+02  0.45594000000E+02  0.51100000000E-03 0. -1.
         11   -1    0    0    0    0 -0.00000000000E+00 -0.00000000000E+00 -0.45593999997E+02  0.45594000000E+02  0.51100000000E-03 0.  1.
    9900012    2    1    2    0    0 -0.29114974425E+00 -0.21113720597E+00 -0.11240985673E+01  0.90007769225E+02  0.90000030979E+02 0.  0.
         12    1    1    2    0    0  0.29114974425E+00  0.21113720597E+00  0.11240985673E+01  0.11802307750E+01  0.00000000000E+00 0. -1.
         11    1    3    3    0    0  0.54073294953E+01  0.15596685394E+01 -0.78318105464E+01  0.96441191883E+01  0.51100000000E-03 0. -1.
        -11    1    3    3    0    0 -0.28627365813E+02 -0.15036618373E+02 -0.23658606450E+02  0.40066889384E+02  0.51100000000E-03 0.  1.
         12    1    3    3    0    0  0.22928886573E+02  0.13265812627E+02  0.30366318429E+02  0.40296760653E+02  0.00000000000E+00 0. -1.
</event>
<event>
 7    1  0.1935465E-015  0.9000742E+02  0.7816164E-02  0.1186340E+00
        -11   -1    0    0    0    0  0.00000000000E+00  0.00000000000E+00  0.45593999997E+02  0.45594000000E+02  0.51100000000E-03 0.  1.
         11   -1    0    0    0    0 -0.00000000000E+00 -0.00000000000E+00 -0.45593999997E+02  0.45594000000E+02  0.51100000000E-03 0. -1.
    9900012    2    1    2    0    0  0.25857491691E+00  0.33760909456E+00  0.11013260877E+01  0.90007423853E+02  0.89999681047E+02 0.  0.
         12    1    1    2    0    0 -0.25857491691E+00 -0.33760909456E+00 -0.11013260877E+01  0.11805761474E+01  0.00000000000E+00 0. -1.
         11    1    3    3    0    0  0.17280858901E+02 -0.27607328851E+02 -0.11727227646E+02  0.34616767024E+02  0.51100000000E-03 0. -1.
        -11    1    3    3    0    0  0.29311949333E+01 -0.23779968839E+01 -0.11226816040E+02  0.11844330778E+02  0.51100000000E-03 0.  1.
        -12    1    3    3    0    0 -0.19953478917E+02  0.30322934830E+02  0.24055369774E+02  0.43546326051E+02  0.00000000000E+00 0.  1.
</event>
<event>
 7    1  0.1935465E-015  0.9000771E+02  0.7816164E-02  0.1186339E+00
        -11   -1    0    0    0    0  0.00000000000E+00  0.00000000000E+00  0.45593999997E+02  0.45594000000E+02  0.51100000000E-03 0. -1.
         11   -1    0    0    0    0 -0.00000000000E+00 -0.00000000000E+00 -0.45593999997E+02  0.45594000000E+02  0.51100000000E-03 0.  1.
    9900012    2    1    2    0    0  0.81438470438E+00 -0.54039632474E+00 -0.66168214918E+00  0.90007714483E+02  0.89999975514E+02 0.  0.
         12    1    1    2    0    0 -0.81438470438E+00  0.54039632474E+00  0.66168214918E+00  0.11802855168E+01  0.00000000000E+00 0. -1.
         11    1    3    3    0    0  0.17271111103E+02  0.32098808413E+02  0.20186275909E+02  0.41666659521E+02  0.51100000000E-03 0. -1.
        -11    1    3    3    0    0  0.33644972958E+01 -0.18102506258E+01 -0.90734634528E+01  0.98450286273E+01  0.51100000000E-03 0.  1.
        -12    1    3    3    0    0 -0.19821223695E+02 -0.30828954112E+02 -0.11774494606E+02  0.38496026335E+02  0.00000000000E+00 0.  1.
</event>
<event>
 7    1  0.1935465E-015  0.9000771E+02  0.7816164E-02  0.1186339E+00
        -11   -1    0    0    0    0  0.00000000000E+00  0.00000000000E+00  0.45593999997E+02  0.45594000000E+02  0.51100000000E-03 0. -1.
         11   -1    0    0    0    0 -0.00000000000E+00 -0.00000000000E+00 -0.45593999997E+02  0.45594000000E+02  0.51100000000E-03 0.  1.
    9900012    2    1    2    0    0  0.70760441402E+00  0.92892394377E+00 -0.17167467032E+00  0.90007713640E+02  0.89999974660E+02 0.  0.
         12    1    1    2    0    0 -0.70760441402E+00 -0.92892394377E+00  0.17167467032E+00  0.11802863604E+01  0.00000000000E+00 0. -1.
         11    1    3    3    0    0  0.34197424848E+02  0.43628002114E+01  0.20408445972E+02  0.40062483188E+02  0.51100000000E-03 0. -1.
        -11    1    3    3    0    0  0.44588749118E+01 -0.59900493132E+01 -0.30795463370E+01  0.80774910806E+01  0.51100000000E-03 0.  1.
        -12    1    3    3    0    0 -0.37948695345E+02  0.25561730456E+01 -0.17500574306E+02  0.41867739372E+02  0.00000000000E+00 0.  1.
</event>
<event>
 7    1  0.1935465E-015  0.9000778E+02  0.7816164E-02  0.1186339E+00
        -11   -1    0    0    0    0  0.00000000000E+00  0.00000000000E+00  0.45593999997E+02  0.45594000000E+02  0.51100000000E-03 0.  1.
         11   -1    0    0    0    0 -0.00000000000E+00 -0.00000000000E+00 -0.45593999997E+02  0.45594000000E+02  0.51100000000E-03 0. -1.
    9900012    2    1    2    0    0  0.35087906225E+00  0.98524949951E+00  0.54688304932E+00  0.90007782324E+02  0.90000044251E+02 0.  0.
         12    1    1    2    0    0 -0.35087906225E+00 -0.98524949951E+00 -0.54688304932E+00  0.11802176758E+01  0.00000000000E+00 0. -1.
         11    1    3    3    0    0 -0.44040908684E+01  0.19615086966E+02 -0.98428003107E+01  0.22383663044E+02  0.51100000000E-03 0. -1.
        -11    1    3    3    0    0  0.31461103763E+02  0.33616124150E+01  0.50473680835E+00  0.31644213492E+02  0.51100000000E-03 0.  1.
         12    1    3    3    0    0 -0.26706133833E+02 -0.21991449882E+02  0.98849465517E+01  0.35979905788E+02  0.00000000000E+00 0. -1.
</event>
<event>
 7    1  0.1935465E-015  0.9000772E+02  0.7816164E-02  0.1186339E+00
        -11   -1    0    0    0    0  0.00000000000E+00  0.00000000000E+00  0.45593999997E+02  0.45594000000E+02  0.51100000000E-03 0. -1.
         11   -1    0    0    0    0 -0.00000000000E+00 -0.00000000000E+00 -0.45593999997E+02  0.45594000000E+02  0.51100000000E-03 0.  1.
    9900012    2    1    2    0    0 -0.33518033550E+00  0.83661450940E+00  0.76210022297E+00  0.90007717642E+02  0.89999978715E+02 0.  0.
         12    1    1    2    0    0  0.33518033550E+00 -0.83661450940E+00 -0.76210022297E+00  0.11802823580E+01  0.00000000000E+00 0. -1.
         11    1    3    3    0    0 -0.29411591482E+02  0.26507740106E+02  0.13199265281E+02  0.41736346309E+02  0.51100000000E-03 0. -1.
        -11    1    3    3    0    0  0.78533607663E+01  0.20549261352E+01 -0.10539688705E+02  0.13303497097E+02  0.51100000000E-03 0.  1.
        -12    1    3    3    0    0  0.21223050380E+02 -0.27726051731E+02 -0.18974763530E+01  0.34967874236E+02  0.00000000000E+00 0.  1.
</event>
<event>
 7    1  0.1935465E-015  0.9000773E+02  0.7816164E-02  0.1186339E+00
        -11   -1    0    0    0    0  0.00000000000E+00  0.00000000000E+00  0.45593999997E+02  0.45594000000E+02  0.51100000000E-03 0. -1.
         11   -1    0    0    0    0 -0.00000000000E+00 -0.00000000000E+00 -0.45593999997E+02  0.45594000000E+02  0.51100000000E-03 0.  1.
    9900012    2    1    2    0    0 -0.39500689476E+00 -0.71474040334E+00 -0.85215011291E+00  0.90007727105E+02  0.89999988303E+02 0.  0.
         12    1    1    2    0    0  0.39500689476E+00  0.71474040334E+00  0.85215011291E+00  0.11802728947E+01  0.00000000000E+00 0. -1.
         11    1    3    3    0    0 -0.32754160608E+01  0.78101535003E+01  0.32612966241E+02  0.33694694173E+02  0.51100000000E-03 0. -1.
        -11    1    3    3    0    0  0.52296621830E+01  0.12207131278E+02  0.36170610777E+01  0.13763958431E+02  0.51100000000E-03 0.  1.
        -12    1    3    3    0    0 -0.23492530170E+01 -0.20732025182E+02 -0.37082177432E+02  0.42549074502E+02  0.00000000000E+00 0.  1.
</event>
<event>
 7    1  0.1935465E-015  0.9000773E+02  0.7816164E-02  0.1186339E+00
        -11   -1    0    0    0    0  0.00000000000E+00  0.00000000000E+00  0.45593999997E+02  0.45594000000E+02  0.51100000000E-03 0. -1.
         11   -1    0    0    0    0 -0.00000000000E+00 -0.00000000000E+00 -0.45593999997E+02  0.45594000000E+02  0.51100000000E-03 0.  1.
    9900012    2    1    2    0    0 -0.67435445496E+00 -0.22313702404E+00 -0.94260512004E+00  0.90007725255E+02  0.89999986428E+02 0.  0.
         12    1    1    2    0    0  0.67435445496E+00  0.22313702404E+00  0.94260512004E+00  0.11802747455E+01  0.00000000000E+00 0. -1.
         11    1    3    3    0    0 -0.10513616951E+01  0.70389149450E+01 -0.54749039316E+01  0.89792125678E+01  0.51100000000E-03 0. -1.
        -11    1    3    3    0    0  0.12429012529E+01  0.33899662449E+02 -0.12935868658E+02  0.36305214720E+02  0.51100000000E-03 0.  1.
         12    1    3    3    0    0 -0.86589401275E+00 -0.41161714418E+02  0.17468167469E+02  0.44723297967E+02  0.00000000000E+00 0. -1.
</event>
<event>
 7    1  0.1935465E-015  0.9000780E+02  0.7816164E-02  0.1186339E+00
        -11   -1    0    0    0    0  0.00000000000E+00  0.00000000000E+00  0.45593999997E+02  0.45594000000E+02  0.51100000000E-03 0.  1.
         11   -1    0    0    0    0 -0.00000000000E+00 -0.00000000000E+00 -0.45593999997E+02  0.45594000000E+02  0.51100000000E-03 0. -1.
    9900012    2    1    2    0    0  0.43696383242E+00  0.78764845186E+00  0.76259409807E+00  0.90007797800E+02  0.90000059931E+02 0.  0.
         12    1    1    2    0    0 -0.43696383242E+00 -0.78764845186E+00 -0.76259409807E+00  0.11802022000E+01  0.00000000000E+00 0. -1.
         11    1    3    3    0    0  0.25702755895E+02 -0.55925010409E+01 -0.24813467764E+02  0.36160972211E+02  0.51100000000E-03 0. -1.
        -11    1    3    3    0    0  0.63734829062E+01  0.71815986516E+01 -0.41186431456E+01  0.10447959857E+02  0.51100000000E-03 0.  1.
        -12    1    3    3    0    0 -0.31639274969E+02 -0.80144915881E+00  0.29694705008E+02  0.43398865732E+02  0.00000000000E+00 0.  1.
</event>
<event>
 7    1  0.1935465E-015  0.9000778E+02  0.7816164E-02  0.1186339E+00
        -11   -1    0    0    0    0  0.00000000000E+00  0.00000000000E+00  0.45593999997E+02  0.45594000000E+02  0.51100000000E-03 0.  1.
         11   -1    0    0    0    0 -0.00000000000E+00 -0.00000000000E+00 -0.45593999997E+02  0.45594000000E+02  0.51100000000E-03 0. -1.
    9900012    2    1    2    0    0  0.10704302191E+01  0.49516177613E+00 -0.43815133331E-01  0.90007777223E+02  0.90000039082E+02 0.  0.
         12    1    1    2    0    0 -0.10704302191E+01 -0.49516177613E+00  0.43815133331E-01  0.11802227774E+01  0.00000000000E+00 0. -1.
         11    1    3    3    0    0 -0.82123359147E+01  0.16386123937E+02 -0.30716288940E+02  0.35769231545E+02  0.51100000000E-03 0. -1.
        -11    1    3    3    0    0  0.57744552350E+01  0.62188386786E+01 -0.66062589582E+01  0.10754577884E+02  0.51100000000E-03 0.  1.
        -12    1    3    3    0    0  0.35083108988E+01 -0.22109800839E+02  0.37278732765E+02  0.43483967793E+02  0.00000000000E+00 0.  1.
</event>
<event>
 7    1  0.1935465E-015  0.9000776E+02  0.7816164E-02  0.1186339E+00
        -11   -1    0    0    0    0  0.00000000000E+00  0.00000000000E+00  0.45593999997E+02  0.45594000000E+02  0.51100000000E-03 0. -1.
         11   -1    0    0    0    0 -0.00000000000E+00 -0.00000000000E+00 -0.45593999997E+02  0.45594000000E+02  0.51100000000E-03 0.  1.
    9900012    2    1    2    0    0  0.11446655069E+01 -0.28079328871E+00  0.62144662480E-01  0.90007760214E+02  0.90000021849E+02 0.  0.
         12    1    1    2    0    0 -0.11446655069E+01  0.28079328871E+00 -0.62144662480E-01  0.11802397862E+01  0.00000000000E+00 0. -1.
         11    1    3    3    0    0 -0.20971525824E+01 -0.86191534382E+01  0.56092469015E+01  0.10495308762E+02  0.51100000000E-03 0. -1.
        -11    1    3    3    0    0 -0.18093015803E+02 -0.24615155835E+02 -0.21269218225E+02  0.37224222782E+02  0.51100000000E-03 0.  1.
         12    1    3    3    0    0  0.21334833892E+02  0.32953515984E+02  0.15722115986E+02  0.42288228669E+02  0.00000000000E+00 0. -1.
</event>
<event>
 7    1  0.1935465E-015  0.9000775E+02  0.7816164E-02  0.1186339E+00
        -11   -1    0    0    0    0  0.00000000000E+00  0.00000000000E+00  0.45593999997E+02  0.45594000000E+02  0.51100000000E-03 0.  1.
         11   -1    0    0    0    0 -0.00000000000E+00 -0.00000000000E+00 -0.45593999997E+02  0.45594000000E+02  0.51100000000E-03 0. -1.
    9900012    2    1    2    0    0  0.87711673540E+00 -0.58906910225E+00  0.52598342634E+00  0.90007748019E+02  0.90000009492E+02 0.  0.
         12    1    1    2    0    0 -0.87711673540E+00  0.58906910225E+00 -0.52598342634E+00  0.11802519814E+01  0.00000000000E+00 0. -1.
         11    1    3    3    0    0 -0.10146434474E+02  0.12763155196E+01 -0.10266967542E+02  0.14491022621E+02  0.51100000000E-03 0. -1.
        -11    1    3    3    0    0 -0.17151346050E+02 -0.28688336183E+02  0.14510858058E+02  0.36438363109E+02  0.51100000000E-03 0.  1.
         12    1    3    3    0    0  0.28174897259E+02  0.26822951561E+02 -0.37179070891E+01  0.39078362288E+02  0.00000000000E+00 0. -1.
</event>
<event>
 7    1  0.1935465E-015  0.9000785E+02  0.7816164E-02  0.1186339E+00
        -11   -1    0    0    0    0  0.00000000000E+00  0.00000000000E+00  0.45593999997E+02  0.45594000000E+02  0.51100000000E-03 0. -1.
         11   -1    0    0    0    0 -0.00000000000E+00 -0.00000000000E+00 -0.45593999997E+02  0.45594000000E+02  0.51100000000E-03 0.  1.
    9900012    2    1    2    0    0  0.31019934879E+00 -0.11202170129E+01 -0.20406545249E+00  0.90007850645E+02  0.90000113473E+02 0.  0.
         12    1    1    2    0    0 -0.31019934879E+00  0.11202170129E+01  0.20406545249E+00  0.11801493553E+01  0.00000000000E+00 0. -1.
         11    1    3    3    0    0  0.21863713899E+02  0.33530509209E+02  0.50778573756E+01  0.40349741871E+02  0.51100000000E-03 0. -1.
        -11    1    3    3    0    0 -0.88608620188E+01  0.19494234321E+01  0.38531194648E+01  0.98570612916E+01  0.51100000000E-03 0.  1.
        -12    1    3    3    0    0 -0.12692652531E+02 -0.36600149654E+02 -0.91350422929E+01  0.39801047482E+02  0.00000000000E+00 0.  1.
</event>
<event>
 7    1  0.1935465E-015  0.9000783E+02  0.7816164E-02  0.1186339E+00
        -11   -1    0    0    0    0  0.00000000000E+00  0.00000000000E+00  0.45593999997E+02  0.45594000000E+02  0.51100000000E-03 0.  1.
         11   -1    0    0    0    0 -0.00000000000E+00 -0.00000000000E+00 -0.45593999997E+02  0.45594000000E+02  0.51100000000E-03 0. -1.
    9900012    2    1    2    0    0 -0.72541079780E+00 -0.62271497015E+00 -0.69195631418E+00  0.90007831241E+02  0.90000093813E+02 0.  0.
         12    1    1    2    0    0  0.72541079780E+00  0.62271497015E+00  0.69195631418E+00  0.11801687593E+01  0.00000000000E+00 0. -1.
         11    1    3    3    0    0  0.79047367554E+01  0.14862275759E+02 -0.32077727142E+01  0.17136566457E+02  0.51100000000E-03 0. -1.
        -11    1    3    3    0    0  0.18723565225E+02  0.21814462792E+01 -0.24253646950E+02  0.30717584430E+02  0.51100000000E-03 0.  1.
         12    1    3    3    0    0 -0.27353712778E+02 -0.17666437008E+02  0.26769463350E+02  0.42153680353E+02  0.00000000000E+00 0. -1.
</event>
<event>
 7    1  0.1935465E-015  0.9000767E+02  0.7816164E-02  0.1186339E+00
        -11   -1    0    0    0    0  0.00000000000E+00  0.00000000000E+00  0.45593999997E+02  0.45594000000E+02  0.51100000000E-03 0.  1.
         11   -1    0    0    0    0 -0.00000000000E+00 -0.00000000000E+00 -0.45593999997E+02  0.45594000000E+02  0.51100000000E-03 0. -1.
    9900012    2    1    2    0    0 -0.54598349401E+00  0.99208777633E+00 -0.33293841384E+00  0.90007667793E+02  0.89999928208E+02 0.  0.
         12    1    1    2    0    0  0.54598349401E+00 -0.99208777633E+00  0.33293841384E+00  0.11803322071E+01  0.00000000000E+00 0. -1.
         11    1    3    3    0    0 -0.30517671044E+02 -0.48897321409E+01  0.15742565669E+02  0.34685243266E+02  0.51100000000E-03 0. -1.
        -11    1    3    3    0    0 -0.10346819003E+02  0.20621530355E+01  0.23816821284E+01  0.10815800879E+02  0.51100000000E-03 0.  1.
        -12    1    3    3    0    0  0.40318506553E+02  0.38196668817E+01 -0.18457186211E+02  0.44506623648E+02  0.00000000000E+00 0.  1.
</event>
<event>
 7    1  0.1935465E-015  0.9000763E+02  0.7816164E-02  0.1186339E+00
        -11   -1    0    0    0    0  0.00000000000E+00  0.00000000000E+00  0.45593999997E+02  0.45594000000E+02  0.51100000000E-03 0.  1.
         11   -1    0    0    0    0 -0.00000000000E+00 -0.00000000000E+00 -0.45593999997E+02  0.45594000000E+02  0.51100000000E-03 0. -1.
    9900012    2    1    2    0    0  0.12068471188E+00 -0.92011140339E+00 -0.72946139663E+00  0.90007625600E+02  0.89999885458E+02 0.  0.
         12    1    1    2    0    0 -0.12068471188E+00  0.92011140339E+00  0.72946139663E+00  0.11803743997E+01  0.00000000000E+00 0. -1.
         11    1    3    3    0    0 -0.20878951492E+02 -0.25637896483E+02  0.27778361807E+02  0.43184137555E+02  0.51100000000E-03 0. -1.
        -11    1    3    3    0    0  0.41691547403E+01  0.10220980981E+02 -0.46431149984E+00  0.11048343265E+02  0.51100000000E-03 0.  1.
        -12    1    3    3    0    0  0.16830481463E+02  0.14496804098E+02 -0.28043511704E+02  0.35775144780E+02  0.00000000000E+00 0.  1.
</event>
<event>
 7    1  0.1935465E-015  0.9000757E+02  0.7816164E-02  0.1186339E+00
        -11   -1    0    0    0    0  0.00000000000E+00  0.00000000000E+00  0.45593999997E+02  0.45594000000E+02  0.51100000000E-03 0. -1.
         11   -1    0    0    0    0 -0.00000000000E+00 -0.00000000000E+00 -0.45593999997E+02  0.45594000000E+02  0.51100000000E-03 0.  1.
    9900012    2    1    2    0    0  0.73545674582E+00 -0.76710950651E+00 -0.51387378319E+00  0.90007567924E+02  0.89999827021E+02 0.  0.
         12    1    1    2    0    0 -0.73545674582E+00  0.76710950651E+00  0.51387378319E+00  0.11804320756E+01  0.00000000000E+00 0. -1.
         11    1    3    3    0    0  0.25301780286E+02 -0.11934291719E+02  0.24004919000E+02  0.36862495045E+02  0.51100000000E-03 0. -1.
        -11    1    3    3    0    0  0.69918229204E+01 -0.51989511751E+01  0.18206022911E+01  0.89010827451E+01  0.51100000000E-03 0.  1.
        -12    1    3    3    0    0 -0.31558146461E+02  0.16366133388E+02 -0.26339395074E+02  0.44243990134E+02  0.00000000000E+00 0.  1.
</event>
<event>
 7    1  0.1935465E-015  0.9000774E+02  0.7816164E-02  0.1186339E+00
        -11   -1    0    0    0    0  0.00000000000E+00  0.00000000000E+00  0.45593999997E+02  0.45594000000E+02  0.51100000000E-03 0. -1.
         11   -1    0    0    0    0 -0.00000000000E+00 -0.00000000000E+00 -0.45593999997E+02  0.45594000000E+02  0.51100000000E-03 0.  1.
    9900012    2    1    2    0    0  0.81282170006E-01 -0.16669221596E+00 -0.11655940988E+01  0.90007744651E+02  0.90000006080E+02 0.  0.
         12    1    1    2    0    0 -0.81282170006E-01  0.16669221596E+00  0.11655940988E+01  0.11802553491E+01  0.00000000000E+00 0. -1.
         11    1    3    3    0    0  0.98257190412E+01 -0.34438216371E+01 -0.29554235482E+01  0.10823086009E+02  0.51100000000E-03 0. -1.
        -11    1    3    3    0    0  0.34657504000E+02  0.23671437922E+00  0.87203684894E+00  0.34669281298E+02  0.51100000000E-03 0.  1.
         12    1    3    3    0    0 -0.44401940871E+02  0.30404150420E+01  0.91779260055E+00  0.44515377344E+02  0.00000000000E+00 0. -1.
</event>
<event>
 7    1  0.1935465E-015  0.9000792E+02  0.7816164E-02  0.1186339E+00
        -11   -1    0    0    0    0  0.00000000000E+00  0.00000000000E+00  0.45593999997E+02  0.45594000000E+02  0.51100000000E-03 0.  1.
         11   -1    0    0    0    0 -0.00000000000E+00 -0.00000000000E+00 -0.45593999997E+02  0.45594000000E+02  0.51100000000E-03 0. -1.
    9900012    2    1    2    0    0 -0.13385678841E+00  0.77264613083E+00  0.88186695281E+00  0.90007919916E+02  0.90000183658E+02 0.  0.
         12    1    1    2    0    0  0.13385678841E+00 -0.77264613083E+00 -0.88186695281E+00  0.11800800845E+01  0.00000000000E+00 0. -1.
         11    1    3    3    0    0  0.77297496120E+01 -0.13258170493E+02 -0.34817760622E+02  0.38050027187E+02  0.51100000000E-03 0. -1.
        -11    1    3    3    0    0 -0.37515125599E+01  0.24094920176E+01 -0.65629118340E+01  0.79341861758E+01  0.51100000000E-03 0.  1.
        -12    1    3    3    0    0 -0.41120938406E+01  0.11621324607E+02  0.42262539409E+02  0.44023706553E+02  0.00000000000E+00 0.  1.
</event>
<event>
 7    1  0.1935465E-015  0.9000794E+02  0.7816164E-02  0.1186339E+00
        -11   -1    0    0    0    0  0.00000000000E+00  0.00000000000E+00  0.45593999997E+02  0.45594000000E+02  0.51100000000E-03 0.  1.
         11   -1    0    0    0    0 -0.00000000000E+00 -0.00000000000E+00 -0.45593999997E+02  0.45594000000E+02  0.51100000000E-03 0. -1.
    9900012    2    1    2    0    0 -0.10258266752E+01 -0.17121376286E+00  0.55758816592E+00  0.90007941068E+02  0.90000205090E+02 0.  0.
         12    1    1    2    0    0  0.10258266752E+01  0.17121376286E+00 -0.55758816592E+00  0.11800589320E+01  0.00000000000E+00 0. -1.
         11    1    3    3    0    0  0.17902993505E+02 -0.32014080979E+01 -0.31097955464E+02  0.36025671743E+02  0.51100000000E-03 0. -1.
        -11    1    3    3    0    0  0.15317753421E+01 -0.11501033520E+02 -0.22307208171E+01  0.11815084568E+02  0.51100000000E-03 0.  1.
        -12    1    3    3    0    0 -0.20460595522E+02  0.14531227855E+02  0.33886264447E+02  0.42167184756E+02  0.00000000000E+00 0.  1.
</event>
<event>
 7    1  0.1935465E-015  0.9000772E+02  0.7816164E-02  0.1186339E+00
        -11   -1    0    0    0    0  0.00000000000E+00  0.00000000000E+00  0.45593999997E+02  0.45594000000E+02  0.51100000000E-03 0.  1.
         11   -1    0    0    0    0 -0.00000000000E+00 -0.00000000000E+00 -0.45593999997E+02  0.45594000000E+02  0.51100000000E-03 0. -1.
    9900012    2    1    2    0    0 -0.51935624277E+00  0.31323587788E+00  0.10125263010E+01  0.90007721587E+02  0.89999982712E+02 0.  0.
         12    1    1    2    0    0  0.51935624277E+00 -0.31323587788E+00 -0.10125263010E+01  0.11802784130E+01  0.00000000000E+00 0. -1.
         11    1    3    3    0    0  0.47240287793E+01  0.65679918321E+01  0.40838958624E+01  0.90627352544E+01  0.51100000000E-03 0. -1.
        -11    1    3    3    0    0  0.15845302984E+02  0.19676339971E+02  0.26286669768E+02  0.36458483088E+02  0.51100000000E-03 0.  1.
         12    1    3    3    0    0 -0.21088688006E+02 -0.25931095925E+02 -0.29358039330E+02  0.44486503245E+02  0.00000000000E+00 0. -1.
</event>
<event>
 7    1  0.1935465E-015  0.9000768E+02  0.7816164E-02  0.1186339E+00
        -11   -1    0    0    0    0  0.00000000000E+00  0.00000000000E+00  0.45593999997E+02  0.45594000000E+02  0.51100000000E-03 0.  1.
         11   -1    0    0    0    0 -0.00000000000E+00 -0.00000000000E+00 -0.45593999997E+02  0.45594000000E+02  0.51100000000E-03 0. -1.
    9900012    2    1    2    0    0 -0.22064951443E+00 -0.79748435627E-01  0.11567702351E+01  0.90007676571E+02  0.89999937101E+02 0.  0.
         12    1    1    2    0    0  0.22064951443E+00  0.79748435627E-01 -0.11567702351E+01  0.11803234294E+01  0.00000000000E+00 0. -1.
         11    1    3    3    0    0 -0.42625745394E+01 -0.97228031562E+01 -0.29962501435E+01  0.11030863887E+02  0.51100000000E-03 0. -1.
        -11    1    3    3    0    0 -0.16810031275E+02 -0.20014577994E+02  0.25821022438E+02  0.36740790462E+02  0.51100000000E-03 0.  1.
         12    1    3    3    0    0  0.20851956300E+02  0.29657632715E+02 -0.21668002060E+02  0.42236022221E+02  0.00000000000E+00 0. -1.
</event>
<event>
 7    1  0.1935465E-015  0.9000774E+02  0.7816164E-02  0.1186339E+00
        -11   -1    0    0    0    0  0.00000000000E+00  0.00000000000E+00  0.45593999997E+02  0.45594000000E+02  0.51100000000E-03 0.  1.
         11   -1    0    0    0    0 -0.00000000000E+00 -0.00000000000E+00 -0.45593999997E+02  0.45594000000E+02  0.51100000000E-03 0. -1.
    9900012    2    1    2    0    0 -0.17557741070E-01  0.11726762696E+01 -0.13242518148E+00  0.90007739717E+02  0.90000001081E+02 0.  0.
         12    1    1    2    0    0  0.17557741070E-01 -0.11726762696E+01  0.13242518148E+00  0.11802602833E+01  0.00000000000E+00 0. -1.
         11    1    3    3    0    0  0.13350245850E+02  0.29341598577E+01  0.63388493562E+00  0.13683572951E+02  0.51100000000E-03 0. -1.
        -11    1    3    3    0    0 -0.34231735788E+00  0.27518209627E+02  0.23450709442E+02  0.36156670420E+02  0.51100000000E-03 0.  1.
         12    1    3    3    0    0 -0.13025486233E+02 -0.29279693215E+02 -0.24217019559E+02  0.40167496346E+02  0.00000000000E+00 0. -1.
</event>
<event>
 7    1  0.1935465E-015  0.9000789E+02  0.7816164E-02  0.1186339E+00
        -11   -1    0    0    0    0  0.00000000000E+00  0.00000000000E+00  0.45593999997E+02  0.45594000000E+02  0.51100000000E-03 0.  1.
         11   -1    0    0    0    0 -0.00000000000E+00 -0.00000000000E+00 -0.45593999997E+02  0.45594000000E+02  0.51100000000E-03 0. -1.
    9900012    2    1    2    0    0 -0.66701917717E+00  0.15896028764E+00  0.96045760377E+00  0.90007889088E+02  0.90000152424E+02 0.  0.
         12    1    1    2    0    0  0.66701917717E+00 -0.15896028764E+00 -0.96045760377E+00  0.11801109119E+01  0.00000000000E+00 0. -1.
         11    1    3    3    0    0 -0.77935948767E+00 -0.84832954739E+01 -0.11955755682E+01  0.86025057110E+01  0.51100000000E-03 0. -1.
        -11    1    3    3    0    0 -0.34418659188E+02  0.19559488248E+02 -0.13671272217E+02  0.41882232093E+02  0.51100000000E-03 0.  1.
         12    1    3    3    0    0  0.34530999498E+02 -0.10917232487E+02  0.15827305389E+02  0.39523151284E+02  0.00000000000E+00 0. -1.
</event>
<event>
 7    1  0.1935465E-015  0.9000761E+02  0.7816164E-02  0.1186339E+00
        -11   -1    0    0    0    0  0.00000000000E+00  0.00000000000E+00  0.45593999997E+02  0.45594000000E+02  0.51100000000E-03 0. -1.
         11   -1    0    0    0    0 -0.00000000000E+00 -0.00000000000E+00 -0.45593999997E+02  0.45594000000E+02  0.51100000000E-03 0.  1.
    9900012    2    1    2    0    0  0.63651119914E-01  0.80167769305E+00 -0.86405592767E+00  0.90007605475E+02  0.89999865067E+02 0.  0.
         12    1    1    2    0    0 -0.63651119914E-01 -0.80167769305E+00  0.86405592767E+00  0.11803945250E+01  0.00000000000E+00 0. -1.
         11    1    3    3    0    0 -0.12737731221E+02  0.27853404327E+02  0.19607091295E+01  0.30690492173E+02  0.51100000000E-03 0. -1.
        -11    1    3    3    0    0 -0.93188103931E+01 -0.25434624606E+01  0.17897584726E+02  0.20337968623E+02  0.51100000000E-03 0.  1.
        -12    1    3    3    0    0  0.22120192734E+02 -0.24508264173E+02 -0.20722349783E+02  0.38979144679E+02  0.00000000000E+00 0.  1.
</event>
<event>
 7    1  0.1935465E-015  0.9000774E+02  0.7816164E-02  0.1186339E+00
        -11   -1    0    0    0    0  0.00000000000E+00  0.00000000000E+00  0.45593999997E+02  0.45594000000E+02  0.51100000000E-03 0.  1.
         11   -1    0    0    0    0 -0.00000000000E+00 -0.00000000000E+00 -0.45593999997E+02  0.45594000000E+02  0.51100000000E-03 0. -1.
    9900012    2    1    2    0    0 -0.81903986545E+00  0.32554019833E+00  0.78498905961E+00  0.90007741323E+02  0.90000002708E+02 0.  0.
         12    1    1    2    0    0  0.81903986545E+00 -0.32554019833E+00 -0.78498905961E+00  0.11802586774E+01  0.00000000000E+00 0. -1.
         11    1    3    3    0    0 -0.33801372143E+01  0.85350107174E+01 -0.22114510719E+01  0.94425765360E+01  0.51100000000E-03 0. -1.
        -11    1    3    3    0    0 -0.34542237383E+01  0.35858684906E+02  0.19036809147E+01  0.36074935151E+02  0.51100000000E-03 0.  1.
         12    1    3    3    0    0  0.60153210871E+01 -0.44068155425E+02  0.10927592167E+01  0.44490229636E+02  0.00000000000E+00 0. -1.
</event>
<event>
 7    1  0.2688155E-015  0.9000798E+02  0.7816164E-02  0.1186339E+00
        -11   -1    0    0    0    0  0.00000000000E+00  0.00000000000E+00  0.45593999997E+02  0.45594000000E+02  0.51100000000E-03 0.  1.
         11   -1    0    0    0    0 -0.00000000000E+00 -0.00000000000E+00 -0.45593999997E+02  0.45594000000E+02  0.51100000000E-03 0. -1.
    9900012    2    1    2    0    0  0.59074718672E+00  0.27900000164E+00  0.98266637143E+00  0.90007976086E+02  0.90000240570E+02 0.  0.
         12    1    1    2    0    0 -0.59074718672E+00 -0.27900000164E+00 -0.98266637143E+00  0.11800239138E+01  0.00000000000E+00 0. -1.
         11    1    3    3    0    0 -0.54657841392E+01  0.80914659755E+01  0.11841121812E+01  0.98360937270E+01  0.51100000000E-03 0. -1.
        -11    1    3    3    0    0 -0.14529189759E+02  0.17154804254E+02  0.28925569643E+02  0.36634317838E+02  0.51100000000E-03 0.  1.
         12    1    3    3    0    0  0.20585721085E+02 -0.24967270227E+02 -0.29127015453E+02  0.43537564521E+02  0.00000000000E+00 0. -1.
</event>
<event>
 7    1  0.1935465E-015  0.9000763E+02  0.7816164E-02  0.1186339E+00
        -11   -1    0    0    0    0  0.00000000000E+00  0.00000000000E+00  0.45593999997E+02  0.45594000000E+02  0.51100000000E-03 0.  1.
         11   -1    0    0    0    0 -0.00000000000E+00 -0.00000000000E+00 -0.45593999997E+02  0.45594000000E+02  0.51100000000E-03 0. -1.
    9900012    2    1    2    0    0  0.86868685822E+00  0.24514073435E+00  0.76062834500E+00  0.90007632974E+02  0.89999892929E+02 0.  0.
         12    1    1    2    0    0 -0.86868685822E+00 -0.24514073435E+00 -0.76062834500E+00  0.11803670262E+01  0.00000000000E+00 0. -1.
         11    1    3    3    0    0  0.92166300311E+01  0.80952293115E+00  0.34928034225E+01  0.98894525893E+01  0.51100000000E-03 0. -1.
        -11    1    3    3    0    0  0.33371976360E+02  0.12093074822E+02  0.49813502175E+01  0.35843341294E+02  0.51100000000E-03 0.  1.
         12    1    3    3    0    0 -0.41719919533E+02 -0.12657457019E+02 -0.77135252950E+01  0.44274839091E+02  0.00000000000E+00 0. -1.
</event>
<event>
 7    1  0.2220009E-015  0.9000776E+02  0.7816164E-02  0.1186339E+00
        -11   -1    0    0    0    0  0.00000000000E+00  0.00000000000E+00  0.45593999997E+02  0.45594000000E+02  0.51100000000E-03 0. -1.
         11   -1    0    0    0    0 -0.00000000000E+00 -0.00000000000E+00 -0.45593999997E+02  0.45594000000E+02  0.51100000000E-03 0.  1.
    9900012    2    1    2    0    0  0.10238316047E+00 -0.84065943593E+00 -0.82206187946E+00  0.90007755817E+02  0.90000017393E+02 0.  0.
         12    1    1    2    0    0 -0.10238316047E+00  0.84065943593E+00  0.82206187946E+00  0.11802441834E+01  0.00000000000E+00 0. -1.
         11    1    3    3    0    0 -0.14611037434E+01  0.18714463675E+01 -0.93975602986E+01  0.96928466140E+01  0.51100000000E-03 0. -1.
        -11    1    3    3    0    0 -0.16558057258E+02  0.11262116005E+02 -0.29640692510E+02  0.35771149964E+02  0.51100000000E-03 0.  1.
         12    1    3    3    0    0  0.18121544162E+02 -0.13974221808E+02  0.38216190929E+02  0.44543759238E+02  0.00000000000E+00 0. -1.
</event>
<event>
 7    1  0.1935465E-015  0.9000798E+02  0.7816164E-02  0.1186339E+00
        -11   -1    0    0    0    0  0.00000000000E+00  0.00000000000E+00  0.45593999997E+02  0.45594000000E+02  0.51100000000E-03 0. -1.
         11   -1    0    0    0    0 -0.00000000000E+00 -0.00000000000E+00 -0.45593999997E+02  0.45594000000E+02  0.51100000000E-03 0.  1.
    9900012    2    1    2    0    0 -0.25476296386E+00  0.81807330615E-01 -0.11492802224E+01  0.90007982357E+02  0.90000246924E+02 0.  0.
         12    1    1    2    0    0  0.25476296386E+00 -0.81807330615E-01  0.11492802224E+01  0.11800176425E+01  0.00000000000E+00 0. -1.
         11    1    3    3    0    0  0.76194715079E+01  0.10779996062E+01  0.65173061570E+01  0.10084329874E+02  0.51100000000E-03 0. -1.
        -11    1    3    3    0    0  0.13990438122E+02 -0.26995670465E+02  0.19760557814E+02  0.36262628533E+02  0.51100000000E-03 0.  1.
         12    1    3    3    0    0 -0.21864672594E+02  0.25999478190E+02 -0.27427144193E+02  0.43661023950E+02  0.00000000000E+00 0. -1.
</event>
<event>
 7    1  0.1935465E-015  0.9000851E+02  0.7816164E-02  0.1186338E+00
        -11   -1    0    0    0    0  0.00000000000E+00  0.00000000000E+00  0.45593999997E+02  0.45594000000E+02  0.51100000000E-03 0. -1.
         11   -1    0    0    0    0 -0.00000000000E+00 -0.00000000000E+00 -0.45593999997E+02  0.45594000000E+02  0.51100000000E-03 0.  1.
    9900012    2    1    2    0    0 -0.69810337902E+00  0.83700022874E+00 -0.45086211410E+00  0.90008510976E+02  0.90000782518E+02 0.  0.
         12    1    1    2    0    0  0.69810337902E+00 -0.83700022874E+00  0.45086211410E+00  0.11794890235E+01  0.00000000000E+00 0. -1.
         11    1    3    3    0    0  0.79449620886E+01  0.13346535164E+02 -0.49608717844E+00  0.15540222850E+02  0.51100000000E-03 0. -1.
        -11    1    3    3    0    0 -0.30857776910E+02  0.18387959350E+02 -0.42523680867E+01  0.36171840974E+02  0.51100000000E-03 0.  1.
         12    1    3    3    0    0  0.22214711442E+02 -0.30897494285E+02  0.42975931510E+01  0.38296447152E+02  0.00000000000E+00 0. -1.
</event>
<event>
 7    1  0.1935465E-015  0.9000779E+02  0.7816164E-02  0.1186339E+00
        -11   -1    0    0    0    0  0.00000000000E+00  0.00000000000E+00  0.45593999997E+02  0.45594000000E+02  0.51100000000E-03 0. -1.
         11   -1    0    0    0    0 -0.00000000000E+00 -0.00000000000E+00 -0.45593999997E+02  0.45594000000E+02  0.51100000000E-03 0.  1.
    9900012    2    1    2    0    0  0.15174755707E+00 -0.26355985558E+00 -0.11403572891E+01  0.90007785670E+02  0.90000047641E+02 0.  0.
         12    1    1    2    0    0 -0.15174755707E+00  0.26355985558E+00  0.11403572891E+01  0.11802143302E+01  0.00000000000E+00 0. -1.
         11    1    3    3    0    0 -0.37152073810E+02 -0.20594449788E+02 -0.94281239496E+01  0.43512038242E+02  0.51100000000E-03 0. -1.
        -11    1    3    3    0    0  0.13041891816E+02 -0.12835480586E+01  0.41130760464E+01  0.13735204133E+02  0.51100000000E-03 0.  1.
        -12    1    3    3    0    0  0.24261929551E+02  0.21614437991E+02  0.41746906141E+01  0.32760543295E+02  0.00000000000E+00 0.  1.
</event>
<event>
 7    1  0.2840350E-015  0.9000773E+02  0.7816164E-02  0.1186339E+00
        -11   -1    0    0    0    0  0.00000000000E+00  0.00000000000E+00  0.45593999997E+02  0.45594000000E+02  0.51100000000E-03 0.  1.
         11   -1    0    0    0    0 -0.00000000000E+00 -0.00000000000E+00 -0.45593999997E+02  0.45594000000E+02  0.51100000000E-03 0. -1.
    9900012    2    1    2    0    0 -0.11010526360E+00 -0.83602408455E+00  0.82582130867E+00  0.90007728729E+02  0.89999989948E+02 0.  0.
         12    1    1    2    0    0  0.11010526360E+00  0.83602408455E+00 -0.82582130867E+00  0.11802712709E+01  0.00000000000E+00 0. -1.
         11    1    3    3    0    0 -0.33951440401E+01  0.62182751891E+01  0.64882486962E+01  0.96068371895E+01  0.51100000000E-03 0. -1.
        -11    1    3    3    0    0  0.15586505887E+02  0.22144337022E+02  0.24601013662E+02  0.36585799177E+02  0.51100000000E-03 0.  1.
         12    1    3    3    0    0 -0.12301467111E+02 -0.29198636296E+02 -0.30263441049E+02  0.43815092363E+02  0.00000000000E+00 0. -1.
</event>
<event>
 7    1  0.1935465E-015  0.9000774E+02  0.7816164E-02  0.1186339E+00
        -11   -1    0    0    0    0  0.00000000000E+00  0.00000000000E+00  0.45593999997E+02  0.45594000000E+02  0.51100000000E-03 0. -1.
         11   -1    0    0    0    0 -0.00000000000E+00 -0.00000000000E+00 -0.45593999997E+02  0.45594000000E+02  0.51100000000E-03 0.  1.
    9900012    2    1    2    0    0 -0.78617562973E+00 -0.79495013764E+00 -0.37813413908E+00  0.90007744405E+02  0.90000005831E+02 0.  0.
         12    1    1    2    0    0  0.78617562973E+00  0.79495013764E+00  0.37813413908E+00  0.11802555949E+01  0.00000000000E+00 0. -1.
         11    1    3    3    0    0 -0.86099085811E+01 -0.43625332796E+00  0.16644588028E+01  0.87801632165E+01  0.51100000000E-03 0. -1.
        -11    1    3    3    0    0  0.13761401476E+02 -0.13865823753E+02 -0.37797773042E+02  0.42547724806E+02  0.51100000000E-03 0.  1.
         12    1    3    3    0    0 -0.59376685247E+01  0.13507126943E+02  0.35755180101E+02  0.38679856383E+02  0.00000000000E+00 0. -1.
</event>
<event>
 7    1  0.1935465E-015  0.9000776E+02  0.7816164E-02  0.1186339E+00
        -11   -1    0    0    0    0  0.00000000000E+00  0.00000000000E+00  0.45593999997E+02  0.45594000000E+02  0.51100000000E-03 0.  1.
         11   -1    0    0    0    0 -0.00000000000E+00 -0.00000000000E+00 -0.45593999997E+02  0.45594000000E+02  0.51100000000E-03 0. -1.
    9900012    2    1    2    0    0  0.94617533622E-01  0.11096171962E+01  0.39084473254E+00  0.90007761717E+02  0.90000023372E+02 0.  0.
         12    1    1    2    0    0 -0.94617533622E-01 -0.11096171962E+01 -0.39084473254E+00  0.11802382830E+01  0.00000000000E+00 0. -1.
         11    1    3    3    0    0  0.16625892107E+01  0.37826821880E+02 -0.10419019775E+02  0.39270709566E+02  0.51100000000E-03 0. -1.
        -11    1    3    3    0    0  0.76812067670E+01  0.33115517291E+01  0.31938303646E+01  0.89536509263E+01  0.51100000000E-03 0.  1.
        -12    1    3    3    0    0 -0.92491784441E+01 -0.40028756413E+02  0.76160341429E+01  0.41783401225E+02  0.00000000000E+00 0.  1.
</event>
<event>
 7    1  0.1935465E-015  0.9000781E+02  0.7816164E-02  0.1186339E+00
        -11   -1    0    0    0    0  0.00000000000E+00  0.00000000000E+00  0.45593999997E+02  0.45594000000E+02  0.51100000000E-03 0.  1.
         11   -1    0    0    0    0 -0.00000000000E+00 -0.00000000000E+00 -0.45593999997E+02  0.45594000000E+02  0.51100000000E-03 0. -1.
    9900012    2    1    2    0    0 -0.36087453167E+00 -0.83815718928E+00  0.74839973402E+00  0.90007813547E+02  0.90000075886E+02 0.  0.
         12    1    1    2    0    0  0.36087453167E+00  0.83815718928E+00 -0.74839973402E+00  0.11801864528E+01  0.00000000000E+00 0. -1.
         11    1    3    3    0    0  0.54627572679E+01 -0.56537122967E+01 -0.24348149327E+01  0.82300974308E+01  0.51100000000E-03 0. -1.
        -11    1    3    3    0    0  0.35202678702E+02 -0.50620567158E+01  0.13989724087E+02  0.38217344050E+02  0.51100000000E-03 0.  1.
         12    1    3    3    0    0 -0.41026310501E+02  0.98776118232E+01 -0.10806509420E+02  0.43560372066E+02  0.00000000000E+00 0. -1.
</event>
<event>
 7    1  0.1935465E-015  0.9000773E+02  0.7816164E-02  0.1186339E+00
        -11   -1    0    0    0    0  0.00000000000E+00  0.00000000000E+00  0.45593999997E+02  0.45594000000E+02  0.51100000000E-03 0. -1.
         11   -1    0    0    0    0 -0.00000000000E+00 -0.00000000000E+00 -0.45593999997E+02  0.45594000000E+02  0.51100000000E-03 0.  1.
    9900012    2    1    2    0    0  0.11424949405E+01  0.13423691144E+00  0.26407071421E+00  0.90007725634E+02  0.89999986812E+02 0.  0.
         12    1    1    2    0    0 -0.11424949405E+01 -0.13423691144E+00 -0.26407071421E+00  0.11802743662E+01  0.00000000000E+00 0. -1.
         11    1    3    3    0    0 -0.37548223198E+00  0.51718051801E+01 -0.77994318132E+01  0.93658791684E+01  0.51100000000E-03 0. -1.
        -11    1    3    3    0    0 -0.31229598794E+02  0.17986474215E+02 -0.89681467702E+01  0.37137969146E+02  0.51100000000E-03 0.  1.
         12    1    3    3    0    0  0.32747575967E+02 -0.23024042484E+02  0.17031649298E+02  0.43503877319E+02  0.00000000000E+00 0. -1.
</event>
<event>
 7    1  0.1935465E-015  0.9000771E+02  0.7816164E-02  0.1186339E+00
        -11   -1    0    0    0    0  0.00000000000E+00  0.00000000000E+00  0.45593999997E+02  0.45594000000E+02  0.51100000000E-03 0.  1.
         11   -1    0    0    0    0 -0.00000000000E+00 -0.00000000000E+00 -0.45593999997E+02  0.45594000000E+02  0.51100000000E-03 0. -1.
    9900012    2    1    2    0    0  0.86588562035E+00 -0.77463130048E+00  0.20803933243E+00  0.90007706849E+02  0.89999967779E+02 0.  0.
         12    1    1    2    0    0 -0.86588562035E+00  0.77463130048E+00 -0.20803933243E+00  0.11802931513E+01  0.00000000000E+00 0. -1.
         11    1    3    3    0    0 -0.65553648116E+01 -0.64177611946E+01 -0.28975040030E+01  0.96206026980E+01  0.51100000000E-03 0. -1.
        -11    1    3    3    0    0  0.10454596180E+02 -0.19770918572E+02  0.33732849311E+02  0.40473360688E+02  0.51100000000E-03 0.  1.
         12    1    3    3    0    0 -0.30333457485E+01  0.25414048467E+02 -0.30627305975E+02  0.39913743463E+02  0.00000000000E+00 0. -1.
</event>
<event>
 7    1  0.1935465E-015  0.9000806E+02  0.7816164E-02  0.1186338E+00
        -11   -1    0    0    0    0  0.00000000000E+00  0.00000000000E+00  0.45593999997E+02  0.45594000000E+02  0.51100000000E-03 0. -1.
         11   -1    0    0    0    0 -0.00000000000E+00 -0.00000000000E+00 -0.45593999997E+02  0.45594000000E+02  0.51100000000E-03 0.  1.
    9900012    2    1    2    0    0 -0.18236370105E+00 -0.10126312084E+01  0.57757235865E+00  0.90008055801E+02  0.90000321337E+02 0.  0.
         12    1    1    2    0    0  0.18236370105E+00  0.10126312084E+01 -0.57757235865E+00  0.11799441991E+01  0.00000000000E+00 0. -1.
         11    1    3    3    0    0 -0.37600515972E+01 -0.62189531657E+01  0.76358668679E+01  0.10541339079E+02  0.51100000000E-03 0. -1.
        -11    1    3    3    0    0 -0.20740536525E+02  0.33203004429E+02 -0.14307790499E+02  0.41681197531E+02  0.51100000000E-03 0.  1.
         12    1    3    3    0    0  0.24318224421E+02 -0.27996682471E+02  0.72494959895E+01  0.37785519191E+02  0.00000000000E+00 0. -1.
</event>
<event>
 7    1  0.1935465E-015  0.9000766E+02  0.7816164E-02  0.1186339E+00
        -11   -1    0    0    0    0  0.00000000000E+00  0.00000000000E+00  0.45593999997E+02  0.45594000000E+02  0.51100000000E-03 0. -1.
         11   -1    0    0    0    0 -0.00000000000E+00 -0.00000000000E+00 -0.45593999997E+02  0.45594000000E+02  0.51100000000E-03 0.  1.
    9900012    2    1    2    0    0  0.94010953855E+00  0.80778388290E-01 -0.70913146321E+00  0.90007661691E+02  0.89999922025E+02 0.  0.
         12    1    1    2    0    0 -0.94010953855E+00 -0.80778388290E-01  0.70913146321E+00  0.11803383094E+01  0.00000000000E+00 0. -1.
         11    1    3    3    0    0  0.33997103956E+02  0.19006995771E+02  0.16038336808E+02  0.42122407499E+02  0.51100000000E-03 0. -1.
        -11    1    3    3    0    0 -0.38997259735E+01 -0.31460122464E+01  0.58956117549E+01  0.77371502472E+01  0.51100000000E-03 0.  1.
        -12    1    3    3    0    0 -0.29157268444E+02 -0.15780205137E+02 -0.22643080026E+02  0.40148103945E+02  0.00000000000E+00 0.  1.
</event>
<event>
 7    1  0.1935465E-015  0.9000770E+02  0.7816164E-02  0.1186339E+00
        -11   -1    0    0    0    0  0.00000000000E+00  0.00000000000E+00  0.45593999997E+02  0.45594000000E+02  0.51100000000E-03 0.  1.
         11   -1    0    0    0    0 -0.00000000000E+00 -0.00000000000E+00 -0.45593999997E+02  0.45594000000E+02  0.51100000000E-03 0. -1.
    9900012    2    1    2    0    0 -0.87372920978E+00 -0.24452544397E+00  0.75492231115E+00  0.90007702105E+02  0.89999962973E+02 0.  0.
         12    1    1    2    0    0  0.87372920978E+00  0.24452544397E+00 -0.75492231115E+00  0.11802978949E+01  0.00000000000E+00 0. -1.
         11    1    3    3    0    0 -0.39268690555E-01  0.71448501371E+01  0.78438685908E+01  0.10610216786E+02  0.51100000000E-03 0. -1.
        -11    1    3    3    0    0  0.13602874915E+01  0.30619431960E+02  0.16300545236E+02  0.34714662189E+02  0.51100000000E-03 0.  1.
         12    1    3    3    0    0 -0.21947480107E+01 -0.38008807541E+02 -0.23389491516E+02  0.44682823130E+02  0.00000000000E+00 0. -1.
</event>
<event>
 7    1  0.1935465E-015  0.9000772E+02  0.7816164E-02  0.1186339E+00
        -11   -1    0    0    0    0  0.00000000000E+00  0.00000000000E+00  0.45593999997E+02  0.45594000000E+02  0.51100000000E-03 0.  1.
         11   -1    0    0    0    0 -0.00000000000E+00 -0.00000000000E+00 -0.45593999997E+02  0.45594000000E+02  0.51100000000E-03 0. -1.
    9900012    2    1    2    0    0 -0.52898635424E+00 -0.86304646058E+00 -0.60695165879E+00  0.90007717800E+02  0.89999978875E+02 0.  0.
         12    1    1    2    0    0  0.52898635424E+00  0.86304646058E+00  0.60695165879E+00  0.11802822002E+01  0.00000000000E+00 0. -1.
         11    1    3    3    0    0 -0.17963215657E+01  0.45841230792E+01 -0.89345489760E+01  0.10201329386E+02  0.51100000000E-03 0. -1.
        -11    1    3    3    0    0  0.38016220534E+02 -0.12597703900E+02  0.12934157361E+02  0.42085954833E+02  0.51100000000E-03 0.  1.
         12    1    3    3    0    0 -0.36748885323E+02  0.71505343603E+01 -0.46065600441E+01  0.37720433581E+02  0.00000000000E+00 0. -1.
</event>
<event>
 7    1  0.1935465E-015  0.9000817E+02  0.7816164E-02  0.1186338E+00
        -11   -1    0    0    0    0  0.00000000000E+00  0.00000000000E+00  0.45593999997E+02  0.45594000000E+02  0.51100000000E-03 0. -1.
         11   -1    0    0    0    0 -0.00000000000E+00 -0.00000000000E+00 -0.45593999997E+02  0.45594000000E+02  0.51100000000E-03 0.  1.
    9900012    2    1    2    0    0  0.10241148452E+01  0.46354782500E+00 -0.35821862615E+00  0.90008165950E+02  0.90000432939E+02 0.  0.
         12    1    1    2    0    0 -0.10241148452E+01 -0.46354782500E+00  0.35821862615E+00  0.11798340504E+01  0.00000000000E+00 0. -1.
         11    1    3    3    0    0 -0.23261313479E+02 -0.28718341806E+02 -0.15562608968E+02  0.40100207717E+02  0.51100000000E-03 0. -1.
        -11    1    3    3    0    0 -0.10851685648E+01  0.80727590048E+01 -0.64878825727E+01  0.10413435999E+02  0.51100000000E-03 0.  1.
        -12    1    3    3    0    0  0.25370596889E+02  0.21109130626E+02  0.21692272914E+02  0.39494522234E+02  0.00000000000E+00 0.  1.
</event>
<event>
 7    1  0.1935465E-015  0.9000753E+02  0.7816164E-02  0.1186339E+00
        -11   -1    0    0    0    0  0.00000000000E+00  0.00000000000E+00  0.45593999997E+02  0.45594000000E+02  0.51100000000E-03 0. -1.
         11   -1    0    0    0    0 -0.00000000000E+00 -0.00000000000E+00 -0.45593999997E+02  0.45594000000E+02  0.51100000000E-03 0.  1.
    9900012    2    1    2    0    0 -0.42553587908E+00 -0.95239755120E+00 -0.55260409954E+00  0.90007528412E+02  0.89999786986E+02 0.  0.
         12    1    1    2    0    0  0.42553587908E+00  0.95239755120E+00  0.55260409954E+00  0.11804715883E+01  0.00000000000E+00 0. -1.
         11    1    3    3    0    0 -0.11389220137E+02  0.28398967206E+02  0.20171728842E+02  0.36648524096E+02  0.51100000000E-03 0. -1.
        -11    1    3    3    0    0 -0.36583775980E+01  0.25702849420E+01  0.72150255615E+01  0.84880318948E+01  0.51100000000E-03 0.  1.
        -12    1    3    3    0    0  0.14622061856E+02 -0.31921649699E+02 -0.27939358503E+02  0.44870972421E+02  0.00000000000E+00 0.  1.
</event>
<event>
 7    1  0.1972757E-015  0.9000767E+02  0.7816164E-02  0.1186339E+00
        -11   -1    0    0    0    0  0.00000000000E+00  0.00000000000E+00  0.45593999997E+02  0.45594000000E+02  0.51100000000E-03 0. -1.
         11   -1    0    0    0    0 -0.00000000000E+00 -0.00000000000E+00 -0.45593999997E+02  0.45594000000E+02  0.51100000000E-03 0.  1.
    9900012    2    1    2    0    0  0.12243120024E+00 -0.76187298151E+00 -0.89315785780E+00  0.90007673436E+02  0.89999933925E+02 0.  0.
         12    1    1    2    0    0 -0.12243120024E+00  0.76187298151E+00  0.89315785780E+00  0.11803265640E+01  0.00000000000E+00 0. -1.
         11    1    3    3    0    0 -0.35528026403E+01 -0.34538252946E+01 -0.81569406934E+01  0.95439508330E+01  0.51100000000E-03 0. -1.
        -11    1    3    3    0    0  0.11656118651E+02  0.28748534336E+02 -0.23830101963E+02  0.39117989318E+02  0.51100000000E-03 0.  1.
         12    1    3    3    0    0 -0.79808848101E+01 -0.26056582023E+02  0.31093884798E+02  0.41345733285E+02  0.00000000000E+00 0. -1.
</event>
<event>
 7    1  0.1935465E-015  0.9000772E+02  0.7816164E-02  0.1186339E+00
        -11   -1    0    0    0    0  0.00000000000E+00  0.00000000000E+00  0.45593999997E+02  0.45594000000E+02  0.51100000000E-03 0. -1.
         11   -1    0    0    0    0 -0.00000000000E+00 -0.00000000000E+00 -0.45593999997E+02  0.45594000000E+02  0.51100000000E-03 0.  1.
    9900012    2    1    2    0    0 -0.89758403028E+00 -0.66014573199E+00 -0.38936307275E+00  0.90007723303E+02  0.89999984451E+02 0.  0.
         12    1    1    2    0    0  0.89758403028E+00  0.66014573199E+00  0.38936307275E+00  0.11802766969E+01  0.00000000000E+00 0. -1.
         11    1    3    3    0    0 -0.10109502650E+02  0.37108106165E+01 -0.26889016628E+01  0.11099655476E+02  0.51100000000E-03 0. -1.
        -11    1    3    3    0    0 -0.29979162420E+02  0.14267392653E+02  0.10336376916E+02  0.34772825029E+02  0.51100000000E-03 0.  1.
         12    1    3    3    0    0  0.39191081040E+02 -0.18638349002E+02 -0.80368383263E+01  0.44135242798E+02  0.00000000000E+00 0. -1.
</event>
<event>
 7    1  0.1935465E-015  0.9000768E+02  0.7816164E-02  0.1186339E+00
        -11   -1    0    0    0    0  0.00000000000E+00  0.00000000000E+00  0.45593999997E+02  0.45594000000E+02  0.51100000000E-03 0.  1.
         11   -1    0    0    0    0 -0.00000000000E+00 -0.00000000000E+00 -0.45593999997E+02  0.45594000000E+02  0.51100000000E-03 0. -1.
    9900012    2    1    2    0    0 -0.85388010441E+00  0.29196786206E-01  0.81436167886E+00  0.90007682827E+02  0.89999943440E+02 0.  0.
         12    1    1    2    0    0  0.85388010441E+00 -0.29196786206E-01 -0.81436167886E+00  0.11803171731E+01  0.00000000000E+00 0. -1.
         11    1    3    3    0    0 -0.83327235623E+01  0.28390592349E+02 -0.55335933941E+01  0.30101173931E+02  0.51100000000E-03 0. -1.
        -11    1    3    3    0    0 -0.13643536211E+01  0.13415560984E+02 -0.69642983741E+01  0.15176962457E+02  0.51100000000E-03 0.  1.
        -12    1    3    3    0    0  0.88431970790E+01 -0.41776956546E+02  0.13312253447E+02  0.44729546440E+02  0.00000000000E+00 0.  1.
</event>
<event>
 7    1  0.1935465E-015  0.9000757E+02  0.7816164E-02  0.1186339E+00
        -11   -1    0    0    0    0  0.00000000000E+00  0.00000000000E+00  0.45593999997E+02  0.45594000000E+02  0.51100000000E-03 0.  1.
         11   -1    0    0    0    0 -0.00000000000E+00 -0.00000000000E+00 -0.45593999997E+02  0.45594000000E+02  0.51100000000E-03 0. -1.
    9900012    2    1    2    0    0 -0.78834763196E+00 -0.46543273928E-01  0.87735417545E+00  0.90007572698E+02  0.89999831858E+02 0.  0.
         12    1    1    2    0    0  0.78834763196E+00  0.46543273928E-01 -0.87735417545E+00  0.11804273016E+01  0.00000000000E+00 0. -1.
         11    1    3    3    0    0  0.30687734720E+01 -0.36902959619E+01 -0.62796001643E+01  0.79037354076E+01  0.51100000000E-03 0. -1.
        -11    1    3    3    0    0 -0.53492688103E+01 -0.65394802851E+01  0.43509642609E+02  0.44322324842E+02  0.51100000000E-03 0.  1.
         12    1    3    3    0    0  0.14921477064E+01  0.10183232973E+02 -0.36352688269E+02  0.37781512449E+02  0.00000000000E+00 0. -1.
</event>
<event>
 7    1  0.1935465E-015  0.9000778E+02  0.7816164E-02  0.1186339E+00
        -11   -1    0    0    0    0  0.00000000000E+00  0.00000000000E+00  0.45593999997E+02  0.45594000000E+02  0.51100000000E-03 0.  1.
         11   -1    0    0    0    0 -0.00000000000E+00 -0.00000000000E+00 -0.45593999997E+02  0.45594000000E+02  0.51100000000E-03 0. -1.
    9900012    2    1    2    0    0 -0.30552536685E+00  0.19004011212E+00  0.11240347736E+01  0.90007781729E+02  0.90000043648E+02 0.  0.
         12    1    1    2    0    0  0.30552536685E+00 -0.19004011212E+00 -0.11240347736E+01  0.11802182706E+01  0.00000000000E+00 0. -1.
         11    1    3    3    0    0 -0.19685748855E+02  0.20509969829E+02 -0.29761584763E+02  0.41157496259E+02  0.51100000000E-03 0. -1.
        -11    1    3    3    0    0 -0.36880551032E+01 -0.79364972351E+01  0.53601914265E+00  0.87679561808E+01  0.51100000000E-03 0.  1.
        -12    1    3    3    0    0  0.23068278592E+02 -0.12383432482E+02  0.30349600394E+02  0.40082329290E+02  0.00000000000E+00 0.  1.
</event>
<event>
 7    1  0.1935465E-015  0.9000774E+02  0.7816164E-02  0.1186339E+00
        -11   -1    0    0    0    0  0.00000000000E+00  0.00000000000E+00  0.45593999997E+02  0.45594000000E+02  0.51100000000E-03 0.  1.
         11   -1    0    0    0    0 -0.00000000000E+00 -0.00000000000E+00 -0.45593999997E+02  0.45594000000E+02  0.51100000000E-03 0. -1.
    9900012    2    1    2    0    0 -0.10731365633E+01  0.48822582733E+00  0.55031185044E-01  0.90007739447E+02  0.90000000808E+02 0.  0.
         12    1    1    2    0    0  0.10731365633E+01 -0.48822582733E+00 -0.55031185044E-01  0.11802605532E+01  0.00000000000E+00 0. -1.
         11    1    3    3    0    0  0.12771346577E+01  0.24064965001E+01  0.10184678982E+02  0.10542769303E+02  0.51100000000E-03 0. -1.
        -11    1    3    3    0    0 -0.38413375452E+02  0.10707473801E+02 -0.10563289238E+02  0.41253127016E+02  0.51100000000E-03 0.  1.
         12    1    3    3    0    0  0.36063104231E+02 -0.12625744474E+02  0.43364144107E+00  0.38211843128E+02  0.00000000000E+00 0. -1.
</event>
<event>
 7    1  0.1935465E-015  0.9000774E+02  0.7816164E-02  0.1186339E+00
        -11   -1    0    0    0    0  0.00000000000E+00  0.00000000000E+00  0.45593999997E+02  0.45594000000E+02  0.51100000000E-03 0. -1.
         11   -1    0    0    0    0 -0.00000000000E+00 -0.00000000000E+00 -0.45593999997E+02  0.45594000000E+02  0.51100000000E-03 0.  1.
    9900012    2    1    2    0    0  0.49766330423E-01  0.10434138881E+01 -0.54939260569E+00  0.90007736697E+02  0.89999998021E+02 0.  0.
         12    1    1    2    0    0 -0.49766330423E-01 -0.10434138881E+01  0.54939260569E+00  0.11802633031E+01  0.00000000000E+00 0. -1.
         11    1    3    3    0    0 -0.13972332184E+00  0.41495773022E+01 -0.10179738573E+02  0.10993888851E+02  0.51100000000E-03 0. -1.
        -11    1    3    3    0    0 -0.43365647614E+01  0.11126420627E+02 -0.32335272483E+02  0.34469883619E+02  0.51100000000E-03 0.  1.
         12    1    3    3    0    0  0.45260544137E+01 -0.14232584041E+02  0.41965618451E+02  0.44543964226E+02  0.00000000000E+00 0. -1.
</event>
<event>
 7    1  0.1935465E-015  0.9000780E+02  0.7816164E-02  0.1186339E+00
        -11   -1    0    0    0    0  0.00000000000E+00  0.00000000000E+00  0.45593999997E+02  0.45594000000E+02  0.51100000000E-03 0.  1.
         11   -1    0    0    0    0 -0.00000000000E+00 -0.00000000000E+00 -0.45593999997E+02  0.45594000000E+02  0.51100000000E-03 0. -1.
    9900012    2    1    2    0    0  0.83213535988E+00  0.79485879918E+00  0.26195742738E+00  0.90007800245E+02  0.90000062408E+02 0.  0.
         12    1    1    2    0    0 -0.83213535988E+00 -0.79485879918E+00 -0.26195742738E+00  0.11801997549E+01  0.00000000000E+00 0. -1.
         11    1    3    3    0    0 -0.15127412052E+02  0.81693281931E+01 -0.37940613914E+02  0.41654131883E+02  0.51100000000E-03 0. -1.
        -11    1    3    3    0    0  0.16892766920E+01  0.79863543549E+01  0.69569075726E+01  0.10725393926E+02  0.51100000000E-03 0.  1.
        -12    1    3    3    0    0  0.14270270720E+02 -0.15360823749E+02  0.31245663769E+02  0.37628274436E+02  0.00000000000E+00 0.  1.
</event>
<event>
 7    1  0.1935465E-015  0.9000726E+02  0.7816164E-02  0.1186340E+00
        -11   -1    0    0    0    0  0.00000000000E+00  0.00000000000E+00  0.45593999997E+02  0.45594000000E+02  0.51100000000E-03 0. -1.
         11   -1    0    0    0    0 -0.00000000000E+00 -0.00000000000E+00 -0.45593999997E+02  0.45594000000E+02  0.51100000000E-03 0.  1.
    9900012    2    1    2    0    0 -0.59590440545E-01  0.61159220737E+00 -0.10082385510E+01  0.90007262508E+02  0.89999517572E+02 0.  0.
         12    1    1    2    0    0  0.59590440545E-01 -0.61159220737E+00  0.10082385510E+01  0.11807374917E+01  0.00000000000E+00 0. -1.
         11    1    3    3    0    0  0.33098965409E+02  0.16654309685E+02  0.86246500122E+01  0.38043292843E+02  0.51100000000E-03 0. -1.
        -11    1    3    3    0    0 -0.59203756192E+00  0.45864233279E+01  0.82576847253E+01  0.94644146518E+01  0.51100000000E-03 0.  1.
        -12    1    3    3    0    0 -0.32566518287E+02 -0.20629140806E+02 -0.17890573288E+02  0.42499555014E+02  0.00000000000E+00 0.  1.
</event>
<event>
 7    1  0.1935465E-015  0.9000779E+02  0.7816164E-02  0.1186339E+00
        -11   -1    0    0    0    0  0.00000000000E+00  0.00000000000E+00  0.45593999997E+02  0.45594000000E+02  0.51100000000E-03 0.  1.
         11   -1    0    0    0    0 -0.00000000000E+00 -0.00000000000E+00 -0.45593999997E+02  0.45594000000E+02  0.51100000000E-03 0. -1.
    9900012    2    1    2    0    0  0.13335736501E+00 -0.10436033766E+01  0.53478404513E+00  0.90007794014E+02  0.90000056095E+02 0.  0.
         12    1    1    2    0    0 -0.13335736501E+00  0.10436033766E+01 -0.53478404513E+00  0.11802059860E+01  0.00000000000E+00 0. -1.
         11    1    3    3    0    0  0.19946361268E+02 -0.11480374636E+01 -0.35810742384E+02  0.41007128504E+02  0.51100000000E-03 0. -1.
        -11    1    3    3    0    0 -0.62007863738E+01  0.79472669171E+01  0.76841671071E+00  0.10109365342E+02  0.51100000000E-03 0.  1.
        -12    1    3    3    0    0 -0.13612217529E+02 -0.78428328302E+01  0.35577109718E+02  0.38891300168E+02  0.00000000000E+00 0.  1.
</event>
<event>
 7    1  0.1935465E-015  0.9000776E+02  0.7816164E-02  0.1186339E+00
        -11   -1    0    0    0    0  0.00000000000E+00  0.00000000000E+00  0.45593999997E+02  0.45594000000E+02  0.51100000000E-03 0.  1.
         11   -1    0    0    0    0 -0.00000000000E+00 -0.00000000000E+00 -0.45593999997E+02  0.45594000000E+02  0.51100000000E-03 0. -1.
    9900012    2    1    2    0    0 -0.24694424826E+00  0.86804029692E+00  0.76058285783E+00  0.90007762014E+02  0.90000023673E+02 0.  0.
         12    1    1    2    0    0  0.24694424826E+00 -0.86804029692E+00 -0.76058285783E+00  0.11802379855E+01  0.00000000000E+00 0. -1.
         11    1    3    3    0    0 -0.28099163299E+01 -0.34334594400E+01  0.12404804792E+01  0.46068498551E+01  0.51100000000E-03 0. -1.
        -11    1    3    3    0    0 -0.93146149256E+01 -0.35289027680E+01  0.40664367252E+02  0.41866525653E+02  0.51100000000E-03 0.  1.
         12    1    3    3    0    0  0.11877587007E+02  0.78304025049E+01 -0.41144264874E+02  0.43534386506E+02  0.00000000000E+00 0. -1.
</event>
<event>
 7    1  0.1935465E-015  0.9000767E+02  0.7816164E-02  0.1186339E+00
        -11   -1    0    0    0    0  0.00000000000E+00  0.00000000000E+00  0.45593999997E+02  0.45594000000E+02  0.51100000000E-03 0.  1.
         11   -1    0    0    0    0 -0.00000000000E+00 -0.00000000000E+00 -0.45593999997E+02  0.45594000000E+02  0.51100000000E-03 0. -1.
    9900012    2    1    2    0    0  0.98690665659E+00 -0.23829132267E+00  0.60199892312E+00  0.90007673686E+02  0.89999934179E+02 0.  0.
         12    1    1    2    0    0 -0.98690665659E+00  0.23829132267E+00 -0.60199892312E+00  0.11803263137E+01  0.00000000000E+00 0. -1.
         11    1    3    3    0    0  0.13856123722E+02  0.32206167621E+02 -0.52126974167E+01  0.35445755911E+02  0.51100000000E-03 0. -1.
        -11    1    3    3    0    0  0.28234844704E+01  0.85965569878E+01 -0.34020169022E+01  0.96667769119E+01  0.51100000000E-03 0.  1.
        -12    1    3    3    0    0 -0.15692701535E+02 -0.41041015932E+02  0.92167132420E+01  0.44895140864E+02  0.00000000000E+00 0.  1.
</event>
<event>
 7    1  0.1935465E-015  0.9000778E+02  0.7816164E-02  0.1186339E+00
        -11   -1    0    0    0    0  0.00000000000E+00  0.00000000000E+00  0.45593999997E+02  0.45594000000E+02  0.51100000000E-03 0. -1.
         11   -1    0    0    0    0 -0.00000000000E+00 -0.00000000000E+00 -0.45593999997E+02  0.45594000000E+02  0.51100000000E-03 0.  1.
    9900012    2    1    2    0    0 -0.11280693051E+00 -0.11261904652E+01  0.33449178579E+00  0.90007781748E+02  0.90000043667E+02 0.  0.
         12    1    1    2    0    0  0.11280693051E+00  0.11261904652E+01 -0.33449178579E+00  0.11802182519E+01  0.00000000000E+00 0. -1.
         11    1    3    3    0    0 -0.31357955654E+02 -0.17624470264E+02 -0.22477362367E+02  0.42416684856E+02  0.51100000000E-03 0. -1.
        -11    1    3    3    0    0  0.86836685218E+01  0.18656703262E+01 -0.38886905788E+01  0.96958104066E+01  0.51100000000E-03 0.  1.
        -12    1    3    3    0    0  0.22561480202E+02  0.14632609473E+02  0.26700544731E+02  0.37895286486E+02  0.00000000000E+00 0.  1.
</event>
<event>
 7    1  0.1935465E-015  0.9000773E+02  0.7816164E-02  0.1186339E+00
        -11   -1    0    0    0    0  0.00000000000E+00  0.00000000000E+00  0.45593999997E+02  0.45594000000E+02  0.51100000000E-03 0.  1.
         11   -1    0    0    0    0 -0.00000000000E+00 -0.00000000000E+00 -0.45593999997E+02  0.45594000000E+02  0.51100000000E-03 0. -1.
    9900012    2    1    2    0    0  0.82900282440E+00  0.82045822505E+00  0.18063370391E+00  0.90007734811E+02  0.89999996110E+02 0.  0.
         12    1    1    2    0    0 -0.82900282440E+00 -0.82045822505E+00 -0.18063370391E+00  0.11802651892E+01  0.00000000000E+00 0. -1.
         11    1    3    3    0    0 -0.16637596038E+01 -0.89081194964E+01  0.71609358374E-01  0.90624399111E+01  0.51100000000E-03 0. -1.
        -11    1    3    3    0    0  0.29337083476E+02 -0.23888046535E+02 -0.18839878540E+01  0.37879448843E+02  0.51100000000E-03 0.  1.
         12    1    3    3    0    0 -0.26844321048E+02  0.33616624257E+02  0.19930121995E+01  0.43065846057E+02  0.00000000000E+00 0. -1.
</event>
<event>
 7    1  0.1935465E-015  0.9000770E+02  0.7816164E-02  0.1186339E+00
        -11   -1    0    0    0    0  0.00000000000E+00  0.00000000000E+00  0.45593999997E+02  0.45594000000E+02  0.51100000000E-03 0. -1.
         11   -1    0    0    0    0 -0.00000000000E+00 -0.00000000000E+00 -0.45593999997E+02  0.45594000000E+02  0.51100000000E-03 0.  1.
    9900012    2    1    2    0    0 -0.22706173581E+00 -0.37627757672E+00 -0.10954305178E+01  0.90007699248E+02  0.89999960078E+02 0.  0.
         12    1    1    2    0    0  0.22706173581E+00  0.37627757672E+00  0.10954305178E+01  0.11803007524E+01  0.00000000000E+00 0. -1.
         11    1    3    3    0    0 -0.35953018854E+02 -0.99982393329E+01 -0.54063956912E+01  0.37706941922E+02  0.51100000000E-03 0. -1.
        -11    1    3    3    0    0  0.93409456446E+01  0.23107326013E+00 -0.15428279302E+02  0.18037141205E+02  0.51100000000E-03 0.  1.
        -12    1    3    3    0    0  0.26385011474E+02  0.93908884961E+01  0.19739244475E+02  0.34263616120E+02  0.00000000000E+00 0.  1.
</event>
<event>
 7    1  0.1935465E-015  0.9000777E+02  0.7816164E-02  0.1186339E+00
        -11   -1    0    0    0    0  0.00000000000E+00  0.00000000000E+00  0.45593999997E+02  0.45594000000E+02  0.51100000000E-03 0.  1.
         11   -1    0    0    0    0 -0.00000000000E+00 -0.00000000000E+00 -0.45593999997E+02  0.45594000000E+02  0.51100000000E-03 0. -1.
    9900012    2    1    2    0    0 -0.46995444584E+00  0.92780098840E+00  0.55790679199E+00  0.90007774664E+02  0.90000036490E+02 0.  0.
         12    1    1    2    0    0  0.46995444584E+00 -0.92780098840E+00 -0.55790679199E+00  0.11802253360E+01  0.00000000000E+00 0. -1.
         11    1    3    3    0    0  0.26961509620E+02  0.15236952045E+02 -0.17057109993E+02  0.35355801649E+02  0.51100000000E-03 0. -1.
        -11    1    3    3    0    0  0.33929000972E+01 -0.25512635518E+01 -0.10487736567E+02  0.11314297828E+02  0.51100000000E-03 0.  1.
        -12    1    3    3    0    0 -0.30824364163E+02 -0.11757887505E+02  0.28102753352E+02  0.43337675187E+02  0.00000000000E+00 0.  1.
</event>
<event>
 7    1  0.1935465E-015  0.9000765E+02  0.7816164E-02  0.1186339E+00
        -11   -1    0    0    0    0  0.00000000000E+00  0.00000000000E+00  0.45593999997E+02  0.45594000000E+02  0.51100000000E-03 0.  1.
         11   -1    0    0    0    0 -0.00000000000E+00 -0.00000000000E+00 -0.45593999997E+02  0.45594000000E+02  0.51100000000E-03 0. -1.
    9900012    2    1    2    0    0  0.68749437351E-01  0.10360948940E+01  0.56124456370E+00  0.90007654892E+02  0.89999915136E+02 0.  0.
         12    1    1    2    0    0 -0.68749437351E-01 -0.10360948940E+01 -0.56124456370E+00  0.11803451083E+01  0.00000000000E+00 0. -1.
         11    1    3    3    0    0 -0.10439726111E+02  0.84468991309E+00  0.84030436604E+00  0.10507497039E+02  0.51100000000E-03 0. -1.
        -11    1    3    3    0    0 -0.86730812947E+01  0.26135731346E+02  0.26011509455E+02  0.37880039817E+02  0.51100000000E-03 0.  1.
         12    1    3    3    0    0  0.19181556843E+02 -0.25944326365E+02 -0.26290569257E+02  0.41620118036E+02  0.00000000000E+00 0. -1.
</event>
<event>
 7    1  0.1935465E-015  0.9000776E+02  0.7816164E-02  0.1186339E+00
        -11   -1    0    0    0    0  0.00000000000E+00  0.00000000000E+00  0.45593999997E+02  0.45594000000E+02  0.51100000000E-03 0. -1.
         11   -1    0    0    0    0 -0.00000000000E+00 -0.00000000000E+00 -0.45593999997E+02  0.45594000000E+02  0.51100000000E-03 0.  1.
    9900012    2    1    2    0    0  0.62863585451E+00 -0.38974245524E+00 -0.91972515730E+00  0.90007755710E+02  0.90000017285E+02 0.  0.
         12    1    1    2    0    0 -0.62863585451E+00  0.38974245524E+00  0.91972515730E+00  0.11802442899E+01  0.00000000000E+00 0. -1.
         11    1    3    3    0    0  0.14118686313E+01 -0.37035491417E+02 -0.42565191703E+01  0.37306017654E+02  0.51100000000E-03 0. -1.
        -11    1    3    3    0    0 -0.52968971309E+01 -0.53806984273E+01 -0.57221300667E+01  0.94737430587E+01  0.51100000000E-03 0.  1.
        -12    1    3    3    0    0  0.45136643542E+01  0.42026447389E+02  0.90589240797E+01  0.43227994997E+02  0.00000000000E+00 0.  1.
</event>
<event>
 7    1  0.1935465E-015  0.9000775E+02  0.7816164E-02  0.1186339E+00
        -11   -1    0    0    0    0  0.00000000000E+00  0.00000000000E+00  0.45593999997E+02  0.45594000000E+02  0.51100000000E-03 0.  1.
         11   -1    0    0    0    0 -0.00000000000E+00 -0.00000000000E+00 -0.45593999997E+02  0.45594000000E+02  0.51100000000E-03 0. -1.
    9900012    2    1    2    0    0 -0.79254847778E+00  0.51015334693E+00 -0.71034558467E+00  0.90007754103E+02  0.90000015657E+02 0.  0.
         12    1    1    2    0    0  0.79254847778E+00 -0.51015334693E+00  0.71034558467E+00  0.11802458967E+01  0.00000000000E+00 0. -1.
         11    1    3    3    0    0  0.48414376211E+01 -0.47318734003E+01  0.42878669305E+01  0.80134853335E+01  0.51100000000E-03 0. -1.
        -11    1    3    3    0    0 -0.13558062085E+02  0.40284641500E+01  0.36805106335E+02  0.39429245789E+02  0.51100000000E-03 0.  1.
         12    1    3    3    0    0  0.79240759860E+01  0.12135625972E+01 -0.41803318850E+02  0.42565022980E+02  0.00000000000E+00 0. -1.
</event>
<event>
 7    1  0.1935465E-015  0.9000773E+02  0.7816164E-02  0.1186339E+00
        -11   -1    0    0    0    0  0.00000000000E+00  0.00000000000E+00  0.45593999997E+02  0.45594000000E+02  0.51100000000E-03 0. -1.
         11   -1    0    0    0    0 -0.00000000000E+00 -0.00000000000E+00 -0.45593999997E+02  0.45594000000E+02  0.51100000000E-03 0.  1.
    9900012    2    1    2    0    0 -0.33592402780E+00 -0.29953282708E+00 -0.10910912933E+01  0.90007726694E+02  0.89999987886E+02 0.  0.
         12    1    1    2    0    0  0.33592402780E+00  0.29953282708E+00  0.10910912933E+01  0.11802733062E+01  0.00000000000E+00 0. -1.
         11    1    3    3    0    0 -0.10692581460E+02  0.15164169162E+01  0.35963479302E+02  0.37550002161E+02  0.51100000000E-03 0. -1.
        -11    1    3    3    0    0 -0.25788603234E+01  0.96034237734E+01  0.16514253703E+01  0.10079854897E+02  0.51100000000E-03 0.  1.
        -12    1    3    3    0    0  0.12935517756E+02 -0.11419373517E+02 -0.38705995966E+02  0.42377869635E+02  0.00000000000E+00 0.  1.
</event>
<event>
 7    1  0.1935465E-015  0.9000774E+02  0.7816164E-02  0.1186339E+00
        -11   -1    0    0    0    0  0.00000000000E+00  0.00000000000E+00  0.45593999997E+02  0.45594000000E+02  0.51100000000E-03 0.  1.
         11   -1    0    0    0    0 -0.00000000000E+00 -0.00000000000E+00 -0.45593999997E+02  0.45594000000E+02  0.51100000000E-03 0. -1.
    9900012    2    1    2    0    0 -0.51805524246E+00  0.17391341242E+00  0.10461288618E+01  0.90007740408E+02  0.90000001781E+02 0.  0.
         12    1    1    2    0    0  0.51805524246E+00 -0.17391341242E+00 -0.10461288618E+01  0.11802595921E+01  0.00000000000E+00 0. -1.
         11    1    3    3    0    0 -0.69832786564E+01  0.16608268564E+02  0.36483657795E+01  0.18382364881E+02  0.51100000000E-03 0. -1.
        -11    1    3    3    0    0 -0.58897476336E+01  0.13593156668E+02  0.24966213231E+02  0.29030584540E+02  0.51100000000E-03 0.  1.
         12    1    3    3    0    0  0.12354971048E+02 -0.30027511820E+02 -0.27568450148E+02  0.42594790987E+02  0.00000000000E+00 0. -1.
</event>
<event>
 7    1  0.1935465E-015  0.9000773E+02  0.7816164E-02  0.1186339E+00
        -11   -1    0    0    0    0  0.00000000000E+00  0.00000000000E+00  0.45593999997E+02  0.45594000000E+02  0.51100000000E-03 0.  1.
         11   -1    0    0    0    0 -0.00000000000E+00 -0.00000000000E+00 -0.45593999997E+02  0.45594000000E+02  0.51100000000E-03 0. -1.
    9900012    2    1    2    0    0  0.46349193904E+00 -0.10714912170E+01 -0.17351722948E+00  0.90007734591E+02  0.89999995888E+02 0.  0.
         12    1    1    2    0    0 -0.46349193904E+00  0.10714912170E+01  0.17351722948E+00  0.11802654086E+01  0.00000000000E+00 0. -1.
         11    1    3    3    0    0 -0.45076896486E+01 -0.73882316042E+01  0.48043947042E+01  0.98988605880E+01  0.51100000000E-03 0. -1.
        -11    1    3    3    0    0  0.15748759043E+02 -0.90233786547E+01  0.33052664853E+02  0.37708399964E+02  0.51100000000E-03 0.  1.
         12    1    3    3    0    0 -0.10777577456E+02  0.15340119042E+02 -0.38030576786E+02  0.42400474039E+02  0.00000000000E+00 0. -1.
</event>
<event>
 7    1  0.1935465E-015  0.9000771E+02  0.7816164E-02  0.1186339E+00
        -11   -1    0    0    0    0  0.00000000000E+00  0.00000000000E+00  0.45593999997E+02  0.45594000000E+02  0.51100000000E-03 0. -1.
         11   -1    0    0    0    0 -0.00000000000E+00 -0.00000000000E+00 -0.45593999997E+02  0.45594000000E+02  0.51100000000E-03 0.  1.
    9900012    2    1    2    0    0  0.10245189681E+01  0.33872813278E+00 -0.47822534716E+00  0.90007713871E+02  0.89999974894E+02 0.  0.
         12    1    1    2    0    0 -0.10245189681E+01 -0.33872813278E+00  0.47822534716E+00  0.11802861291E+01  0.00000000000E+00 0. -1.
         11    1    3    3    0    0 -0.83158344019E+01  0.41172968838E+01  0.21919623394E+01  0.95346701352E+01  0.51100000000E-03 0. -1.
        -11    1    3    3    0    0 -0.59739801484E+01  0.36526070844E+02 -0.47037155770E+01  0.37309077054E+02  0.51100000000E-03 0.  1.
         12    1    3    3    0    0  0.15314333518E+02 -0.40304639595E+02  0.20335278904E+01  0.43163966682E+02  0.00000000000E+00 0. -1.
</event>
<event>
 7    1  0.1935465E-015  0.9000763E+02  0.7816164E-02  0.1186339E+00
        -11   -1    0    0    0    0  0.00000000000E+00  0.00000000000E+00  0.45593999997E+02  0.45594000000E+02  0.51100000000E-03 0. -1.
         11   -1    0    0    0    0 -0.00000000000E+00 -0.00000000000E+00 -0.45593999997E+02  0.45594000000E+02  0.51100000000E-03 0.  1.
    9900012    2    1    2    0    0  0.10565356501E+01 -0.52601140823E+00  0.17932837678E-01  0.90007628377E+02  0.89999888272E+02 0.  0.
         12    1    1    2    0    0 -0.10565356501E+01  0.52601140823E+00 -0.17932837678E-01  0.11803716229E+01  0.00000000000E+00 0. -1.
         11    1    3    3    0    0 -0.68920197465E+01 -0.61363222815E+01 -0.85996726141E+00  0.92678978890E+01  0.51100000000E-03 0. -1.
        -11    1    3    3    0    0 -0.15441442889E+02  0.11138189573E+02 -0.33654456893E+02  0.38666780245E+02  0.51100000000E-03 0.  1.
         12    1    3    3    0    0  0.23389998286E+02 -0.55278786997E+01  0.34532356992E+02  0.42072950243E+02  0.00000000000E+00 0. -1.
</event>
<event>
 7    1  0.1935465E-015  0.9000895E+02  0.7816164E-02  0.1186337E+00
        -11   -1    0    0    0    0  0.00000000000E+00  0.00000000000E+00  0.45593999997E+02  0.45594000000E+02  0.51100000000E-03 0. -1.
         11   -1    0    0    0    0 -0.00000000000E+00 -0.00000000000E+00 -0.45593999997E+02  0.45594000000E+02  0.51100000000E-03 0.  1.
    9900012    2    1    2    0    0  0.73360631147E+00 -0.21364205477E+00 -0.89796458849E+00  0.90008948877E+02  0.90001226194E+02 0.  0.
         12    1    1    2    0    0 -0.73360631147E+00  0.21364205477E+00  0.89796458849E+00  0.11790511227E+01  0.00000000000E+00 0. -1.
         11    1    3    3    0    0 -0.90137831118E+01  0.28291368097E+01 -0.54917121215E+01  0.10927543336E+02  0.51100000000E-03 0. -1.
        -11    1    3    3    0    0 -0.22057350838E+02 -0.28723244008E+02 -0.63402563227E+01  0.36766157303E+02  0.51100000000E-03 0.  1.
         12    1    3    3    0    0  0.31804740262E+02  0.25680465144E+02  0.10934003856E+02  0.42315248238E+02  0.00000000000E+00 0. -1.
</event>
<event>
 7    1  0.1935465E-015  0.9000773E+02  0.7816164E-02  0.1186339E+00
        -11   -1    0    0    0    0  0.00000000000E+00  0.00000000000E+00  0.45593999997E+02  0.45594000000E+02  0.51100000000E-03 0.  1.
         11   -1    0    0    0    0 -0.00000000000E+00 -0.00000000000E+00 -0.45593999997E+02  0.45594000000E+02  0.51100000000E-03 0. -1.
    9900012    2    1    2    0    0 -0.72089361950E+00  0.81556564525E+00  0.45628985704E+00  0.90007730808E+02  0.89999992054E+02 0.  0.
         12    1    1    2    0    0  0.72089361950E+00 -0.81556564525E+00 -0.45628985704E+00  0.11802691922E+01  0.00000000000E+00 0. -1.
         11    1    3    3    0    0  0.54559248868E+01  0.71409058256E+01  0.28173076569E+01  0.94179018404E+01  0.51100000000E-03 0. -1.
        -11    1    3    3    0    0 -0.31216355301E+02  0.24157905695E+02 -0.92559115786E+01  0.40543028319E+02  0.51100000000E-03 0.  1.
         12    1    3    3    0    0  0.25039536794E+02 -0.30483245876E+02  0.68948937787E+01  0.40046800649E+02  0.00000000000E+00 0. -1.
</event>
<event>
 7    1  0.1935465E-015  0.9000774E+02  0.7816164E-02  0.1186339E+00
        -11   -1    0    0    0    0  0.00000000000E+00  0.00000000000E+00  0.45593999997E+02  0.45594000000E+02  0.51100000000E-03 0.  1.
         11   -1    0    0    0    0 -0.00000000000E+00 -0.00000000000E+00 -0.45593999997E+02  0.45594000000E+02  0.51100000000E-03 0. -1.
    9900012    2    1    2    0    0 -0.23660328863E+00  0.10436748414E+01  0.49777800164E+00  0.90007736796E+02  0.89999998122E+02 0.  0.
         12    1    1    2    0    0  0.23660328863E+00 -0.10436748414E+01 -0.49777800164E+00  0.11802632036E+01  0.00000000000E+00 0. -1.
         11    1    3    3    0    0 -0.18678445911E+02 -0.24252061646E+02 -0.15484423687E+02  0.34304725810E+02  0.51100000000E-03 0. -1.
        -11    1    3    3    0    0 -0.70069272613E+01  0.19739741307E+01 -0.10091771308E+02  0.12443369797E+02  0.51100000000E-03 0.  1.
        -12    1    3    3    0    0  0.25448769884E+02  0.23321762357E+02  0.26073972996E+02  0.43259641189E+02  0.00000000000E+00 0.  1.
</event>
<event>
 7    1  0.1935465E-015  0.9000773E+02  0.7816164E-02  0.1186339E+00
        -11   -1    0    0    0    0  0.00000000000E+00  0.00000000000E+00  0.45593999997E+02  0.45594000000E+02  0.51100000000E-03 0. -1.
         11   -1    0    0    0    0 -0.00000000000E+00 -0.00000000000E+00 -0.45593999997E+02  0.45594000000E+02  0.51100000000E-03 0.  1.
    9900012    2    1    2    0    0 -0.10452169953E+01 -0.54818631649E+00  0.72214672719E-02  0.90007729288E+02  0.89999990514E+02 0.  0.
         12    1    1    2    0    0  0.10452169953E+01  0.54818631649E+00 -0.72214672719E-02  0.11802707124E+01  0.00000000000E+00 0. -1.
         11    1    3    3    0    0  0.14883510025E+02 -0.12540482470E+01 -0.67852518776E+01  0.16405217188E+02  0.51100000000E-03 0. -1.
        -11    1    3    3    0    0  0.14232359433E+02 -0.26276478358E+02  0.13129436550E+02  0.32640396357E+02  0.51100000000E-03 0.  1.
         12    1    3    3    0    0 -0.30161086454E+02  0.26982340289E+02 -0.63369632048E+01  0.40962115743E+02  0.00000000000E+00 0. -1.
</event>
<event>
 7    1  0.2123103E-015  0.9000773E+02  0.7816164E-02  0.1186339E+00
        -11   -1    0    0    0    0  0.00000000000E+00  0.00000000000E+00  0.45593999997E+02  0.45594000000E+02  0.51100000000E-03 0. -1.
         11   -1    0    0    0    0 -0.00000000000E+00 -0.00000000000E+00 -0.45593999997E+02  0.45594000000E+02  0.51100000000E-03 0.  1.
    9900012    2    1    2    0    0  0.50386443375E-01 -0.85776566808E+00 -0.80915742827E+00  0.90007730336E+02  0.89999991577E+02 0.  0.
         12    1    1    2    0    0 -0.50386443375E-01  0.85776566808E+00  0.80915742827E+00  0.11802696636E+01  0.00000000000E+00 0. -1.
         11    1    3    3    0    0  0.48551961094E+01  0.62492139162E+01 -0.43846862744E+01  0.90471585493E+01  0.51100000000E-03 0. -1.
        -11    1    3    3    0    0  0.25495061986E+02  0.18448127863E+02 -0.17562861552E+02  0.36038669697E+02  0.51100000000E-03 0.  1.
         12    1    3    3    0    0 -0.30299871652E+02 -0.25555107448E+02  0.21138390398E+02  0.44921902090E+02  0.00000000000E+00 0. -1.
</event>
<event>
 7    1  0.1935465E-015  0.9000798E+02  0.7816164E-02  0.1186339E+00
        -11   -1    0    0    0    0  0.00000000000E+00  0.00000000000E+00  0.45593999997E+02  0.45594000000E+02  0.51100000000E-03 0.  1.
         11   -1    0    0    0    0 -0.00000000000E+00 -0.00000000000E+00 -0.45593999997E+02  0.45594000000E+02  0.51100000000E-03 0. -1.
    9900012    2    1    2    0    0  0.92014785702E+00  0.28080355002E+00  0.68332685996E+00  0.90007975293E+02  0.90000239766E+02 0.  0.
         12    1    1    2    0    0 -0.92014785702E+00 -0.28080355002E+00 -0.68332685996E+00  0.11800247074E+01  0.00000000000E+00 0. -1.
         11    1    3    3    0    0 -0.40665577746E+01 -0.92861283363E+01  0.32063568410E+01  0.10632487765E+02  0.51100000000E-03 0. -1.
        -11    1    3    3    0    0 -0.39557907005E+01 -0.20211436507E+02  0.28691548287E+02  0.35317918811E+02  0.51100000000E-03 0.  1.
         12    1    3    3    0    0  0.89424963321E+01  0.29778368394E+02 -0.31214578268E+02  0.44057568717E+02  0.00000000000E+00 0. -1.
</event>
<event>
 7    1  0.1935465E-015  0.9000775E+02  0.7816164E-02  0.1186339E+00
        -11   -1    0    0    0    0  0.00000000000E+00  0.00000000000E+00  0.45593999997E+02  0.45594000000E+02  0.51100000000E-03 0. -1.
         11   -1    0    0    0    0 -0.00000000000E+00 -0.00000000000E+00 -0.45593999997E+02  0.45594000000E+02  0.51100000000E-03 0.  1.
    9900012    2    1    2    0    0 -0.47332969871E+00  0.75569650424E+00 -0.77321772379E+00  0.90007752628E+02  0.90000014163E+02 0.  0.
         12    1    1    2    0    0  0.47332969871E+00 -0.75569650424E+00  0.77321772379E+00  0.11802473718E+01  0.00000000000E+00 0. -1.
         11    1    3    3    0    0  0.30089570674E+01  0.18226377897E+01 -0.11260250480E+02  0.11796994205E+02  0.51100000000E-03 0. -1.
        -11    1    3    3    0    0  0.11784902906E+02 -0.21286527806E+00 -0.31442961314E+02  0.33579592978E+02  0.51100000000E-03 0.  1.
         12    1    3    3    0    0 -0.15267189672E+02 -0.85407600739E+00  0.41929994070E+02  0.44631165445E+02  0.00000000000E+00 0. -1.
</event>
<event>
 7    1  0.1935465E-015  0.9000776E+02  0.7816164E-02  0.1186339E+00
        -11   -1    0    0    0    0  0.00000000000E+00  0.00000000000E+00  0.45593999997E+02  0.45594000000E+02  0.51100000000E-03 0. -1.
         11   -1    0    0    0    0 -0.00000000000E+00 -0.00000000000E+00 -0.45593999997E+02  0.45594000000E+02  0.51100000000E-03 0.  1.
    9900012    2    1    2    0    0 -0.67180984297E+00 -0.65166941598E+00 -0.71899611680E+00  0.90007764045E+02  0.90000025731E+02 0.  0.
         12    1    1    2    0    0  0.67180984297E+00  0.65166941598E+00  0.71899611680E+00  0.11802359547E+01  0.00000000000E+00 0. -1.
         11    1    3    3    0    0  0.86152691382E+01  0.27410695237E+02  0.24110027320E+02  0.37508165689E+02  0.51100000000E-03 0. -1.
        -11    1    3    3    0    0 -0.47944592353E+01  0.82982401699E+01 -0.60038005865E+01  0.11308989832E+02  0.51100000000E-03 0.  1.
        -12    1    3    3    0    0 -0.44926197459E+01 -0.36360604823E+02 -0.18825222850E+02  0.41190608525E+02  0.00000000000E+00 0.  1.
</event>
<event>
 7    1  0.1935465E-015  0.9000767E+02  0.7816164E-02  0.1186339E+00
        -11   -1    0    0    0    0  0.00000000000E+00  0.00000000000E+00  0.45593999997E+02  0.45594000000E+02  0.51100000000E-03 0.  1.
         11   -1    0    0    0    0 -0.00000000000E+00 -0.00000000000E+00 -0.45593999997E+02  0.45594000000E+02  0.51100000000E-03 0. -1.
    9900012    2    1    2    0    0 -0.56137675174E+00 -0.33828489073E+00  0.98162476688E+00  0.90007674745E+02  0.89999935252E+02 0.  0.
         12    1    1    2    0    0  0.56137675174E+00  0.33828489073E+00 -0.98162476688E+00  0.11803252550E+01  0.00000000000E+00 0. -1.
         11    1    3    3    0    0 -0.19238957077E+02 -0.31531963131E+02  0.84985484360E+01  0.37902869206E+02  0.51100000000E-03 0. -1.
        -11    1    3    3    0    0 -0.88891170315E+01 -0.10158849469E+01  0.48765017279E+00  0.89602581870E+01  0.51100000000E-03 0.  1.
        -12    1    3    3    0    0  0.27566697356E+02  0.32209563187E+02 -0.80045738419E+01  0.43144547352E+02  0.00000000000E+00 0.  1.
</event>
<event>
 7    1  0.1935465E-015  0.9000856E+02  0.7816164E-02  0.1186337E+00
        -11   -1    0    0    0    0  0.00000000000E+00  0.00000000000E+00  0.45593999997E+02  0.45594000000E+02  0.51100000000E-03 0.  1.
         11   -1    0    0    0    0 -0.00000000000E+00 -0.00000000000E+00 -0.45593999997E+02  0.45594000000E+02  0.51100000000E-03 0. -1.
    9900012    2    1    2    0    0 -0.73865204974E+00 -0.88982327857E+00 -0.23168382164E+00  0.90008563817E+02  0.90000836055E+02 0.  0.
         12    1    1    2    0    0  0.73865204974E+00  0.88982327857E+00  0.23168382164E+00  0.11794361835E+01  0.00000000000E+00 0. -1.
         11    1    3    3    0    0 -0.17250485015E+02  0.27951897719E+02 -0.33312065684E+01  0.33014917187E+02  0.51100000000E-03 0. -1.
        -11    1    3    3    0    0 -0.12949905196E+02  0.27968082835E+01 -0.22289953219E+01  0.13434679064E+02  0.51100000000E-03 0.  1.
        -12    1    3    3    0    0  0.29461738161E+02 -0.31638529282E+02  0.53285180687E+01  0.43558967566E+02  0.00000000000E+00 0.  1.
</event>
<event>
 7    1  0.1935465E-015  0.9000707E+02  0.7816164E-02  0.1186340E+00
        -11   -1    0    0    0    0  0.00000000000E+00  0.00000000000E+00  0.45593999997E+02  0.45594000000E+02  0.51100000000E-03 0.  1.
         11   -1    0    0    0    0 -0.00000000000E+00 -0.00000000000E+00 -0.45593999997E+02  0.45594000000E+02  0.51100000000E-03 0. -1.
    9900012    2    1    2    0    0 -0.39392252259E+00  0.10941660356E+01  0.20545959368E+00  0.90007073283E+02  0.89999325847E+02 0.  0.
         12    1    1    2    0    0  0.39392252259E+00 -0.10941660356E+01 -0.20545959368E+00  0.11809267174E+01  0.00000000000E+00 0. -1.
         11    1    3    3    0    0  0.56119312212E+01 -0.71032752678E+01  0.65498361973E+01  0.11173658579E+02  0.51100000000E-03 0. -1.
        -11    1    3    3    0    0  0.26198929248E+02 -0.19694102049E+02  0.82521007708E+01  0.33798501693E+02  0.51100000000E-03 0.  1.
         12    1    3    3    0    0 -0.32204782992E+02  0.27891543353E+02 -0.14596477374E+02  0.45034913011E+02  0.00000000000E+00 0. -1.
</event>
<event>
 7    1  0.1935465E-015  0.9000777E+02  0.7816164E-02  0.1186339E+00
        -11   -1    0    0    0    0  0.00000000000E+00  0.00000000000E+00  0.45593999997E+02  0.45594000000E+02  0.51100000000E-03 0. -1.
         11   -1    0    0    0    0 -0.00000000000E+00 -0.00000000000E+00 -0.45593999997E+02  0.45594000000E+02  0.51100000000E-03 0.  1.
    9900012    2    1    2    0    0  0.58671115524E+00  0.10127919716E+01 -0.15154208863E+00  0.90007770123E+02  0.90000031889E+02 0.  0.
         12    1    1    2    0    0 -0.58671115524E+00 -0.10127919716E+01  0.15154208863E+00  0.11802298768E+01  0.00000000000E+00 0. -1.
         11    1    3    3    0    0 -0.17143533196E+02  0.34553032529E+02  0.13955673382E+02  0.41019185842E+02  0.51100000000E-03 0. -1.
        -11    1    3    3    0    0 -0.37633119821E+01 -0.76303554019E+01  0.54035801194E+01  0.10078864966E+02  0.51100000000E-03 0.  1.
        -12    1    3    3    0    0  0.21493556333E+02 -0.25909885155E+02 -0.19510795590E+02  0.38909719315E+02  0.00000000000E+00 0.  1.
</event>
<event>
 7    1  0.1935465E-015  0.9000775E+02  0.7816164E-02  0.1186339E+00
        -11   -1    0    0    0    0  0.00000000000E+00  0.00000000000E+00  0.45593999997E+02  0.45594000000E+02  0.51100000000E-03 0.  1.
         11   -1    0    0    0    0 -0.00000000000E+00 -0.00000000000E+00 -0.45593999997E+02  0.45594000000E+02  0.51100000000E-03 0. -1.
    9900012    2    1    2    0    0 -0.11547546705E+01 -0.15655960723E+00 -0.18716518966E+00  0.90007745761E+02  0.90000007205E+02 0.  0.
         12    1    1    2    0    0  0.11547546705E+01  0.15655960723E+00  0.18716518966E+00  0.11802542387E+01  0.00000000000E+00 0. -1.
         11    1    3    3    0    0  0.11070398150E+02 -0.32019250671E+02 -0.56418114100E+01  0.34345540686E+02  0.51100000000E-03 0. -1.
        -11    1    3    3    0    0 -0.71328682751E+01 -0.96084431391E+01 -0.43708506390E+01  0.12739871465E+02  0.51100000000E-03 0.  1.
        -12    1    3    3    0    0 -0.50922845452E+01  0.41471134203E+02  0.98254968594E+01  0.42922333610E+02  0.00000000000E+00 0.  1.
</event>
<event>
 7    1  0.1935465E-015  0.9000777E+02  0.7816164E-02  0.1186339E+00
        -11   -1    0    0    0    0  0.00000000000E+00  0.00000000000E+00  0.45593999997E+02  0.45594000000E+02  0.51100000000E-03 0. -1.
         11   -1    0    0    0    0 -0.00000000000E+00 -0.00000000000E+00 -0.45593999997E+02  0.45594000000E+02  0.51100000000E-03 0.  1.
    9900012    2    1    2    0    0  0.96714545254E+00  0.66829473768E+00 -0.10462296133E+00  0.90007773688E+02  0.90000035501E+02 0.  0.
         12    1    1    2    0    0 -0.96714545254E+00 -0.66829473768E+00  0.10462296133E+00  0.11802263117E+01  0.00000000000E+00 0. -1.
         11    1    3    3    0    0 -0.14639953817E+02 -0.29808025464E+02  0.10552024149E+02  0.34845255684E+02  0.51100000000E-03 0. -1.
        -11    1    3    3    0    0 -0.35413138641E+01 -0.76148540956E+01  0.49665912418E+01  0.97567379592E+01  0.51100000000E-03 0.  1.
        -12    1    3    3    0    0  0.19148413134E+02  0.38091174297E+02 -0.15623238352E+02  0.45405780045E+02  0.00000000000E+00 0.  1.
</event>
<event>
 7    1  0.2080049E-015  0.9000770E+02  0.7816164E-02  0.1186339E+00
        -11   -1    0    0    0    0  0.00000000000E+00  0.00000000000E+00  0.45593999997E+02  0.45594000000E+02  0.51100000000E-03 0.  1.
         11   -1    0    0    0    0 -0.00000000000E+00 -0.00000000000E+00 -0.45593999997E+02  0.45594000000E+02  0.51100000000E-03 0. -1.
    9900012    2    1    2    0    0  0.10950695153E+00  0.17126050170E+00 -0.11626658328E+01  0.90007697594E+02  0.89999958402E+02 0.  0.
         12    1    1    2    0    0 -0.10950695153E+00 -0.17126050170E+00  0.11626658328E+01  0.11803024064E+01  0.00000000000E+00 0. -1.
         11    1    3    3    0    0 -0.26886523425E+01 -0.86283673133E+01  0.44686752571E+01  0.10081995473E+02  0.51100000000E-03 0. -1.
        -11    1    3    3    0    0 -0.26280174959E+02 -0.18243803103E+02 -0.19961852186E+02  0.37708878139E+02  0.51100000000E-03 0.  1.
         12    1    3    3    0    0  0.29078334253E+02  0.27043430918E+02  0.14330511096E+02  0.42216823981E+02  0.00000000000E+00 0. -1.
</event>
<event>
 7    1  0.1935465E-015  0.9000775E+02  0.7816164E-02  0.1186339E+00
        -11   -1    0    0    0    0  0.00000000000E+00  0.00000000000E+00  0.45593999997E+02  0.45594000000E+02  0.51100000000E-03 0.  1.
         11   -1    0    0    0    0 -0.00000000000E+00 -0.00000000000E+00 -0.45593999997E+02  0.45594000000E+02  0.51100000000E-03 0. -1.
    9900012    2    1    2    0    0  0.10652823171E+01  0.26966010159E+00  0.43064336416E+00  0.90007747191E+02  0.90000008654E+02 0.  0.
         12    1    1    2    0    0 -0.10652823171E+01 -0.26966010159E+00 -0.43064336416E+00  0.11802528088E+01  0.00000000000E+00 0. -1.
         11    1    3    3    0    0 -0.64475433565E+01 -0.71925270539E+01  0.54971404042E+01  0.11114036784E+02  0.51100000000E-03 0. -1.
        -11    1    3    3    0    0  0.32161863660E+02  0.24018377031E+02  0.15223351528E+02  0.42930389485E+02  0.51100000000E-03 0.  1.
         12    1    3    3    0    0 -0.24649037986E+02 -0.16556189876E+02 -0.20289848568E+02  0.35963320922E+02  0.00000000000E+00 0. -1.
</event>
<event>
 7    1  0.1935465E-015  0.9000778E+02  0.7816164E-02  0.1186339E+00
        -11   -1    0    0    0    0  0.00000000000E+00  0.00000000000E+00  0.45593999997E+02  0.45594000000E+02  0.51100000000E-03 0. -1.
         11   -1    0    0    0    0 -0.00000000000E+00 -0.00000000000E+00 -0.45593999997E+02  0.45594000000E+02  0.51100000000E-03 0.  1.
    9900012    2    1    2    0    0  0.60111354943E+00  0.29735660054E+00 -0.97116584604E+00  0.90007779026E+02  0.90000040909E+02 0.  0.
         12    1    1    2    0    0 -0.60111354943E+00 -0.29735660054E+00  0.97116584604E+00  0.11802209741E+01  0.00000000000E+00 0. -1.
         11    1    3    3    0    0 -0.20632864338E+02  0.13390686581E+02  0.26046524926E+02  0.35825229083E+02  0.51100000000E-03 0. -1.
        -11    1    3    3    0    0 -0.69091174373E+01  0.49727537531E+01  0.32155528188E+01  0.90996683370E+01  0.51100000000E-03 0.  1.
        -12    1    3    3    0    0  0.28143095324E+02 -0.18066083733E+02 -0.30233243591E+02  0.45082881606E+02  0.00000000000E+00 0.  1.
</event>
<event>
 7    1  0.1935465E-015  0.9000773E+02  0.7816164E-02  0.1186339E+00
        -11   -1    0    0    0    0  0.00000000000E+00  0.00000000000E+00  0.45593999997E+02  0.45594000000E+02  0.51100000000E-03 0.  1.
         11   -1    0    0    0    0 -0.00000000000E+00 -0.00000000000E+00 -0.45593999997E+02  0.45594000000E+02  0.51100000000E-03 0. -1.
    9900012    2    1    2    0    0 -0.84185097190E+00  0.78761371013E+00 -0.25294539572E+00  0.90007733171E+02  0.89999994448E+02 0.  0.
         12    1    1    2    0    0  0.84185097190E+00 -0.78761371013E+00  0.25294539572E+00  0.11802668294E+01  0.00000000000E+00 0. -1.
         11    1    3    3    0    0  0.28819143991E+01 -0.80394900957E+01 -0.42785263949E+01  0.95522049797E+01  0.51100000000E-03 0. -1.
        -11    1    3    3    0    0 -0.36141238868E+02 -0.15740408687E+02  0.52120141818E+01  0.39763233076E+02  0.51100000000E-03 0.  1.
         12    1    3    3    0    0  0.32417473497E+02  0.24567512493E+02 -0.11864331826E+01  0.40692295115E+02  0.00000000000E+00 0. -1.
</event>
<event>
 7    1  0.1935465E-015  0.9000771E+02  0.7816164E-02  0.1186339E+00
        -11   -1    0    0    0    0  0.00000000000E+00  0.00000000000E+00  0.45593999997E+02  0.45594000000E+02  0.51100000000E-03 0.  1.
         11   -1    0    0    0    0 -0.00000000000E+00 -0.00000000000E+00 -0.45593999997E+02  0.45594000000E+02  0.51100000000E-03 0. -1.
    9900012    2    1    2    0    0  0.10186803630E+01  0.51412731295E+00 -0.30172638191E+00  0.90007713854E+02  0.89999974877E+02 0.  0.
         12    1    1    2    0    0 -0.10186803630E+01 -0.51412731295E+00  0.30172638191E+00  0.11802861456E+01  0.00000000000E+00 0. -1.
         11    1    3    3    0    0 -0.28297255970E+02 -0.16931777536E+02 -0.14408427343E+02  0.35986421950E+02  0.51100000000E-03 0. -1.
        -11    1    3    3    0    0 -0.48512901108E+01 -0.22200209583E+01 -0.73930773933E+01  0.91170775142E+01  0.51100000000E-03 0.  1.
        -12    1    3    3    0    0  0.34167226444E+02  0.19665925807E+02  0.21499778355E+02  0.44904214391E+02  0.00000000000E+00 0.  1.
</event>
<event>
 7    1  0.1935465E-015  0.9000768E+02  0.7816164E-02  0.1186339E+00
        -11   -1    0    0    0    0  0.00000000000E+00  0.00000000000E+00  0.45593999997E+02  0.45594000000E+02  0.51100000000E-03 0.  1.
         11   -1    0    0    0    0 -0.00000000000E+00 -0.00000000000E+00 -0.45593999997E+02  0.45594000000E+02  0.51100000000E-03 0. -1.
    9900012    2    1    2    0    0 -0.10224800697E+01  0.58296253339E+00 -0.88597038324E-01  0.90007677907E+02  0.89999938455E+02 0.  0.
         12    1    1    2    0    0  0.10224800697E+01 -0.58296253339E+00  0.88597038324E-01  0.11803220931E+01  0.00000000000E+00 0. -1.
         11    1    3    3    0    0  0.10812931368E+02 -0.68991714869E+00 -0.41759934030E+00  0.10842963613E+02  0.51100000000E-03 0. -1.
        -11    1    3    3    0    0 -0.21924080434E+02  0.32711271056E+02  0.16138360287E+02  0.42557481481E+02  0.51100000000E-03 0.  1.
         12    1    3    3    0    0  0.10088668996E+02 -0.31438391374E+02 -0.15809357985E+02  0.36607232813E+02  0.00000000000E+00 0. -1.
</event>
<event>
 7    1  0.1935465E-015  0.9000770E+02  0.7816164E-02  0.1186339E+00
        -11   -1    0    0    0    0  0.00000000000E+00  0.00000000000E+00  0.45593999997E+02  0.45594000000E+02  0.51100000000E-03 0. -1.
         11   -1    0    0    0    0 -0.00000000000E+00 -0.00000000000E+00 -0.45593999997E+02  0.45594000000E+02  0.51100000000E-03 0.  1.
    9900012    2    1    2    0    0 -0.84130688508E+00 -0.26437560103E+00 -0.78448097792E+00  0.90007702521E+02  0.89999963395E+02 0.  0.
         12    1    1    2    0    0  0.84130688508E+00  0.26437560103E+00  0.78448097792E+00  0.11802974786E+01  0.00000000000E+00 0. -1.
         11    1    3    3    0    0 -0.22291463462E+02  0.90506891534E+01 -0.27598295835E+01  0.24216543457E+02  0.51100000000E-03 0. -1.
        -11    1    3    3    0    0 -0.12385589960E+02 -0.15933405223E+02 -0.17044600819E+02  0.26415803187E+02  0.51100000000E-03 0.  1.
         12    1    3    3    0    0  0.33835746537E+02  0.66183404686E+01  0.19019949425E+02  0.39375355877E+02  0.00000000000E+00 0. -1.
</event>
<event>
 7    1  0.1935465E-015  0.9000777E+02  0.7816164E-02  0.1186339E+00
        -11   -1    0    0    0    0  0.00000000000E+00  0.00000000000E+00  0.45593999997E+02  0.45594000000E+02  0.51100000000E-03 0. -1.
         11   -1    0    0    0    0 -0.00000000000E+00 -0.00000000000E+00 -0.45593999997E+02  0.45594000000E+02  0.51100000000E-03 0.  1.
    9900012    2    1    2    0    0 -0.76582572621E+00 -0.40180986863E+00 -0.80311687550E+00  0.90007772510E+02  0.90000034307E+02 0.  0.
         12    1    1    2    0    0  0.76582572621E+00  0.40180986863E+00  0.80311687550E+00  0.11802274904E+01  0.00000000000E+00 0. -1.
         11    1    3    3    0    0  0.39913252549E+01  0.79831511496E+01  0.20062194383E+01  0.91480214398E+01  0.51100000000E-03 0. -1.
        -11    1    3    3    0    0  0.15429098518E+02 -0.37778216757E+02  0.11564163726E+02  0.42414391725E+02  0.51100000000E-03 0.  1.
         12    1    3    3    0    0 -0.20186249499E+02  0.29393255739E+02 -0.14373500040E+02  0.38445359345E+02  0.00000000000E+00 0. -1.
</event>
<event>
 7    1  0.2003655E-015  0.9000772E+02  0.7816164E-02  0.1186339E+00
        -11   -1    0    0    0    0  0.00000000000E+00  0.00000000000E+00  0.45593999997E+02  0.45594000000E+02  0.51100000000E-03 0.  1.
         11   -1    0    0    0    0 -0.00000000000E+00 -0.00000000000E+00 -0.45593999997E+02  0.45594000000E+02  0.51100000000E-03 0. -1.
    9900012    2    1    2    0    0  0.23058740575E+00 -0.11542168420E+01 -0.87639961841E-01  0.90007717054E+02  0.89999978119E+02 0.  0.
         12    1    1    2    0    0 -0.23058740575E+00  0.11542168420E+01  0.87639961841E-01  0.11802829461E+01  0.00000000000E+00 0. -1.
         11    1    3    3    0    0 -0.51034972556E+01  0.27380020937E+01  0.75753724891E+01  0.95356493388E+01  0.51100000000E-03 0. -1.
        -11    1    3    3    0    0 -0.48078589703E+01  0.56567874618E+01  0.34903464480E+02  0.35684262431E+02  0.51100000000E-03 0.  1.
         12    1    3    3    0    0  0.10141943632E+02 -0.95490063974E+01 -0.42566476931E+02  0.44787805284E+02  0.00000000000E+00 0. -1.
</event>
<event>
 7    1  0.1935465E-015  0.9000770E+02  0.7816164E-02  0.1186339E+00
        -11   -1    0    0    0    0  0.00000000000E+00  0.00000000000E+00  0.45593999997E+02  0.45594000000E+02  0.51100000000E-03 0.  1.
         11   -1    0    0    0    0 -0.00000000000E+00 -0.00000000000E+00 -0.45593999997E+02  0.45594000000E+02  0.51100000000E-03 0. -1.
    9900012    2    1    2    0    0  0.84972449532E+00  0.81919296260E+00 -0.70790290384E-03  0.90007699475E+02  0.89999960308E+02 0.  0.
         12    1    1    2    0    0 -0.84972449532E+00 -0.81919296260E+00  0.70790290383E-03  0.11803005249E+01  0.00000000000E+00 0. -1.
         11    1    3    3    0    0  0.27612677265E+02 -0.21379912820E+02 -0.12364706714E+02  0.37046546267E+02  0.51100000000E-03 0. -1.
        -11    1    3    3    0    0  0.76660961977E+01  0.71691305050E+01 -0.49403541770E+01  0.11600541486E+02  0.51100000000E-03 0.  1.
        -12    1    3    3    0    0 -0.34429048968E+02  0.15029975278E+02  0.17304352988E+02  0.41360611722E+02  0.00000000000E+00 0.  1.
</event>
<event>
 7    1  0.1935465E-015  0.9000785E+02  0.7816164E-02  0.1186339E+00
        -11   -1    0    0    0    0  0.00000000000E+00  0.00000000000E+00  0.45593999997E+02  0.45594000000E+02  0.51100000000E-03 0.  1.
         11   -1    0    0    0    0 -0.00000000000E+00 -0.00000000000E+00 -0.45593999997E+02  0.45594000000E+02  0.51100000000E-03 0. -1.
    9900012    2    1    2    0    0 -0.15393489600E+00  0.92117937441E+00 -0.72145358230E+00  0.90007846339E+02  0.90000109111E+02 0.  0.
         12    1    1    2    0    0  0.15393489600E+00 -0.92117937441E+00  0.72145358230E+00  0.11801536610E+01  0.00000000000E+00 0. -1.
         11    1    3    3    0    0  0.73006998509E+01  0.52694813452E-01  0.67965773753E+01  0.99747911926E+01  0.51100000000E-03 0. -1.
        -11    1    3    3    0    0  0.34275949144E+02  0.10984069254E+02  0.20119546888E+01  0.36049111349E+02  0.51100000000E-03 0.  1.
         12    1    3    3    0    0 -0.41730583891E+02 -0.10115584693E+02 -0.95299856465E+01  0.43983943798E+02  0.00000000000E+00 0. -1.
</event>
<event>
 7    1  0.1935465E-015  0.9000773E+02  0.7816164E-02  0.1186339E+00
        -11   -1    0    0    0    0  0.00000000000E+00  0.00000000000E+00  0.45593999997E+02  0.45594000000E+02  0.51100000000E-03 0.  1.
         11   -1    0    0    0    0 -0.00000000000E+00 -0.00000000000E+00 -0.45593999997E+02  0.45594000000E+02  0.51100000000E-03 0. -1.
    9900012    2    1    2    0    0 -0.10668526421E+01 -0.38663213570E+00 -0.32460664810E+00  0.90007733740E+02  0.89999995025E+02 0.  0.
         12    1    1    2    0    0  0.10668526421E+01  0.38663213570E+00  0.32460664810E+00  0.11802662599E+01  0.00000000000E+00 0. -1.
         11    1    3    3    0    0  0.16630290623E+02  0.37671165282E+02  0.59922319571E+01  0.41612379216E+02  0.51100000000E-03 0. -1.
        -11    1    3    3    0    0 -0.12183572313E+01 -0.50406018632E+01  0.73924850885E+01  0.90299998633E+01  0.51100000000E-03 0.  1.
        -12    1    3    3    0    0 -0.16478786034E+02 -0.33017195555E+02 -0.13709323694E+02  0.39365354661E+02  0.00000000000E+00 0.  1.
</event>
<event>
 7    1  0.1935465E-015  0.9000773E+02  0.7816164E-02  0.1186339E+00
        -11   -1    0    0    0    0  0.00000000000E+00  0.00000000000E+00  0.45593999997E+02  0.45594000000E+02  0.51100000000E-03 0. -1.
         11   -1    0    0    0    0 -0.00000000000E+00 -0.00000000000E+00 -0.45593999997E+02  0.45594000000E+02  0.51100000000E-03 0.  1.
    9900012    2    1    2    0    0 -0.46742756497E+00 -0.99891015117E+00 -0.42039311721E+00  0.90007728679E+02  0.89999989897E+02 0.  0.
         12    1    1    2    0    0  0.46742756497E+00  0.99891015117E+00  0.42039311721E+00  0.11802713212E+01  0.00000000000E+00 0. -1.
         11    1    3    3    0    0  0.11453059922E+02  0.65325244884E+01  0.39418462368E+01  0.13761708099E+02  0.51100000000E-03 0. -1.
        -11    1    3    3    0    0  0.31100833100E+02 -0.10927058309E+02 -0.16560601621E+01  0.33006135162E+02  0.51100000000E-03 0.  1.
         12    1    3    3    0    0 -0.43021320587E+02  0.33956236696E+01 -0.27061791919E+01  0.43239885418E+02  0.00000000000E+00 0. -1.
</event>
<event>
 7    1  0.1935465E-015  0.9000773E+02  0.7816164E-02  0.1186339E+00
        -11   -1    0    0    0    0  0.00000000000E+00  0.00000000000E+00  0.45593999997E+02  0.45594000000E+02  0.51100000000E-03 0.  1.
         11   -1    0    0    0    0 -0.00000000000E+00 -0.00000000000E+00 -0.45593999997E+02  0.45594000000E+02  0.51100000000E-03 0. -1.
    9900012    2    1    2    0    0  0.72233828780E+00  0.73906326028E+00 -0.57013820585E+00  0.90007726863E+02  0.89999988057E+02 0.  0.
         12    1    1    2    0    0 -0.72233828780E+00 -0.73906326028E+00  0.57013820585E+00  0.11802731372E+01  0.00000000000E+00 0. -1.
         11    1    3    3    0    0 -0.47826457300E+01 -0.14272043783E+02  0.53871824632E+01  0.15987078191E+02  0.51100000000E-03 0. -1.
        -11    1    3    3    0    0 -0.16693150177E+02 -0.22827221983E+02 -0.99290474733E+01  0.29972142238E+02  0.51100000000E-03 0.  1.
         12    1    3    3    0    0  0.22198134195E+02  0.37838329027E+02  0.39717268042E+01  0.44048506434E+02  0.00000000000E+00 0. -1.
</event>
<event>
 7    1  0.1935465E-015  0.9000761E+02  0.7816164E-02  0.1186339E+00
        -11   -1    0    0    0    0  0.00000000000E+00  0.00000000000E+00  0.45593999997E+02  0.45594000000E+02  0.51100000000E-03 0.  1.
         11   -1    0    0    0    0 -0.00000000000E+00 -0.00000000000E+00 -0.45593999997E+02  0.45594000000E+02  0.51100000000E-03 0. -1.
    9900012    2    1    2    0    0 -0.11096649114E+01 -0.36233578869E+00 -0.17512686590E+00  0.90007613259E+02  0.89999872954E+02 0.  0.
         12    1    1    2    0    0  0.11096649114E+01  0.36233578869E+00  0.17512686590E+00  0.11803867411E+01  0.00000000000E+00 0. -1.
         11    1    3    3    0    0  0.65243852022E+01 -0.33185060730E+01  0.59091464447E+01  0.94073427061E+01  0.51100000000E-03 0. -1.
        -11    1    3    3    0    0 -0.13720132190E+02  0.10473524227E+02  0.34661886499E+02  0.38721868666E+02  0.51100000000E-03 0.  1.
         12    1    3    3    0    0  0.60860820759E+01 -0.75173539429E+01 -0.40746159810E+02  0.41878401887E+02  0.00000000000E+00 0. -1.
</event>
<event>
 7    1  0.1935465E-015  0.9000777E+02  0.7816164E-02  0.1186339E+00
        -11   -1    0    0    0    0  0.00000000000E+00  0.00000000000E+00  0.45593999997E+02  0.45594000000E+02  0.51100000000E-03 0.  1.
         11   -1    0    0    0    0 -0.00000000000E+00 -0.00000000000E+00 -0.45593999997E+02  0.45594000000E+02  0.51100000000E-03 0. -1.
    9900012    2    1    2    0    0 -0.56375080430E+00 -0.93349282688E+00  0.45135432860E+00  0.90007769278E+02  0.90000031032E+02 0.  0.
         12    1    1    2    0    0  0.56375080430E+00  0.93349282688E+00 -0.45135432860E+00  0.11802307220E+01  0.00000000000E+00 0. -1.
         11    1    3    3    0    0 -0.14638944484E+02  0.38068786761E+02  0.58540513441E+00  0.40790610690E+02  0.51100000000E-03 0. -1.
        -11    1    3    3    0    0  0.46308277922E+01  0.18949543879E+01 -0.48637899772E+01  0.69779561031E+01  0.51100000000E-03 0.  1.
        -12    1    3    3    0    0  0.94443658872E+01 -0.40897233976E+02  0.47297391714E+01  0.42239202484E+02  0.00000000000E+00 0.  1.
</event>
<event>
 7    1  0.1935465E-015  0.9000774E+02  0.7816164E-02  0.1186339E+00
        -11   -1    0    0    0    0  0.00000000000E+00  0.00000000000E+00  0.45593999997E+02  0.45594000000E+02  0.51100000000E-03 0. -1.
         11   -1    0    0    0    0 -0.00000000000E+00 -0.00000000000E+00 -0.45593999997E+02  0.45594000000E+02  0.51100000000E-03 0.  1.
    9900012    2    1    2    0    0 -0.79432668430E+00 -0.63068838920E+00 -0.60356560661E+00  0.90007739788E+02  0.90000001154E+02 0.  0.
         12    1    1    2    0    0  0.79432668430E+00  0.63068838920E+00  0.60356560661E+00  0.11802602116E+01  0.00000000000E+00 0. -1.
         11    1    3    3    0    0 -0.32629120629E+02 -0.30820921055E+01 -0.13693846662E+02  0.35520138533E+02  0.51100000000E-03 0. -1.
        -11    1    3    3    0    0 -0.69839589822E+01 -0.39559381763E+01 -0.66919887339E+01  0.10450255662E+02  0.51100000000E-03 0.  1.
        -12    1    3    3    0    0  0.38818752927E+02  0.64073418926E+01  0.19782269789E+02  0.44037345593E+02  0.00000000000E+00 0.  1.
</event>
<event>
 7    1  0.1935465E-015  0.9000781E+02  0.7816164E-02  0.1186339E+00
        -11   -1    0    0    0    0  0.00000000000E+00  0.00000000000E+00  0.45593999997E+02  0.45594000000E+02  0.51100000000E-03 0. -1.
         11   -1    0    0    0    0 -0.00000000000E+00 -0.00000000000E+00 -0.45593999997E+02  0.45594000000E+02  0.51100000000E-03 0.  1.
    9900012    2    1    2    0    0  0.70562930240E-01 -0.23228761659E+00 -0.11549482697E+01  0.90007812655E+02  0.90000074982E+02 0.  0.
         12    1    1    2    0    0 -0.70562930240E-01  0.23228761659E+00  0.11549482697E+01  0.11801873451E+01  0.00000000000E+00 0. -1.
         11    1    3    3    0    0 -0.26726014736E+02 -0.13676313475E+02 -0.17309818062E+02  0.34654743046E+02  0.51100000000E-03 0. -1.
        -11    1    3    3    0    0 -0.23801593820E+01 -0.13060120154E+02  0.64453212355E+01  0.14757169892E+02  0.51100000000E-03 0.  1.
        -12    1    3    3    0    0  0.29176737049E+02  0.26504146013E+02  0.97095485564E+01  0.40595899717E+02  0.00000000000E+00 0.  1.
</event>
<event>
 7    1  0.1935465E-015  0.9000773E+02  0.7816164E-02  0.1186339E+00
        -11   -1    0    0    0    0  0.00000000000E+00  0.00000000000E+00  0.45593999997E+02  0.45594000000E+02  0.51100000000E-03 0. -1.
         11   -1    0    0    0    0 -0.00000000000E+00 -0.00000000000E+00 -0.45593999997E+02  0.45594000000E+02  0.51100000000E-03 0.  1.
    9900012    2    1    2    0    0 -0.49607240059E+00 -0.15563230903E+00 -0.10595870780E+01  0.90007731379E+02  0.89999992633E+02 0.  0.
         12    1    1    2    0    0  0.49607240059E+00  0.15563230903E+00  0.10595870780E+01  0.11802686212E+01  0.00000000000E+00 0. -1.
         11    1    3    3    0    0 -0.51741554868E+01  0.56597659877E+01 -0.62678513039E+01  0.99040797788E+01  0.51100000000E-03 0. -1.
        -11    1    3    3    0    0 -0.38057203828E+01  0.36410765839E+02 -0.79218120685E+00  0.36617685999E+02  0.51100000000E-03 0.  1.
         12    1    3    3    0    0  0.84838034691E+01 -0.42226164135E+02  0.60004454327E+01  0.43485965601E+02  0.00000000000E+00 0. -1.
</event>
<event>
 7    1  0.1935465E-015  0.9000769E+02  0.7816164E-02  0.1186339E+00
        -11   -1    0    0    0    0  0.00000000000E+00  0.00000000000E+00  0.45593999997E+02  0.45594000000E+02  0.51100000000E-03 0.  1.
         11   -1    0    0    0    0 -0.00000000000E+00 -0.00000000000E+00 -0.45593999997E+02  0.45594000000E+02  0.51100000000E-03 0. -1.
    9900012    2    1    2    0    0 -0.17021865526E+00 -0.41111912382E+00  0.10932250240E+01  0.90007688906E+02  0.89999949600E+02 0.  0.
         12    1    1    2    0    0  0.17021865526E+00  0.41111912382E+00 -0.10932250240E+01  0.11803110936E+01  0.00000000000E+00 0. -1.
         11    1    3    3    0    0 -0.23461748021E+02 -0.25873992157E+02 -0.58922937571E+01  0.35420844376E+02  0.51100000000E-03 0. -1.
        -11    1    3    3    0    0 -0.10432795549E+02  0.36057090764E+01 -0.57279001346E+01  0.12435964021E+02  0.51100000000E-03 0.  1.
        -12    1    3    3    0    0  0.33724324915E+02  0.21857163957E+02  0.12713418916E+02  0.42150880509E+02  0.00000000000E+00 0.  1.
</event>
<event>
 7    1  0.1935465E-015  0.9000726E+02  0.7816164E-02  0.1186340E+00
        -11   -1    0    0    0    0  0.00000000000E+00  0.00000000000E+00  0.45593999997E+02  0.45594000000E+02  0.51100000000E-03 0. -1.
         11   -1    0    0    0    0 -0.00000000000E+00 -0.00000000000E+00 -0.45593999997E+02  0.45594000000E+02  0.51100000000E-03 0.  1.
    9900012    2    1    2    0    0 -0.38762411603E+00 -0.57587577685E+00 -0.95512740129E+00  0.90007257133E+02  0.89999512126E+02 0.  0.
         12    1    1    2    0    0  0.38762411603E+00  0.57587577685E+00  0.95512740129E+00  0.11807428672E+01  0.00000000000E+00 0. -1.
         11    1    3    3    0    0 -0.34432059201E+02 -0.61609687451E+01  0.20233399272E+02  0.40409339058E+02  0.51100000000E-03 0. -1.
        -11    1    3    3    0    0  0.68984655540E+01 -0.26356083117E+01  0.65898304729E+01  0.98975312121E+01  0.51100000000E-03 0.  1.
        -12    1    3    3    0    0  0.27145969531E+02  0.82207012799E+01 -0.27778357146E+02  0.39700386863E+02  0.00000000000E+00 0.  1.
</event>
<event>
 7    1  0.1935465E-015  0.9000775E+02  0.7816164E-02  0.1186339E+00
        -11   -1    0    0    0    0  0.00000000000E+00  0.00000000000E+00  0.45593999997E+02  0.45594000000E+02  0.51100000000E-03 0. -1.
         11   -1    0    0    0    0 -0.00000000000E+00 -0.00000000000E+00 -0.45593999997E+02  0.45594000000E+02  0.51100000000E-03 0.  1.
    9900012    2    1    2    0    0  0.40798785040E+00  0.10869637088E+01 -0.21223165918E+00  0.90007751523E+02  0.90000013043E+02 0.  0.
         12    1    1    2    0    0 -0.40798785040E+00 -0.10869637088E+01  0.21223165918E+00  0.11802484770E+01  0.00000000000E+00 0. -1.
         11    1    3    3    0    0  0.99494540379E+01  0.42355925881E+01  0.41574083982E+02  0.42957378172E+02  0.51100000000E-03 0. -1.
        -11    1    3    3    0    0 -0.79078716596E+01 -0.50891226990E+01 -0.59581472479E+01  0.11132525451E+02  0.51100000000E-03 0.  1.
        -12    1    3    3    0    0 -0.16335945279E+01  0.19404938197E+01 -0.35828168393E+02  0.35917847900E+02  0.00000000000E+00 0.  1.
</event>
<event>
 7    1  0.1935465E-015  0.9000775E+02  0.7816164E-02  0.1186339E+00
        -11   -1    0    0    0    0  0.00000000000E+00  0.00000000000E+00  0.45593999997E+02  0.45594000000E+02  0.51100000000E-03 0. -1.
         11   -1    0    0    0    0 -0.00000000000E+00 -0.00000000000E+00 -0.45593999997E+02  0.45594000000E+02  0.51100000000E-03 0.  1.
    9900012    2    1    2    0    0 -0.54302526333E-01  0.80058694997E-01 -0.11762786302E+01  0.90007750207E+02  0.90000011709E+02 0.  0.
         12    1    1    2    0    0  0.54302526333E-01 -0.80058694997E-01  0.11762786302E+01  0.11802497934E+01  0.00000000000E+00 0. -1.
         11    1    3    3    0    0 -0.78420254936E+01  0.37683774426E+01 -0.87522327433E+00  0.87443723865E+01  0.51100000000E-03 0. -1.
        -11    1    3    3    0    0  0.86461361325E+01  0.33915191433E+02  0.18085664877E+02  0.39396537338E+02  0.51100000000E-03 0.  1.
         12    1    3    3    0    0 -0.85841316518E+00 -0.37603510180E+02 -0.18386720233E+02  0.41866840482E+02  0.00000000000E+00 0. -1.
</event>
<event>
 7    1  0.1935465E-015  0.9000773E+02  0.7816164E-02  0.1186339E+00
        -11   -1    0    0    0    0  0.00000000000E+00  0.00000000000E+00  0.45593999997E+02  0.45594000000E+02  0.51100000000E-03 0.  1.
         11   -1    0    0    0    0 -0.00000000000E+00 -0.00000000000E+00 -0.45593999997E+02  0.45594000000E+02  0.51100000000E-03 0. -1.
    9900012    2    1    2    0    0  0.67008414587E-01 -0.40500796271E+00  0.11065751128E+01  0.90007733057E+02  0.89999994333E+02 0.  0.
         12    1    1    2    0    0 -0.67008414587E-01  0.40500796271E+00 -0.11065751128E+01  0.11802669434E+01  0.00000000000E+00 0. -1.
         11    1    3    3    0    0 -0.38298425022E+02  0.28998526417E+01 -0.74587470068E+01  0.39125585129E+02  0.51100000000E-03 0. -1.
        -11    1    3    3    0    0 -0.28363282632E+01 -0.77777046771E+01  0.39790215058E+01  0.91853176573E+01  0.51100000000E-03 0.  1.
        -12    1    3    3    0    0  0.41201761700E+02  0.44728440727E+01  0.45863006139E+01  0.41696830270E+02  0.00000000000E+00 0.  1.
</event>
<event>
 7    1  0.1935465E-015  0.9000775E+02  0.7816164E-02  0.1186339E+00
        -11   -1    0    0    0    0  0.00000000000E+00  0.00000000000E+00  0.45593999997E+02  0.45594000000E+02  0.51100000000E-03 0.  1.
         11   -1    0    0    0    0 -0.00000000000E+00 -0.00000000000E+00 -0.45593999997E+02  0.45594000000E+02  0.51100000000E-03 0. -1.
    9900012    2    1    2    0    0  0.10594289646E+01  0.14604171106E+00  0.49927831514E+00  0.90007747168E+02  0.90000008630E+02 0.  0.
         12    1    1    2    0    0 -0.10594289646E+01 -0.14604171106E+00 -0.49927831514E+00  0.11802528324E+01  0.00000000000E+00 0. -1.
         11    1    3    3    0    0 -0.33356837471E+02 -0.15372060460E+02 -0.20244925671E+02  0.41938477137E+02  0.51100000000E-03 0. -1.
        -11    1    3    3    0    0  0.92507621076E+01 -0.49846731238E+01  0.23801973732E+01  0.10774456159E+02  0.51100000000E-03 0.  1.
        -12    1    3    3    0    0  0.25165504328E+02  0.20502775295E+02  0.18364006613E+02  0.37294813872E+02  0.00000000000E+00 0.  1.
</event>
<event>
 7    1  0.1935465E-015  0.9000687E+02  0.7816164E-02  0.1186341E+00
        -11   -1    0    0    0    0  0.00000000000E+00  0.00000000000E+00  0.45593999997E+02  0.45594000000E+02  0.51100000000E-03 0.  1.
         11   -1    0    0    0    0 -0.00000000000E+00 -0.00000000000E+00 -0.45593999997E+02  0.45594000000E+02  0.51100000000E-03 0. -1.
    9900012    2    1    2    0    0 -0.23896297915E+00 -0.11554825263E+01 -0.53072410143E-01  0.90006873481E+02  0.89999123406E+02 0.  0.
         12    1    1    2    0    0  0.23896297915E+00  0.11554825263E+01  0.53072410143E-01  0.11811265193E+01  0.00000000000E+00 0. -1.
         11    1    3    3    0    0 -0.75067194140E+01  0.77430233074E+01  0.31430117299E+01  0.11233154913E+02  0.51100000000E-03 0. -1.
        -11    1    3    3    0    0 -0.23532024887E+02 -0.19765110842E+02  0.21772493777E+02  0.37662412129E+02  0.51100000000E-03 0.  1.
         12    1    3    3    0    0  0.30799781322E+02  0.10866605008E+02 -0.24968577917E+02  0.41111306439E+02  0.00000000000E+00 0. -1.
</event>
<event>
 7    1  0.1935465E-015  0.9000780E+02  0.7816164E-02  0.1186339E+00
        -11   -1    0    0    0    0  0.00000000000E+00  0.00000000000E+00  0.45593999997E+02  0.45594000000E+02  0.51100000000E-03 0. -1.
         11   -1    0    0    0    0 -0.00000000000E+00 -0.00000000000E+00 -0.45593999997E+02  0.45594000000E+02  0.51100000000E-03 0.  1.
    9900012    2    1    2    0    0 -0.42939857220E+00 -0.60226859080E+00 -0.91965411088E+00  0.90007799054E+02  0.90000061201E+02 0.  0.
         12    1    1    2    0    0  0.42939857220E+00  0.60226859080E+00  0.91965411088E+00  0.11802009460E+01  0.00000000000E+00 0. -1.
         11    1    3    3    0    0 -0.44201480361E+00 -0.36059736437E+02 -0.27402365765E+01  0.36166405210E+02  0.51100000000E-03 0. -1.
        -11    1    3    3    0    0 -0.78359340908E+01 -0.65006294405E+01 -0.36296629693E+01  0.10809000866E+02  0.51100000000E-03 0.  1.
        -12    1    3    3    0    0  0.78485503222E+01  0.41958097287E+02  0.54502454349E+01  0.43032392978E+02  0.00000000000E+00 0.  1.
</event>
<event>
 7    1  0.1935465E-015  0.9000772E+02  0.7816164E-02  0.1186339E+00
        -11   -1    0    0    0    0  0.00000000000E+00  0.00000000000E+00  0.45593999997E+02  0.45594000000E+02  0.51100000000E-03 0.  1.
         11   -1    0    0    0    0 -0.00000000000E+00 -0.00000000000E+00 -0.45593999997E+02  0.45594000000E+02  0.51100000000E-03 0. -1.
    9900012    2    1    2    0    0  0.82783808962E+00 -0.76286507068E+00 -0.35464299133E+00  0.90007724325E+02  0.89999985486E+02 0.  0.
         12    1    1    2    0    0 -0.82783808962E+00  0.76286507068E+00  0.35464299133E+00  0.11802756754E+01  0.00000000000E+00 0. -1.
         11    1    3    3    0    0 -0.12550130628E+02 -0.84391094531E+01 -0.77792927232E+01  0.17007108592E+02  0.51100000000E-03 0. -1.
        -11    1    3    3    0    0  0.10479494604E+02 -0.29530279360E+02 -0.84367512344E+01  0.32450515834E+02  0.51100000000E-03 0.  1.
         12    1    3    3    0    0  0.28984741131E+01  0.37206523742E+02  0.15861400966E+02  0.40550099898E+02  0.00000000000E+00 0. -1.
</event>
<event>
 7    1  0.1935465E-015  0.9000762E+02  0.7816164E-02  0.1186339E+00
        -11   -1    0    0    0    0  0.00000000000E+00  0.00000000000E+00  0.45593999997E+02  0.45594000000E+02  0.51100000000E-03 0.  1.
         11   -1    0    0    0    0 -0.00000000000E+00 -0.00000000000E+00 -0.45593999997E+02  0.45594000000E+02  0.51100000000E-03 0. -1.
    9900012    2    1    2    0    0  0.77839792486E+00 -0.45607371019E+00  0.76117689445E+00  0.90007620051E+02  0.89999879836E+02 0.  0.
         12    1    1    2    0    0 -0.77839792486E+00  0.45607371019E+00 -0.76117689445E+00  0.11803799487E+01  0.00000000000E+00 0. -1.
         11    1    3    3    0    0  0.10041182138E+02  0.14466049577E+01  0.58974488341E+00  0.10161978347E+02  0.51100000000E-03 0. -1.
        -11    1    3    3    0    0  0.30797125461E+02  0.10650821153E+02  0.14250984548E+02  0.35566746952E+02  0.51100000000E-03 0.  1.
         12    1    3    3    0    0 -0.40059909674E+02 -0.12553499821E+02 -0.14079552537E+02  0.44278894752E+02  0.00000000000E+00 0. -1.
</event>
<event>
 7    1  0.1935465E-015  0.9000774E+02  0.7816164E-02  0.1186339E+00
        -11   -1    0    0    0    0  0.00000000000E+00  0.00000000000E+00  0.45593999997E+02  0.45594000000E+02  0.51100000000E-03 0. -1.
         11   -1    0    0    0    0 -0.00000000000E+00 -0.00000000000E+00 -0.45593999997E+02  0.45594000000E+02  0.51100000000E-03 0.  1.
    9900012    2    1    2    0    0  0.73059447727E+00 -0.29216126014E-01 -0.92649340363E+00  0.90007740749E+02  0.90000002127E+02 0.  0.
         12    1    1    2    0    0 -0.73059447727E+00  0.29216126014E-01  0.92649340363E+00  0.11802592508E+01  0.00000000000E+00 0. -1.
         11    1    3    3    0    0  0.42354998109E+01  0.10528357002E+02 -0.66026145923E+01  0.13129367065E+02  0.51100000000E-03 0. -1.
        -11    1    3    3    0    0  0.36174499452E+02 -0.56824452378E+01  0.43856164557E+01  0.36879780727E+02  0.51100000000E-03 0.  1.
         12    1    3    3    0    0 -0.39679404786E+02 -0.48751278898E+01  0.12905047330E+01  0.39998592958E+02  0.00000000000E+00 0. -1.
</event>
<event>
 7    1  0.1935465E-015  0.9000773E+02  0.7816164E-02  0.1186339E+00
        -11   -1    0    0    0    0  0.00000000000E+00  0.00000000000E+00  0.45593999997E+02  0.45594000000E+02  0.51100000000E-03 0.  1.
         11   -1    0    0    0    0 -0.00000000000E+00 -0.00000000000E+00 -0.45593999997E+02  0.45594000000E+02  0.51100000000E-03 0. -1.
    9900012    2    1    2    0    0 -0.67609317773E+00 -0.37385054820E+00  0.89228602080E+00  0.90007728607E+02  0.89999989825E+02 0.  0.
         12    1    1    2    0    0  0.67609317773E+00  0.37385054820E+00 -0.89228602080E+00  0.11802713926E+01  0.00000000000E+00 0. -1.
         11    1    3    3    0    0 -0.16786761636E+02  0.15362971668E+02 -0.28257236315E+02  0.36280679006E+02  0.51100000000E-03 0. -1.
        -11    1    3    3    0    0 -0.10933253617E+02  0.38565122653E+01  0.56862690172E+01  0.12912876407E+02  0.51100000000E-03 0.  1.
        -12    1    3    3    0    0  0.27043922075E+02 -0.19593334482E+02  0.23463253319E+02  0.40814173195E+02  0.00000000000E+00 0.  1.
</event>
<event>
 7    1  0.1935465E-015  0.9000762E+02  0.7816164E-02  0.1186339E+00
        -11   -1    0    0    0    0  0.00000000000E+00  0.00000000000E+00  0.45593999997E+02  0.45594000000E+02  0.51100000000E-03 0.  1.
         11   -1    0    0    0    0 -0.00000000000E+00 -0.00000000000E+00 -0.45593999997E+02  0.45594000000E+02  0.51100000000E-03 0. -1.
    9900012    2    1    2    0    0 -0.11752139026E+01 -0.57416217863E-01 -0.94209669476E-01  0.90007618790E+02  0.89999878558E+02 0.  0.
         12    1    1    2    0    0  0.11752139026E+01  0.57416217863E-01  0.94209669476E-01  0.11803812099E+01  0.00000000000E+00 0. -1.
         11    1    3    3    0    0 -0.44005736771E+01 -0.49915655721E+01 -0.69736939466E+01  0.96391484618E+01  0.51100000000E-03 0. -1.
        -11    1    3    3    0    0 -0.10240025247E+02  0.40374909454E+02 -0.91349186725E+00  0.41663243970E+02  0.51100000000E-03 0.  1.
         12    1    3    3    0    0  0.13465385021E+02 -0.35440760100E+02  0.77929761443E+01  0.38705226358E+02  0.00000000000E+00 0. -1.
</event>
<event>
 7    1  0.1935465E-015  0.9000775E+02  0.7816164E-02  0.1186339E+00
        -11   -1    0    0    0    0  0.00000000000E+00  0.00000000000E+00  0.45593999997E+02  0.45594000000E+02  0.51100000000E-03 0. -1.
         11   -1    0    0    0    0 -0.00000000000E+00 -0.00000000000E+00 -0.45593999997E+02  0.45594000000E+02  0.51100000000E-03 0.  1.
    9900012    2    1    2    0    0  0.64141634086E+00  0.66807637983E+00 -0.73160551013E+00  0.90007751046E+02  0.90000012560E+02 0.  0.
         12    1    1    2    0    0 -0.64141634086E+00 -0.66807637983E+00  0.73160551013E+00  0.11802489543E+01  0.00000000000E+00 0. -1.
         11    1    3    3    0    0 -0.10956560273E+02 -0.89499008618E+00 -0.16518336089E+01  0.11116464132E+02  0.51100000000E-03 0. -1.
        -11    1    3    3    0    0 -0.72981053061E+01 -0.23999262635E+02 -0.26804578953E+02  0.36711202666E+02  0.51100000000E-03 0.  1.
         12    1    3    3    0    0  0.18896081920E+02  0.25562329101E+02  0.27724807052E+02  0.42180084247E+02  0.00000000000E+00 0. -1.
</event>
<event>
 8    1  0.1935465E-015  0.9000766E+02  0.7816164E-02  0.1186339E+00
        -11   -1    0    0    0    0  0.00000000000E+00  0.00000000000E+00  0.45593999997E+02  0.45594000000E+02  0.51100000000E-03 0.  1.
         11   -1    0    0    0    0 -0.00000000000E+00 -0.00000000000E+00 -0.45593999997E+02  0.45594000000E+02  0.51100000000E-03 0. -1.
    9900012    2    1    2    0    0 -0.60767910320E+00  0.10105871529E+01  0.51291332376E-01  0.90007664841E+02  0.89999925217E+02 0.  0.
         23    2    3    3    0    0  0.52540102047E+01 -0.24900429910E+02  0.12326545141E+02  0.60742975148E+02  0.53759922636E+02 0.  0.
         12    1    1    2    0    0  0.60767910320E+00 -0.10105871529E+01 -0.51291332376E-01  0.11803351586E+01  0.00000000000E+00 0. -1.
         11    1    4    4    0    0  0.16293747161E+01 -0.13097365178E+02 -0.21223731292E+02  0.24992851114E+02  0.51100000000E-03 0. -1.
        -11    1    4    4    0    0  0.36246354885E+01 -0.11803064732E+02  0.33550276433E+02  0.35750124035E+02  0.51100000000E-03 0.  1.
         12    1    3    3    0    0 -0.58616893079E+01  0.25911017063E+02 -0.12275253809E+02  0.29264689693E+02  0.00000000000E+00 0. -1.
</event>
<event>
 7    1  0.1935465E-015  0.9000769E+02  0.7816164E-02  0.1186339E+00
        -11   -1    0    0    0    0  0.00000000000E+00  0.00000000000E+00  0.45593999997E+02  0.45594000000E+02  0.51100000000E-03 0.  1.
         11   -1    0    0    0    0 -0.00000000000E+00 -0.00000000000E+00 -0.45593999997E+02  0.45594000000E+02  0.51100000000E-03 0. -1.
    9900012    2    1    2    0    0 -0.49606483854E+00 -0.76944146100E+00  0.74499026062E+00  0.90007690306E+02  0.89999951018E+02 0.  0.
         12    1    1    2    0    0  0.49606483854E+00  0.76944146100E+00 -0.74499026062E+00  0.11803096943E+01  0.00000000000E+00 0. -1.
         11    1    3    3    0    0  0.46955384395E+01 -0.61058319812E+01 -0.50074420265E+00  0.77188088742E+01  0.51100000000E-03 0. -1.
        -11    1    3    3    0    0 -0.36895033819E+02  0.11189937757E+02  0.21569593078E+02  0.44178111926E+02  0.51100000000E-03 0.  1.
         12    1    3    3    0    0  0.31703430541E+02 -0.58535472370E+01 -0.20323858615E+02  0.38110769506E+02  0.00000000000E+00 0. -1.
</event>
<event>
 7    1  0.1935465E-015  0.9000774E+02  0.7816164E-02  0.1186339E+00
        -11   -1    0    0    0    0  0.00000000000E+00  0.00000000000E+00  0.45593999997E+02  0.45594000000E+02  0.51100000000E-03 0.  1.
         11   -1    0    0    0    0 -0.00000000000E+00 -0.00000000000E+00 -0.45593999997E+02  0.45594000000E+02  0.51100000000E-03 0. -1.
    9900012    2    1    2    0    0  0.80605100221E-01  0.63994936390E+00  0.98842088275E+00  0.90007742311E+02  0.90000003710E+02 0.  0.
         12    1    1    2    0    0 -0.80605100221E-01 -0.63994936390E+00 -0.98842088275E+00  0.11802576888E+01  0.00000000000E+00 0. -1.
         11    1    3    3    0    0 -0.27521034282E+00 -0.36744749521E+02 -0.21036353324E+02  0.42341238994E+02  0.51100000000E-03 0. -1.
        -11    1    3    3    0    0 -0.32694485916E+01  0.11520874999E+01  0.78681226164E+01  0.85979040160E+01  0.51100000000E-03 0.  1.
        -12    1    3    3    0    0  0.36252640347E+01  0.36232611385E+02  0.14156651590E+02  0.39068599301E+02  0.00000000000E+00 0.  1.
</event>
<event>
 7    1  0.1935465E-015  0.9000762E+02  0.7816164E-02  0.1186339E+00
        -11   -1    0    0    0    0  0.00000000000E+00  0.00000000000E+00  0.45593999997E+02  0.45594000000E+02  0.51100000000E-03 0. -1.
         11   -1    0    0    0    0 -0.00000000000E+00 -0.00000000000E+00 -0.45593999997E+02  0.45594000000E+02  0.51100000000E-03 0.  1.
    9900012    2    1    2    0    0  0.54031457431E+00  0.84276659987E+00  0.62538398727E+00  0.90007618489E+02  0.89999878253E+02 0.  0.
         12    1    1    2    0    0 -0.54031457431E+00 -0.84276659987E+00 -0.62538398727E+00  0.11803815115E+01  0.00000000000E+00 0. -1.
         11    1    3    3    0    0 -0.72033336950E+01  0.19968755124E+01  0.38324652346E+01  0.84001975077E+01  0.51100000000E-03 0. -1.
        -11    1    3    3    0    0 -0.22779913496E+02  0.27507255941E+02  0.11034470439E+02  0.37380919282E+02  0.51100000000E-03 0.  1.
         12    1    3    3    0    0  0.30523561765E+02 -0.28661364853E+02 -0.14241551686E+02  0.44226501699E+02  0.00000000000E+00 0. -1.
</event>
<event>
 7    1  0.1935465E-015  0.9000760E+02  0.7816164E-02  0.1186339E+00
        -11   -1    0    0    0    0  0.00000000000E+00  0.00000000000E+00  0.45593999997E+02  0.45594000000E+02  0.51100000000E-03 0. -1.
         11   -1    0    0    0    0 -0.00000000000E+00 -0.00000000000E+00 -0.45593999997E+02  0.45594000000E+02  0.51100000000E-03 0.  1.
    9900012    2    1    2    0    0 -0.24449183459E+00 -0.87956530628E+00  0.74829112701E+00  0.90007597104E+02  0.89999856586E+02 0.  0.
         12    1    1    2    0    0  0.24449183459E+00  0.87956530628E+00 -0.74829112701E+00  0.11804028956E+01  0.00000000000E+00 0. -1.
         11    1    3    3    0    0  0.74585485973E+01 -0.15232151920E+02 -0.13584836648E+02  0.21730075617E+02  0.51100000000E-03 0. -1.
        -11    1    3    3    0    0  0.27432751661E+02  0.15962663419E+01 -0.18577593637E+01  0.27541880837E+02  0.51100000000E-03 0.  1.
         12    1    3    3    0    0 -0.35135792093E+02  0.12756320272E+02  0.16190887139E+02  0.40735640651E+02  0.00000000000E+00 0. -1.
</event>
<event>
 7    1  0.1935465E-015  0.9000775E+02  0.7816164E-02  0.1186339E+00
        -11   -1    0    0    0    0  0.00000000000E+00  0.00000000000E+00  0.45593999997E+02  0.45594000000E+02  0.51100000000E-03 0.  1.
         11   -1    0    0    0    0 -0.00000000000E+00 -0.00000000000E+00 -0.45593999997E+02  0.45594000000E+02  0.51100000000E-03 0. -1.
    9900012    2    1    2    0    0  0.42706358309E+00 -0.19740945823E+00  0.10824246495E+01  0.90007747095E+02  0.90000008557E+02 0.  0.
         12    1    1    2    0    0 -0.42706358309E+00  0.19740945823E+00 -0.10824246495E+01  0.11802529051E+01  0.00000000000E+00 0. -1.
         11    1    3    3    0    0 -0.11624130947E+02 -0.30750164279E+01  0.19152254406E+01  0.12175558922E+02  0.51100000000E-03 0. -1.
        -11    1    3    3    0    0  0.24055038471E+01 -0.10749087357E+02  0.35863337076E+02  0.37516773239E+02  0.51100000000E-03 0.  1.
         12    1    3    3    0    0  0.96456906829E+01  0.13626694327E+02 -0.36696137867E+02  0.40315414935E+02  0.00000000000E+00 0. -1.
</event>
<event>
 7    1  0.1935465E-015  0.9000775E+02  0.7816164E-02  0.1186339E+00
        -11   -1    0    0    0    0  0.00000000000E+00  0.00000000000E+00  0.45593999997E+02  0.45594000000E+02  0.51100000000E-03 0.  1.
         11   -1    0    0    0    0 -0.00000000000E+00 -0.00000000000E+00 -0.45593999997E+02  0.45594000000E+02  0.51100000000E-03 0. -1.
    9900012    2    1    2    0    0  0.74452276587E-01  0.11615901191E+01  0.19531042589E+00  0.90007753878E+02  0.90000015429E+02 0.  0.
         12    1    1    2    0    0 -0.74452276587E-01 -0.11615901191E+01 -0.19531042589E+00  0.11802461221E+01  0.00000000000E+00 0. -1.
         11    1    3    3    0    0  0.24077533927E+02  0.27357172731E+02 -0.20412409339E+01  0.36500811013E+02  0.51100000000E-03 0. -1.
        -11    1    3    3    0    0  0.43777945265E+01  0.58333810241E+01 -0.65699294505E+01  0.98161801294E+01  0.51100000000E-03 0.  1.
        -12    1    3    3    0    0 -0.28380876177E+02 -0.32028963636E+02  0.88064808103E+01  0.43690762735E+02  0.00000000000E+00 0.  1.
</event>
<event>
 7    1  0.1935465E-015  0.9000772E+02  0.7816164E-02  0.1186339E+00
        -11   -1    0    0    0    0  0.00000000000E+00  0.00000000000E+00  0.45593999997E+02  0.45594000000E+02  0.51100000000E-03 0.  1.
         11   -1    0    0    0    0 -0.00000000000E+00 -0.00000000000E+00 -0.45593999997E+02  0.45594000000E+02  0.51100000000E-03 0. -1.
    9900012    2    1    2    0    0 -0.88483951649E-02 -0.11530569728E+01  0.25185688458E+00  0.90007724368E+02  0.89999985530E+02 0.  0.
         12    1    1    2    0    0  0.88483951649E-02  0.11530569728E+01 -0.25185688458E+00  0.11802756317E+01  0.00000000000E+00 0. -1.
         11    1    3    3    0    0  0.25178651849E+02  0.31499123477E+02  0.11558126457E+02  0.41949369199E+02  0.51100000000E-03 0. -1.
        -11    1    3    3    0    0 -0.90038815920E+01  0.24732217547E+00  0.16787293099E+01  0.91623787489E+01  0.51100000000E-03 0.  1.
        -12    1    3    3    0    0 -0.16183618652E+02 -0.32899502626E+02 -0.12984998883E+02  0.38895976420E+02  0.00000000000E+00 0.  1.
</event>
<event>
 7    1  0.1935465E-015  0.9000773E+02  0.7816164E-02  0.1186339E+00
        -11   -1    0    0    0    0  0.00000000000E+00  0.00000000000E+00  0.45593999997E+02  0.45594000000E+02  0.51100000000E-03 0.  1.
         11   -1    0    0    0    0 -0.00000000000E+00 -0.00000000000E+00 -0.45593999997E+02  0.45594000000E+02  0.51100000000E-03 0. -1.
    9900012    2    1    2    0    0  0.51174971552E+00 -0.53140387305E+00  0.92128691577E+00  0.90007725698E+02  0.89999986877E+02 0.  0.
         12    1    1    2    0    0 -0.51174971552E+00  0.53140387305E+00 -0.92128691577E+00  0.11802743024E+01  0.00000000000E+00 0. -1.
         11    1    3    3    0    0  0.60550797986E+01  0.35330982655E+01 -0.54446586110E+01  0.88764341022E+01  0.51100000000E-03 0. -1.
        -11    1    3    3    0    0  0.24562020445E+02  0.25081799423E+02 -0.94304217243E+01  0.36349998141E+02  0.51100000000E-03 0.  1.
         12    1    3    3    0    0 -0.30105350528E+02 -0.29146301562E+02  0.15796367251E+02  0.44781293455E+02  0.00000000000E+00 0. -1.
</event>
<event>
 7    1  0.1935465E-015  0.9000783E+02  0.7816164E-02  0.1186339E+00
        -11   -1    0    0    0    0  0.00000000000E+00  0.00000000000E+00  0.45593999997E+02  0.45594000000E+02  0.51100000000E-03 0.  1.
         11   -1    0    0    0    0 -0.00000000000E+00 -0.00000000000E+00 -0.45593999997E+02  0.45594000000E+02  0.51100000000E-03 0. -1.
    9900012    2    1    2    0    0 -0.22326040629E+00  0.96950492835E+00  0.63482671965E+00  0.90007834766E+02  0.90000097385E+02 0.  0.
         12    1    1    2    0    0  0.22326040629E+00 -0.96950492835E+00 -0.63482671965E+00  0.11801652338E+01  0.00000000000E+00 0. -1.
         11    1    3    3    0    0  0.16376917080E+01 -0.60846763658E+01  0.85345597645E+01  0.10608677167E+02  0.51100000000E-03 0. -1.
        -11    1    3    3    0    0 -0.75329457657E+01  0.48708656124E-01  0.34877917794E+02  0.35682163533E+02  0.51100000000E-03 0.  1.
         12    1    3    3    0    0  0.56719936514E+01  0.70054726380E+01 -0.42777650839E+02  0.43716994066E+02  0.00000000000E+00 0. -1.
</event>
<event>
 7    1  0.1935465E-015  0.9000777E+02  0.7816164E-02  0.1186339E+00
        -11   -1    0    0    0    0  0.00000000000E+00  0.00000000000E+00  0.45593999997E+02  0.45594000000E+02  0.51100000000E-03 0.  1.
         11   -1    0    0    0    0 -0.00000000000E+00 -0.00000000000E+00 -0.45593999997E+02  0.45594000000E+02  0.51100000000E-03 0. -1.
    9900012    2    1    2    0    0  0.47104215740E+00 -0.53600456856E+00  0.94008496302E+00  0.90007770637E+02  0.90000032409E+02 0.  0.
         12    1    1    2    0    0 -0.47104215740E+00  0.53600456856E+00 -0.94008496302E+00  0.11802293630E+01  0.00000000000E+00 0. -1.
         11    1    3    3    0    0 -0.29070920860E+02 -0.22334237368E+01  0.27288195456E+02  0.39934349034E+02  0.51100000000E-03 0. -1.
        -11    1    3    3    0    0 -0.73249048569E+00 -0.73001442277E+01  0.20314785974E+01  0.76128544982E+01  0.51100000000E-03 0.  1.
        -12    1    3    3    0    0  0.30274453503E+02  0.89975633960E+01 -0.28379589090E+02  0.42460567105E+02  0.00000000000E+00 0.  1.
</event>
<event>
 7    1  0.1935465E-015  0.9000786E+02  0.7816164E-02  0.1186339E+00
        -11   -1    0    0    0    0  0.00000000000E+00  0.00000000000E+00  0.45593999997E+02  0.45594000000E+02  0.51100000000E-03 0.  1.
         11   -1    0    0    0    0 -0.00000000000E+00 -0.00000000000E+00 -0.45593999997E+02  0.45594000000E+02  0.51100000000E-03 0. -1.
    9900012    2    1    2    0    0  0.76562344222E-02  0.98593300375E+00  0.64853486362E+00  0.90007864425E+02  0.90000127435E+02 0.  0.
         12    1    1    2    0    0 -0.76562344222E-02 -0.98593300375E+00 -0.64853486362E+00  0.11801355749E+01  0.00000000000E+00 0. -1.
         11    1    3    3    0    0  0.18754834591E+01  0.43227718338E+00  0.95412039766E+01  0.97333897155E+01  0.51100000000E-03 0. -1.
        -11    1    3    3    0    0 -0.11795347495E+02 -0.37575923324E+02 -0.10767433885E+02  0.40829130151E+02  0.51100000000E-03 0.  1.
         12    1    3    3    0    0  0.99275202702E+01  0.38129579144E+02  0.18747647723E+01  0.39445344559E+02  0.00000000000E+00 0. -1.
</event>
<event>
 7    1  0.1935465E-015  0.9000833E+02  0.7816164E-02  0.1186338E+00
        -11   -1    0    0    0    0  0.00000000000E+00  0.00000000000E+00  0.45593999997E+02  0.45594000000E+02  0.51100000000E-03 0. -1.
         11   -1    0    0    0    0 -0.00000000000E+00 -0.00000000000E+00 -0.45593999997E+02  0.45594000000E+02  0.51100000000E-03 0.  1.
    9900012    2    1    2    0    0  0.33419344132E-01  0.22169108112E+00 -0.11581721482E+01  0.90008327794E+02  0.90000596919E+02 0.  0.
         12    1    1    2    0    0 -0.33419344132E-01 -0.22169108112E+00  0.11581721482E+01  0.11796722057E+01  0.00000000000E+00 0. -1.
         11    1    3    3    0    0 -0.12727746557E+01 -0.61516305943E+01 -0.86670360544E+01  0.10704206114E+02  0.51100000000E-03 0. -1.
        -11    1    3    3    0    0 -0.13000372998E+02  0.27037764236E+02 -0.24410560544E+02  0.38677200768E+02  0.51100000000E-03 0.  1.
         12    1    3    3    0    0  0.14306566998E+02 -0.20664442560E+02  0.31919424450E+02  0.40626920912E+02  0.00000000000E+00 0. -1.
</event>
<event>
 7    1  0.1935465E-015  0.9000767E+02  0.7816164E-02  0.1186339E+00
        -11   -1    0    0    0    0  0.00000000000E+00  0.00000000000E+00  0.45593999997E+02  0.45594000000E+02  0.51100000000E-03 0.  1.
         11   -1    0    0    0    0 -0.00000000000E+00 -0.00000000000E+00 -0.45593999997E+02  0.45594000000E+02  0.51100000000E-03 0. -1.
    9900012    2    1    2    0    0 -0.54678834455E+00 -0.87925535884E+00  0.56667668176E+00  0.90007665327E+02  0.89999925709E+02 0.  0.
         12    1    1    2    0    0  0.54678834455E+00  0.87925535884E+00 -0.56667668176E+00  0.11803346735E+01  0.00000000000E+00 0. -1.
         11    1    3    3    0    0 -0.27686423587E+01 -0.36519948522E+02  0.20432508015E+02  0.41938757786E+02  0.51100000000E-03 0. -1.
        -11    1    3    3    0    0  0.42757891824E+01  0.79267891829E+01  0.54077039736E+01  0.10505218818E+02  0.51100000000E-03 0.  1.
        -12    1    3    3    0    0 -0.20539351682E+01  0.27713903981E+02 -0.25273535307E+02  0.37563688723E+02  0.00000000000E+00 0.  1.
</event>
<event>
 7    1  0.1935465E-015  0.9000769E+02  0.7816164E-02  0.1186339E+00
        -11   -1    0    0    0    0  0.00000000000E+00  0.00000000000E+00  0.45593999997E+02  0.45594000000E+02  0.51100000000E-03 0.  1.
         11   -1    0    0    0    0 -0.00000000000E+00 -0.00000000000E+00 -0.45593999997E+02  0.45594000000E+02  0.51100000000E-03 0. -1.
    9900012    2    1    2    0    0 -0.88345783564E+00 -0.53749585273E+00  0.56897382295E+00  0.90007690401E+02  0.89999951114E+02 0.  0.
         12    1    1    2    0    0  0.88345783564E+00  0.53749585273E+00 -0.56897382295E+00  0.11803095993E+01  0.00000000000E+00 0. -1.
         11    1    3    3    0    0 -0.33965503732E+02 -0.59457458993E+01  0.99231035801E+01  0.35881406369E+02  0.51100000000E-03 0. -1.
        -11    1    3    3    0    0 -0.49571188486E+01  0.10026565574E+01  0.10010112399E+02  0.11215199417E+02  0.51100000000E-03 0.  1.
        -12    1    3    3    0    0  0.38039164745E+02  0.44055934892E+01 -0.19364242157E+02  0.42911084615E+02  0.00000000000E+00 0.  1.
</event>
<event>
 7    1  0.1935465E-015  0.9000770E+02  0.7816164E-02  0.1186339E+00
        -11   -1    0    0    0    0  0.00000000000E+00  0.00000000000E+00  0.45593999997E+02  0.45594000000E+02  0.51100000000E-03 0.  1.
         11   -1    0    0    0    0 -0.00000000000E+00 -0.00000000000E+00 -0.45593999997E+02  0.45594000000E+02  0.51100000000E-03 0. -1.
    9900012    2    1    2    0    0  0.10683609393E+01 -0.40544126941E+00  0.29552607690E+00  0.90007697758E+02  0.89999958569E+02 0.  0.
         12    1    1    2    0    0 -0.10683609393E+01  0.40544126941E+00 -0.29552607690E+00  0.11803022416E+01  0.00000000000E+00 0. -1.
         11    1    3    3    0    0 -0.13770835896E+01 -0.31099784477E+02 -0.21347779612E+02  0.37746796531E+02  0.51100000000E-03 0. -1.
        -11    1    3    3    0    0  0.11096209430E+01 -0.66170000513E+01 -0.31817546567E+01  0.74255983781E+01  0.51100000000E-03 0.  1.
        -12    1    3    3    0    0  0.13358235858E+01  0.37311343259E+02  0.24825060346E+02  0.44835302849E+02  0.00000000000E+00 0.  1.
</event>
<event>
 7    1  0.1935465E-015  0.9000772E+02  0.7816164E-02  0.1186339E+00
        -11   -1    0    0    0    0  0.00000000000E+00  0.00000000000E+00  0.45593999997E+02  0.45594000000E+02  0.51100000000E-03 0.  1.
         11   -1    0    0    0    0 -0.00000000000E+00 -0.00000000000E+00 -0.45593999997E+02  0.45594000000E+02  0.51100000000E-03 0. -1.
    9900012    2    1    2    0    0 -0.11595788095E+01 -0.19554856247E+00  0.10099218607E+00  0.90007719662E+02  0.89999980761E+02 0.  0.
         12    1    1    2    0    0  0.11595788095E+01  0.19554856247E+00 -0.10099218607E+00  0.11802803385E+01  0.00000000000E+00 0. -1.
         11    1    3    3    0    0 -0.21809144842E+02  0.25191380489E+02  0.88689410466E+01  0.34480466430E+02  0.51100000000E-03 0. -1.
        -11    1    3    3    0    0  0.38688655013E+01  0.11003789619E+02  0.56223130573E+01  0.12948432748E+02  0.51100000000E-03 0.  1.
        -12    1    3    3    0    0  0.16780700531E+02 -0.36390718671E+02 -0.14390261918E+02  0.42578820484E+02  0.00000000000E+00 0.  1.
</event>
<event>
 7    1  0.1935465E-015  0.9000776E+02  0.7816164E-02  0.1186339E+00
        -11   -1    0    0    0    0  0.00000000000E+00  0.00000000000E+00  0.45593999997E+02  0.45594000000E+02  0.51100000000E-03 0.  1.
         11   -1    0    0    0    0 -0.00000000000E+00 -0.00000000000E+00 -0.45593999997E+02  0.45594000000E+02  0.51100000000E-03 0. -1.
    9900012    2    1    2    0    0 -0.77358134855E+00 -0.85205061944E+00  0.26180457745E+00  0.90007762737E+02  0.90000024405E+02 0.  0.
         12    1    1    2    0    0  0.77358134855E+00  0.85205061944E+00 -0.26180457745E+00  0.11802372633E+01  0.00000000000E+00 0. -1.
         11    1    3    3    0    0  0.94086810417E+01  0.44179809093E+01 -0.30051347712E+01  0.10820012454E+02  0.51100000000E-03 0. -1.
        -11    1    3    3    0    0  0.20521368187E+02 -0.27688307002E+02  0.17426691797E+02  0.38619405539E+02  0.51100000000E-03 0.  1.
         12    1    3    3    0    0 -0.30703630577E+02  0.22418275474E+02 -0.14159752448E+02  0.40568344744E+02  0.00000000000E+00 0. -1.
</event>
<event>
 7    1  0.1935465E-015  0.9000783E+02  0.7816164E-02  0.1186339E+00
        -11   -1    0    0    0    0  0.00000000000E+00  0.00000000000E+00  0.45593999997E+02  0.45594000000E+02  0.51100000000E-03 0. -1.
         11   -1    0    0    0    0 -0.00000000000E+00 -0.00000000000E+00 -0.45593999997E+02  0.45594000000E+02  0.51100000000E-03 0.  1.
    9900012    2    1    2    0    0  0.29072363170E-01  0.84372504283E+00 -0.82467365558E+00  0.90007828916E+02  0.90000091457E+02 0.  0.
         12    1    1    2    0    0 -0.29072363170E-01 -0.84372504283E+00  0.82467365558E+00  0.11801710844E+01  0.00000000000E+00 0. -1.
         11    1    3    3    0    0 -0.36947601046E+01  0.92430181658E+01 -0.48110846509E+01  0.11055820767E+02  0.51100000000E-03 0. -1.
        -11    1    3    3    0    0 -0.18684289563E+02  0.12948423903E+02 -0.26905919350E+02  0.35223470221E+02  0.51100000000E-03 0.  1.
         12    1    3    3    0    0  0.22408122031E+02 -0.21347717026E+02  0.30892330346E+02  0.43728537928E+02  0.00000000000E+00 0. -1.
</event>
<event>
 7    1  0.1935465E-015  0.9000743E+02  0.7816164E-02  0.1186340E+00
        -11   -1    0    0    0    0  0.00000000000E+00  0.00000000000E+00  0.45593999997E+02  0.45594000000E+02  0.51100000000E-03 0.  1.
         11   -1    0    0    0    0 -0.00000000000E+00 -0.00000000000E+00 -0.45593999997E+02  0.45594000000E+02  0.51100000000E-03 0. -1.
    9900012    2    1    2    0    0 -0.16661300638E+00  0.88926473195E+00  0.75841517761E+00  0.90007430121E+02  0.89999687398E+02 0.  0.
         12    1    1    2    0    0  0.16661300638E+00 -0.88926473195E+00 -0.75841517761E+00  0.11805698789E+01  0.00000000000E+00 0. -1.
         11    1    3    3    0    0 -0.96642310331E+00 -0.59845378553E+01 -0.58324144039E+01  0.84122366227E+01  0.51100000000E-03 0. -1.
        -11    1    3    3    0    0  0.37342480928E+02 -0.13149137142E+02  0.49019738390E+01  0.39892230287E+02  0.51100000000E-03 0.  1.
         12    1    3    3    0    0 -0.36542670832E+02  0.20022939729E+02  0.16888557425E+01  0.41702963212E+02  0.00000000000E+00 0. -1.
</event>
<event>
 7    1  0.1935465E-015  0.9000776E+02  0.7816164E-02  0.1186339E+00
        -11   -1    0    0    0    0  0.00000000000E+00  0.00000000000E+00  0.45593999997E+02  0.45594000000E+02  0.51100000000E-03 0.  1.
         11   -1    0    0    0    0 -0.00000000000E+00 -0.00000000000E+00 -0.45593999997E+02  0.45594000000E+02  0.51100000000E-03 0. -1.
    9900012    2    1    2    0    0 -0.35699049023E+00 -0.96066927127E+00 -0.58535230021E+00  0.90007760628E+02  0.90000022269E+02 0.  0.
         12    1    1    2    0    0  0.35699049023E+00  0.96066927127E+00  0.58535230021E+00  0.11802393716E+01  0.00000000000E+00 0. -1.
         11    1    3    3    0    0 -0.71456359896E+01 -0.70184154100E+01  0.34408746909E+01  0.10590462099E+02  0.51100000000E-03 0. -1.
        -11    1    3    3    0    0  0.32566723255E+02 -0.52771419286E+01  0.23133504334E+02  0.40293904174E+02  0.51100000000E-03 0.  1.
         12    1    3    3    0    0 -0.25778077756E+02  0.11334888067E+02 -0.27159731325E+02  0.39123394356E+02  0.00000000000E+00 0. -1.
</event>
<event>
 7    1  0.1935465E-015  0.9000780E+02  0.7816164E-02  0.1186339E+00
        -11   -1    0    0    0    0  0.00000000000E+00  0.00000000000E+00  0.45593999997E+02  0.45594000000E+02  0.51100000000E-03 0. -1.
         11   -1    0    0    0    0 -0.00000000000E+00 -0.00000000000E+00 -0.45593999997E+02  0.45594000000E+02  0.51100000000E-03 0.  1.
    9900012    2    1    2    0    0 -0.11523242896E+00  0.95320360529E+00  0.68629632465E+00  0.90007797360E+02  0.90000059485E+02 0.  0.
         12    1    1    2    0    0  0.11523242896E+00 -0.95320360529E+00 -0.68629632465E+00  0.11802026398E+01  0.00000000000E+00 0. -1.
         11    1    3    3    0    0  0.13782232455E+02  0.12369275650E+02  0.31437133407E+02  0.36486192849E+02  0.51100000000E-03 0. -1.
        -11    1    3    3    0    0  0.46130447902E+01  0.78948247822E+00  0.77727384866E+01  0.90729779379E+01  0.51100000000E-03 0.  1.
        -12    1    3    3    0    0 -0.18510509674E+02 -0.12205554523E+02 -0.38523575569E+02  0.44448626573E+02  0.00000000000E+00 0.  1.
</event>
<event>
 7    1  0.1935465E-015  0.9000772E+02  0.7816164E-02  0.1186339E+00
        -11   -1    0    0    0    0  0.00000000000E+00  0.00000000000E+00  0.45593999997E+02  0.45594000000E+02  0.51100000000E-03 0.  1.
         11   -1    0    0    0    0 -0.00000000000E+00 -0.00000000000E+00 -0.45593999997E+02  0.45594000000E+02  0.51100000000E-03 0. -1.
    9900012    2    1    2    0    0 -0.13729000948E+00 -0.43854275192E+00  0.10871476576E+01  0.90007721083E+02  0.89999982202E+02 0.  0.
         12    1    1    2    0    0  0.13729000948E+00  0.43854275192E+00 -0.10871476576E+01  0.11802789168E+01  0.00000000000E+00 0. -1.
         11    1    3    3    0    0 -0.56970546096E+01 -0.93165975584E+00  0.73441051623E+01  0.93413222844E+01  0.51100000000E-03 0. -1.
        -11    1    3    3    0    0  0.19911624301E+02 -0.30170495802E+02  0.16639861688E+02  0.39794680505E+02  0.51100000000E-03 0.  1.
         12    1    3    3    0    0 -0.14351859701E+02  0.30663612806E+02 -0.22896819193E+02  0.40871718294E+02  0.00000000000E+00 0. -1.
</event>
<event>
 7    1  0.1935465E-015  0.9000766E+02  0.7816164E-02  0.1186339E+00
        -11   -1    0    0    0    0  0.00000000000E+00  0.00000000000E+00  0.45593999997E+02  0.45594000000E+02  0.51100000000E-03 0.  1.
         11   -1    0    0    0    0 -0.00000000000E+00 -0.00000000000E+00 -0.45593999997E+02  0.45594000000E+02  0.51100000000E-03 0. -1.
    9900012    2    1    2    0    0  0.38362078472E+00  0.44758353823E+00  0.10226000507E+01  0.90007658188E+02  0.89999918476E+02 0.  0.
         12    1    1    2    0    0 -0.38362078472E+00 -0.44758353823E+00 -0.10226000507E+01  0.11803418123E+01  0.00000000000E+00 0. -1.
         11    1    3    3    0    0 -0.57316355904E+01  0.37113748349E+02 -0.10632761664E+02  0.39029957519E+02  0.51100000000E-03 0. -1.
        -11    1    3    3    0    0  0.25950251966E+00  0.60504102987E+01  0.38068626819E+01  0.71531119159E+01  0.51100000000E-03 0.  1.
        -12    1    3    3    0    0  0.58557538554E+01 -0.42716575110E+02  0.78484990323E+01  0.43824588753E+02  0.00000000000E+00 0.  1.
</event>
<event>
 7    1  0.1935465E-015  0.9000776E+02  0.7816164E-02  0.1186339E+00
        -11   -1    0    0    0    0  0.00000000000E+00  0.00000000000E+00  0.45593999997E+02  0.45594000000E+02  0.51100000000E-03 0.  1.
         11   -1    0    0    0    0 -0.00000000000E+00 -0.00000000000E+00 -0.45593999997E+02  0.45594000000E+02  0.51100000000E-03 0. -1.
    9900012    2    1    2    0    0  0.24809577950E+00  0.75153075092E-01  0.11514204185E+01  0.90007759143E+02  0.90000020764E+02 0.  0.
         12    1    1    2    0    0 -0.24809577950E+00 -0.75153075092E-01 -0.11514204185E+01  0.11802408570E+01  0.00000000000E+00 0. -1.
         11    1    3    3    0    0 -0.47826751341E+01  0.55317910404E+01  0.47429505552E+01  0.87160928049E+01  0.51100000000E-03 0. -1.
        -11    1    3    3    0    0 -0.27584571866E+02 -0.85329648696E+01  0.24706641621E+02  0.38001818837E+02  0.51100000000E-03 0.  1.
         12    1    3    3    0    0  0.32615342779E+02  0.30763269043E+01 -0.28298171758E+02  0.43289847501E+02  0.00000000000E+00 0. -1.
</event>
<event>
 7    1  0.1935465E-015  0.9000738E+02  0.7816164E-02  0.1186340E+00
        -11   -1    0    0    0    0  0.00000000000E+00  0.00000000000E+00  0.45593999997E+02  0.45594000000E+02  0.51100000000E-03 0. -1.
         11   -1    0    0    0    0 -0.00000000000E+00 -0.00000000000E+00 -0.45593999997E+02  0.45594000000E+02  0.51100000000E-03 0.  1.
    9900012    2    1    2    0    0  0.10759411150E+01  0.23769085807E+00  0.42392113050E+00  0.90007383487E+02  0.89999640148E+02 0.  0.
         12    1    1    2    0    0 -0.10759411150E+01 -0.23769085807E+00 -0.42392113050E+00  0.11806165135E+01  0.00000000000E+00 0. -1.
         11    1    3    3    0    0 -0.50637376386E+00  0.73612943461E+01  0.75029016886E+01  0.10523241081E+02  0.51100000000E-03 0. -1.
        -11    1    3    3    0    0 -0.42257020120E+01  0.19704204058E+02 -0.34963884465E+02  0.40355736051E+02  0.51100000000E-03 0.  1.
         12    1    3    3    0    0  0.58080168909E+01 -0.26827807546E+02  0.27884903907E+02  0.39128406354E+02  0.00000000000E+00 0. -1.
</event>
<event>
 7    1  0.1935465E-015  0.9000772E+02  0.7816164E-02  0.1186339E+00
        -11   -1    0    0    0    0  0.00000000000E+00  0.00000000000E+00  0.45593999997E+02  0.45594000000E+02  0.51100000000E-03 0. -1.
         11   -1    0    0    0    0 -0.00000000000E+00 -0.00000000000E+00 -0.45593999997E+02  0.45594000000E+02  0.51100000000E-03 0.  1.
    9900012    2    1    2    0    0 -0.11374638050E+01 -0.23509096293E+00 -0.20970874369E+00  0.90007716379E+02  0.89999977435E+02 0.  0.
         12    1    1    2    0    0  0.11374638050E+01  0.23509096293E+00  0.20970874369E+00  0.11802836209E+01  0.00000000000E+00 0. -1.
         11    1    3    3    0    0 -0.16153681446E+00  0.30329959071E+01 -0.87620902901E+01  0.92735853276E+01  0.51100000000E-03 0. -1.
        -11    1    3    3    0    0 -0.37237193479E+02 -0.79533254744E+01 -0.10509516378E+02  0.39500808840E+02  0.51100000000E-03 0.  1.
         12    1    3    3    0    0  0.36261266488E+02  0.46852386043E+01  0.19061897925E+02  0.41233322211E+02  0.00000000000E+00 0. -1.
</event>
<event>
 7    1  0.1935465E-015  0.9000785E+02  0.7816164E-02  0.1186339E+00
        -11   -1    0    0    0    0  0.00000000000E+00  0.00000000000E+00  0.45593999997E+02  0.45594000000E+02  0.51100000000E-03 0.  1.
         11   -1    0    0    0    0 -0.00000000000E+00 -0.00000000000E+00 -0.45593999997E+02  0.45594000000E+02  0.51100000000E-03 0. -1.
    9900012    2    1    2    0    0  0.49125038359E+00  0.10664797557E+01  0.11850775661E+00  0.90007851663E+02  0.90000114505E+02 0.  0.
         12    1    1    2    0    0 -0.49125038359E+00 -0.10664797557E+01 -0.11850775661E+00  0.11801483369E+01  0.00000000000E+00 0. -1.
         11    1    3    3    0    0 -0.12042747859E+01 -0.37359243446E+02  0.25752448733E+01  0.37467255504E+02  0.51100000000E-03 0. -1.
        -11    1    3    3    0    0 -0.48784763280E+01 -0.12697645053E+01  0.93375867775E+01  0.10611425930E+02  0.51100000000E-03 0.  1.
        -12    1    3    3    0    0  0.65740014975E+01  0.39695487707E+02 -0.11794323894E+02  0.41929170229E+02  0.00000000000E+00 0.  1.
</event>
<event>
 7    1  0.1935465E-015  0.9000775E+02  0.7816164E-02  0.1186339E+00
        -11   -1    0    0    0    0  0.00000000000E+00  0.00000000000E+00  0.45593999997E+02  0.45594000000E+02  0.51100000000E-03 0.  1.
         11   -1    0    0    0    0 -0.00000000000E+00 -0.00000000000E+00 -0.45593999997E+02  0.45594000000E+02  0.51100000000E-03 0. -1.
    9900012    2    1    2    0    0  0.58192614196E+00 -0.50744960210E+00 -0.89266383101E+00  0.90007749243E+02  0.90000010733E+02 0.  0.
         12    1    1    2    0    0 -0.58192614196E+00  0.50744960210E+00  0.89266383101E+00  0.11802507566E+01  0.00000000000E+00 0. -1.
         11    1    3    3    0    0  0.10285767812E+02  0.31462058693E+02 -0.20672736676E+02  0.39025891388E+02  0.51100000000E-03 0. -1.
        -11    1    3    3    0    0 -0.22964672279E+01  0.68964813196E+01  0.46119466220E+01  0.86084416839E+01  0.51100000000E-03 0.  1.
        -12    1    3    3    0    0 -0.74073744421E+01 -0.38865989615E+02  0.15168126223E+02  0.42373416171E+02  0.00000000000E+00 0.  1.
</event>
<event>
 7    1  0.1935465E-015  0.9000787E+02  0.7816164E-02  0.1186339E+00
        -11   -1    0    0    0    0  0.00000000000E+00  0.00000000000E+00  0.45593999997E+02  0.45594000000E+02  0.51100000000E-03 0.  1.
         11   -1    0    0    0    0 -0.00000000000E+00 -0.00000000000E+00 -0.45593999997E+02  0.45594000000E+02  0.51100000000E-03 0. -1.
    9900012    2    1    2    0    0 -0.94129973955E+00  0.66852767410E+00  0.24440155886E+00  0.90007870103E+02  0.90000133189E+02 0.  0.
         12    1    1    2    0    0  0.94129973955E+00 -0.66852767410E+00 -0.24440155886E+00  0.11801298965E+01  0.00000000000E+00 0. -1.
         11    1    3    3    0    0 -0.59574521717E+01 -0.81154235657E+01  0.37248034207E+01  0.10734313989E+02  0.51100000000E-03 0. -1.
        -11    1    3    3    0    0  0.85510334793E+01  0.50908086172E+00  0.36911009948E+02  0.37891977945E+02  0.51100000000E-03 0.  1.
         12    1    3    3    0    0 -0.35348810472E+01  0.82748703781E+01 -0.40391411810E+02  0.41381578170E+02  0.00000000000E+00 0. -1.
</event>
<event>
 7    1  0.1935465E-015  0.9000776E+02  0.7816164E-02  0.1186339E+00
        -11   -1    0    0    0    0  0.00000000000E+00  0.00000000000E+00  0.45593999997E+02  0.45594000000E+02  0.51100000000E-03 0.  1.
         11   -1    0    0    0    0 -0.00000000000E+00 -0.00000000000E+00 -0.45593999997E+02  0.45594000000E+02  0.51100000000E-03 0. -1.
    9900012    2    1    2    0    0  0.11115864839E+01  0.51771719645E-01  0.39327993667E+00  0.90007756834E+02  0.90000018424E+02 0.  0.
         12    1    1    2    0    0 -0.11115864839E+01 -0.51771719645E-01 -0.39327993667E+00  0.11802431659E+01  0.00000000000E+00 0. -1.
         11    1    3    3    0    0 -0.26515340765E+01 -0.56256109121E+01 -0.81736726930E+01  0.10270689200E+02  0.51100000000E-03 0. -1.
        -11    1    3    3    0    0 -0.16281983973E+02  0.37192659490E+02 -0.27967580517E+01  0.40696667897E+02  0.51100000000E-03 0.  1.
         12    1    3    3    0    0  0.20045104533E+02 -0.31515276858E+02  0.11363710681E+02  0.39040399737E+02  0.00000000000E+00 0. -1.
</event>
<event>
 7    1  0.1935465E-015  0.9000770E+02  0.7816164E-02  0.1186339E+00
        -11   -1    0    0    0    0  0.00000000000E+00  0.00000000000E+00  0.45593999997E+02  0.45594000000E+02  0.51100000000E-03 0. -1.
         11   -1    0    0    0    0 -0.00000000000E+00 -0.00000000000E+00 -0.45593999997E+02  0.45594000000E+02  0.51100000000E-03 0.  1.
    9900012    2    1    2    0    0  0.45881502590E+00  0.81823552306E+00 -0.71629433120E+00  0.90007704203E+02  0.89999965099E+02 0.  0.
         12    1    1    2    0    0 -0.45881502590E+00 -0.81823552306E+00  0.71629433120E+00  0.11802957969E+01  0.00000000000E+00 0. -1.
         11    1    3    3    0    0  0.13268048942E+01  0.42730927389E+02  0.11844412179E+02  0.44361950666E+02  0.51100000000E-03 0. -1.
        -11    1    3    3    0    0 -0.38398778319E+00 -0.85273107368E+01  0.26746147048E+01  0.89451684780E+01  0.51100000000E-03 0.  1.
        -12    1    3    3    0    0 -0.48400208507E+00 -0.33385381129E+02 -0.15235321215E+02  0.36700585059E+02  0.00000000000E+00 0.  1.
</event>
<event>
 7    1  0.1935465E-015  0.9000780E+02  0.7816164E-02  0.1186339E+00
        -11   -1    0    0    0    0  0.00000000000E+00  0.00000000000E+00  0.45593999997E+02  0.45594000000E+02  0.51100000000E-03 0.  1.
         11   -1    0    0    0    0 -0.00000000000E+00 -0.00000000000E+00 -0.45593999997E+02  0.45594000000E+02  0.51100000000E-03 0. -1.
    9900012    2    1    2    0    0 -0.63027723987E+00  0.95369905432E+00 -0.29337567723E+00  0.90007804858E+02  0.90000067082E+02 0.  0.
         12    1    1    2    0    0  0.63027723987E+00 -0.95369905432E+00  0.29337567723E+00  0.11801951420E+01  0.00000000000E+00 0. -1.
         11    1    3    3    0    0 -0.13113286854E+02 -0.73539747277E+01 -0.31592989757E+02  0.34987944188E+02  0.51100000000E-03 0. -1.
        -11    1    3    3    0    0 -0.24405498311E+00 -0.23849558422E+01 -0.10114274602E+02  0.10394523952E+02  0.51100000000E-03 0.  1.
        -12    1    3    3    0    0  0.12727064597E+02  0.10692629624E+02  0.41413888682E+02  0.44625336719E+02  0.00000000000E+00 0.  1.
</event>
<event>
 7    1  0.1935465E-015  0.9000774E+02  0.7816164E-02  0.1186339E+00
        -11   -1    0    0    0    0  0.00000000000E+00  0.00000000000E+00  0.45593999997E+02  0.45594000000E+02  0.51100000000E-03 0. -1.
         11   -1    0    0    0    0 -0.00000000000E+00 -0.00000000000E+00 -0.45593999997E+02  0.45594000000E+02  0.51100000000E-03 0.  1.
    9900012    2    1    2    0    0  0.43773991868E+00  0.10851996945E+01 -0.15407465713E+00  0.90007740023E+02  0.90000001391E+02 0.  0.
         12    1    1    2    0    0 -0.43773991868E+00 -0.10851996945E+01  0.15407465713E+00  0.11802599770E+01  0.00000000000E+00 0. -1.
         11    1    3    3    0    0 -0.31203850745E+02 -0.81980291416E+01  0.16238136774E+02  0.36118763396E+02  0.51100000000E-03 0. -1.
        -11    1    3    3    0    0 -0.62513647655E+01  0.89353394857E+00  0.63091933836E+01  0.89265830956E+01  0.51100000000E-03 0.  1.
        -12    1    3    3    0    0  0.37892955430E+02  0.83896948875E+01 -0.22701404814E+02  0.44962393531E+02  0.00000000000E+00 0.  1.
</event>
<event>
 7    1  0.1935465E-015  0.9000735E+02  0.7816164E-02  0.1186340E+00
        -11   -1    0    0    0    0  0.00000000000E+00  0.00000000000E+00  0.45593999997E+02  0.45594000000E+02  0.51100000000E-03 0.  1.
         11   -1    0    0    0    0 -0.00000000000E+00 -0.00000000000E+00 -0.45593999997E+02  0.45594000000E+02  0.51100000000E-03 0. -1.
    9900012    2    1    2    0    0 -0.85016235975E+00 -0.81254257190E+00 -0.10450528062E+00  0.90007354912E+02  0.89999611196E+02 0.  0.
         12    1    1    2    0    0  0.85016235975E+00  0.81254257190E+00  0.10450528062E+00  0.11806450875E+01  0.00000000000E+00 0. -1.
         11    1    3    3    0    0  0.24743035477E+02 -0.21677213445E+02 -0.26901956708E+02  0.42495113393E+02  0.51100000000E-03 0. -1.
        -11    1    3    3    0    0  0.31507822027E+00 -0.65197790116E+00  0.97290862606E+01  0.97559965763E+01  0.51100000000E-03 0.  1.
        -12    1    3    3    0    0 -0.25908276057E+02  0.21516648774E+02  0.17068365166E+02  0.37756244943E+02  0.00000000000E+00 0.  1.
</event>
<event>
 7    1  0.1935465E-015  0.9000774E+02  0.7816164E-02  0.1186339E+00
        -11   -1    0    0    0    0  0.00000000000E+00  0.00000000000E+00  0.45593999997E+02  0.45594000000E+02  0.51100000000E-03 0.  1.
         11   -1    0    0    0    0 -0.00000000000E+00 -0.00000000000E+00 -0.45593999997E+02  0.45594000000E+02  0.51100000000E-03 0. -1.
    9900012    2    1    2    0    0  0.62578904302E+00  0.92883655790E+00  0.37236857904E+00  0.90007742555E+02  0.90000003957E+02 0.  0.
         12    1    1    2    0    0 -0.62578904302E+00 -0.92883655790E+00 -0.37236857904E+00  0.11802574449E+01  0.00000000000E+00 0. -1.
         11    1    3    3    0    0  0.85557023496E+01  0.58559981095E+01  0.16029856356E+01  0.10491059039E+02  0.51100000000E-03 0. -1.
        -11    1    3    3    0    0  0.33691355323E+02  0.36142198319E+01  0.10436164807E+02  0.35455373988E+02  0.51100000000E-03 0.  1.
         12    1    3    3    0    0 -0.41621268629E+02 -0.85413813835E+01 -0.11666781864E+02  0.44061309528E+02  0.00000000000E+00 0. -1.
</event>
<event>
 7    1  0.1935465E-015  0.9000773E+02  0.7816164E-02  0.1186339E+00
        -11   -1    0    0    0    0  0.00000000000E+00  0.00000000000E+00  0.45593999997E+02  0.45594000000E+02  0.51100000000E-03 0.  1.
         11   -1    0    0    0    0 -0.00000000000E+00 -0.00000000000E+00 -0.45593999997E+02  0.45594000000E+02  0.51100000000E-03 0. -1.
    9900012    2    1    2    0    0  0.58646783760E+00  0.64843167549E+00  0.79286472087E+00  0.90007727731E+02  0.89999988938E+02 0.  0.
         12    1    1    2    0    0 -0.58646783760E+00 -0.64843167549E+00 -0.79286472087E+00  0.11802722686E+01  0.00000000000E+00 0. -1.
         11    1    3    3    0    0  0.25595848445E+02  0.27924003499E+02  0.89248109260E+01  0.38917215719E+02  0.51100000000E-03 0. -1.
        -11    1    3    3    0    0 -0.49166972760E+01  0.82342932419E+01 -0.24312188335E+01  0.98938527670E+01  0.51100000000E-03 0.  1.
        -12    1    3    3    0    0 -0.20092683332E+02 -0.35509865065E+02 -0.57007273716E+01  0.41196659245E+02  0.00000000000E+00 0.  1.
</event>
<event>
 7    1  0.1935465E-015  0.9000780E+02  0.7816164E-02  0.1186339E+00
        -11   -1    0    0    0    0  0.00000000000E+00  0.00000000000E+00  0.45593999997E+02  0.45594000000E+02  0.51100000000E-03 0. -1.
         11   -1    0    0    0    0 -0.00000000000E+00 -0.00000000000E+00 -0.45593999997E+02  0.45594000000E+02  0.51100000000E-03 0.  1.
    9900012    2    1    2    0    0  0.96896915729E+00 -0.64982974711E+00 -0.17803018558E+00  0.90007798884E+02  0.90000061029E+02 0.  0.
         12    1    1    2    0    0 -0.96896915729E+00  0.64982974711E+00  0.17803018558E+00  0.11802011163E+01  0.00000000000E+00 0. -1.
         11    1    3    3    0    0  0.24417544039E+02  0.17487498571E+02 -0.21714276458E+02  0.37061285265E+02  0.51100000000E-03 0. -1.
        -11    1    3    3    0    0  0.18601673556E+01  0.10906271187E+00 -0.90587999393E+01  0.92484579183E+01  0.51100000000E-03 0.  1.
        -12    1    3    3    0    0 -0.25308742237E+02 -0.18246391030E+02  0.30595046212E+02  0.43698055700E+02  0.00000000000E+00 0.  1.
</event>
<event>
 7    1  0.1935465E-015  0.9000773E+02  0.7816164E-02  0.1186339E+00
        -11   -1    0    0    0    0  0.00000000000E+00  0.00000000000E+00  0.45593999997E+02  0.45594000000E+02  0.51100000000E-03 0. -1.
         11   -1    0    0    0    0 -0.00000000000E+00 -0.00000000000E+00 -0.45593999997E+02  0.45594000000E+02  0.51100000000E-03 0.  1.
    9900012    2    1    2    0    0  0.27233249598E+00  0.11227440785E+01 -0.24149198808E+00  0.90007729847E+02  0.89999991081E+02 0.  0.
         12    1    1    2    0    0 -0.27233249598E+00 -0.11227440785E+01  0.24149198808E+00  0.11802701532E+01  0.00000000000E+00 0. -1.
         11    1    3    3    0    0 -0.27336273128E+02 -0.15952270245E+02  0.95255697325E+01  0.33052734131E+02  0.51100000000E-03 0. -1.
        -11    1    3    3    0    0 -0.80896050990E+01 -0.82954084952E+01  0.16304047711E+01  0.11701014176E+02  0.51100000000E-03 0.  1.
        -12    1    3    3    0    0  0.35698210723E+02  0.25370422819E+02 -0.11397466492E+02  0.45253981541E+02  0.00000000000E+00 0.  1.
</event>
<event>
 7    1  0.1935465E-015  0.9000778E+02  0.7816164E-02  0.1186339E+00
        -11   -1    0    0    0    0  0.00000000000E+00  0.00000000000E+00  0.45593999997E+02  0.45594000000E+02  0.51100000000E-03 0. -1.
         11   -1    0    0    0    0 -0.00000000000E+00 -0.00000000000E+00 -0.45593999997E+02  0.45594000000E+02  0.51100000000E-03 0.  1.
    9900012    2    1    2    0    0  0.10012351156E-01  0.65619623885E+00 -0.98092888311E+00  0.90007781705E+02  0.90000043623E+02 0.  0.
         12    1    1    2    0    0 -0.10012351156E-01 -0.65619623885E+00  0.98092888311E+00  0.11802182954E+01  0.00000000000E+00 0. -1.
         11    1    3    3    0    0  0.25642282342E+01  0.32215686277E+02  0.26442876484E+02  0.41757052407E+02  0.51100000000E-03 0. -1.
        -11    1    3    3    0    0 -0.70172185482E+00  0.16291875623E+01 -0.11059066314E+02  0.11200429173E+02  0.51100000000E-03 0.  1.
        -12    1    3    3    0    0 -0.18524940282E+01 -0.33188677600E+02 -0.16364739053E+02  0.37050300124E+02  0.00000000000E+00 0.  1.
</event>
<event>
 7    1  0.1935465E-015  0.9000768E+02  0.7816164E-02  0.1186339E+00
        -11   -1    0    0    0    0  0.00000000000E+00  0.00000000000E+00  0.45593999997E+02  0.45594000000E+02  0.51100000000E-03 0. -1.
         11   -1    0    0    0    0 -0.00000000000E+00 -0.00000000000E+00 -0.45593999997E+02  0.45594000000E+02  0.51100000000E-03 0.  1.
    9900012    2    1    2    0    0 -0.15976300670E+00 -0.11407169112E+01 -0.25767999696E+00  0.90007678743E+02  0.89999939302E+02 0.  0.
         12    1    1    2    0    0  0.15976300670E+00  0.11407169112E+01  0.25767999696E+00  0.11803212574E+01  0.00000000000E+00 0. -1.
         11    1    3    3    0    0  0.21578205825E+01 -0.93874060638E+01  0.23527047042E+01  0.99153820884E+01  0.51100000000E-03 0. -1.
        -11    1    3    3    0    0 -0.22610459112E+02 -0.28986646465E+02  0.47036375264E+01  0.37061877189E+02  0.51100000000E-03 0.  1.
         12    1    3    3    0    0  0.20292875523E+02  0.37233335617E+02 -0.73140222275E+01  0.43030419465E+02  0.00000000000E+00 0. -1.
</event>
<event>
 7    1  0.1935465E-015  0.9000783E+02  0.7816164E-02  0.1186339E+00
        -11   -1    0    0    0    0  0.00000000000E+00  0.00000000000E+00  0.45593999997E+02  0.45594000000E+02  0.51100000000E-03 0.  1.
         11   -1    0    0    0    0 -0.00000000000E+00 -0.00000000000E+00 -0.45593999997E+02  0.45594000000E+02  0.51100000000E-03 0. -1.
    9900012    2    1    2    0    0 -0.73966758676E+00  0.69721263742E+00  0.59965414179E+00  0.90007831075E+02  0.90000093646E+02 0.  0.
         12    1    1    2    0    0  0.73966758676E+00 -0.69721263742E+00 -0.59965414179E+00  0.11801689245E+01  0.00000000000E+00 0. -1.
         11    1    3    3    0    0  0.13356860002E+01  0.69856366377E+01 -0.10014957372E+02  0.12283425734E+02  0.51100000000E-03 0. -1.
        -11    1    3    3    0    0  0.25469502608E+02 -0.59827370026E+01  0.33082150019E+02  0.42177213697E+02  0.51100000000E-03 0.  1.
         12    1    3    3    0    0 -0.27544856195E+02 -0.30568699773E+00 -0.22467538505E+02  0.35547191645E+02  0.00000000000E+00 0. -1.
</event>
<event>
 7    1  0.1935465E-015  0.9000776E+02  0.7816164E-02  0.1186339E+00
        -11   -1    0    0    0    0  0.00000000000E+00  0.00000000000E+00  0.45593999997E+02  0.45594000000E+02  0.51100000000E-03 0.  1.
         11   -1    0    0    0    0 -0.00000000000E+00 -0.00000000000E+00 -0.45593999997E+02  0.45594000000E+02  0.51100000000E-03 0. -1.
    9900012    2    1    2    0    0  0.12234879617E+00 -0.11356645007E+01 -0.29709880560E+00  0.90007758166E+02  0.90000019774E+02 0.  0.
         12    1    1    2    0    0 -0.12234879617E+00  0.11356645007E+01  0.29709880560E+00  0.11802418338E+01  0.00000000000E+00 0. -1.
         11    1    3    3    0    0 -0.89516080702E+01 -0.55094078115E+01  0.30405524028E+01  0.10942112257E+02  0.51100000000E-03 0. -1.
        -11    1    3    3    0    0  0.98588549943E+01  0.20286630802E+02  0.32664763445E+02  0.39695480628E+02  0.51100000000E-03 0.  1.
         12    1    3    3    0    0 -0.78489812792E+00 -0.15912887491E+02 -0.36002414653E+02  0.39370165281E+02  0.00000000000E+00 0. -1.
</event>
<event>
 7    1  0.1935465E-015  0.9000757E+02  0.7816164E-02  0.1186339E+00
        -11   -1    0    0    0    0  0.00000000000E+00  0.00000000000E+00  0.45593999997E+02  0.45594000000E+02  0.51100000000E-03 0.  1.
         11   -1    0    0    0    0 -0.00000000000E+00 -0.00000000000E+00 -0.45593999997E+02  0.45594000000E+02  0.51100000000E-03 0. -1.
    9900012    2    1    2    0    0  0.25061962827E+00 -0.92588483016E-01  0.11497974942E+01  0.90007569103E+02  0.89999828215E+02 0.  0.
         12    1    1    2    0    0 -0.25061962827E+00  0.92588483016E-01 -0.11497974942E+01  0.11804308972E+01  0.00000000000E+00 0. -1.
         11    1    3    3    0    0 -0.25970165817E+02  0.21315949578E+02 -0.17029720230E+02  0.37667367712E+02  0.51100000000E-03 0. -1.
        -11    1    3    3    0    0 -0.96547019612E+00  0.83968097915E+01  0.53696153714E+01  0.10013556654E+02  0.51100000000E-03 0.  1.
        -12    1    3    3    0    0  0.27186255641E+02 -0.29805347853E+02  0.12809902353E+02  0.42326644737E+02  0.00000000000E+00 0.  1.
</event>
<event>
 7    1  0.1935465E-015  0.9000774E+02  0.7816164E-02  0.1186339E+00
        -11   -1    0    0    0    0  0.00000000000E+00  0.00000000000E+00  0.45593999997E+02  0.45594000000E+02  0.51100000000E-03 0. -1.
         11   -1    0    0    0    0 -0.00000000000E+00 -0.00000000000E+00 -0.45593999997E+02  0.45594000000E+02  0.51100000000E-03 0.  1.
    9900012    2    1    2    0    0  0.84961718301E+00  0.68172007064E+00  0.45433294195E+00  0.90007741539E+02  0.90000002927E+02 0.  0.
         12    1    1    2    0    0 -0.84961718301E+00 -0.68172007064E+00 -0.45433294195E+00  0.11802584609E+01  0.00000000000E+00 0. -1.
         11    1    3    3    0    0 -0.19894299699E+02 -0.25854477530E+02 -0.15278705359E+02  0.36023270348E+02  0.51100000000E-03 0. -1.
        -11    1    3    3    0    0 -0.97022008818E+01  0.34949145155E-01  0.86602105201E+01  0.13005120911E+02  0.51100000000E-03 0.  1.
        -12    1    3    3    0    0  0.30446117764E+02  0.26501248455E+02  0.70728277813E+01  0.40979350280E+02  0.00000000000E+00 0.  1.
</event>
<event>
 7    1  0.1935465E-015  0.9000779E+02  0.7816164E-02  0.1186339E+00
        -11   -1    0    0    0    0  0.00000000000E+00  0.00000000000E+00  0.45593999997E+02  0.45594000000E+02  0.51100000000E-03 0.  1.
         11   -1    0    0    0    0 -0.00000000000E+00 -0.00000000000E+00 -0.45593999997E+02  0.45594000000E+02  0.51100000000E-03 0. -1.
    9900012    2    1    2    0    0  0.11421817193E+01 -0.22099073102E+00 -0.19867390505E+00  0.90007793533E+02  0.90000055608E+02 0.  0.
         12    1    1    2    0    0 -0.11421817193E+01  0.22099073102E+00  0.19867390505E+00  0.11802064666E+01  0.00000000000E+00 0. -1.
         11    1    3    3    0    0  0.30373180741E+02  0.84701447752E+01 -0.19994477465E+02  0.37337013676E+02  0.51100000000E-03 0. -1.
        -11    1    3    3    0    0  0.53305109516E+01 -0.67450281438E+01 -0.51326501035E+01  0.10012684406E+02  0.51100000000E-03 0.  1.
        -12    1    3    3    0    0 -0.34561509973E+02 -0.19461073624E+01  0.24928453664E+02  0.42658095452E+02  0.00000000000E+00 0.  1.
</event>
<event>
 7    1  0.1935465E-015  0.9000752E+02  0.7816164E-02  0.1186339E+00
        -11   -1    0    0    0    0  0.00000000000E+00  0.00000000000E+00  0.45593999997E+02  0.45594000000E+02  0.51100000000E-03 0.  1.
         11   -1    0    0    0    0 -0.00000000000E+00 -0.00000000000E+00 -0.45593999997E+02  0.45594000000E+02  0.51100000000E-03 0. -1.
    9900012    2    1    2    0    0  0.98875529920E+00 -0.61384115021E+00 -0.19773237883E+00  0.90007518703E+02  0.89999777149E+02 0.  0.
         12    1    1    2    0    0 -0.98875529920E+00  0.61384115021E+00  0.19773237883E+00  0.11804812972E+01  0.00000000000E+00 0. -1.
         11    1    3    3    0    0 -0.33213055934E+02 -0.14868702859E+02 -0.17051748783E+02  0.40186409967E+02  0.51100000000E-03 0. -1.
        -11    1    3    3    0    0 -0.34755056715E+01  0.77540635933E+01  0.15479407265E+01  0.86371733013E+01  0.51100000000E-03 0.  1.
        -12    1    3    3    0    0  0.37677316904E+02  0.65007981157E+01  0.15306075678E+02  0.41183935435E+02  0.00000000000E+00 0.  1.
</event>
<event>
 7    1  0.1935465E-015  0.9000774E+02  0.7816164E-02  0.1186339E+00
        -11   -1    0    0    0    0  0.00000000000E+00  0.00000000000E+00  0.45593999997E+02  0.45594000000E+02  0.51100000000E-03 0.  1.
         11   -1    0    0    0    0 -0.00000000000E+00 -0.00000000000E+00 -0.45593999997E+02  0.45594000000E+02  0.51100000000E-03 0. -1.
    9900012    2    1    2    0    0 -0.28450284507E+00 -0.10537734270E+01 -0.44903687026E+00  0.90007739683E+02  0.90000001047E+02 0.  0.
         12    1    1    2    0    0  0.28450284507E+00  0.10537734270E+01  0.44903687026E+00  0.11802603167E+01  0.00000000000E+00 0. -1.
         11    1    3    3    0    0 -0.45717012564E+01 -0.12063970483E+02  0.20850114421E+01  0.13068554211E+02  0.51100000000E-03 0. -1.
        -11    1    3    3    0    0  0.15128345496E+02  0.97752690389E+01  0.34181431566E+02  0.38636679288E+02  0.51100000000E-03 0.  1.
         12    1    3    3    0    0 -0.10841147084E+02  0.12349280172E+01 -0.36715479878E+02  0.38302506184E+02  0.00000000000E+00 0. -1.
</event>
<event>
 7    1  0.1935465E-015  0.9000775E+02  0.7816164E-02  0.1186339E+00
        -11   -1    0    0    0    0  0.00000000000E+00  0.00000000000E+00  0.45593999997E+02  0.45594000000E+02  0.51100000000E-03 0.  1.
         11   -1    0    0    0    0 -0.00000000000E+00 -0.00000000000E+00 -0.45593999997E+02  0.45594000000E+02  0.51100000000E-03 0. -1.
    9900012    2    1    2    0    0  0.60085260810E+00  0.72908450859E+00  0.70738329296E+00  0.90007754602E+02  0.90000016162E+02 0.  0.
         12    1    1    2    0    0 -0.60085260810E+00 -0.72908450859E+00 -0.70738329296E+00  0.11802453984E+01  0.00000000000E+00 0. -1.
         11    1    3    3    0    0 -0.84346861324E+01  0.70792382004E+01 -0.10896882310E+01  0.11065575645E+02  0.51100000000E-03 0. -1.
        -11    1    3    3    0    0  0.56536809904E+01  0.32209829322E+02 -0.15920847820E+02  0.36371838134E+02  0.51100000000E-03 0.  1.
         12    1    3    3    0    0  0.33818577501E+01 -0.38559983014E+02  0.17717919344E+02  0.42570340822E+02  0.00000000000E+00 0. -1.
</event>
<event>
 7    1  0.1935465E-015  0.9000774E+02  0.7816164E-02  0.1186339E+00
        -11   -1    0    0    0    0  0.00000000000E+00  0.00000000000E+00  0.45593999997E+02  0.45594000000E+02  0.51100000000E-03 0.  1.
         11   -1    0    0    0    0 -0.00000000000E+00 -0.00000000000E+00 -0.45593999997E+02  0.45594000000E+02  0.51100000000E-03 0. -1.
    9900012    2    1    2    0    0  0.40275026267E+00 -0.86086173376E+00  0.69980484807E+00  0.90007738366E+02  0.89999999713E+02 0.  0.
         12    1    1    2    0    0 -0.40275026267E+00  0.86086173376E+00 -0.69980484807E+00  0.11802616338E+01  0.00000000000E+00 0. -1.
         11    1    3    3    0    0  0.54810657824E+01 -0.53396949458E+01 -0.37103861347E+01  0.85041983605E+01  0.51100000000E-03 0. -1.
        -11    1    3    3    0    0 -0.17321630701E+02 -0.12352288924E+02  0.37090194227E+02  0.42758630004E+02  0.51100000000E-03 0.  1.
         12    1    3    3    0    0  0.12243315182E+02  0.16831122136E+02 -0.32680003244E+02  0.38744910001E+02  0.00000000000E+00 0. -1.
</event>
<event>
 7    1  0.1935465E-015  0.9000774E+02  0.7816164E-02  0.1186339E+00
        -11   -1    0    0    0    0  0.00000000000E+00  0.00000000000E+00  0.45593999997E+02  0.45594000000E+02  0.51100000000E-03 0.  1.
         11   -1    0    0    0    0 -0.00000000000E+00 -0.00000000000E+00 -0.45593999997E+02  0.45594000000E+02  0.51100000000E-03 0. -1.
    9900012    2    1    2    0    0 -0.10891926502E+00 -0.10582162935E+01  0.51120041194E+00  0.90007741134E+02  0.90000002517E+02 0.  0.
         12    1    1    2    0    0  0.10891926502E+00  0.10582162935E+01 -0.51120041194E+00  0.11802588663E+01  0.00000000000E+00 0. -1.
         11    1    3    3    0    0  0.40475387658E+02  0.18298411982E+01 -0.55730035905E+01  0.40898211381E+02  0.51100000000E-03 0. -1.
        -11    1    3    3    0    0 -0.19940605589E+01 -0.10524233540E+01  0.10024768427E+02  0.10275205823E+02  0.51100000000E-03 0.  1.
        -12    1    3    3    0    0 -0.38590246364E+02 -0.18356341378E+01 -0.39405644244E+01  0.38834323930E+02  0.00000000000E+00 0.  1.
</event>
<event>
 7    1  0.1935465E-015  0.9000765E+02  0.7816164E-02  0.1186339E+00
        -11   -1    0    0    0    0  0.00000000000E+00  0.00000000000E+00  0.45593999997E+02  0.45594000000E+02  0.51100000000E-03 0. -1.
         11   -1    0    0    0    0 -0.00000000000E+00 -0.00000000000E+00 -0.45593999997E+02  0.45594000000E+02  0.51100000000E-03 0.  1.
    9900012    2    1    2    0    0 -0.82771716689E+00  0.81052471668E+00  0.22620891422E+00  0.90007645605E+02  0.89999905727E+02 0.  0.
         12    1    1    2    0    0  0.82771716689E+00 -0.81052471668E+00 -0.22620891422E+00  0.11803543949E+01  0.00000000000E+00 0. -1.
         11    1    3    3    0    0 -0.11144534926E+02 -0.34837978265E+02  0.28427727120E+01  0.36687419441E+02  0.51100000000E-03 0. -1.
        -11    1    3    3    0    0 -0.32680908900E+01 -0.67391498061E+01  0.37155012319E+01  0.83607121611E+01  0.51100000000E-03 0.  1.
        -12    1    3    3    0    0  0.13584908649E+02  0.42387652787E+02 -0.63320650297E+01  0.44959514003E+02  0.00000000000E+00 0.  1.
</event>
<event>
 7    1  0.1935465E-015  0.9000772E+02  0.7816164E-02  0.1186339E+00
        -11   -1    0    0    0    0  0.00000000000E+00  0.00000000000E+00  0.45593999997E+02  0.45594000000E+02  0.51100000000E-03 0. -1.
         11   -1    0    0    0    0 -0.00000000000E+00 -0.00000000000E+00 -0.45593999997E+02  0.45594000000E+02  0.51100000000E-03 0.  1.
    9900012    2    1    2    0    0 -0.63705570788E+00  0.55177740578E+00 -0.82629050671E+00  0.90007722794E+02  0.89999983935E+02 0.  0.
         12    1    1    2    0    0  0.63705570788E+00 -0.55177740578E+00  0.82629050671E+00  0.11802772056E+01  0.00000000000E+00 0. -1.
         11    1    3    3    0    0 -0.19684977697E+02 -0.80737432009E+01  0.34914487853E+02  0.40886490905E+02  0.51100000000E-03 0. -1.
        -11    1    3    3    0    0  0.39094615713E+01 -0.63610223327E+01  0.55062016847E-01  0.74665605858E+01  0.51100000000E-03 0.  1.
        -12    1    3    3    0    0  0.15138460418E+02  0.14986542939E+02 -0.35795840377E+02  0.41654671303E+02  0.00000000000E+00 0.  1.
</event>
<event>
 7    1  0.1935465E-015  0.9000771E+02  0.7816164E-02  0.1186339E+00
        -11   -1    0    0    0    0  0.00000000000E+00  0.00000000000E+00  0.45593999997E+02  0.45594000000E+02  0.51100000000E-03 0. -1.
         11   -1    0    0    0    0 -0.00000000000E+00 -0.00000000000E+00 -0.45593999997E+02  0.45594000000E+02  0.51100000000E-03 0.  1.
    9900012    2    1    2    0    0 -0.40360173445E-01  0.10883857845E+01  0.45483920188E+00  0.90007707130E+02  0.89999968064E+02 0.  0.
         12    1    1    2    0    0  0.40360173445E-01 -0.10883857845E+01 -0.45483920188E+00  0.11802928700E+01  0.00000000000E+00 0. -1.
         11    1    3    3    0    0  0.23173310577E+01  0.42277290282E+02  0.42544532688E+01  0.42553961856E+02  0.51100000000E-03 0. -1.
        -11    1    3    3    0    0 -0.28624790213E+01 -0.64648787326E+01  0.80927751657E+01  0.10746229726E+02  0.51100000000E-03 0.  1.
        -12    1    3    3    0    0  0.50478779019E+00 -0.34724025765E+02 -0.11892389233E+02  0.36707515548E+02  0.00000000000E+00 0.  1.
</event>
<event>
 7    1  0.1935465E-015  0.9000779E+02  0.7816164E-02  0.1186339E+00
        -11   -1    0    0    0    0  0.00000000000E+00  0.00000000000E+00  0.45593999997E+02  0.45594000000E+02  0.51100000000E-03 0.  1.
         11   -1    0    0    0    0 -0.00000000000E+00 -0.00000000000E+00 -0.45593999997E+02  0.45594000000E+02  0.51100000000E-03 0. -1.
    9900012    2    1    2    0    0 -0.70357990346E+00  0.96384979173E-01  0.94264402343E+00  0.90007791332E+02  0.90000053378E+02 0.  0.
         12    1    1    2    0    0  0.70357990346E+00 -0.96384979173E-01 -0.94264402343E+00  0.11802086679E+01  0.00000000000E+00 0. -1.
         11    1    3    3    0    0 -0.95256260016E+01  0.35301084405E+02  0.82387074322E-01  0.36563792182E+02  0.51100000000E-03 0. -1.
        -11    1    3    3    0    0 -0.31345423355E+01  0.61913824748E+01 -0.67590672733E+01  0.96872887470E+01  0.51100000000E-03 0.  1.
        -12    1    3    3    0    0  0.11956588434E+02 -0.41396081900E+02  0.76193242224E+01  0.43756710403E+02  0.00000000000E+00 0.  1.
</event>
<event>
 7    1  0.1935465E-015  0.9000773E+02  0.7816164E-02  0.1186339E+00
        -11   -1    0    0    0    0  0.00000000000E+00  0.00000000000E+00  0.45593999997E+02  0.45594000000E+02  0.51100000000E-03 0.  1.
         11   -1    0    0    0    0 -0.00000000000E+00 -0.00000000000E+00 -0.45593999997E+02  0.45594000000E+02  0.51100000000E-03 0. -1.
    9900012    2    1    2    0    0 -0.10220945464E+01 -0.49391589468E+00 -0.32311660295E+00  0.90007731170E+02  0.89999992421E+02 0.  0.
         12    1    1    2    0    0  0.10220945464E+01  0.49391589468E+00  0.32311660295E+00  0.11802688303E+01  0.00000000000E+00 0. -1.
         11    1    3    3    0    0  0.76977402209E+01  0.10748932175E+01 -0.14711950227E+02  0.16638872549E+02  0.51100000000E-03 0. -1.
        -11    1    3    3    0    0 -0.25306430934E+02 -0.81306608830E+01 -0.20909829959E+02  0.33819285655E+02  0.51100000000E-03 0.  1.
         12    1    3    3    0    0  0.16586596167E+02  0.65618517708E+01  0.35298663583E+02  0.39549572966E+02  0.00000000000E+00 0. -1.
</event>
<event>
 7    1  0.1935465E-015  0.9000770E+02  0.7816164E-02  0.1186339E+00
        -11   -1    0    0    0    0  0.00000000000E+00  0.00000000000E+00  0.45593999997E+02  0.45594000000E+02  0.51100000000E-03 0.  1.
         11   -1    0    0    0    0 -0.00000000000E+00 -0.00000000000E+00 -0.45593999997E+02  0.45594000000E+02  0.51100000000E-03 0. -1.
    9900012    2    1    2    0    0  0.46108980558E+00 -0.36365981316E+00  0.10238492824E+01  0.90007695115E+02  0.89999955890E+02 0.  0.
         12    1    1    2    0    0 -0.46108980558E+00  0.36365981316E+00 -0.10238492824E+01  0.11803048850E+01  0.00000000000E+00 0. -1.
         11    1    3    3    0    0  0.99237658688E+01  0.31644251032E+02 -0.19348627646E+02  0.38395431296E+02  0.51100000000E-03 0. -1.
        -11    1    3    3    0    0  0.70027666945E+01  0.34156904407E+01  0.65393891115E+01  0.10171985685E+02  0.51100000000E-03 0.  1.
        -12    1    3    3    0    0 -0.16465442758E+02 -0.35423601286E+02  0.13833087817E+02  0.41440278134E+02  0.00000000000E+00 0.  1.
</event>
<event>
 7    1  0.1935465E-015  0.9000771E+02  0.7816164E-02  0.1186339E+00
        -11   -1    0    0    0    0  0.00000000000E+00  0.00000000000E+00  0.45593999997E+02  0.45594000000E+02  0.51100000000E-03 0. -1.
         11   -1    0    0    0    0 -0.00000000000E+00 -0.00000000000E+00 -0.45593999997E+02  0.45594000000E+02  0.51100000000E-03 0.  1.
    9900012    2    1    2    0    0  0.11286435415E+01 -0.12505698987E+00  0.32188867121E+00  0.90007708591E+02  0.89999969544E+02 0.  0.
         12    1    1    2    0    0 -0.11286435415E+01  0.12505698987E+00 -0.32188867121E+00  0.11802914095E+01  0.00000000000E+00 0. -1.
         11    1    3    3    0    0 -0.90901416754E+01 -0.26176362107E+01  0.28275495667E+01  0.98730811717E+01  0.51100000000E-03 0. -1.
        -11    1    3    3    0    0 -0.30357512294E+02  0.58801562252E+01 -0.18900247299E+02  0.36240504110E+02  0.51100000000E-03 0.  1.
         12    1    3    3    0    0  0.40576297511E+02 -0.33875770043E+01  0.16394586404E+02  0.43894123309E+02  0.00000000000E+00 0. -1.
</event>
<event>
 7    1  0.1935465E-015  0.9000772E+02  0.7816164E-02  0.1186339E+00
        -11   -1    0    0    0    0  0.00000000000E+00  0.00000000000E+00  0.45593999997E+02  0.45594000000E+02  0.51100000000E-03 0. -1.
         11   -1    0    0    0    0 -0.00000000000E+00 -0.00000000000E+00 -0.45593999997E+02  0.45594000000E+02  0.51100000000E-03 0.  1.
    9900012    2    1    2    0    0 -0.97875050107E+00  0.17917052117E+00 -0.63482311383E+00  0.90007722488E+02  0.89999983625E+02 0.  0.
         12    1    1    2    0    0  0.97875050107E+00 -0.17917052117E+00  0.63482311383E+00  0.11802775118E+01  0.00000000000E+00 0. -1.
         11    1    3    3    0    0  0.24635946443E+02  0.84192230302E+01  0.20095688429E+01  0.26112287161E+02  0.51100000000E-03 0. -1.
        -11    1    3    3    0    0  0.18335900262E+02  0.26750352300E+01 -0.15798474582E+01  0.18597230174E+02  0.51100000000E-03 0.  1.
        -12    1    3    3    0    0 -0.43950597206E+02 -0.10915087739E+02 -0.10645444985E+01  0.45298205153E+02  0.00000000000E+00 0.  1.
</event>
<event>
 7    1  0.1935465E-015  0.9000769E+02  0.7816164E-02  0.1186339E+00
        -11   -1    0    0    0    0  0.00000000000E+00  0.00000000000E+00  0.45593999997E+02  0.45594000000E+02  0.51100000000E-03 0.  1.
         11   -1    0    0    0    0 -0.00000000000E+00 -0.00000000000E+00 -0.45593999997E+02  0.45594000000E+02  0.51100000000E-03 0. -1.
    9900012    2    1    2    0    0  0.30646211006E+00  0.54024247161E+00  0.10036722213E+01  0.90007686956E+02  0.89999947624E+02 0.  0.
         12    1    1    2    0    0 -0.30646211006E+00 -0.54024247161E+00 -0.10036722213E+01  0.11803130436E+01  0.00000000000E+00 0. -1.
         11    1    3    3    0    0 -0.32889334758E+02  0.89574856090E+01 -0.16244685320E+02  0.37760226305E+02  0.51100000000E-03 0. -1.
        -11    1    3    3    0    0  0.19944118935E+01 -0.22216522089E+01 -0.99539407754E+01  0.10392033225E+02  0.51100000000E-03 0.  1.
        -12    1    3    3    0    0  0.31201384974E+02 -0.61955909285E+01  0.27202298317E+02  0.41855427425E+02  0.00000000000E+00 0.  1.
</event>
<event>
 7    1  0.1935465E-015  0.9000764E+02  0.7816164E-02  0.1186339E+00
        -11   -1    0    0    0    0  0.00000000000E+00  0.00000000000E+00  0.45593999997E+02  0.45594000000E+02  0.51100000000E-03 0.  1.
         11   -1    0    0    0    0 -0.00000000000E+00 -0.00000000000E+00 -0.45593999997E+02  0.45594000000E+02  0.51100000000E-03 0. -1.
    9900012    2    1    2    0    0  0.63971177757E+00 -0.41638383449E+00  0.90035105805E+00  0.90007644679E+02  0.89999904789E+02 0.  0.
         12    1    1    2    0    0 -0.63971177757E+00  0.41638383449E+00 -0.90035105805E+00  0.11803553210E+01  0.00000000000E+00 0. -1.
         11    1    3    3    0    0 -0.28078744251E+01  0.73070260417E+01  0.17135034294E+02  0.18838423206E+02  0.51100000000E-03 0. -1.
        -11    1    3    3    0    0  0.12412532984E+02  0.13283576345E+02  0.20820265124E+02  0.27640691303E+02  0.51100000000E-03 0.  1.
         12    1    3    3    0    0 -0.89649467814E+01 -0.21006986221E+02 -0.37054948360E+02  0.43528530171E+02  0.00000000000E+00 0. -1.
</event>
<event>
 7    1  0.1935465E-015  0.9000756E+02  0.7816164E-02  0.1186339E+00
        -11   -1    0    0    0    0  0.00000000000E+00  0.00000000000E+00  0.45593999997E+02  0.45594000000E+02  0.51100000000E-03 0. -1.
         11   -1    0    0    0    0 -0.00000000000E+00 -0.00000000000E+00 -0.45593999997E+02  0.45594000000E+02  0.51100000000E-03 0.  1.
    9900012    2    1    2    0    0  0.81895278839E+00 -0.33676122758E-01 -0.84948604832E+00  0.90007557584E+02  0.89999816544E+02 0.  0.
         12    1    1    2    0    0 -0.81895278839E+00  0.33676122758E-01  0.84948604832E+00  0.11804424159E+01  0.00000000000E+00 0. -1.
         11    1    3    3    0    0 -0.22572366098E+02  0.13891561057E+02 -0.24277166924E+02  0.35942565490E+02  0.51100000000E-03 0. -1.
        -11    1    3    3    0    0 -0.43411715049E+01 -0.21381866214E+01 -0.87385655582E+01  0.99890009680E+01  0.51100000000E-03 0.  1.
        -12    1    3    3    0    0  0.27732490391E+02 -0.11787050559E+02  0.32166246434E+02  0.44075991127E+02  0.00000000000E+00 0.  1.
</event>
<event>
 7    1  0.1935465E-015  0.9000776E+02  0.7816164E-02  0.1186339E+00
        -11   -1    0    0    0    0  0.00000000000E+00  0.00000000000E+00  0.45593999997E+02  0.45594000000E+02  0.51100000000E-03 0. -1.
         11   -1    0    0    0    0 -0.00000000000E+00 -0.00000000000E+00 -0.45593999997E+02  0.45594000000E+02  0.51100000000E-03 0.  1.
    9900012    2    1    2    0    0 -0.73250406310E-01  0.35662860142E+00 -0.11226873430E+01  0.90007755766E+02  0.90000017342E+02 0.  0.
         12    1    1    2    0    0  0.73250406310E-01 -0.35662860142E+00  0.11226873430E+01  0.11802442338E+01  0.00000000000E+00 0. -1.
         11    1    3    3    0    0  0.20550609503E+02  0.29033594776E+02  0.46797700989E+01  0.35877254981E+02  0.51100000000E-03 0. -1.
        -11    1    3    3    0    0  0.29964529016E+01  0.88995076399E+01 -0.18021092918E+00  0.93921479154E+01  0.51100000000E-03 0.  1.
        -12    1    3    3    0    0 -0.23620312810E+02 -0.37576473815E+02 -0.56222465127E+01  0.44738352869E+02  0.00000000000E+00 0.  1.
</event>
<event>
 7    1  0.2097480E-015  0.9000787E+02  0.7816164E-02  0.1186339E+00
        -11   -1    0    0    0    0  0.00000000000E+00  0.00000000000E+00  0.45593999997E+02  0.45594000000E+02  0.51100000000E-03 0. -1.
         11   -1    0    0    0    0 -0.00000000000E+00 -0.00000000000E+00 -0.45593999997E+02  0.45594000000E+02  0.51100000000E-03 0.  1.
    9900012    2    1    2    0    0 -0.36520227215E+00  0.19389513732E+00 -0.11053278677E+01  0.90007865381E+02  0.90000128404E+02 0.  0.
         12    1    1    2    0    0  0.36520227215E+00 -0.19389513732E+00  0.11053278677E+01  0.11801346190E+01  0.00000000000E+00 0. -1.
         11    1    3    3    0    0  0.46637835129E+01  0.67973859280E+01  0.40307067284E+01  0.91761609130E+01  0.51100000000E-03 0. -1.
        -11    1    3    3    0    0  0.18589957214E+02 -0.28399514086E+02 -0.25789189470E+02  0.42628642992E+02  0.51100000000E-03 0.  1.
         12    1    3    3    0    0 -0.23618942999E+02  0.21796023296E+02  0.20653154874E+02  0.38203061476E+02  0.00000000000E+00 0. -1.
</event>
<event>
 7    1  0.1935465E-015  0.9000769E+02  0.7816164E-02  0.1186339E+00
        -11   -1    0    0    0    0  0.00000000000E+00  0.00000000000E+00  0.45593999997E+02  0.45594000000E+02  0.51100000000E-03 0. -1.
         11   -1    0    0    0    0 -0.00000000000E+00 -0.00000000000E+00 -0.45593999997E+02  0.45594000000E+02  0.51100000000E-03 0.  1.
    9900012    2    1    2    0    0 -0.88635739924E+00  0.73436888631E+00 -0.26117959862E+00  0.90007685685E+02  0.89999946336E+02 0.  0.
         12    1    1    2    0    0  0.88635739924E+00 -0.73436888631E+00  0.26117959862E+00  0.11803143154E+01  0.00000000000E+00 0. -1.
         11    1    3    3    0    0 -0.84207040061E+01 -0.28185673670E+01 -0.22859244772E+01  0.91694072293E+01  0.51100000000E-03 0. -1.
        -11    1    3    3    0    0 -0.32969039918E+02 -0.99568666965E+01 -0.11075292696E+02  0.36176772881E+02  0.51100000000E-03 0.  1.
         12    1    3    3    0    0  0.40503386525E+02  0.13509802950E+02  0.13100037575E+02  0.44661505574E+02  0.00000000000E+00 0. -1.
</event>
<event>
 7    1  0.1935465E-015  0.9000790E+02  0.7816164E-02  0.1186339E+00
        -11   -1    0    0    0    0  0.00000000000E+00  0.00000000000E+00  0.45593999997E+02  0.45594000000E+02  0.51100000000E-03 0. -1.
         11   -1    0    0    0    0 -0.00000000000E+00 -0.00000000000E+00 -0.45593999997E+02  0.45594000000E+02  0.51100000000E-03 0.  1.
    9900012    2    1    2    0    0 -0.64752538563E+00  0.97063013461E+00 -0.17669103940E+00  0.90007901823E+02  0.90000165327E+02 0.  0.
         12    1    1    2    0    0  0.64752538563E+00 -0.97063013461E+00  0.17669103940E+00  0.11800981767E+01  0.00000000000E+00 0. -1.
         11    1    3    3    0    0  0.35598275256E+01  0.74356972486E+01  0.19556375586E+02  0.21222954363E+02  0.51100000000E-03 0. -1.
        -11    1    3    3    0    0  0.23114172630E+02 -0.23652695113E+02 -0.55739101624E+01  0.33537791180E+02  0.51100000000E-03 0.  1.
         12    1    3    3    0    0 -0.27321525541E+02  0.17187627999E+02 -0.14159156463E+02  0.35247156280E+02  0.00000000000E+00 0. -1.
</event>
<event>
 7    1  0.1935465E-015  0.9000772E+02  0.7816164E-02  0.1186339E+00
        -11   -1    0    0    0    0  0.00000000000E+00  0.00000000000E+00  0.45593999997E+02  0.45594000000E+02  0.51100000000E-03 0. -1.
         11   -1    0    0    0    0 -0.00000000000E+00 -0.00000000000E+00 -0.45593999997E+02  0.45594000000E+02  0.51100000000E-03 0.  1.
    9900012    2    1    2    0    0 -0.59802708524E+00  0.50832223390E+00 -0.88149045941E+00  0.90007723203E+02  0.89999984349E+02 0.  0.
         12    1    1    2    0    0  0.59802708524E+00 -0.50832223390E+00  0.88149045941E+00  0.11802767973E+01  0.00000000000E+00 0. -1.
         11    1    3    3    0    0  0.22079400261E+02 -0.17981786753E+02 -0.30738970694E+02  0.41901418715E+02  0.51100000000E-03 0. -1.
        -11    1    3    3    0    0  0.49921231506E+01  0.36389822503E+01  0.34505575571E+01  0.70760040337E+01  0.51100000000E-03 0.  1.
        -12    1    3    3    0    0 -0.27669550497E+02  0.14851126737E+02  0.26406922677E+02  0.41030300454E+02  0.00000000000E+00 0.  1.
</event>
<event>
 7    1  0.1935465E-015  0.9000769E+02  0.7816164E-02  0.1186339E+00
        -11   -1    0    0    0    0  0.00000000000E+00  0.00000000000E+00  0.45593999997E+02  0.45594000000E+02  0.51100000000E-03 0. -1.
         11   -1    0    0    0    0 -0.00000000000E+00 -0.00000000000E+00 -0.45593999997E+02  0.45594000000E+02  0.51100000000E-03 0.  1.
    9900012    2    1    2    0    0 -0.98538080538E+00  0.52442401381E+00  0.38356753076E+00  0.90007694985E+02  0.89999955759E+02 0.  0.
         12    1    1    2    0    0  0.98538080538E+00 -0.52442401381E+00 -0.38356753076E+00  0.11803050150E+01  0.00000000000E+00 0. -1.
         11    1    3    3    0    0  0.35776567785E+01 -0.27332707306E+01  0.64883213364E+01  0.78973863358E+01  0.51100000000E-03 0. -1.
        -11    1    3    3    0    0  0.24963371467E+02 -0.23005681412E+02 -0.20956355274E+02  0.39894863315E+02  0.51100000000E-03 0.  1.
         12    1    3    3    0    0 -0.29526409051E+02  0.26263376156E+02  0.14851601469E+02  0.42215445334E+02  0.00000000000E+00 0. -1.
</event>
<event>
 7    1  0.1935465E-015  0.9000735E+02  0.7816164E-02  0.1186340E+00
        -11   -1    0    0    0    0  0.00000000000E+00  0.00000000000E+00  0.45593999997E+02  0.45594000000E+02  0.51100000000E-03 0.  1.
         11   -1    0    0    0    0 -0.00000000000E+00 -0.00000000000E+00 -0.45593999997E+02  0.45594000000E+02  0.51100000000E-03 0. -1.
    9900012    2    1    2    0    0  0.69088120365E+00 -0.50104976351E+00  0.81582349165E+00  0.90007349471E+02  0.89999605683E+02 0.  0.
         12    1    1    2    0    0 -0.69088120365E+00  0.50104976351E+00 -0.81582349165E+00  0.11806505294E+01  0.00000000000E+00 0. -1.
         11    1    3    3    0    0 -0.72397089702E+01 -0.71311616853E+01 -0.45287193918E+01  0.11125473138E+02  0.51100000000E-03 0. -1.
        -11    1    3    3    0    0  0.20037512157E+02 -0.11270680232E+02  0.35189924280E+02  0.42034044505E+02  0.51100000000E-03 0.  1.
         12    1    3    3    0    0 -0.12106921983E+02  0.17900792154E+02 -0.29845381397E+02  0.36847831827E+02  0.00000000000E+00 0. -1.
</event>
<event>
 7    1  0.1935465E-015  0.9000676E+02  0.7816164E-02  0.1186341E+00
        -11   -1    0    0    0    0  0.00000000000E+00  0.00000000000E+00  0.45593999997E+02  0.45594000000E+02  0.51100000000E-03 0.  1.
         11   -1    0    0    0    0 -0.00000000000E+00 -0.00000000000E+00 -0.45593999997E+02  0.45594000000E+02  0.51100000000E-03 0. -1.
    9900012    2    1    2    0    0  0.94435553585E+00 -0.30844924368E+00  0.63904256997E+00  0.90006761785E+02  0.89999010235E+02 0.  0.
         12    1    1    2    0    0 -0.94435553585E+00  0.30844924368E+00 -0.63904256997E+00  0.11812382149E+01  0.00000000000E+00 0. -1.
         11    1    3    3    0    0  0.29748649542E+02 -0.23167018111E+02 -0.15588952780E+02  0.40800837330E+02  0.51100000000E-03 0. -1.
        -11    1    3    3    0    0 -0.50133772527E+00 -0.33986829740E+01  0.93890954993E+01  0.99978747756E+01  0.51100000000E-03 0.  1.
        -12    1    3    3    0    0 -0.28302956281E+02  0.26257251842E+02  0.68388998506E+01  0.39208049680E+02  0.00000000000E+00 0.  1.
</event>
<event>
 7    1  0.1935465E-015  0.9000777E+02  0.7816164E-02  0.1186339E+00
        -11   -1    0    0    0    0  0.00000000000E+00  0.00000000000E+00  0.45593999997E+02  0.45594000000E+02  0.51100000000E-03 0.  1.
         11   -1    0    0    0    0 -0.00000000000E+00 -0.00000000000E+00 -0.45593999997E+02  0.45594000000E+02  0.51100000000E-03 0. -1.
    9900012    2    1    2    0    0  0.87966287148E+00 -0.31134228019E+00  0.72262791388E+00  0.90007774647E+02  0.90000036472E+02 0.  0.
         12    1    1    2    0    0 -0.87966287148E+00  0.31134228019E+00 -0.72262791388E+00  0.11802253534E+01  0.00000000000E+00 0. -1.
         11    1    3    3    0    0 -0.35650593044E+02  0.44175775179E+01  0.52865737397E+01  0.36310158877E+02  0.51100000000E-03 0. -1.
        -11    1    3    3    0    0 -0.51961717841E+01  0.74147936008E+01  0.30982980689E+01  0.95696821545E+01  0.51100000000E-03 0.  1.
        -12    1    3    3    0    0  0.41726427699E+02 -0.12143713399E+02 -0.76622438948E+01  0.44127933615E+02  0.00000000000E+00 0.  1.
</event>
<event>
 7    1  0.1935465E-015  0.9000776E+02  0.7816164E-02  0.1186339E+00
        -11   -1    0    0    0    0  0.00000000000E+00  0.00000000000E+00  0.45593999997E+02  0.45594000000E+02  0.51100000000E-03 0. -1.
         11   -1    0    0    0    0 -0.00000000000E+00 -0.00000000000E+00 -0.45593999997E+02  0.45594000000E+02  0.51100000000E-03 0.  1.
    9900012    2    1    2    0    0 -0.25487961631E+00  0.47139663622E+00 -0.10515690002E+01  0.90007756055E+02  0.90000017635E+02 0.  0.
         12    1    1    2    0    0  0.25487961631E+00 -0.47139663622E+00  0.10515690002E+01  0.11802439449E+01  0.00000000000E+00 0. -1.
         11    1    3    3    0    0 -0.12258288175E+02 -0.30290704620E+02 -0.12928326137E+02  0.35141628197E+02  0.51100000000E-03 0. -1.
        -11    1    3    3    0    0  0.59963659432E+01 -0.10354396677E+02  0.17045121305E+01  0.12086161381E+02  0.51100000000E-03 0.  1.
        -12    1    3    3    0    0  0.60070426155E+01  0.41116497933E+02  0.10172245006E+02  0.42779966477E+02  0.00000000000E+00 0.  1.
</event>
<event>
 7    1  0.1935465E-015  0.9000787E+02  0.7816164E-02  0.1186339E+00
        -11   -1    0    0    0    0  0.00000000000E+00  0.00000000000E+00  0.45593999997E+02  0.45594000000E+02  0.51100000000E-03 0. -1.
         11   -1    0    0    0    0 -0.00000000000E+00 -0.00000000000E+00 -0.45593999997E+02  0.45594000000E+02  0.51100000000E-03 0.  1.
    9900012    2    1    2    0    0 -0.12970081327E+00 -0.42700064390E+00 -0.10925011590E+01  0.90007868383E+02  0.90000131446E+02 0.  0.
         12    1    1    2    0    0  0.12970081327E+00  0.42700064390E+00  0.10925011590E+01  0.11801316170E+01  0.00000000000E+00 0. -1.
         11    1    3    3    0    0 -0.32108974126E+02 -0.21716613435E+02  0.35456202607E+01  0.38925171057E+02  0.51100000000E-03 0. -1.
        -11    1    3    3    0    0 -0.21908671506E+01 -0.58166283558E+01 -0.41323359158E+01  0.74638639245E+01  0.51100000000E-03 0.  1.
        -12    1    3    3    0    0  0.34170140463E+02  0.27106241147E+02 -0.50578550400E+00  0.43618833402E+02  0.00000000000E+00 0.  1.
</event>
<event>
 7    1  0.1935465E-015  0.9000781E+02  0.7816164E-02  0.1186339E+00
        -11   -1    0    0    0    0  0.00000000000E+00  0.00000000000E+00  0.45593999997E+02  0.45594000000E+02  0.51100000000E-03 0.  1.
         11   -1    0    0    0    0 -0.00000000000E+00 -0.00000000000E+00 -0.45593999997E+02  0.45594000000E+02  0.51100000000E-03 0. -1.
    9900012    2    1    2    0    0 -0.26940067169E+00  0.58771403262E+00  0.98735151877E+00  0.90007810385E+02  0.90000072682E+02 0.  0.
         12    1    1    2    0    0  0.26940067169E+00 -0.58771403262E+00 -0.98735151877E+00  0.11801896151E+01  0.00000000000E+00 0. -1.
         11    1    3    3    0    0  0.81952335338E+00  0.84994081187E+01  0.13588110662E+00  0.85399075423E+01  0.51100000000E-03 0. -1.
        -11    1    3    3    0    0 -0.33276797634E+02 -0.25741004184E+02  0.10633786771E+02  0.43393801154E+02  0.51100000000E-03 0.  1.
         12    1    3    3    0    0  0.32187873609E+02  0.17829310098E+02 -0.97823163587E+01  0.38074101689E+02  0.00000000000E+00 0. -1.
</event>
<event>
 7    1  0.1935465E-015  0.9000790E+02  0.7816164E-02  0.1186339E+00
        -11   -1    0    0    0    0  0.00000000000E+00  0.00000000000E+00  0.45593999997E+02  0.45594000000E+02  0.51100000000E-03 0.  1.
         11   -1    0    0    0    0 -0.00000000000E+00 -0.00000000000E+00 -0.45593999997E+02  0.45594000000E+02  0.51100000000E-03 0. -1.
    9900012    2    1    2    0    0 -0.18741699349E+00 -0.56042642921E+00 -0.10214902549E+01  0.90007896084E+02  0.90000159512E+02 0.  0.
         12    1    1    2    0    0  0.18741699349E+00  0.56042642921E+00  0.10214902549E+01  0.11801039161E+01  0.00000000000E+00 0. -1.
         11    1    3    3    0    0 -0.10258917356E+02  0.27174866346E+02 -0.95231050346E+01  0.30568092450E+02  0.51100000000E-03 0. -1.
        -11    1    3    3    0    0  0.15379798874E+01  0.13243979402E+02 -0.66807598860E+01  0.14913112534E+02  0.51100000000E-03 0.  1.
        -12    1    3    3    0    0  0.85335204749E+01 -0.40979272177E+02  0.15182374666E+02  0.44526691101E+02  0.00000000000E+00 0.  1.
</event>
<event>
 7    1  0.1935465E-015  0.9000767E+02  0.7816164E-02  0.1186339E+00
        -11   -1    0    0    0    0  0.00000000000E+00  0.00000000000E+00  0.45593999997E+02  0.45594000000E+02  0.51100000000E-03 0. -1.
         11   -1    0    0    0    0 -0.00000000000E+00 -0.00000000000E+00 -0.45593999997E+02  0.45594000000E+02  0.51100000000E-03 0.  1.
    9900012    2    1    2    0    0 -0.83485971291E+00  0.41507094944E+00 -0.72380957800E+00  0.90007671682E+02  0.89999932148E+02 0.  0.
         12    1    1    2    0    0  0.83485971291E+00 -0.41507094944E+00  0.72380957800E+00  0.11803283181E+01  0.00000000000E+00 0. -1.
         11    1    3    3    0    0  0.34078184296E+02  0.10431331935E+02  0.12991893946E+02  0.37933160156E+02  0.51100000000E-03 0. -1.
        -11    1    3    3    0    0  0.70571668139E+01 -0.29860466537E+01 -0.25970144090E+01  0.80910173748E+01  0.51100000000E-03 0.  1.
        -12    1    3    3    0    0 -0.41970210823E+02 -0.70302143316E+01 -0.11118689115E+02  0.43983494151E+02  0.00000000000E+00 0.  1.
</event>
<event>
 7    1  0.1935465E-015  0.9000800E+02  0.7816164E-02  0.1186339E+00
        -11   -1    0    0    0    0  0.00000000000E+00  0.00000000000E+00  0.45593999997E+02  0.45594000000E+02  0.51100000000E-03 0.  1.
         11   -1    0    0    0    0 -0.00000000000E+00 -0.00000000000E+00 -0.45593999997E+02  0.45594000000E+02  0.51100000000E-03 0. -1.
    9900012    2    1    2    0    0 -0.91152681050E+00 -0.50351794173E+00  0.55496445973E+00  0.90008001273E+02  0.90000266090E+02 0.  0.
         12    1    1    2    0    0  0.91152681050E+00  0.50351794173E+00 -0.55496445973E+00  0.11799987269E+01  0.00000000000E+00 0. -1.
         11    1    3    3    0    0 -0.43100398729E+00  0.33229671420E+02 -0.18697814861E+01  0.33285025315E+02  0.51100000000E-03 0. -1.
        -11    1    3    3    0    0  0.36330834382E+01  0.10961728710E+02  0.26072954970E+01  0.11838782947E+02  0.51100000000E-03 0.  1.
        -12    1    3    3    0    0 -0.41136062614E+01 -0.44694918072E+02 -0.18254955121E+00  0.44884193012E+02  0.00000000000E+00 0.  1.
</event>
<event>
 7    1  0.1935465E-015  0.9000760E+02  0.7816164E-02  0.1186339E+00
        -11   -1    0    0    0    0  0.00000000000E+00  0.00000000000E+00  0.45593999997E+02  0.45594000000E+02  0.51100000000E-03 0. -1.
         11   -1    0    0    0    0 -0.00000000000E+00 -0.00000000000E+00 -0.45593999997E+02  0.45594000000E+02  0.51100000000E-03 0.  1.
    9900012    2    1    2    0    0 -0.53283776347E+00  0.61135183587E+00 -0.85770938298E+00  0.90007604924E+02  0.89999864509E+02 0.  0.
         12    1    1    2    0    0  0.53283776347E+00 -0.61135183587E+00  0.85770938298E+00  0.11803950758E+01  0.00000000000E+00 0. -1.
         11    1    3    3    0    0 -0.91151440726E+00 -0.70037400814E+01  0.77957566656E+01  0.10519365755E+02  0.51100000000E-03 0. -1.
        -11    1    3    3    0    0 -0.32237224622E+02  0.26131365543E+02 -0.38408290857E+01  0.41675399036E+02  0.51100000000E-03 0.  1.
         12    1    3    3    0    0  0.32615901266E+02 -0.18516273626E+02 -0.48126369628E+01  0.37812840133E+02  0.00000000000E+00 0. -1.
</event>
<event>
 7    1  0.1935465E-015  0.9000766E+02  0.7816164E-02  0.1186339E+00
        -11   -1    0    0    0    0  0.00000000000E+00  0.00000000000E+00  0.45593999997E+02  0.45594000000E+02  0.51100000000E-03 0.  1.
         11   -1    0    0    0    0 -0.00000000000E+00 -0.00000000000E+00 -0.45593999997E+02  0.45594000000E+02  0.51100000000E-03 0. -1.
    9900012    2    1    2    0    0 -0.11147498479E+01  0.38470674896E+00  0.50418067494E-01  0.90007657470E+02  0.89999917749E+02 0.  0.
         12    1    1    2    0    0  0.11147498479E+01 -0.38470674896E+00 -0.50418067494E-01  0.11803425298E+01  0.00000000000E+00 0. -1.
         11    1    3    3    0    0 -0.30514169971E+02 -0.14155843771E+01 -0.14526089391E+02  0.33824927515E+02  0.51100000000E-03 0. -1.
        -11    1    3    3    0    0 -0.35375565085E+01  0.10806644426E+02 -0.91561761801E+01  0.14599090119E+02  0.51100000000E-03 0.  1.
        -12    1    3    3    0    0  0.32936976631E+02 -0.90063533000E+01  0.23732683638E+02  0.41583639836E+02  0.00000000000E+00 0.  1.
</event>
<event>
 7    1  0.1935465E-015  0.9000771E+02  0.7816164E-02  0.1186339E+00
        -11   -1    0    0    0    0  0.00000000000E+00  0.00000000000E+00  0.45593999997E+02  0.45594000000E+02  0.51100000000E-03 0.  1.
         11   -1    0    0    0    0 -0.00000000000E+00 -0.00000000000E+00 -0.45593999997E+02  0.45594000000E+02  0.51100000000E-03 0. -1.
    9900012    2    1    2    0    0  0.32722070489E+00  0.29874681386E+00  0.10939667430E+01  0.90007709238E+02  0.89999970200E+02 0.  0.
         12    1    1    2    0    0 -0.32722070489E+00 -0.29874681386E+00 -0.10939667430E+01  0.11802907622E+01  0.00000000000E+00 0. -1.
         11    1    3    3    0    0  0.28668159841E+01 -0.81860780733E+01 -0.14507661055E+01  0.87940451820E+01  0.51100000000E-03 0. -1.
        -11    1    3    3    0    0  0.65467854244E+01 -0.17115398404E+02  0.34626185757E+02  0.39176140727E+02  0.51100000000E-03 0.  1.
         12    1    3    3    0    0 -0.90863807036E+01  0.25600223291E+02 -0.32081452909E+02  0.42037523329E+02  0.00000000000E+00 0. -1.
</event>
<event>
 7    1  0.1935465E-015  0.9000782E+02  0.7816164E-02  0.1186339E+00
        -11   -1    0    0    0    0  0.00000000000E+00  0.00000000000E+00  0.45593999997E+02  0.45594000000E+02  0.51100000000E-03 0.  1.
         11   -1    0    0    0    0 -0.00000000000E+00 -0.00000000000E+00 -0.45593999997E+02  0.45594000000E+02  0.51100000000E-03 0. -1.
    9900012    2    1    2    0    0 -0.53232615062E+00  0.25265430846E+00  0.10225518252E+01  0.90007823079E+02  0.90000085543E+02 0.  0.
         12    1    1    2    0    0  0.53232615062E+00 -0.25265430846E+00 -0.10225518252E+01  0.11801769213E+01  0.00000000000E+00 0. -1.
         11    1    3    3    0    0  0.17833868131E+02  0.89845253888E+00  0.21257710176E+02  0.27762282177E+02  0.51100000000E-03 0. -1.
        -11    1    3    3    0    0  0.13550370203E+02 -0.40549495925E+01  0.10646971299E+02  0.17703478386E+02  0.51100000000E-03 0.  1.
        -12    1    3    3    0    0 -0.31916564485E+02  0.34091513621E+01 -0.30882129650E+02  0.44542062516E+02  0.00000000000E+00 0.  1.
</event>
<event>
 7    1  0.1935465E-015  0.9000791E+02  0.7816164E-02  0.1186339E+00
        -11   -1    0    0    0    0  0.00000000000E+00  0.00000000000E+00  0.45593999997E+02  0.45594000000E+02  0.51100000000E-03 0.  1.
         11   -1    0    0    0    0 -0.00000000000E+00 -0.00000000000E+00 -0.45593999997E+02  0.45594000000E+02  0.51100000000E-03 0. -1.
    9900012    2    1    2    0    0  0.74220174819E+00 -0.90919475175E+00  0.12294322749E+00  0.90007909508E+02  0.90000173114E+02 0.  0.
         12    1    1    2    0    0 -0.74220174819E+00  0.90919475175E+00 -0.12294322749E+00  0.11800904918E+01  0.00000000000E+00 0. -1.
         11    1    3    3    0    0 -0.11786765662E+01 -0.44504782653E+01 -0.89435266591E+01  0.10058961408E+02  0.51100000000E-03 0. -1.
        -11    1    3    3    0    0  0.23187843363E+02  0.31455930625E+02 -0.95430108229E+01  0.40227114079E+02  0.51100000000E-03 0.  1.
         12    1    3    3    0    0 -0.21266965049E+02 -0.27914647111E+02  0.18609480709E+02  0.39721834021E+02  0.00000000000E+00 0. -1.
</event>
<event>
 7    1  0.1935465E-015  0.9000784E+02  0.7816164E-02  0.1186339E+00
        -11   -1    0    0    0    0  0.00000000000E+00  0.00000000000E+00  0.45593999997E+02  0.45594000000E+02  0.51100000000E-03 0. -1.
         11   -1    0    0    0    0 -0.00000000000E+00 -0.00000000000E+00 -0.45593999997E+02  0.45594000000E+02  0.51100000000E-03 0.  1.
    9900012    2    1    2    0    0  0.69952224725E-01 -0.11239491702E+01  0.35302977392E+00  0.90007836845E+02  0.90000099491E+02 0.  0.
         12    1    1    2    0    0 -0.69952224725E-01  0.11239491702E+01 -0.35302977392E+00  0.11801631549E+01  0.00000000000E+00 0. -1.
         11    1    3    3    0    0  0.20398807074E+01 -0.58636192696E+01  0.84166363223E+01  0.10458628566E+02  0.51100000000E-03 0. -1.
        -11    1    3    3    0    0  0.31792187212E+01 -0.34267439249E+02 -0.18183559990E+02  0.38923086703E+02  0.51100000000E-03 0.  1.
         12    1    3    3    0    0 -0.51491472038E+01  0.39007109348E+02  0.10119953441E+02  0.40626121576E+02  0.00000000000E+00 0. -1.
</event>
<event>
 7    1  0.1935465E-015  0.9000794E+02  0.7816164E-02  0.1186339E+00
        -11   -1    0    0    0    0  0.00000000000E+00  0.00000000000E+00  0.45593999997E+02  0.45594000000E+02  0.51100000000E-03 0.  1.
         11   -1    0    0    0    0 -0.00000000000E+00 -0.00000000000E+00 -0.45593999997E+02  0.45594000000E+02  0.51100000000E-03 0. -1.
    9900012    2    1    2    0    0 -0.34323063584E+00  0.15637064549E+00  0.11181574827E+01  0.90007942711E+02  0.90000206755E+02 0.  0.
         12    1    1    2    0    0  0.34323063584E+00 -0.15637064549E+00 -0.11181574827E+01  0.11800572885E+01  0.00000000000E+00 0. -1.
         11    1    3    3    0    0  0.10937564348E+02 -0.31228633485E+01  0.11193303777E+01  0.11429588362E+02  0.51100000000E-03 0. -1.
        -11    1    3    3    0    0 -0.15551665645E+02 -0.29768338359E+02  0.20601758773E+02  0.39401024579E+02  0.51100000000E-03 0.  1.
         12    1    3    3    0    0  0.42708706612E+01  0.33047572353E+02 -0.20602931668E+02  0.39177329771E+02  0.00000000000E+00 0. -1.
</event>
<event>
 7    1  0.1935465E-015  0.9000775E+02  0.7816164E-02  0.1186339E+00
        -11   -1    0    0    0    0  0.00000000000E+00  0.00000000000E+00  0.45593999997E+02  0.45594000000E+02  0.51100000000E-03 0. -1.
         11   -1    0    0    0    0 -0.00000000000E+00 -0.00000000000E+00 -0.45593999997E+02  0.45594000000E+02  0.51100000000E-03 0.  1.
    9900012    2    1    2    0    0  0.93387324372E+00  0.53127323563E+00 -0.48847513659E+00  0.90007754922E+02  0.90000016486E+02 0.  0.
         12    1    1    2    0    0 -0.93387324372E+00 -0.53127323563E+00  0.48847513659E+00  0.11802450785E+01  0.00000000000E+00 0. -1.
         11    1    3    3    0    0 -0.23575476067E+00  0.21119205037E+01  0.21855705551E+02  0.21958771685E+02  0.51100000000E-03 0. -1.
        -11    1    3    3    0    0 -0.85141202657E+01  0.51153295765E+01  0.20948512350E+02  0.23183981766E+02  0.51100000000E-03 0.  1.
        -12    1    3    3    0    0  0.96837482701E+01 -0.66959768445E+01 -0.43292693038E+02  0.44865001470E+02  0.00000000000E+00 0.  1.
</event>
<event>
 7    1  0.1935465E-015  0.9000787E+02  0.7816164E-02  0.1186339E+00
        -11   -1    0    0    0    0  0.00000000000E+00  0.00000000000E+00  0.45593999997E+02  0.45594000000E+02  0.51100000000E-03 0.  1.
         11   -1    0    0    0    0 -0.00000000000E+00 -0.00000000000E+00 -0.45593999997E+02  0.45594000000E+02  0.51100000000E-03 0. -1.
    9900012    2    1    2    0    0 -0.71229631966E+00  0.82767331477E+00  0.44753984857E+00  0.90007872431E+02  0.90000135547E+02 0.  0.
         12    1    1    2    0    0  0.71229631966E+00 -0.82767331477E+00 -0.44753984857E+00  0.11801275690E+01  0.00000000000E+00 0. -1.
         11    1    3    3    0    0  0.62123422960E+01  0.36625441879E+02  0.52890628541E+00  0.37152334136E+02  0.51100000000E-03 0. -1.
        -11    1    3    3    0    0  0.55991771745E+01  0.65486145683E+01  0.10623076978E+01  0.86812231685E+01  0.51100000000E-03 0.  1.
        -12    1    3    3    0    0 -0.12523815790E+02 -0.42346383133E+02 -0.11436741347E+01  0.44174315126E+02  0.00000000000E+00 0.  1.
</event>
<event>
 7    1  0.1935465E-015  0.9000776E+02  0.7816164E-02  0.1186339E+00
        -11   -1    0    0    0    0  0.00000000000E+00  0.00000000000E+00  0.45593999997E+02  0.45594000000E+02  0.51100000000E-03 0. -1.
         11   -1    0    0    0    0 -0.00000000000E+00 -0.00000000000E+00 -0.45593999997E+02  0.45594000000E+02  0.51100000000E-03 0.  1.
    9900012    2    1    2    0    0 -0.32810899278E+00  0.11335699971E+01  0.18027157334E-01  0.90007762131E+02  0.90000023791E+02 0.  0.
         12    1    1    2    0    0  0.32810899278E+00 -0.11335699971E+01 -0.18027157334E-01  0.11802378692E+01  0.00000000000E+00 0. -1.
         11    1    3    3    0    0 -0.73903363526E+01  0.18260331018E+01  0.33952602111E+01  0.83354220322E+01  0.51100000000E-03 0. -1.
        -11    1    3    3    0    0  0.23149820975E+02  0.27655954704E+02 -0.23796731077E+02  0.43209379213E+02  0.51100000000E-03 0.  1.
         12    1    3    3    0    0 -0.16087593616E+02 -0.28348417808E+02  0.20419498023E+02  0.38462960886E+02  0.00000000000E+00 0. -1.
</event>
<event>
 7    1  0.1935465E-015  0.9000809E+02  0.7816164E-02  0.1186338E+00
        -11   -1    0    0    0    0  0.00000000000E+00  0.00000000000E+00  0.45593999997E+02  0.45594000000E+02  0.51100000000E-03 0.  1.
         11   -1    0    0    0    0 -0.00000000000E+00 -0.00000000000E+00 -0.45593999997E+02  0.45594000000E+02  0.51100000000E-03 0. -1.
    9900012    2    1    2    0    0 -0.83598701247E+00  0.11649029078E+00  0.82446558218E+00  0.90008089932E+02  0.90000355918E+02 0.  0.
         12    1    1    2    0    0  0.83598701247E+00 -0.11649029078E+00 -0.82446558218E+00  0.11799100682E+01  0.00000000000E+00 0. -1.
         11    1    3    3    0    0 -0.81620490525E+01 -0.32497350228E+02 -0.27419261387E+02  0.43295643104E+02  0.51100000000E-03 0. -1.
        -11    1    3    3    0    0  0.70129822417E+01  0.82469422306E+01  0.22023278178E+01  0.11047362769E+02  0.51100000000E-03 0.  1.
        -12    1    3    3    0    0  0.31307979840E+00  0.24366898288E+02  0.26041399151E+02  0.35665084058E+02  0.00000000000E+00 0.  1.
</event>
<event>
 7    1  0.1935465E-015  0.9000779E+02  0.7816164E-02  0.1186339E+00
        -11   -1    0    0    0    0  0.00000000000E+00  0.00000000000E+00  0.45593999997E+02  0.45594000000E+02  0.51100000000E-03 0.  1.
         11   -1    0    0    0    0 -0.00000000000E+00 -0.00000000000E+00 -0.45593999997E+02  0.45594000000E+02  0.51100000000E-03 0. -1.
    9900012    2    1    2    0    0 -0.48901599473E+00 -0.97804535298E+00 -0.44405118271E+00  0.90007792049E+02  0.90000054104E+02 0.  0.
         12    1    1    2    0    0  0.48901599473E+00  0.97804535298E+00  0.44405118271E+00  0.11802079514E+01  0.00000000000E+00 0. -1.
         11    1    3    3    0    0  0.30090116154E+01 -0.28093862718E+01 -0.64797370516E+01  0.76768349366E+01  0.51100000000E-03 0. -1.
        -11    1    3    3    0    0 -0.37190894376E+02 -0.21179757910E+01  0.23632450537E+02  0.44115089987E+02  0.51100000000E-03 0.  1.
         12    1    3    3    0    0  0.33692866765E+02  0.39493167098E+01 -0.17596764668E+02  0.38215867125E+02  0.00000000000E+00 0. -1.
</event>
<event>
 7    1  0.1935465E-015  0.9000779E+02  0.7816164E-02  0.1186339E+00
        -11   -1    0    0    0    0  0.00000000000E+00  0.00000000000E+00  0.45593999997E+02  0.45594000000E+02  0.51100000000E-03 0.  1.
         11   -1    0    0    0    0 -0.00000000000E+00 -0.00000000000E+00 -0.45593999997E+02  0.45594000000E+02  0.51100000000E-03 0. -1.
    9900012    2    1    2    0    0  0.87510442909E+00 -0.50025315539E+00  0.61386669548E+00  0.90007790993E+02  0.90000053034E+02 0.  0.
         12    1    1    2    0    0 -0.87510442909E+00  0.50025315539E+00 -0.61386669548E+00  0.11802090074E+01  0.00000000000E+00 0. -1.
         11    1    3    3    0    0 -0.53021764731E+01  0.96851443013E+01  0.21394038245E+02  0.24075297883E+02  0.51100000000E-03 0. -1.
        -11    1    3    3    0    0 -0.54576417344E+01  0.11285109336E+02  0.16893500450E+02  0.21036394742E+02  0.51100000000E-03 0.  1.
         12    1    3    3    0    0  0.11634922637E+02 -0.21470506792E+02 -0.37673671999E+02  0.44896098367E+02  0.00000000000E+00 0. -1.
</event>
<event>
 7    1  0.1935465E-015  0.9000769E+02  0.7816164E-02  0.1186339E+00
        -11   -1    0    0    0    0  0.00000000000E+00  0.00000000000E+00  0.45593999997E+02  0.45594000000E+02  0.51100000000E-03 0.  1.
         11   -1    0    0    0    0 -0.00000000000E+00 -0.00000000000E+00 -0.45593999997E+02  0.45594000000E+02  0.51100000000E-03 0. -1.
    9900012    2    1    2    0    0  0.11655757308E+01  0.16933501582E+00 -0.76805695130E-01  0.90007686378E+02  0.89999947038E+02 0.  0.
         12    1    1    2    0    0 -0.11655757308E+01 -0.16933501582E+00  0.76805695130E-01  0.11803136221E+01  0.00000000000E+00 0. -1.
         11    1    3    3    0    0 -0.14459733836E+02  0.39948431093E+01 -0.33611457236E+02  0.36807237493E+02  0.51100000000E-03 0. -1.
        -11    1    3    3    0    0  0.37675620089E+01 -0.56794713946E+01 -0.76833960110E+01  0.10270613094E+02  0.51100000000E-03 0.  1.
        -12    1    3    3    0    0  0.11857747558E+02  0.18539633012E+01  0.41218047552E+02  0.42929835791E+02  0.00000000000E+00 0.  1.
</event>
<event>
 7    1  0.1935465E-015  0.9000799E+02  0.7816164E-02  0.1186339E+00
        -11   -1    0    0    0    0  0.00000000000E+00  0.00000000000E+00  0.45593999997E+02  0.45594000000E+02  0.51100000000E-03 0.  1.
         11   -1    0    0    0    0 -0.00000000000E+00 -0.00000000000E+00 -0.45593999997E+02  0.45594000000E+02  0.51100000000E-03 0. -1.
    9900012    2    1    2    0    0 -0.11415342337E+01  0.90881676103E-01 -0.28471931076E+00  0.90007989419E+02  0.90000254079E+02 0.  0.
         12    1    1    2    0    0  0.11415342337E+01 -0.90881676103E-01  0.28471931076E+00  0.11800105811E+01  0.00000000000E+00 0. -1.
         11    1    3    3    0    0 -0.12909741995E+02 -0.22343440153E+02 -0.27823525634E+02  0.37947850205E+02  0.51100000000E-03 0. -1.
        -11    1    3    3    0    0 -0.48747454026E+01 -0.80613261154E+01  0.52743491024E+01  0.10796614293E+02  0.51100000000E-03 0.  1.
        -12    1    3    3    0    0  0.16642953164E+02  0.30495647944E+02  0.22264457221E+02  0.41263524921E+02  0.00000000000E+00 0.  1.
</event>
<event>
 7    1  0.1935465E-015  0.9000728E+02  0.7816164E-02  0.1186340E+00
        -11   -1    0    0    0    0  0.00000000000E+00  0.00000000000E+00  0.45593999997E+02  0.45594000000E+02  0.51100000000E-03 0. -1.
         11   -1    0    0    0    0 -0.00000000000E+00 -0.00000000000E+00 -0.45593999997E+02  0.45594000000E+02  0.51100000000E-03 0.  1.
    9900012    2    1    2    0    0  0.35962600655E+00  0.86460816731E+00 -0.71918293855E+00  0.90007278929E+02  0.89999534210E+02 0.  0.
         12    1    1    2    0    0 -0.35962600655E+00 -0.86460816731E+00  0.71918293855E+00  0.11807210706E+01  0.00000000000E+00 0. -1.
         11    1    3    3    0    0  0.38262407281E+01  0.80328252646E+01  0.17697947610E+01  0.90718561275E+01  0.51100000000E-03 0. -1.
        -11    1    3    3    0    0 -0.41366164890E+02  0.32907836214E+01 -0.31215567368E+01  0.41614095824E+02  0.51100000000E-03 0.  1.
         12    1    3    3    0    0  0.37899550169E+02 -0.10459000719E+02  0.63257903722E+00  0.39321326977E+02  0.00000000000E+00 0. -1.
</event>
<event>
 7    1  0.1935465E-015  0.9000777E+02  0.7816164E-02  0.1186339E+00
        -11   -1    0    0    0    0  0.00000000000E+00  0.00000000000E+00  0.45593999997E+02  0.45594000000E+02  0.51100000000E-03 0.  1.
         11   -1    0    0    0    0 -0.00000000000E+00 -0.00000000000E+00 -0.45593999997E+02  0.45594000000E+02  0.51100000000E-03 0. -1.
    9900012    2    1    2    0    0  0.96492981853E+00 -0.67668838182E+00 -0.62814355706E-01  0.90007770207E+02  0.90000031974E+02 0.  0.
         12    1    1    2    0    0 -0.96492981853E+00  0.67668838182E+00  0.62814355706E-01  0.11802297929E+01  0.00000000000E+00 0. -1.
         11    1    3    3    0    0  0.84277896798E+01  0.49189351579E+01 -0.34393824414E+02  0.35751345710E+02  0.51100000000E-03 0. -1.
        -11    1    3    3    0    0 -0.19547489486E+00  0.50638248216E+00 -0.94465755344E+01  0.94621574306E+01  0.51100000000E-03 0.  1.
        -12    1    3    3    0    0 -0.72673849664E+01 -0.61020060219E+01  0.43777585593E+02  0.44794267067E+02  0.00000000000E+00 0.  1.
</event>
<event>
 7    1  0.1935465E-015  0.9000819E+02  0.7816164E-02  0.1186338E+00
        -11   -1    0    0    0    0  0.00000000000E+00  0.00000000000E+00  0.45593999997E+02  0.45594000000E+02  0.51100000000E-03 0.  1.
         11   -1    0    0    0    0 -0.00000000000E+00 -0.00000000000E+00 -0.45593999997E+02  0.45594000000E+02  0.51100000000E-03 0. -1.
    9900012    2    1    2    0    0  0.37923378184E+00  0.68112939421E+00  0.88555335731E+00  0.90008186345E+02  0.90000453603E+02 0.  0.
         12    1    1    2    0    0 -0.37923378184E+00 -0.68112939421E+00 -0.88555335731E+00  0.11798136554E+01  0.00000000000E+00 0. -1.
         11    1    3    3    0    0  0.13609773078E+02 -0.28856266943E+02 -0.14532524626E+02  0.35058584360E+02  0.51100000000E-03 0. -1.
        -11    1    3    3    0    0  0.15592183234E+01 -0.65427705595E+01 -0.72145938309E+01  0.98635375389E+01  0.51100000000E-03 0.  1.
        -12    1    3    3    0    0 -0.14789757619E+02  0.36080166896E+02  0.22632671814E+02  0.45086064445E+02  0.00000000000E+00 0.  1.
</event>
<event>
 7    1  0.1935465E-015  0.9000781E+02  0.7816164E-02  0.1186339E+00
        -11   -1    0    0    0    0  0.00000000000E+00  0.00000000000E+00  0.45593999997E+02  0.45594000000E+02  0.51100000000E-03 0.  1.
         11   -1    0    0    0    0 -0.00000000000E+00 -0.00000000000E+00 -0.45593999997E+02  0.45594000000E+02  0.51100000000E-03 0. -1.
    9900012    2    1    2    0    0 -0.42588707824E+00  0.10259965238E+01  0.39849214420E+00  0.90007811600E+02  0.90000073913E+02 0.  0.
         12    1    1    2    0    0  0.42588707824E+00 -0.10259965238E+01 -0.39849214420E+00  0.11801883999E+01  0.00000000000E+00 0. -1.
         11    1    3    3    0    0 -0.63249335460E+01  0.35979843794E+01 -0.50724145115E+01  0.88701558720E+01  0.51100000000E-03 0. -1.
        -11    1    3    3    0    0  0.18751044627E+02  0.32768404926E+02  0.17559284166E+02  0.41637705228E+02  0.51100000000E-03 0.  1.
         12    1    3    3    0    0 -0.12851998159E+02 -0.35340392782E+02 -0.12088377510E+02  0.39499950500E+02  0.00000000000E+00 0. -1.
</event>
<event>
 7    1  0.1935465E-015  0.9000776E+02  0.7816164E-02  0.1186339E+00
        -11   -1    0    0    0    0  0.00000000000E+00  0.00000000000E+00  0.45593999997E+02  0.45594000000E+02  0.51100000000E-03 0. -1.
         11   -1    0    0    0    0 -0.00000000000E+00 -0.00000000000E+00 -0.45593999997E+02  0.45594000000E+02  0.51100000000E-03 0.  1.
    9900012    2    1    2    0    0 -0.41087761907E+00  0.10909560405E+01 -0.18429054208E+00  0.90007759133E+02  0.90000020754E+02 0.  0.
         12    1    1    2    0    0  0.41087761907E+00 -0.10909560405E+01  0.18429054208E+00  0.11802408669E+01  0.00000000000E+00 0. -1.
         11    1    3    3    0    0  0.30280338959E+01  0.55312062748E+01 -0.25377025491E+01  0.67972911236E+01  0.51100000000E-03 0. -1.
        -11    1    3    3    0    0  0.12842610945E+02 -0.60069314752E+01 -0.37521671790E+02  0.40110992705E+02  0.51100000000E-03 0.  1.
         12    1    3    3    0    0 -0.16281522460E+02  0.15666812408E+01  0.39875083797E+02  0.43099475304E+02  0.00000000000E+00 0. -1.
</event>
<event>
 7    1  0.1935465E-015  0.9000784E+02  0.7816164E-02  0.1186339E+00
        -11   -1    0    0    0    0  0.00000000000E+00  0.00000000000E+00  0.45593999997E+02  0.45594000000E+02  0.51100000000E-03 0. -1.
         11   -1    0    0    0    0 -0.00000000000E+00 -0.00000000000E+00 -0.45593999997E+02  0.45594000000E+02  0.51100000000E-03 0.  1.
    9900012    2    1    2    0    0 -0.28317010450E+00 -0.11178352897E+01 -0.25106037714E+00  0.90007842233E+02  0.90000104950E+02 0.  0.
         12    1    1    2    0    0  0.28317010450E+00  0.11178352897E+01  0.25106037714E+00  0.11801577674E+01  0.00000000000E+00 0. -1.
         11    1    3    3    0    0 -0.12148316512E+02  0.76947224226E+01  0.10514109144E+02  0.17813950673E+02  0.51100000000E-03 0. -1.
        -11    1    3    3    0    0  0.26958895310E+01 -0.25467676622E+02  0.22361785626E+02  0.33998821002E+02  0.51100000000E-03 0.  1.
         12    1    3    3    0    0  0.91692568763E+01  0.16655118910E+02 -0.33126955147E+02  0.38195070557E+02  0.00000000000E+00 0. -1.
</event>
<event>
 7    1  0.1935465E-015  0.9000779E+02  0.7816164E-02  0.1186339E+00
        -11   -1    0    0    0    0  0.00000000000E+00  0.00000000000E+00  0.45593999997E+02  0.45594000000E+02  0.51100000000E-03 0.  1.
         11   -1    0    0    0    0 -0.00000000000E+00 -0.00000000000E+00 -0.45593999997E+02  0.45594000000E+02  0.51100000000E-03 0. -1.
    9900012    2    1    2    0    0  0.69517901772E+00 -0.78680226303E+00 -0.53903664072E+00  0.90007791473E+02  0.90000053520E+02 0.  0.
         12    1    1    2    0    0 -0.69517901772E+00  0.78680226303E+00  0.53903664072E+00  0.11802085273E+01  0.00000000000E+00 0. -1.
         11    1    3    3    0    0  0.23393310630E+02 -0.18768149307E+02 -0.26335610081E+02  0.39913090199E+02  0.51100000000E-03 0. -1.
        -11    1    3    3    0    0  0.24590682151E+01 -0.67487574508E+01  0.17235513808E+01  0.73867024605E+01  0.51100000000E-03 0.  1.
        -12    1    3    3    0    0 -0.25157199828E+02  0.24730104495E+02  0.24073022059E+02  0.42707998813E+02  0.00000000000E+00 0.  1.
</event>
<event>
 7    1  0.1935465E-015  0.9000777E+02  0.7816164E-02  0.1186339E+00
        -11   -1    0    0    0    0  0.00000000000E+00  0.00000000000E+00  0.45593999997E+02  0.45594000000E+02  0.51100000000E-03 0. -1.
         11   -1    0    0    0    0 -0.00000000000E+00 -0.00000000000E+00 -0.45593999997E+02  0.45594000000E+02  0.51100000000E-03 0.  1.
    9900012    2    1    2    0    0  0.65833543880E+00 -0.82260871966E+00 -0.53183823570E+00  0.90007770122E+02  0.90000031888E+02 0.  0.
         12    1    1    2    0    0 -0.65833543880E+00  0.82260871966E+00  0.53183823570E+00  0.11802298779E+01  0.00000000000E+00 0. -1.
         11    1    3    3    0    0  0.35501914076E+01  0.35040651217E+02 -0.17646509303E+02  0.39393532306E+02  0.51100000000E-03 0. -1.
        -11    1    3    3    0    0 -0.53083524415E+01 -0.99627350213E+01 -0.84814869310E+01  0.14119855366E+02  0.51100000000E-03 0.  1.
        -12    1    3    3    0    0  0.24164964727E+01 -0.25900524915E+02  0.25596157998E+02  0.36494382449E+02  0.00000000000E+00 0.  1.
</event>
<event>
 7    1  0.1935465E-015  0.9000765E+02  0.7816164E-02  0.1186339E+00
        -11   -1    0    0    0    0  0.00000000000E+00  0.00000000000E+00  0.45593999997E+02  0.45594000000E+02  0.51100000000E-03 0.  1.
         11   -1    0    0    0    0 -0.00000000000E+00 -0.00000000000E+00 -0.45593999997E+02  0.45594000000E+02  0.51100000000E-03 0. -1.
    9900012    2    1    2    0    0 -0.37770599187E+00 -0.14618835330E-01  0.11181928029E+01  0.90007648073E+02  0.89999908228E+02 0.  0.
         12    1    1    2    0    0  0.37770599187E+00  0.14618835330E-01 -0.11181928029E+01  0.11803519268E+01  0.00000000000E+00 0. -1.
         11    1    3    3    0    0  0.47371048513E+01  0.37455772122E+01 -0.79210551409E+01  0.99605534902E+01  0.51100000000E-03 0. -1.
        -11    1    3    3    0    0 -0.50094619768E+01 -0.16843341716E+02  0.41490105949E+02  0.45057982216E+02  0.51100000000E-03 0.  1.
         12    1    3    3    0    0 -0.10534886641E+00  0.13083145668E+02 -0.32450858005E+02  0.34989112367E+02  0.00000000000E+00 0. -1.
</event>
<event>
 7    1  0.1935465E-015  0.9000768E+02  0.7816164E-02  0.1186339E+00
        -11   -1    0    0    0    0  0.00000000000E+00  0.00000000000E+00  0.45593999997E+02  0.45594000000E+02  0.51100000000E-03 0.  1.
         11   -1    0    0    0    0 -0.00000000000E+00 -0.00000000000E+00 -0.45593999997E+02  0.45594000000E+02  0.51100000000E-03 0. -1.
    9900012    2    1    2    0    0  0.44995429064E+00  0.52612311811E+00  0.95597474386E+00  0.90007681352E+02  0.89999941946E+02 0.  0.
         12    1    1    2    0    0 -0.44995429064E+00 -0.52612311811E+00 -0.95597474386E+00  0.11803186476E+01  0.00000000000E+00 0. -1.
         11    1    3    3    0    0  0.28580469949E+01 -0.33928615092E+02 -0.48105516304E+01  0.34386927196E+02  0.51100000000E-03 0. -1.
        -11    1    3    3    0    0  0.12952216902E+01 -0.10261515543E+02 -0.27444825613E+00  0.10346575403E+02  0.51100000000E-03 0.  1.
        -12    1    3    3    0    0 -0.37033143944E+01  0.44716253754E+02  0.60409746304E+01  0.45274178753E+02  0.00000000000E+00 0.  1.
</event>
<event>
 7    1  0.1935465E-015  0.9000772E+02  0.7816164E-02  0.1186339E+00
        -11   -1    0    0    0    0  0.00000000000E+00  0.00000000000E+00  0.45593999997E+02  0.45594000000E+02  0.51100000000E-03 0.  1.
         11   -1    0    0    0    0 -0.00000000000E+00 -0.00000000000E+00 -0.45593999997E+02  0.45594000000E+02  0.51100000000E-03 0. -1.
    9900012    2    1    2    0    0 -0.49031026137E+00 -0.10030659609E+01  0.38278432681E+00  0.90007716426E+02  0.89999977483E+02 0.  0.
         12    1    1    2    0    0  0.49031026137E+00  0.10030659609E+01 -0.38278432681E+00  0.11802835740E+01  0.00000000000E+00 0. -1.
         11    1    3    3    0    0 -0.24096859454E+01 -0.19566942834E+02 -0.32066949485E+02  0.37642543588E+02  0.51100000000E-03 0. -1.
        -11    1    3    3    0    0  0.38288202029E+01 -0.77161003209E+01 -0.21466888532E+01  0.88772935967E+01  0.51100000000E-03 0.  1.
        -12    1    3    3    0    0 -0.19094445189E+01  0.26279977194E+02  0.34596422665E+02  0.43487879241E+02  0.00000000000E+00 0.  1.
</event>
<event>
 7    1  0.1935465E-015  0.9000780E+02  0.7816164E-02  0.1186339E+00
        -11   -1    0    0    0    0  0.00000000000E+00  0.00000000000E+00  0.45593999997E+02  0.45594000000E+02  0.51100000000E-03 0.  1.
         11   -1    0    0    0    0 -0.00000000000E+00 -0.00000000000E+00 -0.45593999997E+02  0.45594000000E+02  0.51100000000E-03 0. -1.
    9900012    2    1    2    0    0 -0.10216063524E+01 -0.37674281193E+00 -0.45525211607E+00  0.90007801214E+02  0.90000063390E+02 0.  0.
         12    1    1    2    0    0  0.10216063524E+01  0.37674281193E+00  0.45525211607E+00  0.11801987862E+01  0.00000000000E+00 0. -1.
         11    1    3    3    0    0 -0.92525702188E+01 -0.30058085154E+01 -0.29522800933E+01  0.10166656210E+02  0.51100000000E-03 0. -1.
        -11    1    3    3    0    0 -0.12102168750E+02 -0.14511140028E+02  0.33826767877E+02  0.38746430785E+02  0.51100000000E-03 0.  1.
         12    1    3    3    0    0  0.20333132617E+02  0.17140205731E+02 -0.31329739899E+02  0.41094714218E+02  0.00000000000E+00 0. -1.
</event>
<event>
 7    1  0.1935465E-015  0.9000770E+02  0.7816164E-02  0.1186339E+00
        -11   -1    0    0    0    0  0.00000000000E+00  0.00000000000E+00  0.45593999997E+02  0.45594000000E+02  0.51100000000E-03 0. -1.
         11   -1    0    0    0    0 -0.00000000000E+00 -0.00000000000E+00 -0.45593999997E+02  0.45594000000E+02  0.51100000000E-03 0.  1.
    9900012    2    1    2    0    0  0.71578775751E+00 -0.86295377208E+00 -0.36885891619E+00  0.90007704178E+02  0.89999965074E+02 0.  0.
         12    1    1    2    0    0 -0.71578775751E+00  0.86295377208E+00  0.36885891619E+00  0.11802958216E+01  0.00000000000E+00 0. -1.
         11    1    3    3    0    0 -0.13522389505E+02 -0.68685499528E+01  0.35323852388E+02  0.38442249468E+02  0.51100000000E-03 0. -1.
        -11    1    3    3    0    0 -0.60874575344E+01  0.66246789987E+01  0.15531962763E+01  0.91299468785E+01  0.51100000000E-03 0.  1.
        -12    1    3    3    0    0  0.20325634797E+02 -0.61908281804E+00 -0.37245907580E+02  0.42435507832E+02  0.00000000000E+00 0.  1.
</event>
<event>
 7    1  0.1935465E-015  0.9000772E+02  0.7816164E-02  0.1186339E+00
        -11   -1    0    0    0    0  0.00000000000E+00  0.00000000000E+00  0.45593999997E+02  0.45594000000E+02  0.51100000000E-03 0. -1.
         11   -1    0    0    0    0 -0.00000000000E+00 -0.00000000000E+00 -0.45593999997E+02  0.45594000000E+02  0.51100000000E-03 0.  1.
    9900012    2    1    2    0    0  0.13799436988E+00 -0.11554652308E+01 -0.19730178351E+00  0.90007715992E+02  0.89999977043E+02 0.  0.
         12    1    1    2    0    0 -0.13799436988E+00  0.11554652308E+01  0.19730178351E+00  0.11802840079E+01  0.00000000000E+00 0. -1.
         11    1    3    3    0    0  0.14415749988E+02  0.30257826249E+02  0.99083820569E+01  0.34950335224E+02  0.51100000000E-03 0. -1.
        -11    1    3    3    0    0  0.42300649592E+01  0.72390230415E+01  0.48280090581E+01  0.96750491410E+01  0.51100000000E-03 0.  1.
        -12    1    3    3    0    0 -0.18507820577E+02 -0.38652314521E+02 -0.14933692898E+02  0.45382331627E+02  0.00000000000E+00 0.  1.
</event>
<event>
 7    1  0.1935465E-015  0.9000790E+02  0.7816164E-02  0.1186339E+00
        -11   -1    0    0    0    0  0.00000000000E+00  0.00000000000E+00  0.45593999997E+02  0.45594000000E+02  0.51100000000E-03 0. -1.
         11   -1    0    0    0    0 -0.00000000000E+00 -0.00000000000E+00 -0.45593999997E+02  0.45594000000E+02  0.51100000000E-03 0.  1.
    9900012    2    1    2    0    0 -0.80302850179E+00  0.85969359139E-01 -0.86046429430E+00  0.90007896485E+02  0.90000159918E+02 0.  0.
         12    1    1    2    0    0  0.80302850179E+00 -0.85969359139E-01  0.86046429430E+00  0.11801035154E+01  0.00000000000E+00 0. -1.
         11    1    3    3    0    0 -0.13245346621E+01  0.10243838252E+02  0.10301305088E+02  0.14587923120E+02  0.51100000000E-03 0. -1.
        -11    1    3    3    0    0 -0.15866157776E+02  0.21855170867E+02 -0.25080577309E+02  0.36856733640E+02  0.51100000000E-03 0.  1.
         12    1    3    3    0    0  0.16387663936E+02 -0.32013039760E+02  0.13918807927E+02  0.38563239724E+02  0.00000000000E+00 0. -1.
</event>
<event>
 7    1  0.1935465E-015  0.9000773E+02  0.7816164E-02  0.1186339E+00
        -11   -1    0    0    0    0  0.00000000000E+00  0.00000000000E+00  0.45593999997E+02  0.45594000000E+02  0.51100000000E-03 0. -1.
         11   -1    0    0    0    0 -0.00000000000E+00 -0.00000000000E+00 -0.45593999997E+02  0.45594000000E+02  0.51100000000E-03 0.  1.
    9900012    2    1    2    0    0 -0.58227766109E+00  0.70292770850E+00 -0.74825536232E+00  0.90007728537E+02  0.89999989754E+02 0.  0.
         12    1    1    2    0    0  0.58227766109E+00 -0.70292770850E+00  0.74825536232E+00  0.11802714625E+01  0.00000000000E+00 0. -1.
         11    1    3    3    0    0  0.12935563237E+02  0.32677018750E+02 -0.15627756023E+02  0.38462229645E+02  0.51100000000E-03 0. -1.
        -11    1    3    3    0    0 -0.17818793679E+01  0.32798839567E+01 -0.73527709869E+01  0.82459671536E+01  0.51100000000E-03 0.  1.
        -12    1    3    3    0    0 -0.11735961531E+02 -0.35253974998E+02  0.22232271647E+02  0.43299531739E+02  0.00000000000E+00 0.  1.
</event>
<event>
 7    1  0.1935465E-015  0.9000770E+02  0.7816164E-02  0.1186339E+00
        -11   -1    0    0    0    0  0.00000000000E+00  0.00000000000E+00  0.45593999997E+02  0.45594000000E+02  0.51100000000E-03 0.  1.
         11   -1    0    0    0    0 -0.00000000000E+00 -0.00000000000E+00 -0.45593999997E+02  0.45594000000E+02  0.51100000000E-03 0. -1.
    9900012    2    1    2    0    0 -0.82241140265E+00  0.49889708227E+00  0.68399332310E+00  0.90007701021E+02  0.89999961874E+02 0.  0.
         12    1    1    2    0    0  0.82241140265E+00 -0.49889708227E+00 -0.68399332310E+00  0.11802989790E+01  0.00000000000E+00 0. -1.
         11    1    3    3    0    0  0.79063626053E+01 -0.10227082087E+02  0.11284398643E+01  0.12976022289E+02  0.51100000000E-03 0. -1.
        -11    1    3    3    0    0  0.15784012543E+02 -0.27171145188E+02  0.40128826521E+01  0.31678216652E+02  0.51100000000E-03 0.  1.
         12    1    3    3    0    0 -0.24512786551E+02  0.37897124358E+02 -0.44573291933E+01  0.45353462080E+02  0.00000000000E+00 0. -1.
</event>
<event>
 7    1  0.1935465E-015  0.9000768E+02  0.7816164E-02  0.1186339E+00
        -11   -1    0    0    0    0  0.00000000000E+00  0.00000000000E+00  0.45593999997E+02  0.45594000000E+02  0.51100000000E-03 0. -1.
         11   -1    0    0    0    0 -0.00000000000E+00 -0.00000000000E+00 -0.45593999997E+02  0.45594000000E+02  0.51100000000E-03 0.  1.
    9900012    2    1    2    0    0 -0.96695272765E+00  0.18041086791E+00 -0.65239094949E+00  0.90007678175E+02  0.89999938727E+02 0.  0.
         12    1    1    2    0    0  0.96695272765E+00 -0.18041086791E+00  0.65239094949E+00  0.11803218246E+01  0.00000000000E+00 0. -1.
         11    1    3    3    0    0  0.74489033700E+01  0.28733259038E+02  0.16311133625E+02  0.33869446656E+02  0.51100000000E-03 0. -1.
        -11    1    3    3    0    0  0.21830447973E+01  0.10057614256E+02  0.38800364905E+01  0.10998907789E+02  0.51100000000E-03 0.  1.
        -12    1    3    3    0    0 -0.10598900895E+02 -0.38610462427E+02 -0.20843561065E+02  0.45139323731E+02  0.00000000000E+00 0.  1.
</event>
<event>
 7    1  0.1935465E-015  0.9000771E+02  0.7816164E-02  0.1186339E+00
        -11   -1    0    0    0    0  0.00000000000E+00  0.00000000000E+00  0.45593999997E+02  0.45594000000E+02  0.51100000000E-03 0.  1.
         11   -1    0    0    0    0 -0.00000000000E+00 -0.00000000000E+00 -0.45593999997E+02  0.45594000000E+02  0.51100000000E-03 0. -1.
    9900012    2    1    2    0    0  0.46867923079E+00  0.48968624483E+00  0.96624432852E+00  0.90007711500E+02  0.89999972492E+02 0.  0.
         12    1    1    2    0    0 -0.46867923079E+00 -0.48968624483E+00 -0.96624432852E+00  0.11802884995E+01  0.00000000000E+00 0. -1.
         11    1    3    3    0    0 -0.16922819836E+01 -0.12055582771E+01  0.10046611680E+02  0.10259220028E+02  0.51100000000E-03 0. -1.
        -11    1    3    3    0    0 -0.34429943528E+02  0.40980456491E+01  0.12900847675E+02  0.36995227536E+02  0.51100000000E-03 0.  1.
         12    1    3    3    0    0  0.36590904742E+02 -0.24028011272E+01 -0.21981215027E+02  0.42753263936E+02  0.00000000000E+00 0. -1.
</event>
<event>
 7    1  0.1935465E-015  0.9000769E+02  0.7816164E-02  0.1186339E+00
        -11   -1    0    0    0    0  0.00000000000E+00  0.00000000000E+00  0.45593999997E+02  0.45594000000E+02  0.51100000000E-03 0.  1.
         11   -1    0    0    0    0 -0.00000000000E+00 -0.00000000000E+00 -0.45593999997E+02  0.45594000000E+02  0.51100000000E-03 0. -1.
    9900012    2    1    2    0    0  0.70283025918E+00  0.21994029177E+00  0.92238079194E+00  0.90007690536E+02  0.89999951251E+02 0.  0.
         12    1    1    2    0    0 -0.70283025918E+00 -0.21994029177E+00 -0.92238079194E+00  0.11803094639E+01  0.00000000000E+00 0. -1.
         11    1    3    3    0    0 -0.28884027122E+01 -0.10376442838E+01  0.85219331672E+01  0.90577547469E+01  0.51100000000E-03 0. -1.
        -11    1    3    3    0    0 -0.12483929959E+02  0.32483714051E+02  0.16340782476E+02  0.38445563567E+02  0.51100000000E-03 0.  1.
         12    1    3    3    0    0  0.16075162930E+02 -0.31226129475E+02 -0.23940334851E+02  0.42504372223E+02  0.00000000000E+00 0. -1.
</event>
<event>
 7    1  0.1935465E-015  0.9000782E+02  0.7816164E-02  0.1186339E+00
        -11   -1    0    0    0    0  0.00000000000E+00  0.00000000000E+00  0.45593999997E+02  0.45594000000E+02  0.51100000000E-03 0.  1.
         11   -1    0    0    0    0 -0.00000000000E+00 -0.00000000000E+00 -0.45593999997E+02  0.45594000000E+02  0.51100000000E-03 0. -1.
    9900012    2    1    2    0    0 -0.10545435613E+01 -0.26760291540E+00  0.45733444744E+00  0.90007818556E+02  0.90000080961E+02 0.  0.
         12    1    1    2    0    0  0.10545435613E+01  0.26760291540E+00 -0.45733444744E+00  0.11801814436E+01  0.00000000000E+00 0. -1.
         11    1    3    3    0    0  0.22162716155E+02  0.12031848368E+02 -0.31347013106E+02  0.40231661580E+02  0.51100000000E-03 0. -1.
        -11    1    3    3    0    0  0.60732365204E+01 -0.30763926268E+00  0.85924388581E+01  0.10526578245E+02  0.51100000000E-03 0.  1.
        -12    1    3    3    0    0 -0.29290496237E+02 -0.11991812021E+02  0.23211908695E+02  0.39249578732E+02  0.00000000000E+00 0.  1.
</event>
<event>
 7    1  0.1935465E-015  0.9000775E+02  0.7816164E-02  0.1186339E+00
        -11   -1    0    0    0    0  0.00000000000E+00  0.00000000000E+00  0.45593999997E+02  0.45594000000E+02  0.51100000000E-03 0.  1.
         11   -1    0    0    0    0 -0.00000000000E+00 -0.00000000000E+00 -0.45593999997E+02  0.45594000000E+02  0.51100000000E-03 0. -1.
    9900012    2    1    2    0    0  0.86234697778E+00 -0.28838697238E+00  0.75245439857E+00  0.90007747070E+02  0.90000008532E+02 0.  0.
         12    1    1    2    0    0 -0.86234697778E+00  0.28838697238E+00 -0.75245439857E+00  0.11802529296E+01  0.00000000000E+00 0. -1.
         11    1    3    3    0    0  0.77067084915E+01  0.26719600548E+01  0.14341291273E+01  0.82818749642E+01  0.51100000000E-03 0. -1.
        -11    1    3    3    0    0  0.29309786947E+02 -0.22027191712E+02 -0.13216004603E+02  0.38973369928E+02  0.51100000000E-03 0.  1.
         12    1    3    3    0    0 -0.36154148460E+02  0.19066844685E+02  0.12534329874E+02  0.42752502179E+02  0.00000000000E+00 0. -1.
</event>
<event>
 7    1  0.1935465E-015  0.9000773E+02  0.7816164E-02  0.1186339E+00
        -11   -1    0    0    0    0  0.00000000000E+00  0.00000000000E+00  0.45593999997E+02  0.45594000000E+02  0.51100000000E-03 0. -1.
         11   -1    0    0    0    0 -0.00000000000E+00 -0.00000000000E+00 -0.45593999997E+02  0.45594000000E+02  0.51100000000E-03 0.  1.
    9900012    2    1    2    0    0  0.61059982886E+00 -0.10051084857E+01 -0.99865963128E-01  0.90007725274E+02  0.89999986447E+02 0.  0.
         12    1    1    2    0    0 -0.61059982886E+00  0.10051084857E+01  0.99865963128E-01  0.11802747263E+01  0.00000000000E+00 0. -1.
         11    1    3    3    0    0  0.25542345636E+02  0.36321548482E+01  0.25814464617E+02  0.36496445761E+02  0.51100000000E-03 0. -1.
        -11    1    3    3    0    0  0.10930619547E-01 -0.53453087059E+01  0.90771256086E+01  0.10534071113E+02  0.51100000000E-03 0.  1.
        -12    1    3    3    0    0 -0.24942676427E+02  0.70804537197E+00 -0.34991456189E+02  0.42977208400E+02  0.00000000000E+00 0.  1.
</event>
<event>
 7    1  0.1935465E-015  0.9000761E+02  0.7816164E-02  0.1186339E+00
        -11   -1    0    0    0    0  0.00000000000E+00  0.00000000000E+00  0.45593999997E+02  0.45594000000E+02  0.51100000000E-03 0. -1.
         11   -1    0    0    0    0 -0.00000000000E+00 -0.00000000000E+00 -0.45593999997E+02  0.45594000000E+02  0.51100000000E-03 0.  1.
    9900012    2    1    2    0    0 -0.96889301237E+00 -0.33857589884E+00 -0.58303769699E+00  0.90007610122E+02  0.89999869775E+02 0.  0.
         12    1    1    2    0    0  0.96889301237E+00  0.33857589884E+00  0.58303769699E+00  0.11803898783E+01  0.00000000000E+00 0. -1.
         11    1    3    3    0    0 -0.37386866443E+02 -0.98481111106E+01  0.11915738823E+02  0.40456741179E+02  0.51100000000E-03 0. -1.
        -11    1    3    3    0    0  0.60568473654E+01 -0.53614270853E+01  0.68486297805E+01  0.10598774954E+02  0.51100000000E-03 0.  1.
        -12    1    3    3    0    0  0.30361126065E+02  0.14870962297E+02 -0.19347406300E+02  0.38952093989E+02  0.00000000000E+00 0.  1.
</event>
<event>
 7    1  0.1935465E-015  0.9000774E+02  0.7816164E-02  0.1186339E+00
        -11   -1    0    0    0    0  0.00000000000E+00  0.00000000000E+00  0.45593999997E+02  0.45594000000E+02  0.51100000000E-03 0.  1.
         11   -1    0    0    0    0 -0.00000000000E+00 -0.00000000000E+00 -0.45593999997E+02  0.45594000000E+02  0.51100000000E-03 0. -1.
    9900012    2    1    2    0    0  0.10139304274E+01 -0.35468269119E+00 -0.48902961868E+00  0.90007743803E+02  0.90000005221E+02 0.  0.
         12    1    1    2    0    0 -0.10139304274E+01  0.35468269119E+00  0.48902961868E+00  0.11802561972E+01  0.00000000000E+00 0. -1.
         11    1    3    3    0    0 -0.79752618718E+01 -0.32159103041E+00 -0.38788763214E+01  0.88743396652E+01  0.51100000000E-03 0. -1.
        -11    1    3    3    0    0 -0.78523759242E+01 -0.38345040651E+02  0.33408973723E+01  0.39283120366E+02  0.51100000000E-03 0.  1.
         12    1    3    3    0    0  0.16841568223E+02  0.38311948991E+02  0.48949330417E-01  0.41850283771E+02  0.00000000000E+00 0. -1.
</event>
<event>
 7    1  0.1935465E-015  0.9000775E+02  0.7816164E-02  0.1186339E+00
        -11   -1    0    0    0    0  0.00000000000E+00  0.00000000000E+00  0.45593999997E+02  0.45594000000E+02  0.51100000000E-03 0. -1.
         11   -1    0    0    0    0 -0.00000000000E+00 -0.00000000000E+00 -0.45593999997E+02  0.45594000000E+02  0.51100000000E-03 0.  1.
    9900012    2    1    2    0    0  0.10145799626E+01  0.53015746294E+00  0.28731780979E+00  0.90007749620E+02  0.90000011115E+02 0.  0.
         12    1    1    2    0    0 -0.10145799626E+01 -0.53015746294E+00 -0.28731780979E+00  0.11802503801E+01  0.00000000000E+00 0. -1.
         11    1    3    3    0    0  0.27606095584E+02  0.22195460308E+01  0.22907610639E+02  0.35941362292E+02  0.51100000000E-03 0. -1.
        -11    1    3    3    0    0  0.16433470172E+01  0.14036864920E+02  0.79722661340E+00  0.14155201755E+02  0.51100000000E-03 0.  1.
        -12    1    3    3    0    0 -0.28234862638E+02 -0.15726253488E+02 -0.23417519442E+02  0.39911185573E+02  0.00000000000E+00 0.  1.
</event>
<event>
 7    1  0.1935465E-015  0.9000773E+02  0.7816164E-02  0.1186339E+00
        -11   -1    0    0    0    0  0.00000000000E+00  0.00000000000E+00  0.45593999997E+02  0.45594000000E+02  0.51100000000E-03 0.  1.
         11   -1    0    0    0    0 -0.00000000000E+00 -0.00000000000E+00 -0.45593999997E+02  0.45594000000E+02  0.51100000000E-03 0. -1.
    9900012    2    1    2    0    0 -0.23563481497E+00 -0.70258856834E+00  0.91863550618E+00  0.90007726449E+02  0.89999987638E+02 0.  0.
         12    1    1    2    0    0  0.23563481497E+00  0.70258856834E+00 -0.91863550618E+00  0.11802735512E+01  0.00000000000E+00 0. -1.
         11    1    3    3    0    0  0.89295527092E+01 -0.22106429328E+01  0.54622605425E+01  0.10698604781E+02  0.51100000000E-03 0. -1.
        -11    1    3    3    0    0  0.20605909941E+02  0.23165708120E+02  0.18281087894E+02  0.35992384362E+02  0.51100000000E-03 0.  1.
         12    1    3    3    0    0 -0.29771097465E+02 -0.21657653756E+02 -0.22824712930E+02  0.43316737306E+02  0.00000000000E+00 0. -1.
</event>
<event>
 7    1  0.1935465E-015  0.9000752E+02  0.7816164E-02  0.1186339E+00
        -11   -1    0    0    0    0  0.00000000000E+00  0.00000000000E+00  0.45593999997E+02  0.45594000000E+02  0.51100000000E-03 0. -1.
         11   -1    0    0    0    0 -0.00000000000E+00 -0.00000000000E+00 -0.45593999997E+02  0.45594000000E+02  0.51100000000E-03 0.  1.
    9900012    2    1    2    0    0 -0.17321943266E+00  0.18527080974E-01  0.11675536110E+01  0.90007521428E+02  0.89999779911E+02 0.  0.
         12    1    1    2    0    0  0.17321943266E+00 -0.18527080974E-01 -0.11675536110E+01  0.11804785721E+01  0.00000000000E+00 0. -1.
         11    1    3    3    0    0  0.28466022156E+02 -0.39455819577E-01  0.19440312600E+02  0.34470882327E+02  0.51100000000E-03 0. -1.
        -11    1    3    3    0    0  0.99803749188E+01 -0.10542880531E+01  0.41563345627E+01  0.10862528438E+02  0.51100000000E-03 0.  1.
        -12    1    3    3    0    0 -0.38619616508E+02  0.11122709537E+01 -0.22429093552E+02  0.44674110662E+02  0.00000000000E+00 0.  1.
</event>
<event>
 7    1  0.1935465E-015  0.9000789E+02  0.7816164E-02  0.1186339E+00
        -11   -1    0    0    0    0  0.00000000000E+00  0.00000000000E+00  0.45593999997E+02  0.45594000000E+02  0.51100000000E-03 0. -1.
         11   -1    0    0    0    0 -0.00000000000E+00 -0.00000000000E+00 -0.45593999997E+02  0.45594000000E+02  0.51100000000E-03 0.  1.
    9900012    2    1    2    0    0  0.11765644229E+01 -0.47852656153E-01  0.77841160262E-01  0.90007892817E+02  0.90000156202E+02 0.  0.
         12    1    1    2    0    0 -0.11765644229E+01  0.47852656153E-01 -0.77841160262E-01  0.11801071833E+01  0.00000000000E+00 0. -1.
         11    1    3    3    0    0  0.85503584707E+01 -0.13440150172E+01 -0.47304127209E+01  0.98636611416E+01  0.51100000000E-03 0. -1.
        -11    1    3    3    0    0  0.19184571993E+01  0.38863294964E+02  0.12131889906E+02  0.40758053517E+02  0.51100000000E-03 0.  1.
         12    1    3    3    0    0 -0.92922512472E+01 -0.37567132603E+02 -0.73236360253E+01  0.39386178158E+02  0.00000000000E+00 0. -1.
</event>
<event>
 7    1  0.1935465E-015  0.9000780E+02  0.7816164E-02  0.1186339E+00
        -11   -1    0    0    0    0  0.00000000000E+00  0.00000000000E+00  0.45593999997E+02  0.45594000000E+02  0.51100000000E-03 0. -1.
         11   -1    0    0    0    0 -0.00000000000E+00 -0.00000000000E+00 -0.45593999997E+02  0.45594000000E+02  0.51100000000E-03 0.  1.
    9900012    2    1    2    0    0 -0.44466730282E+00 -0.87824455677E+00  0.65102207783E+00  0.90007799908E+02  0.90000062067E+02 0.  0.
         12    1    1    2    0    0  0.44466730282E+00  0.87824455677E+00 -0.65102207783E+00  0.11802000921E+01  0.00000000000E+00 0. -1.
         11    1    3    3    0    0  0.76650962074E+01  0.43963965119E+01 -0.14163286192E+01  0.89491893028E+01  0.51100000000E-03 0. -1.
        -11    1    3    3    0    0  0.46079360282E+01  0.13884733559E+02 -0.34719357895E+02  0.37675624923E+02  0.51100000000E-03 0.  1.
         12    1    3    3    0    0 -0.12717699538E+02 -0.19159374627E+02  0.36786708592E+02  0.43382985682E+02  0.00000000000E+00 0. -1.
</event>
<event>
 7    1  0.1935465E-015  0.9000776E+02  0.7816164E-02  0.1186339E+00
        -11   -1    0    0    0    0  0.00000000000E+00  0.00000000000E+00  0.45593999997E+02  0.45594000000E+02  0.51100000000E-03 0.  1.
         11   -1    0    0    0    0 -0.00000000000E+00 -0.00000000000E+00 -0.45593999997E+02  0.45594000000E+02  0.51100000000E-03 0. -1.
    9900012    2    1    2    0    0  0.73478702133E+00  0.92208119599E+00 -0.53131345968E-01  0.90007759076E+02  0.90000020696E+02 0.  0.
         12    1    1    2    0    0 -0.73478702133E+00 -0.92208119599E+00  0.53131345968E-01  0.11802409240E+01  0.00000000000E+00 0. -1.
         11    1    3    3    0    0  0.12799086213E+00 -0.21403148338E+02  0.35281450696E+02  0.41266110840E+02  0.51100000000E-03 0. -1.
        -11    1    3    3    0    0  0.61855464547E+01  0.55858151883E+01  0.95593820406E+00  0.83890484783E+01  0.51100000000E-03 0.  1.
        -12    1    3    3    0    0 -0.55787502955E+01  0.16739414346E+02 -0.36290520246E+02  0.40352599757E+02  0.00000000000E+00 0.  1.
</event>
<event>
 7    1  0.1935465E-015  0.9000764E+02  0.7816164E-02  0.1186339E+00
        -11   -1    0    0    0    0  0.00000000000E+00  0.00000000000E+00  0.45593999997E+02  0.45594000000E+02  0.51100000000E-03 0. -1.
         11   -1    0    0    0    0 -0.00000000000E+00 -0.00000000000E+00 -0.45593999997E+02  0.45594000000E+02  0.51100000000E-03 0.  1.
    9900012    2    1    2    0    0 -0.17033234995E+00 -0.28667748443E+00 -0.11322794791E+01  0.90007638230E+02  0.89999898254E+02 0.  0.
         12    1    1    2    0    0  0.17033234995E+00  0.28667748443E+00  0.11322794791E+01  0.11803617701E+01  0.00000000000E+00 0. -1.
         11    1    3    3    0    0 -0.60270675478E+00  0.42565736784E+01  0.80931024988E+01  0.91640593205E+01  0.51100000000E-03 0. -1.
        -11    1    3    3    0    0 -0.37983284697E+02 -0.14186044696E+02 -0.72334326585E+01  0.41186118156E+02  0.51100000000E-03 0.  1.
         12    1    3    3    0    0  0.38415659102E+02  0.96427935329E+01 -0.19919493195E+01  0.39657460754E+02  0.00000000000E+00 0. -1.
</event>
<event>
 7    1  0.1935465E-015  0.9000771E+02  0.7816164E-02  0.1186339E+00
        -11   -1    0    0    0    0  0.00000000000E+00  0.00000000000E+00  0.45593999997E+02  0.45594000000E+02  0.51100000000E-03 0.  1.
         11   -1    0    0    0    0 -0.00000000000E+00 -0.00000000000E+00 -0.45593999997E+02  0.45594000000E+02  0.51100000000E-03 0. -1.
    9900012    2    1    2    0    0 -0.11109808786E+01  0.80703954227E-01  0.39025170846E+00  0.90007708495E+02  0.89999969447E+02 0.  0.
         12    1    1    2    0    0  0.11109808786E+01 -0.80703954227E-01 -0.39025170846E+00  0.11802915050E+01  0.00000000000E+00 0. -1.
         11    1    3    3    0    0  0.39722325902E+01  0.36243091234E+01 -0.69752235670E+01  0.88072692955E+01  0.51100000000E-03 0. -1.
        -11    1    3    3    0    0  0.27671409657E+02  0.23957007678E+02 -0.43436187782E+01  0.36857999859E+02  0.51100000000E-03 0.  1.
         12    1    3    3    0    0 -0.32754623125E+02 -0.27500612848E+02  0.11709094054E+02  0.44342439340E+02  0.00000000000E+00 0. -1.
</event>
<event>
 7    1  0.1935465E-015  0.9000775E+02  0.7816164E-02  0.1186339E+00
        -11   -1    0    0    0    0  0.00000000000E+00  0.00000000000E+00  0.45593999997E+02  0.45594000000E+02  0.51100000000E-03 0.  1.
         11   -1    0    0    0    0 -0.00000000000E+00 -0.00000000000E+00 -0.45593999997E+02  0.45594000000E+02  0.51100000000E-03 0. -1.
    9900012    2    1    2    0    0 -0.93011092374E-02 -0.11168570693E+01  0.38149501574E+00  0.90007748048E+02  0.90000009522E+02 0.  0.
         12    1    1    2    0    0  0.93011092374E-02  0.11168570693E+01 -0.38149501574E+00  0.11802519523E+01  0.00000000000E+00 0. -1.
         11    1    3    3    0    0 -0.21322271288E+02 -0.36024213453E+02 -0.14229149742E+02  0.44213707268E+02  0.51100000000E-03 0. -1.
        -11    1    3    3    0    0 -0.13928122205E+01  0.80209619252E+01  0.17545001148E+01  0.83279065197E+01  0.51100000000E-03 0.  1.
        -12    1    3    3    0    0  0.22705782399E+02  0.26886394458E+02  0.12856144643E+02  0.37466134260E+02  0.00000000000E+00 0.  1.
</event>
<event>
 7    1  0.2162125E-015  0.9000770E+02  0.7816164E-02  0.1186339E+00
        -11   -1    0    0    0    0  0.00000000000E+00  0.00000000000E+00  0.45593999997E+02  0.45594000000E+02  0.51100000000E-03 0.  1.
         11   -1    0    0    0    0 -0.00000000000E+00 -0.00000000000E+00 -0.45593999997E+02  0.45594000000E+02  0.51100000000E-03 0. -1.
    9900012    2    1    2    0    0 -0.10211106975E+01  0.35426037206E+00  0.47427179262E+00  0.90007702918E+02  0.89999963797E+02 0.  0.
         12    1    1    2    0    0  0.10211106975E+01 -0.35426037206E+00 -0.47427179262E+00  0.11802970817E+01  0.00000000000E+00 0. -1.
         11    1    3    3    0    0  0.54574433912E+01 -0.77112386655E+01  0.72314114143E-01  0.94473340005E+01  0.51100000000E-03 0. -1.
        -11    1    3    3    0    0 -0.76684209515E+01 -0.37112741990E+01  0.39138880928E+02  0.40055339677E+02  0.51100000000E-03 0.  1.
         12    1    3    3    0    0  0.11898668628E+01  0.11776773237E+02 -0.38736923249E+02  0.40505029241E+02  0.00000000000E+00 0. -1.
</event>
<event>
 7    1  0.2140634E-015  0.9000779E+02  0.7816164E-02  0.1186339E+00
        -11   -1    0    0    0    0  0.00000000000E+00  0.00000000000E+00  0.45593999997E+02  0.45594000000E+02  0.51100000000E-03 0.  1.
         11   -1    0    0    0    0 -0.00000000000E+00 -0.00000000000E+00 -0.45593999997E+02  0.45594000000E+02  0.51100000000E-03 0. -1.
    9900012    2    1    2    0    0 -0.23074410739E+00 -0.11516919699E+01  0.11516605601E+00  0.90007787961E+02  0.90000049962E+02 0.  0.
         12    1    1    2    0    0  0.23074410739E+00  0.11516919699E+01 -0.11516605601E+00  0.11802120390E+01  0.00000000000E+00 0. -1.
         11    1    3    3    0    0  0.26256343354E+01 -0.33183843745E+01 -0.90713491753E+01  0.10009745583E+02  0.51100000000E-03 0. -1.
        -11    1    3    3    0    0  0.10742969742E+02  0.35287041645E+02 -0.11513387486E+02  0.38641231846E+02  0.51100000000E-03 0.  1.
         12    1    3    3    0    0 -0.13599348185E+02 -0.33120349240E+02  0.20699902717E+02  0.41356810532E+02  0.00000000000E+00 0. -1.
</event>
<event>
 7    1  0.1935465E-015  0.9000751E+02  0.7816164E-02  0.1186340E+00
        -11   -1    0    0    0    0  0.00000000000E+00  0.00000000000E+00  0.45593999997E+02  0.45594000000E+02  0.51100000000E-03 0. -1.
         11   -1    0    0    0    0 -0.00000000000E+00 -0.00000000000E+00 -0.45593999997E+02  0.45594000000E+02  0.51100000000E-03 0.  1.
    9900012    2    1    2    0    0 -0.50047441659E-01 -0.15265543242E-01 -0.11793319592E+01  0.90007507877E+02  0.89999766180E+02 0.  0.
         12    1    1    2    0    0  0.50047441659E-01  0.15265543242E-01  0.11793319592E+01  0.11804921233E+01  0.00000000000E+00 0. -1.
         11    1    3    3    0    0  0.63399320137E+01  0.42492765745E+02 -0.92456695796E+01  0.43946698224E+02  0.51100000000E-03 0. -1.
        -11    1    3    3    0    0  0.43157758185E+01 -0.87840950625E+01  0.34557775508E+01  0.10379241096E+02  0.51100000000E-03 0.  1.
        -12    1    3    3    0    0 -0.10705755274E+02 -0.33723936225E+02  0.46105600697E+01  0.35681568557E+02  0.00000000000E+00 0.  1.
</event>
<event>
 7    1  0.2244600E-015  0.9000800E+02  0.7816164E-02  0.1186339E+00
        -11   -1    0    0    0    0  0.00000000000E+00  0.00000000000E+00  0.45593999997E+02  0.45594000000E+02  0.51100000000E-03 0. -1.
         11   -1    0    0    0    0 -0.00000000000E+00 -0.00000000000E+00 -0.45593999997E+02  0.45594000000E+02  0.51100000000E-03 0.  1.
    9900012    2    1    2    0    0 -0.45161887400E+00  0.90654351805E+00 -0.60548755210E+00  0.90008001723E+02  0.90000266546E+02 0.  0.
         12    1    1    2    0    0  0.45161887400E+00 -0.90654351805E+00  0.60548755210E+00  0.11799982768E+01  0.00000000000E+00 0. -1.
         11    1    3    3    0    0  0.86189452859E+01 -0.18505934889E+01 -0.45617385535E+01  0.99257429442E+01  0.51100000000E-03 0. -1.
        -11    1    3    3    0    0  0.17409201455E+02  0.28368743327E+02 -0.17339829452E+02  0.37530462013E+02  0.51100000000E-03 0.  1.
         12    1    3    3    0    0 -0.26479765614E+02 -0.25611606320E+02  0.21296080454E+02  0.42551796766E+02  0.00000000000E+00 0. -1.
</event>
<event>
 7    1  0.1935465E-015  0.9000776E+02  0.7816164E-02  0.1186339E+00
        -11   -1    0    0    0    0  0.00000000000E+00  0.00000000000E+00  0.45593999997E+02  0.45594000000E+02  0.51100000000E-03 0.  1.
         11   -1    0    0    0    0 -0.00000000000E+00 -0.00000000000E+00 -0.45593999997E+02  0.45594000000E+02  0.51100000000E-03 0. -1.
    9900012    2    1    2    0    0  0.11754557400E+01  0.10271831643E+00  0.26848539650E-01  0.90007759307E+02  0.90000020930E+02 0.  0.
         12    1    1    2    0    0 -0.11754557400E+01 -0.10271831643E+00 -0.26848539650E-01  0.11802406930E+01  0.00000000000E+00 0. -1.
         11    1    3    3    0    0 -0.59665916759E+01 -0.67630524472E+01  0.11205219981E+01  0.90881606742E+01  0.51100000000E-03 0. -1.
        -11    1    3    3    0    0 -0.34053524315E+02  0.87999093170E+01  0.12758097873E+02  0.37414569139E+02  0.51100000000E-03 0.  1.
         12    1    3    3    0    0  0.41195571731E+02 -0.19341385534E+01 -0.13851771332E+02  0.43505029494E+02  0.00000000000E+00 0. -1.
</event>
<event>
 7    1  0.1935465E-015  0.9000765E+02  0.7816164E-02  0.1186339E+00
        -11   -1    0    0    0    0  0.00000000000E+00  0.00000000000E+00  0.45593999997E+02  0.45594000000E+02  0.51100000000E-03 0.  1.
         11   -1    0    0    0    0 -0.00000000000E+00 -0.00000000000E+00 -0.45593999997E+02  0.45594000000E+02  0.51100000000E-03 0. -1.
    9900012    2    1    2    0    0 -0.67564538587E+00 -0.46133197304E+00  0.85082021317E+00  0.90007653054E+02  0.89999913275E+02 0.  0.
         12    1    1    2    0    0  0.67564538587E+00  0.46133197304E+00 -0.85082021317E+00  0.11803469456E+01  0.00000000000E+00 0. -1.
         11    1    3    3    0    0  0.34150638942E+02 -0.34943719878E+01 -0.19096200727E+02  0.39282841779E+02  0.51100000000E-03 0. -1.
        -11    1    3    3    0    0 -0.62168243545E+01  0.79326532065E+00 -0.83384269928E+01  0.10431085269E+02  0.51100000000E-03 0.  1.
        -12    1    3    3    0    0 -0.28609459974E+02  0.22397746942E+01  0.28285447933E+02  0.40293726006E+02  0.00000000000E+00 0.  1.
</event>
<event>
 7    1  0.1935465E-015  0.9000772E+02  0.7816164E-02  0.1186339E+00
        -11   -1    0    0    0    0  0.00000000000E+00  0.00000000000E+00  0.45593999997E+02  0.45594000000E+02  0.51100000000E-03 0. -1.
         11   -1    0    0    0    0 -0.00000000000E+00 -0.00000000000E+00 -0.45593999997E+02  0.45594000000E+02  0.51100000000E-03 0.  1.
    9900012    2    1    2    0    0  0.10648829463E+01  0.15764999993E+00 -0.48396867209E+00  0.90007722538E+02  0.89999983675E+02 0.  0.
         12    1    1    2    0    0 -0.10648829463E+01 -0.15764999993E+00  0.48396867209E+00  0.11802774621E+01  0.00000000000E+00 0. -1.
         11    1    3    3    0    0 -0.21947907603E+02 -0.68003148294E+01  0.30384181744E+02  0.38094007802E+02  0.51100000000E-03 0. -1.
        -11    1    3    3    0    0  0.60714309656E+01  0.13195893565E+02  0.17521652798E+01  0.14630924933E+02  0.51100000000E-03 0.  1.
        -12    1    3    3    0    0  0.16941359583E+02 -0.62379287360E+01 -0.32620315696E+02  0.37282789803E+02  0.00000000000E+00 0.  1.
</event>
<event>
 7    1  0.1935465E-015  0.9000759E+02  0.7816164E-02  0.1186339E+00
        -11   -1    0    0    0    0  0.00000000000E+00  0.00000000000E+00  0.45593999997E+02  0.45594000000E+02  0.51100000000E-03 0.  1.
         11   -1    0    0    0    0 -0.00000000000E+00 -0.00000000000E+00 -0.45593999997E+02  0.45594000000E+02  0.51100000000E-03 0. -1.
    9900012    2    1    2    0    0 -0.10356166882E+01  0.56586645349E+00 -0.25753591882E-01  0.90007589048E+02  0.89999848423E+02 0.  0.
         12    1    1    2    0    0  0.10356166882E+01 -0.56586645349E+00  0.25753591882E-01  0.11804109520E+01  0.00000000000E+00 0. -1.
         11    1    3    3    0    0  0.75333200606E+01 -0.17366472160E+01 -0.51037308016E+01  0.92636344403E+01  0.51100000000E-03 0. -1.
        -11    1    3    3    0    0  0.28730924881E+02  0.18041831336E+02  0.17793991275E+02  0.38309265827E+02  0.51100000000E-03 0.  1.
         12    1    3    3    0    0 -0.37299861630E+02 -0.15739317667E+02 -0.12716014065E+02  0.42434688781E+02  0.00000000000E+00 0. -1.
</event>
<event>
 7    1  0.1935465E-015  0.9000762E+02  0.7816164E-02  0.1186339E+00
        -11   -1    0    0    0    0  0.00000000000E+00  0.00000000000E+00  0.45593999997E+02  0.45594000000E+02  0.51100000000E-03 0. -1.
         11   -1    0    0    0    0 -0.00000000000E+00 -0.00000000000E+00 -0.45593999997E+02  0.45594000000E+02  0.51100000000E-03 0.  1.
    9900012    2    1    2    0    0 -0.42898804946E+00 -0.52095209294E+00 -0.96844408830E+00  0.90007616257E+02  0.89999875991E+02 0.  0.
         12    1    1    2    0    0  0.42898804946E+00  0.52095209294E+00  0.96844408830E+00  0.11803837435E+01  0.00000000000E+00 0. -1.
         11    1    3    3    0    0 -0.34843987787E+02 -0.49874598869E+01 -0.13867891983E+02  0.37832481670E+02  0.51100000000E-03 0. -1.
        -11    1    3    3    0    0 -0.69885447998E+01 -0.41989525999E+01  0.33221971898E+01  0.88038602774E+01  0.51100000000E-03 0.  1.
        -12    1    3    3    0    0  0.41403544537E+02  0.86654603938E+01  0.95772507051E+01  0.43371274309E+02  0.00000000000E+00 0.  1.
</event>
<event>
 7    1  0.1935465E-015  0.9000770E+02  0.7816164E-02  0.1186339E+00
        -11   -1    0    0    0    0  0.00000000000E+00  0.00000000000E+00  0.45593999997E+02  0.45594000000E+02  0.51100000000E-03 0.  1.
         11   -1    0    0    0    0 -0.00000000000E+00 -0.00000000000E+00 -0.45593999997E+02  0.45594000000E+02  0.51100000000E-03 0. -1.
    9900012    2    1    2    0    0  0.10169165857E+01  0.32870816736E+00  0.50093833193E+00  0.90007700202E+02  0.89999961044E+02 0.  0.
         12    1    1    2    0    0 -0.10169165857E+01 -0.32870816736E+00 -0.50093833193E+00  0.11802997983E+01  0.00000000000E+00 0. -1.
         11    1    3    3    0    0 -0.23101219837E+01 -0.55937882428E+01 -0.78195308785E+01  0.98879822970E+01  0.51100000000E-03 0. -1.
        -11    1    3    3    0    0  0.32789405284E+02 -0.93123000658E+01  0.25685936420E+02  0.42680573584E+02  0.51100000000E-03 0.  1.
         12    1    3    3    0    0 -0.29462366715E+02  0.15234796476E+02 -0.17365467209E+02  0.37439144321E+02  0.00000000000E+00 0. -1.
</event>
<event>
 7    1  0.1935465E-015  0.9000773E+02  0.7816164E-02  0.1186339E+00
        -11   -1    0    0    0    0  0.00000000000E+00  0.00000000000E+00  0.45593999997E+02  0.45594000000E+02  0.51100000000E-03 0.  1.
         11   -1    0    0    0    0 -0.00000000000E+00 -0.00000000000E+00 -0.45593999997E+02  0.45594000000E+02  0.51100000000E-03 0. -1.
    9900012    2    1    2    0    0 -0.69916166078E-01  0.92311602131E+00  0.73213149801E+00  0.90007725460E+02  0.89999986636E+02 0.  0.
         12    1    1    2    0    0  0.69916166078E-01 -0.92311602131E+00 -0.73213149801E+00  0.11802745399E+01  0.00000000000E+00 0. -1.
         11    1    3    3    0    0  0.16964569255E+02 -0.95626528555E+01 -0.30466421283E+02  0.36158591865E+02  0.51100000000E-03 0. -1.
        -11    1    3    3    0    0 -0.10596019015E+01 -0.96413398837E+01 -0.38111682486E+01  0.10421285651E+02  0.51100000000E-03 0.  1.
        -12    1    3    3    0    0 -0.15974883519E+02  0.20127108761E+02  0.35009721029E+02  0.43427847944E+02  0.00000000000E+00 0.  1.
</event>
<event>
 7    1  0.1935465E-015  0.9000782E+02  0.7816164E-02  0.1186339E+00
        -11   -1    0    0    0    0  0.00000000000E+00  0.00000000000E+00  0.45593999997E+02  0.45594000000E+02  0.51100000000E-03 0. -1.
         11   -1    0    0    0    0 -0.00000000000E+00 -0.00000000000E+00 -0.45593999997E+02  0.45594000000E+02  0.51100000000E-03 0.  1.
    9900012    2    1    2    0    0 -0.45240241558E+00  0.25901357151E+00 -0.10588046995E+01  0.90007820621E+02  0.90000083053E+02 0.  0.
         12    1    1    2    0    0  0.45240241558E+00 -0.25901357151E+00  0.10588046995E+01  0.11801793794E+01  0.00000000000E+00 0. -1.
         11    1    3    3    0    0 -0.17799928909E+02 -0.13074964707E+02 -0.18066770769E+02  0.28534196633E+02  0.51100000000E-03 0. -1.
        -11    1    3    3    0    0 -0.15355005815E+01  0.22602841877E+02 -0.12003650950E+02  0.25638522955E+02  0.51100000000E-03 0.  1.
        -12    1    3    3    0    0  0.18883027075E+02 -0.92688635985E+01  0.29011617019E+02  0.35835101032E+02  0.00000000000E+00 0.  1.
</event>
<event>
 7    1  0.1935465E-015  0.9000775E+02  0.7816164E-02  0.1186339E+00
        -11   -1    0    0    0    0  0.00000000000E+00  0.00000000000E+00  0.45593999997E+02  0.45594000000E+02  0.51100000000E-03 0. -1.
         11   -1    0    0    0    0 -0.00000000000E+00 -0.00000000000E+00 -0.45593999997E+02  0.45594000000E+02  0.51100000000E-03 0.  1.
    9900012    2    1    2    0    0 -0.26952966639E+00  0.37952048565E+00 -0.10845730816E+01  0.90007753920E+02  0.90000015472E+02 0.  0.
         12    1    1    2    0    0  0.26952966639E+00 -0.37952048565E+00  0.10845730816E+01  0.11802460800E+01  0.00000000000E+00 0. -1.
         11    1    3    3    0    0  0.26286720810E+02 -0.28238215823E+02 -0.10724063813E+02  0.40042403384E+02  0.51100000000E-03 0. -1.
        -11    1    3    3    0    0 -0.63955243782E+01 -0.43368002773E+01 -0.43627091914E+01  0.88737703636E+01  0.51100000000E-03 0.  1.
        -12    1    3    3    0    0 -0.20160726099E+02  0.32954536586E+02  0.14002199923E+02  0.41091580173E+02  0.00000000000E+00 0.  1.
</event>
<event>
 7    1  0.1935465E-015  0.9000775E+02  0.7816164E-02  0.1186339E+00
        -11   -1    0    0    0    0  0.00000000000E+00  0.00000000000E+00  0.45593999997E+02  0.45594000000E+02  0.51100000000E-03 0.  1.
         11   -1    0    0    0    0 -0.00000000000E+00 -0.00000000000E+00 -0.45593999997E+02  0.45594000000E+02  0.51100000000E-03 0. -1.
    9900012    2    1    2    0    0  0.95949368331E+00 -0.17173923057E+00 -0.66548757238E+00  0.90007747400E+02  0.90000008865E+02 0.  0.
         12    1    1    2    0    0 -0.95949368331E+00  0.17173923057E+00  0.66548757238E+00  0.11802526003E+01  0.00000000000E+00 0. -1.
         11    1    3    3    0    0 -0.29476020182E+02  0.12698119423E+02 -0.27405218965E+02  0.42203365143E+02  0.51100000000E-03 0. -1.
        -11    1    3    3    0    0 -0.16125109528E+01 -0.39571917519E+01  0.93246435705E+01  0.10257121239E+02  0.51100000000E-03 0.  1.
        -12    1    3    3    0    0  0.32048024818E+02 -0.89126669013E+01  0.17415087822E+02  0.37547261017E+02  0.00000000000E+00 0.  1.
</event>
<event>
 7    1  0.1935465E-015  0.9000756E+02  0.7816164E-02  0.1186339E+00
        -11   -1    0    0    0    0  0.00000000000E+00  0.00000000000E+00  0.45593999997E+02  0.45594000000E+02  0.51100000000E-03 0.  1.
         11   -1    0    0    0    0 -0.00000000000E+00 -0.00000000000E+00 -0.45593999997E+02  0.45594000000E+02  0.51100000000E-03 0. -1.
    9900012    2    1    2    0    0  0.45385247209E+00 -0.19013042474E+00 -0.10729941735E+01  0.90007555956E+02  0.89999814894E+02 0.  0.
         12    1    1    2    0    0 -0.45385247209E+00  0.19013042474E+00  0.10729941735E+01  0.11804440441E+01  0.00000000000E+00 0. -1.
         11    1    3    3    0    0  0.17784314232E+02  0.17707779528E+02 -0.28693688499E+02  0.38120533161E+02  0.51100000000E-03 0. -1.
        -11    1    3    3    0    0 -0.20629023217E+01  0.87340119601E+01 -0.20372970453E+01  0.92026686575E+01  0.51100000000E-03 0.  1.
        -12    1    3    3    0    0 -0.15267559438E+02 -0.26631921913E+02  0.29657991371E+02  0.42684354138E+02  0.00000000000E+00 0.  1.
</event>
<event>
 7    1  0.1935465E-015  0.9000773E+02  0.7816164E-02  0.1186339E+00
        -11   -1    0    0    0    0  0.00000000000E+00  0.00000000000E+00  0.45593999997E+02  0.45594000000E+02  0.51100000000E-03 0. -1.
         11   -1    0    0    0    0 -0.00000000000E+00 -0.00000000000E+00 -0.45593999997E+02  0.45594000000E+02  0.51100000000E-03 0.  1.
    9900012    2    1    2    0    0  0.56671200480E+00 -0.69762558957E+00 -0.76497764460E+00  0.90007731066E+02  0.89999992316E+02 0.  0.
         12    1    1    2    0    0 -0.56671200480E+00  0.69762558957E+00  0.76497764460E+00  0.11802689339E+01  0.00000000000E+00 0. -1.
         11    1    3    3    0    0 -0.15569924689E+02  0.33947678006E+02  0.18249275220E+02  0.41568057967E+02  0.51100000000E-03 0. -1.
        -11    1    3    3    0    0 -0.24685104902E+01 -0.15124688671E+02  0.20291116711E+00  0.15326151658E+02  0.51100000000E-03 0.  1.
        -12    1    3    3    0    0  0.18605147184E+02 -0.19520614925E+02 -0.19217164032E+02  0.33113521441E+02  0.00000000000E+00 0.  1.
</event>
<event>
 7    1  0.1935465E-015  0.9000781E+02  0.7816164E-02  0.1186339E+00
        -11   -1    0    0    0    0  0.00000000000E+00  0.00000000000E+00  0.45593999997E+02  0.45594000000E+02  0.51100000000E-03 0.  1.
         11   -1    0    0    0    0 -0.00000000000E+00 -0.00000000000E+00 -0.45593999997E+02  0.45594000000E+02  0.51100000000E-03 0. -1.
    9900012    2    1    2    0    0  0.25897397728E+00  0.81274429494E+00  0.81561559335E+00  0.90007809504E+02  0.90000071790E+02 0.  0.
         12    1    1    2    0    0 -0.25897397728E+00 -0.81274429494E+00 -0.81561559335E+00  0.11801904956E+01  0.00000000000E+00 0. -1.
         11    1    3    3    0    0 -0.21710697740E+02  0.43204041834E+01 -0.26610427268E+02  0.34614088581E+02  0.51100000000E-03 0. -1.
        -11    1    3    3    0    0 -0.77694712016E+01  0.90314848551E+00 -0.64228945797E+01  0.10120965121E+02  0.51100000000E-03 0.  1.
        -12    1    3    3    0    0  0.29739142919E+02 -0.44108083740E+01  0.33848937441E+02  0.45272755802E+02  0.00000000000E+00 0.  1.
</event>
<event>
 7    1  0.1935465E-015  0.9000770E+02  0.7816164E-02  0.1186339E+00
        -11   -1    0    0    0    0  0.00000000000E+00  0.00000000000E+00  0.45593999997E+02  0.45594000000E+02  0.51100000000E-03 0. -1.
         11   -1    0    0    0    0 -0.00000000000E+00 -0.00000000000E+00 -0.45593999997E+02  0.45594000000E+02  0.51100000000E-03 0.  1.
    9900012    2    1    2    0    0 -0.95844212343E+00  0.63079738321E+00  0.27673763509E+00  0.90007703274E+02  0.89999964157E+02 0.  0.
         12    1    1    2    0    0  0.95844212343E+00 -0.63079738321E+00 -0.27673763509E+00  0.11802967260E+01  0.00000000000E+00 0. -1.
         11    1    3    3    0    0 -0.67086041613E+01 -0.59229446300E+00  0.38071079993E+02  0.38662169037E+02  0.51100000000E-03 0. -1.
        -11    1    3    3    0    0  0.56083260555E+01  0.59986065233E+01  0.41007344282E+01  0.91789228387E+01  0.51100000000E-03 0.  1.
        -12    1    3    3    0    0  0.14183598235E+00 -0.47755146771E+01 -0.41895076786E+02  0.42166611398E+02  0.00000000000E+00 0.  1.
</event>
<event>
 7    1  0.1935465E-015  0.9000744E+02  0.7816164E-02  0.1186340E+00
        -11   -1    0    0    0    0  0.00000000000E+00  0.00000000000E+00  0.45593999997E+02  0.45594000000E+02  0.51100000000E-03 0.  1.
         11   -1    0    0    0    0 -0.00000000000E+00 -0.00000000000E+00 -0.45593999997E+02  0.45594000000E+02  0.51100000000E-03 0. -1.
    9900012    2    1    2    0    0  0.45079372245E+00  0.41968124425E+00  0.10071587599E+01  0.90007442464E+02  0.89999699905E+02 0.  0.
         12    1    1    2    0    0 -0.45079372245E+00 -0.41968124425E+00 -0.10071587599E+01  0.11805575355E+01  0.00000000000E+00 0. -1.
         11    1    3    3    0    0 -0.69133765572E+00  0.34015793741E+02 -0.10857341024E+02  0.35713219205E+02  0.51100000000E-03 0. -1.
        -11    1    3    3    0    0 -0.69485540915E+01  0.79988851953E+01  0.19128703412E+01  0.10766784178E+02  0.51100000000E-03 0.  1.
        -12    1    3    3    0    0  0.80906854697E+01 -0.41594997693E+02  0.99516294430E+01  0.43527439081E+02  0.00000000000E+00 0.  1.
</event>
<event>
 7    1  0.1935465E-015  0.9000772E+02  0.7816164E-02  0.1186339E+00
        -11   -1    0    0    0    0  0.00000000000E+00  0.00000000000E+00  0.45593999997E+02  0.45594000000E+02  0.51100000000E-03 0.  1.
         11   -1    0    0    0    0 -0.00000000000E+00 -0.00000000000E+00 -0.45593999997E+02  0.45594000000E+02  0.51100000000E-03 0. -1.
    9900012    2    1    2    0    0 -0.10823259012E+01 -0.37679685775E+00 -0.28223275526E+00  0.90007720136E+02  0.89999981242E+02 0.  0.
         12    1    1    2    0    0  0.10823259012E+01  0.37679685775E+00  0.28223275526E+00  0.11802798637E+01  0.00000000000E+00 0. -1.
         11    1    3    3    0    0 -0.60792354487E+01  0.60264987111E+01  0.45817182344E+01  0.97091674512E+01  0.51100000000E-03 0. -1.
        -11    1    3    3    0    0 -0.15153692821E+02  0.55848444330E+00  0.33296327100E+02  0.36586769598E+02  0.51100000000E-03 0.  1.
         12    1    3    3    0    0  0.20150602368E+02 -0.69617800121E+01 -0.38160278090E+02  0.43711783087E+02  0.00000000000E+00 0. -1.
</event>
<event>
 7    1  0.1935465E-015  0.9000772E+02  0.7816164E-02  0.1186339E+00
        -11   -1    0    0    0    0  0.00000000000E+00  0.00000000000E+00  0.45593999997E+02  0.45594000000E+02  0.51100000000E-03 0. -1.
         11   -1    0    0    0    0 -0.00000000000E+00 -0.00000000000E+00 -0.45593999997E+02  0.45594000000E+02  0.51100000000E-03 0.  1.
    9900012    2    1    2    0    0  0.15539586183E+00  0.84684070166E+00 -0.80731847027E+00  0.90007724540E+02  0.89999985704E+02 0.  0.
         12    1    1    2    0    0 -0.15539586183E+00 -0.84684070166E+00  0.80731847027E+00  0.11802754595E+01  0.00000000000E+00 0. -1.
         11    1    3    3    0    0  0.94973752838E+01  0.14810455398E+01  0.52810311533E+01  0.10967357178E+02  0.51100000000E-03 0. -1.
        -11    1    3    3    0    0  0.29338152072E+01  0.34462649405E+02 -0.19267620033E+02  0.39591951931E+02  0.51100000000E-03 0.  1.
         12    1    3    3    0    0 -0.12275794629E+02 -0.35096854243E+02  0.13179270410E+02  0.39448415432E+02  0.00000000000E+00 0. -1.
</event>
<event>
 7    1  0.1935465E-015  0.9000774E+02  0.7816164E-02  0.1186339E+00
        -11   -1    0    0    0    0  0.00000000000E+00  0.00000000000E+00  0.45593999997E+02  0.45594000000E+02  0.51100000000E-03 0.  1.
         11   -1    0    0    0    0 -0.00000000000E+00 -0.00000000000E+00 -0.45593999997E+02  0.45594000000E+02  0.51100000000E-03 0. -1.
    9900012    2    1    2    0    0 -0.60030221218E+00  0.92821320659E+00  0.41360723496E+00  0.90007740093E+02  0.90000001462E+02 0.  0.
         12    1    1    2    0    0  0.60030221218E+00 -0.92821320659E+00 -0.41360723496E+00  0.11802599068E+01  0.00000000000E+00 0. -1.
         11    1    3    3    0    0 -0.15598122151E+02  0.23054024851E+02 -0.86539756610E+01  0.29149284236E+02  0.51100000000E-03 0. -1.
        -11    1    3    3    0    0 -0.54852154488E+01  0.10700752652E+02  0.17523437793E+02  0.21252401469E+02  0.51100000000E-03 0.  1.
         12    1    3    3    0    0  0.20483035388E+02 -0.32826564296E+02 -0.84558548967E+01  0.39606054389E+02  0.00000000000E+00 0. -1.
</event>
<event>
 7    1  0.1935465E-015  0.9000777E+02  0.7816164E-02  0.1186339E+00
        -11   -1    0    0    0    0  0.00000000000E+00  0.00000000000E+00  0.45593999997E+02  0.45594000000E+02  0.51100000000E-03 0.  1.
         11   -1    0    0    0    0 -0.00000000000E+00 -0.00000000000E+00 -0.45593999997E+02  0.45594000000E+02  0.51100000000E-03 0. -1.
    9900012    2    1    2    0    0  0.85592045085E+00  0.75017342855E+00  0.31239299147E+00  0.90007767238E+02  0.90000028966E+02 0.  0.
         12    1    1    2    0    0 -0.85592045085E+00 -0.75017342855E+00 -0.31239299147E+00  0.11802327619E+01  0.00000000000E+00 0. -1.
         11    1    3    3    0    0 -0.35482474603E+02  0.72211567709E+01 -0.31598674238E+01  0.36347432804E+02  0.51100000000E-03 0. -1.
        -11    1    3    3    0    0 -0.46969170603E+01  0.46969380499E+01 -0.72181729760E+01  0.98093974478E+01  0.51100000000E-03 0.  1.
        -12    1    3    3    0    0  0.41035312114E+02 -0.11167921392E+02  0.10690433391E+02  0.43850936986E+02  0.00000000000E+00 0.  1.
</event>
<event>
 7    1  0.1935465E-015  0.9000746E+02  0.7816164E-02  0.1186340E+00
        -11   -1    0    0    0    0  0.00000000000E+00  0.00000000000E+00  0.45593999997E+02  0.45594000000E+02  0.51100000000E-03 0. -1.
         11   -1    0    0    0    0 -0.00000000000E+00 -0.00000000000E+00 -0.45593999997E+02  0.45594000000E+02  0.51100000000E-03 0.  1.
    9900012    2    1    2    0    0 -0.37062287790E+00 -0.90358738698E+00 -0.66321041198E+00  0.90007457949E+02  0.89999715594E+02 0.  0.
         12    1    1    2    0    0  0.37062287790E+00  0.90358738698E+00  0.66321041198E+00  0.11805420510E+01  0.00000000000E+00 0. -1.
         11    1    3    3    0    0 -0.33011993005E+02 -0.17221405771E+02  0.10442899706E+02  0.38670695021E+02  0.51100000000E-03 0. -1.
        -11    1    3    3    0    0  0.31257744318E+00  0.17660446095E+02 -0.54867694394E+01  0.18495775195E+02  0.51100000000E-03 0.  1.
        -12    1    3    3    0    0  0.32328792684E+02 -0.13426277105E+01 -0.56193406781E+01  0.32840987732E+02  0.00000000000E+00 0.  1.
</event>
<event>
 7    1  0.1935465E-015  0.9000771E+02  0.7816164E-02  0.1186339E+00
        -11   -1    0    0    0    0  0.00000000000E+00  0.00000000000E+00  0.45593999997E+02  0.45594000000E+02  0.51100000000E-03 0.  1.
         11   -1    0    0    0    0 -0.00000000000E+00 -0.00000000000E+00 -0.45593999997E+02  0.45594000000E+02  0.51100000000E-03 0. -1.
    9900012    2    1    2    0    0 -0.51242817498E+00 -0.75968661225E+00  0.74389197462E+00  0.90007711199E+02  0.89999972187E+02 0.  0.
         12    1    1    2    0    0  0.51242817498E+00  0.75968661225E+00 -0.74389197462E+00  0.11802888008E+01  0.00000000000E+00 0. -1.
         11    1    3    3    0    0 -0.57680132511E+01  0.39022301972E+01 -0.53563178219E+01  0.87856427338E+01  0.51100000000E-03 0. -1.
        -11    1    3    3    0    0 -0.17027514524E+02  0.30592151507E+02  0.15786424988E+02  0.38406082837E+02  0.51100000000E-03 0.  1.
         12    1    3    3    0    0  0.22283099600E+02 -0.35254068316E+02 -0.96862151918E+01  0.42815985629E+02  0.00000000000E+00 0. -1.
</event>
<event>
 7    1  0.1935465E-015  0.9000769E+02  0.7816164E-02  0.1186339E+00
        -11   -1    0    0    0    0  0.00000000000E+00  0.00000000000E+00  0.45593999997E+02  0.45594000000E+02  0.51100000000E-03 0.  1.
         11   -1    0    0    0    0 -0.00000000000E+00 -0.00000000000E+00 -0.45593999997E+02  0.45594000000E+02  0.51100000000E-03 0. -1.
    9900012    2    1    2    0    0  0.46917940937E+00 -0.19103396650E+00  0.10660671240E+01  0.90007693935E+02  0.89999954695E+02 0.  0.
         12    1    1    2    0    0 -0.46917940937E+00  0.19103396650E+00 -0.10660671240E+01  0.11803060651E+01  0.00000000000E+00 0. -1.
         11    1    3    3    0    0  0.18728029596E+02 -0.16127101194E+02 -0.27534799879E+02  0.36999833649E+02  0.51100000000E-03 0. -1.
        -11    1    3    3    0    0  0.60651738671E+01  0.10054712020E+02 -0.35485029749E+01  0.12266843175E+02  0.51100000000E-03 0.  1.
        -12    1    3    3    0    0 -0.24324024054E+02  0.58813552067E+01  0.32149369978E+02  0.40741017111E+02  0.00000000000E+00 0.  1.
</event>
<event>
 7    1  0.1935465E-015  0.9000766E+02  0.7816164E-02  0.1186339E+00
        -11   -1    0    0    0    0  0.00000000000E+00  0.00000000000E+00  0.45593999997E+02  0.45594000000E+02  0.51100000000E-03 0.  1.
         11   -1    0    0    0    0 -0.00000000000E+00 -0.00000000000E+00 -0.45593999997E+02  0.45594000000E+02  0.51100000000E-03 0. -1.
    9900012    2    1    2    0    0 -0.75084253039E+00 -0.23613601028E+00 -0.87958475009E+00  0.90007663585E+02  0.89999923944E+02 0.  0.
         12    1    1    2    0    0  0.75084253039E+00  0.23613601028E+00  0.87958475009E+00  0.11803364153E+01  0.00000000000E+00 0. -1.
         11    1    3    3    0    0 -0.85691376129E+01  0.29425862748E+01 -0.34604868661E+01  0.96986547018E+01  0.51100000000E-03 0. -1.
        -11    1    3    3    0    0 -0.12834456279E+01  0.30900655980E+01  0.40589036663E+02  0.40726718939E+02  0.51100000000E-03 0.  1.
         12    1    3    3    0    0  0.91017407104E+01 -0.62687878831E+01 -0.38008134547E+02  0.39582289944E+02  0.00000000000E+00 0. -1.
</event>
<event>
 7    1  0.1935465E-015  0.9000769E+02  0.7816164E-02  0.1186339E+00
        -11   -1    0    0    0    0  0.00000000000E+00  0.00000000000E+00  0.45593999997E+02  0.45594000000E+02  0.51100000000E-03 0.  1.
         11   -1    0    0    0    0 -0.00000000000E+00 -0.00000000000E+00 -0.45593999997E+02  0.45594000000E+02  0.51100000000E-03 0. -1.
    9900012    2    1    2    0    0  0.51434412251E+00  0.10136533108E+01  0.31795138366E+00  0.90007688180E+02  0.89999948864E+02 0.  0.
         12    1    1    2    0    0 -0.51434412251E+00 -0.10136533108E+01 -0.31795138366E+00  0.11803118203E+01  0.00000000000E+00 0. -1.
         11    1    3    3    0    0  0.37781655716E+01  0.51843479421E+01 -0.37589388547E+02  0.38132848442E+02  0.51100000000E-03 0. -1.
        -11    1    3    3    0    0 -0.50034116767E+01  0.13503481871E+01 -0.58045041667E+01  0.77813776104E+01  0.51100000000E-03 0.  1.
        -12    1    3    3    0    0  0.17395902276E+01 -0.55210428184E+01  0.43711844098E+02  0.44093462127E+02  0.00000000000E+00 0.  1.
</event>
<event>
 7    1  0.1935465E-015  0.9000775E+02  0.7816164E-02  0.1186339E+00
        -11   -1    0    0    0    0  0.00000000000E+00  0.00000000000E+00  0.45593999997E+02  0.45594000000E+02  0.51100000000E-03 0.  1.
         11   -1    0    0    0    0 -0.00000000000E+00 -0.00000000000E+00 -0.45593999997E+02  0.45594000000E+02  0.51100000000E-03 0. -1.
    9900012    2    1    2    0    0  0.83388359546E+00  0.72089982987E-01  0.83212371661E+00  0.90007750579E+02  0.90000012086E+02 0.  0.
         12    1    1    2    0    0 -0.83388359546E+00 -0.72089982987E-01 -0.83212371661E+00  0.11802494212E+01  0.00000000000E+00 0. -1.
         11    1    3    3    0    0 -0.20601201783E+01  0.10454740841E+02 -0.77680726928E+00  0.10684059668E+02  0.51100000000E-03 0. -1.
        -11    1    3    3    0    0 -0.13047836007E+00  0.17918255533E+02 -0.31144646194E+02  0.35931461044E+02  0.51100000000E-03 0.  1.
         12    1    3    3    0    0  0.30244821338E+01 -0.28300906391E+02  0.32753577180E+02  0.43392229867E+02  0.00000000000E+00 0. -1.
</event>
<event>
 7    1  0.1935465E-015  0.9000779E+02  0.7816164E-02  0.1186339E+00
        -11   -1    0    0    0    0  0.00000000000E+00  0.00000000000E+00  0.45593999997E+02  0.45594000000E+02  0.51100000000E-03 0.  1.
         11   -1    0    0    0    0 -0.00000000000E+00 -0.00000000000E+00 -0.45593999997E+02  0.45594000000E+02  0.51100000000E-03 0. -1.
    9900012    2    1    2    0    0 -0.11425782204E+01  0.72400709810E-01  0.28665293477E+00  0.90007789528E+02  0.90000051550E+02 0.  0.
         12    1    1    2    0    0  0.11425782204E+01 -0.72400709810E-01 -0.28665293477E+00  0.11802104717E+01  0.00000000000E+00 0. -1.
         11    1    3    3    0    0  0.31010909452E+02  0.18936581559E+02 -0.10726727508E+01  0.36351358342E+02  0.51100000000E-03 0. -1.
        -11    1    3    3    0    0  0.76055468164E+01  0.17023624442E+01 -0.36639921859E+01  0.86120392050E+01  0.51100000000E-03 0.  1.
        -12    1    3    3    0    0 -0.39759034489E+02 -0.20566543294E+02  0.50233178715E+01  0.45044391982E+02  0.00000000000E+00 0.  1.
</event>
<event>
 7    1  0.1935465E-015  0.9000764E+02  0.7816164E-02  0.1186339E+00
        -11   -1    0    0    0    0  0.00000000000E+00  0.00000000000E+00  0.45593999997E+02  0.45594000000E+02  0.51100000000E-03 0.  1.
         11   -1    0    0    0    0 -0.00000000000E+00 -0.00000000000E+00 -0.45593999997E+02  0.45594000000E+02  0.51100000000E-03 0. -1.
    9900012    2    1    2    0    0 -0.53313242797E-01 -0.23161951773E+00  0.11561874042E+01  0.90007635981E+02  0.89999895976E+02 0.  0.
         12    1    1    2    0    0  0.53313242797E-01  0.23161951773E+00 -0.11561874042E+01  0.11803640186E+01  0.00000000000E+00 0. -1.
         11    1    3    3    0    0 -0.42404973118E+01 -0.12620771084E+01 -0.34024752962E+02  0.34311200365E+02  0.51100000000E-03 0. -1.
        -11    1    3    3    0    0 -0.45295643711E+01  0.49983407209E-01 -0.93076098522E+01  0.10351379288E+02  0.51100000000E-03 0.  1.
        -12    1    3    3    0    0  0.87167484401E+01  0.98047418351E+00  0.44488550218E+02  0.45345056329E+02  0.00000000000E+00 0.  1.
</event>
<event>
 7    1  0.1935465E-015  0.9000765E+02  0.7816164E-02  0.1186339E+00
        -11   -1    0    0    0    0  0.00000000000E+00  0.00000000000E+00  0.45593999997E+02  0.45594000000E+02  0.51100000000E-03 0. -1.
         11   -1    0    0    0    0 -0.00000000000E+00 -0.00000000000E+00 -0.45593999997E+02  0.45594000000E+02  0.51100000000E-03 0.  1.
    9900012    2    1    2    0    0 -0.38831803863E+00 -0.95011112247E-01 -0.11105863850E+01  0.90007652539E+02  0.89999912752E+02 0.  0.
         12    1    1    2    0    0  0.38831803863E+00  0.95011112247E-01  0.11105863850E+01  0.11803474612E+01  0.00000000000E+00 0. -1.
         11    1    3    3    0    0 -0.22765185981E+02  0.23274521380E+02  0.76707156894E+01  0.33448421751E+02  0.51100000000E-03 0. -1.
        -11    1    3    3    0    0 -0.12328379191E+02 -0.53738014463E+01 -0.11041282188E+02  0.17400476663E+02  0.51100000000E-03 0.  1.
        -12    1    3    3    0    0  0.34705247134E+02 -0.17995731046E+02  0.22599801138E+01  0.39158754125E+02  0.00000000000E+00 0.  1.
</event>
<event>
 7    1  0.1935465E-015  0.9000766E+02  0.7816164E-02  0.1186339E+00
        -11   -1    0    0    0    0  0.00000000000E+00  0.00000000000E+00  0.45593999997E+02  0.45594000000E+02  0.51100000000E-03 0. -1.
         11   -1    0    0    0    0 -0.00000000000E+00 -0.00000000000E+00 -0.45593999997E+02  0.45594000000E+02  0.51100000000E-03 0.  1.
    9900012    2    1    2    0    0 -0.97327776874E-01  0.11700254929E+01  0.12150594293E+00  0.90007662741E+02  0.89999923089E+02 0.  0.
         12    1    1    2    0    0  0.97327776874E-01 -0.11700254929E+01 -0.12150594293E+00  0.11803372587E+01  0.00000000000E+00 0. -1.
         11    1    3    3    0    0 -0.20534088074E+02  0.91909335730E+01  0.27744325470E+02  0.35719317309E+02  0.51100000000E-03 0. -1.
        -11    1    3    3    0    0  0.12857129312E+02  0.27447531249E+01  0.86249011358E+01  0.15723497185E+02  0.51100000000E-03 0.  1.
        -12    1    3    3    0    0  0.75796309857E+01 -0.10765661205E+02 -0.36247720663E+02  0.38564848247E+02  0.00000000000E+00 0.  1.
</event>
<event>
 7    1  0.1935465E-015  0.9000789E+02  0.7816164E-02  0.1186339E+00
        -11   -1    0    0    0    0  0.00000000000E+00  0.00000000000E+00  0.45593999997E+02  0.45594000000E+02  0.51100000000E-03 0. -1.
         11   -1    0    0    0    0 -0.00000000000E+00 -0.00000000000E+00 -0.45593999997E+02  0.45594000000E+02  0.51100000000E-03 0.  1.
    9900012    2    1    2    0    0  0.43280180201E-01  0.82040527741E+00 -0.84717795503E+00  0.90007894716E+02  0.90000158126E+02 0.  0.
         12    1    1    2    0    0 -0.43280180201E-01 -0.82040527741E+00  0.84717795503E+00  0.11801052837E+01  0.00000000000E+00 0. -1.
         11    1    3    3    0    0 -0.17439842335E+02  0.26216083560E+02  0.51257899672E+00  0.31491171388E+02  0.51100000000E-03 0. -1.
        -11    1    3    3    0    0  0.23299031782E+02  0.79331331788E+01 -0.18354627813E+01  0.24680932071E+02  0.51100000000E-03 0.  1.
        -12    1    3    3    0    0 -0.58159092664E+01 -0.33328811461E+02  0.47570582960E+00  0.33835791258E+02  0.00000000000E+00 0.  1.
</event>
<event>
 7    1  0.1935465E-015  0.9000774E+02  0.7816164E-02  0.1186339E+00
        -11   -1    0    0    0    0  0.00000000000E+00  0.00000000000E+00  0.45593999997E+02  0.45594000000E+02  0.51100000000E-03 0. -1.
         11   -1    0    0    0    0 -0.00000000000E+00 -0.00000000000E+00 -0.45593999997E+02  0.45594000000E+02  0.51100000000E-03 0.  1.
    9900012    2    1    2    0    0  0.59894709426E+00 -0.28907974133E+00 -0.97504318902E+00  0.90007739885E+02  0.90000001251E+02 0.  0.
         12    1    1    2    0    0 -0.59894709426E+00  0.28907974133E+00  0.97504318902E+00  0.11802601150E+01  0.00000000000E+00 0. -1.
         11    1    3    3    0    0  0.12687435065E+02 -0.23784619572E+02  0.21596962706E+02  0.34541394516E+02  0.51100000000E-03 0. -1.
        -11    1    3    3    0    0  0.44767533238E+01 -0.30272750666E+01  0.93376020685E+01  0.10788722227E+02  0.51100000000E-03 0.  1.
        -12    1    3    3    0    0 -0.16565241295E+02  0.26522814897E+02 -0.31909607963E+02  0.44677623142E+02  0.00000000000E+00 0.  1.
</event>
<event>
 7    1  0.1935465E-015  0.9000776E+02  0.7816164E-02  0.1186339E+00
        -11   -1    0    0    0    0  0.00000000000E+00  0.00000000000E+00  0.45593999997E+02  0.45594000000E+02  0.51100000000E-03 0.  1.
         11   -1    0    0    0    0 -0.00000000000E+00 -0.00000000000E+00 -0.45593999997E+02  0.45594000000E+02  0.51100000000E-03 0. -1.
    9900012    2    1    2    0    0  0.22231187433E-01 -0.10251497486E+01 -0.58440473442E+00  0.90007764800E+02  0.90000026496E+02 0.  0.
         12    1    1    2    0    0 -0.22231187433E-01  0.10251497486E+01  0.58440473442E+00  0.11802351996E+01  0.00000000000E+00 0. -1.
         11    1    3    3    0    0  0.16176595635E+02 -0.17156578112E+02  0.76123860036E+01  0.24778596405E+02  0.51100000000E-03 0. -1.
        -11    1    3    3    0    0  0.22755302414E+02  0.10079370545E+02  0.54211071072E+00  0.24893601242E+02  0.51100000000E-03 0.  1.
        -12    1    3    3    0    0 -0.38909666861E+02  0.60520578185E+01 -0.87389014487E+01  0.40335567154E+02  0.00000000000E+00 0.  1.
</event>
<event>
 7    1  0.1935465E-015  0.9000776E+02  0.7816164E-02  0.1186339E+00
        -11   -1    0    0    0    0  0.00000000000E+00  0.00000000000E+00  0.45593999997E+02  0.45594000000E+02  0.51100000000E-03 0.  1.
         11   -1    0    0    0    0 -0.00000000000E+00 -0.00000000000E+00 -0.45593999997E+02  0.45594000000E+02  0.51100000000E-03 0. -1.
    9900012    2    1    2    0    0  0.10272165905E+01  0.19524148308E-02  0.58119379563E+00  0.90007761056E+02  0.90000022702E+02 0.  0.
         12    1    1    2    0    0 -0.10272165905E+01 -0.19524148308E-02 -0.58119379563E+00  0.11802389435E+01  0.00000000000E+00 0. -1.
         11    1    3    3    0    0  0.26162841683E+01 -0.55271990269E+01  0.92009641259E+01  0.11047742441E+02  0.51100000000E-03 0. -1.
        -11    1    3    3    0    0 -0.21826337416E+02  0.19205048001E+02  0.24353903806E+02  0.37925393928E+02  0.51100000000E-03 0.  1.
         12    1    3    3    0    0  0.20237269839E+02 -0.13675896560E+02 -0.32973674136E+02  0.41034624688E+02  0.00000000000E+00 0. -1.
</event>
<event>
 7    1  0.1935465E-015  0.9000765E+02  0.7816164E-02  0.1186339E+00
        -11   -1    0    0    0    0  0.00000000000E+00  0.00000000000E+00  0.45593999997E+02  0.45594000000E+02  0.51100000000E-03 0.  1.
         11   -1    0    0    0    0 -0.00000000000E+00 -0.00000000000E+00 -0.45593999997E+02  0.45594000000E+02  0.51100000000E-03 0. -1.
    9900012    2    1    2    0    0  0.83651527012E+00 -0.68857089602E+00  0.46833502840E+00  0.90007650317E+02  0.89999910501E+02 0.  0.
         12    1    1    2    0    0 -0.83651527012E+00  0.68857089602E+00 -0.46833502840E+00  0.11803496833E+01  0.00000000000E+00 0. -1.
         11    1    3    3    0    0  0.13363478436E+01 -0.15574378300E+01  0.18102291427E+02  0.18218243420E+02  0.51100000000E-03 0. -1.
        -11    1    3    3    0    0 -0.23856256523E+02  0.20852993950E+02 -0.24787229988E+02  0.40229033082E+02  0.51100000000E-03 0.  1.
         12    1    3    3    0    0  0.23356423949E+02 -0.19984127016E+02  0.71532735902E+01  0.31560373815E+02  0.00000000000E+00 0. -1.
</event>
<event>
 7    1  0.1935465E-015  0.9000776E+02  0.7816164E-02  0.1186339E+00
        -11   -1    0    0    0    0  0.00000000000E+00  0.00000000000E+00  0.45593999997E+02  0.45594000000E+02  0.51100000000E-03 0.  1.
         11   -1    0    0    0    0 -0.00000000000E+00 -0.00000000000E+00 -0.45593999997E+02  0.45594000000E+02  0.51100000000E-03 0. -1.
    9900012    2    1    2    0    0 -0.60291009535E-01  0.67373689281E-01  0.11767762929E+01  0.90007755676E+02  0.90000017251E+02 0.  0.
         12    1    1    2    0    0  0.60291009535E-01 -0.67373689281E-01 -0.11767762929E+01  0.11802443236E+01  0.00000000000E+00 0. -1.
         11    1    3    3    0    0 -0.17585527814E+02 -0.14039798329E+02 -0.26620343842E+02  0.34856985414E+02  0.51100000000E-03 0. -1.
        -11    1    3    3    0    0  0.19488557189E+02  0.25271855757E+01 -0.50304083279E+01  0.20285352756E+02  0.51100000000E-03 0.  1.
        -12    1    3    3    0    0 -0.19633203836E+01  0.11579986443E+02  0.32827528463E+02  0.34865417507E+02  0.00000000000E+00 0.  1.
</event>
<event>
 7    1  0.1935465E-015  0.9000674E+02  0.7816164E-02  0.1186341E+00
        -11   -1    0    0    0    0  0.00000000000E+00  0.00000000000E+00  0.45593999997E+02  0.45594000000E+02  0.51100000000E-03 0.  1.
         11   -1    0    0    0    0 -0.00000000000E+00 -0.00000000000E+00 -0.45593999997E+02  0.45594000000E+02  0.51100000000E-03 0. -1.
    9900012    2    1    2    0    0  0.65942474427E-01  0.37076368641E+00 -0.11196252150E+01  0.90006740188E+02  0.89998988353E+02 0.  0.
         12    1    1    2    0    0 -0.65942474427E-01 -0.37076368641E+00  0.11196252150E+01  0.11812598119E+01  0.00000000000E+00 0. -1.
         11    1    3    3    0    0  0.85515996601E+01 -0.34527516132E+01 -0.34683984745E+01  0.98529761335E+01  0.51100000000E-03 0. -1.
        -11    1    3    3    0    0  0.30368801981E+02 -0.13222922054E+02  0.14293512846E+02  0.36075120390E+02  0.51100000000E-03 0.  1.
         12    1    3    3    0    0 -0.38854459167E+02  0.17046437353E+02 -0.11944739586E+02  0.44078643665E+02  0.00000000000E+00 0. -1.
</event>
<event>
 7    1  0.1935465E-015  0.9000783E+02  0.7816164E-02  0.1186339E+00
        -11   -1    0    0    0    0  0.00000000000E+00  0.00000000000E+00  0.45593999997E+02  0.45594000000E+02  0.51100000000E-03 0. -1.
         11   -1    0    0    0    0 -0.00000000000E+00 -0.00000000000E+00 -0.45593999997E+02  0.45594000000E+02  0.51100000000E-03 0.  1.
    9900012    2    1    2    0    0 -0.47873953589E+00 -0.67318985988E+00 -0.84286519418E+00  0.90007831425E+02  0.90000093999E+02 0.  0.
         12    1    1    2    0    0  0.47873953589E+00  0.67318985988E+00  0.84286519418E+00  0.11801685753E+01  0.00000000000E+00 0. -1.
         11    1    3    3    0    0  0.31725161357E+02 -0.93375078886E+01  0.84370461280E+01  0.34130025847E+02  0.51100000000E-03 0. -1.
        -11    1    3    3    0    0  0.60405561557E+01  0.20738826686E+01 -0.15324168273E+02  0.16601790310E+02  0.51100000000E-03 0.  1.
        -12    1    3    3    0    0 -0.38244457049E+02  0.65904353602E+01  0.60442569505E+01  0.39276015267E+02  0.00000000000E+00 0.  1.
</event>
<event>
 7    1  0.1935465E-015  0.9000775E+02  0.7816164E-02  0.1186339E+00
        -11   -1    0    0    0    0  0.00000000000E+00  0.00000000000E+00  0.45593999997E+02  0.45594000000E+02  0.51100000000E-03 0.  1.
         11   -1    0    0    0    0 -0.00000000000E+00 -0.00000000000E+00 -0.45593999997E+02  0.45594000000E+02  0.51100000000E-03 0. -1.
    9900012    2    1    2    0    0 -0.38774861784E+00  0.77568028807E+00  0.80060050204E+00  0.90007749999E+02  0.90000011499E+02 0.  0.
         12    1    1    2    0    0  0.38774861784E+00 -0.77568028807E+00 -0.80060050204E+00  0.11802500006E+01  0.00000000000E+00 0. -1.
         11    1    3    3    0    0  0.38356259688E+02  0.43921355703E+01 -0.18054755241E+02  0.42620038705E+02  0.51100000000E-03 0. -1.
        -11    1    3    3    0    0 -0.58802629993E+00  0.26069128798E+01  0.61297459257E+01  0.66869690493E+01  0.51100000000E-03 0.  1.
        -12    1    3    3    0    0 -0.38155982006E+02 -0.62233681620E+01  0.12725609817E+02  0.40700742245E+02  0.00000000000E+00 0.  1.
</event>
<event>
 7    1  0.1935465E-015  0.9000775E+02  0.7816164E-02  0.1186339E+00
        -11   -1    0    0    0    0  0.00000000000E+00  0.00000000000E+00  0.45593999997E+02  0.45594000000E+02  0.51100000000E-03 0. -1.
         11   -1    0    0    0    0 -0.00000000000E+00 -0.00000000000E+00 -0.45593999997E+02  0.45594000000E+02  0.51100000000E-03 0.  1.
    9900012    2    1    2    0    0  0.36187977028E-01  0.25037625754E+00 -0.11528190502E+01  0.90007750195E+02  0.90000011697E+02 0.  0.
         12    1    1    2    0    0 -0.36187977028E-01 -0.25037625754E+00  0.11528190502E+01  0.11802498051E+01  0.00000000000E+00 0. -1.
         11    1    3    3    0    0 -0.12755930091E+02 -0.39141433868E+01  0.41758198217E+01  0.13981120928E+02  0.51100000000E-03 0. -1.
        -11    1    3    3    0    0 -0.31324050100E+02 -0.14763812376E+01 -0.17529065764E+01  0.31407777667E+02  0.51100000000E-03 0.  1.
         12    1    3    3    0    0  0.44116168169E+02  0.56409008819E+01 -0.35757322955E+01  0.44618851600E+02  0.00000000000E+00 0. -1.
</event>
<event>
 7    1  0.1935465E-015  0.9000774E+02  0.7816164E-02  0.1186339E+00
        -11   -1    0    0    0    0  0.00000000000E+00  0.00000000000E+00  0.45593999997E+02  0.45594000000E+02  0.51100000000E-03 0.  1.
         11   -1    0    0    0    0 -0.00000000000E+00 -0.00000000000E+00 -0.45593999997E+02  0.45594000000E+02  0.51100000000E-03 0. -1.
    9900012    2    1    2    0    0  0.10610483597E+01  0.26536068531E+00  0.44360368680E+00  0.90007735561E+02  0.89999996870E+02 0.  0.
         12    1    1    2    0    0 -0.10610483597E+01 -0.26536068531E+00 -0.44360368680E+00  0.11802644389E+01  0.00000000000E+00 0. -1.
         11    1    3    3    0    0  0.46740016887E+01  0.83020845977E+01  0.12206652155E+01  0.96052550347E+01  0.51100000000E-03 0. -1.
        -11    1    3    3    0    0 -0.39709715493E+01 -0.40885272466E+02  0.15292879569E+02  0.43832023515E+02  0.51100000000E-03 0.  1.
         12    1    3    3    0    0  0.35801822027E+00  0.32848548554E+02 -0.16069941098E+02  0.36570457011E+02  0.00000000000E+00 0. -1.
</event>
<event>
 7    1  0.1935465E-015  0.9000770E+02  0.7816164E-02  0.1186339E+00
        -11   -1    0    0    0    0  0.00000000000E+00  0.00000000000E+00  0.45593999997E+02  0.45594000000E+02  0.51100000000E-03 0.  1.
         11   -1    0    0    0    0 -0.00000000000E+00 -0.00000000000E+00 -0.45593999997E+02  0.45594000000E+02  0.51100000000E-03 0. -1.
    9900012    2    1    2    0    0  0.54415046876E+00 -0.61815844403E+00  0.84550483470E+00  0.90007704266E+02  0.89999965162E+02 0.  0.
         12    1    1    2    0    0 -0.54415046876E+00  0.61815844403E+00 -0.84550483470E+00  0.11802957342E+01  0.00000000000E+00 0. -1.
         11    1    3    3    0    0 -0.33605793603E+02 -0.14619222052E+02 -0.66590839208E+00  0.36653982749E+02  0.51100000000E-03 0. -1.
        -11    1    3    3    0    0 -0.78624949864E+00 -0.36103303193E+01 -0.11534459417E+02  0.12111830068E+02  0.51100000000E-03 0.  1.
        -12    1    3    3    0    0  0.34936193570E+02  0.17611393928E+02  0.13045872644E+02  0.41241891449E+02  0.00000000000E+00 0.  1.
</event>
<event>
 7    1  0.1935465E-015  0.9000763E+02  0.7816164E-02  0.1186339E+00
        -11   -1    0    0    0    0  0.00000000000E+00  0.00000000000E+00  0.45593999997E+02  0.45594000000E+02  0.51100000000E-03 0. -1.
         11   -1    0    0    0    0 -0.00000000000E+00 -0.00000000000E+00 -0.45593999997E+02  0.45594000000E+02  0.51100000000E-03 0.  1.
    9900012    2    1    2    0    0  0.10216530567E+01  0.31300813380E+00 -0.50153298883E+00  0.90007625314E+02  0.89999885168E+02 0.  0.
         12    1    1    2    0    0 -0.10216530567E+01 -0.31300813380E+00  0.50153298883E+00  0.11803746859E+01  0.00000000000E+00 0. -1.
         11    1    3    3    0    0 -0.33604503051E+01  0.79733328598E+01 -0.32813920587E+01  0.92538747155E+01  0.51100000000E-03 0. -1.
        -11    1    3    3    0    0 -0.32191737901E+02  0.16780093361E+02 -0.28119525613E+01  0.36411352622E+02  0.51100000000E-03 0.  1.
         12    1    3    3    0    0  0.36573841263E+02 -0.24440418087E+02  0.55918116312E+01  0.44342397977E+02  0.00000000000E+00 0. -1.
</event>
<event>
 7    1  0.1935465E-015  0.9000774E+02  0.7816164E-02  0.1186339E+00
        -11   -1    0    0    0    0  0.00000000000E+00  0.00000000000E+00  0.45593999997E+02  0.45594000000E+02  0.51100000000E-03 0.  1.
         11   -1    0    0    0    0 -0.00000000000E+00 -0.00000000000E+00 -0.45593999997E+02  0.45594000000E+02  0.51100000000E-03 0. -1.
    9900012    2    1    2    0    0 -0.82385053712E+00  0.84513541849E+00  0.62533429435E-02  0.90007736179E+02  0.89999997496E+02 0.  0.
         12    1    1    2    0    0  0.82385053712E+00 -0.84513541849E+00 -0.62533429435E-02  0.11802638211E+01  0.00000000000E+00 0. -1.
         11    1    3    3    0    0 -0.32508250348E+02  0.77990169416E+01 -0.64995517605E+01  0.34056646624E+02  0.51100000000E-03 0. -1.
        -11    1    3    3    0    0 -0.52154851382E+01  0.52907184806E+01 -0.11031843167E+02  0.13300171096E+02  0.51100000000E-03 0.  1.
        -12    1    3    3    0    0  0.36899884949E+02 -0.12244600004E+02  0.17537648270E+02  0.42650918459E+02  0.00000000000E+00 0.  1.
</event>
<event>
 7    1  0.1935465E-015  0.9000775E+02  0.7816164E-02  0.1186339E+00
        -11   -1    0    0    0    0  0.00000000000E+00  0.00000000000E+00  0.45593999997E+02  0.45594000000E+02  0.51100000000E-03 0.  1.
         11   -1    0    0    0    0 -0.00000000000E+00 -0.00000000000E+00 -0.45593999997E+02  0.45594000000E+02  0.51100000000E-03 0. -1.
    9900012    2    1    2    0    0 -0.26144551377E+00 -0.11508915821E+01 -0.85516882117E-02  0.90007754974E+02  0.90000016539E+02 0.  0.
         12    1    1    2    0    0  0.26144551377E+00  0.11508915821E+01  0.85516882117E-02  0.11802450262E+01  0.00000000000E+00 0. -1.
         11    1    3    3    0    0 -0.70443984948E+01  0.43839941902E+00 -0.62402163306E+01  0.94210426343E+01  0.51100000000E-03 0. -1.
        -11    1    3    3    0    0 -0.87451121776E+01 -0.35409052047E+02  0.19149246425E+02  0.41194315054E+02  0.51100000000E-03 0.  1.
         12    1    3    3    0    0  0.15528065159E+02  0.33819761046E+02 -0.12917581783E+02  0.39392397285E+02  0.00000000000E+00 0. -1.
</event>
<event>
 7    1  0.2568077E-015  0.9000772E+02  0.7816164E-02  0.1186339E+00
        -11   -1    0    0    0    0  0.00000000000E+00  0.00000000000E+00  0.45593999997E+02  0.45594000000E+02  0.51100000000E-03 0. -1.
         11   -1    0    0    0    0 -0.00000000000E+00 -0.00000000000E+00 -0.45593999997E+02  0.45594000000E+02  0.51100000000E-03 0.  1.
    9900012    2    1    2    0    0  0.34425556256E+00 -0.48578091617E+00 -0.10190999857E+01  0.90007720469E+02  0.89999981579E+02 0.  0.
         12    1    1    2    0    0 -0.34425556256E+00  0.48578091617E+00  0.10190999857E+01  0.11802795311E+01  0.00000000000E+00 0. -1.
         11    1    3    3    0    0  0.25447756408E+01 -0.76555685454E+01 -0.52607843984E+01  0.96311715571E+01  0.51100000000E-03 0. -1.
        -11    1    3    3    0    0  0.74759871569E+00 -0.35966428441E+02 -0.45318744352E+01  0.36258526788E+02  0.51100000000E-03 0.  1.
         12    1    3    3    0    0 -0.29481187939E+01  0.43136216070E+02  0.87735588479E+01  0.44118022124E+02  0.00000000000E+00 0. -1.
</event>
<event>
 7    1  0.1935465E-015  0.9000761E+02  0.7816164E-02  0.1186339E+00
        -11   -1    0    0    0    0  0.00000000000E+00  0.00000000000E+00  0.45593999997E+02  0.45594000000E+02  0.51100000000E-03 0. -1.
         11   -1    0    0    0    0 -0.00000000000E+00 -0.00000000000E+00 -0.45593999997E+02  0.45594000000E+02  0.51100000000E-03 0.  1.
    9900012    2    1    2    0    0 -0.10901481937E+01 -0.93629989888E-01 -0.44287274913E+00  0.90007607722E+02  0.89999867343E+02 0.  0.
         12    1    1    2    0    0  0.10901481937E+01  0.93629989888E-01  0.44287274913E+00  0.11803922785E+01  0.00000000000E+00 0. -1.
         11    1    3    3    0    0 -0.35982180524E+02 -0.19854059291E+02  0.85601451103E+01  0.41978292845E+02  0.51100000000E-03 0. -1.
        -11    1    3    3    0    0  0.47715130401E+01 -0.58621493651E+01 -0.24490936207E+01  0.79454510063E+01  0.51100000000E-03 0.  1.
        -12    1    3    3    0    0  0.30120519291E+02  0.25622578666E+02 -0.65539242388E+01  0.40083863870E+02  0.00000000000E+00 0.  1.
</event>
<event>
 7    1  0.1935465E-015  0.9000776E+02  0.7816164E-02  0.1186339E+00
        -11   -1    0    0    0    0  0.00000000000E+00  0.00000000000E+00  0.45593999997E+02  0.45594000000E+02  0.51100000000E-03 0.  1.
         11   -1    0    0    0    0 -0.00000000000E+00 -0.00000000000E+00 -0.45593999997E+02  0.45594000000E+02  0.51100000000E-03 0. -1.
    9900012    2    1    2    0    0  0.45306176871E+00  0.24590332307E+00  0.10617126476E+01  0.90007759704E+02  0.90000021332E+02 0.  0.
         12    1    1    2    0    0 -0.45306176871E+00 -0.24590332307E+00 -0.10617126476E+01  0.11802402962E+01  0.00000000000E+00 0. -1.
         11    1    3    3    0    0 -0.39126027312E+01 -0.94402158258E+01  0.42304439830E+01  0.11059963450E+02  0.51100000000E-03 0. -1.
        -11    1    3    3    0    0 -0.15457631279E+01 -0.31092003591E+02  0.14220176911E+02  0.34224486886E+02  0.51100000000E-03 0.  1.
         12    1    3    3    0    0  0.59114276278E+01  0.40778122740E+02 -0.17388908247E+02  0.44723309368E+02  0.00000000000E+00 0. -1.
</event>
<event>
 7    1  0.1935465E-015  0.9000772E+02  0.7816164E-02  0.1186339E+00
        -11   -1    0    0    0    0  0.00000000000E+00  0.00000000000E+00  0.45593999997E+02  0.45594000000E+02  0.51100000000E-03 0. -1.
         11   -1    0    0    0    0 -0.00000000000E+00 -0.00000000000E+00 -0.45593999997E+02  0.45594000000E+02  0.51100000000E-03 0.  1.
    9900012    2    1    2    0    0  0.42361993120E+00  0.96647699942E+00  0.52870246185E+00  0.90007721249E+02  0.89999982370E+02 0.  0.
         12    1    1    2    0    0 -0.42361993120E+00 -0.96647699942E+00 -0.52870246185E+00  0.11802787508E+01  0.00000000000E+00 0. -1.
         11    1    3    3    0    0 -0.13622331504E+02 -0.39024457557E+02  0.46459790960E+01  0.41594005881E+02  0.51100000000E-03 0. -1.
        -11    1    3    3    0    0 -0.30444558324E+00  0.60012277791E+01  0.76132057088E+01  0.96988825849E+01  0.51100000000E-03 0.  1.
        -12    1    3    3    0    0  0.14350397019E+02  0.33989706777E+02 -0.11730482343E+02  0.38714832783E+02  0.00000000000E+00 0.  1.
</event>
<event>
 7    1  0.1935465E-015  0.9000778E+02  0.7816164E-02  0.1186339E+00
        -11   -1    0    0    0    0  0.00000000000E+00  0.00000000000E+00  0.45593999997E+02  0.45594000000E+02  0.51100000000E-03 0. -1.
         11   -1    0    0    0    0 -0.00000000000E+00 -0.00000000000E+00 -0.45593999997E+02  0.45594000000E+02  0.51100000000E-03 0.  1.
    9900012    2    1    2    0    0  0.11648962091E+01  0.17198954535E+00  0.79705356056E-01  0.90007781154E+02  0.90000043065E+02 0.  0.
         12    1    1    2    0    0 -0.11648962091E+01 -0.17198954535E+00 -0.79705356056E-01  0.11802188464E+01  0.00000000000E+00 0. -1.
         11    1    3    3    0    0 -0.23744551310E+01 -0.57191494399E+01  0.40338870609E+02  0.40811410043E+02  0.51100000000E-03 0. -1.
        -11    1    3    3    0    0 -0.75292765375E+01 -0.45478615802E+01 -0.35983056316E+01  0.95037284163E+01  0.51100000000E-03 0.  1.
        -12    1    3    3    0    0  0.11068627878E+02  0.10439000565E+02 -0.36660859621E+02  0.39692642694E+02  0.00000000000E+00 0.  1.
</event>
<event>
 7    1  0.1935465E-015  0.9000783E+02  0.7816164E-02  0.1186339E+00
        -11   -1    0    0    0    0  0.00000000000E+00  0.00000000000E+00  0.45593999997E+02  0.45594000000E+02  0.51100000000E-03 0.  1.
         11   -1    0    0    0    0 -0.00000000000E+00 -0.00000000000E+00 -0.45593999997E+02  0.45594000000E+02  0.51100000000E-03 0. -1.
    9900012    2    1    2    0    0 -0.11672438635E+01  0.13451852579E+00  0.11065071767E+00  0.90007831770E+02  0.90000094349E+02 0.  0.
         12    1    1    2    0    0  0.11672438635E+01 -0.13451852579E+00 -0.11065071767E+00  0.11801682303E+01  0.00000000000E+00 0. -1.
         11    1    3    3    0    0  0.20044579625E+02  0.17604706180E+02 -0.29391795180E+02  0.39693683077E+02  0.51100000000E-03 0. -1.
        -11    1    3    3    0    0  0.76586259908E+01 -0.16470426213E+01  0.57990064357E+01  0.97465777258E+01  0.51100000000E-03 0.  1.
        -12    1    3    3    0    0 -0.28870449479E+02 -0.15823145033E+02  0.23703439462E+02  0.40567570967E+02  0.00000000000E+00 0.  1.
</event>
<event>
 7    1  0.1935465E-015  0.9000778E+02  0.7816164E-02  0.1186339E+00
        -11   -1    0    0    0    0  0.00000000000E+00  0.00000000000E+00  0.45593999997E+02  0.45594000000E+02  0.51100000000E-03 0. -1.
         11   -1    0    0    0    0 -0.00000000000E+00 -0.00000000000E+00 -0.45593999997E+02  0.45594000000E+02  0.51100000000E-03 0.  1.
    9900012    2    1    2    0    0 -0.94261423203E+00  0.39484093981E+00  0.59034588143E+00  0.90007775776E+02  0.90000037617E+02 0.  0.
         12    1    1    2    0    0  0.94261423203E+00 -0.39484093981E+00 -0.59034588143E+00  0.11802242236E+01  0.00000000000E+00 0. -1.
         11    1    3    3    0    0 -0.13743510126E+02 -0.28716918288E+01  0.36285602085E+02  0.38907269288E+02  0.51100000000E-03 0. -1.
        -11    1    3    3    0    0 -0.10892711455E+01  0.66273013752E+01  0.47358614390E+01  0.82180301153E+01  0.51100000000E-03 0.  1.
        -12    1    3    3    0    0  0.13890167039E+02 -0.33607686065E+01 -0.40431117643E+02  0.42882476373E+02  0.00000000000E+00 0.  1.
</event>
<event>
 7    1  0.1935465E-015  0.9000774E+02  0.7816164E-02  0.1186339E+00
        -11   -1    0    0    0    0  0.00000000000E+00  0.00000000000E+00  0.45593999997E+02  0.45594000000E+02  0.51100000000E-03 0.  1.
         11   -1    0    0    0    0 -0.00000000000E+00 -0.00000000000E+00 -0.45593999997E+02  0.45594000000E+02  0.51100000000E-03 0. -1.
    9900012    2    1    2    0    0 -0.98398433094E+00 -0.63099939639E+00  0.16320983060E+00  0.90007736110E+02  0.89999997426E+02 0.  0.
         12    1    1    2    0    0  0.98398433094E+00  0.63099939639E+00 -0.16320983060E+00  0.11802638902E+01  0.00000000000E+00 0. -1.
         11    1    3    3    0    0 -0.90046188725E+01  0.37715611513E+02  0.12606261360E+01  0.38796129851E+02  0.51100000000E-03 0. -1.
        -11    1    3    3    0    0 -0.86419834857E+00 -0.29686942253E-01 -0.10690275481E+02  0.10725190451E+02  0.51100000000E-03 0.  1.
        -12    1    3    3    0    0  0.88848328901E+01 -0.38316923968E+02  0.95928591753E+01  0.40486415808E+02  0.00000000000E+00 0.  1.
</event>
<event>
 7    1  0.1935465E-015  0.9000776E+02  0.7816164E-02  0.1186339E+00
        -11   -1    0    0    0    0  0.00000000000E+00  0.00000000000E+00  0.45593999997E+02  0.45594000000E+02  0.51100000000E-03 0.  1.
         11   -1    0    0    0    0 -0.00000000000E+00 -0.00000000000E+00 -0.45593999997E+02  0.45594000000E+02  0.51100000000E-03 0. -1.
    9900012    2    1    2    0    0  0.35059981829E+00  0.10550036995E+01  0.39624621729E+00  0.90007760997E+02  0.90000022643E+02 0.  0.
         12    1    1    2    0    0 -0.35059981829E+00 -0.10550036995E+01 -0.39624621729E+00  0.11802390026E+01  0.00000000000E+00 0. -1.
         11    1    3    3    0    0 -0.59165149492E+01 -0.18637252142E+02 -0.30945483537E+02  0.36605672623E+02  0.51100000000E-03 0. -1.
        -11    1    3    3    0    0  0.56766115782E+01 -0.18845933908E+01 -0.71191362382E+01  0.92982639400E+01  0.51100000000E-03 0.  1.
        -12    1    3    3    0    0  0.59050318929E+00  0.21576849233E+02  0.38460865993E+02  0.44103824434E+02  0.00000000000E+00 0.  1.
</event>
<event>
 7    1  0.1935465E-015  0.9000771E+02  0.7816164E-02  0.1186339E+00
        -11   -1    0    0    0    0  0.00000000000E+00  0.00000000000E+00  0.45593999997E+02  0.45594000000E+02  0.51100000000E-03 0. -1.
         11   -1    0    0    0    0 -0.00000000000E+00 -0.00000000000E+00 -0.45593999997E+02  0.45594000000E+02  0.51100000000E-03 0.  1.
    9900012    2    1    2    0    0  0.60778874386E+00 -0.77941022227E+00 -0.64513567334E+00  0.90007708727E+02  0.89999969682E+02 0.  0.
         12    1    1    2    0    0 -0.60778874386E+00  0.77941022227E+00  0.64513567334E+00  0.11802912729E+01  0.00000000000E+00 0. -1.
         11    1    3    3    0    0 -0.49483193116E+01  0.62819673129E+01  0.35114368560E+02  0.36013439949E+02  0.51100000000E-03 0. -1.
        -11    1    3    3    0    0  0.31507625865E+01 -0.11534437303E+02  0.49703890840E+01  0.12948950408E+02  0.51100000000E-03 0.  1.
        -12    1    3    3    0    0  0.24053454690E+01  0.44730597674E+01 -0.40729893317E+02  0.41045318370E+02  0.00000000000E+00 0.  1.
</event>
<event>
 7    1  0.1935465E-015  0.9000771E+02  0.7816164E-02  0.1186339E+00
        -11   -1    0    0    0    0  0.00000000000E+00  0.00000000000E+00  0.45593999997E+02  0.45594000000E+02  0.51100000000E-03 0.  1.
         11   -1    0    0    0    0 -0.00000000000E+00 -0.00000000000E+00 -0.45593999997E+02  0.45594000000E+02  0.51100000000E-03 0. -1.
    9900012    2    1    2    0    0  0.10047685669E+01 -0.61619599661E+00 -0.61811464919E-01  0.90007712731E+02  0.89999973739E+02 0.  0.
         12    1    1    2    0    0 -0.10047685669E+01  0.61619599661E+00  0.61811464919E-01  0.11802872686E+01  0.00000000000E+00 0. -1.
         11    1    3    3    0    0  0.85775772603E+01 -0.85141737776E+00  0.32330583578E+01  0.92061072020E+01  0.51100000000E-03 0. -1.
        -11    1    3    3    0    0  0.32449349865E+02 -0.24012200477E+01  0.16038657365E+02  0.36276227680E+02  0.51100000000E-03 0.  1.
         12    1    3    3    0    0 -0.40022158558E+02  0.26364414288E+01 -0.19333527188E+02  0.44525377849E+02  0.00000000000E+00 0. -1.
</event>
<event>
 7    1  0.1935465E-015  0.9000772E+02  0.7816164E-02  0.1186339E+00
        -11   -1    0    0    0    0  0.00000000000E+00  0.00000000000E+00  0.45593999997E+02  0.45594000000E+02  0.51100000000E-03 0. -1.
         11   -1    0    0    0    0 -0.00000000000E+00 -0.00000000000E+00 -0.45593999997E+02  0.45594000000E+02  0.51100000000E-03 0.  1.
    9900012    2    1    2    0    0 -0.98190508113E+00 -0.64592581924E+00 -0.10815618363E+00  0.90007722273E+02  0.89999983407E+02 0.  0.
         12    1    1    2    0    0  0.98190508113E+00  0.64592581924E+00  0.10815618363E+00  0.11802777268E+01  0.00000000000E+00 0. -1.
         11    1    3    3    0    0 -0.41936849330E+01 -0.78240093144E+01 -0.53802672672E+00  0.88933451574E+01  0.51100000000E-03 0. -1.
        -11    1    3    3    0    0  0.19301435502E+02 -0.43321419846E+01 -0.35190390300E+02  0.40369251124E+02  0.51100000000E-03 0.  1.
         12    1    3    3    0    0 -0.16089655650E+02  0.11510225480E+02  0.35620260843E+02  0.40745125992E+02  0.00000000000E+00 0. -1.
</event>
<event>
 7    1  0.1935465E-015  0.9000768E+02  0.7816164E-02  0.1186339E+00
        -11   -1    0    0    0    0  0.00000000000E+00  0.00000000000E+00  0.45593999997E+02  0.45594000000E+02  0.51100000000E-03 0. -1.
         11   -1    0    0    0    0 -0.00000000000E+00 -0.00000000000E+00 -0.45593999997E+02  0.45594000000E+02  0.51100000000E-03 0.  1.
    9900012    2    1    2    0    0  0.84916253601E+00 -0.42438170151E+00  0.70140650212E+00  0.90007683126E+02  0.89999943744E+02 0.  0.
         12    1    1    2    0    0 -0.84916253601E+00  0.42438170151E+00 -0.70140650212E+00  0.11803168737E+01  0.00000000000E+00 0. -1.
         11    1    3    3    0    0  0.82749376382E+01 -0.34732877079E+01 -0.59517301912E+01  0.10768538106E+02  0.51100000000E-03 0. -1.
        -11    1    3    3    0    0  0.26330413695E+02 -0.18403884729E+02 -0.13024257371E+02  0.34664462188E+02  0.51100000000E-03 0.  1.
         12    1    3    3    0    0 -0.33756188797E+02  0.21452790735E+02  0.19677394064E+02  0.44574682832E+02  0.00000000000E+00 0. -1.
</event>
<event>
 7    1  0.1935465E-015  0.9000772E+02  0.7816164E-02  0.1186339E+00
        -11   -1    0    0    0    0  0.00000000000E+00  0.00000000000E+00  0.45593999997E+02  0.45594000000E+02  0.51100000000E-03 0. -1.
         11   -1    0    0    0    0 -0.00000000000E+00 -0.00000000000E+00 -0.45593999997E+02  0.45594000000E+02  0.51100000000E-03 0.  1.
    9900012    2    1    2    0    0 -0.40733512537E+00  0.10182957261E+01 -0.43614248160E+00  0.90007716833E+02  0.89999977895E+02 0.  0.
         12    1    1    2    0    0  0.40733512537E+00 -0.10182957261E+01  0.43614248160E+00  0.11802831671E+01  0.00000000000E+00 0. -1.
         11    1    3    3    0    0  0.33197532008E+02 -0.11642916548E+02 -0.14771903329E+02  0.38155507668E+02  0.51100000000E-03 0. -1.
        -11    1    3    3    0    0  0.41988653837E+01 -0.50055091608E+01  0.68350155208E+01  0.94553175462E+01  0.51100000000E-03 0.  1.
        -12    1    3    3    0    0 -0.37803732517E+02  0.17666721435E+02  0.75007453269E+01  0.42396891619E+02  0.00000000000E+00 0.  1.
</event>
<event>
 7    1  0.1935465E-015  0.9000740E+02  0.7816164E-02  0.1186340E+00
        -11   -1    0    0    0    0  0.00000000000E+00  0.00000000000E+00  0.45593999997E+02  0.45594000000E+02  0.51100000000E-03 0.  1.
         11   -1    0    0    0    0 -0.00000000000E+00 -0.00000000000E+00 -0.45593999997E+02  0.45594000000E+02  0.51100000000E-03 0. -1.
    9900012    2    1    2    0    0 -0.42374906955E+00  0.70721508220E+00  0.84503957044E+00  0.90007403404E+02  0.89999660328E+02 0.  0.
         12    1    1    2    0    0  0.42374906955E+00 -0.70721508220E+00 -0.84503957044E+00  0.11805965958E+01  0.00000000000E+00 0. -1.
         11    1    3    3    0    0 -0.22492968661E+02  0.10680569746E+02 -0.36715390011E+02  0.44362462434E+02  0.51100000000E-03 0. -1.
        -11    1    3    3    0    0  0.34434258362E+01  0.17003517665E+01  0.72286922162E+01  0.81854974826E+01  0.51100000000E-03 0.  1.
        -12    1    3    3    0    0  0.18625793755E+02 -0.11673706431E+02  0.30331737365E+02  0.37459443488E+02  0.00000000000E+00 0.  1.
</event>
<event>
 7    1  0.2118866E-015  0.9000779E+02  0.7816164E-02  0.1186339E+00
        -11   -1    0    0    0    0  0.00000000000E+00  0.00000000000E+00  0.45593999997E+02  0.45594000000E+02  0.51100000000E-03 0. -1.
         11   -1    0    0    0    0 -0.00000000000E+00 -0.00000000000E+00 -0.45593999997E+02  0.45594000000E+02  0.51100000000E-03 0.  1.
    9900012    2    1    2    0    0 -0.50635620752E+00  0.91825620182E+00 -0.54157844280E+00  0.90007788887E+02  0.90000050900E+02 0.  0.
         12    1    1    2    0    0  0.50635620752E+00 -0.91825620182E+00  0.54157844280E+00  0.11802111128E+01  0.00000000000E+00 0. -1.
         11    1    3    3    0    0  0.10085351881E+02 -0.37380251511E+00 -0.17966743922E+01  0.10250955566E+02  0.51100000000E-03 0. -1.
        -11    1    3    3    0    0 -0.30635266245E+02 -0.19940726470E+02 -0.21793562379E+02  0.42557155350E+02  0.51100000000E-03 0.  1.
         12    1    3    3    0    0  0.20043558157E+02  0.21232785187E+02  0.23048658328E+02  0.37199677971E+02  0.00000000000E+00 0. -1.
</event>
<event>
 7    1  0.1935465E-015  0.9000684E+02  0.7816164E-02  0.1186341E+00
        -11   -1    0    0    0    0  0.00000000000E+00  0.00000000000E+00  0.45593999997E+02  0.45594000000E+02  0.51100000000E-03 0. -1.
         11   -1    0    0    0    0 -0.00000000000E+00 -0.00000000000E+00 -0.45593999997E+02  0.45594000000E+02  0.51100000000E-03 0.  1.
    9900012    2    1    2    0    0 -0.71467983292E+00  0.80417832420E+00  0.48751302089E+00  0.90006839983E+02  0.89999089466E+02 0.  0.
         12    1    1    2    0    0  0.71467983292E+00 -0.80417832420E+00 -0.48751302089E+00  0.11811600172E+01  0.00000000000E+00 0. -1.
         11    1    3    3    0    0 -0.10634932003E+01  0.11865411224E+02  0.12883918234E+00  0.11913672864E+02  0.51100000000E-03 0. -1.
        -11    1    3    3    0    0  0.76177319128E+01  0.83900613544E+01 -0.35164835448E+02  0.36945752413E+02  0.51100000000E-03 0.  1.
         12    1    3    3    0    0 -0.72689185454E+01 -0.19451294254E+02  0.35523509286E+02  0.41147414706E+02  0.00000000000E+00 0. -1.
</event>
<event>
 7    1  0.1935465E-015  0.9000768E+02  0.7816164E-02  0.1186339E+00
        -11   -1    0    0    0    0  0.00000000000E+00  0.00000000000E+00  0.45593999997E+02  0.45594000000E+02  0.51100000000E-03 0. -1.
         11   -1    0    0    0    0 -0.00000000000E+00 -0.00000000000E+00 -0.45593999997E+02  0.45594000000E+02  0.51100000000E-03 0.  1.
    9900012    2    1    2    0    0 -0.49364623539E+00 -0.21452516099E+00 -0.10504549890E+01  0.90007676598E+02  0.89999937129E+02 0.  0.
         12    1    1    2    0    0  0.49364623539E+00  0.21452516099E+00  0.10504549890E+01  0.11803234024E+01  0.00000000000E+00 0. -1.
         11    1    3    3    0    0  0.52629253558E+01 -0.36118339084E+01 -0.98476263672E+01  0.11735394020E+02  0.51100000000E-03 0. -1.
        -11    1    3    3    0    0 -0.40010144515E+02  0.12555646278E+02  0.88421521955E+00  0.41943268284E+02  0.51100000000E-03 0.  1.
         12    1    3    3    0    0  0.34253572923E+02 -0.91583375306E+01  0.79129561587E+01  0.36329014293E+02  0.00000000000E+00 0. -1.
</event>
<event>
 7    1  0.1935465E-015  0.9000772E+02  0.7816164E-02  0.1186339E+00
        -11   -1    0    0    0    0  0.00000000000E+00  0.00000000000E+00  0.45593999997E+02  0.45594000000E+02  0.51100000000E-03 0.  1.
         11   -1    0    0    0    0 -0.00000000000E+00 -0.00000000000E+00 -0.45593999997E+02  0.45594000000E+02  0.51100000000E-03 0. -1.
    9900012    2    1    2    0    0 -0.52257180265E+00  0.60942410097E+00  0.86520041308E+00  0.90007724279E+02  0.89999985439E+02 0.  0.
         12    1    1    2    0    0  0.52257180265E+00 -0.60942410097E+00 -0.86520041308E+00  0.11802757214E+01  0.00000000000E+00 0. -1.
         11    1    3    3    0    0  0.60552027163E+01  0.65638592997E+01 -0.36362071250E+01  0.96421849888E+01  0.51100000000E-03 0. -1.
        -11    1    3    3    0    0  0.19175370490E+02 -0.16502479599E+01 -0.30883734623E+02  0.36389877937E+02  0.51100000000E-03 0.  1.
         12    1    3    3    0    0 -0.25753145009E+02 -0.43041872388E+01  0.35385142161E+02  0.43975661353E+02  0.00000000000E+00 0. -1.
</event>
<event>
 7    1  0.1935465E-015  0.9000774E+02  0.7816164E-02  0.1186339E+00
        -11   -1    0    0    0    0  0.00000000000E+00  0.00000000000E+00  0.45593999997E+02  0.45594000000E+02  0.51100000000E-03 0. -1.
         11   -1    0    0    0    0 -0.00000000000E+00 -0.00000000000E+00 -0.45593999997E+02  0.45594000000E+02  0.51100000000E-03 0.  1.
    9900012    2    1    2    0    0  0.10272278219E+01  0.32476643458E+00  0.48201118742E+00  0.90007743663E+02  0.90000005080E+02 0.  0.
         12    1    1    2    0    0 -0.10272278219E+01 -0.32476643458E+00 -0.48201118742E+00  0.11802563365E+01  0.00000000000E+00 0. -1.
         11    1    3    3    0    0  0.19029102707E+02 -0.28192635765E+02  0.11903473143E+02  0.36036427880E+02  0.51100000000E-03 0. -1.
        -11    1    3    3    0    0  0.33041843795E+01 -0.89479557086E+01 -0.73783175109E+00  0.95670236610E+01  0.51100000000E-03 0.  1.
        -12    1    3    3    0    0 -0.21306059264E+02  0.37465357908E+02 -0.10683630205E+02  0.44404292123E+02  0.00000000000E+00 0.  1.
</event>
<event>
 7    1  0.1935465E-015  0.9000764E+02  0.7816164E-02  0.1186339E+00
        -11   -1    0    0    0    0  0.00000000000E+00  0.00000000000E+00  0.45593999997E+02  0.45594000000E+02  0.51100000000E-03 0.  1.
         11   -1    0    0    0    0 -0.00000000000E+00 -0.00000000000E+00 -0.45593999997E+02  0.45594000000E+02  0.51100000000E-03 0. -1.
    9900012    2    1    2    0    0 -0.50480139828E+00 -0.10531074055E+01 -0.17143956732E+00  0.90007639384E+02  0.89999899424E+02 0.  0.
         12    1    1    2    0    0  0.50480139828E+00  0.10531074055E+01  0.17143956732E+00  0.11803606162E+01  0.00000000000E+00 0. -1.
         11    1    3    3    0    0  0.29961901911E+02 -0.11865580561E+02  0.82491945450E+01  0.33264948205E+02  0.51100000000E-03 0. -1.
        -11    1    3    3    0    0  0.88915367276E+01 -0.70342917402E+01  0.35844530876E+01  0.11890710234E+02  0.51100000000E-03 0.  1.
        -12    1    3    3    0    0 -0.39358240037E+02  0.17846764895E+02 -0.12005087200E+02  0.44851980945E+02  0.00000000000E+00 0.  1.
</event>
<event>
 7    1  0.1935465E-015  0.9000773E+02  0.7816164E-02  0.1186339E+00
        -11   -1    0    0    0    0  0.00000000000E+00  0.00000000000E+00  0.45593999997E+02  0.45594000000E+02  0.51100000000E-03 0.  1.
         11   -1    0    0    0    0 -0.00000000000E+00 -0.00000000000E+00 -0.45593999997E+02  0.45594000000E+02  0.51100000000E-03 0. -1.
    9900012    2    1    2    0    0  0.69762783393E-01 -0.76567845559E-01  0.11757182232E+01  0.90007727649E+02  0.89999988854E+02 0.  0.
         12    1    1    2    0    0 -0.69762783393E-01  0.76567845559E-01 -0.11757182232E+01  0.11802723505E+01  0.00000000000E+00 0. -1.
         11    1    3    3    0    0  0.92628155971E+01  0.20897733316E+01 -0.11067827046E+01  0.95599097056E+01  0.51100000000E-03 0. -1.
        -11    1    3    3    0    0  0.26643969110E+02 -0.14292146352E+02 -0.20271821856E+02  0.36402105693E+02  0.51100000000E-03 0.  1.
         12    1    3    3    0    0 -0.35837021923E+02  0.12125805175E+02  0.22554322783E+02  0.44045712251E+02  0.00000000000E+00 0. -1.
</event>
<event>
 7    1  0.1935465E-015  0.9000771E+02  0.7816164E-02  0.1186339E+00
        -11   -1    0    0    0    0  0.00000000000E+00  0.00000000000E+00  0.45593999997E+02  0.45594000000E+02  0.51100000000E-03 0.  1.
         11   -1    0    0    0    0 -0.00000000000E+00 -0.00000000000E+00 -0.45593999997E+02  0.45594000000E+02  0.51100000000E-03 0. -1.
    9900012    2    1    2    0    0  0.89979261469E+00  0.75803931714E+00 -0.93931699898E-01  0.90007714645E+02  0.89999975678E+02 0.  0.
         12    1    1    2    0    0 -0.89979261469E+00 -0.75803931714E+00  0.93931699898E-01  0.11802853553E+01  0.00000000000E+00 0. -1.
         11    1    3    3    0    0  0.16407882561E+02  0.29481834129E+01 -0.33331964589E+02  0.37268354662E+02  0.51100000000E-03 0. -1.
        -11    1    3    3    0    0  0.95091183653E+01  0.15350665938E+01 -0.15212585050E+01  0.97516146987E+01  0.51100000000E-03 0.  1.
        -12    1    3    3    0    0 -0.25017208312E+02 -0.37252106895E+01  0.34759291394E+02  0.42987745284E+02  0.00000000000E+00 0.  1.
</event>
<event>
 7    1  0.1935465E-015  0.9000777E+02  0.7816164E-02  0.1186339E+00
        -11   -1    0    0    0    0  0.00000000000E+00  0.00000000000E+00  0.45593999997E+02  0.45594000000E+02  0.51100000000E-03 0. -1.
         11   -1    0    0    0    0 -0.00000000000E+00 -0.00000000000E+00 -0.45593999997E+02  0.45594000000E+02  0.51100000000E-03 0.  1.
    9900012    2    1    2    0    0  0.23643203644E+00  0.32098922274E+00 -0.11108598948E+01  0.90007769559E+02  0.90000031317E+02 0.  0.
         12    1    1    2    0    0 -0.23643203644E+00 -0.32098922274E+00  0.11108598948E+01  0.11802304414E+01  0.00000000000E+00 0. -1.
         11    1    3    3    0    0  0.35767878403E+02 -0.65036972891E+01 -0.95283729132E+01  0.37582297622E+02  0.51100000000E-03 0. -1.
        -11    1    3    3    0    0  0.41044625144E+01 -0.83007984403E+01  0.24936189984E+01  0.95899949556E+01  0.51100000000E-03 0.  1.
        -12    1    3    3    0    0 -0.39635908881E+02  0.15125484952E+02  0.59238940200E+01  0.42835476981E+02  0.00000000000E+00 0.  1.
</event>
<event>
 7    1  0.1935465E-015  0.9000786E+02  0.7816164E-02  0.1186339E+00
        -11   -1    0    0    0    0  0.00000000000E+00  0.00000000000E+00  0.45593999997E+02  0.45594000000E+02  0.51100000000E-03 0.  1.
         11   -1    0    0    0    0 -0.00000000000E+00 -0.00000000000E+00 -0.45593999997E+02  0.45594000000E+02  0.51100000000E-03 0. -1.
    9900012    2    1    2    0    0 -0.10773433398E+00 -0.87356188860E+00  0.78614179534E+00  0.90007857643E+02  0.90000120564E+02 0.  0.
         12    1    1    2    0    0  0.10773433398E+00  0.87356188860E+00 -0.78614179534E+00  0.11801423568E+01  0.00000000000E+00 0. -1.
         11    1    3    3    0    0 -0.28237561713E+01  0.24510887900E+01  0.92112795163E+01  0.99412829032E+01  0.51100000000E-03 0. -1.
        -11    1    3    3    0    0  0.95304057725E+01 -0.36147288365E+02  0.13797003510E+02  0.39847363733E+02  0.51100000000E-03 0.  1.
         12    1    3    3    0    0 -0.68143839352E+01  0.32822637687E+02 -0.22222141231E+02  0.40219211007E+02  0.00000000000E+00 0. -1.
</event>
<event>
 7    1  0.1935465E-015  0.9000760E+02  0.7816164E-02  0.1186339E+00
        -11   -1    0    0    0    0  0.00000000000E+00  0.00000000000E+00  0.45593999997E+02  0.45594000000E+02  0.51100000000E-03 0. -1.
         11   -1    0    0    0    0 -0.00000000000E+00 -0.00000000000E+00 -0.45593999997E+02  0.45594000000E+02  0.51100000000E-03 0.  1.
    9900012    2    1    2    0    0  0.32793714181E+00  0.35477317155E+00 -0.10770033935E+01  0.90007600457E+02  0.89999859983E+02 0.  0.
         12    1    1    2    0    0 -0.32793714181E+00 -0.35477317155E+00  0.10770033935E+01  0.11803995433E+01  0.00000000000E+00 0. -1.
         11    1    3    3    0    0  0.11163494407E+02 -0.58333261841E+01 -0.99584016422E+01  0.16056807443E+02  0.51100000000E-03 0. -1.
        -11    1    3    3    0    0 -0.99933742051E+01 -0.17580402461E+02 -0.25250381905E+02  0.32349959279E+02  0.51100000000E-03 0.  1.
         12    1    3    3    0    0 -0.84218306003E+00  0.23768501817E+02  0.34131780154E+02  0.41600833735E+02  0.00000000000E+00 0. -1.
</event>
<event>
 7    1  0.1935465E-015  0.9000695E+02  0.7816164E-02  0.1186341E+00
        -11   -1    0    0    0    0  0.00000000000E+00  0.00000000000E+00  0.45593999997E+02  0.45594000000E+02  0.51100000000E-03 0. -1.
         11   -1    0    0    0    0 -0.00000000000E+00 -0.00000000000E+00 -0.45593999997E+02  0.45594000000E+02  0.51100000000E-03 0.  1.
    9900012    2    1    2    0    0 -0.11062985200E+01 -0.38940987609E+00 -0.13908060067E+00  0.90006949671E+02  0.89999200603E+02 0.  0.
         12    1    1    2    0    0  0.11062985200E+01  0.38940987609E+00  0.13908060067E+00  0.11810503293E+01  0.00000000000E+00 0. -1.
         11    1    3    3    0    0  0.20867419620E+02  0.17797392159E+02  0.28577639191E+02  0.39609062489E+02  0.51100000000E-03 0. -1.
        -11    1    3    3    0    0  0.55958577575E+01 -0.11280736890E+02 -0.56860549433E+01  0.13816651907E+02  0.51100000000E-03 0.  1.
        -12    1    3    3    0    0 -0.27569575897E+02 -0.69060651447E+01 -0.23030664848E+02  0.36581235275E+02  0.00000000000E+00 0.  1.
</event>
<event>
 7    1  0.1935465E-015  0.9000774E+02  0.7816164E-02  0.1186339E+00
        -11   -1    0    0    0    0  0.00000000000E+00  0.00000000000E+00  0.45593999997E+02  0.45594000000E+02  0.51100000000E-03 0. -1.
         11   -1    0    0    0    0 -0.00000000000E+00 -0.00000000000E+00 -0.45593999997E+02  0.45594000000E+02  0.51100000000E-03 0.  1.
    9900012    2    1    2    0    0  0.97527572539E+00 -0.51162419743E+00  0.42436421708E+00  0.90007742804E+02  0.90000004209E+02 0.  0.
         12    1    1    2    0    0 -0.97527572539E+00  0.51162419743E+00 -0.42436421708E+00  0.11802571960E+01  0.00000000000E+00 0. -1.
         11    1    3    3    0    0  0.59812076527E+01 -0.97540755847E+01  0.60459328150E+00  0.11457851840E+02  0.51100000000E-03 0. -1.
        -11    1    3    3    0    0  0.18031339974E+02  0.11376598871E+02 -0.32459745903E+02  0.38835439067E+02  0.51100000000E-03 0.  1.
         12    1    3    3    0    0 -0.23037271901E+02 -0.21341474840E+01  0.32279516839E+02  0.39714451897E+02  0.00000000000E+00 0. -1.
</event>
<event>
 7    1  0.1935465E-015  0.9000776E+02  0.7816164E-02  0.1186339E+00
        -11   -1    0    0    0    0  0.00000000000E+00  0.00000000000E+00  0.45593999997E+02  0.45594000000E+02  0.51100000000E-03 0. -1.
         11   -1    0    0    0    0 -0.00000000000E+00 -0.00000000000E+00 -0.45593999997E+02  0.45594000000E+02  0.51100000000E-03 0.  1.
    9900012    2    1    2    0    0  0.33591979485E+00 -0.10934850953E+01  0.29052828190E+00  0.90007763395E+02  0.90000025071E+02 0.  0.
         12    1    1    2    0    0 -0.33591979485E+00  0.10934850953E+01 -0.29052828190E+00  0.11802366054E+01  0.00000000000E+00 0. -1.
         11    1    3    3    0    0  0.25092460724E+01 -0.12277610849E+01 -0.93984858614E+01  0.98048584835E+01  0.51100000000E-03 0. -1.
        -11    1    3    3    0    0  0.30762912150E+02  0.85190375376E+01 -0.17748544588E+02  0.36523165248E+02  0.51100000000E-03 0.  1.
         12    1    3    3    0    0 -0.32936238427E+02 -0.83847615479E+01  0.27437558731E+02  0.43679739663E+02  0.00000000000E+00 0. -1.
</event>
<event>
 7    1  0.1935465E-015  0.9000775E+02  0.7816164E-02  0.1186339E+00
        -11   -1    0    0    0    0  0.00000000000E+00  0.00000000000E+00  0.45593999997E+02  0.45594000000E+02  0.51100000000E-03 0.  1.
         11   -1    0    0    0    0 -0.00000000000E+00 -0.00000000000E+00 -0.45593999997E+02  0.45594000000E+02  0.51100000000E-03 0. -1.
    9900012    2    1    2    0    0  0.90882463035E+00 -0.28303658037E+00  0.69778849429E+00  0.90007753967E+02  0.90000015520E+02 0.  0.
         12    1    1    2    0    0 -0.90882463035E+00  0.28303658037E+00 -0.69778849429E+00  0.11802460325E+01  0.00000000000E+00 0. -1.
         11    1    3    3    0    0  0.20797153189E+01 -0.50102677839E+01 -0.44721879836E+01  0.70305380090E+01  0.51100000000E-03 0. -1.
        -11    1    3    3    0    0  0.16789513727E+02 -0.21731506511E+01  0.39861387793E+02  0.43307511958E+02  0.51100000000E-03 0.  1.
         12    1    3    3    0    0 -0.17960404415E+02  0.69003818546E+01 -0.34691411315E+02  0.39669704001E+02  0.00000000000E+00 0. -1.
</event>
<event>
 7    1  0.1935465E-015  0.9000774E+02  0.7816164E-02  0.1186339E+00
        -11   -1    0    0    0    0  0.00000000000E+00  0.00000000000E+00  0.45593999997E+02  0.45594000000E+02  0.51100000000E-03 0.  1.
         11   -1    0    0    0    0 -0.00000000000E+00 -0.00000000000E+00 -0.45593999997E+02  0.45594000000E+02  0.51100000000E-03 0. -1.
    9900012    2    1    2    0    0 -0.30885131232E+00 -0.10665252171E+01  0.40019273607E+00  0.90007737572E+02  0.89999998908E+02 0.  0.
         12    1    1    2    0    0  0.30885131232E+00  0.10665252171E+01 -0.40019273607E+00  0.11802624275E+01  0.00000000000E+00 0. -1.
         11    1    3    3    0    0 -0.76260949045E+01  0.99110589251E+00  0.52596642511E+01  0.93168493966E+01  0.51100000000E-03 0. -1.
        -11    1    3    3    0    0  0.12999986615E+02 -0.36648720893E+02 -0.18516683554E+02  0.43069664095E+02  0.51100000000E-03 0.  1.
         12    1    3    3    0    0 -0.56827430226E+01  0.34591089784E+02  0.13657212039E+02  0.37621224081E+02  0.00000000000E+00 0. -1.
</event>
<event>
 7    1  0.1935465E-015  0.9000776E+02  0.7816164E-02  0.1186339E+00
        -11   -1    0    0    0    0  0.00000000000E+00  0.00000000000E+00  0.45593999997E+02  0.45594000000E+02  0.51100000000E-03 0.  1.
         11   -1    0    0    0    0 -0.00000000000E+00 -0.00000000000E+00 -0.45593999997E+02  0.45594000000E+02  0.51100000000E-03 0. -1.
    9900012    2    1    2    0    0  0.93306745323E+00  0.16827023720E+00 -0.70288188380E+00  0.90007757361E+02  0.90000018958E+02 0.  0.
         12    1    1    2    0    0 -0.93306745323E+00 -0.16827023720E+00  0.70288188380E+00  0.11802426393E+01  0.00000000000E+00 0. -1.
         11    1    3    3    0    0 -0.34719437146E+01 -0.84460990674E+01 -0.94636967330E+00  0.91807733026E+01  0.51100000000E-03 0. -1.
        -11    1    3    3    0    0  0.35535920368E+02 -0.68305653991E+01 -0.19242991621E+02  0.40984765302E+02  0.51100000000E-03 0.  1.
         12    1    3    3    0    0 -0.31130909200E+02  0.15444934704E+02  0.19486479411E+02  0.39842218756E+02  0.00000000000E+00 0. -1.
</event>
<event>
 7    1  0.1935465E-015  0.9000906E+02  0.7816164E-02  0.1186336E+00
        -11   -1    0    0    0    0  0.00000000000E+00  0.00000000000E+00  0.45593999997E+02  0.45594000000E+02  0.51100000000E-03 0.  1.
         11   -1    0    0    0    0 -0.00000000000E+00 -0.00000000000E+00 -0.45593999997E+02  0.45594000000E+02  0.51100000000E-03 0. -1.
    9900012    2    1    2    0    0 -0.22340461532E+00 -0.10100968366E+01  0.56542464621E+00  0.90009055442E+02  0.90001334163E+02 0.  0.
         12    1    1    2    0    0  0.22340461532E+00  0.10100968366E+01 -0.56542464621E+00  0.11789445585E+01  0.00000000000E+00 0. -1.
         11    1    3    3    0    0  0.45325577960E+01 -0.47795707116E+01  0.14729612822E+02  0.16135360874E+02  0.51100000000E-03 0. -1.
        -11    1    3    3    0    0  0.28923670624E+02  0.14310082396E+02 -0.20199669120E+02  0.38070773743E+02  0.51100000000E-03 0.  1.
         12    1    3    3    0    0 -0.33679633035E+02 -0.10540608521E+02  0.60354809438E+01  0.35802920825E+02  0.00000000000E+00 0. -1.
</event>
<event>
 7    1  0.1935465E-015  0.9000756E+02  0.7816164E-02  0.1186339E+00
        -11   -1    0    0    0    0  0.00000000000E+00  0.00000000000E+00  0.45593999997E+02  0.45594000000E+02  0.51100000000E-03 0. -1.
         11   -1    0    0    0    0 -0.00000000000E+00 -0.00000000000E+00 -0.45593999997E+02  0.45594000000E+02  0.51100000000E-03 0.  1.
    9900012    2    1    2    0    0 -0.50870721909E-01  0.11641339283E+01 -0.18879557755E+00  0.90007559657E+02  0.89999818644E+02 0.  0.
         12    1    1    2    0    0  0.50870721909E-01 -0.11641339283E+01  0.18879557755E+00  0.11804403430E+01  0.00000000000E+00 0. -1.
         11    1    3    3    0    0 -0.31950558731E+02  0.21171495131E+02  0.39584999740E+01  0.38532325801E+02  0.51100000000E-03 0. -1.
        -11    1    3    3    0    0 -0.60480852910E+01 -0.30345743228E+01 -0.70898224300E+01  0.98006917795E+01  0.51100000000E-03 0.  1.
        -12    1    3    3    0    0  0.37947773300E+02 -0.16972786880E+02  0.29425268784E+01  0.41674542077E+02  0.00000000000E+00 0.  1.
</event>
<event>
 7    1  0.1935465E-015  0.9000782E+02  0.7816164E-02  0.1186339E+00
        -11   -1    0    0    0    0  0.00000000000E+00  0.00000000000E+00  0.45593999997E+02  0.45594000000E+02  0.51100000000E-03 0. -1.
         11   -1    0    0    0    0 -0.00000000000E+00 -0.00000000000E+00 -0.45593999997E+02  0.45594000000E+02  0.51100000000E-03 0.  1.
    9900012    2    1    2    0    0 -0.26884003570E+00  0.11354787212E+01 -0.17677243782E+00  0.90007815529E+02  0.90000077894E+02 0.  0.
         12    1    1    2    0    0  0.26884003570E+00 -0.11354787212E+01  0.17677243782E+00  0.11801844712E+01  0.00000000000E+00 0. -1.
         11    1    3    3    0    0  0.59407014710E+01  0.55185735414E+01  0.16640990757E+01  0.82774279758E+01  0.51100000000E-03 0. -1.
        -11    1    3    3    0    0 -0.21182258684E+02  0.87634823828E+01 -0.35710227397E+02  0.42434738687E+02  0.51100000000E-03 0.  1.
         12    1    3    3    0    0  0.14972717178E+02 -0.13146577203E+02  0.33869355883E+02  0.39295648866E+02  0.00000000000E+00 0. -1.
</event>
<event>
 7    1  0.1935465E-015  0.9000774E+02  0.7816164E-02  0.1186339E+00
        -11   -1    0    0    0    0  0.00000000000E+00  0.00000000000E+00  0.45593999997E+02  0.45594000000E+02  0.51100000000E-03 0.  1.
         11   -1    0    0    0    0 -0.00000000000E+00 -0.00000000000E+00 -0.45593999997E+02  0.45594000000E+02  0.51100000000E-03 0. -1.
    9900012    2    1    2    0    0  0.12953796495E+00  0.94420274450E+00  0.69621588449E+00  0.90007739239E+02  0.90000000597E+02 0.  0.
         12    1    1    2    0    0 -0.12953796495E+00 -0.94420274450E+00 -0.69621588449E+00  0.11802607614E+01  0.00000000000E+00 0. -1.
         11    1    3    3    0    0  0.36706621495E+02  0.15680437976E+02 -0.13939869449E+02  0.42279689654E+02  0.51100000000E-03 0. -1.
        -11    1    3    3    0    0  0.60466788751E+00 -0.73899833051E+01  0.36682780420E+01  0.82724688309E+01  0.51100000000E-03 0.  1.
        -12    1    3    3    0    0 -0.37181751418E+02 -0.73462519267E+01  0.10967807291E+02  0.39455580754E+02  0.00000000000E+00 0.  1.
</event>
<event>
 7    1  0.1935465E-015  0.9000750E+02  0.7816164E-02  0.1186340E+00
        -11   -1    0    0    0    0  0.00000000000E+00  0.00000000000E+00  0.45593999997E+02  0.45594000000E+02  0.51100000000E-03 0.  1.
         11   -1    0    0    0    0 -0.00000000000E+00 -0.00000000000E+00 -0.45593999997E+02  0.45594000000E+02  0.51100000000E-03 0. -1.
    9900012    2    1    2    0    0 -0.99641038782E+00 -0.52472819536E+00 -0.35412083976E+00  0.90007502262E+02  0.89999760492E+02 0.  0.
         12    1    1    2    0    0  0.99641038782E+00  0.52472819536E+00  0.35412083976E+00  0.11804977379E+01  0.00000000000E+00 0. -1.
         11    1    3    3    0    0  0.35223067180E+02 -0.34066046255E+01  0.64383422725E+00  0.35393275341E+02  0.51100000000E-03 0. -1.
        -11    1    3    3    0    0 -0.12250147008E+02  0.16848739393E+02 -0.12818299619E+02  0.24459250320E+02  0.51100000000E-03 0.  1.
        -12    1    3    3    0    0 -0.23969330559E+02 -0.13966862962E+02  0.11820344552E+02  0.30154976601E+02  0.00000000000E+00 0.  1.
</event>
<event>
 7    1  0.1935465E-015  0.9000786E+02  0.7816164E-02  0.1186339E+00
        -11   -1    0    0    0    0  0.00000000000E+00  0.00000000000E+00  0.45593999997E+02  0.45594000000E+02  0.51100000000E-03 0. -1.
         11   -1    0    0    0    0 -0.00000000000E+00 -0.00000000000E+00 -0.45593999997E+02  0.45594000000E+02  0.51100000000E-03 0.  1.
    9900012    2    1    2    0    0  0.23263131853E+00  0.10419384437E+01  0.50297789190E+00  0.90007856021E+02  0.90000118921E+02 0.  0.
         12    1    1    2    0    0 -0.23263131853E+00 -0.10419384437E+01 -0.50297789190E+00  0.11801439788E+01  0.00000000000E+00 0. -1.
         11    1    3    3    0    0  0.14727782193E+02  0.17718323426E+02  0.35896819248E+02  0.42654755722E+02  0.51100000000E-03 0. -1.
        -11    1    3    3    0    0 -0.47730736861E+00 -0.12451024752E+02 -0.46471842588E+01  0.13298577424E+02  0.51100000000E-03 0.  1.
        -12    1    3    3    0    0 -0.14017843506E+02 -0.42253602303E+01 -0.30746657097E+02  0.34054522875E+02  0.00000000000E+00 0.  1.
</event>
<event>
 7    1  0.2285994E-015  0.9000776E+02  0.7816164E-02  0.1186339E+00
        -11   -1    0    0    0    0  0.00000000000E+00  0.00000000000E+00  0.45593999997E+02  0.45594000000E+02  0.51100000000E-03 0.  1.
         11   -1    0    0    0    0 -0.00000000000E+00 -0.00000000000E+00 -0.45593999997E+02  0.45594000000E+02  0.51100000000E-03 0. -1.
    9900012    2    1    2    0    0  0.33774041204E+00 -0.58279976878E+00  0.96914456966E+00  0.90007760468E+02  0.90000022106E+02 0.  0.
         12    1    1    2    0    0 -0.33774041204E+00  0.58279976878E+00 -0.96914456966E+00  0.11802395322E+01  0.00000000000E+00 0. -1.
         11    1    3    3    0    0 -0.29268853667E+01 -0.73950026689E+01  0.54391566947E+01  0.96352035907E+01  0.51100000000E-03 0. -1.
        -11    1    3    3    0    0 -0.17154915597E+02 -0.13892677209E+01  0.32828543223E+02  0.37066621702E+02  0.51100000000E-03 0.  1.
         12    1    3    3    0    0  0.20419541376E+02  0.82014706211E+01 -0.37298555348E+02  0.43305935175E+02  0.00000000000E+00 0. -1.
</event>
<event>
 7    1  0.1935465E-015  0.9000773E+02  0.7816164E-02  0.1186339E+00
        -11   -1    0    0    0    0  0.00000000000E+00  0.00000000000E+00  0.45593999997E+02  0.45594000000E+02  0.51100000000E-03 0.  1.
         11   -1    0    0    0    0 -0.00000000000E+00 -0.00000000000E+00 -0.45593999997E+02  0.45594000000E+02  0.51100000000E-03 0. -1.
    9900012    2    1    2    0    0 -0.59523829021E+00  0.10010337613E+01 -0.19146601904E+00  0.90007730349E+02  0.89999991589E+02 0.  0.
         12    1    1    2    0    0  0.59523829021E+00 -0.10010337613E+01  0.19146601904E+00  0.11802696513E+01  0.00000000000E+00 0. -1.
         11    1    3    3    0    0 -0.14553783157E+02 -0.33095345125E+02 -0.17098896325E+02  0.39993583597E+02  0.51100000000E-03 0. -1.
        -11    1    3    3    0    0 -0.32299476188E+01  0.65455550679E+01 -0.66675102428E+01  0.98859772337E+01  0.51100000000E-03 0.  1.
        -12    1    3    3    0    0  0.17188492486E+02  0.27550823818E+02  0.23574940549E+02  0.40128169518E+02  0.00000000000E+00 0.  1.
</event>
<event>
 7    1  0.1935465E-015  0.9000775E+02  0.7816164E-02  0.1186339E+00
        -11   -1    0    0    0    0  0.00000000000E+00  0.00000000000E+00  0.45593999997E+02  0.45594000000E+02  0.51100000000E-03 0. -1.
         11   -1    0    0    0    0 -0.00000000000E+00 -0.00000000000E+00 -0.45593999997E+02  0.45594000000E+02  0.51100000000E-03 0.  1.
    9900012    2    1    2    0    0  0.12691584841E+00  0.79336366837E+00  0.86456056352E+00  0.90007746421E+02  0.90000007874E+02 0.  0.
         12    1    1    2    0    0 -0.12691584841E+00 -0.79336366837E+00 -0.86456056352E+00  0.11802535790E+01  0.00000000000E+00 0. -1.
         11    1    3    3    0    0 -0.45634337960E+01 -0.80940095128E+01 -0.35005575763E+00  0.92984115471E+01  0.51100000000E-03 0. -1.
        -11    1    3    3    0    0 -0.55510711778E+01 -0.20566703525E+02 -0.29863886437E+02  0.36683175960E+02  0.51100000000E-03 0.  1.
         12    1    3    3    0    0  0.10241420822E+02  0.29454076706E+02  0.31078502758E+02  0.44026158914E+02  0.00000000000E+00 0. -1.
</event>
<event>
 7    1  0.1935465E-015  0.9000751E+02  0.7816164E-02  0.1186340E+00
        -11   -1    0    0    0    0  0.00000000000E+00  0.00000000000E+00  0.45593999997E+02  0.45594000000E+02  0.51100000000E-03 0. -1.
         11   -1    0    0    0    0 -0.00000000000E+00 -0.00000000000E+00 -0.45593999997E+02  0.45594000000E+02  0.51100000000E-03 0.  1.
    9900012    2    1    2    0    0  0.84940029921E+00 -0.66370862197E+00 -0.48120921672E+00  0.90007511833E+02  0.89999770188E+02 0.  0.
         12    1    1    2    0    0 -0.84940029921E+00  0.66370862197E+00  0.48120921672E+00  0.11804881674E+01  0.00000000000E+00 0. -1.
         11    1    3    3    0    0 -0.92828202672E+01 -0.51260354270E+01 -0.16924903123E+01  0.10738319935E+02  0.51100000000E-03 0. -1.
        -11    1    3    3    0    0 -0.26292750531E+02 -0.19611998569E+02 -0.98115436244E+01  0.34237488327E+02  0.51100000000E-03 0.  1.
         12    1    3    3    0    0  0.36424971098E+02  0.24074325374E+02  0.11022824720E+02  0.45031703571E+02  0.00000000000E+00 0. -1.
</event>
<event>
 7    1  0.1935465E-015  0.9000763E+02  0.7816164E-02  0.1186339E+00
        -11   -1    0    0    0    0  0.00000000000E+00  0.00000000000E+00  0.45593999997E+02  0.45594000000E+02  0.51100000000E-03 0. -1.
         11   -1    0    0    0    0 -0.00000000000E+00 -0.00000000000E+00 -0.45593999997E+02  0.45594000000E+02  0.51100000000E-03 0.  1.
    9900012    2    1    2    0    0 -0.26355857349E+00 -0.34176926938E+00 -0.10986417655E+01  0.90007625871E+02  0.89999885733E+02 0.  0.
         12    1    1    2    0    0  0.26355857349E+00  0.34176926938E+00  0.10986417655E+01  0.11803741289E+01  0.00000000000E+00 0. -1.
         11    1    3    3    0    0 -0.60182782418E+01  0.10104625013E+01 -0.67198516069E+01  0.90772855712E+01  0.51100000000E-03 0. -1.
        -11    1    3    3    0    0 -0.31079430321E+02  0.16595269045E+01 -0.19053841862E+02  0.36492929570E+02  0.51100000000E-03 0.  1.
         12    1    3    3    0    0  0.36834149990E+02 -0.30117586751E+01  0.24675051703E+02  0.44437410730E+02  0.00000000000E+00 0. -1.
</event>
<event>
 7    1  0.1935465E-015  0.9000776E+02  0.7816164E-02  0.1186339E+00
        -11   -1    0    0    0    0  0.00000000000E+00  0.00000000000E+00  0.45593999997E+02  0.45594000000E+02  0.51100000000E-03 0.  1.
         11   -1    0    0    0    0 -0.00000000000E+00 -0.00000000000E+00 -0.45593999997E+02  0.45594000000E+02  0.51100000000E-03 0. -1.
    9900012    2    1    2    0    0 -0.78599208907E+00  0.18742494919E+00  0.86025876467E+00  0.90007764084E+02  0.90000025770E+02 0.  0.
         12    1    1    2    0    0  0.78599208907E+00 -0.18742494919E+00 -0.86025876467E+00  0.11802359162E+01  0.00000000000E+00 0. -1.
         11    1    3    3    0    0 -0.15904715320E+01 -0.16742297474E+01  0.89645062352E+01  0.92571603229E+01  0.51100000000E-03 0. -1.
        -11    1    3    3    0    0  0.97724459887E+00 -0.37990785216E+02  0.60030897785E+01  0.38474561147E+02  0.51100000000E-03 0.  1.
         12    1    3    3    0    0 -0.17276515596E+00  0.39852439913E+02 -0.14107337249E+02  0.42276042613E+02  0.00000000000E+00 0. -1.
</event>
<event>
 7    1  0.1935465E-015  0.9000776E+02  0.7816164E-02  0.1186339E+00
        -11   -1    0    0    0    0  0.00000000000E+00  0.00000000000E+00  0.45593999997E+02  0.45594000000E+02  0.51100000000E-03 0. -1.
         11   -1    0    0    0    0 -0.00000000000E+00 -0.00000000000E+00 -0.45593999997E+02  0.45594000000E+02  0.51100000000E-03 0.  1.
    9900012    2    1    2    0    0 -0.37248349810E+00 -0.74297173471E+00  0.83798408461E+00  0.90007759228E+02  0.90000020849E+02 0.  0.
         12    1    1    2    0    0  0.37248349810E+00  0.74297173471E+00 -0.83798408461E+00  0.11802407725E+01  0.00000000000E+00 0. -1.
         11    1    3    3    0    0 -0.23027970114E+02 -0.20233382797E+02  0.24911155073E+02  0.39499909295E+02  0.51100000000E-03 0. -1.
        -11    1    3    3    0    0  0.48672147521E+01 -0.85708654600E+01 -0.69132565400E+00  0.98806601803E+01  0.51100000000E-03 0.  1.
        -12    1    3    3    0    0  0.17788271864E+02  0.28061276522E+02 -0.23381845334E+02  0.40627189752E+02  0.00000000000E+00 0.  1.
</event>
<event>
 7    1  0.1935465E-015  0.9000776E+02  0.7816164E-02  0.1186339E+00
        -11   -1    0    0    0    0  0.00000000000E+00  0.00000000000E+00  0.45593999997E+02  0.45594000000E+02  0.51100000000E-03 0.  1.
         11   -1    0    0    0    0 -0.00000000000E+00 -0.00000000000E+00 -0.45593999997E+02  0.45594000000E+02  0.51100000000E-03 0. -1.
    9900012    2    1    2    0    0 -0.49455345244E+00  0.10477633859E+01 -0.22487656325E+00  0.90007762440E+02  0.90000024104E+02 0.  0.
         12    1    1    2    0    0  0.49455345244E+00 -0.10477633859E+01  0.22487656325E+00  0.11802375604E+01  0.00000000000E+00 0. -1.
         11    1    3    3    0    0 -0.27237067695E+02 -0.12123124730E+02 -0.21598914431E+02  0.36814957758E+02  0.51100000000E-03 0. -1.
        -11    1    3    3    0    0 -0.10029871485E+02  0.24428530830E+01  0.33014958175E+01  0.10838160734E+02  0.51100000000E-03 0.  1.
        -12    1    3    3    0    0  0.36772385728E+02  0.10728035033E+02  0.18072542051E+02  0.42354643948E+02  0.00000000000E+00 0.  1.
</event>
<event>
 7    1  0.1935465E-015  0.9000769E+02  0.7816164E-02  0.1186339E+00
        -11   -1    0    0    0    0  0.00000000000E+00  0.00000000000E+00  0.45593999997E+02  0.45594000000E+02  0.51100000000E-03 0.  1.
         11   -1    0    0    0    0 -0.00000000000E+00 -0.00000000000E+00 -0.45593999997E+02  0.45594000000E+02  0.51100000000E-03 0. -1.
    9900012    2    1    2    0    0 -0.60721246744E+00 -0.95755741327E+00  0.32788619700E+00  0.90007689643E+02  0.89999950346E+02 0.  0.
         12    1    1    2    0    0  0.60721246744E+00  0.95755741327E+00 -0.32788619700E+00  0.11803103569E+01  0.00000000000E+00 0. -1.
         11    1    3    3    0    0  0.56526441145E+01  0.23085017173E+01  0.44221613738E+01  0.75390368842E+01  0.51100000000E-03 0. -1.
        -11    1    3    3    0    0  0.95224998736E+01 -0.40430481482E+02 -0.63964826085E+01  0.42026382508E+02  0.51100000000E-03 0.  1.
         12    1    3    3    0    0 -0.15782356456E+02  0.37164422351E+02  0.23022074317E+01  0.40442270251E+02  0.00000000000E+00 0. -1.
</event>
<event>
 7    1  0.1935465E-015  0.9000776E+02  0.7816164E-02  0.1186339E+00
        -11   -1    0    0    0    0  0.00000000000E+00  0.00000000000E+00  0.45593999997E+02  0.45594000000E+02  0.51100000000E-03 0.  1.
         11   -1    0    0    0    0 -0.00000000000E+00 -0.00000000000E+00 -0.45593999997E+02  0.45594000000E+02  0.51100000000E-03 0. -1.
    9900012    2    1    2    0    0  0.98098662902E+00  0.51853460642E+00  0.40217301943E+00  0.90007764413E+02  0.90000026103E+02 0.  0.
         12    1    1    2    0    0 -0.98098662902E+00 -0.51853460642E+00 -0.40217301943E+00  0.11802355875E+01  0.00000000000E+00 0. -1.
         11    1    3    3    0    0  0.10111771928E+01  0.11838836348E+02 -0.32811571509E+01  0.12326658830E+02  0.51100000000E-03 0. -1.
        -11    1    3    3    0    0  0.75013797149E+01  0.29713675704E+02  0.15469203237E+02  0.34328843129E+02  0.51100000000E-03 0.  1.
         12    1    3    3    0    0 -0.75315702787E+01 -0.41033977446E+02 -0.11785873067E+02  0.43352262454E+02  0.00000000000E+00 0. -1.
</event>
<event>
 7    1  0.1935465E-015  0.9000773E+02  0.7816164E-02  0.1186339E+00
        -11   -1    0    0    0    0  0.00000000000E+00  0.00000000000E+00  0.45593999997E+02  0.45594000000E+02  0.51100000000E-03 0. -1.
         11   -1    0    0    0    0 -0.00000000000E+00 -0.00000000000E+00 -0.45593999997E+02  0.45594000000E+02  0.51100000000E-03 0.  1.
    9900012    2    1    2    0    0 -0.36583747038E+00  0.52176069738E+00 -0.99346205243E+00  0.90007729637E+02  0.89999990868E+02 0.  0.
         12    1    1    2    0    0  0.36583747038E+00 -0.52176069738E+00  0.99346205243E+00  0.11802703630E+01  0.00000000000E+00 0. -1.
         11    1    3    3    0    0 -0.16399156594E+02 -0.28902944091E+02  0.16603905455E+02  0.37148380728E+02  0.51100000000E-03 0. -1.
        -11    1    3    3    0    0 -0.41242344317E+01 -0.43875480642E+01  0.46814120428E+01  0.76272869776E+01  0.51100000000E-03 0.  1.
        -12    1    3    3    0    0  0.20157553555E+02  0.33812252853E+02 -0.22278779550E+02  0.45232061931E+02  0.00000000000E+00 0.  1.
</event>
<event>
 7    1  0.1935465E-015  0.9000778E+02  0.7816164E-02  0.1186339E+00
        -11   -1    0    0    0    0  0.00000000000E+00  0.00000000000E+00  0.45593999997E+02  0.45594000000E+02  0.51100000000E-03 0.  1.
         11   -1    0    0    0    0 -0.00000000000E+00 -0.00000000000E+00 -0.45593999997E+02  0.45594000000E+02  0.51100000000E-03 0. -1.
    9900012    2    1    2    0    0 -0.58791039202E+00 -0.89353562767E+00  0.49887193268E+00  0.90007780634E+02  0.90000042538E+02 0.  0.
         12    1    1    2    0    0  0.58791039202E+00  0.89353562767E+00 -0.49887193268E+00  0.11802193661E+01  0.00000000000E+00 0. -1.
         11    1    3    3    0    0 -0.60519250738E+01  0.86937687377E-01  0.61823525266E+01  0.86518690631E+01  0.51100000000E-03 0. -1.
        -11    1    3    3    0    0  0.79699706111E+00  0.39040664757E+02  0.57569217110E+01  0.39470886192E+02  0.51100000000E-03 0.  1.
         12    1    3    3    0    0  0.46670176207E+01 -0.40021138072E+02 -0.11440402305E+02  0.41885025378E+02  0.00000000000E+00 0. -1.
</event>
<event>
 7    1  0.1935465E-015  0.9000781E+02  0.7816164E-02  0.1186339E+00
        -11   -1    0    0    0    0  0.00000000000E+00  0.00000000000E+00  0.45593999997E+02  0.45594000000E+02  0.51100000000E-03 0.  1.
         11   -1    0    0    0    0 -0.00000000000E+00 -0.00000000000E+00 -0.45593999997E+02  0.45594000000E+02  0.51100000000E-03 0. -1.
    9900012    2    1    2    0    0 -0.67254201997E+00  0.71192650459E+00  0.65856164459E+00  0.90007806983E+02  0.90000069236E+02 0.  0.
         12    1    1    2    0    0  0.67254201997E+00 -0.71192650459E+00 -0.65856164459E+00  0.11801930165E+01  0.00000000000E+00 0. -1.
         11    1    3    3    0    0 -0.32455624293E+02  0.21144255945E+02 -0.12687388182E+02  0.40760482417E+02  0.51100000000E-03 0. -1.
        -11    1    3    3    0    0  0.87816185161E+01  0.48559597707E+01 -0.41341918378E+01  0.10853050791E+02  0.51100000000E-03 0.  1.
        -12    1    3    3    0    0  0.23001463757E+02 -0.25288289211E+02  0.17480141665E+02  0.38394273776E+02  0.00000000000E+00 0.  1.
</event>
<event>
 7    1  0.1935465E-015  0.9000784E+02  0.7816164E-02  0.1186339E+00
        -11   -1    0    0    0    0  0.00000000000E+00  0.00000000000E+00  0.45593999997E+02  0.45594000000E+02  0.51100000000E-03 0.  1.
         11   -1    0    0    0    0 -0.00000000000E+00 -0.00000000000E+00 -0.45593999997E+02  0.45594000000E+02  0.51100000000E-03 0. -1.
    9900012    2    1    2    0    0  0.11687802445E+01  0.16307175355E+00 -0.12093509398E-01  0.90007836490E+02  0.90000099132E+02 0.  0.
         12    1    1    2    0    0 -0.11687802445E+01 -0.16307175355E+00  0.12093509398E-01  0.11801635098E+01  0.00000000000E+00 0. -1.
         11    1    3    3    0    0 -0.27066092937E+02 -0.21114678095E+02  0.19839282766E+02  0.39648457207E+02  0.51100000000E-03 0. -1.
        -11    1    3    3    0    0 -0.22533495960E+01  0.87856157353E+01  0.37661763248E+01  0.98208305464E+01  0.51100000000E-03 0.  1.
        -12    1    3    3    0    0  0.30488222778E+02  0.12492134113E+02 -0.23617552601E+02  0.40538548737E+02  0.00000000000E+00 0.  1.
</event>
<event>
 7    1  0.1935465E-015  0.9000769E+02  0.7816164E-02  0.1186339E+00
        -11   -1    0    0    0    0  0.00000000000E+00  0.00000000000E+00  0.45593999997E+02  0.45594000000E+02  0.51100000000E-03 0. -1.
         11   -1    0    0    0    0 -0.00000000000E+00 -0.00000000000E+00 -0.45593999997E+02  0.45594000000E+02  0.51100000000E-03 0.  1.
    9900012    2    1    2    0    0 -0.75070262830E+00 -0.55093265658E+00 -0.72529729113E+00  0.90007687589E+02  0.89999948265E+02 0.  0.
         12    1    1    2    0    0  0.75070262830E+00  0.55093265658E+00  0.72529729113E+00  0.11803124115E+01  0.00000000000E+00 0. -1.
         11    1    3    3    0    0  0.25658288679E+01 -0.10840337839E+02  0.23605465365E+01  0.11387211356E+02  0.51100000000E-03 0. -1.
        -11    1    3    3    0    0 -0.30815587973E+02 -0.16342031735E+01 -0.26429357746E+02  0.40629817047E+02  0.51100000000E-03 0.  1.
         12    1    3    3    0    0  0.27499056477E+02  0.11923608356E+02  0.23343513918E+02  0.37990659186E+02  0.00000000000E+00 0. -1.
</event>
<event>
 7    1  0.1935465E-015  0.9000769E+02  0.7816164E-02  0.1186339E+00
        -11   -1    0    0    0    0  0.00000000000E+00  0.00000000000E+00  0.45593999997E+02  0.45594000000E+02  0.51100000000E-03 0. -1.
         11   -1    0    0    0    0 -0.00000000000E+00 -0.00000000000E+00 -0.45593999997E+02  0.45594000000E+02  0.51100000000E-03 0.  1.
    9900012    2    1    2    0    0 -0.96391839013E+00 -0.11345775424E+00  0.67165372971E+00  0.90007690694E+02  0.89999951411E+02 0.  0.
         12    1    1    2    0    0  0.96391839013E+00  0.11345775424E+00 -0.67165372971E+00  0.11803093059E+01  0.00000000000E+00 0. -1.
         11    1    3    3    0    0  0.33913141626E+01  0.24065486890E+02 -0.34903239131E+02  0.42530986035E+02  0.51100000000E-03 0. -1.
        -11    1    3    3    0    0 -0.59400750931E+01 -0.83221061025E+01  0.21512168807E+01  0.10448429376E+02  0.51100000000E-03 0.  1.
        -12    1    3    3    0    0  0.15848425404E+01 -0.15856838542E+02  0.33423675980E+02  0.37028275283E+02  0.00000000000E+00 0.  1.
</event>
<event>
 7    1  0.1935465E-015  0.9000766E+02  0.7816164E-02  0.1186339E+00
        -11   -1    0    0    0    0  0.00000000000E+00  0.00000000000E+00  0.45593999997E+02  0.45594000000E+02  0.51100000000E-03 0.  1.
         11   -1    0    0    0    0 -0.00000000000E+00 -0.00000000000E+00 -0.45593999997E+02  0.45594000000E+02  0.51100000000E-03 0. -1.
    9900012    2    1    2    0    0 -0.20060858083E+00 -0.82979681983E+00  0.81509839607E+00  0.90007664471E+02  0.89999924842E+02 0.  0.
         12    1    1    2    0    0  0.20060858083E+00  0.82979681983E+00 -0.81509839607E+00  0.11803355286E+01  0.00000000000E+00 0. -1.
         11    1    3    3    0    0 -0.26087767796E+01  0.31177714748E+01 -0.96928856324E+01  0.10510863304E+02  0.51100000000E-03 0. -1.
        -11    1    3    3    0    0  0.14492271906E+02 -0.27373944304E+02 -0.21743586645E+02  0.37843656433E+02  0.51100000000E-03 0.  1.
         12    1    3    3    0    0 -0.12084103707E+02  0.23426376010E+02  0.32251570673E+02  0.41653144734E+02  0.00000000000E+00 0. -1.
</event>
<event>
 7    1  0.1935465E-015  0.9000851E+02  0.7816164E-02  0.1186337E+00
        -11   -1    0    0    0    0  0.00000000000E+00  0.00000000000E+00  0.45593999997E+02  0.45594000000E+02  0.51100000000E-03 0. -1.
         11   -1    0    0    0    0 -0.00000000000E+00 -0.00000000000E+00 -0.45593999997E+02  0.45594000000E+02  0.51100000000E-03 0.  1.
    9900012    2    1    2    0    0  0.62976891888E+00 -0.66125912204E+00 -0.74653446954E+00  0.90008514421E+02  0.90000786008E+02 0.  0.
         12    1    1    2    0    0 -0.62976891888E+00  0.66125912204E+00  0.74653446954E+00  0.11794855793E+01  0.00000000000E+00 0. -1.
         11    1    3    3    0    0 -0.56621930350E+01  0.76423962619E+01  0.10999254037E+01  0.95747839006E+01  0.51100000000E-03 0. -1.
        -11    1    3    3    0    0  0.21859053149E+02  0.27093289311E+02 -0.17198966105E+02  0.38828713159E+02  0.51100000000E-03 0.  1.
         12    1    3    3    0    0 -0.15567091195E+02 -0.35396944695E+02  0.15352506232E+02  0.41605017361E+02  0.00000000000E+00 0. -1.
</event>
<event>
 7    1  0.1935465E-015  0.9000769E+02  0.7816164E-02  0.1186339E+00
        -11   -1    0    0    0    0  0.00000000000E+00  0.00000000000E+00  0.45593999997E+02  0.45594000000E+02  0.51100000000E-03 0.  1.
         11   -1    0    0    0    0 -0.00000000000E+00 -0.00000000000E+00 -0.45593999997E+02  0.45594000000E+02  0.51100000000E-03 0. -1.
    9900012    2    1    2    0    0 -0.11796430188E+01  0.28549822355E-02  0.39681251421E-01  0.90007686311E+02  0.89999946970E+02 0.  0.
         12    1    1    2    0    0  0.11796430188E+01 -0.28549822355E-02 -0.39681251421E-01  0.11803136890E+01  0.00000000000E+00 0. -1.
         11    1    3    3    0    0 -0.46716826707E+00  0.38235560831E+01  0.14806505410E+02  0.15299360445E+02  0.51100000000E-03 0. -1.
        -11    1    3    3    0    0 -0.88114170371E+01 -0.36973628783E+02 -0.14202347919E+02  0.40575817703E+02  0.51100000000E-03 0.  1.
         12    1    3    3    0    0  0.80989422853E+01  0.33152927683E+02 -0.56447623889E+00  0.34132508163E+02  0.00000000000E+00 0. -1.
</event>
<event>
 7    1  0.1935465E-015  0.9000774E+02  0.7816164E-02  0.1186339E+00
        -11   -1    0    0    0    0  0.00000000000E+00  0.00000000000E+00  0.45593999997E+02  0.45594000000E+02  0.51100000000E-03 0.  1.
         11   -1    0    0    0    0 -0.00000000000E+00 -0.00000000000E+00 -0.45593999997E+02  0.45594000000E+02  0.51100000000E-03 0. -1.
    9900012    2    1    2    0    0 -0.71846636536E+00 -0.57392210746E+00  0.73988889540E+00  0.90007738978E+02  0.90000000332E+02 0.  0.
         12    1    1    2    0    0  0.71846636536E+00  0.57392210746E+00 -0.73988889540E+00  0.11802610225E+01  0.00000000000E+00 0. -1.
         11    1    3    3    0    0  0.84871538493E+01  0.11903119783E+01  0.64579363576E+01  0.10730962926E+02  0.51100000000E-03 0. -1.
        -11    1    3    3    0    0 -0.28272089504E+02 -0.32033293217E+02 -0.78474931789E+01  0.43439913313E+02  0.51100000000E-03 0.  1.
         12    1    3    3    0    0  0.19066469289E+02  0.30269059131E+02  0.21294457167E+01  0.35836862738E+02  0.00000000000E+00 0. -1.
</event>
<event>
 7    1  0.1935465E-015  0.9000772E+02  0.7816164E-02  0.1186339E+00
        -11   -1    0    0    0    0  0.00000000000E+00  0.00000000000E+00  0.45593999997E+02  0.45594000000E+02  0.51100000000E-03 0.  1.
         11   -1    0    0    0    0 -0.00000000000E+00 -0.00000000000E+00 -0.45593999997E+02  0.45594000000E+02  0.51100000000E-03 0. -1.
    9900012    2    1    2    0    0 -0.66681126825E+00 -0.43365887295E+00  0.87198217291E+00  0.90007724526E+02  0.89999985689E+02 0.  0.
         12    1    1    2    0    0  0.66681126825E+00  0.43365887295E+00 -0.87198217291E+00  0.11802754744E+01  0.00000000000E+00 0. -1.
         11    1    3    3    0    0  0.46684840867E+01  0.24001735216E+01  0.65111072726E+01  0.83636173261E+01  0.51100000000E-03 0. -1.
        -11    1    3    3    0    0 -0.11152149368E+02  0.27261432134E+02  0.24756399167E+02  0.38476426777E+02  0.51100000000E-03 0.  1.
         12    1    3    3    0    0  0.58168540135E+01 -0.30095264529E+02 -0.30395524266E+02  0.43167680423E+02  0.00000000000E+00 0. -1.
</event>
<event>
 7    1  0.1935465E-015  0.9000777E+02  0.7816164E-02  0.1186339E+00
        -11   -1    0    0    0    0  0.00000000000E+00  0.00000000000E+00  0.45593999997E+02  0.45594000000E+02  0.51100000000E-03 0.  1.
         11   -1    0    0    0    0 -0.00000000000E+00 -0.00000000000E+00 -0.45593999997E+02  0.45594000000E+02  0.51100000000E-03 0. -1.
    9900012    2    1    2    0    0 -0.89820190576E-01  0.10662159459E+01  0.49804375230E+00  0.90007774729E+02  0.90000036556E+02 0.  0.
         12    1    1    2    0    0  0.89820190576E-01 -0.10662159459E+01 -0.49804375230E+00  0.11802252705E+01  0.00000000000E+00 0. -1.
         11    1    3    3    0    0 -0.19810316369E+02  0.28182972967E+02 -0.11452488252E+02  0.36302728373E+02  0.51100000000E-03 0. -1.
        -11    1    3    3    0    0  0.45894553933E+01  0.10448261158E+02 -0.23299110271E+00  0.11414181843E+02  0.51100000000E-03 0.  1.
        -12    1    3    3    0    0  0.15131040785E+02 -0.37565018179E+02  0.12183523107E+02  0.42290864514E+02  0.00000000000E+00 0.  1.
</event>
<event>
 7    1  0.1935465E-015  0.9000772E+02  0.7816164E-02  0.1186339E+00
        -11   -1    0    0    0    0  0.00000000000E+00  0.00000000000E+00  0.45593999997E+02  0.45594000000E+02  0.51100000000E-03 0.  1.
         11   -1    0    0    0    0 -0.00000000000E+00 -0.00000000000E+00 -0.45593999997E+02  0.45594000000E+02  0.51100000000E-03 0. -1.
    9900012    2    1    2    0    0  0.36562226072E+00  0.10071490682E+01  0.49501180381E+00  0.90007718013E+02  0.89999979091E+02 0.  0.
         12    1    1    2    0    0 -0.36562226072E+00 -0.10071490682E+01 -0.49501180381E+00  0.11802819871E+01  0.00000000000E+00 0. -1.
         11    1    3    3    0    0 -0.34754076065E+01  0.68957659372E+01 -0.90225866717E+01  0.11875904867E+02  0.51100000000E-03 0. -1.
        -11    1    3    3    0    0  0.76916025466E+01  0.29307301776E+02  0.25198644922E+02  0.39408760362E+02  0.51100000000E-03 0.  1.
         12    1    3    3    0    0 -0.38505726794E+01 -0.35195918645E+02 -0.15681046447E+02  0.38723052784E+02  0.00000000000E+00 0. -1.
</event>
<event>
 7    1  0.1935465E-015  0.9000773E+02  0.7816164E-02  0.1186339E+00
        -11   -1    0    0    0    0  0.00000000000E+00  0.00000000000E+00  0.45593999997E+02  0.45594000000E+02  0.51100000000E-03 0. -1.
         11   -1    0    0    0    0 -0.00000000000E+00 -0.00000000000E+00 -0.45593999997E+02  0.45594000000E+02  0.51100000000E-03 0.  1.
    9900012    2    1    2    0    0  0.11230851157E+01  0.32819137842E+00 -0.15495296037E+00  0.90007728769E+02  0.89999989989E+02 0.  0.
         12    1    1    2    0    0 -0.11230851157E+01 -0.32819137842E+00  0.15495296037E+00  0.11802712307E+01  0.00000000000E+00 0. -1.
         11    1    3    3    0    0  0.88634131556E+01 -0.93623490746E+01 -0.37744914858E+01  0.13433557206E+02  0.51100000000E-03 0. -1.
        -11    1    3    3    0    0 -0.43760433752E+01  0.11336290094E+02 -0.35373087267E+02  0.37402092612E+02  0.51100000000E-03 0.  1.
         12    1    3    3    0    0 -0.33642846647E+01 -0.16457496411E+01  0.38992625792E+02  0.39172078951E+02  0.00000000000E+00 0. -1.
</event>
<event>
 7    1  0.1935465E-015  0.9000777E+02  0.7816164E-02  0.1186339E+00
        -11   -1    0    0    0    0  0.00000000000E+00  0.00000000000E+00  0.45593999997E+02  0.45594000000E+02  0.51100000000E-03 0. -1.
         11   -1    0    0    0    0 -0.00000000000E+00 -0.00000000000E+00 -0.45593999997E+02  0.45594000000E+02  0.51100000000E-03 0.  1.
    9900012    2    1    2    0    0 -0.33453790082E-01 -0.92037787528E+00 -0.73805010979E+00  0.90007774363E+02  0.90000036185E+02 0.  0.
         12    1    1    2    0    0  0.33453790082E-01  0.92037787528E+00  0.73805010979E+00  0.11802256369E+01  0.00000000000E+00 0. -1.
         11    1    3    3    0    0 -0.13001743111E+02  0.25280595395E+02  0.18698657288E+02  0.34026366425E+02  0.51100000000E-03 0. -1.
        -11    1    3    3    0    0  0.16298179080E+02  0.40886320021E+01  0.43122689019E+01  0.17347715017E+02  0.51100000000E-03 0.  1.
        -12    1    3    3    0    0 -0.33298897590E+01 -0.30289605272E+02 -0.23748976300E+02  0.38633692920E+02  0.00000000000E+00 0.  1.
</event>
<event>
 7    1  0.5491770E-015  0.9000773E+02  0.7816164E-02  0.1186339E+00
        -11   -1    0    0    0    0  0.00000000000E+00  0.00000000000E+00  0.45593999997E+02  0.45594000000E+02  0.51100000000E-03 0.  1.
         11   -1    0    0    0    0 -0.00000000000E+00 -0.00000000000E+00 -0.45593999997E+02  0.45594000000E+02  0.51100000000E-03 0. -1.
    9900012    2    1    2    0    0 -0.17969431350E+00  0.48630499337E+00  0.10603047508E+01  0.90007733607E+02  0.89999994891E+02 0.  0.
         12    1    1    2    0    0  0.17969431350E+00 -0.48630499337E+00 -0.10603047508E+01  0.11802663926E+01  0.00000000000E+00 0. -1.
         11    1    3    3    0    0 -0.58801979734E+01 -0.44346313923E+01  0.62539917725E+01  0.96620441493E+01  0.51100000000E-03 0. -1.
        -11    1    3    3    0    0 -0.37481927090E-01 -0.12445870932E+02  0.34480785793E+02  0.36658228235E+02  0.51100000000E-03 0.  1.
         12    1    3    3    0    0  0.57379855870E+01  0.17366807318E+02 -0.39674472815E+02  0.43687461223E+02  0.00000000000E+00 0. -1.
</event>
<event>
 7    1  0.1935465E-015  0.9000777E+02  0.7816164E-02  0.1186339E+00
        -11   -1    0    0    0    0  0.00000000000E+00  0.00000000000E+00  0.45593999997E+02  0.45594000000E+02  0.51100000000E-03 0. -1.
         11   -1    0    0    0    0 -0.00000000000E+00 -0.00000000000E+00 -0.45593999997E+02  0.45594000000E+02  0.51100000000E-03 0.  1.
    9900012    2    1    2    0    0 -0.25353718457E+00 -0.10896116357E+01 -0.37603880872E+00  0.90007771291E+02  0.90000033072E+02 0.  0.
         12    1    1    2    0    0  0.25353718457E+00  0.10896116357E+01  0.37603880872E+00  0.11802287093E+01  0.00000000000E+00 0. -1.
         11    1    3    3    0    0  0.10128000073E+02 -0.19915108504E+02  0.24268842920E+02  0.32987341044E+02  0.51100000000E-03 0. -1.
        -11    1    3    3    0    0  0.13235043749E+02 -0.37000007808E+01  0.32108199685E+01  0.14112609750E+02  0.51100000000E-03 0.  1.
        -12    1    3    3    0    0 -0.23616581007E+02  0.22525497649E+02 -0.27855701698E+02  0.42907820497E+02  0.00000000000E+00 0.  1.
</event>
<event>
 7    1  0.1935465E-015  0.9000765E+02  0.7816164E-02  0.1186339E+00
        -11   -1    0    0    0    0  0.00000000000E+00  0.00000000000E+00  0.45593999997E+02  0.45594000000E+02  0.51100000000E-03 0.  1.
         11   -1    0    0    0    0 -0.00000000000E+00 -0.00000000000E+00 -0.45593999997E+02  0.45594000000E+02  0.51100000000E-03 0. -1.
    9900012    2    1    2    0    0  0.27718656454E+00  0.64894365397E+00  0.94618823872E+00  0.90007647324E+02  0.89999907468E+02 0.  0.
         12    1    1    2    0    0 -0.27718656454E+00 -0.64894365397E+00 -0.94618823872E+00  0.11803526764E+01  0.00000000000E+00 0. -1.
         11    1    3    3    0    0  0.57775802874E+01  0.21461706108E+02 -0.28042812824E+02  0.35782462386E+02  0.51100000000E-03 0. -1.
        -11    1    3    3    0    0  0.24577486646E+01  0.46077276468E+01 -0.74440438396E+01  0.90931552012E+01  0.51100000000E-03 0.  1.
        -12    1    3    3    0    0 -0.79581423875E+01 -0.25420490101E+02  0.36433044903E+02  0.45132029736E+02  0.00000000000E+00 0.  1.
</event>
<event>
 7    1  0.1935465E-015  0.9000771E+02  0.7816164E-02  0.1186339E+00
        -11   -1    0    0    0    0  0.00000000000E+00  0.00000000000E+00  0.45593999997E+02  0.45594000000E+02  0.51100000000E-03 0.  1.
         11   -1    0    0    0    0 -0.00000000000E+00 -0.00000000000E+00 -0.45593999997E+02  0.45594000000E+02  0.51100000000E-03 0. -1.
    9900012    2    1    2    0    0  0.66522711317E+00 -0.82204211971E+00  0.52420872046E+00  0.90007713958E+02  0.89999974982E+02 0.  0.
         12    1    1    2    0    0 -0.66522711317E+00  0.82204211971E+00 -0.52420872046E+00  0.11802860421E+01  0.00000000000E+00 0. -1.
         11    1    3    3    0    0 -0.10402683754E+02  0.26913925687E+02 -0.12593393794E+02  0.31482833301E+02  0.51100000000E-03 0. -1.
        -11    1    3    3    0    0 -0.34080305930E+01  0.12968703296E+02  0.61977927391E+01  0.14772087625E+02  0.51100000000E-03 0.  1.
        -12    1    3    3    0    0  0.14475941460E+02 -0.40704671103E+02  0.69198097752E+01  0.43752793032E+02  0.00000000000E+00 0.  1.
</event>
<event>
 7    1  0.1935465E-015  0.9000772E+02  0.7816164E-02  0.1186339E+00
        -11   -1    0    0    0    0  0.00000000000E+00  0.00000000000E+00  0.45593999997E+02  0.45594000000E+02  0.51100000000E-03 0.  1.
         11   -1    0    0    0    0 -0.00000000000E+00 -0.00000000000E+00 -0.45593999997E+02  0.45594000000E+02  0.51100000000E-03 0. -1.
    9900012    2    1    2    0    0 -0.52479017640E+00 -0.98974177212E+00  0.37157255663E+00  0.90007720512E+02  0.89999981623E+02 0.  0.
         12    1    1    2    0    0  0.52479017640E+00  0.98974177212E+00 -0.37157255663E+00  0.11802794879E+01  0.00000000000E+00 0. -1.
         11    1    3    3    0    0 -0.36682361626E+02  0.10964294885E+02 -0.52251301601E+01  0.38640825590E+02  0.51100000000E-03 0. -1.
        -11    1    3    3    0    0 -0.51756721263E+01 -0.72973237388E+01  0.38382014682E+01  0.97350041849E+01  0.51100000000E-03 0.  1.
        -12    1    3    3    0    0  0.41333243576E+02 -0.46567129183E+01  0.17585012485E+01  0.41631890737E+02  0.00000000000E+00 0.  1.
</event>
<event>
 7    1  0.1935465E-015  0.9000774E+02  0.7816164E-02  0.1186339E+00
        -11   -1    0    0    0    0  0.00000000000E+00  0.00000000000E+00  0.45593999997E+02  0.45594000000E+02  0.51100000000E-03 0.  1.
         11   -1    0    0    0    0 -0.00000000000E+00 -0.00000000000E+00 -0.45593999997E+02  0.45594000000E+02  0.51100000000E-03 0. -1.
    9900012    2    1    2    0    0 -0.61547398341E+00 -0.60326335054E+00  0.80639877598E+00  0.90007739910E+02  0.90000001277E+02 0.  0.
         12    1    1    2    0    0  0.61547398341E+00  0.60326335054E+00 -0.80639877598E+00  0.11802600901E+01  0.00000000000E+00 0. -1.
         11    1    3    3    0    0  0.77099395629E+01  0.37521815725E+02 -0.44779608649E+01  0.38566591204E+02  0.51100000000E-03 0. -1.
        -11    1    3    3    0    0 -0.62437478159E+01  0.41811212689E+01  0.51030957057E+01  0.90833775600E+01  0.51100000000E-03 0.  1.
        -12    1    3    3    0    0 -0.20816657304E+01 -0.42306200344E+02  0.18126393511E+00  0.42357771145E+02  0.00000000000E+00 0.  1.
</event>
<event>
 7    1  0.1935465E-015  0.9000771E+02  0.7816164E-02  0.1186339E+00
        -11   -1    0    0    0    0  0.00000000000E+00  0.00000000000E+00  0.45593999997E+02  0.45594000000E+02  0.51100000000E-03 0. -1.
         11   -1    0    0    0    0 -0.00000000000E+00 -0.00000000000E+00 -0.45593999997E+02  0.45594000000E+02  0.51100000000E-03 0.  1.
    9900012    2    1    2    0    0  0.94460886521E-01 -0.11660358372E+01 -0.15660509522E+00  0.90007708685E+02  0.89999969639E+02 0.  0.
         12    1    1    2    0    0 -0.94460886521E-01  0.11660358372E+01  0.15660509522E+00  0.11802913152E+01  0.00000000000E+00 0. -1.
         11    1    3    3    0    0 -0.26650629873E+02 -0.61451506413E+01  0.31161809565E+02  0.41461757375E+02  0.51100000000E-03 0. -1.
        -11    1    3    3    0    0  0.30507304937E+01 -0.82052088833E+01 -0.27917821529E+01  0.91883870845E+01  0.51100000000E-03 0.  1.
        -12    1    3    3    0    0  0.23694360265E+02  0.13184323687E+02 -0.28526632508E+02  0.39357564225E+02  0.00000000000E+00 0.  1.
</event>
<event>
 7    1  0.1935465E-015  0.9000778E+02  0.7816164E-02  0.1186339E+00
        -11   -1    0    0    0    0  0.00000000000E+00  0.00000000000E+00  0.45593999997E+02  0.45594000000E+02  0.51100000000E-03 0. -1.
         11   -1    0    0    0    0 -0.00000000000E+00 -0.00000000000E+00 -0.45593999997E+02  0.45594000000E+02  0.51100000000E-03 0.  1.
    9900012    2    1    2    0    0 -0.23182044313E-01 -0.10315023461E+01 -0.57305433143E+00  0.90007777240E+02  0.90000039099E+02 0.  0.
         12    1    1    2    0    0  0.23182044313E-01  0.10315023461E+01  0.57305433143E+00  0.11802227603E+01  0.00000000000E+00 0. -1.
         11    1    3    3    0    0  0.27998153766E+02 -0.10789893633E+02  0.18347049335E+02  0.35170053148E+02  0.51100000000E-03 0. -1.
        -11    1    3    3    0    0  0.10312101493E+02  0.42145745250E+00  0.14721442158E+01  0.10425174935E+02  0.51100000000E-03 0.  1.
        -12    1    3    3    0    0 -0.38333437303E+02  0.93369338341E+01 -0.20392247882E+02  0.44412549156E+02  0.00000000000E+00 0.  1.
</event>
<event>
 7    1  0.1935465E-015  0.9000741E+02  0.7816164E-02  0.1186340E+00
        -11   -1    0    0    0    0  0.00000000000E+00  0.00000000000E+00  0.45593999997E+02  0.45594000000E+02  0.51100000000E-03 0.  1.
         11   -1    0    0    0    0 -0.00000000000E+00 -0.00000000000E+00 -0.45593999997E+02  0.45594000000E+02  0.51100000000E-03 0. -1.
    9900012    2    1    2    0    0 -0.43836764381E+00 -0.96358427744E+00  0.52261107397E+00  0.90007414050E+02  0.89999671115E+02 0.  0.
         12    1    1    2    0    0  0.43836764381E+00  0.96358427744E+00 -0.52261107397E+00  0.11805859501E+01  0.00000000000E+00 0. -1.
         11    1    3    3    0    0 -0.83411568562E+01 -0.65716663670E+01  0.18772254359E+01  0.10783583455E+02  0.51100000000E-03 0. -1.
        -11    1    3    3    0    0 -0.26920354169E+02  0.15413280234E+02 -0.21568910639E+02  0.37782172814E+02  0.51100000000E-03 0.  1.
         12    1    3    3    0    0  0.34823143381E+02 -0.98051981440E+01  0.20214296277E+02  0.41441657780E+02  0.00000000000E+00 0. -1.
</event>
<event>
 7    1  0.1935465E-015  0.9000777E+02  0.7816164E-02  0.1186339E+00
        -11   -1    0    0    0    0  0.00000000000E+00  0.00000000000E+00  0.45593999997E+02  0.45594000000E+02  0.51100000000E-03 0.  1.
         11   -1    0    0    0    0 -0.00000000000E+00 -0.00000000000E+00 -0.45593999997E+02  0.45594000000E+02  0.51100000000E-03 0. -1.
    9900012    2    1    2    0    0 -0.29844771190E+00 -0.10145098490E+01  0.52407240038E+00  0.90007765637E+02  0.90000027344E+02 0.  0.
         12    1    1    2    0    0  0.29844771190E+00  0.10145098490E+01 -0.52407240038E+00  0.11802343629E+01  0.00000000000E+00 0. -1.
         11    1    3    3    0    0 -0.19632684383E+01 -0.98257000718E+01  0.52986224167E+01  0.11334646207E+02  0.51100000000E-03 0. -1.
        -11    1    3    3    0    0  0.76722997528E+01  0.34376596148E+02  0.21709948431E+02  0.41375553258E+02  0.51100000000E-03 0.  1.
         12    1    3    3    0    0 -0.60074790264E+01 -0.25565405925E+02 -0.26484498448E+02  0.37297566173E+02  0.00000000000E+00 0. -1.
</event>
<event>
 7    1  0.1935465E-015  0.9000782E+02  0.7816164E-02  0.1186339E+00
        -11   -1    0    0    0    0  0.00000000000E+00  0.00000000000E+00  0.45593999997E+02  0.45594000000E+02  0.51100000000E-03 0. -1.
         11   -1    0    0    0    0 -0.00000000000E+00 -0.00000000000E+00 -0.45593999997E+02  0.45594000000E+02  0.51100000000E-03 0.  1.
    9900012    2    1    2    0    0  0.96105079437E-01  0.80586248564E+00 -0.85683648228E+00  0.90007822348E+02  0.90000084803E+02 0.  0.
         12    1    1    2    0    0 -0.96105079437E-01 -0.80586248564E+00  0.85683648228E+00  0.11801776516E+01  0.00000000000E+00 0. -1.
         11    1    3    3    0    0 -0.79930715460E+01 -0.56477199582E+01  0.22022325653E+01  0.10031737736E+02  0.51100000000E-03 0. -1.
        -11    1    3    3    0    0 -0.15331955522E+02 -0.20960785434E+02 -0.26393343068E+02  0.37027448531E+02  0.51100000000E-03 0.  1.
         12    1    3    3    0    0  0.23421132147E+02  0.27414367878E+02  0.23334274021E+02  0.42948636082E+02  0.00000000000E+00 0. -1.
</event>
<event>
 7    1  0.1935465E-015  0.9000774E+02  0.7816164E-02  0.1186339E+00
        -11   -1    0    0    0    0  0.00000000000E+00  0.00000000000E+00  0.45593999997E+02  0.45594000000E+02  0.51100000000E-03 0.  1.
         11   -1    0    0    0    0 -0.00000000000E+00 -0.00000000000E+00 -0.45593999997E+02  0.45594000000E+02  0.51100000000E-03 0. -1.
    9900012    2    1    2    0    0  0.93588723203E+00 -0.67940692683E+00  0.23564064160E+00  0.90007743589E+02  0.90000005005E+02 0.  0.
         12    1    1    2    0    0 -0.93588723203E+00  0.67940692683E+00 -0.23564064160E+00  0.11802564108E+01  0.00000000000E+00 0. -1.
         11    1    3    3    0    0 -0.39187543322E+02 -0.76633561271E+01 -0.49680317326E+01  0.40237692756E+02  0.51100000000E-03 0. -1.
        -11    1    3    3    0    0  0.29922786734E+01 -0.80902439337E+01  0.44100424323E+01  0.96878404757E+01  0.51100000000E-03 0.  1.
        -12    1    3    3    0    0  0.37131151881E+02  0.15074193134E+02  0.79362994183E+00  0.40082210357E+02  0.00000000000E+00 0.  1.
</event>
<event>
 7    1  0.2779229E-015  0.9000787E+02  0.7816164E-02  0.1186339E+00
        -11   -1    0    0    0    0  0.00000000000E+00  0.00000000000E+00  0.45593999997E+02  0.45594000000E+02  0.51100000000E-03 0.  1.
         11   -1    0    0    0    0 -0.00000000000E+00 -0.00000000000E+00 -0.45593999997E+02  0.45594000000E+02  0.51100000000E-03 0. -1.
    9900012    2    1    2    0    0 -0.25621029839E+00 -0.44354848088E+00  0.10631638382E+01  0.90007874448E+02  0.90000137590E+02 0.  0.
         12    1    1    2    0    0  0.25621029839E+00  0.44354848088E+00 -0.10631638382E+01  0.11801255521E+01  0.00000000000E+00 0. -1.
         11    1    3    3    0    0  0.87802641512E+01  0.71111389866E+00  0.39457431157E+01  0.96523370505E+01  0.51100000000E-03 0. -1.
        -11    1    3    3    0    0  0.13562970041E+02 -0.24580845013E+02  0.24926662646E+02  0.37543449613E+02  0.51100000000E-03 0.  1.
         12    1    3    3    0    0 -0.22599444491E+02  0.23426182634E+02 -0.27809241924E+02  0.42812087784E+02  0.00000000000E+00 0. -1.
</event>
<event>
 7    1  0.2422003E-015  0.9000773E+02  0.7816164E-02  0.1186339E+00
        -11   -1    0    0    0    0  0.00000000000E+00  0.00000000000E+00  0.45593999997E+02  0.45594000000E+02  0.51100000000E-03 0. -1.
         11   -1    0    0    0    0 -0.00000000000E+00 -0.00000000000E+00 -0.45593999997E+02  0.45594000000E+02  0.51100000000E-03 0.  1.
    9900012    2    1    2    0    0 -0.38414195893E+00 -0.10957277165E+01 -0.21176113563E+00  0.90007734330E+02  0.89999995623E+02 0.  0.
         12    1    1    2    0    0  0.38414195893E+00  0.10957277165E+01  0.21176113563E+00  0.11802656700E+01  0.00000000000E+00 0. -1.
         11    1    3    3    0    0  0.80312220559E+01 -0.28957284769E+01 -0.44546596436E+01  0.96296294801E+01  0.51100000000E-03 0. -1.
        -11    1    3    3    0    0  0.10173827775E+02 -0.19617580572E+02  0.33177077205E+02  0.39863199711E+02  0.51100000000E-03 0.  1.
         12    1    3    3    0    0 -0.18589191790E+02  0.21417581333E+02 -0.28934178697E+02  0.40514905139E+02  0.00000000000E+00 0. -1.
</event>
<event>
 7    1  0.1935465E-015  0.9000773E+02  0.7816164E-02  0.1186339E+00
        -11   -1    0    0    0    0  0.00000000000E+00  0.00000000000E+00  0.45593999997E+02  0.45594000000E+02  0.51100000000E-03 0. -1.
         11   -1    0    0    0    0 -0.00000000000E+00 -0.00000000000E+00 -0.45593999997E+02  0.45594000000E+02  0.51100000000E-03 0.  1.
    9900012    2    1    2    0    0 -0.10184486868E+01 -0.44849269645E+00  0.39325068450E+00  0.90007733281E+02  0.89999994561E+02 0.  0.
         12    1    1    2    0    0  0.10184486868E+01  0.44849269645E+00 -0.39325068450E+00  0.11802667187E+01  0.00000000000E+00 0. -1.
         11    1    3    3    0    0 -0.14690784231E+01 -0.37066825099E+02  0.17921813986E+02  0.41198290391E+02  0.51100000000E-03 0. -1.
        -11    1    3    3    0    0 -0.39849397100E+01  0.60164217948E+01  0.64508276877E+01  0.96793725945E+01  0.51100000000E-03 0.  1.
        -12    1    3    3    0    0  0.44355694463E+01  0.30601910608E+02 -0.23979390989E+02  0.39130070296E+02  0.00000000000E+00 0.  1.
</event>
<event>
 7    1  0.1935465E-015  0.9000770E+02  0.7816164E-02  0.1186339E+00
        -11   -1    0    0    0    0  0.00000000000E+00  0.00000000000E+00  0.45593999997E+02  0.45594000000E+02  0.51100000000E-03 0.  1.
         11   -1    0    0    0    0 -0.00000000000E+00 -0.00000000000E+00 -0.45593999997E+02  0.45594000000E+02  0.51100000000E-03 0. -1.
    9900012    2    1    2    0    0  0.18949599175E+00  0.48574068057E+00  0.10588964697E+01  0.90007697296E+02  0.89999958100E+02 0.  0.
         12    1    1    2    0    0 -0.18949599175E+00 -0.48574068057E+00 -0.10588964697E+01  0.11803027040E+01  0.00000000000E+00 0. -1.
         11    1    3    3    0    0 -0.21568681671E+02 -0.32019765791E+02 -0.10284780281E+02  0.39953099204E+02  0.51100000000E-03 0. -1.
        -11    1    3    3    0    0  0.79480451832E+01 -0.45804003060E+01  0.24177381686E+01  0.94866720882E+01  0.51100000000E-03 0.  1.
        -12    1    3    3    0    0  0.13810132480E+02  0.37085906778E+02  0.89259385823E+01  0.40567926003E+02  0.00000000000E+00 0.  1.
</event>
<event>
 7    1  0.1935465E-015  0.9000774E+02  0.7816164E-02  0.1186339E+00
        -11   -1    0    0    0    0  0.00000000000E+00  0.00000000000E+00  0.45593999997E+02  0.45594000000E+02  0.51100000000E-03 0.  1.
         11   -1    0    0    0    0 -0.00000000000E+00 -0.00000000000E+00 -0.45593999997E+02  0.45594000000E+02  0.51100000000E-03 0. -1.
    9900012    2    1    2    0    0  0.85559769792E+00 -0.73283606725E+00 -0.35201582044E+00  0.90007741020E+02  0.90000002401E+02 0.  0.
         12    1    1    2    0    0 -0.85559769792E+00  0.73283606725E+00  0.35201582044E+00  0.11802589801E+01  0.00000000000E+00 0. -1.
         11    1    3    3    0    0 -0.29344095855E+01  0.92096532254E+01 -0.27282758211E+01  0.10043503441E+02  0.51100000000E-03 0. -1.
        -11    1    3    3    0    0 -0.30723976857E+02 -0.44870964097E+01  0.23671492265E+02  0.39044030714E+02  0.51100000000E-03 0.  1.
         12    1    3    3    0    0  0.34513984140E+02 -0.54553928829E+01 -0.21295232264E+02  0.40920206865E+02  0.00000000000E+00 0. -1.
</event>
<event>
 7    1  0.1935465E-015  0.9000834E+02  0.7816164E-02  0.1186338E+00
        -11   -1    0    0    0    0  0.00000000000E+00  0.00000000000E+00  0.45593999997E+02  0.45594000000E+02  0.51100000000E-03 0. -1.
         11   -1    0    0    0    0 -0.00000000000E+00 -0.00000000000E+00 -0.45593999997E+02  0.45594000000E+02  0.51100000000E-03 0.  1.
    9900012    2    1    2    0    0  0.44967750359E+00 -0.97752537394E+00  0.48357374556E+00  0.90008335098E+02  0.90000604319E+02 0.  0.
         12    1    1    2    0    0 -0.44967750359E+00  0.97752537394E+00 -0.48357374556E+00  0.11796649021E+01  0.00000000000E+00 0. -1.
         11    1    3    3    0    0  0.33902871699E+01 -0.54001583813E+01 -0.52274352880E+01  0.82451099197E+01  0.51100000000E-03 0. -1.
        -11    1    3    3    0    0  0.16879797838E+02 -0.18243017619E+02 -0.27410847532E+02  0.37001213893E+02  0.51100000000E-03 0.  1.
         12    1    3    3    0    0 -0.19820407505E+02  0.22665650626E+02  0.33121856565E+02  0.44762011285E+02  0.00000000000E+00 0. -1.
</event>
<event>
 7    1  0.1935465E-015  0.9000778E+02  0.7816164E-02  0.1186339E+00
        -11   -1    0    0    0    0  0.00000000000E+00  0.00000000000E+00  0.45593999997E+02  0.45594000000E+02  0.51100000000E-03 0.  1.
         11   -1    0    0    0    0 -0.00000000000E+00 -0.00000000000E+00 -0.45593999997E+02  0.45594000000E+02  0.51100000000E-03 0. -1.
    9900012    2    1    2    0    0 -0.75156406980E-01  0.13792470776E+00  0.11697170656E+01  0.90007784035E+02  0.90000045984E+02 0.  0.
         12    1    1    2    0    0  0.75156406980E-01 -0.13792470776E+00 -0.11697170656E+01  0.11802159651E+01  0.00000000000E+00 0. -1.
         11    1    3    3    0    0 -0.29472673356E+02  0.25315509425E+02 -0.14731841500E+02  0.41551662379E+02  0.51100000000E-03 0. -1.
        -11    1    3    3    0    0 -0.31514004173E+01 -0.83028518138E+01  0.12267694687E+01  0.89651344899E+01  0.51100000000E-03 0.  1.
        -12    1    3    3    0    0  0.32548917366E+02 -0.16874732904E+02  0.14674789097E+02  0.39490987166E+02  0.00000000000E+00 0.  1.
</event>
<event>
 7    1  0.1935465E-015  0.9000781E+02  0.7816164E-02  0.1186339E+00
        -11   -1    0    0    0    0  0.00000000000E+00  0.00000000000E+00  0.45593999997E+02  0.45594000000E+02  0.51100000000E-03 0. -1.
         11   -1    0    0    0    0 -0.00000000000E+00 -0.00000000000E+00 -0.45593999997E+02  0.45594000000E+02  0.51100000000E-03 0.  1.
    9900012    2    1    2    0    0  0.33925423701E+00 -0.11194611844E+01 -0.15675558910E+00  0.90007805484E+02  0.90000067716E+02 0.  0.
         12    1    1    2    0    0 -0.33925423701E+00  0.11194611844E+01  0.15675558910E+00  0.11801945159E+01  0.00000000000E+00 0. -1.
         11    1    3    3    0    0 -0.54393995196E+01 -0.31894036038E+02 -0.11508199830E+02  0.34340286334E+02  0.51100000000E-03 0. -1.
        -11    1    3    3    0    0 -0.52791486105E+01 -0.81428382312E+01 -0.62540272160E+01  0.11545045742E+02  0.51100000000E-03 0.  1.
        -12    1    3    3    0    0  0.11057802367E+02  0.38917413085E+02  0.17605471457E+02  0.44122473408E+02  0.00000000000E+00 0.  1.
</event>
<event>
 7    1  0.1935465E-015  0.9000777E+02  0.7816164E-02  0.1186339E+00
        -11   -1    0    0    0    0  0.00000000000E+00  0.00000000000E+00  0.45593999997E+02  0.45594000000E+02  0.51100000000E-03 0. -1.
         11   -1    0    0    0    0 -0.00000000000E+00 -0.00000000000E+00 -0.45593999997E+02  0.45594000000E+02  0.51100000000E-03 0.  1.
    9900012    2    1    2    0    0 -0.24066051412E+00 -0.55695697576E+00 -0.10123408365E+01  0.90007765902E+02  0.90000027612E+02 0.  0.
         12    1    1    2    0    0  0.24066051412E+00  0.55695697576E+00  0.10123408365E+01  0.11802340976E+01  0.00000000000E+00 0. -1.
         11    1    3    3    0    0  0.18132602726E+02  0.13276428823E+02  0.33972828742E+02  0.40733376203E+02  0.51100000000E-03 0. -1.
        -11    1    3    3    0    0 -0.96733464544E+01 -0.23188869832E+01  0.14803616411E+01  0.10056954774E+02  0.51100000000E-03 0.  1.
        -12    1    3    3    0    0 -0.86999167860E+01 -0.11514498815E+02 -0.36465531219E+02  0.39217434926E+02  0.00000000000E+00 0.  1.
</event>
<event>
 7    1  0.2068138E-015  0.9000771E+02  0.7816164E-02  0.1186339E+00
        -11   -1    0    0    0    0  0.00000000000E+00  0.00000000000E+00  0.45593999997E+02  0.45594000000E+02  0.51100000000E-03 0.  1.
         11   -1    0    0    0    0 -0.00000000000E+00 -0.00000000000E+00 -0.45593999997E+02  0.45594000000E+02  0.51100000000E-03 0. -1.
    9900012    2    1    2    0    0  0.14845628646E+00 -0.77289560542E+00  0.87958753971E+00  0.90007711423E+02  0.89999972413E+02 0.  0.
         12    1    1    2    0    0 -0.14845628646E+00  0.77289560542E+00 -0.87958753971E+00  0.11802885774E+01  0.00000000000E+00 0. -1.
         11    1    3    3    0    0  0.81955118958E+01  0.99564140797E+00  0.44766717706E+01  0.93913953942E+01  0.51100000000E-03 0. -1.
        -11    1    3    3    0    0  0.10017852779E+02 -0.42653299528E+01  0.35684114791E+02  0.37308262659E+02  0.51100000000E-03 0.  1.
         12    1    3    3    0    0 -0.18064908388E+02  0.24967929395E+01 -0.39281199022E+02  0.43308053370E+02  0.00000000000E+00 0. -1.
</event>
<event>
 7    1  0.1935465E-015  0.9000776E+02  0.7816164E-02  0.1186339E+00
        -11   -1    0    0    0    0  0.00000000000E+00  0.00000000000E+00  0.45593999997E+02  0.45594000000E+02  0.51100000000E-03 0.  1.
         11   -1    0    0    0    0 -0.00000000000E+00 -0.00000000000E+00 -0.45593999997E+02  0.45594000000E+02  0.51100000000E-03 0. -1.
    9900012    2    1    2    0    0  0.91778782801E+00 -0.21935317407E+00  0.70888117149E+00  0.90007761538E+02  0.90000023190E+02 0.  0.
         12    1    1    2    0    0 -0.91778782801E+00  0.21935317407E+00 -0.70888117149E+00  0.11802384621E+01  0.00000000000E+00 0. -1.
         11    1    3    3    0    0 -0.38469593967E+01  0.84726593362E+01  0.49339086387E+01  0.10532260324E+02  0.51100000000E-03 0. -1.
        -11    1    3    3    0    0  0.76259150340E+01  0.10165192033E+02  0.34250519073E+02  0.36531955412E+02  0.51100000000E-03 0.  1.
         12    1    3    3    0    0 -0.28611678094E+01 -0.18857204543E+02 -0.38475546541E+02  0.42943545801E+02  0.00000000000E+00 0. -1.
</event>
<event>
 7    1  0.1935465E-015  0.9000785E+02  0.7816164E-02  0.1186339E+00
        -11   -1    0    0    0    0  0.00000000000E+00  0.00000000000E+00  0.45593999997E+02  0.45594000000E+02  0.51100000000E-03 0. -1.
         11   -1    0    0    0    0 -0.00000000000E+00 -0.00000000000E+00 -0.45593999997E+02  0.45594000000E+02  0.51100000000E-03 0.  1.
    9900012    2    1    2    0    0  0.10060234462E+01  0.12813267736E+00 -0.60354155477E+00  0.90007845957E+02  0.90000108723E+02 0.  0.
         12    1    1    2    0    0 -0.10060234462E+01 -0.12813267736E+00  0.60354155477E+00  0.11801540432E+01  0.00000000000E+00 0. -1.
         11    1    3    3    0    0 -0.57023042056E+01 -0.82294768092E+01 -0.15627828518E+01  0.10133254774E+02  0.51100000000E-03 0. -1.
        -11    1    3    3    0    0 -0.25480220340E+02 -0.22999071339E+02  0.52864940307E+01  0.34729611723E+02  0.51100000000E-03 0.  1.
         12    1    3    3    0    0  0.32188547991E+02  0.31356680826E+02 -0.43272527336E+01  0.45144979460E+02  0.00000000000E+00 0. -1.
</event>
<event>
 7    1  0.1935465E-015  0.9000765E+02  0.7816164E-02  0.1186339E+00
        -11   -1    0    0    0    0  0.00000000000E+00  0.00000000000E+00  0.45593999997E+02  0.45594000000E+02  0.51100000000E-03 0.  1.
         11   -1    0    0    0    0 -0.00000000000E+00 -0.00000000000E+00 -0.45593999997E+02  0.45594000000E+02  0.51100000000E-03 0. -1.
    9900012    2    1    2    0    0 -0.28257051136E+00  0.49661953616E-01  0.11449510755E+01  0.90007650319E+02  0.89999910503E+02 0.  0.
         12    1    1    2    0    0  0.28257051136E+00 -0.49661953616E-01 -0.11449510755E+01  0.11803496807E+01  0.00000000000E+00 0. -1.
         11    1    3    3    0    0  0.14746796968E+01  0.19726510347E+01  0.47680733887E+01  0.53666149866E+01  0.51100000000E-03 0. -1.
        -11    1    3    3    0    0  0.19594112207E+02  0.35561404329E+02  0.41273000252E+01  0.40811485109E+02  0.51100000000E-03 0.  1.
         12    1    3    3    0    0 -0.21351362415E+02 -0.37484393411E+02 -0.77504223384E+01  0.43829550223E+02  0.00000000000E+00 0. -1.
</event>
<event>
 7    1  0.1935465E-015  0.9000778E+02  0.7816164E-02  0.1186339E+00
        -11   -1    0    0    0    0  0.00000000000E+00  0.00000000000E+00  0.45593999997E+02  0.45594000000E+02  0.51100000000E-03 0. -1.
         11   -1    0    0    0    0 -0.00000000000E+00 -0.00000000000E+00 -0.45593999997E+02  0.45594000000E+02  0.51100000000E-03 0.  1.
    9900012    2    1    2    0    0 -0.84990694683E+00  0.59939616593E+00 -0.55794602589E+00  0.90007779110E+02  0.90000040994E+02 0.  0.
         12    1    1    2    0    0  0.84990694683E+00 -0.59939616593E+00  0.55794602589E+00  0.11802208903E+01  0.00000000000E+00 0. -1.
         11    1    3    3    0    0  0.35939181008E+02  0.17107388495E+02 -0.18862779573E+02  0.44046474617E+02  0.51100000000E-03 0. -1.
        -11    1    3    3    0    0 -0.11011215013E+02  0.89535552274E+00  0.43886921712E+01  0.11887351968E+02  0.51100000000E-03 0.  1.
        -12    1    3    3    0    0 -0.25777872942E+02 -0.17403347852E+02  0.13916141376E+02  0.34073952525E+02  0.00000000000E+00 0.  1.
</event>
<event>
 7    1  0.1935465E-015  0.9000774E+02  0.7816164E-02  0.1186339E+00
        -11   -1    0    0    0    0  0.00000000000E+00  0.00000000000E+00  0.45593999997E+02  0.45594000000E+02  0.51100000000E-03 0. -1.
         11   -1    0    0    0    0 -0.00000000000E+00 -0.00000000000E+00 -0.45593999997E+02  0.45594000000E+02  0.51100000000E-03 0.  1.
    9900012    2    1    2    0    0  0.10321531704E+01  0.54012017834E+00  0.18958516846E+00  0.90007740490E+02  0.90000001865E+02 0.  0.
         12    1    1    2    0    0 -0.10321531704E+01 -0.54012017834E+00 -0.18958516846E+00  0.11802595097E+01  0.00000000000E+00 0. -1.
         11    1    3    3    0    0  0.59365928219E+01 -0.58036859764E+00  0.13355432668E+02  0.14626945821E+02  0.51100000000E-03 0. -1.
        -11    1    3    3    0    0 -0.23484761223E+02 -0.63594596358E+01  0.23356410317E+02  0.33726823742E+02  0.51100000000E-03 0.  1.
        -12    1    3    3    0    0  0.18580321572E+02  0.74799484118E+01 -0.36522257817E+02  0.41653970927E+02  0.00000000000E+00 0.  1.
</event>
<event>
 7    1  0.1935465E-015  0.9000779E+02  0.7816164E-02  0.1186339E+00
        -11   -1    0    0    0    0  0.00000000000E+00  0.00000000000E+00  0.45593999997E+02  0.45594000000E+02  0.51100000000E-03 0.  1.
         11   -1    0    0    0    0 -0.00000000000E+00 -0.00000000000E+00 -0.45593999997E+02  0.45594000000E+02  0.51100000000E-03 0. -1.
    9900012    2    1    2    0    0  0.25207118506E+00 -0.10645626426E+01  0.44278161147E+00  0.90007792790E+02  0.90000054855E+02 0.  0.
         12    1    1    2    0    0 -0.25207118506E+00  0.10645626426E+01 -0.44278161147E+00  0.11802072097E+01  0.00000000000E+00 0. -1.
         11    1    3    3    0    0  0.75648787944E+01  0.15459123262E+01 -0.47534590016E+01  0.90671168976E+01  0.51100000000E-03 0. -1.
        -11    1    3    3    0    0  0.25509478529E+02  0.16493423899E+02 -0.19075569514E+02  0.35869818500E+02  0.51100000000E-03 0.  1.
         12    1    3    3    0    0 -0.32822286138E+02 -0.19103898867E+02  0.24271810127E+02  0.45070857392E+02  0.00000000000E+00 0. -1.
</event>
<event>
 7    1  0.1935465E-015  0.9000774E+02  0.7816164E-02  0.1186339E+00
        -11   -1    0    0    0    0  0.00000000000E+00  0.00000000000E+00  0.45593999997E+02  0.45594000000E+02  0.51100000000E-03 0.  1.
         11   -1    0    0    0    0 -0.00000000000E+00 -0.00000000000E+00 -0.45593999997E+02  0.45594000000E+02  0.51100000000E-03 0. -1.
    9900012    2    1    2    0    0  0.16097364672E+00  0.14743326227E+00  0.11599021717E+01  0.90007736415E+02  0.89999997736E+02 0.  0.
         12    1    1    2    0    0 -0.16097364672E+00 -0.14743326227E+00 -0.11599021717E+01  0.11802635848E+01  0.00000000000E+00 0. -1.
         11    1    3    3    0    0 -0.80044971880E+01  0.57402215080E+01  0.11427705843E+01  0.99160497711E+01  0.51100000000E-03 0. -1.
        -11    1    3    3    0    0 -0.18225785226E+02 -0.26305214773E+02  0.23013791284E+02  0.39417992857E+02  0.51100000000E-03 0.  1.
         12    1    3    3    0    0  0.26391256061E+02  0.20712426527E+02 -0.22996659697E+02  0.40673693787E+02  0.00000000000E+00 0. -1.
</event>
<event>
 7    1  0.1935465E-015  0.9000822E+02  0.7816164E-02  0.1186338E+00
        -11   -1    0    0    0    0  0.00000000000E+00  0.00000000000E+00  0.45593999997E+02  0.45594000000E+02  0.51100000000E-03 0.  1.
         11   -1    0    0    0    0 -0.00000000000E+00 -0.00000000000E+00 -0.45593999997E+02  0.45594000000E+02  0.51100000000E-03 0. -1.
    9900012    2    1    2    0    0 -0.51837771666E+00 -0.10367117737E+01  0.21999772084E+00  0.90008217920E+02  0.90000485595E+02 0.  0.
         12    1    1    2    0    0  0.51837771666E+00  0.10367117737E+01 -0.21999772084E+00  0.11797820799E+01  0.00000000000E+00 0. -1.
         11    1    3    3    0    0 -0.53021685967E+01  0.78042950149E+01  0.36804219905E+01  0.10127463591E+02  0.51100000000E-03 0. -1.
        -11    1    3    3    0    0 -0.44140639125E+01 -0.52784846443E+01  0.37307408257E+02  0.37936645496E+02  0.51100000000E-03 0.  1.
         12    1    3    3    0    0  0.91978547925E+01 -0.35625221443E+01 -0.40767832527E+02  0.41944108833E+02  0.00000000000E+00 0. -1.
</event>
<event>
 7    1  0.1935465E-015  0.9000774E+02  0.7816164E-02  0.1186339E+00
        -11   -1    0    0    0    0  0.00000000000E+00  0.00000000000E+00  0.45593999997E+02  0.45594000000E+02  0.51100000000E-03 0.  1.
         11   -1    0    0    0    0 -0.00000000000E+00 -0.00000000000E+00 -0.45593999997E+02  0.45594000000E+02  0.51100000000E-03 0. -1.
    9900012    2    1    2    0    0  0.23359062435E+00  0.10829843657E+01  0.40694150978E+00  0.90007736848E+02  0.89999998174E+02 0.  0.
         12    1    1    2    0    0 -0.23359062435E+00 -0.10829843657E+01 -0.40694150978E+00  0.11802631522E+01  0.00000000000E+00 0. -1.
         11    1    3    3    0    0 -0.17413002454E+02  0.67285604875E+01 -0.34495185045E+02  0.39222493192E+02  0.51100000000E-03 0. -1.
        -11    1    3    3    0    0  0.39796229381E+00 -0.60899263517E+01 -0.46242531079E+01  0.76569768201E+01  0.51100000000E-03 0.  1.
        -12    1    3    3    0    0  0.17248630784E+02  0.44435022985E+00  0.39526379662E+02  0.43128266836E+02  0.00000000000E+00 0.  1.
</event>
<event>
 7    1  0.1935465E-015  0.9000775E+02  0.7816164E-02  0.1186339E+00
        -11   -1    0    0    0    0  0.00000000000E+00  0.00000000000E+00  0.45593999997E+02  0.45594000000E+02  0.51100000000E-03 0.  1.
         11   -1    0    0    0    0 -0.00000000000E+00 -0.00000000000E+00 -0.45593999997E+02  0.45594000000E+02  0.51100000000E-03 0. -1.
    9900012    2    1    2    0    0  0.49403784888E+00 -0.92269282000E+00 -0.54548564463E+00  0.90007750016E+02  0.90000011516E+02 0.  0.
         12    1    1    2    0    0 -0.49403784888E+00  0.92269282000E+00  0.54548564463E+00  0.11802499840E+01  0.00000000000E+00 0. -1.
         11    1    3    3    0    0  0.26110906059E+02  0.20227803370E+02 -0.10759586473E+02  0.34737762532E+02  0.51100000000E-03 0. -1.
        -11    1    3    3    0    0  0.76306397669E+01  0.32952371350E+01 -0.66950265003E+01  0.10672798655E+02  0.51100000000E-03 0.  1.
        -12    1    3    3    0    0 -0.33247507977E+02 -0.24445733325E+02  0.16909127328E+02  0.44597188829E+02  0.00000000000E+00 0.  1.
</event>
<event>
 7    1  0.1935465E-015  0.9000774E+02  0.7816164E-02  0.1186339E+00
        -11   -1    0    0    0    0  0.00000000000E+00  0.00000000000E+00  0.45593999997E+02  0.45594000000E+02  0.51100000000E-03 0. -1.
         11   -1    0    0    0    0 -0.00000000000E+00 -0.00000000000E+00 -0.45593999997E+02  0.45594000000E+02  0.51100000000E-03 0.  1.
    9900012    2    1    2    0    0  0.71074360754E+00 -0.94200543442E+00  0.21793161840E-01  0.90007743394E+02  0.90000004807E+02 0.  0.
         12    1    1    2    0    0 -0.71074360754E+00  0.94200543442E+00 -0.21793161840E-01  0.11802566060E+01  0.00000000000E+00 0. -1.
         11    1    3    3    0    0 -0.51814038799E+01 -0.88341650530E+01  0.24282525502E+01  0.10525484742E+02  0.51100000000E-03 0. -1.
        -11    1    3    3    0    0 -0.16722116734E+02  0.16374237426E+01 -0.35290183517E+02  0.39085897681E+02  0.51100000000E-03 0.  1.
         12    1    3    3    0    0  0.22614264221E+02  0.62547358760E+01  0.32883724129E+02  0.40396360971E+02  0.00000000000E+00 0. -1.
</event>
<event>
 7    1  0.1935465E-015  0.9000756E+02  0.7816164E-02  0.1186339E+00
        -11   -1    0    0    0    0  0.00000000000E+00  0.00000000000E+00  0.45593999997E+02  0.45594000000E+02  0.51100000000E-03 0.  1.
         11   -1    0    0    0    0 -0.00000000000E+00 -0.00000000000E+00 -0.45593999997E+02  0.45594000000E+02  0.51100000000E-03 0. -1.
    9900012    2    1    2    0    0 -0.96734225203E+00  0.33731606866E+00  0.58644261784E+00  0.90007555971E+02  0.89999814909E+02 0.  0.
         12    1    1    2    0    0  0.96734225203E+00 -0.33731606866E+00 -0.58644261784E+00  0.11804440295E+01  0.00000000000E+00 0. -1.
         11    1    3    3    0    0 -0.15893047134E+01  0.37243310166E+02  0.28758229472E+01  0.37387971320E+02  0.51100000000E-03 0. -1.
        -11    1    3    3    0    0 -0.61812270368E+01  0.59675910369E+01 -0.32843505416E+01  0.91981883654E+01  0.51100000000E-03 0.  1.
        -12    1    3    3    0    0  0.68031894981E+01 -0.42873585134E+02  0.99497021218E+00  0.43421396285E+02  0.00000000000E+00 0.  1.
</event>
<event>
 7    1  0.1935465E-015  0.9000776E+02  0.7816164E-02  0.1186339E+00
        -11   -1    0    0    0    0  0.00000000000E+00  0.00000000000E+00  0.45593999997E+02  0.45594000000E+02  0.51100000000E-03 0.  1.
         11   -1    0    0    0    0 -0.00000000000E+00 -0.00000000000E+00 -0.45593999997E+02  0.45594000000E+02  0.51100000000E-03 0. -1.
    9900012    2    1    2    0    0  0.51720990545E+00 -0.46306548434E+00  0.95447390996E+00  0.90007764357E+02  0.90000026046E+02 0.  0.
         12    1    1    2    0    0 -0.51720990545E+00  0.46306548434E+00 -0.95447390996E+00  0.11802356434E+01  0.00000000000E+00 0. -1.
         11    1    3    3    0    0  0.10973543222E+02 -0.26206718093E+01 -0.39362495451E+01  0.11949085000E+02  0.51100000000E-03 0. -1.
        -11    1    3    3    0    0 -0.27323103386E+01 -0.36583861903E+02 -0.57815174585E+01  0.37138530072E+02  0.51100000000E-03 0.  1.
         12    1    3    3    0    0 -0.77240229782E+01  0.38741468228E+02  0.10672240914E+02  0.40920149285E+02  0.00000000000E+00 0. -1.
</event>
<event>
 7    1  0.2253299E-015  0.9000771E+02  0.7816164E-02  0.1186339E+00
        -11   -1    0    0    0    0  0.00000000000E+00  0.00000000000E+00  0.45593999997E+02  0.45594000000E+02  0.51100000000E-03 0.  1.
         11   -1    0    0    0    0 -0.00000000000E+00 -0.00000000000E+00 -0.45593999997E+02  0.45594000000E+02  0.51100000000E-03 0. -1.
    9900012    2    1    2    0    0 -0.13777088491E+00  0.45475126359E+00  0.10804217781E+01  0.90007707347E+02  0.89999968284E+02 0.  0.
         12    1    1    2    0    0  0.13777088491E+00 -0.45475126359E+00 -0.10804217781E+01  0.11802926532E+01  0.00000000000E+00 0. -1.
         11    1    3    3    0    0 -0.54650496571E+00  0.46256295729E+01  0.87553462920E+01  0.99172176328E+01  0.51100000000E-03 0. -1.
        -11    1    3    3    0    0 -0.11637086754E+02  0.81245317294E+01  0.33000481565E+02  0.35922995250E+02  0.51100000000E-03 0.  1.
         12    1    3    3    0    0  0.12045820835E+02 -0.12295410039E+02 -0.40675406078E+02  0.44167494464E+02  0.00000000000E+00 0. -1.
</event>
<event>
 7    1  0.1935465E-015  0.9000760E+02  0.7816164E-02  0.1186339E+00
        -11   -1    0    0    0    0  0.00000000000E+00  0.00000000000E+00  0.45593999997E+02  0.45594000000E+02  0.51100000000E-03 0.  1.
         11   -1    0    0    0    0 -0.00000000000E+00 -0.00000000000E+00 -0.45593999997E+02  0.45594000000E+02  0.51100000000E-03 0. -1.
    9900012    2    1    2    0    0 -0.82702504151E+00 -0.18837219305E-01  0.84203537192E+00  0.90007598023E+02  0.89999857517E+02 0.  0.
         12    1    1    2    0    0  0.82702504151E+00  0.18837219305E-01 -0.84203537192E+00  0.11804019772E+01  0.00000000000E+00 0. -1.
         11    1    3    3    0    0 -0.17459998431E+02 -0.21179082061E+02 -0.24745264529E+02  0.36955827403E+02  0.51100000000E-03 0. -1.
        -11    1    3    3    0    0 -0.62417547328E+01 -0.23701853679E+01 -0.48819586766E+01  0.82710822511E+01  0.51100000000E-03 0.  1.
        -12    1    3    3    0    0  0.22874728122E+02  0.23530430210E+02  0.30469258577E+02  0.44780688369E+02  0.00000000000E+00 0.  1.
</event>
<event>
 7    1  0.1935465E-015  0.9000782E+02  0.7816164E-02  0.1186339E+00
        -11   -1    0    0    0    0  0.00000000000E+00  0.00000000000E+00  0.45593999997E+02  0.45594000000E+02  0.51100000000E-03 0.  1.
         11   -1    0    0    0    0 -0.00000000000E+00 -0.00000000000E+00 -0.45593999997E+02  0.45594000000E+02  0.51100000000E-03 0. -1.
    9900012    2    1    2    0    0  0.11570511439E+01  0.12096540822E+00 -0.19856058675E+00  0.90007819384E+02  0.90000081800E+02 0.  0.
         12    1    1    2    0    0 -0.11570511439E+01 -0.12096540822E+00  0.19856058675E+00  0.11801806159E+01  0.00000000000E+00 0. -1.
         11    1    3    3    0    0 -0.21385290397E+01 -0.54479440700E+00 -0.36349354827E+02  0.36416283500E+02  0.51100000000E-03 0. -1.
        -11    1    3    3    0    0  0.86280981267E+01  0.38068390581E+01 -0.58760570824E+01  0.11111442210E+02  0.51100000000E-03 0.  1.
        -12    1    3    3    0    0 -0.53325179430E+01 -0.31410792429E+01  0.42026851322E+02  0.42480093673E+02  0.00000000000E+00 0.  1.
</event>
<event>
 7    1  0.1935465E-015  0.9000773E+02  0.7816164E-02  0.1186339E+00
        -11   -1    0    0    0    0  0.00000000000E+00  0.00000000000E+00  0.45593999997E+02  0.45594000000E+02  0.51100000000E-03 0.  1.
         11   -1    0    0    0    0 -0.00000000000E+00 -0.00000000000E+00 -0.45593999997E+02  0.45594000000E+02  0.51100000000E-03 0. -1.
    9900012    2    1    2    0    0  0.10132640600E+01  0.31941724544E+00  0.51409665305E+00  0.90007734436E+02  0.89999995731E+02 0.  0.
         12    1    1    2    0    0 -0.10132640600E+01 -0.31941724544E+00 -0.51409665305E+00  0.11802655636E+01  0.00000000000E+00 0. -1.
         11    1    3    3    0    0 -0.32382734591E+02  0.11808012674E+01 -0.49646748349E+01  0.32782370075E+02  0.51100000000E-03 0. -1.
        -11    1    3    3    0    0 -0.87839423030E+01  0.96513818591E+01 -0.17200700914E+01  0.13163033676E+02  0.51100000000E-03 0.  1.
        -12    1    3    3    0    0  0.42179940954E+02 -0.10512765881E+02  0.71988415794E+01  0.44062330686E+02  0.00000000000E+00 0.  1.
</event>
<event>
 7    1  0.1935465E-015  0.9000766E+02  0.7816164E-02  0.1186339E+00
        -11   -1    0    0    0    0  0.00000000000E+00  0.00000000000E+00  0.45593999997E+02  0.45594000000E+02  0.51100000000E-03 0.  1.
         11   -1    0    0    0    0 -0.00000000000E+00 -0.00000000000E+00 -0.45593999997E+02  0.45594000000E+02  0.51100000000E-03 0. -1.
    9900012    2    1    2    0    0  0.74319412228E+00  0.75403097449E+00  0.52183048126E+00  0.90007657988E+02  0.89999918274E+02 0.  0.
         12    1    1    2    0    0 -0.74319412228E+00 -0.75403097449E+00 -0.52183048126E+00  0.11803420119E+01  0.00000000000E+00 0. -1.
         11    1    3    3    0    0 -0.19455258128E+02  0.20778139324E+02 -0.27744112512E+02  0.39748885795E+02  0.51100000000E-03 0. -1.
        -11    1    3    3    0    0  0.12491889401E+02 -0.50319059780E+01 -0.38335436585E+01  0.14002265382E+02  0.51100000000E-03 0.  1.
        -12    1    3    3    0    0  0.77065628494E+01 -0.14992202372E+02  0.32099486652E+02  0.36256506812E+02  0.00000000000E+00 0.  1.
</event>
<event>
 7    1  0.1935465E-015  0.9000768E+02  0.7816164E-02  0.1186339E+00
        -11   -1    0    0    0    0  0.00000000000E+00  0.00000000000E+00  0.45593999997E+02  0.45594000000E+02  0.51100000000E-03 0.  1.
         11   -1    0    0    0    0 -0.00000000000E+00 -0.00000000000E+00 -0.45593999997E+02  0.45594000000E+02  0.51100000000E-03 0. -1.
    9900012    2    1    2    0    0  0.11766354243E+00 -0.69859678003E+00  0.94406887287E+00  0.90007683006E+02  0.89999943621E+02 0.  0.
         12    1    1    2    0    0 -0.11766354243E+00  0.69859678003E+00 -0.94406887287E+00  0.11803169943E+01  0.00000000000E+00 0. -1.
         11    1    3    3    0    0  0.33325315357E+01 -0.48003659809E+01 -0.80165198682E+01  0.99203765577E+01  0.51100000000E-03 0. -1.
        -11    1    3    3    0    0 -0.12976347121E+02 -0.32702564096E+02  0.19963960279E+02  0.40452478211E+02  0.51100000000E-03 0.  1.
         12    1    3    3    0    0  0.97614791279E+01  0.36804333297E+02 -0.11003371538E+02  0.39634828237E+02  0.00000000000E+00 0. -1.
</event>
<event>
 7    1  0.1935465E-015  0.9000753E+02  0.7816164E-02  0.1186339E+00
        -11   -1    0    0    0    0  0.00000000000E+00  0.00000000000E+00  0.45593999997E+02  0.45594000000E+02  0.51100000000E-03 0. -1.
         11   -1    0    0    0    0 -0.00000000000E+00 -0.00000000000E+00 -0.45593999997E+02  0.45594000000E+02  0.51100000000E-03 0.  1.
    9900012    2    1    2    0    0  0.22241586980E-01  0.28069175375E+00 -0.11463966192E+01  0.90007530705E+02  0.89999789310E+02 0.  0.
         12    1    1    2    0    0 -0.22241586980E-01 -0.28069175375E+00  0.11463966192E+01  0.11804692954E+01  0.00000000000E+00 0. -1.
         11    1    3    3    0    0 -0.16648358217E+02  0.60966451164E+01  0.33091353810E+02  0.37541638353E+02  0.51100000000E-03 0. -1.
        -11    1    3    3    0    0  0.60525493202E+01  0.77438481787E+01  0.39356584263E+01  0.10587253912E+02  0.51100000000E-03 0.  1.
        -12    1    3    3    0    0  0.10618050484E+02 -0.13559801541E+02 -0.38173408855E+02  0.41878638440E+02  0.00000000000E+00 0.  1.
</event>
<event>
 7    1  0.1935465E-015  0.9000775E+02  0.7816164E-02  0.1186339E+00
        -11   -1    0    0    0    0  0.00000000000E+00  0.00000000000E+00  0.45593999997E+02  0.45594000000E+02  0.51100000000E-03 0.  1.
         11   -1    0    0    0    0 -0.00000000000E+00 -0.00000000000E+00 -0.45593999997E+02  0.45594000000E+02  0.51100000000E-03 0. -1.
    9900012    2    1    2    0    0  0.47820364761E+00  0.10397313471E+01 -0.28855384385E+00  0.90007752855E+02  0.90000014393E+02 0.  0.
         12    1    1    2    0    0 -0.47820364761E+00 -0.10397313471E+01  0.28855384385E+00  0.11802471451E+01  0.00000000000E+00 0. -1.
         11    1    3    3    0    0 -0.46783986501E+01  0.38023849705E+02 -0.11347173055E+02  0.39955711694E+02  0.51100000000E-03 0. -1.
        -11    1    3    3    0    0  0.13743427072E+02 -0.36214402938E+01  0.14450766941E+01  0.14285827396E+02  0.51100000000E-03 0.  1.
        -12    1    3    3    0    0 -0.85868247744E+01 -0.33362678064E+02  0.96135425175E+01  0.35766213765E+02  0.00000000000E+00 0.  1.
</event>
<event>
 7    1  0.1935465E-015  0.9000775E+02  0.7816164E-02  0.1186339E+00
        -11   -1    0    0    0    0  0.00000000000E+00  0.00000000000E+00  0.45593999997E+02  0.45594000000E+02  0.51100000000E-03 0.  1.
         11   -1    0    0    0    0 -0.00000000000E+00 -0.00000000000E+00 -0.45593999997E+02  0.45594000000E+02  0.51100000000E-03 0. -1.
    9900012    2    1    2    0    0  0.10981790024E+01 -0.12031420152E+00  0.41535131336E+00  0.90007750305E+02  0.90000011809E+02 0.  0.
         12    1    1    2    0    0 -0.10981790024E+01  0.12031420152E+00 -0.41535131336E+00  0.11802496947E+01  0.00000000000E+00 0. -1.
         11    1    3    3    0    0 -0.19936109734E+02  0.23611339451E+02 -0.21597922705E+02  0.37701645686E+02  0.51100000000E-03 0. -1.
        -11    1    3    3    0    0  0.62762524104E+01  0.17150623006E+01 -0.79791582909E+01  0.10295618015E+02  0.51100000000E-03 0.  1.
        -12    1    3    3    0    0  0.14758036326E+02 -0.25446715953E+02  0.29992432309E+02  0.42010486605E+02  0.00000000000E+00 0.  1.
</event>
<event>
 7    1  0.1935465E-015  0.9000774E+02  0.7816164E-02  0.1186339E+00
        -11   -1    0    0    0    0  0.00000000000E+00  0.00000000000E+00  0.45593999997E+02  0.45594000000E+02  0.51100000000E-03 0. -1.
         11   -1    0    0    0    0 -0.00000000000E+00 -0.00000000000E+00 -0.45593999997E+02  0.45594000000E+02  0.51100000000E-03 0.  1.
    9900012    2    1    2    0    0  0.28321469728E+00  0.43863197635E-01 -0.11449376858E+01  0.90007738652E+02  0.90000000002E+02 0.  0.
         12    1    1    2    0    0 -0.28321469728E+00 -0.43863197635E-01  0.11449376858E+01  0.11802613478E+01  0.00000000000E+00 0. -1.
         11    1    3    3    0    0  0.32792988703E+02  0.17934237081E+02  0.13059065175E+02  0.39592374913E+02  0.51100000000E-03 0. -1.
        -11    1    3    3    0    0 -0.19665266574E+01 -0.10729806082E+02  0.66214304506E+01  0.12760850564E+02  0.51100000000E-03 0.  1.
        -12    1    3    3    0    0 -0.30543247348E+02 -0.71605678013E+01 -0.20825433311E+02  0.37654513175E+02  0.00000000000E+00 0.  1.
</event>
<event>
 7    1  0.1935465E-015  0.9000767E+02  0.7816164E-02  0.1186339E+00
        -11   -1    0    0    0    0  0.00000000000E+00  0.00000000000E+00  0.45593999997E+02  0.45594000000E+02  0.51100000000E-03 0. -1.
         11   -1    0    0    0    0 -0.00000000000E+00 -0.00000000000E+00 -0.45593999997E+02  0.45594000000E+02  0.51100000000E-03 0.  1.
    9900012    2    1    2    0    0  0.13824857631E+00 -0.11418675352E+01  0.26494394840E+00  0.90007674014E+02  0.89999934511E+02 0.  0.
         12    1    1    2    0    0 -0.13824857631E+00  0.11418675352E+01 -0.26494394840E+00  0.11803259857E+01  0.00000000000E+00 0. -1.
         11    1    3    3    0    0 -0.94613490213E+01  0.18232011620E+01 -0.93991146433E+01  0.13460480828E+02  0.51100000000E-03 0. -1.
        -11    1    3    3    0    0  0.79993073865E+01 -0.53623508834E+01 -0.32698251621E+02  0.34086938627E+02  0.51100000000E-03 0.  1.
         12    1    3    3    0    0  0.16002902111E+01  0.23972821862E+01  0.42362310213E+02  0.42460254559E+02  0.00000000000E+00 0. -1.
</event>
<event>
 7    1  0.1935465E-015  0.9000776E+02  0.7816164E-02  0.1186339E+00
        -11   -1    0    0    0    0  0.00000000000E+00  0.00000000000E+00  0.45593999997E+02  0.45594000000E+02  0.51100000000E-03 0.  1.
         11   -1    0    0    0    0 -0.00000000000E+00 -0.00000000000E+00 -0.45593999997E+02  0.45594000000E+02  0.51100000000E-03 0. -1.
    9900012    2    1    2    0    0  0.45145450034E+00  0.38844271259E+00  0.10189548380E+01  0.90007759402E+02  0.90000021026E+02 0.  0.
         12    1    1    2    0    0 -0.45145450034E+00 -0.38844271259E+00 -0.10189548380E+01  0.11802405978E+01  0.00000000000E+00 0. -1.
         11    1    3    3    0    0  0.20800125177E+02  0.21569348090E+02  0.69114406114E-01  0.29964758658E+02  0.51100000000E-03 0. -1.
        -11    1    3    3    0    0  0.11905129991E+02  0.90768433769E+01 -0.41232402681E+01  0.15528113741E+02  0.51100000000E-03 0.  1.
        -12    1    3    3    0    0 -0.32253800667E+02 -0.30257748754E+02  0.50730807000E+01  0.44514887003E+02  0.00000000000E+00 0.  1.
</event>
<event>
 7    1  0.1935465E-015  0.9000802E+02  0.7816164E-02  0.1186338E+00
        -11   -1    0    0    0    0  0.00000000000E+00  0.00000000000E+00  0.45593999997E+02  0.45594000000E+02  0.51100000000E-03 0.  1.
         11   -1    0    0    0    0 -0.00000000000E+00 -0.00000000000E+00 -0.45593999997E+02  0.45594000000E+02  0.51100000000E-03 0. -1.
    9900012    2    1    2    0    0  0.46243896594E+00 -0.10295893557E+01  0.34414979967E+00  0.90008024101E+02  0.90000289218E+02 0.  0.
         12    1    1    2    0    0 -0.46243896594E+00  0.10295893557E+01 -0.34414979967E+00  0.11799758994E+01  0.00000000000E+00 0. -1.
         11    1    3    3    0    0  0.74321322344E+01 -0.26269948887E+02 -0.29150381773E+02  0.39938597394E+02  0.51100000000E-03 0. -1.
        -11    1    3    3    0    0 -0.13935124821E+02  0.12463822973E+00  0.67830706972E+01  0.15498815658E+02  0.51100000000E-03 0.  1.
        -12    1    3    3    0    0  0.69654315522E+01  0.25115721301E+02  0.22711460875E+02  0.34570611049E+02  0.00000000000E+00 0.  1.
</event>
<event>
 7    1  0.1935465E-015  0.9000779E+02  0.7816164E-02  0.1186339E+00
        -11   -1    0    0    0    0  0.00000000000E+00  0.00000000000E+00  0.45593999997E+02  0.45594000000E+02  0.51100000000E-03 0. -1.
         11   -1    0    0    0    0 -0.00000000000E+00 -0.00000000000E+00 -0.45593999997E+02  0.45594000000E+02  0.51100000000E-03 0.  1.
    9900012    2    1    2    0    0 -0.68397870342E+00 -0.44804734941E+00 -0.85106507803E+00  0.90007794484E+02  0.90000056571E+02 0.  0.
         12    1    1    2    0    0  0.68397870342E+00  0.44804734941E+00  0.85106507803E+00  0.11802055165E+01  0.00000000000E+00 0. -1.
         11    1    3    3    0    0 -0.46325046335E+01 -0.61789992024E+01  0.29864201464E+01  0.82800263209E+01  0.51100000000E-03 0. -1.
        -11    1    3    3    0    0 -0.60467962343E+01 -0.34277582883E+02  0.13040259261E+02  0.37169406705E+02  0.51100000000E-03 0.  1.
         12    1    3    3    0    0  0.99953221643E+01  0.40008534736E+02 -0.16877744485E+02  0.44558361457E+02  0.00000000000E+00 0. -1.
</event>
<event>
 7    1  0.1935465E-015  0.9000756E+02  0.7816164E-02  0.1186339E+00
        -11   -1    0    0    0    0  0.00000000000E+00  0.00000000000E+00  0.45593999997E+02  0.45594000000E+02  0.51100000000E-03 0. -1.
         11   -1    0    0    0    0 -0.00000000000E+00 -0.00000000000E+00 -0.45593999997E+02  0.45594000000E+02  0.51100000000E-03 0.  1.
    9900012    2    1    2    0    0 -0.65693198223E+00  0.96578904645E+00 -0.17068047802E+00  0.90007559431E+02  0.89999818415E+02 0.  0.
         12    1    1    2    0    0  0.65693198223E+00 -0.96578904645E+00  0.17068047802E+00  0.11804405691E+01  0.00000000000E+00 0. -1.
         11    1    3    3    0    0  0.83964607260E+01 -0.45379025788E+01  0.37251039940E+02  0.38454298711E+02  0.51100000000E-03 0. -1.
        -11    1    3    3    0    0 -0.81197076287E+01 -0.39344748153E+01  0.34016482031E+01  0.96426632632E+01  0.51100000000E-03 0.  1.
        -12    1    3    3    0    0 -0.93368507952E+00  0.94381664406E+01 -0.40823368621E+02  0.41910597456E+02  0.00000000000E+00 0.  1.
</event>
<event>
 7    1  0.1935465E-015  0.9000770E+02  0.7816164E-02  0.1186339E+00
        -11   -1    0    0    0    0  0.00000000000E+00  0.00000000000E+00  0.45593999997E+02  0.45594000000E+02  0.51100000000E-03 0. -1.
         11   -1    0    0    0    0 -0.00000000000E+00 -0.00000000000E+00 -0.45593999997E+02  0.45594000000E+02  0.51100000000E-03 0.  1.
    9900012    2    1    2    0    0  0.11626988482E+01 -0.20083887662E+00  0.30094059663E-01  0.90007698971E+02  0.89999959798E+02 0.  0.
         12    1    1    2    0    0 -0.11626988482E+01  0.20083887662E+00 -0.30094059663E-01  0.11803010287E+01  0.00000000000E+00 0. -1.
         11    1    3    3    0    0 -0.23225183430E+02  0.54300378821E+01  0.28395509637E+02  0.37083681378E+02  0.51100000000E-03 0. -1.
        -11    1    3    3    0    0 -0.98228759397E+01  0.55003618544E+00 -0.49896997365E+01  0.11031252660E+02  0.51100000000E-03 0.  1.
        -12    1    3    3    0    0  0.34210758218E+02 -0.61809129442E+01 -0.23375715841E+02  0.41892764933E+02  0.00000000000E+00 0.  1.
</event>
<event>
 7    1  0.1935465E-015  0.9000773E+02  0.7816164E-02  0.1186339E+00
        -11   -1    0    0    0    0  0.00000000000E+00  0.00000000000E+00  0.45593999997E+02  0.45594000000E+02  0.51100000000E-03 0. -1.
         11   -1    0    0    0    0 -0.00000000000E+00 -0.00000000000E+00 -0.45593999997E+02  0.45594000000E+02  0.51100000000E-03 0.  1.
    9900012    2    1    2    0    0 -0.47094904246E-01  0.11635579770E+01 -0.19224109221E+00  0.90007728110E+02  0.89999989321E+02 0.  0.
         12    1    1    2    0    0  0.47094904246E-01 -0.11635579770E+01  0.19224109221E+00  0.11802718896E+01  0.00000000000E+00 0. -1.
         11    1    3    3    0    0  0.98399874649E+00  0.87739549013E+01 -0.22663816280E+01  0.91152083952E+01  0.51100000000E-03 0. -1.
        -11    1    3    3    0    0 -0.18413074815E+02 -0.33003441756E+02 -0.20249585382E+02  0.42875566472E+02  0.51100000000E-03 0.  1.
         12    1    3    3    0    0  0.17381981165E+02  0.25393044832E+02  0.22323725918E+02  0.38016953243E+02  0.00000000000E+00 0. -1.
</event>
<event>
 7    1  0.1935465E-015  0.9000781E+02  0.7816164E-02  0.1186339E+00
        -11   -1    0    0    0    0  0.00000000000E+00  0.00000000000E+00  0.45593999997E+02  0.45594000000E+02  0.51100000000E-03 0.  1.
         11   -1    0    0    0    0 -0.00000000000E+00 -0.00000000000E+00 -0.45593999997E+02  0.45594000000E+02  0.51100000000E-03 0. -1.
    9900012    2    1    2    0    0 -0.56195859562E+00  0.84430561389E+00  0.60348469427E+00  0.90007812214E+02  0.90000074536E+02 0.  0.
         12    1    1    2    0    0  0.56195859562E+00 -0.84430561389E+00 -0.60348469427E+00  0.11801877855E+01  0.00000000000E+00 0. -1.
         11    1    3    3    0    0  0.30659640957E+01 -0.24630442136E+02 -0.27637386748E+02  0.37146789392E+02  0.51100000000E-03 0. -1.
        -11    1    3    3    0    0 -0.47179941702E+01  0.46483284775E+01 -0.84023004726E+01  0.10698835456E+02  0.51100000000E-03 0.  1.
        -12    1    3    3    0    0  0.10900714789E+01  0.20826419272E+02  0.36643171915E+02  0.42162187366E+02  0.00000000000E+00 0.  1.
</event>
<event>
 7    1  0.1935465E-015  0.9000772E+02  0.7816164E-02  0.1186339E+00
        -11   -1    0    0    0    0  0.00000000000E+00  0.00000000000E+00  0.45593999997E+02  0.45594000000E+02  0.51100000000E-03 0.  1.
         11   -1    0    0    0    0 -0.00000000000E+00 -0.00000000000E+00 -0.45593999997E+02  0.45594000000E+02  0.51100000000E-03 0. -1.
    9900012    2    1    2    0    0  0.87664517999E+00  0.27468776817E+00  0.74101121185E+00  0.90007721322E+02  0.89999982443E+02 0.  0.
         12    1    1    2    0    0 -0.87664517999E+00 -0.27468776817E+00 -0.74101121185E+00  0.11802786780E+01  0.00000000000E+00 0. -1.
         11    1    3    3    0    0  0.17957404166E+01  0.23712441808E+02 -0.23134712667E+02  0.33177093161E+02  0.51100000000E-03 0. -1.
        -11    1    3    3    0    0 -0.15441787953E+01 -0.89535576055E+01 -0.13765706127E+02  0.16493797240E+02  0.51100000000E-03 0.  1.
        -12    1    3    3    0    0  0.62508355866E+00 -0.14484196435E+02  0.37641430007E+02  0.40336830921E+02  0.00000000000E+00 0.  1.
</event>
<event>
 7    1  0.1935465E-015  0.9000773E+02  0.7816164E-02  0.1186339E+00
        -11   -1    0    0    0    0  0.00000000000E+00  0.00000000000E+00  0.45593999997E+02  0.45594000000E+02  0.51100000000E-03 0. -1.
         11   -1    0    0    0    0 -0.00000000000E+00 -0.00000000000E+00 -0.45593999997E+02  0.45594000000E+02  0.51100000000E-03 0.  1.
    9900012    2    1    2    0    0  0.87147563785E+00 -0.69863050448E+00 -0.38142394464E+00  0.90007729440E+02  0.89999990669E+02 0.  0.
         12    1    1    2    0    0 -0.87147563785E+00  0.69863050448E+00  0.38142394464E+00  0.11802705600E+01  0.00000000000E+00 0. -1.
         11    1    3    3    0    0  0.38144206065E+02  0.50770612960E+00  0.11947965453E+01  0.38166290898E+02  0.51100000000E-03 0. -1.
        -11    1    3    3    0    0  0.27330613431E+01  0.70901613221E+01  0.67278401571E+01  0.10149081009E+02  0.51100000000E-03 0.  1.
        -12    1    3    3    0    0 -0.40005791770E+02 -0.82964979562E+01 -0.83040606471E+01  0.41692357534E+02  0.00000000000E+00 0.  1.
</event>
<event>
 7    1  0.1935465E-015  0.9000773E+02  0.7816164E-02  0.1186339E+00
        -11   -1    0    0    0    0  0.00000000000E+00  0.00000000000E+00  0.45593999997E+02  0.45594000000E+02  0.51100000000E-03 0.  1.
         11   -1    0    0    0    0 -0.00000000000E+00 -0.00000000000E+00 -0.45593999997E+02  0.45594000000E+02  0.51100000000E-03 0. -1.
    9900012    2    1    2    0    0  0.69535241188E+00  0.90120177905E+00 -0.31202933349E+00  0.90007728028E+02  0.89999989238E+02 0.  0.
         12    1    1    2    0    0 -0.69535241188E+00 -0.90120177905E+00  0.31202933349E+00  0.11802719721E+01  0.00000000000E+00 0. -1.
         11    1    3    3    0    0 -0.29517039109E+01  0.93291498989E+01  0.99839538166E+00  0.98357708093E+01  0.51100000000E-03 0. -1.
        -11    1    3    3    0    0 -0.13607230064E+02  0.32674272280E+02 -0.33197557788E+01  0.35549761712E+02  0.51100000000E-03 0.  1.
         12    1    3    3    0    0  0.17254286387E+02 -0.41102220400E+02  0.20093310636E+01  0.44622195507E+02  0.00000000000E+00 0. -1.
</event>
<event>
 7    1  0.1935465E-015  0.9000760E+02  0.7816164E-02  0.1186339E+00
        -11   -1    0    0    0    0  0.00000000000E+00  0.00000000000E+00  0.45593999997E+02  0.45594000000E+02  0.51100000000E-03 0.  1.
         11   -1    0    0    0    0 -0.00000000000E+00 -0.00000000000E+00 -0.45593999997E+02  0.45594000000E+02  0.51100000000E-03 0. -1.
    9900012    2    1    2    0    0  0.97359100818E+00 -0.39166233844E+00  0.54043768233E+00  0.90007596795E+02  0.89999856272E+02 0.  0.
         12    1    1    2    0    0 -0.97359100818E+00  0.39166233844E+00 -0.54043768233E+00  0.11804032053E+01  0.00000000000E+00 0. -1.
         11    1    3    3    0    0  0.19651307335E+02  0.50002151585E+01 -0.34604902836E+02  0.40108295054E+02  0.51100000000E-03 0. -1.
        -11    1    3    3    0    0  0.75265564378E+01 -0.19678961118E+01  0.31295018924E+01  0.83854307745E+01  0.51100000000E-03 0.  1.
        -12    1    3    3    0    0 -0.26204272765E+02 -0.34239813851E+01  0.32015838626E+02  0.41513870966E+02  0.00000000000E+00 0.  1.
</event>
<event>
 7    1  0.1935465E-015  0.9000772E+02  0.7816164E-02  0.1186339E+00
        -11   -1    0    0    0    0  0.00000000000E+00  0.00000000000E+00  0.45593999997E+02  0.45594000000E+02  0.51100000000E-03 0. -1.
         11   -1    0    0    0    0 -0.00000000000E+00 -0.00000000000E+00 -0.45593999997E+02  0.45594000000E+02  0.51100000000E-03 0.  1.
    9900012    2    1    2    0    0 -0.10523383116E+00 -0.92797046410E+00 -0.72169942332E+00  0.90007723168E+02  0.89999984314E+02 0.  0.
         12    1    1    2    0    0  0.10523383116E+00  0.92797046410E+00  0.72169942332E+00  0.11802768315E+01  0.00000000000E+00 0. -1.
         11    1    3    3    0    0 -0.13206951178E+01 -0.10564263991E+02 -0.26189671631E+01  0.10963890666E+02  0.51100000000E-03 0. -1.
        -11    1    3    3    0    0 -0.23424215850E+02 -0.99403602709E+01 -0.26440000633E+02  0.36695752945E+02  0.51100000000E-03 0.  1.
         12    1    3    3    0    0  0.24639677137E+02  0.19576653798E+02  0.28337268373E+02  0.42348079557E+02  0.00000000000E+00 0. -1.
</event>
<event>
 7    1  0.1935465E-015  0.9000764E+02  0.7816164E-02  0.1186339E+00
        -11   -1    0    0    0    0  0.00000000000E+00  0.00000000000E+00  0.45593999997E+02  0.45594000000E+02  0.51100000000E-03 0.  1.
         11   -1    0    0    0    0 -0.00000000000E+00 -0.00000000000E+00 -0.45593999997E+02  0.45594000000E+02  0.51100000000E-03 0. -1.
    9900012    2    1    2    0    0 -0.24882697632E+00  0.54996014000E+00 -0.10143311650E+01  0.90007644659E+02  0.89999904768E+02 0.  0.
         12    1    1    2    0    0  0.24882697632E+00 -0.54996014000E+00  0.10143311650E+01  0.11803553414E+01  0.00000000000E+00 0. -1.
         11    1    3    3    0    0  0.51557762181E+01 -0.89737579175E+00  0.79041191609E+01  0.94795786665E+01  0.51100000000E-03 0. -1.
        -11    1    3    3    0    0  0.62018700219E+01  0.20691136532E+02  0.29174205781E+02  0.36300421567E+02  0.51100000000E-03 0.  1.
         12    1    3    3    0    0 -0.11606473216E+02 -0.19243800600E+02 -0.38092656107E+02  0.44227644425E+02  0.00000000000E+00 0. -1.
</event>
<event>
 7    1  0.2551351E-015  0.9000778E+02  0.7816164E-02  0.1186339E+00
        -11   -1    0    0    0    0  0.00000000000E+00  0.00000000000E+00  0.45593999997E+02  0.45594000000E+02  0.51100000000E-03 0. -1.
         11   -1    0    0    0    0 -0.00000000000E+00 -0.00000000000E+00 -0.45593999997E+02  0.45594000000E+02  0.51100000000E-03 0.  1.
    9900012    2    1    2    0    0 -0.71621175524E+00 -0.11405923879E+00 -0.93109570243E+00  0.90007784767E+02  0.90000046726E+02 0.  0.
         12    1    1    2    0    0  0.71621175524E+00  0.11405923879E+00  0.93109570243E+00  0.11802152327E+01  0.00000000000E+00 0. -1.
         11    1    3    3    0    0  0.45638286635E+01 -0.77612506227E+00 -0.82795814435E+01  0.94859038222E+01  0.51100000000E-03 0. -1.
        -11    1    3    3    0    0  0.30497584435E+02 -0.72349993555E+01 -0.17834873524E+02  0.36062869907E+02  0.51100000000E-03 0.  1.
         12    1    3    3    0    0 -0.35777624854E+02  0.78970651790E+01  0.25183359265E+02  0.44459011038E+02  0.00000000000E+00 0. -1.
</event>
<event>
 7    1  0.1935465E-015  0.9000773E+02  0.7816164E-02  0.1186339E+00
        -11   -1    0    0    0    0  0.00000000000E+00  0.00000000000E+00  0.45593999997E+02  0.45594000000E+02  0.51100000000E-03 0.  1.
         11   -1    0    0    0    0 -0.00000000000E+00 -0.00000000000E+00 -0.45593999997E+02  0.45594000000E+02  0.51100000000E-03 0. -1.
    9900012    2    1    2    0    0  0.14847610547E+00  0.11479494251E+01  0.23065753397E+00  0.90007730567E+02  0.89999991810E+02 0.  0.
         12    1    1    2    0    0 -0.14847610547E+00 -0.11479494251E+01 -0.23065753397E+00  0.11802694330E+01  0.00000000000E+00 0. -1.
         11    1    3    3    0    0 -0.50755041119E+00  0.17679672087E+02 -0.37395466897E+01  0.18077959571E+02  0.51100000000E-03 0. -1.
        -11    1    3    3    0    0  0.10618623947E+02  0.13998994259E+02  0.27138486223E+02  0.32329931172E+02  0.51100000000E-03 0.  1.
         12    1    3    3    0    0 -0.99625974304E+01 -0.30530716922E+02 -0.23168282000E+02  0.39599839825E+02  0.00000000000E+00 0. -1.
</event>
<event>
 7    1  0.1935465E-015  0.9000793E+02  0.7816164E-02  0.1186339E+00
        -11   -1    0    0    0    0  0.00000000000E+00  0.00000000000E+00  0.45593999997E+02  0.45594000000E+02  0.51100000000E-03 0. -1.
         11   -1    0    0    0    0 -0.00000000000E+00 -0.00000000000E+00 -0.45593999997E+02  0.45594000000E+02  0.51100000000E-03 0.  1.
    9900012    2    1    2    0    0  0.81722674425E+00 -0.18425036553E+00 -0.83112166795E+00  0.90007927555E+02  0.90000191398E+02 0.  0.
         12    1    1    2    0    0 -0.81722674425E+00  0.18425036553E+00  0.83112166795E+00  0.11800724451E+01  0.00000000000E+00 0. -1.
         11    1    3    3    0    0 -0.16748997797E+02  0.10345816525E+02  0.31223368034E+02  0.36911564021E+02  0.51100000000E-03 0. -1.
        -11    1    3    3    0    0 -0.47301269186E+01 -0.46700800578E+01  0.57686883870E+01  0.88012223230E+01  0.51100000000E-03 0.  1.
        -12    1    3    3    0    0  0.22296351460E+02 -0.58599868331E+01 -0.37823178089E+02  0.44295141211E+02  0.00000000000E+00 0.  1.
</event>
<event>
 7    1  0.1935465E-015  0.9000774E+02  0.7816164E-02  0.1186339E+00
        -11   -1    0    0    0    0  0.00000000000E+00  0.00000000000E+00  0.45593999997E+02  0.45594000000E+02  0.51100000000E-03 0.  1.
         11   -1    0    0    0    0 -0.00000000000E+00 -0.00000000000E+00 -0.45593999997E+02  0.45594000000E+02  0.51100000000E-03 0. -1.
    9900012    2    1    2    0    0  0.45203336238E+00 -0.10296625575E+01  0.35844386358E+00  0.90007736832E+02  0.89999998158E+02 0.  0.
         12    1    1    2    0    0 -0.45203336238E+00  0.10296625575E+01 -0.35844386358E+00  0.11802631682E+01  0.00000000000E+00 0. -1.
         11    1    3    3    0    0  0.27886919356E+01  0.83486772029E+01  0.15287541641E+01  0.89338851182E+01  0.51100000000E-03 0. -1.
        -11    1    3    3    0    0 -0.32598949703E+02  0.14501322610E+02  0.15717857848E+02  0.38987574107E+02  0.51100000000E-03 0.  1.
         12    1    3    3    0    0  0.30262291130E+02 -0.23879662370E+02 -0.16888168149E+02  0.42086277606E+02  0.00000000000E+00 0. -1.
</event>
<event>
 7    1  0.1935465E-015  0.9000782E+02  0.7816164E-02  0.1186339E+00
        -11   -1    0    0    0    0  0.00000000000E+00  0.00000000000E+00  0.45593999997E+02  0.45594000000E+02  0.51100000000E-03 0. -1.
         11   -1    0    0    0    0 -0.00000000000E+00 -0.00000000000E+00 -0.45593999997E+02  0.45594000000E+02  0.51100000000E-03 0.  1.
    9900012    2    1    2    0    0  0.10247971620E+01  0.23043281679E+00 -0.53806130528E+00  0.90007822694E+02  0.90000085153E+02 0.  0.
         12    1    1    2    0    0 -0.10247971620E+01 -0.23043281679E+00  0.53806130528E+00  0.11801773064E+01  0.00000000000E+00 0. -1.
         11    1    3    3    0    0  0.20572924690E+02  0.26549298941E+02 -0.22964019840E+02  0.40687304064E+02  0.51100000000E-03 0. -1.
        -11    1    3    3    0    0 -0.90554588080E+01  0.51756258244E+01  0.29784977989E+01  0.10847114192E+02  0.51100000000E-03 0.  1.
        -12    1    3    3    0    0 -0.10492668720E+02 -0.31494491948E+02  0.19447460736E+02  0.38473404437E+02  0.00000000000E+00 0.  1.
</event>
<event>
 7    1  0.1935465E-015  0.9000762E+02  0.7816164E-02  0.1186339E+00
        -11   -1    0    0    0    0  0.00000000000E+00  0.00000000000E+00  0.45593999997E+02  0.45594000000E+02  0.51100000000E-03 0.  1.
         11   -1    0    0    0    0 -0.00000000000E+00 -0.00000000000E+00 -0.45593999997E+02  0.45594000000E+02  0.51100000000E-03 0. -1.
    9900012    2    1    2    0    0 -0.11148024419E+01  0.38528167840E+00 -0.45459919304E-01  0.90007621645E+02  0.89999881451E+02 0.  0.
         12    1    1    2    0    0  0.11148024419E+01 -0.38528167840E+00  0.45459919304E-01  0.11803783548E+01  0.00000000000E+00 0. -1.
         11    1    3    3    0    0  0.14203501124E+01 -0.11895762654E+02  0.76904582545E+01  0.14236211293E+02  0.51100000000E-03 0. -1.
        -11    1    3    3    0    0  0.39644204138E+01 -0.26041468386E+02  0.15423979419E+02  0.30524970865E+02  0.51100000000E-03 0.  1.
         12    1    3    3    0    0 -0.64995729680E+01  0.38322512718E+02 -0.23159897593E+02  0.45246439488E+02  0.00000000000E+00 0. -1.
</event>
<event>
 7    1  0.1935465E-015  0.9000758E+02  0.7816164E-02  0.1186339E+00
        -11   -1    0    0    0    0  0.00000000000E+00  0.00000000000E+00  0.45593999997E+02  0.45594000000E+02  0.51100000000E-03 0.  1.
         11   -1    0    0    0    0 -0.00000000000E+00 -0.00000000000E+00 -0.45593999997E+02  0.45594000000E+02  0.51100000000E-03 0. -1.
    9900012    2    1    2    0    0  0.41286722755E+00  0.82966055845E+00  0.73116783999E+00  0.90007575331E+02  0.89999834525E+02 0.  0.
         12    1    1    2    0    0 -0.41286722755E+00 -0.82966055845E+00 -0.73116783999E+00  0.11804246694E+01  0.00000000000E+00 0. -1.
         11    1    3    3    0    0  0.30011638448E+02  0.13740440302E+02 -0.12776451987E+02  0.35394008923E+02  0.51100000000E-03 0. -1.
        -11    1    3    3    0    0  0.67166022242E+01  0.11585099222E+01 -0.76877179236E+01  0.10274039995E+02  0.51100000000E-03 0.  1.
        -12    1    3    3    0    0 -0.36315373445E+02 -0.14069289666E+02  0.21195337750E+02  0.44339526413E+02  0.00000000000E+00 0.  1.
</event>
<event>
 7    1  0.1935465E-015  0.9000784E+02  0.7816164E-02  0.1186339E+00
        -11   -1    0    0    0    0  0.00000000000E+00  0.00000000000E+00  0.45593999997E+02  0.45594000000E+02  0.51100000000E-03 0.  1.
         11   -1    0    0    0    0 -0.00000000000E+00 -0.00000000000E+00 -0.45593999997E+02  0.45594000000E+02  0.51100000000E-03 0. -1.
    9900012    2    1    2    0    0 -0.41678182266E+00 -0.10244806041E+01  0.41172766385E+00  0.90007835916E+02  0.90000098550E+02 0.  0.
         12    1    1    2    0    0  0.41678182266E+00  0.10244806041E+01 -0.41172766385E+00  0.11801640840E+01  0.00000000000E+00 0. -1.
         11    1    3    3    0    0 -0.28241537224E+02  0.13514745713E+02 -0.22847615055E+02  0.38758822098E+02  0.51100000000E-03 0. -1.
        -11    1    3    3    0    0 -0.31639559328E+01  0.70525891769E+01  0.56617597285E+01  0.95815006511E+01  0.51100000000E-03 0.  1.
        -12    1    3    3    0    0  0.30988711334E+02 -0.21591815494E+02  0.17597582990E+02  0.41667513167E+02  0.00000000000E+00 0.  1.
</event>
<event>
 7    1  0.1935465E-015  0.9000778E+02  0.7816164E-02  0.1186339E+00
        -11   -1    0    0    0    0  0.00000000000E+00  0.00000000000E+00  0.45593999997E+02  0.45594000000E+02  0.51100000000E-03 0.  1.
         11   -1    0    0    0    0 -0.00000000000E+00 -0.00000000000E+00 -0.45593999997E+02  0.45594000000E+02  0.51100000000E-03 0. -1.
    9900012    2    1    2    0    0  0.37389379354E-01  0.11795768552E+01  0.11273876155E-01  0.90007776876E+02  0.90000038730E+02 0.  0.
         12    1    1    2    0    0 -0.37389379354E-01 -0.11795768552E+01 -0.11273876155E-01  0.11802231244E+01  0.00000000000E+00 0. -1.
         11    1    3    3    0    0  0.33725378848E+02  0.33615219274E+01  0.21969793322E+02  0.40390256584E+02  0.51100000000E-03 0. -1.
        -11    1    3    3    0    0 -0.70649919871E+01  0.21325116367E+01  0.69105649571E+01  0.10110273287E+02  0.51100000000E-03 0.  1.
        -12    1    3    3    0    0 -0.26622997481E+02 -0.43144567089E+01 -0.28869084403E+02  0.39507247004E+02  0.00000000000E+00 0.  1.
</event>
<event>
 7    1  0.1935465E-015  0.9000779E+02  0.7816164E-02  0.1186339E+00
        -11   -1    0    0    0    0  0.00000000000E+00  0.00000000000E+00  0.45593999997E+02  0.45594000000E+02  0.51100000000E-03 0. -1.
         11   -1    0    0    0    0 -0.00000000000E+00 -0.00000000000E+00 -0.45593999997E+02  0.45594000000E+02  0.51100000000E-03 0.  1.
    9900012    2    1    2    0    0  0.20168080056E+00 -0.96672909827E+00 -0.64626746991E+00  0.90007787334E+02  0.90000049327E+02 0.  0.
         12    1    1    2    0    0 -0.20168080056E+00  0.96672909827E+00  0.64626746991E+00  0.11802126662E+01  0.00000000000E+00 0. -1.
         11    1    3    3    0    0  0.11398442125E+02  0.39721365105E+00  0.12691486508E+01  0.11475757061E+02  0.51100000000E-03 0. -1.
        -11    1    3    3    0    0 -0.28667842727E+02 -0.31008308325E+02 -0.95255672312E+01  0.43290839945E+02  0.51100000000E-03 0.  1.
         12    1    3    3    0    0  0.17471081402E+02  0.29644365576E+02  0.76101511104E+01  0.35241190328E+02  0.00000000000E+00 0. -1.
</event>
<event>
 7    1  0.1935465E-015  0.9000757E+02  0.7816164E-02  0.1186339E+00
        -11   -1    0    0    0    0  0.00000000000E+00  0.00000000000E+00  0.45593999997E+02  0.45594000000E+02  0.51100000000E-03 0.  1.
         11   -1    0    0    0    0 -0.00000000000E+00 -0.00000000000E+00 -0.45593999997E+02  0.45594000000E+02  0.51100000000E-03 0. -1.
    9900012    2    1    2    0    0 -0.97968428638E+00 -0.61941956623E+00  0.22349057907E+00  0.90007572137E+02  0.89999831289E+02 0.  0.
         12    1    1    2    0    0  0.97968428638E+00  0.61941956623E+00 -0.22349057907E+00  0.11804278627E+01  0.00000000000E+00 0. -1.
         11    1    3    3    0    0  0.51325993307E+01 -0.34808082983E+01 -0.60072182055E+01  0.86340183651E+01  0.51100000000E-03 0. -1.
        -11    1    3    3    0    0  0.25609498715E+02 -0.23243842705E+02 -0.11753051913E+02  0.36527481129E+02  0.51100000000E-03 0.  1.
         12    1    3    3    0    0 -0.31721782332E+02  0.26105231437E+02  0.17983760698E+02  0.44846072643E+02  0.00000000000E+00 0. -1.
</event>
<event>
 7    1  0.1935465E-015  0.9000775E+02  0.7816164E-02  0.1186339E+00
        -11   -1    0    0    0    0  0.00000000000E+00  0.00000000000E+00  0.45593999997E+02  0.45594000000E+02  0.51100000000E-03 0. -1.
         11   -1    0    0    0    0 -0.00000000000E+00 -0.00000000000E+00 -0.45593999997E+02  0.45594000000E+02  0.51100000000E-03 0.  1.
    9900012    2    1    2    0    0  0.38103541637E+00 -0.11034054453E+01 -0.17403817466E+00  0.90007753902E+02  0.90000015454E+02 0.  0.
         12    1    1    2    0    0 -0.38103541637E+00  0.11034054453E+01  0.17403817466E+00  0.11802460978E+01  0.00000000000E+00 0. -1.
         11    1    3    3    0    0  0.30520758720E+02 -0.86602417287E+01 -0.36064947146E+01  0.31929975008E+02  0.51100000000E-03 0. -1.
        -11    1    3    3    0    0  0.89290903847E+01  0.40586892645E+01  0.14331658472E+02  0.17366578491E+02  0.51100000000E-03 0.  1.
        -12    1    3    3    0    0 -0.39068813688E+02  0.34981470189E+01 -0.10899201932E+02  0.40711200404E+02  0.00000000000E+00 0.  1.
</event>
<event>
 7    1  0.1935465E-015  0.9000834E+02  0.7816164E-02  0.1186338E+00
        -11   -1    0    0    0    0  0.00000000000E+00  0.00000000000E+00  0.45593999997E+02  0.45594000000E+02  0.51100000000E-03 0. -1.
         11   -1    0    0    0    0 -0.00000000000E+00 -0.00000000000E+00 -0.45593999997E+02  0.45594000000E+02  0.51100000000E-03 0.  1.
    9900012    2    1    2    0    0  0.59185430333E+00 -0.52792474548E+00 -0.87327707370E+00  0.90008335259E+02  0.90000604483E+02 0.  0.
         12    1    1    2    0    0 -0.59185430333E+00  0.52792474548E+00  0.87327707370E+00  0.11796647408E+01  0.00000000000E+00 0. -1.
         11    1    3    3    0    0  0.67906834153E+01 -0.91840789305E+00 -0.21748356727E+01  0.71893507891E+01  0.51100000000E-03 0. -1.
        -11    1    3    3    0    0  0.41569720381E+01 -0.11168234442E+02 -0.38392262547E+02  0.40199200251E+02  0.51100000000E-03 0.  1.
         12    1    3    3    0    0 -0.10355801150E+02  0.11558717590E+02  0.39693821146E+02  0.42619784219E+02  0.00000000000E+00 0. -1.
</event>
<event>
 7    1  0.1935465E-015  0.9000779E+02  0.7816164E-02  0.1186339E+00
        -11   -1    0    0    0    0  0.00000000000E+00  0.00000000000E+00  0.45593999997E+02  0.45594000000E+02  0.51100000000E-03 0. -1.
         11   -1    0    0    0    0 -0.00000000000E+00 -0.00000000000E+00 -0.45593999997E+02  0.45594000000E+02  0.51100000000E-03 0.  1.
    9900012    2    1    2    0    0  0.98889530818E+00 -0.56967954733E+00  0.30074629339E+00  0.90007789404E+02  0.90000051424E+02 0.  0.
         12    1    1    2    0    0 -0.98889530818E+00  0.56967954733E+00 -0.30074629339E+00  0.11802105957E+01  0.00000000000E+00 0. -1.
         11    1    3    3    0    0  0.24965785644E+01 -0.40492592305E+02  0.86489048276E+01  0.41481158266E+02  0.51100000000E-03 0. -1.
        -11    1    3    3    0    0 -0.35863306920E+01  0.22323646430E+00 -0.80012432703E+01  0.87710601687E+01  0.51100000000E-03 0.  1.
        -12    1    3    3    0    0  0.20786474357E+01  0.39699676293E+02 -0.34691526392E+00  0.39755570970E+02  0.00000000000E+00 0.  1.
</event>
<event>
 7    1  0.1935465E-015  0.9000786E+02  0.7816164E-02  0.1186339E+00
        -11   -1    0    0    0    0  0.00000000000E+00  0.00000000000E+00  0.45593999997E+02  0.45594000000E+02  0.51100000000E-03 0. -1.
         11   -1    0    0    0    0 -0.00000000000E+00 -0.00000000000E+00 -0.45593999997E+02  0.45594000000E+02  0.51100000000E-03 0.  1.
    9900012    2    1    2    0    0  0.21646684568E+00  0.11442724301E+01  0.19110635432E+00  0.90007856395E+02  0.90000119299E+02 0.  0.
         12    1    1    2    0    0 -0.21646684568E+00 -0.11442724301E+01 -0.19110635432E+00  0.11801436050E+01  0.00000000000E+00 0. -1.
         11    1    3    3    0    0 -0.20467811653E+01 -0.25002572316E+02  0.25293393571E+02  0.35624060608E+02  0.51100000000E-03 0. -1.
        -11    1    3    3    0    0 -0.42821087930E+01 -0.49513481301E+01  0.67404268610E+01  0.93960448355E+01  0.51100000000E-03 0.  1.
        -12    1    3    3    0    0  0.65453568039E+01  0.31098192877E+02 -0.31842714078E+02  0.44987750952E+02  0.00000000000E+00 0.  1.
</event>
<event>
 7    1  0.1935465E-015  0.9000769E+02  0.7816164E-02  0.1186339E+00
        -11   -1    0    0    0    0  0.00000000000E+00  0.00000000000E+00  0.45593999997E+02  0.45594000000E+02  0.51100000000E-03 0. -1.
         11   -1    0    0    0    0 -0.00000000000E+00 -0.00000000000E+00 -0.45593999997E+02  0.45594000000E+02  0.51100000000E-03 0.  1.
    9900012    2    1    2    0    0 -0.69194377307E+00  0.94331829446E+00 -0.15649130057E+00  0.90007692787E+02  0.89999953532E+02 0.  0.
         12    1    1    2    0    0  0.69194377307E+00 -0.94331829446E+00  0.15649130057E+00  0.11803072129E+01  0.00000000000E+00 0. -1.
         11    1    3    3    0    0 -0.34738254666E+01 -0.54719719746E+01 -0.67993966599E+01  0.93937072481E+01  0.51100000000E-03 0. -1.
        -11    1    3    3    0    0 -0.12028116552E+02 -0.28112944491E+01 -0.34112678058E+02  0.36280211808E+02  0.51100000000E-03 0.  1.
         12    1    3    3    0    0  0.14809998246E+02  0.92265847182E+01  0.40755583417E+02  0.44333773731E+02  0.00000000000E+00 0. -1.
</event>
<event>
 7    1  0.1935465E-015  0.9000771E+02  0.7816164E-02  0.1186339E+00
        -11   -1    0    0    0    0  0.00000000000E+00  0.00000000000E+00  0.45593999997E+02  0.45594000000E+02  0.51100000000E-03 0. -1.
         11   -1    0    0    0    0 -0.00000000000E+00 -0.00000000000E+00 -0.45593999997E+02  0.45594000000E+02  0.51100000000E-03 0.  1.
    9900012    2    1    2    0    0  0.11099326383E+01  0.86170565431E-01 -0.39205416162E+00  0.90007710928E+02  0.89999971912E+02 0.  0.
         12    1    1    2    0    0 -0.11099326383E+01 -0.86170565431E-01  0.39205416162E+00  0.11802890720E+01  0.00000000000E+00 0. -1.
         11    1    3    3    0    0  0.88886713051E+01 -0.38377157579E+02  0.11679342746E+02  0.41087975719E+02  0.51100000000E-03 0. -1.
        -11    1    3    3    0    0 -0.89293064004E+01  0.14591363819E+01  0.20825038845E+01  0.92843101232E+01  0.51100000000E-03 0.  1.
        -12    1    3    3    0    0  0.11505677336E+01  0.37004191763E+02 -0.14153900792E+02  0.39635425086E+02  0.00000000000E+00 0.  1.
</event>
<event>
 7    1  0.1935465E-015  0.9000769E+02  0.7816164E-02  0.1186339E+00
        -11   -1    0    0    0    0  0.00000000000E+00  0.00000000000E+00  0.45593999997E+02  0.45594000000E+02  0.51100000000E-03 0. -1.
         11   -1    0    0    0    0 -0.00000000000E+00 -0.00000000000E+00 -0.45593999997E+02  0.45594000000E+02  0.51100000000E-03 0.  1.
    9900012    2    1    2    0    0  0.55889153469E+00  0.99224194842E+00 -0.31019067368E+00  0.90007694071E+02  0.89999954833E+02 0.  0.
         12    1    1    2    0    0 -0.55889153469E+00 -0.99224194842E+00  0.31019067368E+00  0.11803059289E+01  0.00000000000E+00 0. -1.
         11    1    3    3    0    0  0.20211814096E+02  0.21364298844E+02 -0.28735880541E+02  0.41118141068E+02  0.51100000000E-03 0. -1.
        -11    1    3    3    0    0 -0.72280246553E+01  0.50626463823E+01  0.73111709032E-01  0.88249688041E+01  0.51100000000E-03 0.  1.
        -12    1    3    3    0    0 -0.12424897906E+02 -0.25434703278E+02  0.28352578159E+02  0.40064584199E+02  0.00000000000E+00 0.  1.
</event>
<event>
 7    1  0.1935465E-015  0.9000773E+02  0.7816164E-02  0.1186339E+00
        -11   -1    0    0    0    0  0.00000000000E+00  0.00000000000E+00  0.45593999997E+02  0.45594000000E+02  0.51100000000E-03 0. -1.
         11   -1    0    0    0    0 -0.00000000000E+00 -0.00000000000E+00 -0.45593999997E+02  0.45594000000E+02  0.51100000000E-03 0.  1.
    9900012    2    1    2    0    0 -0.83011850901E+00  0.79906577670E+00  0.25580376105E+00  0.90007729515E+02  0.89999990744E+02 0.  0.
         12    1    1    2    0    0  0.83011850901E+00 -0.79906577670E+00 -0.25580376105E+00  0.11802704854E+01  0.00000000000E+00 0. -1.
         11    1    3    3    0    0 -0.26968246527E+00 -0.67246180399E+01  0.52061358694E+01  0.85086466237E+01  0.51100000000E-03 0. -1.
        -11    1    3    3    0    0  0.24145381115E+01 -0.22629439086E+02 -0.33081738213E+02  0.40153740935E+02  0.51100000000E-03 0.  1.
         12    1    3    3    0    0 -0.29749741553E+01  0.30153122903E+02  0.28131406105E+02  0.41345341956E+02  0.00000000000E+00 0. -1.
</event>
<event>
 7    1  0.1935465E-015  0.9000770E+02  0.7816164E-02  0.1186339E+00
        -11   -1    0    0    0    0  0.00000000000E+00  0.00000000000E+00  0.45593999997E+02  0.45594000000E+02  0.51100000000E-03 0.  1.
         11   -1    0    0    0    0 -0.00000000000E+00 -0.00000000000E+00 -0.45593999997E+02  0.45594000000E+02  0.51100000000E-03 0. -1.
    9900012    2    1    2    0    0  0.39565543320E-01 -0.68945458375E+00  0.95717965217E+00  0.90007700910E+02  0.89999961762E+02 0.  0.
         12    1    1    2    0    0 -0.39565543320E-01  0.68945458375E+00 -0.95717965217E+00  0.11802990900E+01  0.00000000000E+00 0. -1.
         11    1    3    3    0    0  0.56562215016E+01 -0.66597342620E+01 -0.76252201738E+01  0.11596934296E+02  0.51100000000E-03 0. -1.
        -11    1    3    3    0    0  0.58004321992E+01 -0.17286059799E+02  0.36206634076E+02  0.40538540038E+02  0.51100000000E-03 0.  1.
         12    1    3    3    0    0 -0.11417088158E+02  0.23256339477E+02 -0.27624234250E+02  0.37872226575E+02  0.00000000000E+00 0. -1.
</event>
<event>
 7    1  0.1935465E-015  0.9000772E+02  0.7816164E-02  0.1186339E+00
        -11   -1    0    0    0    0  0.00000000000E+00  0.00000000000E+00  0.45593999997E+02  0.45594000000E+02  0.51100000000E-03 0.  1.
         11   -1    0    0    0    0 -0.00000000000E+00 -0.00000000000E+00 -0.45593999997E+02  0.45594000000E+02  0.51100000000E-03 0. -1.
    9900012    2    1    2    0    0  0.13220687811E+00 -0.90937838344E+00  0.74069036961E+00  0.90007716167E+02  0.89999977220E+02 0.  0.
         12    1    1    2    0    0 -0.13220687811E+00  0.90937838344E+00 -0.74069036961E+00  0.11802838330E+01  0.00000000000E+00 0. -1.
         11    1    3    3    0    0 -0.18660579485E+02  0.31178589050E+02 -0.12876821646E+02  0.38550410864E+02  0.51100000000E-03 0. -1.
        -11    1    3    3    0    0  0.46358298864E+01  0.66815647857E+01  0.40703488026E+01  0.90940621483E+01  0.51100000000E-03 0.  1.
        -12    1    3    3    0    0  0.14156956477E+02 -0.38769532219E+02  0.95471632130E+01  0.42363243154E+02  0.00000000000E+00 0.  1.
</event>
<event>
 7    1  0.1935465E-015  0.9000770E+02  0.7816164E-02  0.1186339E+00
        -11   -1    0    0    0    0  0.00000000000E+00  0.00000000000E+00  0.45593999997E+02  0.45594000000E+02  0.51100000000E-03 0. -1.
         11   -1    0    0    0    0 -0.00000000000E+00 -0.00000000000E+00 -0.45593999997E+02  0.45594000000E+02  0.51100000000E-03 0.  1.
    9900012    2    1    2    0    0  0.11315577093E+01 -0.25583171817E+00 -0.21731296911E+00  0.90007704425E+02  0.89999965324E+02 0.  0.
         12    1    1    2    0    0 -0.11315577093E+01  0.25583171817E+00  0.21731296911E+00  0.11802955749E+01  0.00000000000E+00 0. -1.
         11    1    3    3    0    0 -0.48415520863E+01 -0.88370348810E+01 -0.50487000680E+01  0.11270456279E+02  0.51100000000E-03 0. -1.
        -11    1    3    3    0    0  0.34971252763E+02  0.16979342089E+02 -0.16019902439E+02  0.42046686576E+02  0.51100000000E-03 0.  1.
         12    1    3    3    0    0 -0.28998142967E+02 -0.83981389257E+01  0.20851289538E+02  0.36690561571E+02  0.00000000000E+00 0. -1.
</event>
<event>
 7    1  0.1935465E-015  0.9000757E+02  0.7816164E-02  0.1186339E+00
        -11   -1    0    0    0    0  0.00000000000E+00  0.00000000000E+00  0.45593999997E+02  0.45594000000E+02  0.51100000000E-03 0.  1.
         11   -1    0    0    0    0 -0.00000000000E+00 -0.00000000000E+00 -0.45593999997E+02  0.45594000000E+02  0.51100000000E-03 0. -1.
    9900012    2    1    2    0    0  0.25086695913E+00  0.19899272914E+00  0.11361726314E+01  0.90007567628E+02  0.89999826720E+02 0.  0.
         12    1    1    2    0    0 -0.25086695913E+00 -0.19899272914E+00 -0.11361726314E+01  0.11804323724E+01  0.00000000000E+00 0. -1.
         11    1    3    3    0    0  0.31552151824E+01  0.34652596502E+01  0.73716716151E+00  0.47441356405E+01  0.51100000000E-03 0. -1.
        -11    1    3    3    0    0  0.34219858551E+02  0.13152916528E+02 -0.17828471114E+02  0.40765822879E+02  0.51100000000E-03 0.  1.
         12    1    3    3    0    0 -0.37124206774E+02 -0.16419183449E+02  0.18227476584E+02  0.44497609108E+02  0.00000000000E+00 0. -1.
</event>
<event>
 7    1  0.1935465E-015  0.9000765E+02  0.7816164E-02  0.1186339E+00
        -11   -1    0    0    0    0  0.00000000000E+00  0.00000000000E+00  0.45593999997E+02  0.45594000000E+02  0.51100000000E-03 0. -1.
         11   -1    0    0    0    0 -0.00000000000E+00 -0.00000000000E+00 -0.45593999997E+02  0.45594000000E+02  0.51100000000E-03 0.  1.
    9900012    2    1    2    0    0  0.12227309989E+00  0.38014929035E+00 -0.11107470771E+01  0.90007651211E+02  0.89999911407E+02 0.  0.
         12    1    1    2    0    0 -0.12227309989E+00 -0.38014929035E+00  0.11107470771E+01  0.11803487888E+01  0.00000000000E+00 0. -1.
         11    1    3    3    0    0 -0.22901164425E+01 -0.35078485550E+01 -0.41409005506E+01  0.58903898374E+01  0.51100000000E-03 0. -1.
        -11    1    3    3    0    0 -0.15981503044E+02 -0.34858538582E+02  0.12230671091E+02  0.40250657972E+02  0.51100000000E-03 0.  1.
         12    1    3    3    0    0  0.18393892587E+02  0.38746536427E+02 -0.92005176171E+01  0.43866603402E+02  0.00000000000E+00 0. -1.
</event>
<event>
 7    1  0.1935465E-015  0.9000778E+02  0.7816164E-02  0.1186339E+00
        -11   -1    0    0    0    0  0.00000000000E+00  0.00000000000E+00  0.45593999997E+02  0.45594000000E+02  0.51100000000E-03 0.  1.
         11   -1    0    0    0    0 -0.00000000000E+00 -0.00000000000E+00 -0.45593999997E+02  0.45594000000E+02  0.51100000000E-03 0. -1.
    9900012    2    1    2    0    0 -0.21598474954E+00  0.74585783819E+00  0.88880318012E+00  0.90007777809E+02  0.90000039676E+02 0.  0.
         12    1    1    2    0    0  0.21598474954E+00 -0.74585783819E+00 -0.88880318012E+00  0.11802221909E+01  0.00000000000E+00 0. -1.
         11    1    3    3    0    0  0.32431137720E+01 -0.17016746996E+01 -0.66994537949E+01  0.76351925406E+01  0.51100000000E-03 0. -1.
        -11    1    3    3    0    0 -0.10276997885E+01  0.38087886142E+02 -0.14046951174E+02  0.40608620700E+02  0.51100000000E-03 0.  1.
         12    1    3    3    0    0 -0.24313987330E+01 -0.35640353604E+02  0.21635208149E+02  0.41763964568E+02  0.00000000000E+00 0. -1.
</event>
<event>
 7    1  0.1935465E-015  0.9000781E+02  0.7816164E-02  0.1186339E+00
        -11   -1    0    0    0    0  0.00000000000E+00  0.00000000000E+00  0.45593999997E+02  0.45594000000E+02  0.51100000000E-03 0. -1.
         11   -1    0    0    0    0 -0.00000000000E+00 -0.00000000000E+00 -0.45593999997E+02  0.45594000000E+02  0.51100000000E-03 0.  1.
    9900012    2    1    2    0    0 -0.65400259383E-01  0.84101923342E+00 -0.82538900942E+00  0.90007806134E+02  0.90000068375E+02 0.  0.
         12    1    1    2    0    0  0.65400259383E-01 -0.84101923342E+00  0.82538900942E+00  0.11801938662E+01  0.00000000000E+00 0. -1.
         11    1    3    3    0    0  0.17594741629E+01 -0.65654090710E+01 -0.45634268457E+01  0.81868925995E+01  0.51100000000E-03 0. -1.
        -11    1    3    3    0    0 -0.14017848759E+01 -0.32408196099E+02 -0.17326013985E+02  0.36775629649E+02  0.51100000000E-03 0.  1.
         12    1    3    3    0    0 -0.42308954635E+00  0.39814624403E+02  0.21064051822E+02  0.45045283885E+02  0.00000000000E+00 0. -1.
</event>
<event>
 7    1  0.1935465E-015  0.9000773E+02  0.7816164E-02  0.1186339E+00
        -11   -1    0    0    0    0  0.00000000000E+00  0.00000000000E+00  0.45593999997E+02  0.45594000000E+02  0.51100000000E-03 0.  1.
         11   -1    0    0    0    0 -0.00000000000E+00 -0.00000000000E+00 -0.45593999997E+02  0.45594000000E+02  0.51100000000E-03 0. -1.
    9900012    2    1    2    0    0  0.10268521052E+01 -0.32883202236E+00 -0.48008719076E+00  0.90007729075E+02  0.89999990299E+02 0.  0.
         12    1    1    2    0    0 -0.10268521052E+01  0.32883202236E+00  0.48008719076E+00  0.11802709247E+01  0.00000000000E+00 0. -1.
         11    1    3    3    0    0 -0.52173533098E+01  0.73672561656E+00  0.70747511065E+01  0.88213175702E+01  0.51100000000E-03 0. -1.
        -11    1    3    3    0    0  0.35557373491E+02  0.10254509076E+02  0.17558720694E+02  0.40960840306E+02  0.51100000000E-03 0.  1.
         12    1    3    3    0    0 -0.29313168076E+02 -0.11320066714E+02 -0.25113558991E+02  0.40225571199E+02  0.00000000000E+00 0. -1.
</event>
<event>
 7    1  0.1935465E-015  0.9000761E+02  0.7816164E-02  0.1186339E+00
        -11   -1    0    0    0    0  0.00000000000E+00  0.00000000000E+00  0.45593999997E+02  0.45594000000E+02  0.51100000000E-03 0. -1.
         11   -1    0    0    0    0 -0.00000000000E+00 -0.00000000000E+00 -0.45593999997E+02  0.45594000000E+02  0.51100000000E-03 0.  1.
    9900012    2    1    2    0    0  0.14166187115E+00 -0.10849593987E+01 -0.44286037715E+00  0.90007605873E+02  0.89999865470E+02 0.  0.
         12    1    1    2    0    0 -0.14166187115E+00  0.10849593987E+01  0.44286037715E+00  0.11803941275E+01  0.00000000000E+00 0. -1.
         11    1    3    3    0    0 -0.14384545653E+02 -0.33334944766E+02  0.37831525890E+01  0.36502684010E+02  0.51100000000E-03 0. -1.
        -11    1    3    3    0    0 -0.84994725420E+01 -0.43254406754E+01 -0.38471898006E+01  0.10283547061E+02  0.51100000000E-03 0.  1.
        -12    1    3    3    0    0  0.23025680067E+02  0.36575426043E+02 -0.37882316555E+00  0.43221374801E+02  0.00000000000E+00 0.  1.
</event>
<event>
 7    1  0.1935465E-015  0.9000777E+02  0.7816164E-02  0.1186339E+00
        -11   -1    0    0    0    0  0.00000000000E+00  0.00000000000E+00  0.45593999997E+02  0.45594000000E+02  0.51100000000E-03 0.  1.
         11   -1    0    0    0    0 -0.00000000000E+00 -0.00000000000E+00 -0.45593999997E+02  0.45594000000E+02  0.51100000000E-03 0. -1.
    9900012    2    1    2    0    0 -0.47566933406E+00  0.10868701913E+00  0.10746485514E+01  0.90007769644E+02  0.90000031404E+02 0.  0.
         12    1    1    2    0    0  0.47566933406E+00 -0.10868701913E+00 -0.10746485514E+01  0.11802303557E+01  0.00000000000E+00 0. -1.
         11    1    3    3    0    0  0.42247992696E+02  0.10844420597E+02  0.63684264939E+01  0.44080054460E+02  0.51100000000E-03 0. -1.
        -11    1    3    3    0    0 -0.93431232202E+01  0.19995074527E+01  0.11507758648E+01  0.96237345617E+01  0.51100000000E-03 0.  1.
        -12    1    3    3    0    0 -0.33380538809E+02 -0.12735241030E+02 -0.64445538074E+01  0.36303980623E+02  0.00000000000E+00 0.  1.
</event>
<event>
 7    1  0.1935465E-015  0.9000788E+02  0.7816164E-02  0.1186339E+00
        -11   -1    0    0    0    0  0.00000000000E+00  0.00000000000E+00  0.45593999997E+02  0.45594000000E+02  0.51100000000E-03 0.  1.
         11   -1    0    0    0    0 -0.00000000000E+00 -0.00000000000E+00 -0.45593999997E+02  0.45594000000E+02  0.51100000000E-03 0. -1.
    9900012    2    1    2    0    0  0.61931681009E+00  0.18931857988E+00 -0.98655711658E+00  0.90007877218E+02  0.90000140397E+02 0.  0.
         12    1    1    2    0    0 -0.61931681009E+00 -0.18931857988E+00  0.98655711658E+00  0.11801227818E+01  0.00000000000E+00 0. -1.
         11    1    3    3    0    0 -0.85654881953E+01 -0.65135637791E+01 -0.36845959077E+02  0.38385137771E+02  0.51100000000E-03 0. -1.
        -11    1    3    3    0    0 -0.96053780264E+01  0.94867519928E+00 -0.11491669388E+01  0.97202806841E+01  0.51100000000E-03 0.  1.
        -12    1    3    3    0    0  0.18790183032E+02  0.57542071597E+01  0.37008568899E+02  0.41902458763E+02  0.00000000000E+00 0.  1.
</event>
<event>
 7    1  0.1935465E-015  0.9000764E+02  0.7816164E-02  0.1186339E+00
        -11   -1    0    0    0    0  0.00000000000E+00  0.00000000000E+00  0.45593999997E+02  0.45594000000E+02  0.51100000000E-03 0. -1.
         11   -1    0    0    0    0 -0.00000000000E+00 -0.00000000000E+00 -0.45593999997E+02  0.45594000000E+02  0.51100000000E-03 0.  1.
    9900012    2    1    2    0    0 -0.71132664423E+00 -0.82334806935E+00 -0.45756741398E+00  0.90007637523E+02  0.89999897539E+02 0.  0.
         12    1    1    2    0    0  0.71132664423E+00  0.82334806935E+00  0.45756741398E+00  0.11803624767E+01  0.00000000000E+00 0. -1.
         11    1    3    3    0    0  0.33446160263E+02  0.11560923817E+02  0.19352083360E+02  0.40333655010E+02  0.51100000000E-03 0. -1.
        -11    1    3    3    0    0 -0.33343429533E+01  0.79158695993E+01 -0.27895873892E+01  0.90310925422E+01  0.51100000000E-03 0.  1.
        -12    1    3    3    0    0 -0.30823143954E+02 -0.20300141485E+02 -0.17020063385E+02  0.40642889971E+02  0.00000000000E+00 0.  1.
</event>
<event>
 7    1  0.1935465E-015  0.9000772E+02  0.7816164E-02  0.1186339E+00
        -11   -1    0    0    0    0  0.00000000000E+00  0.00000000000E+00  0.45593999997E+02  0.45594000000E+02  0.51100000000E-03 0. -1.
         11   -1    0    0    0    0 -0.00000000000E+00 -0.00000000000E+00 -0.45593999997E+02  0.45594000000E+02  0.51100000000E-03 0.  1.
    9900012    2    1    2    0    0 -0.10306977550E+01  0.39078151030E+00 -0.42192559059E+00  0.90007716451E+02  0.89999977509E+02 0.  0.
         12    1    1    2    0    0  0.10306977550E+01 -0.39078151030E+00  0.42192559059E+00  0.11802835485E+01  0.00000000000E+00 0. -1.
         11    1    3    3    0    0  0.56741154849E+01 -0.91888598670E+01 -0.55737628430E+01  0.12153088689E+02  0.51100000000E-03 0. -1.
        -11    1    3    3    0    0  0.22953691840E+02 -0.22903452086E+02 -0.47384483984E+01  0.32770306377E+02  0.51100000000E-03 0.  1.
         12    1    3    3    0    0 -0.29658505080E+02  0.32483093463E+02  0.98902856508E+01  0.45084321386E+02  0.00000000000E+00 0. -1.
</event>
<event>
 7    1  0.1935465E-015  0.9000777E+02  0.7816164E-02  0.1186339E+00
        -11   -1    0    0    0    0  0.00000000000E+00  0.00000000000E+00  0.45593999997E+02  0.45594000000E+02  0.51100000000E-03 0. -1.
         11   -1    0    0    0    0 -0.00000000000E+00 -0.00000000000E+00 -0.45593999997E+02  0.45594000000E+02  0.51100000000E-03 0.  1.
    9900012    2    1    2    0    0  0.86231890765E+00  0.55074512240E-03 -0.80581543361E+00  0.90007774295E+02  0.90000036116E+02 0.  0.
         12    1    1    2    0    0 -0.86231890765E+00 -0.55074512240E-03  0.80581543361E+00  0.11802257051E+01  0.00000000000E+00 0. -1.
         11    1    3    3    0    0  0.89062269757E+01  0.57513187297E+01 -0.92445253000E+00  0.10642046740E+02  0.51100000000E-03 0. -1.
        -11    1    3    3    0    0  0.76426254336E+01  0.31912173123E+02 -0.14702832460E+02  0.35957889254E+02  0.51100000000E-03 0.  1.
         12    1    3    3    0    0 -0.15686533502E+02 -0.37662941108E+02  0.14821469557E+02  0.43407838301E+02  0.00000000000E+00 0. -1.
</event>
<event>
 7    1  0.1935465E-015  0.9000771E+02  0.7816164E-02  0.1186339E+00
        -11   -1    0    0    0    0  0.00000000000E+00  0.00000000000E+00  0.45593999997E+02  0.45594000000E+02  0.51100000000E-03 0.  1.
         11   -1    0    0    0    0 -0.00000000000E+00 -0.00000000000E+00 -0.45593999997E+02  0.45594000000E+02  0.51100000000E-03 0. -1.
    9900012    2    1    2    0    0 -0.15260433447E+00 -0.39474682620E+00  0.11018064604E+01  0.90007707402E+02  0.89999968340E+02 0.  0.
         12    1    1    2    0    0  0.15260433447E+00  0.39474682620E+00 -0.11018064604E+01  0.11802925976E+01  0.00000000000E+00 0. -1.
         11    1    3    3    0    0  0.68029200777E+01  0.46311759353E+01 -0.89171237375E+01  0.12134356519E+02  0.51100000000E-03 0. -1.
        -11    1    3    3    0    0  0.21739356914E+02  0.21415420778E+02 -0.12322861243E+02  0.32910071340E+02  0.51100000000E-03 0.  1.
         12    1    3    3    0    0 -0.28694881326E+02 -0.26441343539E+02  0.22341791440E+02  0.44963279543E+02  0.00000000000E+00 0. -1.
</event>
<event>
 7    1  0.1935465E-015  0.9000813E+02  0.7816164E-02  0.1186338E+00
        -11   -1    0    0    0    0  0.00000000000E+00  0.00000000000E+00  0.45593999997E+02  0.45594000000E+02  0.51100000000E-03 0. -1.
         11   -1    0    0    0    0 -0.00000000000E+00 -0.00000000000E+00 -0.45593999997E+02  0.45594000000E+02  0.51100000000E-03 0.  1.
    9900012    2    1    2    0    0  0.74552143093E+00 -0.24477481125E+00 -0.88111927000E+00  0.90008132177E+02  0.90000398721E+02 0.  0.
         12    1    1    2    0    0 -0.74552143093E+00  0.24477481125E+00  0.88111927000E+00  0.11798678232E+01  0.00000000000E+00 0. -1.
         11    1    3    3    0    0  0.13955071913E+02 -0.46794488151E+01  0.24292452729E+01  0.14917858632E+02  0.51100000000E-03 0. -1.
        -11    1    3    3    0    0 -0.59533827345E+01  0.29975474478E+02 -0.26030911239E+02  0.40144491233E+02  0.51100000000E-03 0.  1.
         12    1    3    3    0    0 -0.72561677474E+01 -0.25540800474E+02  0.22720546696E+02  0.34945782312E+02  0.00000000000E+00 0. -1.
</event>
<event>
 7    1  0.1935465E-015  0.9000753E+02  0.7816164E-02  0.1186339E+00
        -11   -1    0    0    0    0  0.00000000000E+00  0.00000000000E+00  0.45593999997E+02  0.45594000000E+02  0.51100000000E-03 0.  1.
         11   -1    0    0    0    0 -0.00000000000E+00 -0.00000000000E+00 -0.45593999997E+02  0.45594000000E+02  0.51100000000E-03 0. -1.
    9900012    2    1    2    0    0  0.20349796122E+00  0.84909241543E+00  0.79444595326E+00  0.90007528178E+02  0.89999786750E+02 0.  0.
         12    1    1    2    0    0 -0.20349796122E+00 -0.84909241543E+00 -0.79444595326E+00  0.11804718221E+01  0.00000000000E+00 0. -1.
         11    1    3    3    0    0  0.75652220274E+00 -0.83692087054E+01 -0.23310543758E+01  0.87206533564E+01  0.51100000000E-03 0. -1.
        -11    1    3    3    0    0 -0.11981341070E+02 -0.42745834266E+01  0.39145590418E+02  0.41160683264E+02  0.51100000000E-03 0.  1.
         12    1    3    3    0    0  0.11428316829E+02  0.13492884547E+02 -0.36020090089E+02  0.40126191558E+02  0.00000000000E+00 0. -1.
</event>
<event>
 7    1  0.1935465E-015  0.9000775E+02  0.7816164E-02  0.1186339E+00
        -11   -1    0    0    0    0  0.00000000000E+00  0.00000000000E+00  0.45593999997E+02  0.45594000000E+02  0.51100000000E-03 0. -1.
         11   -1    0    0    0    0 -0.00000000000E+00 -0.00000000000E+00 -0.45593999997E+02  0.45594000000E+02  0.51100000000E-03 0.  1.
    9900012    2    1    2    0    0 -0.88870021830E+00  0.43760083674E-01  0.77542346655E+00  0.90007752325E+02  0.90000013855E+02 0.  0.
         12    1    1    2    0    0  0.88870021830E+00 -0.43760083674E-01 -0.77542346655E+00  0.11802476754E+01  0.00000000000E+00 0. -1.
         11    1    3    3    0    0  0.70357079735E+01 -0.40546173881E+01  0.56794326352E+01  0.99094431817E+01  0.51100000000E-03 0. -1.
        -11    1    3    3    0    0 -0.21996674693E+02 -0.23421689565E+02  0.22146109388E+02  0.39024087445E+02  0.51100000000E-03 0.  1.
         12    1    3    3    0    0  0.14072266501E+02  0.27520067037E+02 -0.27050118557E+02  0.41074221698E+02  0.00000000000E+00 0. -1.
</event>
<event>
 7    1  0.1935465E-015  0.9000770E+02  0.7816164E-02  0.1186339E+00
        -11   -1    0    0    0    0  0.00000000000E+00  0.00000000000E+00  0.45593999997E+02  0.45594000000E+02  0.51100000000E-03 0. -1.
         11   -1    0    0    0    0 -0.00000000000E+00 -0.00000000000E+00 -0.45593999997E+02  0.45594000000E+02  0.51100000000E-03 0.  1.
    9900012    2    1    2    0    0  0.11200823358E+01 -0.19997226277E+00  0.31391328052E+00  0.90007697118E+02  0.89999957920E+02 0.  0.
         12    1    1    2    0    0 -0.11200823358E+01  0.19997226277E+00 -0.31391328052E+00  0.11803028817E+01  0.00000000000E+00 0. -1.
         11    1    3    3    0    0 -0.34085344426E+02 -0.56985739683E+01  0.14970275097E+02  0.37661566439E+02  0.51100000000E-03 0. -1.
        -11    1    3    3    0    0 -0.70407614464E+01 -0.11662882501E+00  0.62992786511E+00  0.70698467738E+01  0.51100000000E-03 0.  1.
        -12    1    3    3    0    0  0.42246188208E+02  0.56152305306E+01 -0.15286289681E+02  0.45276283905E+02  0.00000000000E+00 0.  1.
</event>
<event>
 7    1  0.1935465E-015  0.9000770E+02  0.7816164E-02  0.1186339E+00
        -11   -1    0    0    0    0  0.00000000000E+00  0.00000000000E+00  0.45593999997E+02  0.45594000000E+02  0.51100000000E-03 0. -1.
         11   -1    0    0    0    0 -0.00000000000E+00 -0.00000000000E+00 -0.45593999997E+02  0.45594000000E+02  0.51100000000E-03 0.  1.
    9900012    2    1    2    0    0 -0.55060311248E+00 -0.96826561469E+00 -0.39037848474E+00  0.90007704508E+02  0.89999965407E+02 0.  0.
         12    1    1    2    0    0  0.55060311248E+00  0.96826561469E+00  0.39037848474E+00  0.11802954924E+01  0.00000000000E+00 0. -1.
         11    1    3    3    0    0 -0.41748434718E+02 -0.39969553874E+01 -0.12439246782E+02  0.43745197617E+02  0.51100000000E-03 0. -1.
        -11    1    3    3    0    0  0.65420785474E+01 -0.50380582899E+01  0.59108873399E+01  0.10154772891E+02  0.51100000000E-03 0.  1.
        -12    1    3    3    0    0  0.34655753059E+02  0.80667480626E+01  0.61379809579E+01  0.36107734000E+02  0.00000000000E+00 0.  1.
</event>
<event>
 7    1  0.1935465E-015  0.9000771E+02  0.7816164E-02  0.1186339E+00
        -11   -1    0    0    0    0  0.00000000000E+00  0.00000000000E+00  0.45593999997E+02  0.45594000000E+02  0.51100000000E-03 0.  1.
         11   -1    0    0    0    0 -0.00000000000E+00 -0.00000000000E+00 -0.45593999997E+02  0.45594000000E+02  0.51100000000E-03 0. -1.
    9900012    2    1    2    0    0 -0.34094656063E+00  0.10899288140E+01  0.29814514368E+00  0.90007711940E+02  0.89999972938E+02 0.  0.
         12    1    1    2    0    0  0.34094656063E+00 -0.10899288140E+01 -0.29814514368E+00  0.11802880596E+01  0.00000000000E+00 0. -1.
         11    1    3    3    0    0 -0.36776634063E+02 -0.54212347615E+01 -0.13744957204E+02  0.39633753899E+02  0.51100000000E-03 0. -1.
        -11    1    3    3    0    0  0.14795062191E+01 -0.97183385322E+01  0.25198576646E+01  0.10148139011E+02  0.51100000000E-03 0.  1.
        -12    1    3    3    0    0  0.34956181284E+02  0.16229502108E+02  0.11523244683E+02  0.40225819030E+02  0.00000000000E+00 0.  1.
</event>
<event>
 7    1  0.1935465E-015  0.9000779E+02  0.7816164E-02  0.1186339E+00
        -11   -1    0    0    0    0  0.00000000000E+00  0.00000000000E+00  0.45593999997E+02  0.45594000000E+02  0.51100000000E-03 0. -1.
         11   -1    0    0    0    0 -0.00000000000E+00 -0.00000000000E+00 -0.45593999997E+02  0.45594000000E+02  0.51100000000E-03 0.  1.
    9900012    2    1    2    0    0  0.49916852608E+00  0.10593863837E+01 -0.14636301472E+00  0.90007792027E+02  0.90000054082E+02 0.  0.
         12    1    1    2    0    0 -0.49916852608E+00 -0.10593863837E+01  0.14636301472E+00  0.11802079730E+01  0.00000000000E+00 0. -1.
         11    1    3    3    0    0  0.24816637388E+01  0.68980942976E+01  0.90131546048E+01  0.11618059909E+02  0.51100000000E-03 0. -1.
        -11    1    3    3    0    0  0.23720819242E+02  0.31768956009E+01 -0.33964294277E+02  0.41549286603E+02  0.51100000000E-03 0.  1.
         12    1    3    3    0    0 -0.25703314455E+02 -0.90156035148E+01  0.24804776658E+02  0.36840445515E+02  0.00000000000E+00 0. -1.
</event>
<event>
 7    1  0.1935465E-015  0.9000784E+02  0.7816164E-02  0.1186339E+00
        -11   -1    0    0    0    0  0.00000000000E+00  0.00000000000E+00  0.45593999997E+02  0.45594000000E+02  0.51100000000E-03 0. -1.
         11   -1    0    0    0    0 -0.00000000000E+00 -0.00000000000E+00 -0.45593999997E+02  0.45594000000E+02  0.51100000000E-03 0.  1.
    9900012    2    1    2    0    0 -0.63686484005E+00 -0.44749428809E+00 -0.88709345850E+00  0.90007837822E+02  0.90000100481E+02 0.  0.
         12    1    1    2    0    0  0.63686484005E+00  0.44749428809E+00  0.88709345850E+00  0.11801621780E+01  0.00000000000E+00 0. -1.
         11    1    3    3    0    0 -0.17054912370E+02  0.11398091596E+02  0.27678403810E+02  0.34451133011E+02  0.51100000000E-03 0. -1.
        -11    1    3    3    0    0 -0.99145101045E+01 -0.29469442003E+00  0.52059196066E+01  0.11202051358E+02  0.51100000000E-03 0.  1.
        -12    1    3    3    0    0  0.26332557635E+02 -0.11550891464E+02 -0.33771416875E+02  0.44354653453E+02  0.00000000000E+00 0.  1.
</event>
<event>
 7    1  0.1935465E-015  0.9000777E+02  0.7816164E-02  0.1186339E+00
        -11   -1    0    0    0    0  0.00000000000E+00  0.00000000000E+00  0.45593999997E+02  0.45594000000E+02  0.51100000000E-03 0.  1.
         11   -1    0    0    0    0 -0.00000000000E+00 -0.00000000000E+00 -0.45593999997E+02  0.45594000000E+02  0.51100000000E-03 0. -1.
    9900012    2    1    2    0    0  0.41666165339E+00 -0.10207256336E+01 -0.42124722755E+00  0.90007772488E+02  0.90000034285E+02 0.  0.
         12    1    1    2    0    0 -0.41666165339E+00  0.10207256336E+01  0.42124722755E+00  0.11802275117E+01  0.00000000000E+00 0. -1.
         11    1    3    3    0    0 -0.30371936045E+02 -0.13150236950E+02 -0.82269148596E+01  0.34103744066E+02  0.51100000000E-03 0. -1.
        -11    1    3    3    0    0 -0.11217360397E+02  0.11985685354E+01 -0.18663585489E+01  0.11434554442E+02  0.51100000000E-03 0.  1.
        -12    1    3    3    0    0  0.42005958095E+02  0.10930942781E+02  0.96720261810E+01  0.44469473980E+02  0.00000000000E+00 0.  1.
</event>
<event>
 7    1  0.1935465E-015  0.9000768E+02  0.7816164E-02  0.1186339E+00
        -11   -1    0    0    0    0  0.00000000000E+00  0.00000000000E+00  0.45593999997E+02  0.45594000000E+02  0.51100000000E-03 0.  1.
         11   -1    0    0    0    0 -0.00000000000E+00 -0.00000000000E+00 -0.45593999997E+02  0.45594000000E+02  0.51100000000E-03 0. -1.
    9900012    2    1    2    0    0  0.68541952081E+00 -0.36260146526E+00  0.88986859038E+00  0.90007684004E+02  0.89999944633E+02 0.  0.
         12    1    1    2    0    0 -0.68541952081E+00  0.36260146526E+00 -0.88986859038E+00  0.11803159959E+01  0.00000000000E+00 0. -1.
         11    1    3    3    0    0 -0.16427691533E+02  0.18555077342E+02 -0.13669088836E+02  0.28302012900E+02  0.51100000000E-03 0. -1.
        -11    1    3    3    0    0  0.21844362661E+02 -0.12271205244E+02 -0.16231085782E+02  0.29853087012E+02  0.51100000000E-03 0.  1.
        -12    1    3    3    0    0 -0.47312516070E+01 -0.66464735636E+01  0.30790043209E+02  0.31852584093E+02  0.00000000000E+00 0.  1.
</event>
<event>
 7    1  0.1935465E-015  0.9000764E+02  0.7816164E-02  0.1186339E+00
        -11   -1    0    0    0    0  0.00000000000E+00  0.00000000000E+00  0.45593999997E+02  0.45594000000E+02  0.51100000000E-03 0. -1.
         11   -1    0    0    0    0 -0.00000000000E+00 -0.00000000000E+00 -0.45593999997E+02  0.45594000000E+02  0.51100000000E-03 0.  1.
    9900012    2    1    2    0    0 -0.10665229979E+00  0.11706524032E+01 -0.10698487487E+00  0.90007640934E+02  0.89999900994E+02 0.  0.
         12    1    1    2    0    0  0.10665229979E+00 -0.11706524032E+01  0.10698487487E+00  0.11803590664E+01  0.00000000000E+00 0. -1.
         11    1    3    3    0    0  0.31434229561E+01  0.38080600709E+01 -0.67180631304E+01  0.83375537101E+01  0.51100000000E-03 0. -1.
        -11    1    3    3    0    0 -0.12130519543E+02  0.65284512383E+00 -0.36012930085E+02  0.38006668425E+02  0.51100000000E-03 0.  1.
         12    1    3    3    0    0  0.88804442872E+01 -0.32902527915E+01  0.42624008341E+02  0.43663418799E+02  0.00000000000E+00 0. -1.
</event>
<event>
 7    1  0.1935465E-015  0.9000774E+02  0.7816164E-02  0.1186339E+00
        -11   -1    0    0    0    0  0.00000000000E+00  0.00000000000E+00  0.45593999997E+02  0.45594000000E+02  0.51100000000E-03 0. -1.
         11   -1    0    0    0    0 -0.00000000000E+00 -0.00000000000E+00 -0.45593999997E+02  0.45594000000E+02  0.51100000000E-03 0.  1.
    9900012    2    1    2    0    0  0.94935662889E+00  0.20896467009E+00 -0.66938135199E+00  0.90007739166E+02  0.90000000523E+02 0.  0.
         12    1    1    2    0    0 -0.94935662889E+00 -0.20896467009E+00  0.66938135199E+00  0.11802608341E+01  0.00000000000E+00 0. -1.
         11    1    3    3    0    0 -0.15163519075E+01 -0.69831896068E+01  0.49801966645E+01  0.87101446182E+01  0.51100000000E-03 0. -1.
        -11    1    3    3    0    0 -0.29925319841E+02  0.27421494211E+02  0.67490671914E+01  0.41146239446E+02  0.51100000000E-03 0.  1.
         12    1    3    3    0    0  0.32391028377E+02 -0.20229339934E+02 -0.12398645208E+02  0.40151355102E+02  0.00000000000E+00 0. -1.
</event>
<event>
 7    1  0.1935465E-015  0.9000788E+02  0.7816164E-02  0.1186339E+00
        -11   -1    0    0    0    0  0.00000000000E+00  0.00000000000E+00  0.45593999997E+02  0.45594000000E+02  0.51100000000E-03 0.  1.
         11   -1    0    0    0    0 -0.00000000000E+00 -0.00000000000E+00 -0.45593999997E+02  0.45594000000E+02  0.51100000000E-03 0. -1.
    9900012    2    1    2    0    0  0.41439940567E+00 -0.98051728258E-01  0.11006149164E+01  0.90007875344E+02  0.90000138499E+02 0.  0.
         12    1    1    2    0    0 -0.41439940567E+00  0.98051728258E-01 -0.11006149164E+01  0.11801246557E+01  0.00000000000E+00 0. -1.
         11    1    3    3    0    0 -0.16792737413E+02  0.31368586767E+02 -0.53505743725E+01  0.35980729731E+02  0.51100000000E-03 0. -1.
        -11    1    3    3    0    0  0.32692902220E+01  0.90419234791E+01 -0.31639991748E+01  0.10122031901E+02  0.51100000000E-03 0.  1.
        -12    1    3    3    0    0  0.13937846597E+02 -0.40508561974E+02  0.96151884638E+01  0.43905113713E+02  0.00000000000E+00 0.  1.
</event>
<event>
 7    1  0.1935465E-015  0.9000766E+02  0.7816164E-02  0.1186339E+00
        -11   -1    0    0    0    0  0.00000000000E+00  0.00000000000E+00  0.45593999997E+02  0.45594000000E+02  0.51100000000E-03 0.  1.
         11   -1    0    0    0    0 -0.00000000000E+00 -0.00000000000E+00 -0.45593999997E+02  0.45594000000E+02  0.51100000000E-03 0. -1.
    9900012    2    1    2    0    0 -0.82193563273E+00  0.82153978062E+00  0.20660852877E+00  0.90007664082E+02  0.89999924448E+02 0.  0.
         12    1    1    2    0    0  0.82193563273E+00 -0.82153978062E+00 -0.20660852877E+00  0.11803359181E+01  0.00000000000E+00 0. -1.
         11    1    3    3    0    0  0.26116612552E+02 -0.24187421267E+02  0.10164641653E+02  0.37019302248E+02  0.51100000000E-03 0. -1.
        -11    1    3    3    0    0  0.85570332212E+01 -0.11311547896E+00 -0.16929464669E+01  0.87236277236E+01  0.51100000000E-03 0.  1.
        -12    1    3    3    0    0 -0.35495581406E+02  0.25122076527E+02 -0.82650866569E+01  0.44264734110E+02  0.00000000000E+00 0.  1.
</event>
<event>
 7    1  0.1935465E-015  0.9000769E+02  0.7816164E-02  0.1186339E+00
        -11   -1    0    0    0    0  0.00000000000E+00  0.00000000000E+00  0.45593999997E+02  0.45594000000E+02  0.51100000000E-03 0.  1.
         11   -1    0    0    0    0 -0.00000000000E+00 -0.00000000000E+00 -0.45593999997E+02  0.45594000000E+02  0.51100000000E-03 0. -1.
    9900012    2    1    2    0    0 -0.10677568581E+01 -0.31998659902E+00 -0.38812132348E+00  0.90007688900E+02  0.89999949593E+02 0.  0.
         12    1    1    2    0    0  0.10677568581E+01  0.31998659902E+00  0.38812132348E+00  0.11803111003E+01  0.00000000000E+00 0. -1.
         11    1    3    3    0    0 -0.10232874185E+02 -0.12074596322E+02 -0.31927010517E+02  0.35634836764E+02  0.51100000000E-03 0. -1.
        -11    1    3    3    0    0 -0.69127362517E+01 -0.37118177976E+01 -0.65569811737E+01  0.10225336973E+02  0.51100000000E-03 0.  1.
        -12    1    3    3    0    0  0.16077853579E+02  0.15466427520E+02  0.38095870367E+02  0.44147515162E+02  0.00000000000E+00 0.  1.
</event>
<event>
 7    1  0.1935465E-015  0.9000766E+02  0.7816164E-02  0.1186339E+00
        -11   -1    0    0    0    0  0.00000000000E+00  0.00000000000E+00  0.45593999997E+02  0.45594000000E+02  0.51100000000E-03 0.  1.
         11   -1    0    0    0    0 -0.00000000000E+00 -0.00000000000E+00 -0.45593999997E+02  0.45594000000E+02  0.51100000000E-03 0. -1.
    9900012    2    1    2    0    0 -0.20649575639E+00 -0.90575193310E+00  0.72813844474E+00  0.90007655704E+02  0.89999915960E+02 0.  0.
         12    1    1    2    0    0  0.20649575639E+00  0.90575193310E+00 -0.72813844474E+00  0.11803442957E+01  0.00000000000E+00 0. -1.
         11    1    3    3    0    0 -0.13339145755E+01 -0.14067176723E+02 -0.30844080849E+02  0.33926716799E+02  0.51100000000E-03 0. -1.
        -11    1    3    3    0    0  0.21737142519E+02  0.93125851314E+00  0.10452875883E+02  0.24137796540E+02  0.51100000000E-03 0.  1.
        -12    1    3    3    0    0 -0.20609723699E+02  0.12230166277E+02  0.21119343410E+02  0.31943142366E+02  0.00000000000E+00 0.  1.
</event>
<event>
 7    1  0.1935465E-015  0.9000773E+02  0.7816164E-02  0.1186339E+00
        -11   -1    0    0    0    0  0.00000000000E+00  0.00000000000E+00  0.45593999997E+02  0.45594000000E+02  0.51100000000E-03 0.  1.
         11   -1    0    0    0    0 -0.00000000000E+00 -0.00000000000E+00 -0.45593999997E+02  0.45594000000E+02  0.51100000000E-03 0. -1.
    9900012    2    1    2    0    0 -0.11615399973E+01  0.13975611565E+00 -0.15595369965E+00  0.90007733719E+02  0.89999995004E+02 0.  0.
         12    1    1    2    0    0  0.11615399973E+01 -0.13975611565E+00  0.15595369965E+00  0.11802662808E+01  0.00000000000E+00 0. -1.
         11    1    3    3    0    0 -0.10694328262E+02 -0.39442251653E+02 -0.61427843415E+01  0.41325460338E+02  0.51100000000E-03 0. -1.
        -11    1    3    3    0    0  0.10322515931E+02  0.17471695517E+01  0.12226466879E+01  0.10540483944E+02  0.51100000000E-03 0.  1.
        -12    1    3    3    0    0 -0.78972766657E+00  0.37834838217E+02  0.47641839540E+01  0.38141789437E+02  0.00000000000E+00 0.  1.
</event>
<event>
 7    1  0.1935465E-015  0.9000771E+02  0.7816164E-02  0.1186339E+00
        -11   -1    0    0    0    0  0.00000000000E+00  0.00000000000E+00  0.45593999997E+02  0.45594000000E+02  0.51100000000E-03 0.  1.
         11   -1    0    0    0    0 -0.00000000000E+00 -0.00000000000E+00 -0.45593999997E+02  0.45594000000E+02  0.51100000000E-03 0. -1.
    9900012    2    1    2    0    0 -0.11104280508E+01  0.20457094400E+00 -0.34378095643E+00  0.90007709751E+02  0.89999970719E+02 0.  0.
         12    1    1    2    0    0  0.11104280508E+01 -0.20457094400E+00  0.34378095643E+00  0.11802902495E+01  0.00000000000E+00 0. -1.
         11    1    3    3    0    0  0.80510611814E+01 -0.15073471677E+02  0.20868085003E+02  0.26972321118E+02  0.51100000000E-03 0. -1.
        -11    1    3    3    0    0 -0.10568984628E+01 -0.10578053503E+02  0.14641915442E+02  0.18094140995E+02  0.51100000000E-03 0.  1.
         12    1    3    3    0    0 -0.81045907694E+01  0.25856096124E+02 -0.35853781402E+02  0.44941247637E+02  0.00000000000E+00 0. -1.
</event>
<event>
 7    1  0.1935465E-015  0.9000778E+02  0.7816164E-02  0.1186339E+00
        -11   -1    0    0    0    0  0.00000000000E+00  0.00000000000E+00  0.45593999997E+02  0.45594000000E+02  0.51100000000E-03 0.  1.
         11   -1    0    0    0    0 -0.00000000000E+00 -0.00000000000E+00 -0.45593999997E+02  0.45594000000E+02  0.51100000000E-03 0. -1.
    9900012    2    1    2    0    0  0.70451890001E-01 -0.51441103048E+00  0.10598789828E+01  0.90007777294E+02  0.90000039155E+02 0.  0.
         12    1    1    2    0    0 -0.70451890001E-01  0.51441103048E+00 -0.10598789828E+01  0.11802227058E+01  0.00000000000E+00 0. -1.
         11    1    3    3    0    0  0.11658704668E+02  0.60452963151E+01 -0.23619769137E+02  0.27025256640E+02  0.51100000000E-03 0. -1.
        -11    1    3    3    0    0  0.78258871143E+01  0.57535827424E+00 -0.15734658691E+02  0.17582804971E+02  0.51100000000E-03 0.  1.
        -12    1    3    3    0    0 -0.19414139892E+02 -0.71350656198E+01  0.40414306811E+02  0.45399715684E+02  0.00000000000E+00 0.  1.
</event>
<event>
 7    1  0.2378951E-015  0.9000802E+02  0.7816164E-02  0.1186338E+00
        -11   -1    0    0    0    0  0.00000000000E+00  0.00000000000E+00  0.45593999997E+02  0.45594000000E+02  0.51100000000E-03 0. -1.
         11   -1    0    0    0    0 -0.00000000000E+00 -0.00000000000E+00 -0.45593999997E+02  0.45594000000E+02  0.51100000000E-03 0.  1.
    9900012    2    1    2    0    0  0.94636857686E+00 -0.66666879797E+00 -0.22864996848E+00  0.90008024756E+02  0.90000289882E+02 0.  0.
         12    1    1    2    0    0 -0.94636857686E+00  0.66666879797E+00  0.22864996848E+00  0.11799752445E+01  0.00000000000E+00 0. -1.
         11    1    3    3    0    0  0.96208882143E+01 -0.18066960117E+01 -0.52862034238E-02  0.97890586226E+01  0.51100000000E-03 0. -1.
        -11    1    3    3    0    0  0.72196638459E+01 -0.37397832151E+02 -0.43142348127E+01  0.38331892960E+02  0.51100000000E-03 0.  1.
         12    1    3    3    0    0 -0.15894183483E+02  0.38537859365E+02  0.40908710477E+01  0.41887073173E+02  0.00000000000E+00 0. -1.
</event>
<event>
 7    1  0.1935465E-015  0.9000769E+02  0.7816164E-02  0.1186339E+00
        -11   -1    0    0    0    0  0.00000000000E+00  0.00000000000E+00  0.45593999997E+02  0.45594000000E+02  0.51100000000E-03 0.  1.
         11   -1    0    0    0    0 -0.00000000000E+00 -0.00000000000E+00 -0.45593999997E+02  0.45594000000E+02  0.51100000000E-03 0. -1.
    9900012    2    1    2    0    0  0.25899734776E+00 -0.11511259864E+01  0.30954175105E-01  0.90007691217E+02  0.89999951941E+02 0.  0.
         12    1    1    2    0    0 -0.25899734776E+00  0.11511259864E+01 -0.30954175105E-01  0.11803087832E+01  0.00000000000E+00 0. -1.
         11    1    3    3    0    0 -0.80013285870E+01  0.55367559635E+01 -0.67064137410E+01  0.11817483289E+02  0.51100000000E-03 0. -1.
        -11    1    3    3    0    0 -0.57494493324E+01  0.33987098036E+02  0.69792997734E+01  0.35169441652E+02  0.51100000000E-03 0.  1.
         12    1    3    3    0    0  0.14009775267E+02 -0.40674979986E+02 -0.24193185732E+00  0.43020766276E+02  0.00000000000E+00 0. -1.
</event>
<event>
 7    1  0.1935465E-015  0.9000779E+02  0.7816164E-02  0.1186339E+00
        -11   -1    0    0    0    0  0.00000000000E+00  0.00000000000E+00  0.45593999997E+02  0.45594000000E+02  0.51100000000E-03 0.  1.
         11   -1    0    0    0    0 -0.00000000000E+00 -0.00000000000E+00 -0.45593999997E+02  0.45594000000E+02  0.51100000000E-03 0. -1.
    9900012    2    1    2    0    0  0.38304373999E+00  0.11132255427E+01  0.83036166462E-01  0.90007792976E+02  0.90000055043E+02 0.  0.
         12    1    1    2    0    0 -0.38304373999E+00 -0.11132255427E+01 -0.83036166462E-01  0.11802070244E+01  0.00000000000E+00 0. -1.
         11    1    3    3    0    0  0.16842503070E+02 -0.10660384802E+02 -0.29743340728E+02  0.35804748732E+02  0.51100000000E-03 0. -1.
        -11    1    3    3    0    0  0.48061361915E+01 -0.37245213821E+01 -0.67885414217E+01  0.91134680288E+01  0.51100000000E-03 0.  1.
        -12    1    3    3    0    0 -0.21265595522E+02  0.15498131727E+02  0.36614918317E+02  0.45089576215E+02  0.00000000000E+00 0.  1.
</event>
<event>
 7    1  0.1935465E-015  0.9000781E+02  0.7816164E-02  0.1186339E+00
        -11   -1    0    0    0    0  0.00000000000E+00  0.00000000000E+00  0.45593999997E+02  0.45594000000E+02  0.51100000000E-03 0. -1.
         11   -1    0    0    0    0 -0.00000000000E+00 -0.00000000000E+00 -0.45593999997E+02  0.45594000000E+02  0.51100000000E-03 0.  1.
    9900012    2    1    2    0    0  0.74354665093E+00 -0.35520412474E+00 -0.84487777442E+00  0.90007809318E+02  0.90000071601E+02 0.  0.
         12    1    1    2    0    0 -0.74354665093E+00  0.35520412474E+00  0.84487777442E+00  0.11801906821E+01  0.00000000000E+00 0. -1.
         11    1    3    3    0    0  0.26009358968E+02  0.82345955373E+01  0.39391856238E+00  0.27284620021E+02  0.51100000000E-03 0. -1.
        -11    1    3    3    0    0  0.40392396322E+01  0.15153679525E+02  0.14961317068E+02  0.21674650370E+02  0.51100000000E-03 0.  1.
         12    1    3    3    0    0 -0.29305051950E+02 -0.23743479188E+02 -0.16200113405E+02  0.41048538927E+02  0.00000000000E+00 0. -1.
</event>
<event>
 7    1  0.1935465E-015  0.9000765E+02  0.7816164E-02  0.1186339E+00
        -11   -1    0    0    0    0  0.00000000000E+00  0.00000000000E+00  0.45593999997E+02  0.45594000000E+02  0.51100000000E-03 0.  1.
         11   -1    0    0    0    0 -0.00000000000E+00 -0.00000000000E+00 -0.45593999997E+02  0.45594000000E+02  0.51100000000E-03 0. -1.
    9900012    2    1    2    0    0 -0.11465273110E+01 -0.25051148623E+00  0.12629693310E+00  0.90007647597E+02  0.89999907745E+02 0.  0.
         12    1    1    2    0    0  0.11465273110E+01  0.25051148623E+00 -0.12629693310E+00  0.11803524029E+01  0.00000000000E+00 0. -1.
         11    1    3    3    0    0 -0.25676333093E+02 -0.20947216924E+02 -0.24479130505E+02  0.41198152975E+02  0.51100000000E-03 0. -1.
        -11    1    3    3    0    0 -0.43825504686E+01  0.84733873166E+01  0.11179042057E+01  0.96049336958E+01  0.51100000000E-03 0.  1.
        -12    1    3    3    0    0  0.28912356250E+02  0.12223318122E+02  0.23487523233E+02  0.39204560927E+02  0.00000000000E+00 0.  1.
</event>
<event>
 7    1  0.1935465E-015  0.9000774E+02  0.7816164E-02  0.1186339E+00
        -11   -1    0    0    0    0  0.00000000000E+00  0.00000000000E+00  0.45593999997E+02  0.45594000000E+02  0.51100000000E-03 0.  1.
         11   -1    0    0    0    0 -0.00000000000E+00 -0.00000000000E+00 -0.45593999997E+02  0.45594000000E+02  0.51100000000E-03 0. -1.
    9900012    2    1    2    0    0  0.79197161712E+00  0.45982213001E+00  0.74455860290E+00  0.90007736069E+02  0.89999997385E+02 0.  0.
         12    1    1    2    0    0 -0.79197161712E+00 -0.45982213001E+00 -0.74455860290E+00  0.11802639310E+01  0.00000000000E+00 0. -1.
         11    1    3    3    0    0  0.68782215823E+01 -0.30870114947E+00  0.79618734664E+01  0.10525999140E+02  0.51100000000E-03 0. -1.
        -11    1    3    3    0    0  0.18728833891E+02  0.61931962956E+01  0.29104246238E+02  0.35159380663E+02  0.51100000000E-03 0.  1.
         12    1    3    3    0    0 -0.24815083856E+02 -0.54246730162E+01 -0.36321561102E+02  0.44322356266E+02  0.00000000000E+00 0. -1.
</event>
<event>
 7    1  0.1935465E-015  0.9000785E+02  0.7816164E-02  0.1186339E+00
        -11   -1    0    0    0    0  0.00000000000E+00  0.00000000000E+00  0.45593999997E+02  0.45594000000E+02  0.51100000000E-03 0. -1.
         11   -1    0    0    0    0 -0.00000000000E+00 -0.00000000000E+00 -0.45593999997E+02  0.45594000000E+02  0.51100000000E-03 0.  1.
    9900012    2    1    2    0    0  0.98113757968E+00  0.65574848418E+00  0.10927954374E-01  0.90007848974E+02  0.90000111780E+02 0.  0.
         12    1    1    2    0    0 -0.98113757968E+00 -0.65574848418E+00 -0.10927954374E-01  0.11801510263E+01  0.00000000000E+00 0. -1.
         11    1    3    3    0    0  0.11609616696E+02  0.23109200276E+02  0.34752994541E+02  0.43319614115E+02  0.51100000000E-03 0. -1.
        -11    1    3    3    0    0  0.15478329219E+01 -0.68165129794E+01 -0.35523412802E+00  0.69990590439E+01  0.51100000000E-03 0.  1.
        -12    1    3    3    0    0 -0.12176312038E+02 -0.15636938813E+02 -0.34386832459E+02  0.39689175815E+02  0.00000000000E+00 0.  1.
</event>
<event>
 7    1  0.1935465E-015  0.9000775E+02  0.7816164E-02  0.1186339E+00
        -11   -1    0    0    0    0  0.00000000000E+00  0.00000000000E+00  0.45593999997E+02  0.45594000000E+02  0.51100000000E-03 0.  1.
         11   -1    0    0    0    0 -0.00000000000E+00 -0.00000000000E+00 -0.45593999997E+02  0.45594000000E+02  0.51100000000E-03 0. -1.
    9900012    2    1    2    0    0  0.30499611076E+00  0.33514286945E-01  0.11396697173E+01  0.90007748798E+02  0.90000010282E+02 0.  0.
         12    1    1    2    0    0 -0.30499611076E+00 -0.33514286945E-01 -0.11396697173E+01  0.11802512019E+01  0.00000000000E+00 0. -1.
         11    1    3    3    0    0  0.80649821754E+01  0.40263759382E+01  0.44764963870E+01  0.10064524870E+02  0.51100000000E-03 0. -1.
        -11    1    3    3    0    0 -0.21353234499E+02  0.30424404352E+02  0.13156400299E+02  0.39429631913E+02  0.51100000000E-03 0.  1.
         12    1    3    3    0    0  0.13593248434E+02 -0.34417266003E+02 -0.16493226968E+02  0.40513592015E+02  0.00000000000E+00 0. -1.
</event>
<event>
 7    1  0.1935465E-015  0.9000774E+02  0.7816164E-02  0.1186339E+00
        -11   -1    0    0    0    0  0.00000000000E+00  0.00000000000E+00  0.45593999997E+02  0.45594000000E+02  0.51100000000E-03 0.  1.
         11   -1    0    0    0    0 -0.00000000000E+00 -0.00000000000E+00 -0.45593999997E+02  0.45594000000E+02  0.51100000000E-03 0. -1.
    9900012    2    1    2    0    0 -0.16228662281E+00  0.68677045173E+00  0.94606280484E+00  0.90007735016E+02  0.89999996318E+02 0.  0.
         12    1    1    2    0    0  0.16228662281E+00 -0.68677045173E+00 -0.94606280484E+00  0.11802649838E+01  0.00000000000E+00 0. -1.
         11    1    3    3    0    0 -0.88497752808E+01 -0.29577546122E+02 -0.22428223654E+02  0.38159860766E+02  0.51100000000E-03 0. -1.
        -11    1    3    3    0    0  0.60430148960E+00 -0.74111781126E+01  0.16633715365E+01  0.76195502778E+01  0.51100000000E-03 0.  1.
        -12    1    3    3    0    0  0.80831871684E+01  0.37675494686E+02  0.21710914922E+02  0.44228323973E+02  0.00000000000E+00 0.  1.
</event>
<event>
 7    1  0.1935465E-015  0.9000736E+02  0.7816164E-02  0.1186340E+00
        -11   -1    0    0    0    0  0.00000000000E+00  0.00000000000E+00  0.45593999997E+02  0.45594000000E+02  0.51100000000E-03 0.  1.
         11   -1    0    0    0    0 -0.00000000000E+00 -0.00000000000E+00 -0.45593999997E+02  0.45594000000E+02  0.51100000000E-03 0. -1.
    9900012    2    1    2    0    0  0.29134298891E+00 -0.95575530538E+00  0.62893405090E+00  0.90007361621E+02  0.89999617994E+02 0.  0.
         12    1    1    2    0    0 -0.29134298891E+00  0.95575530538E+00 -0.62893405090E+00  0.11806383787E+01  0.00000000000E+00 0. -1.
         11    1    3    3    0    0  0.21621542376E+02 -0.29189738025E+02  0.16023840770E+02  0.39702586490E+02  0.51100000000E-03 0. -1.
        -11    1    3    3    0    0  0.47263536107E+01 -0.45956459325E+00 -0.10132588563E+02  0.11190128208E+02  0.51100000000E-03 0.  1.
        -12    1    3    3    0    0 -0.26056552998E+02  0.28693547313E+02 -0.52623181561E+01  0.39114646923E+02  0.00000000000E+00 0.  1.
</event>
<event>
 7    1  0.1935465E-015  0.9000754E+02  0.7816164E-02  0.1186339E+00
        -11   -1    0    0    0    0  0.00000000000E+00  0.00000000000E+00  0.45593999997E+02  0.45594000000E+02  0.51100000000E-03 0.  1.
         11   -1    0    0    0    0 -0.00000000000E+00 -0.00000000000E+00 -0.45593999997E+02  0.45594000000E+02  0.51100000000E-03 0. -1.
    9900012    2    1    2    0    0 -0.71304379851E+00  0.57241456873E+00  0.74658417174E+00  0.90007543384E+02  0.89999802156E+02 0.  0.
         12    1    1    2    0    0  0.71304379851E+00 -0.57241456873E+00 -0.74658417174E+00  0.11804566161E+01  0.00000000000E+00 0. -1.
         11    1    3    3    0    0 -0.16320139817E+02 -0.36295611104E+02 -0.70207343814E+01  0.40410506809E+02  0.51100000000E-03 0. -1.
        -11    1    3    3    0    0  0.48008982862E+01 -0.27265609298E+01  0.65087486685E+01  0.85350201142E+01  0.51100000000E-03 0.  1.
        -12    1    3    3    0    0  0.10806197732E+02  0.39594586603E+02  0.12585698847E+01  0.41062016461E+02  0.00000000000E+00 0.  1.
</event>
<event>
 7    1  0.1935465E-015  0.9000705E+02  0.7816164E-02  0.1186340E+00
        -11   -1    0    0    0    0  0.00000000000E+00  0.00000000000E+00  0.45593999997E+02  0.45594000000E+02  0.51100000000E-03 0.  1.
         11   -1    0    0    0    0 -0.00000000000E+00 -0.00000000000E+00 -0.45593999997E+02  0.45594000000E+02  0.51100000000E-03 0. -1.
    9900012    2    1    2    0    0  0.71902024934E+00  0.72581054635E+00  0.59233427382E+00  0.90007046589E+02  0.89999298801E+02 0.  0.
         12    1    1    2    0    0 -0.71902024934E+00 -0.72581054635E+00 -0.59233427382E+00  0.11809534115E+01  0.00000000000E+00 0. -1.
         11    1    3    3    0    0 -0.81827811681E+01 -0.27623318765E+02 -0.26241069497E+02  0.38969210614E+02  0.51100000000E-03 0. -1.
        -11    1    3    3    0    0 -0.63230111554E+01  0.55860477580E+01 -0.43863858119E+01  0.95091945178E+01  0.51100000000E-03 0.  1.
        -12    1    3    3    0    0  0.15224812573E+02  0.22763081553E+02  0.31219789583E+02  0.41528641457E+02  0.00000000000E+00 0.  1.
</event>
<event>
 7    1  0.1935465E-015  0.9000760E+02  0.7816164E-02  0.1186339E+00
        -11   -1    0    0    0    0  0.00000000000E+00  0.00000000000E+00  0.45593999997E+02  0.45594000000E+02  0.51100000000E-03 0.  1.
         11   -1    0    0    0    0 -0.00000000000E+00 -0.00000000000E+00 -0.45593999997E+02  0.45594000000E+02  0.51100000000E-03 0. -1.
    9900012    2    1    2    0    0  0.91566042123E-01 -0.10616350714E+01  0.50782852877E+00  0.90007600415E+02  0.89999859941E+02 0.  0.
         12    1    1    2    0    0 -0.91566042123E-01  0.10616350714E+01 -0.50782852877E+00  0.11803995847E+01  0.00000000000E+00 0. -1.
         11    1    3    3    0    0  0.67584714410E+01  0.35979665173E+01 -0.13012397196E+02  0.15097840254E+02  0.51100000000E-03 0. -1.
        -11    1    3    3    0    0 -0.32771386466E+01  0.34036161625E+02  0.11261093603E+02  0.36000168962E+02  0.51100000000E-03 0.  1.
         12    1    3    3    0    0 -0.33897667523E+01 -0.38695763214E+02  0.22591321224E+01  0.38909591199E+02  0.00000000000E+00 0. -1.
</event>
<event>
 7    1  0.1935465E-015  0.9000776E+02  0.7816164E-02  0.1186339E+00
        -11   -1    0    0    0    0  0.00000000000E+00  0.00000000000E+00  0.45593999997E+02  0.45594000000E+02  0.51100000000E-03 0.  1.
         11   -1    0    0    0    0 -0.00000000000E+00 -0.00000000000E+00 -0.45593999997E+02  0.45594000000E+02  0.51100000000E-03 0. -1.
    9900012    2    1    2    0    0 -0.76174892774E+00 -0.90138548481E+00 -0.14509601375E-01  0.90007759453E+02  0.90000021077E+02 0.  0.
         12    1    1    2    0    0  0.76174892774E+00  0.90138548481E+00  0.14509601375E-01  0.11802405474E+01  0.00000000000E+00 0. -1.
         11    1    3    3    0    0 -0.54412359361E+01  0.32929893801E+00 -0.83166536600E+01  0.99439536737E+01  0.51100000000E-03 0. -1.
        -11    1    3    3    0    0 -0.18303519306E+02  0.33380727752E+02  0.47576638469E+01  0.38365703041E+02  0.51100000000E-03 0.  1.
         12    1    3    3    0    0  0.22983006314E+02 -0.34611412175E+02  0.35444802117E+01  0.41698102738E+02  0.00000000000E+00 0. -1.
</event>
<event>
 7    1  0.1935465E-015  0.9000779E+02  0.7816164E-02  0.1186339E+00
        -11   -1    0    0    0    0  0.00000000000E+00  0.00000000000E+00  0.45593999997E+02  0.45594000000E+02  0.51100000000E-03 0. -1.
         11   -1    0    0    0    0 -0.00000000000E+00 -0.00000000000E+00 -0.45593999997E+02  0.45594000000E+02  0.51100000000E-03 0.  1.
    9900012    2    1    2    0    0  0.95172606338E+00 -0.59342905915E+00 -0.36737332631E+00  0.90007786583E+02  0.90000048566E+02 0.  0.
         12    1    1    2    0    0 -0.95172606338E+00  0.59342905915E+00  0.36737332631E+00  0.11802134166E+01  0.00000000000E+00 0. -1.
         11    1    3    3    0    0 -0.16389632248E+01 -0.16293567327E+02  0.32851156829E+02  0.36706471391E+02  0.51100000000E-03 0. -1.
        -11    1    3    3    0    0 -0.98746250573E+01  0.14238527271E+02  0.48752763332E+00  0.17334404009E+02  0.51100000000E-03 0.  1.
        -12    1    3    3    0    0  0.12465314346E+02  0.14616109968E+01 -0.33706057789E+02  0.35966911184E+02  0.00000000000E+00 0.  1.
</event>
<event>
 7    1  0.3523603E-015  0.9000776E+02  0.7816164E-02  0.1186339E+00
        -11   -1    0    0    0    0  0.00000000000E+00  0.00000000000E+00  0.45593999997E+02  0.45594000000E+02  0.51100000000E-03 0. -1.
         11   -1    0    0    0    0 -0.00000000000E+00 -0.00000000000E+00 -0.45593999997E+02  0.45594000000E+02  0.51100000000E-03 0.  1.
    9900012    2    1    2    0    0 -0.71217041026E+00  0.18105930619E+00 -0.92358458041E+00  0.90007755261E+02  0.90000016831E+02 0.  0.
         12    1    1    2    0    0  0.71217041026E+00 -0.18105930619E+00  0.92358458041E+00  0.11802447385E+01  0.00000000000E+00 0. -1.
         11    1    3    3    0    0  0.44477100083E+01 -0.15255850335E+01 -0.82422953246E+01  0.94892026267E+01  0.51100000000E-03 0. -1.
        -11    1    3    3    0    0  0.25521668464E+02 -0.15554315807E+02 -0.19996573238E+02  0.35960467779E+02  0.51100000000E-03 0.  1.
         12    1    3    3    0    0 -0.30681548882E+02  0.17260960147E+02  0.27315283982E+02  0.44558084856E+02  0.00000000000E+00 0. -1.
</event>
<event>
 7    1  0.1935465E-015  0.9000772E+02  0.7816164E-02  0.1186339E+00
        -11   -1    0    0    0    0  0.00000000000E+00  0.00000000000E+00  0.45593999997E+02  0.45594000000E+02  0.51100000000E-03 0.  1.
         11   -1    0    0    0    0 -0.00000000000E+00 -0.00000000000E+00 -0.45593999997E+02  0.45594000000E+02  0.51100000000E-03 0. -1.
    9900012    2    1    2    0    0  0.64402064600E+00 -0.51839889848E+00  0.84235011269E+00  0.90007723031E+02  0.89999984175E+02 0.  0.
         12    1    1    2    0    0 -0.64402064600E+00  0.51839889848E+00 -0.84235011269E+00  0.11802769687E+01  0.00000000000E+00 0. -1.
         11    1    3    3    0    0 -0.12355334061E+02 -0.32942835650E+02 -0.12513852526E+02  0.37342753055E+02  0.51100000000E-03 0. -1.
        -11    1    3    3    0    0 -0.56468875431E+01 -0.46808469568E+01 -0.31439150734E+01  0.79800920676E+01  0.51100000000E-03 0.  1.
        -12    1    3    3    0    0  0.18646242251E+02  0.37105283709E+02  0.16500117712E+02  0.44684877908E+02  0.00000000000E+00 0.  1.
</event>
<event>
 7    1  0.1935465E-015  0.9000772E+02  0.7816164E-02  0.1186339E+00
        -11   -1    0    0    0    0  0.00000000000E+00  0.00000000000E+00  0.45593999997E+02  0.45594000000E+02  0.51100000000E-03 0.  1.
         11   -1    0    0    0    0 -0.00000000000E+00 -0.00000000000E+00 -0.45593999997E+02  0.45594000000E+02  0.51100000000E-03 0. -1.
    9900012    2    1    2    0    0  0.59800588322E+00  0.87785026456E+00 -0.51462151646E+00  0.90007717225E+02  0.89999978293E+02 0.  0.
         12    1    1    2    0    0 -0.59800588322E+00 -0.87785026456E+00  0.51462151646E+00  0.11802827748E+01  0.00000000000E+00 0. -1.
         11    1    3    3    0    0  0.34207572139E+02 -0.20443808514E+01  0.10346915719E+02  0.35796594110E+02  0.51100000000E-03 0. -1.
        -11    1    3    3    0    0  0.49107764747E+01  0.12200500969E+02 -0.93838312318E-01  0.13152062780E+02  0.51100000000E-03 0.  1.
        -12    1    3    3    0    0 -0.38520342730E+02 -0.92782698528E+01 -0.10767698923E+02  0.41059060335E+02  0.00000000000E+00 0.  1.
</event>
<event>
 7    1  0.1935465E-015  0.9000766E+02  0.7816164E-02  0.1186339E+00
        -11   -1    0    0    0    0  0.00000000000E+00  0.00000000000E+00  0.45593999997E+02  0.45594000000E+02  0.51100000000E-03 0.  1.
         11   -1    0    0    0    0 -0.00000000000E+00 -0.00000000000E+00 -0.45593999997E+02  0.45594000000E+02  0.51100000000E-03 0. -1.
    9900012    2    1    2    0    0 -0.12962821601E+00 -0.80215838598E+00  0.85611503240E+00  0.90007663396E+02  0.89999923753E+02 0.  0.
         12    1    1    2    0    0  0.12962821601E+00  0.80215838598E+00 -0.85611503240E+00  0.11803366042E+01  0.00000000000E+00 0. -1.
         11    1    3    3    0    0  0.77714008242E+01  0.41860955513E+01 -0.55636137625E+01  0.10434168155E+02  0.51100000000E-03 0. -1.
        -11    1    3    3    0    0  0.41982904865E+01  0.27368279777E+02  0.27565589813E+02  0.39070578738E+02  0.51100000000E-03 0.  1.
         12    1    3    3    0    0 -0.12099319527E+02 -0.32356533714E+02 -0.21145861018E+02  0.40502916502E+02  0.00000000000E+00 0. -1.
</event>
<event>
 7    1  0.1935465E-015  0.9000775E+02  0.7816164E-02  0.1186339E+00
        -11   -1    0    0    0    0  0.00000000000E+00  0.00000000000E+00  0.45593999997E+02  0.45594000000E+02  0.51100000000E-03 0. -1.
         11   -1    0    0    0    0 -0.00000000000E+00 -0.00000000000E+00 -0.45593999997E+02  0.45594000000E+02  0.51100000000E-03 0.  1.
    9900012    2    1    2    0    0 -0.78416282492E-01 -0.96941947475E-01 -0.11736437425E+01  0.90007751514E+02  0.90000013034E+02 0.  0.
         12    1    1    2    0    0  0.78416282492E-01  0.96941947475E-01  0.11736437425E+01  0.11802484861E+01  0.00000000000E+00 0. -1.
         11    1    3    3    0    0 -0.84718831062E+01  0.42980058502E+01  0.57754083046E+01  0.11117598617E+02  0.51100000000E-03 0. -1.
        -11    1    3    3    0    0 -0.11519797540E+02 -0.35732331031E+02  0.87968737808E+01  0.38560215311E+02  0.51100000000E-03 0.  1.
         12    1    3    3    0    0  0.19913264363E+02  0.31337383233E+02 -0.15745925828E+02  0.40329937586E+02  0.00000000000E+00 0. -1.
</event>
<event>
 7    1  0.1935465E-015  0.9000775E+02  0.7816164E-02  0.1186339E+00
        -11   -1    0    0    0    0  0.00000000000E+00  0.00000000000E+00  0.45593999997E+02  0.45594000000E+02  0.51100000000E-03 0. -1.
         11   -1    0    0    0    0 -0.00000000000E+00 -0.00000000000E+00 -0.45593999997E+02  0.45594000000E+02  0.51100000000E-03 0.  1.
    9900012    2    1    2    0    0 -0.68751950163E+00 -0.74575358364E+00 -0.60345694080E+00  0.90007749284E+02  0.90000010775E+02 0.  0.
         12    1    1    2    0    0  0.68751950163E+00  0.74575358364E+00  0.60345694080E+00  0.11802507157E+01  0.00000000000E+00 0. -1.
         11    1    3    3    0    0  0.64090017042E+01  0.90542024090E+01 -0.10623849619E+02  0.15359689616E+02  0.51100000000E-03 0. -1.
        -11    1    3    3    0    0 -0.18637566293E+02  0.25676314872E+02 -0.87133922247E+01  0.32902207024E+02  0.51100000000E-03 0.  1.
         12    1    3    3    0    0  0.11541045087E+02 -0.35476270865E+02  0.18733784903E+02  0.41745852644E+02  0.00000000000E+00 0. -1.
</event>
<event>
 7    1  0.1935465E-015  0.9000774E+02  0.7816164E-02  0.1186339E+00
        -11   -1    0    0    0    0  0.00000000000E+00  0.00000000000E+00  0.45593999997E+02  0.45594000000E+02  0.51100000000E-03 0. -1.
         11   -1    0    0    0    0 -0.00000000000E+00 -0.00000000000E+00 -0.45593999997E+02  0.45594000000E+02  0.51100000000E-03 0.  1.
    9900012    2    1    2    0    0  0.91220174011E+00 -0.11957678792E-01 -0.74884455467E+00  0.90007735975E+02  0.89999997290E+02 0.  0.
         12    1    1    2    0    0 -0.91220174011E+00  0.11957678792E-01  0.74884455467E+00  0.11802640246E+01  0.00000000000E+00 0. -1.
         11    1    3    3    0    0  0.27748600028E+02 -0.20079611018E+02  0.18271384602E+00  0.34252138134E+02  0.51100000000E-03 0. -1.
        -11    1    3    3    0    0  0.95559604042E+01 -0.43847858076E+01 -0.51524442251E+01  0.11708561294E+02  0.51100000000E-03 0.  1.
        -12    1    3    3    0    0 -0.36392358692E+02  0.24452439147E+02  0.42208858245E+01  0.44047036547E+02  0.00000000000E+00 0.  1.
</event>
<event>
 7    1  0.2454988E-015  0.9000762E+02  0.7816164E-02  0.1186339E+00
        -11   -1    0    0    0    0  0.00000000000E+00  0.00000000000E+00  0.45593999997E+02  0.45594000000E+02  0.51100000000E-03 0.  1.
         11   -1    0    0    0    0 -0.00000000000E+00 -0.00000000000E+00 -0.45593999997E+02  0.45594000000E+02  0.51100000000E-03 0. -1.
    9900012    2    1    2    0    0 -0.16996176425E+00  0.69376626860E-01  0.11660206255E+01  0.90007616920E+02  0.89999876663E+02 0.  0.
         12    1    1    2    0    0  0.16996176425E+00 -0.69376626860E-01 -0.11660206255E+01  0.11803830805E+01  0.00000000000E+00 0. -1.
         11    1    3    3    0    0  0.82973084840E+01  0.49188437335E+01  0.39302562887E+00  0.96537464831E+01  0.51100000000E-03 0. -1.
        -11    1    3    3    0    0 -0.55409075270E+00  0.17805029268E+02  0.34578441466E+02  0.38897232527E+02  0.51100000000E-03 0.  1.
         12    1    3    3    0    0 -0.79131794956E+01 -0.22654496375E+02 -0.33805446470E+02  0.41456637909E+02  0.00000000000E+00 0. -1.
</event>
<event>
 7    1  0.1935465E-015  0.9000774E+02  0.7816164E-02  0.1186339E+00
        -11   -1    0    0    0    0  0.00000000000E+00  0.00000000000E+00  0.45593999997E+02  0.45594000000E+02  0.51100000000E-03 0. -1.
         11   -1    0    0    0    0 -0.00000000000E+00 -0.00000000000E+00 -0.45593999997E+02  0.45594000000E+02  0.51100000000E-03 0.  1.
    9900012    2    1    2    0    0 -0.11624152789E-01  0.66112633921E+00 -0.97764247701E+00  0.90007742414E+02  0.90000003813E+02 0.  0.
         12    1    1    2    0    0  0.11624152789E-01 -0.66112633921E+00  0.97764247701E+00  0.11802575864E+01  0.00000000000E+00 0. -1.
         11    1    3    3    0    0  0.30834940310E+02  0.17602431316E+02 -0.16688821034E+02  0.39232077181E+02  0.51100000000E-03 0. -1.
        -11    1    3    3    0    0  0.56509707430E+01 -0.12635671763E+01  0.86825448001E+01  0.10436314331E+02  0.51100000000E-03 0.  1.
        -12    1    3    3    0    0 -0.36497535206E+02 -0.15677737800E+02  0.70286337572E+01  0.40339350901E+02  0.00000000000E+00 0.  1.
</event>
<event>
 7    1  0.1935465E-015  0.9000770E+02  0.7816164E-02  0.1186339E+00
        -11   -1    0    0    0    0  0.00000000000E+00  0.00000000000E+00  0.45593999997E+02  0.45594000000E+02  0.51100000000E-03 0.  1.
         11   -1    0    0    0    0 -0.00000000000E+00 -0.00000000000E+00 -0.45593999997E+02  0.45594000000E+02  0.51100000000E-03 0. -1.
    9900012    2    1    2    0    0  0.54600228487E+00  0.41150979513E+00  0.96210806604E+00  0.90007698879E+02  0.89999959704E+02 0.  0.
         12    1    1    2    0    0 -0.54600228487E+00 -0.41150979513E+00 -0.96210806604E+00  0.11803011215E+01  0.00000000000E+00 0. -1.
         11    1    3    3    0    0 -0.61721189449E+01  0.15421069806E+01 -0.80836695820E+01  0.10286829462E+02  0.51100000000E-03 0. -1.
        -11    1    3    3    0    0  0.16847759681E+02 -0.33467615783E+02 -0.12576846298E+02  0.39523478789E+02  0.51100000000E-03 0.  1.
         12    1    3    3    0    0 -0.10129638452E+02  0.32337018598E+02  0.21622623946E+02  0.40197390628E+02  0.00000000000E+00 0. -1.
</event>
<event>
 7    1  0.1935465E-015  0.9000778E+02  0.7816164E-02  0.1186339E+00
        -11   -1    0    0    0    0  0.00000000000E+00  0.00000000000E+00  0.45593999997E+02  0.45594000000E+02  0.51100000000E-03 0.  1.
         11   -1    0    0    0    0 -0.00000000000E+00 -0.00000000000E+00 -0.45593999997E+02  0.45594000000E+02  0.51100000000E-03 0. -1.
    9900012    2    1    2    0    0 -0.40459875599E+00  0.71906776079E+00 -0.84388991525E+00  0.90007784432E+02  0.90000046386E+02 0.  0.
         12    1    1    2    0    0  0.40459875599E+00 -0.71906776079E+00  0.84388991525E+00  0.11802155680E+01  0.00000000000E+00 0. -1.
         11    1    3    3    0    0 -0.27762648587E+02  0.19971811485E+02  0.43295296976E+01  0.34472927613E+02  0.51100000000E-03 0. -1.
        -11    1    3    3    0    0 -0.73292081247E+01  0.80168048847E+01 -0.33784073573E+01  0.11375415985E+02  0.51100000000E-03 0.  1.
        -12    1    3    3    0    0  0.34687257955E+02 -0.27269548609E+02 -0.17950122555E+01  0.44159440834E+02  0.00000000000E+00 0.  1.
</event>
<event>
 7    1  0.1935465E-015  0.9000784E+02  0.7816164E-02  0.1186339E+00
        -11   -1    0    0    0    0  0.00000000000E+00  0.00000000000E+00  0.45593999997E+02  0.45594000000E+02  0.51100000000E-03 0.  1.
         11   -1    0    0    0    0 -0.00000000000E+00 -0.00000000000E+00 -0.45593999997E+02  0.45594000000E+02  0.51100000000E-03 0. -1.
    9900012    2    1    2    0    0 -0.25954367871E+00  0.98656032217E+00  0.59339475757E+00  0.90007838346E+02  0.90000101012E+02 0.  0.
         12    1    1    2    0    0  0.25954367871E+00 -0.98656032217E+00 -0.59339475757E+00  0.11801616537E+01  0.00000000000E+00 0. -1.
         11    1    3    3    0    0  0.18933447461E+02 -0.16442272522E+02 -0.29146099638E+02  0.38448912635E+02  0.51100000000E-03 0. -1.
        -11    1    3    3    0    0  0.74248481231E+01  0.58704919815E+01 -0.71539785082E+00  0.94922515823E+01  0.51100000000E-03 0.  1.
        -12    1    3    3    0    0 -0.26617839263E+02  0.11558340863E+02  0.30454892246E+02  0.42066674129E+02  0.00000000000E+00 0.  1.
</event>
<event>
 7    1  0.1935465E-015  0.9000790E+02  0.7816164E-02  0.1186339E+00
        -11   -1    0    0    0    0  0.00000000000E+00  0.00000000000E+00  0.45593999997E+02  0.45594000000E+02  0.51100000000E-03 0.  1.
         11   -1    0    0    0    0 -0.00000000000E+00 -0.00000000000E+00 -0.45593999997E+02  0.45594000000E+02  0.51100000000E-03 0. -1.
    9900012    2    1    2    0    0 -0.10270232570E+01 -0.27089574565E+00  0.51426387124E+00  0.90007903138E+02  0.90000166659E+02 0.  0.
         12    1    1    2    0    0  0.10270232570E+01  0.27089574565E+00 -0.51426387124E+00  0.11800968624E+01  0.00000000000E+00 0. -1.
         11    1    3    3    0    0 -0.82098937771E+01 -0.66913907071E+01 -0.20180465591E+01  0.10781909738E+02  0.51100000000E-03 0. -1.
        -11    1    3    3    0    0 -0.20103747639E+02  0.19327795356E+02 -0.25679097836E+02  0.37909634770E+02  0.51100000000E-03 0.  1.
         12    1    3    3    0    0  0.27286618159E+02 -0.12907300395E+02  0.28211408267E+02  0.41316358629E+02  0.00000000000E+00 0. -1.
</event>
<event>
 7    1  0.1935465E-015  0.9000787E+02  0.7816164E-02  0.1186339E+00
        -11   -1    0    0    0    0  0.00000000000E+00  0.00000000000E+00  0.45593999997E+02  0.45594000000E+02  0.51100000000E-03 0. -1.
         11   -1    0    0    0    0 -0.00000000000E+00 -0.00000000000E+00 -0.45593999997E+02  0.45594000000E+02  0.51100000000E-03 0.  1.
    9900012    2    1    2    0    0  0.42337476007E-01 -0.67610877450E+00 -0.96632971001E+00  0.90007869225E+02  0.90000132299E+02 0.  0.
         12    1    1    2    0    0 -0.42337476007E-01  0.67610877450E+00  0.96632971001E+00  0.11801307747E+01  0.00000000000E+00 0. -1.
         11    1    3    3    0    0  0.12603889255E+02 -0.34902644372E+02  0.43757727895E+01  0.37365759678E+02  0.51100000000E-03 0. -1.
        -11    1    3    3    0    0  0.81769617914E+01 -0.35999670156E+01 -0.30579705412E+01  0.94431801181E+01  0.51100000000E-03 0.  1.
        -12    1    3    3    0    0 -0.20738513571E+02  0.37826502613E+02 -0.22841319583E+01  0.43198929430E+02  0.00000000000E+00 0.  1.
</event>
<event>
 7    1  0.1935465E-015  0.9000796E+02  0.7816164E-02  0.1186339E+00
        -11   -1    0    0    0    0  0.00000000000E+00  0.00000000000E+00  0.45593999997E+02  0.45594000000E+02  0.51100000000E-03 0.  1.
         11   -1    0    0    0    0 -0.00000000000E+00 -0.00000000000E+00 -0.45593999997E+02  0.45594000000E+02  0.51100000000E-03 0. -1.
    9900012    2    1    2    0    0  0.10918593558E+01 -0.49313193084E-01  0.44487008690E+00  0.90007958459E+02  0.90000222711E+02 0.  0.
         12    1    1    2    0    0 -0.10918593558E+01  0.49313193084E-01 -0.44487008690E+00  0.11800415409E+01  0.00000000000E+00 0. -1.
         11    1    3    3    0    0  0.19287559839E+02 -0.52746648681E+01 -0.35328343953E+02  0.40594629457E+02  0.51100000000E-03 0. -1.
        -11    1    3    3    0    0  0.46647422614E+01  0.71261555494E+01  0.22789162783E+01  0.88167665810E+01  0.51100000000E-03 0.  1.
        -12    1    3    3    0    0 -0.22860442745E+02 -0.19008038744E+01  0.33494297762E+02  0.40596562421E+02  0.00000000000E+00 0.  1.
</event>
<event>
 7    1  0.1935465E-015  0.9000773E+02  0.7816164E-02  0.1186339E+00
        -11   -1    0    0    0    0  0.00000000000E+00  0.00000000000E+00  0.45593999997E+02  0.45594000000E+02  0.51100000000E-03 0.  1.
         11   -1    0    0    0    0 -0.00000000000E+00 -0.00000000000E+00 -0.45593999997E+02  0.45594000000E+02  0.51100000000E-03 0. -1.
    9900012    2    1    2    0    0  0.42224439410E+00 -0.99257812747E+00 -0.47910362816E+00  0.90007728017E+02  0.89999989227E+02 0.  0.
         12    1    1    2    0    0 -0.42224439410E+00  0.99257812747E+00  0.47910362816E+00  0.11802719831E+01  0.00000000000E+00 0. -1.
         11    1    3    3    0    0  0.47119020797E+00 -0.76958754553E+01 -0.57861462555E+01  0.96399174263E+01  0.51100000000E-03 0. -1.
        -11    1    3    3    0    0 -0.33272510258E+02 -0.45825206859E+01  0.23356525195E+02  0.40909494058E+02  0.51100000000E-03 0.  1.
         12    1    3    3    0    0  0.33223564444E+02  0.11285818014E+02 -0.18049482567E+02  0.39458316532E+02  0.00000000000E+00 0. -1.
</event>
<event>
 7    1  0.1935465E-015  0.9000772E+02  0.7816164E-02  0.1186339E+00
        -11   -1    0    0    0    0  0.00000000000E+00  0.00000000000E+00  0.45593999997E+02  0.45594000000E+02  0.51100000000E-03 0. -1.
         11   -1    0    0    0    0 -0.00000000000E+00 -0.00000000000E+00 -0.45593999997E+02  0.45594000000E+02  0.51100000000E-03 0.  1.
    9900012    2    1    2    0    0  0.68089430879E+00 -0.96172895445E+00 -0.67287809074E-01  0.90007717284E+02  0.89999978352E+02 0.  0.
         12    1    1    2    0    0 -0.68089430879E+00  0.96172895445E+00  0.67287809074E-01  0.11802827165E+01  0.00000000000E+00 0. -1.
         11    1    3    3    0    0 -0.19556516729E+01  0.93074111776E+01  0.19346643323E+01  0.97054316048E+01  0.51100000000E-03 0. -1.
        -11    1    3    3    0    0 -0.14762525635E+02  0.30869963357E+02  0.65082875562E+01  0.34831660999E+02  0.51100000000E-03 0.  1.
         12    1    3    3    0    0  0.17399071617E+02 -0.41139103489E+02 -0.85102396976E+01  0.45470624679E+02  0.00000000000E+00 0. -1.
</event>
<event>
 7    1  0.1935465E-015  0.9000790E+02  0.7816164E-02  0.1186339E+00
        -11   -1    0    0    0    0  0.00000000000E+00  0.00000000000E+00  0.45593999997E+02  0.45594000000E+02  0.51100000000E-03 0.  1.
         11   -1    0    0    0    0 -0.00000000000E+00 -0.00000000000E+00 -0.45593999997E+02  0.45594000000E+02  0.51100000000E-03 0. -1.
    9900012    2    1    2    0    0  0.30503587019E+00 -0.54719294204E+00  0.10000803763E+01  0.90007903497E+02  0.90000167023E+02 0.  0.
         12    1    1    2    0    0 -0.30503587019E+00  0.54719294204E+00 -0.10000803763E+01  0.11800965033E+01  0.00000000000E+00 0. -1.
         11    1    3    3    0    0  0.33506688214E+02 -0.35812935791E+01 -0.16145402744E+02  0.37365730942E+02  0.51100000000E-03 0. -1.
        -11    1    3    3    0    0  0.77684942158E+01 -0.22911515564E+01  0.54692189970E+00  0.81177584136E+01  0.51100000000E-03 0.  1.
        -12    1    3    3    0    0 -0.40970146560E+02  0.53252521935E+01  0.16598561220E+02  0.44524414142E+02  0.00000000000E+00 0.  1.
</event>
<event>
 7    1  0.1935465E-015  0.9000774E+02  0.7816164E-02  0.1186339E+00
        -11   -1    0    0    0    0  0.00000000000E+00  0.00000000000E+00  0.45593999997E+02  0.45594000000E+02  0.51100000000E-03 0.  1.
         11   -1    0    0    0    0 -0.00000000000E+00 -0.00000000000E+00 -0.45593999997E+02  0.45594000000E+02  0.51100000000E-03 0. -1.
    9900012    2    1    2    0    0 -0.98747940104E-01 -0.10149236376E+01  0.59429655156E+00  0.90007741750E+02  0.90000003141E+02 0.  0.
         12    1    1    2    0    0  0.98747940104E-01  0.10149236376E+01 -0.59429655156E+00  0.11802582501E+01  0.00000000000E+00 0. -1.
         11    1    3    3    0    0 -0.95222531208E+00  0.15615848196E+02 -0.60204554564E+01  0.16763273311E+02  0.51100000000E-03 0. -1.
        -11    1    3    3    0    0  0.24644703416E+02 -0.33254224596E+02 -0.55758441819E+01  0.41764756657E+02  0.51100000000E-03 0.  1.
         12    1    3    3    0    0 -0.23791226044E+02  0.16623452763E+02  0.12190596190E+02  0.31479711783E+02  0.00000000000E+00 0. -1.
</event>
<event>
 7    1  0.1935465E-015  0.9000765E+02  0.7816164E-02  0.1186339E+00
        -11   -1    0    0    0    0  0.00000000000E+00  0.00000000000E+00  0.45593999997E+02  0.45594000000E+02  0.51100000000E-03 0.  1.
         11   -1    0    0    0    0 -0.00000000000E+00 -0.00000000000E+00 -0.45593999997E+02  0.45594000000E+02  0.51100000000E-03 0. -1.
    9900012    2    1    2    0    0 -0.19719125868E+00 -0.11359142724E+01 -0.25304504703E+00  0.90007653685E+02  0.89999913914E+02 0.  0.
         12    1    1    2    0    0  0.19719125868E+00  0.11359142724E+01  0.25304504703E+00  0.11803463147E+01  0.00000000000E+00 0. -1.
         11    1    3    3    0    0 -0.64493267147E+01  0.23612147419E+01  0.59219235375E+01  0.90685350953E+01  0.51100000000E-03 0. -1.
        -11    1    3    3    0    0 -0.24635259942E+02  0.24298102098E+02  0.10508607396E+02  0.36162475408E+02  0.51100000000E-03 0.  1.
         12    1    3    3    0    0  0.30887395398E+02 -0.27795231113E+02 -0.16683575980E+02  0.44776643181E+02  0.00000000000E+00 0. -1.
</event>
<event>
 7    1  0.1935465E-015  0.9000784E+02  0.7816164E-02  0.1186339E+00
        -11   -1    0    0    0    0  0.00000000000E+00  0.00000000000E+00  0.45593999997E+02  0.45594000000E+02  0.51100000000E-03 0. -1.
         11   -1    0    0    0    0 -0.00000000000E+00 -0.00000000000E+00 -0.45593999997E+02  0.45594000000E+02  0.51100000000E-03 0.  1.
    9900012    2    1    2    0    0 -0.61298827236E+00 -0.52447195431E+00  0.86136495460E+00  0.90007841096E+02  0.90000103799E+02 0.  0.
         12    1    1    2    0    0  0.61298827236E+00  0.52447195431E+00 -0.86136495460E+00  0.11801589037E+01  0.00000000000E+00 0. -1.
         11    1    3    3    0    0  0.37700933154E+02 -0.14821558524E+02 -0.14442662616E+02  0.43007318696E+02  0.51100000000E-03 0. -1.
        -11    1    3    3    0    0 -0.11310135178E+02  0.18185669942E+01 -0.32916458973E+01  0.11918946121E+02  0.51100000000E-03 0.  1.
        -12    1    3    3    0    0 -0.27003786248E+02  0.12478519575E+02  0.18595673468E+02  0.35081576280E+02  0.00000000000E+00 0.  1.
</event>
<event>
 7    1  0.1935465E-015  0.9000812E+02  0.7816164E-02  0.1186338E+00
        -11   -1    0    0    0    0  0.00000000000E+00  0.00000000000E+00  0.45593999997E+02  0.45594000000E+02  0.51100000000E-03 0. -1.
         11   -1    0    0    0    0 -0.00000000000E+00 -0.00000000000E+00 -0.45593999997E+02  0.45594000000E+02  0.51100000000E-03 0.  1.
    9900012    2    1    2    0    0 -0.11374544853E+01  0.20298342055E+00  0.23897900336E+00  0.90008120371E+02  0.90000386759E+02 0.  0.
         12    1    1    2    0    0  0.11374544853E+01 -0.20298342055E+00 -0.23897900336E+00  0.11798796291E+01  0.00000000000E+00 0. -1.
         11    1    3    3    0    0  0.93682291835E+00 -0.42126829245E+01  0.98201437788E+01  0.10726581874E+02  0.51100000000E-03 0. -1.
        -11    1    3    3    0    0  0.19548742650E+02  0.35584985519E+02 -0.75103854924E+01  0.41289834391E+02  0.51100000000E-03 0.  1.
         12    1    3    3    0    0 -0.21623020053E+02 -0.31169319174E+02 -0.20707792831E+01  0.37991704105E+02  0.00000000000E+00 0. -1.
</event>
<event>
 7    1  0.1935465E-015  0.9000777E+02  0.7816164E-02  0.1186339E+00
        -11   -1    0    0    0    0  0.00000000000E+00  0.00000000000E+00  0.45593999997E+02  0.45594000000E+02  0.51100000000E-03 0. -1.
         11   -1    0    0    0    0 -0.00000000000E+00 -0.00000000000E+00 -0.45593999997E+02  0.45594000000E+02  0.51100000000E-03 0.  1.
    9900012    2    1    2    0    0  0.37489999476E-01 -0.36203439422E+00 -0.11227105290E+01  0.90007765560E+02  0.90000027265E+02 0.  0.
         12    1    1    2    0    0 -0.37489999476E-01  0.36203439422E+00  0.11227105290E+01  0.11802344405E+01  0.00000000000E+00 0. -1.
         11    1    3    3    0    0 -0.13786321893E+02  0.36611836088E+00  0.11272134873E+02  0.17811730372E+02  0.51100000000E-03 0. -1.
        -11    1    3    3    0    0 -0.52201306660E+01 -0.72856337262E+01  0.26729231910E+02  0.28191879358E+02  0.51100000000E-03 0.  1.
        -12    1    3    3    0    0  0.19043942558E+02  0.65574809711E+01 -0.39124077311E+02  0.44004155830E+02  0.00000000000E+00 0.  1.
</event>
<event>
 7    1  0.2678950E-015  0.9000777E+02  0.7816164E-02  0.1186339E+00
        -11   -1    0    0    0    0  0.00000000000E+00  0.00000000000E+00  0.45593999997E+02  0.45594000000E+02  0.51100000000E-03 0. -1.
         11   -1    0    0    0    0 -0.00000000000E+00 -0.00000000000E+00 -0.45593999997E+02  0.45594000000E+02  0.51100000000E-03 0.  1.
    9900012    2    1    2    0    0  0.51079785907E+00 -0.33670394654E+00 -0.10092817235E+01  0.90007773921E+02  0.90000035737E+02 0.  0.
         12    1    1    2    0    0 -0.51079785907E+00  0.33670394654E+00  0.10092817235E+01  0.11802260791E+01  0.00000000000E+00 0. -1.
         11    1    3    3    0    0  0.68942017934E+01 -0.63184377862E+01  0.35543108670E+00  0.93583655595E+01  0.51100000000E-03 0. -1.
        -11    1    3    3    0    0  0.12147391426E+02 -0.12011533329E+02 -0.34582175455E+02  0.38571529796E+02  0.51100000000E-03 0.  1.
         12    1    3    3    0    0 -0.18530795360E+02  0.17993267168E+02  0.33217462644E+02  0.42077878566E+02  0.00000000000E+00 0. -1.
</event>
<event>
 7    1  0.1935465E-015  0.9000775E+02  0.7816164E-02  0.1186339E+00
        -11   -1    0    0    0    0  0.00000000000E+00  0.00000000000E+00  0.45593999997E+02  0.45594000000E+02  0.51100000000E-03 0. -1.
         11   -1    0    0    0    0 -0.00000000000E+00 -0.00000000000E+00 -0.45593999997E+02  0.45594000000E+02  0.51100000000E-03 0.  1.
    9900012    2    1    2    0    0 -0.54523590877E+00  0.98796148026E+00 -0.34590319457E+00  0.90007746170E+02  0.90000007620E+02 0.  0.
         12    1    1    2    0    0  0.54523590877E+00 -0.98796148026E+00  0.34590319457E+00  0.11802538298E+01  0.00000000000E+00 0. -1.
         11    1    3    3    0    0  0.44858069090E+01 -0.49219642336E+01  0.83540403812E+01  0.10683547468E+02  0.51100000000E-03 0. -1.
        -11    1    3    3    0    0  0.14532421756E+02 -0.25993132056E+02 -0.24635486849E+02  0.38648950939E+02  0.51100000000E-03 0.  1.
         12    1    3    3    0    0 -0.19563464573E+02  0.31903057770E+02  0.15935543273E+02  0.40675247763E+02  0.00000000000E+00 0. -1.
</event>
<event>
 7    1  0.2004904E-015  0.9000774E+02  0.7816164E-02  0.1186339E+00
        -11   -1    0    0    0    0  0.00000000000E+00  0.00000000000E+00  0.45593999997E+02  0.45594000000E+02  0.51100000000E-03 0.  1.
         11   -1    0    0    0    0 -0.00000000000E+00 -0.00000000000E+00 -0.45593999997E+02  0.45594000000E+02  0.51100000000E-03 0. -1.
    9900012    2    1    2    0    0 -0.85064286454E+00  0.77725013098E+00  0.25555857373E+00  0.90007736795E+02  0.89999998120E+02 0.  0.
         12    1    1    2    0    0  0.85064286454E+00 -0.77725013098E+00 -0.25555857373E+00  0.11802632053E+01  0.00000000000E+00 0. -1.
         11    1    3    3    0    0  0.90728198765E+01 -0.21639736626E+01  0.16963804387E+01  0.94803243287E+01  0.51100000000E-03 0. -1.
        -11    1    3    3    0    0 -0.18666920898E+02 -0.51693797423E+01  0.36192480255E+02  0.41049629110E+02  0.51100000000E-03 0.  1.
         12    1    3    3    0    0  0.87434581571E+01  0.81106035358E+01 -0.37633302120E+02  0.39477783356E+02  0.00000000000E+00 0. -1.
</event>
<event>
 7    1  0.1935465E-015  0.9000784E+02  0.7816164E-02  0.1186339E+00
        -11   -1    0    0    0    0  0.00000000000E+00  0.00000000000E+00  0.45593999997E+02  0.45594000000E+02  0.51100000000E-03 0.  1.
         11   -1    0    0    0    0 -0.00000000000E+00 -0.00000000000E+00 -0.45593999997E+02  0.45594000000E+02  0.51100000000E-03 0. -1.
    9900012    2    1    2    0    0 -0.41809131705E+00  0.98711986317E+00  0.49351872139E+00  0.90007844628E+02  0.90000107377E+02 0.  0.
         12    1    1    2    0    0  0.41809131705E+00 -0.98711986317E+00 -0.49351872139E+00  0.11801553720E+01  0.00000000000E+00 0. -1.
         11    1    3    3    0    0  0.57438728945E+00  0.39450001350E+02  0.10808552317E+02  0.40907912813E+02  0.51100000000E-03 0. -1.
        -11    1    3    3    0    0  0.60606151442E+01  0.34936806359E+00  0.38469509626E+01  0.71869427394E+01  0.51100000000E-03 0.  1.
        -12    1    3    3    0    0 -0.70530937507E+01 -0.38812249551E+02 -0.14161984558E+02  0.41912989076E+02  0.00000000000E+00 0.  1.
</event>
<event>
 7    1  0.1935465E-015  0.9000767E+02  0.7816164E-02  0.1186339E+00
        -11   -1    0    0    0    0  0.00000000000E+00  0.00000000000E+00  0.45593999997E+02  0.45594000000E+02  0.51100000000E-03 0. -1.
         11   -1    0    0    0    0 -0.00000000000E+00 -0.00000000000E+00 -0.45593999997E+02  0.45594000000E+02  0.51100000000E-03 0.  1.
    9900012    2    1    2    0    0 -0.30699119895E+00 -0.99784878520E+00 -0.55065807813E+00  0.90007673726E+02  0.89999934219E+02 0.  0.
         12    1    1    2    0    0  0.30699119895E+00  0.99784878520E+00  0.55065807813E+00  0.11803262741E+01  0.00000000000E+00 0. -1.
         11    1    3    3    0    0  0.12243346031E+02 -0.60092473545E+01  0.85282445700E+01  0.16085444710E+02  0.51100000000E-03 0. -1.
        -11    1    3    3    0    0 -0.31476881788E+01 -0.26070854959E+02 -0.26299557666E+02  0.37165362272E+02  0.51100000000E-03 0.  1.
         12    1    3    3    0    0 -0.94026490516E+01  0.31082253528E+02  0.17220655017E+02  0.36756866744E+02  0.00000000000E+00 0. -1.
</event>
<event>
 7    1  0.1935465E-015  0.9000781E+02  0.7816164E-02  0.1186339E+00
        -11   -1    0    0    0    0  0.00000000000E+00  0.00000000000E+00  0.45593999997E+02  0.45594000000E+02  0.51100000000E-03 0. -1.
         11   -1    0    0    0    0 -0.00000000000E+00 -0.00000000000E+00 -0.45593999997E+02  0.45594000000E+02  0.51100000000E-03 0.  1.
    9900012    2    1    2    0    0  0.52076827841E+00  0.10449500746E+01  0.17239260742E+00  0.90007813799E+02  0.90000076141E+02 0.  0.
         12    1    1    2    0    0 -0.52076827841E+00 -0.10449500746E+01 -0.17239260742E+00  0.11801862011E+01  0.00000000000E+00 0. -1.
         11    1    3    3    0    0  0.32238362080E+01 -0.36453760689E+01 -0.77412332807E+01  0.91437727196E+01  0.51100000000E-03 0. -1.
        -11    1    3    3    0    0 -0.31551823516E+02 -0.23696514429E+02 -0.78343980682E+00  0.39467152690E+02  0.51100000000E-03 0.  1.
         12    1    3    3    0    0  0.28848755587E+02  0.28386840572E+02  0.86970656949E+01  0.41396888389E+02  0.00000000000E+00 0. -1.
</event>
<event>
 7    1  0.1935465E-015  0.9000774E+02  0.7816164E-02  0.1186339E+00
        -11   -1    0    0    0    0  0.00000000000E+00  0.00000000000E+00  0.45593999997E+02  0.45594000000E+02  0.51100000000E-03 0. -1.
         11   -1    0    0    0    0 -0.00000000000E+00 -0.00000000000E+00 -0.45593999997E+02  0.45594000000E+02  0.51100000000E-03 0.  1.
    9900012    2    1    2    0    0  0.53655542669E+00 -0.14612787464E+00 -0.10410387887E+01  0.90007742892E+02  0.90000004298E+02 0.  0.
         12    1    1    2    0    0 -0.53655542669E+00  0.14612787464E+00  0.10410387887E+01  0.11802571081E+01  0.00000000000E+00 0. -1.
         11    1    3    3    0    0 -0.10969091525E+02  0.17364712164E+02  0.36628057764E+02  0.41993675872E+02  0.51100000000E-03 0. -1.
        -11    1    3    3    0    0 -0.45381270919E+01  0.15417654535E+01 -0.73658656849E+01  0.87879244287E+01  0.51100000000E-03 0.  1.
        -12    1    3    3    0    0  0.16043774043E+02 -0.19052605492E+02 -0.30303230868E+02  0.39226142591E+02  0.00000000000E+00 0.  1.
</event>
<event>
 7    1  0.1935465E-015  0.9000777E+02  0.7816164E-02  0.1186339E+00
        -11   -1    0    0    0    0  0.00000000000E+00  0.00000000000E+00  0.45593999997E+02  0.45594000000E+02  0.51100000000E-03 0.  1.
         11   -1    0    0    0    0 -0.00000000000E+00 -0.00000000000E+00 -0.45593999997E+02  0.45594000000E+02  0.51100000000E-03 0. -1.
    9900012    2    1    2    0    0  0.29998494068E+00 -0.80283971209E+00  0.81141924892E+00  0.90007769613E+02  0.90000031372E+02 0.  0.
         12    1    1    2    0    0 -0.29998494068E+00  0.80283971209E+00 -0.81141924892E+00  0.11802303866E+01  0.00000000000E+00 0. -1.
         11    1    3    3    0    0  0.31469992488E+02 -0.84276546593E+01 -0.16413135277E+02  0.36479813598E+02  0.51100000000E-03 0. -1.
        -11    1    3    3    0    0  0.94466314456E+01  0.18602187579E+01  0.39934803074E+01  0.10423394108E+02  0.51100000000E-03 0.  1.
        -12    1    3    3    0    0 -0.40616638993E+02  0.57645961893E+01  0.13231074218E+02  0.43104561908E+02  0.00000000000E+00 0.  1.
</event>
<event>
 7    1  0.1935465E-015  0.9000770E+02  0.7816164E-02  0.1186339E+00
        -11   -1    0    0    0    0  0.00000000000E+00  0.00000000000E+00  0.45593999997E+02  0.45594000000E+02  0.51100000000E-03 0.  1.
         11   -1    0    0    0    0 -0.00000000000E+00 -0.00000000000E+00 -0.45593999997E+02  0.45594000000E+02  0.51100000000E-03 0. -1.
    9900012    2    1    2    0    0  0.19657358494E+00  0.72187569557E+00  0.91289263960E+00  0.90007695520E+02  0.89999956301E+02 0.  0.
         12    1    1    2    0    0 -0.19657358494E+00 -0.72187569557E+00 -0.91289263960E+00  0.11803044800E+01  0.00000000000E+00 0. -1.
         11    1    3    3    0    0  0.11561855463E+02  0.21547951089E+01  0.32499326464E+01  0.12201709150E+02  0.51100000000E-03 0. -1.
        -11    1    3    3    0    0 -0.67875533425E+00 -0.21986558924E+02  0.30509258344E+02  0.37612289575E+02  0.51100000000E-03 0.  1.
         12    1    3    3    0    0 -0.10686526544E+02  0.20553639511E+02 -0.32846298351E+02  0.40193696795E+02  0.00000000000E+00 0. -1.
</event>
<event>
 7    1  0.1935465E-015  0.9000776E+02  0.7816164E-02  0.1186339E+00
        -11   -1    0    0    0    0  0.00000000000E+00  0.00000000000E+00  0.45593999997E+02  0.45594000000E+02  0.51100000000E-03 0. -1.
         11   -1    0    0    0    0 -0.00000000000E+00 -0.00000000000E+00 -0.45593999997E+02  0.45594000000E+02  0.51100000000E-03 0.  1.
    9900012    2    1    2    0    0 -0.96437942295E+00 -0.47167028669E+00  0.49036244802E+00  0.90007764489E+02  0.90000026180E+02 0.  0.
         12    1    1    2    0    0  0.96437942295E+00  0.47167028669E+00 -0.49036244802E+00  0.11802355109E+01  0.00000000000E+00 0. -1.
         11    1    3    3    0    0  0.50200236008E+01 -0.16112612178E+02  0.31198288931E+02  0.35470412186E+02  0.51100000000E-03 0. -1.
        -11    1    3    3    0    0  0.28328262836E+01 -0.27773445363E+01  0.90282332878E+01  0.98614169361E+01  0.51100000000E-03 0.  1.
        -12    1    3    3    0    0 -0.88172293074E+01  0.18418286427E+02 -0.39736159771E+02  0.44675935367E+02  0.00000000000E+00 0.  1.
</event>
<event>
 7    1  0.1935465E-015  0.9000775E+02  0.7816164E-02  0.1186339E+00
        -11   -1    0    0    0    0  0.00000000000E+00  0.00000000000E+00  0.45593999997E+02  0.45594000000E+02  0.51100000000E-03 0.  1.
         11   -1    0    0    0    0 -0.00000000000E+00 -0.00000000000E+00 -0.45593999997E+02  0.45594000000E+02  0.51100000000E-03 0. -1.
    9900012    2    1    2    0    0 -0.11582691900E+01 -0.12921118263E+00 -0.18630256908E+00  0.90007749309E+02  0.90000010800E+02 0.  0.
         12    1    1    2    0    0  0.11582691900E+01  0.12921118263E+00  0.18630256908E+00  0.11802506910E+01  0.00000000000E+00 0. -1.
         11    1    3    3    0    0  0.26625231022E+02  0.16485547171E+02  0.20745718019E+02  0.37564092014E+02  0.51100000000E-03 0. -1.
        -11    1    3    3    0    0 -0.28215528741E+01  0.84666477145E+01  0.33446457396E+01  0.95305791812E+01  0.51100000000E-03 0.  1.
        -12    1    3    3    0    0 -0.24961947337E+02 -0.25081406068E+02 -0.24276666328E+02  0.42913078114E+02  0.00000000000E+00 0.  1.
</event>
<event>
 7    1  0.1935465E-015  0.9000776E+02  0.7816164E-02  0.1186339E+00
        -11   -1    0    0    0    0  0.00000000000E+00  0.00000000000E+00  0.45593999997E+02  0.45594000000E+02  0.51100000000E-03 0.  1.
         11   -1    0    0    0    0 -0.00000000000E+00 -0.00000000000E+00 -0.45593999997E+02  0.45594000000E+02  0.51100000000E-03 0. -1.
    9900012    2    1    2    0    0  0.53277051917E+00 -0.10501363395E+01 -0.79644637219E-01  0.90007756794E+02  0.90000018383E+02 0.  0.
         12    1    1    2    0    0 -0.53277051917E+00  0.10501363395E+01  0.79644637219E-01  0.11802432062E+01  0.00000000000E+00 0. -1.
         11    1    3    3    0    0  0.17097309161E+02 -0.33701656810E+02 -0.34325907462E+01  0.37946045008E+02  0.51100000000E-03 0. -1.
        -11    1    3    3    0    0  0.48909789958E+01 -0.18826001252E+01 -0.82572853695E+01  0.97800112834E+01  0.51100000000E-03 0.  1.
        -12    1    3    3    0    0 -0.21455517637E+02  0.34534120595E+02  0.11610231479E+02  0.42281700502E+02  0.00000000000E+00 0.  1.
</event>
<event>
 7    1  0.1935465E-015  0.9000771E+02  0.7816164E-02  0.1186339E+00
        -11   -1    0    0    0    0  0.00000000000E+00  0.00000000000E+00  0.45593999997E+02  0.45594000000E+02  0.51100000000E-03 0. -1.
         11   -1    0    0    0    0 -0.00000000000E+00 -0.00000000000E+00 -0.45593999997E+02  0.45594000000E+02  0.51100000000E-03 0.  1.
    9900012    2    1    2    0    0 -0.52862167235E+00  0.94308632658E+00  0.47351949099E+00  0.90007714695E+02  0.89999975729E+02 0.  0.
         12    1    1    2    0    0  0.52862167235E+00 -0.94308632658E+00 -0.47351949099E+00  0.11802853046E+01  0.00000000000E+00 0. -1.
         11    1    3    3    0    0  0.12790783117E+02 -0.30564254314E+02  0.12070973435E+02  0.35263099332E+02  0.51100000000E-03 0. -1.
        -11    1    3    3    0    0  0.19503377158E+01 -0.94332558293E+01 -0.41888292334E+00  0.96418668271E+01  0.51100000000E-03 0.  1.
        -12    1    3    3    0    0 -0.15269742506E+02  0.40940596470E+02 -0.11178571021E+02  0.45102748537E+02  0.00000000000E+00 0.  1.
</event>
<event>
 7    1  0.1935465E-015  0.9000748E+02  0.7816164E-02  0.1186340E+00
        -11   -1    0    0    0    0  0.00000000000E+00  0.00000000000E+00  0.45593999997E+02  0.45594000000E+02  0.51100000000E-03 0. -1.
         11   -1    0    0    0    0 -0.00000000000E+00 -0.00000000000E+00 -0.45593999997E+02  0.45594000000E+02  0.51100000000E-03 0.  1.
    9900012    2    1    2    0    0  0.17372538205E+00  0.42158122471E+00 -0.10889023781E+01  0.90007483322E+02  0.89999741302E+02 0.  0.
         12    1    1    2    0    0 -0.17372538205E+00 -0.42158122471E+00  0.10889023781E+01  0.11805166777E+01  0.00000000000E+00 0. -1.
         11    1    3    3    0    0  0.22559133529E+02  0.18848721755E+02  0.24035025248E+02  0.37971979884E+02  0.51100000000E-03 0. -1.
        -11    1    3    3    0    0  0.77595695204E+01  0.32370973656E+01 -0.38226053423E+01  0.92359098285E+01  0.51100000000E-03 0.  1.
        -12    1    3    3    0    0 -0.30144977668E+02 -0.21664237896E+02 -0.21301322283E+02  0.42799593610E+02  0.00000000000E+00 0.  1.
</event>
<event>
 7    1  0.1935465E-015  0.9000768E+02  0.7816164E-02  0.1186339E+00
        -11   -1    0    0    0    0  0.00000000000E+00  0.00000000000E+00  0.45593999997E+02  0.45594000000E+02  0.51100000000E-03 0. -1.
         11   -1    0    0    0    0 -0.00000000000E+00 -0.00000000000E+00 -0.45593999997E+02  0.45594000000E+02  0.51100000000E-03 0.  1.
    9900012    2    1    2    0    0 -0.79203975663E+00 -0.86169536167E+00 -0.15269778327E+00  0.90007676957E+02  0.89999937493E+02 0.  0.
         12    1    1    2    0    0  0.79203975663E+00  0.86169536167E+00  0.15269778327E+00  0.11803230428E+01  0.00000000000E+00 0. -1.
         11    1    3    3    0    0 -0.28701468282E+02 -0.23848030686E+02  0.72565536576E+01  0.38015265623E+02  0.51100000000E-03 0. -1.
        -11    1    3    3    0    0  0.18652775765E+01 -0.90738801746E+01  0.23341792673E+01  0.95531646575E+01  0.51100000000E-03 0.  1.
        -12    1    3    3    0    0  0.26044150949E+02  0.32060215499E+02 -0.97434307081E+01  0.42439246676E+02  0.00000000000E+00 0.  1.
</event>
<event>
 7    1  0.1935465E-015  0.9000775E+02  0.7816164E-02  0.1186339E+00
        -11   -1    0    0    0    0  0.00000000000E+00  0.00000000000E+00  0.45593999997E+02  0.45594000000E+02  0.51100000000E-03 0. -1.
         11   -1    0    0    0    0 -0.00000000000E+00 -0.00000000000E+00 -0.45593999997E+02  0.45594000000E+02  0.51100000000E-03 0.  1.
    9900012    2    1    2    0    0  0.20408777911E+00 -0.89007039559E+00 -0.74773969305E+00  0.90007749273E+02  0.90000010763E+02 0.  0.
         12    1    1    2    0    0 -0.20408777911E+00  0.89007039559E+00  0.74773969305E+00  0.11802507273E+01  0.00000000000E+00 0. -1.
         11    1    3    3    0    0 -0.50687284775E+01  0.18822723009E+01  0.58974417403E+01  0.80009234926E+01  0.51100000000E-03 0. -1.
        -11    1    3    3    0    0 -0.37630976804E+02 -0.39824690715E+01 -0.94212497987E+01  0.38996287300E+02  0.51100000000E-03 0.  1.
         12    1    3    3    0    0  0.42903793060E+02  0.12101263750E+01  0.27760683653E+01  0.43010538481E+02  0.00000000000E+00 0. -1.
</event>
<event>
 7    1  0.1935465E-015  0.9000779E+02  0.7816164E-02  0.1186339E+00
        -11   -1    0    0    0    0  0.00000000000E+00  0.00000000000E+00  0.45593999997E+02  0.45594000000E+02  0.51100000000E-03 0.  1.
         11   -1    0    0    0    0 -0.00000000000E+00 -0.00000000000E+00 -0.45593999997E+02  0.45594000000E+02  0.51100000000E-03 0. -1.
    9900012    2    1    2    0    0 -0.95786903098E+00 -0.28778409835E+00  0.62655001346E+00  0.90007789134E+02  0.90000051151E+02 0.  0.
         12    1    1    2    0    0  0.95786903098E+00  0.28778409835E+00 -0.62655001346E+00  0.11802108655E+01  0.00000000000E+00 0. -1.
         11    1    3    3    0    0 -0.63704148882E+01 -0.40145002113E+01  0.49510608497E+01  0.90117368799E+01  0.51100000000E-03 0. -1.
        -11    1    3    3    0    0 -0.24546833947E+02 -0.26430486888E+01  0.27411268633E+02  0.36890519264E+02  0.51100000000E-03 0.  1.
         12    1    3    3    0    0  0.29959379804E+02  0.63697648017E+01 -0.31735779469E+02  0.44105532991E+02  0.00000000000E+00 0. -1.
</event>
<event>
 7    1  0.1935465E-015  0.9000776E+02  0.7816164E-02  0.1186339E+00
        -11   -1    0    0    0    0  0.00000000000E+00  0.00000000000E+00  0.45593999997E+02  0.45594000000E+02  0.51100000000E-03 0.  1.
         11   -1    0    0    0    0 -0.00000000000E+00 -0.00000000000E+00 -0.45593999997E+02  0.45594000000E+02  0.51100000000E-03 0. -1.
    9900012    2    1    2    0    0 -0.21862133312E-02 -0.11655506354E+01  0.18559842087E+00  0.90007762805E+02  0.90000024474E+02 0.  0.
         12    1    1    2    0    0  0.21862133312E-02  0.11655506354E+01 -0.18559842087E+00  0.11802371952E+01  0.00000000000E+00 0. -1.
         11    1    3    3    0    0 -0.60639040203E+01 -0.36303284699E+00  0.68963342416E+01  0.91903292133E+01  0.51100000000E-03 0. -1.
        -11    1    3    3    0    0  0.28386601185E+02 -0.96933646472E+01  0.26363754746E+02  0.39935047385E+02  0.51100000000E-03 0.  1.
         12    1    3    3    0    0 -0.22324883378E+02  0.88908468588E+01 -0.33074490567E+02  0.40882386207E+02  0.00000000000E+00 0. -1.
</event>
<event>
 7    1  0.1935465E-015  0.9000774E+02  0.7816164E-02  0.1186339E+00
        -11   -1    0    0    0    0  0.00000000000E+00  0.00000000000E+00  0.45593999997E+02  0.45594000000E+02  0.51100000000E-03 0.  1.
         11   -1    0    0    0    0 -0.00000000000E+00 -0.00000000000E+00 -0.45593999997E+02  0.45594000000E+02  0.51100000000E-03 0. -1.
    9900012    2    1    2    0    0 -0.19248929873E+00  0.77561581691E+00 -0.86854940479E+00  0.90007741514E+02  0.90000002902E+02 0.  0.
         12    1    1    2    0    0  0.19248929873E+00 -0.77561581691E+00  0.86854940479E+00  0.11802584862E+01  0.00000000000E+00 0. -1.
         11    1    3    3    0    0  0.88638060775E+01 -0.30730614739E+02 -0.12155096594E+02  0.34215261418E+02  0.51100000000E-03 0. -1.
        -11    1    3    3    0    0  0.36289134398E+01 -0.86588058093E+00 -0.12906446543E+02  0.13434847396E+02  0.51100000000E-03 0.  1.
        -12    1    3    3    0    0 -0.12685208816E+02  0.32372111137E+02  0.24192993732E+02  0.42357632700E+02  0.00000000000E+00 0.  1.
</event>
<event>
 7    1  0.1935465E-015  0.9000775E+02  0.7816164E-02  0.1186339E+00
        -11   -1    0    0    0    0  0.00000000000E+00  0.00000000000E+00  0.45593999997E+02  0.45594000000E+02  0.51100000000E-03 0.  1.
         11   -1    0    0    0    0 -0.00000000000E+00 -0.00000000000E+00 -0.45593999997E+02  0.45594000000E+02  0.51100000000E-03 0. -1.
    9900012    2    1    2    0    0  0.46035690367E+00  0.38135391838E+00  0.10176607382E+01  0.90007748896E+02  0.90000010382E+02 0.  0.
         12    1    1    2    0    0 -0.46035690367E+00 -0.38135391838E+00 -0.10176607382E+01  0.11802511038E+01  0.00000000000E+00 0. -1.
         11    1    3    3    0    0 -0.15661883985E+01 -0.31513527826E+01  0.86571373476E+01  0.93450520478E+01  0.51100000000E-03 0. -1.
        -11    1    3    3    0    0  0.22467281247E+02  0.31304600543E+02  0.12768403570E+02  0.40592965792E+02  0.51100000000E-03 0.  1.
         12    1    3    3    0    0 -0.20440735945E+02 -0.27771893842E+02 -0.20407880179E+02  0.40069731057E+02  0.00000000000E+00 0. -1.
</event>
<event>
 7    1  0.1935465E-015  0.9000766E+02  0.7816164E-02  0.1186339E+00
        -11   -1    0    0    0    0  0.00000000000E+00  0.00000000000E+00  0.45593999997E+02  0.45594000000E+02  0.51100000000E-03 0. -1.
         11   -1    0    0    0    0 -0.00000000000E+00 -0.00000000000E+00 -0.45593999997E+02  0.45594000000E+02  0.51100000000E-03 0.  1.
    9900012    2    1    2    0    0  0.96048853685E+00 -0.34903368896E+00 -0.59062071514E+00  0.90007662940E+02  0.89999923291E+02 0.  0.
         12    1    1    2    0    0 -0.96048853685E+00  0.34903368896E+00  0.59062071514E+00  0.11803370597E+01  0.00000000000E+00 0. -1.
         11    1    3    3    0    0  0.33002542385E+01 -0.30471513764E+02  0.27085294813E+02  0.40902543007E+02  0.51100000000E-03 0. -1.
        -11    1    3    3    0    0 -0.79794848336E+01  0.43171315511E+01  0.20888589531E+01  0.93098407626E+01  0.51100000000E-03 0.  1.
        -12    1    3    3    0    0  0.56397191320E+01  0.25805348524E+02 -0.29764774481E+02  0.39795279170E+02  0.00000000000E+00 0.  1.
</event>
<event>
 7    1  0.1935465E-015  0.9000767E+02  0.7816164E-02  0.1186339E+00
        -11   -1    0    0    0    0  0.00000000000E+00  0.00000000000E+00  0.45593999997E+02  0.45594000000E+02  0.51100000000E-03 0. -1.
         11   -1    0    0    0    0 -0.00000000000E+00 -0.00000000000E+00 -0.45593999997E+02  0.45594000000E+02  0.51100000000E-03 0.  1.
    9900012    2    1    2    0    0 -0.84421433167E+00 -0.55625072945E+00 -0.60915444230E+00  0.90007668756E+02  0.89999929183E+02 0.  0.
         12    1    1    2    0    0  0.84421433167E+00  0.55625072945E+00  0.60915444230E+00  0.11803312443E+01  0.00000000000E+00 0. -1.
         11    1    3    3    0    0  0.35245677929E+02 -0.28966279310E+01  0.46665888869E+01  0.35671071167E+02  0.51100000000E-03 0. -1.
        -11    1    3    3    0    0  0.38844648293E+01  0.42350580335E+01  0.99733257320E+01  0.11510517364E+02  0.51100000000E-03 0.  1.
        -12    1    3    3    0    0 -0.39974357090E+02 -0.18946808320E+01 -0.15249069061E+02  0.42826080226E+02  0.00000000000E+00 0.  1.
</event>
<event>
 7    1  0.1935465E-015  0.9000766E+02  0.7816164E-02  0.1186339E+00
        -11   -1    0    0    0    0  0.00000000000E+00  0.00000000000E+00  0.45593999997E+02  0.45594000000E+02  0.51100000000E-03 0. -1.
         11   -1    0    0    0    0 -0.00000000000E+00 -0.00000000000E+00 -0.45593999997E+02  0.45594000000E+02  0.51100000000E-03 0.  1.
    9900012    2    1    2    0    0  0.40508956838E+00  0.95734228898E+00 -0.55910406474E+00  0.90007661416E+02  0.89999921747E+02 0.  0.
         12    1    1    2    0    0 -0.40508956838E+00 -0.95734228898E+00  0.55910406474E+00  0.11803385836E+01  0.00000000000E+00 0. -1.
         11    1    3    3    0    0  0.10166892743E+02 -0.21521466582E+01  0.45559451428E+01  0.11346985490E+02  0.51100000000E-03 0. -1.
        -11    1    3    3    0    0 -0.33242601609E+02 -0.20701188317E+02  0.12180491745E+02  0.41011878022E+02  0.51100000000E-03 0.  1.
         12    1    3    3    0    0  0.23480798434E+02  0.23810677264E+02 -0.17295540952E+02  0.37648797905E+02  0.00000000000E+00 0. -1.
</event>
<event>
 7    1  0.1935465E-015  0.9000787E+02  0.7816164E-02  0.1186339E+00
        -11   -1    0    0    0    0  0.00000000000E+00  0.00000000000E+00  0.45593999997E+02  0.45594000000E+02  0.51100000000E-03 0.  1.
         11   -1    0    0    0    0 -0.00000000000E+00 -0.00000000000E+00 -0.45593999997E+02  0.45594000000E+02  0.51100000000E-03 0. -1.
    9900012    2    1    2    0    0  0.37799459289E+00  0.94009554934E+00 -0.60501851934E+00  0.90007869938E+02  0.90000133021E+02 0.  0.
         12    1    1    2    0    0 -0.37799459289E+00 -0.94009554934E+00  0.60501851934E+00  0.11801300619E+01  0.00000000000E+00 0. -1.
         11    1    3    3    0    0 -0.96860684476E+01  0.21233178298E-01  0.23028862518E+01  0.99560864887E+01  0.51100000000E-03 0. -1.
        -11    1    3    3    0    0 -0.32108234322E+02  0.15081882798E+02 -0.64812385637E-01  0.35474020083E+02  0.51100000000E-03 0.  1.
         12    1    3    3    0    0  0.42172297362E+02 -0.14163020427E+02 -0.28430923855E+01  0.44577763366E+02  0.00000000000E+00 0. -1.
</event>
<event>
 7    1  0.1935465E-015  0.9000773E+02  0.7816164E-02  0.1186339E+00
        -11   -1    0    0    0    0  0.00000000000E+00  0.00000000000E+00  0.45593999997E+02  0.45594000000E+02  0.51100000000E-03 0. -1.
         11   -1    0    0    0    0 -0.00000000000E+00 -0.00000000000E+00 -0.45593999997E+02  0.45594000000E+02  0.51100000000E-03 0.  1.
    9900012    2    1    2    0    0 -0.92492317817E+00  0.19641604131E+00 -0.70637464180E+00  0.90007734233E+02  0.89999995525E+02 0.  0.
         12    1    1    2    0    0  0.92492317817E+00 -0.19641604131E+00  0.70637464180E+00  0.11802657673E+01  0.00000000000E+00 0. -1.
         11    1    3    3    0    0  0.34433542577E+02 -0.25983241733E+01 -0.16675523413E+01  0.34571677339E+02  0.51100000000E-03 0. -1.
        -11    1    3    3    0    0 -0.41221741085E+00  0.14456684397E+02  0.98999385687E+01  0.17526392409E+02  0.51100000000E-03 0.  1.
        -12    1    3    3    0    0 -0.34946248345E+02 -0.11661944183E+02 -0.89387608692E+01  0.37909664485E+02  0.00000000000E+00 0.  1.
</event>
<event>
 8    1  0.1935465E-015  0.9000762E+02  0.7816164E-02  0.1186339E+00
        -11   -1    0    0    0    0  0.00000000000E+00  0.00000000000E+00  0.45593999997E+02  0.45594000000E+02  0.51100000000E-03 0.  1.
         11   -1    0    0    0    0 -0.00000000000E+00 -0.00000000000E+00 -0.45593999997E+02  0.45594000000E+02  0.51100000000E-03 0. -1.
    9900012    2    1    2    0    0  0.73164417199E+00 -0.61904306169E-01  0.92420922614E+00  0.90007619540E+02  0.89999879317E+02 0.  0.
         23    2    3    3    0    0  0.17615340883E+02  0.73272006053E+01  0.14293638433E+02  0.67239226462E+02  0.62871435266E+02 0.  0.
         12    1    1    2    0    0 -0.73164417199E+00  0.61904306169E-01 -0.92420922614E+00  0.11803804604E+01  0.00000000000E+00 0. -1.
         11    1    4    4    0    0  0.16353597713E+02 -0.26747163837E+02  0.98012347483E+01  0.32846843598E+02  0.51100000000E-03 0. -1.
        -11    1    4    4    0    0  0.12617431702E+01  0.34074364442E+02  0.44924036843E+01  0.34392382864E+02  0.51100000000E-03 0.  1.
         12    1    3    3    0    0 -0.16883696711E+02 -0.73891049115E+01 -0.13369429206E+02  0.22768393078E+02  0.00000000000E+00 0. -1.
</event>
<event>
 7    1  0.1935465E-015  0.9000770E+02  0.7816164E-02  0.1186339E+00
        -11   -1    0    0    0    0  0.00000000000E+00  0.00000000000E+00  0.45593999997E+02  0.45594000000E+02  0.51100000000E-03 0.  1.
         11   -1    0    0    0    0 -0.00000000000E+00 -0.00000000000E+00 -0.45593999997E+02  0.45594000000E+02  0.51100000000E-03 0. -1.
    9900012    2    1    2    0    0  0.10027231687E+01 -0.39845297624E+00 -0.47842818039E+00  0.90007698322E+02  0.89999959140E+02 0.  0.
         12    1    1    2    0    0 -0.10027231687E+01  0.39845297624E+00  0.47842818039E+00  0.11803016780E+01  0.00000000000E+00 0. -1.
         11    1    3    3    0    0 -0.19659652629E+02  0.41528039955E+01 -0.32219693333E+02  0.37971783752E+02  0.51100000000E-03 0. -1.
        -11    1    3    3    0    0 -0.24826298635E+01  0.11257138841E+02  0.30457808341E+01  0.11923229725E+02  0.51100000000E-03 0.  1.
        -12    1    3    3    0    0  0.23145005661E+02 -0.15808395812E+02  0.28695484319E+02  0.40112684846E+02  0.00000000000E+00 0.  1.
</event>
<event>
 7    1  0.1935465E-015  0.9000773E+02  0.7816164E-02  0.1186339E+00
        -11   -1    0    0    0    0  0.00000000000E+00  0.00000000000E+00  0.45593999997E+02  0.45594000000E+02  0.51100000000E-03 0.  1.
         11   -1    0    0    0    0 -0.00000000000E+00 -0.00000000000E+00 -0.45593999997E+02  0.45594000000E+02  0.51100000000E-03 0. -1.
    9900012    2    1    2    0    0 -0.72261415672E+00 -0.90313751249E+00  0.23497019579E+00  0.90007729023E+02  0.89999990246E+02 0.  0.
         12    1    1    2    0    0  0.72261415672E+00  0.90313751249E+00 -0.23497019579E+00  0.11802709769E+01  0.00000000000E+00 0. -1.
         11    1    3    3    0    0 -0.23065984587E+02 -0.27271371322E+02 -0.10943817925E+02  0.37356853318E+02  0.51100000000E-03 0. -1.
        -11    1    3    3    0    0 -0.14496441822E+01 -0.68161494594E+01 -0.51595174699E+01  0.86707544361E+01  0.51100000000E-03 0.  1.
        -12    1    3    3    0    0  0.23793014613E+02  0.33184383269E+02  0.16338305591E+02  0.43980121269E+02  0.00000000000E+00 0.  1.
</event>
<event>
 7    1  0.1935465E-015  0.9000776E+02  0.7816164E-02  0.1186339E+00
        -11   -1    0    0    0    0  0.00000000000E+00  0.00000000000E+00  0.45593999997E+02  0.45594000000E+02  0.51100000000E-03 0.  1.
         11   -1    0    0    0    0 -0.00000000000E+00 -0.00000000000E+00 -0.45593999997E+02  0.45594000000E+02  0.51100000000E-03 0. -1.
    9900012    2    1    2    0    0 -0.94761626350E+00  0.70327625361E+00  0.19606300926E-01  0.90007763380E+02  0.90000025057E+02 0.  0.
         12    1    1    2    0    0  0.94761626350E+00 -0.70327625361E+00 -0.19606300926E-01  0.11802366198E+01  0.00000000000E+00 0. -1.
         11    1    3    3    0    0 -0.18756366179E+02  0.59379444796E+01 -0.27625279231E+02  0.33914842028E+02  0.51100000000E-03 0. -1.
        -11    1    3    3    0    0  0.19967514158E+02  0.16222354643E+02  0.80550461623E+01  0.26958304486E+02  0.51100000000E-03 0.  1.
        -12    1    3    3    0    0 -0.21587642419E+01 -0.21457022869E+02  0.19589839370E+02  0.29134616867E+02  0.00000000000E+00 0.  1.
</event>
<event>
 7    1  0.1935465E-015  0.9000756E+02  0.7816164E-02  0.1186339E+00
        -11   -1    0    0    0    0  0.00000000000E+00  0.00000000000E+00  0.45593999997E+02  0.45594000000E+02  0.51100000000E-03 0. -1.
         11   -1    0    0    0    0 -0.00000000000E+00 -0.00000000000E+00 -0.45593999997E+02  0.45594000000E+02  0.51100000000E-03 0.  1.
    9900012    2    1    2    0    0  0.59969346516E+00 -0.99256914469E+00  0.22045913797E+00  0.90007564491E+02  0.89999823542E+02 0.  0.
         12    1    1    2    0    0 -0.59969346516E+00  0.99256914469E+00 -0.22045913797E+00  0.11804355089E+01  0.00000000000E+00 0. -1.
         11    1    3    3    0    0  0.10968590270E+02  0.33582356255E+02  0.17984103628E+02  0.39642308305E+02  0.51100000000E-03 0. -1.
        -11    1    3    3    0    0 -0.56685976013E+01  0.29537369442E+01  0.31719299036E+01  0.71357340390E+01  0.51100000000E-03 0.  1.
        -12    1    3    3    0    0 -0.47002992037E+01 -0.37528662344E+02 -0.20935574393E+02  0.43229522148E+02  0.00000000000E+00 0.  1.
</event>
<event>
 7    1  0.1935465E-015  0.9000776E+02  0.7816164E-02  0.1186339E+00
        -11   -1    0    0    0    0  0.00000000000E+00  0.00000000000E+00  0.45593999997E+02  0.45594000000E+02  0.51100000000E-03 0. -1.
         11   -1    0    0    0    0 -0.00000000000E+00 -0.00000000000E+00 -0.45593999997E+02  0.45594000000E+02  0.51100000000E-03 0.  1.
    9900012    2    1    2    0    0  0.59989213198E+00  0.95297077516E+00 -0.35347074877E+00  0.90007760432E+02  0.90000022069E+02 0.  0.
         12    1    1    2    0    0 -0.59989213198E+00 -0.95297077516E+00  0.35347074877E+00  0.11802395683E+01  0.00000000000E+00 0. -1.
         11    1    3    3    0    0 -0.18415075266E+02  0.26126716283E+02 -0.22999331228E+02  0.39378795537E+02  0.51100000000E-03 0. -1.
        -11    1    3    3    0    0  0.60407170596E+01  0.72772798880E+01  0.97736120246E+00  0.95081176026E+01  0.51100000000E-03 0.  1.
        -12    1    3    3    0    0  0.12974250338E+02 -0.32451025396E+02  0.21668499277E+02  0.41120847292E+02  0.00000000000E+00 0.  1.
</event>
<event>
 7    1  0.1935465E-015  0.9000761E+02  0.7816164E-02  0.1186339E+00
        -11   -1    0    0    0    0  0.00000000000E+00  0.00000000000E+00  0.45593999997E+02  0.45594000000E+02  0.51100000000E-03 0.  1.
         11   -1    0    0    0    0 -0.00000000000E+00 -0.00000000000E+00 -0.45593999997E+02  0.45594000000E+02  0.51100000000E-03 0. -1.
    9900012    2    1    2    0    0  0.60150712997E+00 -0.10022319543E+01 -0.16445461521E+00  0.90007608100E+02  0.89999867727E+02 0.  0.
         12    1    1    2    0    0 -0.60150712997E+00  0.10022319543E+01  0.16445461521E+00  0.11803919002E+01  0.00000000000E+00 0. -1.
         11    1    3    3    0    0  0.20911095407E+02  0.32523675442E+02  0.13382849502E+00  0.38666280992E+02  0.51100000000E-03 0. -1.
        -11    1    3    3    0    0  0.85715531544E+01 -0.25312804473E+01  0.69770602104E+00  0.89646917479E+01  0.51100000000E-03 0.  1.
        -12    1    3    3    0    0 -0.28881141431E+02 -0.30994626949E+02 -0.99598913128E+00  0.42376635360E+02  0.00000000000E+00 0.  1.
</event>
<event>
 7    1  0.2682899E-015  0.9000774E+02  0.7816164E-02  0.1186339E+00
        -11   -1    0    0    0    0  0.00000000000E+00  0.00000000000E+00  0.45593999997E+02  0.45594000000E+02  0.51100000000E-03 0. -1.
         11   -1    0    0    0    0 -0.00000000000E+00 -0.00000000000E+00 -0.45593999997E+02  0.45594000000E+02  0.51100000000E-03 0.  1.
    9900012    2    1    2    0    0  0.68043875862E+00  0.48954910971E+00 -0.83087601192E+00  0.90007741477E+02  0.90000002864E+02 0.  0.
         12    1    1    2    0    0 -0.68043875862E+00 -0.48954910971E+00  0.83087601192E+00  0.11802585235E+01  0.00000000000E+00 0. -1.
         11    1    3    3    0    0  0.95441953307E+00  0.99397971376E+01  0.17340847305E+01  0.10134965905E+02  0.51100000000E-03 0. -1.
        -11    1    3    3    0    0 -0.96529308458E+01  0.30786105171E+02 -0.16542178070E+02  0.36257509581E+02  0.51100000000E-03 0.  1.
         12    1    3    3    0    0  0.93789500714E+01 -0.40236353199E+02  0.13977217328E+02  0.43615265990E+02  0.00000000000E+00 0. -1.
</event>
<event>
 7    1  0.1935465E-015  0.9000769E+02  0.7816164E-02  0.1186339E+00
        -11   -1    0    0    0    0  0.00000000000E+00  0.00000000000E+00  0.45593999997E+02  0.45594000000E+02  0.51100000000E-03 0.  1.
         11   -1    0    0    0    0 -0.00000000000E+00 -0.00000000000E+00 -0.45593999997E+02  0.45594000000E+02  0.51100000000E-03 0. -1.
    9900012    2    1    2    0    0  0.11132476311E+01 -0.14367836042E+00  0.36491790284E+00  0.90007691212E+02  0.89999951936E+02 0.  0.
         12    1    1    2    0    0 -0.11132476311E+01  0.14367836042E+00 -0.36491790284E+00  0.11803087880E+01  0.00000000000E+00 0. -1.
         11    1    3    3    0    0 -0.91877562156E+01  0.26229756543E+02  0.28983410789E+02  0.40155361956E+02  0.51100000000E-03 0. -1.
        -11    1    3    3    0    0 -0.82501266839E+01  0.26014557682E+00 -0.73049281902E+01  0.11022442658E+02  0.51100000000E-03 0.  1.
        -12    1    3    3    0    0  0.18551130531E+02 -0.26633580480E+02 -0.21313564696E+02  0.38829886598E+02  0.00000000000E+00 0.  1.
</event>
<event>
 7    1  0.1935465E-015  0.9000767E+02  0.7816164E-02  0.1186339E+00
        -11   -1    0    0    0    0  0.00000000000E+00  0.00000000000E+00  0.45593999997E+02  0.45594000000E+02  0.51100000000E-03 0.  1.
         11   -1    0    0    0    0 -0.00000000000E+00 -0.00000000000E+00 -0.45593999997E+02  0.45594000000E+02  0.51100000000E-03 0. -1.
    9900012    2    1    2    0    0  0.16467616513E+00 -0.50705766483E+00  0.10530726865E+01  0.90007666235E+02  0.89999926629E+02 0.  0.
         12    1    1    2    0    0 -0.16467616513E+00  0.50705766483E+00 -0.10530726865E+01  0.11803337655E+01  0.00000000000E+00 0. -1.
         11    1    3    3    0    0 -0.26658201385E+01  0.79999903530E+01  0.33070353367E+01  0.90577549999E+01  0.51100000000E-03 0. -1.
        -11    1    3    3    0    0 -0.10325187581E+02  0.32326422881E+02  0.11607688457E+02  0.35865659710E+02  0.51100000000E-03 0.  1.
         12    1    3    3    0    0  0.13155683884E+02 -0.40833470899E+02 -0.13861651107E+02  0.45084251525E+02  0.00000000000E+00 0. -1.
</event>
<event>
 7    1  0.1935465E-015  0.9000745E+02  0.7816164E-02  0.1186340E+00
        -11   -1    0    0    0    0  0.00000000000E+00  0.00000000000E+00  0.45593999997E+02  0.45594000000E+02  0.51100000000E-03 0. -1.
         11   -1    0    0    0    0 -0.00000000000E+00 -0.00000000000E+00 -0.45593999997E+02  0.45594000000E+02  0.51100000000E-03 0.  1.
    9900012    2    1    2    0    0  0.63351057638E+00  0.33316606353E+00  0.93881112834E+00  0.90007448599E+02  0.89999706120E+02 0.  0.
         12    1    1    2    0    0 -0.63351057638E+00 -0.33316606353E+00 -0.93881112834E+00  0.11805514012E+01  0.00000000000E+00 0. -1.
         11    1    3    3    0    0  0.10879458849E+02 -0.38301739471E+02  0.12265931544E+02  0.41663400585E+02  0.51100000000E-03 0. -1.
        -11    1    3    3    0    0  0.40565792701E+01 -0.14327969102E+01 -0.22002925551E+01  0.48321868703E+01  0.51100000000E-03 0.  1.
        -12    1    3    3    0    0 -0.14302527543E+02  0.40067702445E+02 -0.91268278611E+01  0.43511861143E+02  0.00000000000E+00 0.  1.
</event>
<event>
 7    1  0.1972656E-015  0.9000773E+02  0.7816164E-02  0.1186339E+00
        -11   -1    0    0    0    0  0.00000000000E+00  0.00000000000E+00  0.45593999997E+02  0.45594000000E+02  0.51100000000E-03 0.  1.
         11   -1    0    0    0    0 -0.00000000000E+00 -0.00000000000E+00 -0.45593999997E+02  0.45594000000E+02  0.51100000000E-03 0. -1.
    9900012    2    1    2    0    0  0.31999718633E+00 -0.94027670497E-01  0.11321680530E+01  0.90007727192E+02  0.89999988391E+02 0.  0.
         12    1    1    2    0    0 -0.31999718633E+00  0.94027670497E-01 -0.11321680530E+01  0.11802728084E+01  0.00000000000E+00 0. -1.
         11    1    3    3    0    0  0.22499043132E+00  0.23443788883E+01  0.95370311507E+01  0.98235277012E+01  0.51100000000E-03 0. -1.
        -11    1    3    3    0    0 -0.23624814866E+02  0.26367213078E+02  0.12338495608E+02  0.37491336026E+02  0.51100000000E-03 0.  1.
         12    1    3    3    0    0  0.23719821621E+02 -0.28805619636E+02 -0.20743358705E+02  0.42692863464E+02  0.00000000000E+00 0. -1.
</event>
<event>
 7    1  0.1935465E-015  0.9000776E+02  0.7816164E-02  0.1186339E+00
        -11   -1    0    0    0    0  0.00000000000E+00  0.00000000000E+00  0.45593999997E+02  0.45594000000E+02  0.51100000000E-03 0.  1.
         11   -1    0    0    0    0 -0.00000000000E+00 -0.00000000000E+00 -0.45593999997E+02  0.45594000000E+02  0.51100000000E-03 0. -1.
    9900012    2    1    2    0    0  0.78918068480E+00  0.32765820628E+00  0.81412846048E+00  0.90007757989E+02  0.90000019595E+02 0.  0.
         12    1    1    2    0    0 -0.78918068480E+00 -0.32765820628E+00 -0.81412846048E+00  0.11802420106E+01  0.00000000000E+00 0. -1.
         11    1    3    3    0    0  0.67499142400E+00 -0.20296688310E+01 -0.12071874110E+02  0.12259906760E+02  0.51100000000E-03 0. -1.
        -11    1    3    3    0    0  0.25694794808E+02  0.76731481153E+01  0.34600252985E+02  0.43775303415E+02  0.51100000000E-03 0.  1.
         12    1    3    3    0    0 -0.25580605547E+02 -0.53158210780E+01 -0.21714250415E+02  0.33972547814E+02  0.00000000000E+00 0. -1.
</event>
<event>
 7    1  0.1935465E-015  0.9000781E+02  0.7816164E-02  0.1186339E+00
        -11   -1    0    0    0    0  0.00000000000E+00  0.00000000000E+00  0.45593999997E+02  0.45594000000E+02  0.51100000000E-03 0. -1.
         11   -1    0    0    0    0 -0.00000000000E+00 -0.00000000000E+00 -0.45593999997E+02  0.45594000000E+02  0.51100000000E-03 0.  1.
    9900012    2    1    2    0    0 -0.31626840109E+00  0.10978869139E+01 -0.29574864664E+00  0.90007809914E+02  0.90000072205E+02 0.  0.
         12    1    1    2    0    0  0.31626840109E+00 -0.10978869139E+01  0.29574864664E+00  0.11801900860E+01  0.00000000000E+00 0. -1.
         11    1    3    3    0    0 -0.65708679719E+01 -0.31020063107E+02  0.16391834722E+02  0.35694717633E+02  0.51100000000E-03 0. -1.
        -11    1    3    3    0    0  0.33959774712E+00 -0.79428678058E+01  0.39333674970E+01  0.88699411349E+01  0.51100000000E-03 0.  1.
        -12    1    3    3    0    0  0.59150018237E+01  0.40060817827E+02 -0.20620950865E+02  0.45443151146E+02  0.00000000000E+00 0.  1.
</event>
<event>
 7    1  0.1935465E-015  0.9000738E+02  0.7816164E-02  0.1186340E+00
        -11   -1    0    0    0    0  0.00000000000E+00  0.00000000000E+00  0.45593999997E+02  0.45594000000E+02  0.51100000000E-03 0. -1.
         11   -1    0    0    0    0 -0.00000000000E+00 -0.00000000000E+00 -0.45593999997E+02  0.45594000000E+02  0.51100000000E-03 0.  1.
    9900012    2    1    2    0    0 -0.40644027549E+00 -0.17850327147E+00 -0.10939873996E+01  0.90007379169E+02  0.89999635774E+02 0.  0.
         12    1    1    2    0    0  0.40644027549E+00  0.17850327147E+00  0.10939873996E+01  0.11806208307E+01  0.00000000000E+00 0. -1.
         11    1    3    3    0    0 -0.31008481135E+01  0.35918414963E+02 -0.24211585558E+02  0.43427510497E+02  0.51100000000E-03 0. -1.
        -11    1    3    3    0    0 -0.28262777903E+01 -0.63930389541E+01 -0.20214165679E+01  0.72763258873E+01  0.51100000000E-03 0.  1.
        -12    1    3    3    0    0  0.55206856283E+01 -0.29703879280E+02  0.25139014726E+02  0.39303542785E+02  0.00000000000E+00 0.  1.
</event>
<event>
 7    1  0.1935465E-015  0.9000758E+02  0.7816164E-02  0.1186339E+00
        -11   -1    0    0    0    0  0.00000000000E+00  0.00000000000E+00  0.45593999997E+02  0.45594000000E+02  0.51100000000E-03 0.  1.
         11   -1    0    0    0    0 -0.00000000000E+00 -0.00000000000E+00 -0.45593999997E+02  0.45594000000E+02  0.51100000000E-03 0. -1.
    9900012    2    1    2    0    0 -0.14886778514E+00 -0.11630831482E+01  0.13591520531E+00  0.90007577631E+02  0.89999836855E+02 0.  0.
         12    1    1    2    0    0  0.14886778514E+00  0.11630831482E+01 -0.13591520531E+00  0.11804223694E+01  0.00000000000E+00 0. -1.
         11    1    3    3    0    0  0.33485285622E+02 -0.82919574121E+01  0.22575210937E+01  0.34570468795E+02  0.51100000000E-03 0. -1.
        -11    1    3    3    0    0  0.10114112345E+02 -0.30661849052E+00 -0.43306171190E+01  0.11006522081E+02  0.51100000000E-03 0.  1.
        -12    1    3    3    0    0 -0.43748265752E+02  0.74354927544E+01  0.22090112306E+01  0.44430586755E+02  0.00000000000E+00 0.  1.
</event>
<event>
 7    1  0.1935465E-015  0.9000777E+02  0.7816164E-02  0.1186339E+00
        -11   -1    0    0    0    0  0.00000000000E+00  0.00000000000E+00  0.45593999997E+02  0.45594000000E+02  0.51100000000E-03 0. -1.
         11   -1    0    0    0    0 -0.00000000000E+00 -0.00000000000E+00 -0.45593999997E+02  0.45594000000E+02  0.51100000000E-03 0.  1.
    9900012    2    1    2    0    0 -0.26768036415E+00 -0.55097350844E+00 -0.10088156997E+01  0.90007773877E+02  0.90000035693E+02 0.  0.
         12    1    1    2    0    0  0.26768036415E+00  0.55097350844E+00  0.10088156997E+01  0.11802261226E+01  0.00000000000E+00 0. -1.
         11    1    3    3    0    0 -0.77481004415E+01 -0.58581434435E+01 -0.14469712579E+01  0.98206227470E+01  0.51100000000E-03 0. -1.
        -11    1    3    3    0    0 -0.35584283626E+02 -0.49022904420E+01 -0.33885731219E+00  0.35921978193E+02  0.51100000000E-03 0.  1.
         12    1    3    3    0    0  0.43064703703E+02  0.10209460377E+02  0.77701287031E+00  0.44265172938E+02  0.00000000000E+00 0. -1.
</event>
<event>
 7    1  0.1935465E-015  0.9000767E+02  0.7816164E-02  0.1186339E+00
        -11   -1    0    0    0    0  0.00000000000E+00  0.00000000000E+00  0.45593999997E+02  0.45594000000E+02  0.51100000000E-03 0.  1.
         11   -1    0    0    0    0 -0.00000000000E+00 -0.00000000000E+00 -0.45593999997E+02  0.45594000000E+02  0.51100000000E-03 0. -1.
    9900012    2    1    2    0    0  0.20824628951E+00 -0.41456163895E+00  0.10853324506E+01  0.90007671911E+02  0.89999932380E+02 0.  0.
         12    1    1    2    0    0 -0.20824628951E+00  0.41456163895E+00 -0.10853324506E+01  0.11803280891E+01  0.00000000000E+00 0. -1.
         11    1    3    3    0    0 -0.59290885882E+01 -0.48063090608E+01  0.63390912304E+01  0.99216317289E+01  0.51100000000E-03 0. -1.
        -11    1    3    3    0    0 -0.20787315835E+02 -0.27462952556E+02  0.96906170969E+01  0.35780362250E+02  0.51100000000E-03 0.  1.
         12    1    3    3    0    0  0.26924650713E+02  0.31854699978E+02 -0.14944375877E+02  0.44305677932E+02  0.00000000000E+00 0. -1.
</event>
<event>
 7    1  0.1935465E-015  0.9000790E+02  0.7816164E-02  0.1186339E+00
        -11   -1    0    0    0    0  0.00000000000E+00  0.00000000000E+00  0.45593999997E+02  0.45594000000E+02  0.51100000000E-03 0. -1.
         11   -1    0    0    0    0 -0.00000000000E+00 -0.00000000000E+00 -0.45593999997E+02  0.45594000000E+02  0.51100000000E-03 0.  1.
    9900012    2    1    2    0    0  0.32554478116E+00 -0.10650404219E+00 -0.11293001206E+01  0.90007897768E+02  0.90000161218E+02 0.  0.
         12    1    1    2    0    0 -0.32554478116E+00  0.10650404219E+00  0.11293001206E+01  0.11801022320E+01  0.00000000000E+00 0. -1.
         11    1    3    3    0    0  0.11742541229E+02 -0.11836920525E+02  0.34768295358E+02  0.38559490718E+02  0.51100000000E-03 0. -1.
        -11    1    3    3    0    0 -0.14369602090E+02 -0.55919505086E+01 -0.55637673515E+01  0.16392403183E+02  0.51100000000E-03 0.  1.
        -12    1    3    3    0    0  0.29526056426E+01  0.17322366991E+02 -0.30333828127E+02  0.35056003867E+02  0.00000000000E+00 0.  1.
</event>
<event>
 7    1  0.1935465E-015  0.9000772E+02  0.7816164E-02  0.1186339E+00
        -11   -1    0    0    0    0  0.00000000000E+00  0.00000000000E+00  0.45593999997E+02  0.45594000000E+02  0.51100000000E-03 0.  1.
         11   -1    0    0    0    0 -0.00000000000E+00 -0.00000000000E+00 -0.45593999997E+02  0.45594000000E+02  0.51100000000E-03 0. -1.
    9900012    2    1    2    0    0  0.75410719134E+00  0.90342217284E+00  0.90656678691E-01  0.90007717020E+02  0.89999978085E+02 0.  0.
         12    1    1    2    0    0 -0.75410719134E+00 -0.90342217284E+00 -0.90656678691E-01  0.11802829795E+01  0.00000000000E+00 0. -1.
         11    1    3    3    0    0  0.80399821770E+01  0.47475680433E+01  0.71505874990E+01  0.11760595970E+02  0.51100000000E-03 0. -1.
        -11    1    3    3    0    0  0.19248482378E+02 -0.16329496549E+02  0.24492430214E+02  0.35171517873E+02  0.51100000000E-03 0.  1.
         12    1    3    3    0    0 -0.26534357364E+02  0.12485350679E+02 -0.31552361035E+02  0.43075603178E+02  0.00000000000E+00 0. -1.
</event>
<event>
 7    1  0.1935465E-015  0.9000777E+02  0.7816164E-02  0.1186339E+00
        -11   -1    0    0    0    0  0.00000000000E+00  0.00000000000E+00  0.45593999997E+02  0.45594000000E+02  0.51100000000E-03 0.  1.
         11   -1    0    0    0    0 -0.00000000000E+00 -0.00000000000E+00 -0.45593999997E+02  0.45594000000E+02  0.51100000000E-03 0. -1.
    9900012    2    1    2    0    0  0.10897378890E+01  0.42530440664E+00  0.15659309571E+00  0.90007773792E+02  0.90000035606E+02 0.  0.
         12    1    1    2    0    0 -0.10897378890E+01 -0.42530440664E+00 -0.15659309571E+00  0.11802262083E+01  0.00000000000E+00 0. -1.
         11    1    3    3    0    0 -0.17540523775E+02  0.36797700407E+02 -0.37711062668E+01  0.40938514534E+02  0.51100000000E-03 0. -1.
        -11    1    3    3    0    0 -0.30384641960E+01 -0.81556277421E+01 -0.77203592843E+01  0.11634022360E+02  0.51100000000E-03 0.  1.
        -12    1    3    3    0    0  0.21668725860E+02 -0.28216768258E+02  0.11648058647E+02  0.37435236897E+02  0.00000000000E+00 0.  1.
</event>
<event>
 8    1  0.1935465E-015  0.9000760E+02  0.7816164E-02  0.1186339E+00
        -11   -1    0    0    0    0  0.00000000000E+00  0.00000000000E+00  0.45593999997E+02  0.45594000000E+02  0.51100000000E-03 0.  1.
         11   -1    0    0    0    0 -0.00000000000E+00 -0.00000000000E+00 -0.45593999997E+02  0.45594000000E+02  0.51100000000E-03 0. -1.
    9900012    2    1    2    0    0 -0.10353580581E+01  0.55538950074E+00  0.11362488949E+00  0.90007604125E+02  0.89999863699E+02 0.  0.
         23    2    3    3    0    0  0.12440622262E+02  0.22363516931E+02  0.20276997476E+01  0.64300403769E+02  0.58953663048E+02 0.  0.
         12    1    1    2    0    0  0.10353580581E+01 -0.55538950074E+00 -0.11362488949E+00  0.11803958749E+01  0.00000000000E+00 0. -1.
         11    1    4    4    0    0 -0.32333939902E+01 -0.18642242111E+02 -0.56251629193E+01  0.19739059900E+02  0.51100000000E-03 0.  1.
        -11    1    4    4    0    0  0.15674016252E+02  0.41005759042E+02  0.76528626669E+01  0.44561343868E+02  0.51100000000E-03 0. -1.
         12    1    3    3    0    0 -0.13475980320E+02 -0.21808127431E+02 -0.19140748581E+01  0.25707200356E+02  0.00000000000E+00 0. -1.
</event>
<event>
 7    1  0.1935465E-015  0.9000773E+02  0.7816164E-02  0.1186339E+00
        -11   -1    0    0    0    0  0.00000000000E+00  0.00000000000E+00  0.45593999997E+02  0.45594000000E+02  0.51100000000E-03 0. -1.
         11   -1    0    0    0    0 -0.00000000000E+00 -0.00000000000E+00 -0.45593999997E+02  0.45594000000E+02  0.51100000000E-03 0.  1.
    9900012    2    1    2    0    0 -0.15964970876E+00  0.18843173770E+00 -0.11541429602E+01  0.90007728624E+02  0.89999989841E+02 0.  0.
         12    1    1    2    0    0  0.15964970876E+00 -0.18843173770E+00  0.11541429602E+01  0.11802713763E+01  0.00000000000E+00 0. -1.
         11    1    3    3    0    0  0.32403341648E+01 -0.76412041329E+01  0.23234119484E+01  0.86189331964E+01  0.51100000000E-03 0. -1.
        -11    1    3    3    0    0 -0.38647399574E+02  0.51651447304E+01 -0.18283890272E+02  0.43065077008E+02  0.51100000000E-03 0.  1.
         12    1    3    3    0    0  0.35247415701E+02  0.26644911402E+01  0.14806335363E+02  0.38323718420E+02  0.00000000000E+00 0. -1.
</event>
<event>
 7    1  0.1935465E-015  0.9000759E+02  0.7816164E-02  0.1186339E+00
        -11   -1    0    0    0    0  0.00000000000E+00  0.00000000000E+00  0.45593999997E+02  0.45594000000E+02  0.51100000000E-03 0.  1.
         11   -1    0    0    0    0 -0.00000000000E+00 -0.00000000000E+00 -0.45593999997E+02  0.45594000000E+02  0.51100000000E-03 0. -1.
    9900012    2    1    2    0    0 -0.44878684642E+00 -0.31252205286E+00  0.10460846934E+01  0.90007587846E+02  0.89999847206E+02 0.  0.
         12    1    1    2    0    0  0.44878684642E+00  0.31252205286E+00 -0.10460846934E+01  0.11804121538E+01  0.00000000000E+00 0. -1.
         11    1    3    3    0    0 -0.27988037127E+01  0.41999479881E+01 -0.71061921363E+01  0.87161248421E+01  0.51100000000E-03 0. -1.
        -11    1    3    3    0    0 -0.33339187747E+02  0.17714080809E+01 -0.16719844677E+02  0.37338887671E+02  0.51100000000E-03 0.  1.
         12    1    3    3    0    0  0.35689204613E+02 -0.62838781218E+01  0.24872121506E+02  0.43952575333E+02  0.00000000000E+00 0. -1.
</event>
<event>
 7    1  0.1935465E-015  0.9000781E+02  0.7816164E-02  0.1186339E+00
        -11   -1    0    0    0    0  0.00000000000E+00  0.00000000000E+00  0.45593999997E+02  0.45594000000E+02  0.51100000000E-03 0.  1.
         11   -1    0    0    0    0 -0.00000000000E+00 -0.00000000000E+00 -0.45593999997E+02  0.45594000000E+02  0.51100000000E-03 0. -1.
    9900012    2    1    2    0    0  0.76373860960E+00  0.49968545731E+00  0.74824014931E+00  0.90007811227E+02  0.90000073535E+02 0.  0.
         12    1    1    2    0    0 -0.76373860960E+00 -0.49968545731E+00 -0.74824014931E+00  0.11801887735E+01  0.00000000000E+00 0. -1.
         11    1    3    3    0    0  0.70591021213E+01  0.22086281869E+01  0.81683297282E+01  0.11019554076E+02  0.51100000000E-03 0. -1.
        -11    1    3    3    0    0 -0.86199954364E+01  0.35197297881E+02  0.10732930527E+02  0.37793516605E+02  0.51100000000E-03 0.  1.
         12    1    3    3    0    0  0.23246319247E+01 -0.36906240610E+02 -0.18153020106E+02  0.41194740545E+02  0.00000000000E+00 0. -1.
</event>
<event>
 7    1  0.1935465E-015  0.9000765E+02  0.7816164E-02  0.1186339E+00
        -11   -1    0    0    0    0  0.00000000000E+00  0.00000000000E+00  0.45593999997E+02  0.45594000000E+02  0.51100000000E-03 0. -1.
         11   -1    0    0    0    0 -0.00000000000E+00 -0.00000000000E+00 -0.45593999997E+02  0.45594000000E+02  0.51100000000E-03 0.  1.
    9900012    2    1    2    0    0  0.39929048976E+00  0.95548949826E+00  0.56642723306E+00  0.90007647135E+02  0.89999907277E+02 0.  0.
         12    1    1    2    0    0 -0.39929048976E+00 -0.95548949826E+00 -0.56642723306E+00  0.11803528654E+01  0.00000000000E+00 0. -1.
         11    1    3    3    0    0 -0.13940838953E+02 -0.56342126135E+01  0.35293800404E+02  0.38363311767E+02  0.51100000000E-03 0. -1.
        -11    1    3    3    0    0 -0.86957406014E+01  0.30310057159E+01  0.70132073776E+00  0.92355157568E+01  0.51100000000E-03 0.  1.
        -12    1    3    3    0    0  0.23035870044E+02  0.35586963959E+01 -0.35428693909E+02  0.42408819611E+02  0.00000000000E+00 0.  1.
</event>
<event>
 7    1  0.1935465E-015  0.9000777E+02  0.7816164E-02  0.1186339E+00
        -11   -1    0    0    0    0  0.00000000000E+00  0.00000000000E+00  0.45593999997E+02  0.45594000000E+02  0.51100000000E-03 0.  1.
         11   -1    0    0    0    0 -0.00000000000E+00 -0.00000000000E+00 -0.45593999997E+02  0.45594000000E+02  0.51100000000E-03 0. -1.
    9900012    2    1    2    0    0  0.10156948866E+01  0.58336659550E+00  0.14488421520E+00  0.90007769462E+02  0.90000031219E+02 0.  0.
         12    1    1    2    0    0 -0.10156948866E+01 -0.58336659550E+00 -0.14488421520E+00  0.11802305382E+01  0.00000000000E+00 0. -1.
         11    1    3    3    0    0 -0.31340672166E+01  0.89907194561E+00  0.86664231510E+01  0.92594599289E+01  0.51100000000E-03 0. -1.
        -11    1    3    3    0    0  0.46441347590E+01 -0.35028612530E+02 -0.24023317916E+02  0.42728111207E+02  0.51100000000E-03 0.  1.
         12    1    3    3    0    0 -0.49437265570E+00  0.34712907180E+02  0.15501778980E+02  0.38020198326E+02  0.00000000000E+00 0. -1.
</event>
<event>
 7    1  0.1935465E-015  0.9000781E+02  0.7816164E-02  0.1186339E+00
        -11   -1    0    0    0    0  0.00000000000E+00  0.00000000000E+00  0.45593999997E+02  0.45594000000E+02  0.51100000000E-03 0. -1.
         11   -1    0    0    0    0 -0.00000000000E+00 -0.00000000000E+00 -0.45593999997E+02  0.45594000000E+02  0.51100000000E-03 0.  1.
    9900012    2    1    2    0    0  0.91174627483E+00  0.69870564060E+00  0.27090209910E+00  0.90007805614E+02  0.90000067848E+02 0.  0.
         12    1    1    2    0    0 -0.91174627483E+00 -0.69870564060E+00 -0.27090209910E+00  0.11801943862E+01  0.00000000000E+00 0. -1.
         11    1    3    3    0    0 -0.30537166632E+02  0.85857102579E+01  0.23468940810E+02  0.39459145322E+02  0.51100000000E-03 0. -1.
        -11    1    3    3    0    0 -0.53363105046E+01 -0.56088763745E+01 -0.64030702954E+01  0.10046641899E+02  0.51100000000E-03 0.  1.
        -12    1    3    3    0    0  0.36785223412E+02 -0.22781282428E+01 -0.16794968416E+02  0.40502018392E+02  0.00000000000E+00 0.  1.
</event>
<event>
 7    1  0.1935465E-015  0.9000773E+02  0.7816164E-02  0.1186339E+00
        -11   -1    0    0    0    0  0.00000000000E+00  0.00000000000E+00  0.45593999997E+02  0.45594000000E+02  0.51100000000E-03 0.  1.
         11   -1    0    0    0    0 -0.00000000000E+00 -0.00000000000E+00 -0.45593999997E+02  0.45594000000E+02  0.51100000000E-03 0. -1.
    9900012    2    1    2    0    0 -0.39277297055E+00 -0.79461304941E+00  0.77932992809E+00  0.90007730691E+02  0.89999991936E+02 0.  0.
         12    1    1    2    0    0  0.39277297055E+00  0.79461304941E+00 -0.77932992809E+00  0.11802693089E+01  0.00000000000E+00 0. -1.
         11    1    3    3    0    0  0.38524654283E+02 -0.42935053428E+01 -0.16021057372E+02  0.41943503136E+02  0.51100000000E-03 0. -1.
        -11    1    3    3    0    0 -0.62804454089E+01  0.58525265761E+01 -0.38104222588E+01  0.93923042918E+01  0.51100000000E-03 0.  1.
        -12    1    3    3    0    0 -0.32636981844E+02 -0.23536342828E+01  0.20610809558E+02  0.38671923264E+02  0.00000000000E+00 0.  1.
</event>
<event>
 7    1  0.1935465E-015  0.9000794E+02  0.7816164E-02  0.1186339E+00
        -11   -1    0    0    0    0  0.00000000000E+00  0.00000000000E+00  0.45593999997E+02  0.45594000000E+02  0.51100000000E-03 0. -1.
         11   -1    0    0    0    0 -0.00000000000E+00 -0.00000000000E+00 -0.45593999997E+02  0.45594000000E+02  0.51100000000E-03 0.  1.
    9900012    2    1    2    0    0  0.74986400935E+00 -0.76862041193E+00 -0.48935668471E+00  0.90007939266E+02  0.90000203264E+02 0.  0.
         12    1    1    2    0    0 -0.74986400935E+00  0.76862041193E+00  0.48935668471E+00  0.11800607336E+01  0.00000000000E+00 0. -1.
         11    1    3    3    0    0 -0.19586958932E+01 -0.36414655765E+01  0.80289418837E+01  0.90310945726E+01  0.51100000000E-03 0. -1.
        -11    1    3    3    0    0 -0.34015412322E+02  0.18710745897E+02  0.41050587454E+01  0.39038337503E+02  0.51100000000E-03 0.  1.
         12    1    3    3    0    0  0.36723972224E+02 -0.15837900732E+02 -0.12623357314E+02  0.41938507191E+02  0.00000000000E+00 0. -1.
</event>
<event>
 7    1  0.1935465E-015  0.9000772E+02  0.7816164E-02  0.1186339E+00
        -11   -1    0    0    0    0  0.00000000000E+00  0.00000000000E+00  0.45593999997E+02  0.45594000000E+02  0.51100000000E-03 0. -1.
         11   -1    0    0    0    0 -0.00000000000E+00 -0.00000000000E+00 -0.45593999997E+02  0.45594000000E+02  0.51100000000E-03 0.  1.
    9900012    2    1    2    0    0  0.11048960833E+01  0.32313614083E+00 -0.26046287470E+00  0.90007723240E+02  0.89999984387E+02 0.  0.
         12    1    1    2    0    0 -0.11048960833E+01 -0.32313614083E+00  0.26046287470E+00  0.11802767597E+01  0.00000000000E+00 0. -1.
         11    1    3    3    0    0  0.91855430338E+01 -0.15570400240E+02  0.35478410018E+02  0.39818703421E+02  0.51100000000E-03 0. -1.
        -11    1    3    3    0    0  0.19713083433E+01  0.55803568472E+01  0.45102199725E+01  0.74410028617E+01  0.51100000000E-03 0.  1.
        -12    1    3    3    0    0 -0.10051955294E+02  0.10313179534E+02 -0.40249092865E+02  0.42748016958E+02  0.00000000000E+00 0.  1.
</event>
<event>
 7    1  0.1935465E-015  0.9000777E+02  0.7816164E-02  0.1186339E+00
        -11   -1    0    0    0    0  0.00000000000E+00  0.00000000000E+00  0.45593999997E+02  0.45594000000E+02  0.51100000000E-03 0. -1.
         11   -1    0    0    0    0 -0.00000000000E+00 -0.00000000000E+00 -0.45593999997E+02  0.45594000000E+02  0.51100000000E-03 0.  1.
    9900012    2    1    2    0    0 -0.15699948226E+00 -0.48954332113E+00 -0.10623746033E+01  0.90007770659E+02  0.90000032431E+02 0.  0.
         12    1    1    2    0    0  0.15699948226E+00  0.48954332113E+00  0.10623746033E+01  0.11802293414E+01  0.00000000000E+00 0. -1.
         11    1    3    3    0    0  0.67124874250E+01  0.32859292783E+01 -0.64751778718E+01  0.98885159344E+01  0.51100000000E-03 0. -1.
        -11    1    3    3    0    0  0.22832613886E+02  0.27172681925E+02 -0.53535468300E+01  0.35893500300E+02  0.51100000000E-03 0.  1.
         12    1    3    3    0    0 -0.29702100793E+02 -0.30948154524E+02  0.10766350099E+02  0.44225754425E+02  0.00000000000E+00 0. -1.
</event>
<event>
 7    1  0.1935465E-015  0.9000772E+02  0.7816164E-02  0.1186339E+00
        -11   -1    0    0    0    0  0.00000000000E+00  0.00000000000E+00  0.45593999997E+02  0.45594000000E+02  0.51100000000E-03 0.  1.
         11   -1    0    0    0    0 -0.00000000000E+00 -0.00000000000E+00 -0.45593999997E+02  0.45594000000E+02  0.51100000000E-03 0. -1.
    9900012    2    1    2    0    0 -0.63027512973E+00 -0.26843014032E-01  0.99754073657E+00  0.90007722572E+02  0.89999983710E+02 0.  0.
         12    1    1    2    0    0  0.63027512973E+00  0.26843014032E-01 -0.99754073657E+00  0.11802774283E+01  0.00000000000E+00 0. -1.
         11    1    3    3    0    0  0.30946403935E+02 -0.24214856637E+02 -0.72032613251E+01  0.39949044700E+02  0.51100000000E-03 0. -1.
        -11    1    3    3    0    0 -0.70443666236E+01 -0.61797836265E+01 -0.22660680372E+01  0.96409486778E+01  0.51100000000E-03 0.  1.
        -12    1    3    3    0    0 -0.24532312441E+02  0.30367797250E+02  0.10466870099E+02  0.40417729194E+02  0.00000000000E+00 0.  1.
</event>
<event>
 7    1  0.1935465E-015  0.9000767E+02  0.7816164E-02  0.1186339E+00
        -11   -1    0    0    0    0  0.00000000000E+00  0.00000000000E+00  0.45593999997E+02  0.45594000000E+02  0.51100000000E-03 0. -1.
         11   -1    0    0    0    0 -0.00000000000E+00 -0.00000000000E+00 -0.45593999997E+02  0.45594000000E+02  0.51100000000E-03 0.  1.
    9900012    2    1    2    0    0  0.44685061988E+00  0.10521761693E+01 -0.29398386898E+00  0.90007670943E+02  0.89999931399E+02 0.  0.
         12    1    1    2    0    0 -0.44685061988E+00 -0.10521761693E+01  0.29398386898E+00  0.11803290570E+01  0.00000000000E+00 0. -1.
         11    1    3    3    0    0 -0.10961209054E+02  0.22666435016E+02  0.23137177091E+02  0.34194215070E+02  0.51100000000E-03 0. -1.
        -11    1    3    3    0    0  0.11522289528E+01  0.12959724582E+02 -0.38711095499E+00  0.13016602781E+02  0.51100000000E-03 0.  1.
        -12    1    3    3    0    0  0.10255830721E+02 -0.34573983429E+02 -0.23044050005E+02  0.42796853092E+02  0.00000000000E+00 0.  1.
</event>
<event>
 7    1  0.1935465E-015  0.9000768E+02  0.7816164E-02  0.1186339E+00
        -11   -1    0    0    0    0  0.00000000000E+00  0.00000000000E+00  0.45593999997E+02  0.45594000000E+02  0.51100000000E-03 0.  1.
         11   -1    0    0    0    0 -0.00000000000E+00 -0.00000000000E+00 -0.45593999997E+02  0.45594000000E+02  0.51100000000E-03 0. -1.
    9900012    2    1    2    0    0 -0.33826922171E-01  0.10474552156E+01  0.54298928892E+00  0.90007684764E+02  0.89999945403E+02 0.  0.
         12    1    1    2    0    0  0.33826922171E-01 -0.10474552156E+01 -0.54298928892E+00  0.11803152363E+01  0.00000000000E+00 0. -1.
         11    1    3    3    0    0 -0.42272976652E+02  0.72132777869E+01 -0.23581065024E+01  0.42948767130E+02  0.51100000000E-03 0. -1.
        -11    1    3    3    0    0  0.57510139908E+01 -0.81718804437E+01  0.32690590697E+01  0.10513826105E+02  0.51100000000E-03 0.  1.
        -12    1    3    3    0    0  0.36488135739E+02  0.20060578723E+01 -0.36796327843E+00  0.36545091529E+02  0.00000000000E+00 0.  1.
</event>
<event>
 7    1  0.1935465E-015  0.9000770E+02  0.7816164E-02  0.1186339E+00
        -11   -1    0    0    0    0  0.00000000000E+00  0.00000000000E+00  0.45593999997E+02  0.45594000000E+02  0.51100000000E-03 0.  1.
         11   -1    0    0    0    0 -0.00000000000E+00 -0.00000000000E+00 -0.45593999997E+02  0.45594000000E+02  0.51100000000E-03 0. -1.
    9900012    2    1    2    0    0 -0.10626801200E+01 -0.38786996211E+00 -0.33671616564E+00  0.90007699224E+02  0.89999960054E+02 0.  0.
         12    1    1    2    0    0  0.10626801200E+01  0.38786996211E+00  0.33671616564E+00  0.11803007757E+01  0.00000000000E+00 0. -1.
         11    1    3    3    0    0 -0.19715279364E+02  0.10104216804E+02 -0.30174383618E+02  0.37433686228E+02  0.51100000000E-03 0. -1.
        -11    1    3    3    0    0 -0.79547685578E+01 -0.23927261442E+01 -0.36237909538E+01  0.90628550881E+01  0.51100000000E-03 0.  1.
        -12    1    3    3    0    0  0.26607367802E+02 -0.80993606219E+01  0.33461458406E+02  0.43511157908E+02  0.00000000000E+00 0.  1.
</event>
<event>
 7    1  0.1935465E-015  0.9000757E+02  0.7816164E-02  0.1186339E+00
        -11   -1    0    0    0    0  0.00000000000E+00  0.00000000000E+00  0.45593999997E+02  0.45594000000E+02  0.51100000000E-03 0. -1.
         11   -1    0    0    0    0 -0.00000000000E+00 -0.00000000000E+00 -0.45593999997E+02  0.45594000000E+02  0.51100000000E-03 0.  1.
    9900012    2    1    2    0    0  0.61324501407E+00 -0.98906054515E+00  0.19776954952E+00  0.90007566603E+02  0.89999825682E+02 0.  0.
         12    1    1    2    0    0 -0.61324501407E+00  0.98906054515E+00 -0.19776954952E+00  0.11804333967E+01  0.00000000000E+00 0. -1.
         11    1    3    3    0    0  0.21769244888E+02  0.11902075081E+02  0.31045079255E+02  0.39741116748E+02  0.51100000000E-03 0. -1.
        -11    1    3    3    0    0 -0.72680416681E+01  0.27817784365E+01  0.46405926494E+01  0.90607848091E+01  0.51100000000E-03 0.  1.
        -12    1    3    3    0    0 -0.13887958206E+02 -0.15672914062E+02 -0.35487902355E+02  0.41205665046E+02  0.00000000000E+00 0.  1.
</event>
<event>
 7    1  0.1935465E-015  0.9000770E+02  0.7816164E-02  0.1186339E+00
        -11   -1    0    0    0    0  0.00000000000E+00  0.00000000000E+00  0.45593999997E+02  0.45594000000E+02  0.51100000000E-03 0.  1.
         11   -1    0    0    0    0 -0.00000000000E+00 -0.00000000000E+00 -0.45593999997E+02  0.45594000000E+02  0.51100000000E-03 0. -1.
    9900012    2    1    2    0    0  0.41617792387E+00  0.10891312292E+01 -0.18355183024E+00  0.90007702507E+02  0.89999963380E+02 0.  0.
         12    1    1    2    0    0 -0.41617792387E+00 -0.10891312292E+01  0.18355183024E+00  0.11802974935E+01  0.00000000000E+00 0. -1.
         11    1    3    3    0    0  0.84906886073E+01  0.40370613115E+01 -0.72794340322E+00  0.94297167995E+01  0.51100000000E-03 0. -1.
        -11    1    3    3    0    0  0.30017495045E+02  0.13181602523E+02  0.15921913018E+02  0.36446014436E+02  0.51100000000E-03 0.  1.
         12    1    3    3    0    0 -0.38092005729E+02 -0.16129532605E+02 -0.15377521445E+02  0.44131971271E+02  0.00000000000E+00 0. -1.
</event>
<event>
 7    1  0.1935465E-015  0.9000768E+02  0.7816164E-02  0.1186339E+00
        -11   -1    0    0    0    0  0.00000000000E+00  0.00000000000E+00  0.45593999997E+02  0.45594000000E+02  0.51100000000E-03 0.  1.
         11   -1    0    0    0    0 -0.00000000000E+00 -0.00000000000E+00 -0.45593999997E+02  0.45594000000E+02  0.51100000000E-03 0. -1.
    9900012    2    1    2    0    0  0.51591821651E+00  0.35999438938E+00  0.99869693027E+00  0.90007676686E+02  0.89999937218E+02 0.  0.
         12    1    1    2    0    0 -0.51591821651E+00 -0.35999438938E+00 -0.99869693027E+00  0.11803233138E+01  0.00000000000E+00 0. -1.
         11    1    3    3    0    0  0.30661399470E+02 -0.16921531299E+02 -0.76245443093E+01  0.35841223684E+02  0.51100000000E-03 0. -1.
        -11    1    3    3    0    0  0.64992193746E+01 -0.59049835061E+01 -0.29864486984E+01  0.92751042460E+01  0.51100000000E-03 0.  1.
        -12    1    3    3    0    0 -0.36644700628E+02  0.23186509195E+02  0.11609689938E+02  0.44891348757E+02  0.00000000000E+00 0.  1.
</event>
<event>
 7    1  0.1935465E-015  0.9000777E+02  0.7816164E-02  0.1186339E+00
        -11   -1    0    0    0    0  0.00000000000E+00  0.00000000000E+00  0.45593999997E+02  0.45594000000E+02  0.51100000000E-03 0.  1.
         11   -1    0    0    0    0 -0.00000000000E+00 -0.00000000000E+00 -0.45593999997E+02  0.45594000000E+02  0.51100000000E-03 0. -1.
    9900012    2    1    2    0    0  0.82706264015E+00  0.34739548479E+00  0.76695287524E+00  0.90007774197E+02  0.90000036016E+02 0.  0.
         12    1    1    2    0    0 -0.82706264015E+00 -0.34739548479E+00 -0.76695287524E+00  0.11802258032E+01  0.00000000000E+00 0. -1.
         11    1    3    3    0    0  0.17716245966E+01  0.71729932409E+01 -0.33437807955E+02  0.34244378908E+02  0.51100000000E-03 0. -1.
        -11    1    3    3    0    0 -0.44923643644E+01 -0.26806582000E+00 -0.99832887011E+01  0.10950764833E+02  0.51100000000E-03 0.  1.
        -12    1    3    3    0    0  0.35478024080E+01 -0.65575319361E+01  0.44188049531E+02  0.44812630456E+02  0.00000000000E+00 0.  1.
</event>
<event>
 7    1  0.1935465E-015  0.9000775E+02  0.7816164E-02  0.1186339E+00
        -11   -1    0    0    0    0  0.00000000000E+00  0.00000000000E+00  0.45593999997E+02  0.45594000000E+02  0.51100000000E-03 0. -1.
         11   -1    0    0    0    0 -0.00000000000E+00 -0.00000000000E+00 -0.45593999997E+02  0.45594000000E+02  0.51100000000E-03 0.  1.
    9900012    2    1    2    0    0 -0.10694455891E+01 -0.36571479258E+00 -0.33989457278E+00  0.90007750239E+02  0.90000011742E+02 0.  0.
         12    1    1    2    0    0  0.10694455891E+01  0.36571479258E+00  0.33989457278E+00  0.11802497609E+01  0.00000000000E+00 0. -1.
         11    1    3    3    0    0  0.40033739412E+01 -0.60096125556E+01  0.37852160499E+02  0.38534770023E+02  0.51100000000E-03 0. -1.
        -11    1    3    3    0    0 -0.27227498095E+01  0.27814005490E+01  0.59858924720E+01  0.71400605380E+01  0.51100000000E-03 0.  1.
        -12    1    3    3    0    0 -0.23500697208E+01  0.28624972141E+01 -0.44177947544E+02  0.44332919678E+02  0.00000000000E+00 0.  1.
</event>
<event>
 7    1  0.1935465E-015  0.9000770E+02  0.7816164E-02  0.1186339E+00
        -11   -1    0    0    0    0  0.00000000000E+00  0.00000000000E+00  0.45593999997E+02  0.45594000000E+02  0.51100000000E-03 0.  1.
         11   -1    0    0    0    0 -0.00000000000E+00 -0.00000000000E+00 -0.45593999997E+02  0.45594000000E+02  0.51100000000E-03 0. -1.
    9900012    2    1    2    0    0  0.45533139900E+00  0.63643831381E+00  0.88358238930E+00  0.90007704169E+02  0.89999965064E+02 0.  0.
         12    1    1    2    0    0 -0.45533139900E+00 -0.63643831381E+00 -0.88358238930E+00  0.11802958311E+01  0.00000000000E+00 0. -1.
         11    1    3    3    0    0 -0.22612257790E+02 -0.33911935918E+01  0.30879411429E+02  0.38423332062E+02  0.51100000000E-03 0. -1.
        -11    1    3    3    0    0 -0.46845680175E+01 -0.24070863324E+01  0.44423532569E+01  0.68901193635E+01  0.51100000000E-03 0.  1.
        -12    1    3    3    0    0  0.27752157206E+02  0.64347182380E+01 -0.34438182296E+02  0.44694252743E+02  0.00000000000E+00 0.  1.
</event>
<event>
 7    1  0.1935465E-015  0.9000793E+02  0.7816164E-02  0.1186339E+00
        -11   -1    0    0    0    0  0.00000000000E+00  0.00000000000E+00  0.45593999997E+02  0.45594000000E+02  0.51100000000E-03 0.  1.
         11   -1    0    0    0    0 -0.00000000000E+00 -0.00000000000E+00 -0.45593999997E+02  0.45594000000E+02  0.51100000000E-03 0. -1.
    9900012    2    1    2    0    0 -0.56827482186E+00  0.63665900559E+00 -0.81503529886E+00  0.90007934959E+02  0.90000198900E+02 0.  0.
         12    1    1    2    0    0  0.56827482186E+00 -0.63665900559E+00  0.81503529886E+00  0.11800650410E+01  0.00000000000E+00 0. -1.
         11    1    3    3    0    0  0.76002047919E+01  0.14768241474E+01  0.28537879631E+01  0.82515591521E+01  0.51100000000E-03 0. -1.
        -11    1    3    3    0    0 -0.29708578705E+02  0.25362098761E+02  0.16377138319E+02  0.42356184460E+02  0.51100000000E-03 0.  1.
         12    1    3    3    0    0  0.21540099091E+02 -0.26202263903E+02 -0.20045961581E+02  0.39400191347E+02  0.00000000000E+00 0. -1.
</event>
<event>
 7    1  0.1935465E-015  0.9000771E+02  0.7816164E-02  0.1186339E+00
        -11   -1    0    0    0    0  0.00000000000E+00  0.00000000000E+00  0.45593999997E+02  0.45594000000E+02  0.51100000000E-03 0. -1.
         11   -1    0    0    0    0 -0.00000000000E+00 -0.00000000000E+00 -0.45593999997E+02  0.45594000000E+02  0.51100000000E-03 0.  1.
    9900012    2    1    2    0    0  0.21860301432E+00 -0.79650629438E+00 -0.84313137732E+00  0.90007711868E+02  0.89999972865E+02 0.  0.
         12    1    1    2    0    0 -0.21860301432E+00  0.79650629438E+00  0.84313137732E+00  0.11802881319E+01  0.00000000000E+00 0. -1.
         11    1    3    3    0    0 -0.10506393588E+02 -0.23888916713E+01  0.18691318131E+01  0.10935481866E+02  0.51100000000E-03 0. -1.
        -11    1    3    3    0    0  0.23928333292E+02  0.30783605305E+02 -0.18727455756E+02  0.43254052863E+02  0.51100000000E-03 0.  1.
         12    1    3    3    0    0 -0.13203336690E+02 -0.29191219928E+02  0.16015192566E+02  0.35818177139E+02  0.00000000000E+00 0. -1.
</event>
<event>
 7    1  0.1935465E-015  0.9000651E+02  0.7816164E-02  0.1186341E+00
        -11   -1    0    0    0    0  0.00000000000E+00  0.00000000000E+00  0.45593999997E+02  0.45594000000E+02  0.51100000000E-03 0.  1.
         11   -1    0    0    0    0 -0.00000000000E+00 -0.00000000000E+00 -0.45593999997E+02  0.45594000000E+02  0.51100000000E-03 0. -1.
    9900012    2    1    2    0    0 -0.89287104591E+00  0.61061204054E+00  0.47523645904E+00  0.90006511337E+02  0.89998756478E+02 0.  0.
         12    1    1    2    0    0  0.89287104591E+00 -0.61061204054E+00 -0.47523645904E+00  0.11814886630E+01  0.00000000000E+00 0. -1.
         11    1    3    3    0    0 -0.35651104261E+01 -0.17489022714E+01  0.95002690579E+01  0.10296785126E+02  0.51100000000E-03 0. -1.
        -11    1    3    3    0    0 -0.26678464716E+01  0.35398897749E+02  0.14972118386E+02  0.38527440817E+02  0.51100000000E-03 0.  1.
         12    1    3    3    0    0  0.53400858518E+01 -0.33039383438E+02 -0.23997150985E+02  0.41182285394E+02  0.00000000000E+00 0. -1.
</event>
<event>
 7    1  0.1935465E-015  0.9000802E+02  0.7816164E-02  0.1186338E+00
        -11   -1    0    0    0    0  0.00000000000E+00  0.00000000000E+00  0.45593999997E+02  0.45594000000E+02  0.51100000000E-03 0.  1.
         11   -1    0    0    0    0 -0.00000000000E+00 -0.00000000000E+00 -0.45593999997E+02  0.45594000000E+02  0.51100000000E-03 0. -1.
    9900012    2    1    2    0    0 -0.10313797795E+01 -0.23716050790E+00  0.52187572302E+00  0.90008023887E+02  0.90000289002E+02 0.  0.
         12    1    1    2    0    0  0.10313797795E+01  0.23716050790E+00 -0.52187572302E+00  0.11799761126E+01  0.00000000000E+00 0. -1.
         11    1    3    3    0    0 -0.11837731989E+02 -0.12661524747E+02 -0.70053645605E+01  0.18695487168E+02  0.51100000000E-03 0. -1.
        -11    1    3    3    0    0  0.14992371653E+01  0.19373942874E+02 -0.27916721285E+02  0.34013831041E+02  0.51100000000E-03 0.  1.
        -12    1    3    3    0    0  0.93071150440E+01 -0.69495786350E+01  0.35443961568E+02  0.37298705678E+02  0.00000000000E+00 0.  1.
</event>
<event>
 7    1  0.1935465E-015  0.9000767E+02  0.7816164E-02  0.1186339E+00
        -11   -1    0    0    0    0  0.00000000000E+00  0.00000000000E+00  0.45593999997E+02  0.45594000000E+02  0.51100000000E-03 0.  1.
         11   -1    0    0    0    0 -0.00000000000E+00 -0.00000000000E+00 -0.45593999997E+02  0.45594000000E+02  0.51100000000E-03 0. -1.
    9900012    2    1    2    0    0 -0.45118103679E-01 -0.79666152732E+00  0.86974856600E+00  0.90007674706E+02  0.89999935212E+02 0.  0.
         12    1    1    2    0    0  0.45118103679E-01  0.79666152732E+00 -0.86974856600E+00  0.11803252943E+01  0.00000000000E+00 0. -1.
         11    1    3    3    0    0 -0.86116006882E+01 -0.27965227747E+01  0.20294035118E+02  0.22222242634E+02  0.51100000000E-03 0. -1.
        -11    1    3    3    0    0 -0.32750229480E+01 -0.11587132309E+02  0.20616576972E+02  0.23875314799E+02  0.51100000000E-03 0.  1.
         12    1    3    3    0    0  0.11841505532E+02  0.13586993556E+02 -0.40040863524E+02  0.43910117273E+02  0.00000000000E+00 0. -1.
</event>
<event>
 7    1  0.1935465E-015  0.9000765E+02  0.7816164E-02  0.1186339E+00
        -11   -1    0    0    0    0  0.00000000000E+00  0.00000000000E+00  0.45593999997E+02  0.45594000000E+02  0.51100000000E-03 0. -1.
         11   -1    0    0    0    0 -0.00000000000E+00 -0.00000000000E+00 -0.45593999997E+02  0.45594000000E+02  0.51100000000E-03 0.  1.
    9900012    2    1    2    0    0  0.11164595297E+01  0.11718511443E+00  0.36471793258E+00  0.90007646916E+02  0.89999907055E+02 0.  0.
         12    1    1    2    0    0 -0.11164595297E+01 -0.11718511443E+00 -0.36471793258E+00  0.11803530839E+01  0.00000000000E+00 0. -1.
         11    1    3    3    0    0 -0.33436851929E+02 -0.59919252864E+01  0.11488842474E+02  0.35859723050E+02  0.51100000000E-03 0. -1.
        -11    1    3    3    0    0 -0.84150311940E+01  0.69061531950E+00  0.23982258439E+01  0.87773109193E+01  0.51100000000E-03 0.  1.
        -12    1    3    3    0    0  0.42968342652E+02  0.54184950813E+01 -0.13522350386E+02  0.45370612947E+02  0.00000000000E+00 0.  1.
</event>
<event>
 7    1  0.1935465E-015  0.9000777E+02  0.7816164E-02  0.1186339E+00
        -11   -1    0    0    0    0  0.00000000000E+00  0.00000000000E+00  0.45593999997E+02  0.45594000000E+02  0.51100000000E-03 0.  1.
         11   -1    0    0    0    0 -0.00000000000E+00 -0.00000000000E+00 -0.45593999997E+02  0.45594000000E+02  0.51100000000E-03 0. -1.
    9900012    2    1    2    0    0 -0.11298103467E+01 -0.32049278424E+00  0.11726557490E+00  0.90007771946E+02  0.90000033736E+02 0.  0.
         12    1    1    2    0    0  0.11298103467E+01  0.32049278424E+00 -0.11726557490E+00  0.11802280540E+01  0.00000000000E+00 0. -1.
         11    1    3    3    0    0 -0.47971425402E+01 -0.10926374212E+01 -0.97564185038E+01  0.10926762346E+02  0.51100000000E-03 0. -1.
        -11    1    3    3    0    0 -0.19994463655E+02 -0.23020247002E+02  0.27603344700E+02  0.41129733621E+02  0.51100000000E-03 0.  1.
         12    1    3    3    0    0  0.23661795848E+02  0.23792391639E+02 -0.17729660621E+02  0.37951275979E+02  0.00000000000E+00 0. -1.
</event>
<event>
 7    1  0.1935465E-015  0.9000765E+02  0.7816164E-02  0.1186339E+00
        -11   -1    0    0    0    0  0.00000000000E+00  0.00000000000E+00  0.45593999997E+02  0.45594000000E+02  0.51100000000E-03 0. -1.
         11   -1    0    0    0    0 -0.00000000000E+00 -0.00000000000E+00 -0.45593999997E+02  0.45594000000E+02  0.51100000000E-03 0.  1.
    9900012    2    1    2    0    0  0.33197948264E-01  0.47816389612E+00 -0.10786447080E+01  0.90007653770E+02  0.89999914000E+02 0.  0.
         12    1    1    2    0    0 -0.33197948264E-01 -0.47816389612E+00  0.10786447080E+01  0.11803462295E+01  0.00000000000E+00 0. -1.
         11    1    3    3    0    0  0.12243673223E+02  0.14055133304E+02  0.33222074360E+02  0.38094101003E+02  0.51100000000E-03 0. -1.
        -11    1    3    3    0    0  0.76532914902E+01  0.46206526174E+01 -0.87403208319E+00  0.89826072823E+01  0.51100000000E-03 0.  1.
        -12    1    3    3    0    0 -0.19863766765E+02 -0.18197622025E+02 -0.33426686985E+02  0.42930945485E+02  0.00000000000E+00 0.  1.
</event>
<event>
 7    1  0.1935465E-015  0.9000775E+02  0.7816164E-02  0.1186339E+00
        -11   -1    0    0    0    0  0.00000000000E+00  0.00000000000E+00  0.45593999997E+02  0.45594000000E+02  0.51100000000E-03 0.  1.
         11   -1    0    0    0    0 -0.00000000000E+00 -0.00000000000E+00 -0.45593999997E+02  0.45594000000E+02  0.51100000000E-03 0. -1.
    9900012    2    1    2    0    0 -0.86072164974E+00 -0.35919759245E+00  0.72326857620E+00  0.90007753372E+02  0.90000014917E+02 0.  0.
         12    1    1    2    0    0  0.86072164974E+00  0.35919759245E+00 -0.72326857620E+00  0.11802466276E+01  0.00000000000E+00 0. -1.
         11    1    3    3    0    0 -0.90247944585E+01 -0.12423203603E+01 -0.19163436866E+01  0.93092775382E+01  0.51100000000E-03 0. -1.
        -11    1    3    3    0    0 -0.13689513701E+02 -0.35288459068E+02  0.59191684072E+01  0.38310764592E+02  0.51100000000E-03 0.  1.
         12    1    3    3    0    0  0.21853586509E+02  0.36171581836E+02 -0.32795561444E+01  0.42387711242E+02  0.00000000000E+00 0. -1.
</event>
<event>
 7    1  0.1935465E-015  0.9000771E+02  0.7816164E-02  0.1186339E+00
        -11   -1    0    0    0    0  0.00000000000E+00  0.00000000000E+00  0.45593999997E+02  0.45594000000E+02  0.51100000000E-03 0. -1.
         11   -1    0    0    0    0 -0.00000000000E+00 -0.00000000000E+00 -0.45593999997E+02  0.45594000000E+02  0.51100000000E-03 0.  1.
    9900012    2    1    2    0    0 -0.63654000302E+00 -0.87545094314E+00 -0.47062903962E+00  0.90007707993E+02  0.89999968938E+02 0.  0.
         12    1    1    2    0    0  0.63654000302E+00  0.87545094314E+00  0.47062903962E+00  0.11802920072E+01  0.00000000000E+00 0. -1.
         11    1    3    3    0    0  0.10238085016E+02 -0.15400423042E+02  0.23603211784E+02  0.29985046631E+02  0.51100000000E-03 0. -1.
        -11    1    3    3    0    0 -0.12126897786E+02 -0.15241529955E+02  0.30712366949E+01  0.19717971001E+02  0.51100000000E-03 0.  1.
        -12    1    3    3    0    0  0.12522727668E+01  0.29766502055E+02 -0.27145077518E+02  0.40304690361E+02  0.00000000000E+00 0.  1.
</event>
<event>
 7    1  0.1935465E-015  0.9000777E+02  0.7816164E-02  0.1186339E+00
        -11   -1    0    0    0    0  0.00000000000E+00  0.00000000000E+00  0.45593999997E+02  0.45594000000E+02  0.51100000000E-03 0. -1.
         11   -1    0    0    0    0 -0.00000000000E+00 -0.00000000000E+00 -0.45593999997E+02  0.45594000000E+02  0.51100000000E-03 0.  1.
    9900012    2    1    2    0    0  0.92883535534E+00 -0.38555013903E+00 -0.61770657466E+00  0.90007768904E+02  0.90000030654E+02 0.  0.
         12    1    1    2    0    0 -0.92883535534E+00  0.38555013903E+00  0.61770657466E+00  0.11802310958E+01  0.00000000000E+00 0. -1.
         11    1    3    3    0    0 -0.81214077623E+01  0.58644952251E+01 -0.30941724078E+01  0.10484439491E+02  0.51100000000E-03 0. -1.
        -11    1    3    3    0    0  0.21308755314E+02 -0.13610986918E+02 -0.32825952847E+02  0.41435072083E+02  0.51100000000E-03 0.  1.
         12    1    3    3    0    0 -0.12258512197E+02  0.73609415535E+01  0.35302418680E+02  0.38088257331E+02  0.00000000000E+00 0. -1.
</event>
<event>
 7    1  0.1935465E-015  0.9000768E+02  0.7816164E-02  0.1186339E+00
        -11   -1    0    0    0    0  0.00000000000E+00  0.00000000000E+00  0.45593999997E+02  0.45594000000E+02  0.51100000000E-03 0. -1.
         11   -1    0    0    0    0 -0.00000000000E+00 -0.00000000000E+00 -0.45593999997E+02  0.45594000000E+02  0.51100000000E-03 0.  1.
    9900012    2    1    2    0    0 -0.14344182584E+00  0.44437369066E+00 -0.10840309480E+01  0.90007675201E+02  0.89999935714E+02 0.  0.
         12    1    1    2    0    0  0.14344182584E+00 -0.44437369066E+00  0.10840309480E+01  0.11803247988E+01  0.00000000000E+00 0. -1.
         11    1    3    3    0    0  0.19979067564E+02 -0.65950324294E+01  0.36348252334E+02  0.41998250458E+02  0.51100000000E-03 0. -1.
        -11    1    3    3    0    0 -0.20366441563E+01  0.85428164798E+01 -0.33557263310E+01  0.94015175529E+01  0.51100000000E-03 0.  1.
        -12    1    3    3    0    0 -0.18085865234E+02 -0.15034103597E+01 -0.34076556951E+02  0.38607907191E+02  0.00000000000E+00 0.  1.
</event>
<event>
 7    1  0.1935465E-015  0.9000768E+02  0.7816164E-02  0.1186339E+00
        -11   -1    0    0    0    0  0.00000000000E+00  0.00000000000E+00  0.45593999997E+02  0.45594000000E+02  0.51100000000E-03 0.  1.
         11   -1    0    0    0    0 -0.00000000000E+00 -0.00000000000E+00 -0.45593999997E+02  0.45594000000E+02  0.51100000000E-03 0. -1.
    9900012    2    1    2    0    0  0.88271525042E+00 -0.78123299258E+00  0.60308770544E-01  0.90007682945E+02  0.89999943560E+02 0.  0.
         12    1    1    2    0    0 -0.88271525042E+00  0.78123299258E+00 -0.60308770544E-01  0.11803170548E+01  0.00000000000E+00 0. -1.
         11    1    3    3    0    0 -0.28013325152E+01 -0.43994706648E+01  0.67517556073E+01  0.85316475568E+01  0.51100000000E-03 0. -1.
        -11    1    3    3    0    0  0.22375312009E+02 -0.32670815429E+02 -0.89372415411E+01  0.40594470743E+02  0.51100000000E-03 0.  1.
         12    1    3    3    0    0 -0.18691264244E+02  0.36289053101E+02  0.22457947043E+01  0.40881564645E+02  0.00000000000E+00 0. -1.
</event>
<event>
 7    1  0.1935465E-015  0.9000769E+02  0.7816164E-02  0.1186339E+00
        -11   -1    0    0    0    0  0.00000000000E+00  0.00000000000E+00  0.45593999997E+02  0.45594000000E+02  0.51100000000E-03 0.  1.
         11   -1    0    0    0    0 -0.00000000000E+00 -0.00000000000E+00 -0.45593999997E+02  0.45594000000E+02  0.51100000000E-03 0. -1.
    9900012    2    1    2    0    0  0.69536873646E+00  0.34865076826E+00  0.88771595261E+00  0.90007688749E+02  0.89999949440E+02 0.  0.
         12    1    1    2    0    0 -0.69536873646E+00 -0.34865076826E+00 -0.88771595261E+00  0.11803112515E+01  0.00000000000E+00 0. -1.
         11    1    3    3    0    0 -0.31711257863E+01 -0.19503145855E+02 -0.37625174325E+02  0.42498029134E+02  0.51100000000E-03 0. -1.
        -11    1    3    3    0    0 -0.58518320358E+01  0.57026282634E+01  0.43026650632E+01  0.92345456950E+01  0.51100000000E-03 0.  1.
        -12    1    3    3    0    0  0.97183265586E+01  0.14149168360E+02  0.34210225214E+02  0.38275113920E+02  0.00000000000E+00 0.  1.
</event>
<event>
 7    1  0.1935465E-015  0.9000772E+02  0.7816164E-02  0.1186339E+00
        -11   -1    0    0    0    0  0.00000000000E+00  0.00000000000E+00  0.45593999997E+02  0.45594000000E+02  0.51100000000E-03 0.  1.
         11   -1    0    0    0    0 -0.00000000000E+00 -0.00000000000E+00 -0.45593999997E+02  0.45594000000E+02  0.51100000000E-03 0. -1.
    9900012    2    1    2    0    0 -0.99049889307E+00  0.20865746205E+00  0.60698782984E+00  0.90007720279E+02  0.89999981387E+02 0.  0.
         12    1    1    2    0    0  0.99049889307E+00 -0.20865746205E+00 -0.60698782984E+00  0.11802797207E+01  0.00000000000E+00 0. -1.
         11    1    3    3    0    0  0.20337853147E+01 -0.83078703241E+01  0.36399486770E+01  0.92954945356E+01  0.51100000000E-03 0. -1.
        -11    1    3    3    0    0  0.16237967495E+02 -0.22744114053E+02  0.22592453077E+02  0.35935849074E+02  0.51100000000E-03 0.  1.
         12    1    3    3    0    0 -0.19262251702E+02  0.31260641839E+02 -0.25625413924E+02  0.44776376669E+02  0.00000000000E+00 0. -1.
</event>
<event>
 7    1  0.1935465E-015  0.9000768E+02  0.7816164E-02  0.1186339E+00
        -11   -1    0    0    0    0  0.00000000000E+00  0.00000000000E+00  0.45593999997E+02  0.45594000000E+02  0.51100000000E-03 0. -1.
         11   -1    0    0    0    0 -0.00000000000E+00 -0.00000000000E+00 -0.45593999997E+02  0.45594000000E+02  0.51100000000E-03 0.  1.
    9900012    2    1    2    0    0 -0.38244401263E+00  0.40774068022E+00 -0.10395340665E+01  0.90007683534E+02  0.89999944156E+02 0.  0.
         12    1    1    2    0    0  0.38244401263E+00 -0.40774068022E+00  0.10395340665E+01  0.11803164662E+01  0.00000000000E+00 0. -1.
         11    1    3    3    0    0 -0.18936774643E+02 -0.77339828525E+01 -0.89189985331E+01  0.22315117292E+02  0.51100000000E-03 0. -1.
        -11    1    3    3    0    0 -0.19985444797E+02  0.64443554780E+00 -0.12373336564E+02  0.23514522298E+02  0.51100000000E-03 0.  1.
         12    1    3    3    0    0  0.38539775428E+02  0.74972879850E+01  0.20252801030E+02  0.44178043944E+02  0.00000000000E+00 0. -1.
</event>
<event>
 7    1  0.1935465E-015  0.9000796E+02  0.7816164E-02  0.1186339E+00
        -11   -1    0    0    0    0  0.00000000000E+00  0.00000000000E+00  0.45593999997E+02  0.45594000000E+02  0.51100000000E-03 0.  1.
         11   -1    0    0    0    0 -0.00000000000E+00 -0.00000000000E+00 -0.45593999997E+02  0.45594000000E+02  0.51100000000E-03 0. -1.
    9900012    2    1    2    0    0 -0.22192883996E+00  0.87725020923E+00  0.75741345372E+00  0.90007959543E+02  0.90000223809E+02 0.  0.
         12    1    1    2    0    0  0.22192883996E+00 -0.87725020923E+00 -0.75741345372E+00  0.11800404567E+01  0.00000000000E+00 0. -1.
         11    1    3    3    0    0  0.70119075225E+00  0.78621399982E+01  0.49317473916E+01  0.93073651706E+01  0.51100000000E-03 0. -1.
        -11    1    3    3    0    0  0.38326619895E+02  0.16915568689E+01 -0.11040797619E+02  0.39921051709E+02  0.51100000000E-03 0.  1.
         12    1    3    3    0    0 -0.39249739487E+02 -0.86764466579E+01  0.68664636811E+01  0.40779542664E+02  0.00000000000E+00 0. -1.
</event>
<event>
 7    1  0.1935465E-015  0.9000755E+02  0.7816164E-02  0.1186339E+00
        -11   -1    0    0    0    0  0.00000000000E+00  0.00000000000E+00  0.45593999997E+02  0.45594000000E+02  0.51100000000E-03 0.  1.
         11   -1    0    0    0    0 -0.00000000000E+00 -0.00000000000E+00 -0.45593999997E+02  0.45594000000E+02  0.51100000000E-03 0. -1.
    9900012    2    1    2    0    0 -0.54366663747E+00 -0.10307360434E+01  0.18831307898E+00  0.90007554313E+02  0.89999813230E+02 0.  0.
         12    1    1    2    0    0  0.54366663747E+00  0.10307360434E+01 -0.18831307898E+00  0.11804456868E+01  0.00000000000E+00 0. -1.
         11    1    3    3    0    0 -0.19545984196E+02  0.32312676994E+02 -0.43995956520E+01  0.38019876839E+02  0.51100000000E-03 0. -1.
        -11    1    3    3    0    0 -0.48349260396E+01  0.26703556961E+00  0.93286687744E+01  0.10510560364E+02  0.51100000000E-03 0.  1.
        -12    1    3    3    0    0  0.23837243598E+02 -0.33610448607E+02 -0.47407600434E+01  0.41477117110E+02  0.00000000000E+00 0.  1.
</event>
<event>
 7    1  0.1935465E-015  0.9000773E+02  0.7816164E-02  0.1186339E+00
        -11   -1    0    0    0    0  0.00000000000E+00  0.00000000000E+00  0.45593999997E+02  0.45594000000E+02  0.51100000000E-03 0. -1.
         11   -1    0    0    0    0 -0.00000000000E+00 -0.00000000000E+00 -0.45593999997E+02  0.45594000000E+02  0.51100000000E-03 0.  1.
    9900012    2    1    2    0    0  0.79973027654E+00  0.41139114436E+00 -0.76434606170E+00  0.90007730501E+02  0.89999991743E+02 0.  0.
         12    1    1    2    0    0 -0.79973027654E+00 -0.41139114436E+00  0.76434606170E+00  0.11802694993E+01  0.00000000000E+00 0. -1.
         11    1    3    3    0    0 -0.19313857175E+02  0.22411926175E+02  0.28418208496E+02  0.41023335899E+02  0.51100000000E-03 0. -1.
        -11    1    3    3    0    0  0.11601315186E+01  0.54382280641E+01 -0.69662745432E+01  0.89134286831E+01  0.51100000000E-03 0.  1.
        -12    1    3    3    0    0  0.18953455933E+02 -0.27438763095E+02 -0.22216280015E+02  0.40070965919E+02  0.00000000000E+00 0.  1.
</event>
<event>
 7    1  0.1935465E-015  0.9000761E+02  0.7816164E-02  0.1186339E+00
        -11   -1    0    0    0    0  0.00000000000E+00  0.00000000000E+00  0.45593999997E+02  0.45594000000E+02  0.51100000000E-03 0.  1.
         11   -1    0    0    0    0 -0.00000000000E+00 -0.00000000000E+00 -0.45593999997E+02  0.45594000000E+02  0.51100000000E-03 0. -1.
    9900012    2    1    2    0    0 -0.80532908045E+00 -0.86287443746E+00 -0.14242208830E-01  0.90007614443E+02  0.89999874154E+02 0.  0.
         12    1    1    2    0    0  0.80532908045E+00  0.86287443746E+00  0.14242208830E-01  0.11803855570E+01  0.00000000000E+00 0. -1.
         11    1    3    3    0    0  0.26003173795E+02 -0.18564227353E+02  0.20866125938E+02  0.38160068089E+02  0.51100000000E-03 0. -1.
        -11    1    3    3    0    0  0.74999636325E+01 -0.12476457903E+01 -0.68036935369E+01  0.10202760436E+02  0.51100000000E-03 0.  1.
        -12    1    3    3    0    0 -0.34308466508E+02  0.18948998706E+02 -0.14076674610E+02  0.41644785918E+02  0.00000000000E+00 0.  1.
</event>
<event>
 7    1  0.1935465E-015  0.9000779E+02  0.7816164E-02  0.1186339E+00
        -11   -1    0    0    0    0  0.00000000000E+00  0.00000000000E+00  0.45593999997E+02  0.45594000000E+02  0.51100000000E-03 0.  1.
         11   -1    0    0    0    0 -0.00000000000E+00 -0.00000000000E+00 -0.45593999997E+02  0.45594000000E+02  0.51100000000E-03 0. -1.
    9900012    2    1    2    0    0  0.42677317142E+00  0.11000741189E-01  0.11002880246E+01  0.90007792352E+02  0.90000054411E+02 0.  0.
         12    1    1    2    0    0 -0.42677317142E+00 -0.11000741189E-01 -0.11002880246E+01  0.11802076484E+01  0.00000000000E+00 0. -1.
         11    1    3    3    0    0 -0.46431899681E+01  0.54305152398E+01 -0.40836302484E+01  0.82295653054E+01  0.51100000000E-03 0. -1.
        -11    1    3    3    0    0 -0.33019305884E+02  0.12455224664E+02  0.15363286011E+02  0.38489449720E+02  0.51100000000E-03 0.  1.
         12    1    3    3    0    0  0.38089269023E+02 -0.17874739163E+02 -0.10179367738E+02  0.43288777326E+02  0.00000000000E+00 0. -1.
</event>
<event>
 7    1  0.1935465E-015  0.9000780E+02  0.7816164E-02  0.1186339E+00
        -11   -1    0    0    0    0  0.00000000000E+00  0.00000000000E+00  0.45593999997E+02  0.45594000000E+02  0.51100000000E-03 0. -1.
         11   -1    0    0    0    0 -0.00000000000E+00 -0.00000000000E+00 -0.45593999997E+02  0.45594000000E+02  0.51100000000E-03 0.  1.
    9900012    2    1    2    0    0  0.29058439004E+00  0.75440035317E+00 -0.85983077588E+00  0.90007801651E+02  0.90000063832E+02 0.  0.
         12    1    1    2    0    0 -0.29058439004E+00 -0.75440035317E+00  0.85983077588E+00  0.11801983493E+01  0.00000000000E+00 0. -1.
         11    1    3    3    0    0  0.34303530111E+01 -0.33031191986E+02  0.23815984822E+02  0.40865977281E+02  0.51100000000E-03 0. -1.
        -11    1    3    3    0    0 -0.91482896228E+01  0.10476267352E+01 -0.50550474274E+01  0.10504390965E+02  0.51100000000E-03 0.  1.
        -12    1    3    3    0    0  0.60085210018E+01  0.32737965604E+02 -0.19620768171E+02  0.38637433405E+02  0.00000000000E+00 0.  1.
</event>
<event>
 7    1  0.1935465E-015  0.9000773E+02  0.7816164E-02  0.1186339E+00
        -11   -1    0    0    0    0  0.00000000000E+00  0.00000000000E+00  0.45593999997E+02  0.45594000000E+02  0.51100000000E-03 0.  1.
         11   -1    0    0    0    0 -0.00000000000E+00 -0.00000000000E+00 -0.45593999997E+02  0.45594000000E+02  0.51100000000E-03 0. -1.
    9900012    2    1    2    0    0 -0.71799491724E+00 -0.11460046814E+00  0.92972215023E+00  0.90007731706E+02  0.89999992965E+02 0.  0.
         12    1    1    2    0    0  0.71799491724E+00  0.11460046814E+00 -0.92972215023E+00  0.11802682937E+01  0.00000000000E+00 0. -1.
         11    1    3    3    0    0  0.59836496921E+01 -0.46260410155E+01 -0.57824031098E+01  0.95205307152E+01  0.51100000000E-03 0. -1.
        -11    1    3    3    0    0  0.23854275878E+02  0.28403919153E+02  0.16325326298E+02  0.40525613874E+02  0.51100000000E-03 0.  1.
         12    1    3    3    0    0 -0.30555920487E+02 -0.23892478605E+02 -0.96132010375E+01  0.39961587117E+02  0.00000000000E+00 0. -1.
</event>
<event>
 7    1  0.1935465E-015  0.9000781E+02  0.7816164E-02  0.1186339E+00
        -11   -1    0    0    0    0  0.00000000000E+00  0.00000000000E+00  0.45593999997E+02  0.45594000000E+02  0.51100000000E-03 0.  1.
         11   -1    0    0    0    0 -0.00000000000E+00 -0.00000000000E+00 -0.45593999997E+02  0.45594000000E+02  0.51100000000E-03 0. -1.
    9900012    2    1    2    0    0  0.12368573597E+00 -0.11437347236E+01  0.26346642532E+00  0.90007812796E+02  0.90000075125E+02 0.  0.
         12    1    1    2    0    0 -0.12368573597E+00  0.11437347236E+01 -0.26346642532E+00  0.11801872040E+01  0.00000000000E+00 0. -1.
         11    1    3    3    0    0  0.71958539055E+01 -0.40648220560E+01 -0.54049104303E+01  0.98750265213E+01  0.51100000000E-03 0. -1.
        -11    1    3    3    0    0 -0.20121356086E+01 -0.34811134320E+02  0.19106328552E+02  0.39760728783E+02  0.51100000000E-03 0.  1.
         12    1    3    3    0    0 -0.50600325608E+01  0.37732221652E+02 -0.13437951697E+02  0.40372057492E+02  0.00000000000E+00 0. -1.
</event>
<event>
 7    1  0.1935465E-015  0.9000780E+02  0.7816164E-02  0.1186339E+00
        -11   -1    0    0    0    0  0.00000000000E+00  0.00000000000E+00  0.45593999997E+02  0.45594000000E+02  0.51100000000E-03 0. -1.
         11   -1    0    0    0    0 -0.00000000000E+00 -0.00000000000E+00 -0.45593999997E+02  0.45594000000E+02  0.51100000000E-03 0.  1.
    9900012    2    1    2    0    0 -0.11665839881E+01  0.13168545882E+00 -0.12086935114E+00  0.90007801431E+02  0.90000063610E+02 0.  0.
         12    1    1    2    0    0  0.11665839881E+01 -0.13168545882E+00  0.12086935114E+00  0.11801985687E+01  0.00000000000E+00 0. -1.
         11    1    3    3    0    0 -0.18862323752E+02  0.61405996609E+01  0.32730597733E+02  0.38272526043E+02  0.51100000000E-03 0. -1.
        -11    1    3    3    0    0  0.16327507424E+01  0.15852956744E+01  0.73971649311E+01  0.77393208127E+01  0.51100000000E-03 0.  1.
        -12    1    3    3    0    0  0.16062989022E+02 -0.75942098766E+01 -0.40248632015E+02  0.43995954576E+02  0.00000000000E+00 0.  1.
</event>
<event>
 7    1  0.1935465E-015  0.9000769E+02  0.7816164E-02  0.1186339E+00
        -11   -1    0    0    0    0  0.00000000000E+00  0.00000000000E+00  0.45593999997E+02  0.45594000000E+02  0.51100000000E-03 0. -1.
         11   -1    0    0    0    0 -0.00000000000E+00 -0.00000000000E+00 -0.45593999997E+02  0.45594000000E+02  0.51100000000E-03 0.  1.
    9900012    2    1    2    0    0  0.64021185329E+00 -0.76243929992E+00  0.63398480665E+00  0.90007694261E+02  0.89999955025E+02 0.  0.
         12    1    1    2    0    0 -0.64021185329E+00  0.76243929992E+00 -0.63398480665E+00  0.11803057393E+01  0.00000000000E+00 0. -1.
         11    1    3    3    0    0  0.29742039192E+02 -0.26914895329E+02 -0.97067144454E+01  0.41270095607E+02  0.51100000000E-03 0. -1.
        -11    1    3    3    0    0  0.14629095548E+01  0.97645717050E+00 -0.57363663532E+01  0.59999560141E+01  0.51100000000E-03 0.  1.
        -12    1    3    3    0    0 -0.30564736893E+02  0.25175998859E+02  0.16077065605E+02  0.42737642639E+02  0.00000000000E+00 0.  1.
</event>
<event>
 7    1  0.1935465E-015  0.9000775E+02  0.7816164E-02  0.1186339E+00
        -11   -1    0    0    0    0  0.00000000000E+00  0.00000000000E+00  0.45593999997E+02  0.45594000000E+02  0.51100000000E-03 0. -1.
         11   -1    0    0    0    0 -0.00000000000E+00 -0.00000000000E+00 -0.45593999997E+02  0.45594000000E+02  0.51100000000E-03 0.  1.
    9900012    2    1    2    0    0  0.62302792219E+00  0.31143414792E-01 -0.10019294941E+01  0.90007747309E+02  0.90000008773E+02 0.  0.
         12    1    1    2    0    0 -0.62302792219E+00 -0.31143414792E-01  0.10019294941E+01  0.11802526913E+01  0.00000000000E+00 0. -1.
         11    1    3    3    0    0  0.10625852499E+01  0.60705174031E+01 -0.60845121021E+01  0.86603439156E+01  0.51100000000E-03 0. -1.
        -11    1    3    3    0    0  0.26886402265E+02  0.15062617852E+02 -0.21666534787E+02  0.37672268491E+02  0.51100000000E-03 0.  1.
         12    1    3    3    0    0 -0.27325959593E+02 -0.21101991841E+02  0.26749117395E+02  0.43675134902E+02  0.00000000000E+00 0. -1.
</event>
<event>
 7    1  0.1935465E-015  0.9000780E+02  0.7816164E-02  0.1186339E+00
        -11   -1    0    0    0    0  0.00000000000E+00  0.00000000000E+00  0.45593999997E+02  0.45594000000E+02  0.51100000000E-03 0. -1.
         11   -1    0    0    0    0 -0.00000000000E+00 -0.00000000000E+00 -0.45593999997E+02  0.45594000000E+02  0.51100000000E-03 0.  1.
    9900012    2    1    2    0    0  0.68583117564E+00 -0.95969768164E+00  0.38457728922E-01  0.90007803814E+02  0.90000066024E+02 0.  0.
         12    1    1    2    0    0 -0.68583117564E+00  0.95969768164E+00 -0.38457728922E-01  0.11801961865E+01  0.00000000000E+00 0. -1.
         11    1    3    3    0    0 -0.26033203839E+02 -0.13006343971E+01  0.18973127448E+02  0.32239710256E+02  0.51100000000E-03 0. -1.
        -11    1    3    3    0    0 -0.11197754531E+02  0.99297516881E+01 -0.18188098895E+01  0.15076396944E+02  0.51100000000E-03 0.  1.
        -12    1    3    3    0    0  0.37916789546E+02 -0.95888149727E+01 -0.17115859829E+02  0.42691696614E+02  0.00000000000E+00 0.  1.
</event>
<event>
 7    1  0.1935465E-015  0.9000778E+02  0.7816164E-02  0.1186339E+00
        -11   -1    0    0    0    0  0.00000000000E+00  0.00000000000E+00  0.45593999997E+02  0.45594000000E+02  0.51100000000E-03 0.  1.
         11   -1    0    0    0    0 -0.00000000000E+00 -0.00000000000E+00 -0.45593999997E+02  0.45594000000E+02  0.51100000000E-03 0. -1.
    9900012    2    1    2    0    0  0.10979454833E+01 -0.10178789226E+00  0.42079948464E+00  0.90007780840E+02  0.90000042747E+02 0.  0.
         12    1    1    2    0    0 -0.10979454833E+01  0.10178789226E+00 -0.42079948464E+00  0.11802191600E+01  0.00000000000E+00 0. -1.
         11    1    3    3    0    0  0.75346963969E+01  0.34362303697E+02 -0.13044158773E+02  0.37519190337E+02  0.51100000000E-03 0. -1.
        -11    1    3    3    0    0  0.55813495158E+01  0.56953951417E+01  0.58339315468E+01  0.98804729538E+01  0.51100000000E-03 0.  1.
        -12    1    3    3    0    0 -0.12018100429E+02 -0.40159486731E+02  0.76310267112E+01  0.42608117549E+02  0.00000000000E+00 0.  1.
</event>
<event>
 7    1  0.1935465E-015  0.9000778E+02  0.7816164E-02  0.1186339E+00
        -11   -1    0    0    0    0  0.00000000000E+00  0.00000000000E+00  0.45593999997E+02  0.45594000000E+02  0.51100000000E-03 0. -1.
         11   -1    0    0    0    0 -0.00000000000E+00 -0.00000000000E+00 -0.45593999997E+02  0.45594000000E+02  0.51100000000E-03 0.  1.
    9900012    2    1    2    0    0 -0.59582278005E-01 -0.73404955670E-01 -0.11764258818E+01  0.90007781295E+02  0.90000043208E+02 0.  0.
         12    1    1    2    0    0  0.59582278005E-01  0.73404955670E-01  0.11764258818E+01  0.11802187046E+01  0.00000000000E+00 0. -1.
         11    1    3    3    0    0  0.10193978647E+01  0.35977263656E+02  0.28456448788E+01  0.36104021482E+02  0.51100000000E-03 0. -1.
        -11    1    3    3    0    0  0.56021460157E+00  0.75041591748E+01 -0.69182801677E+01  0.10221978579E+02  0.51100000000E-03 0.  1.
        -12    1    3    3    0    0 -0.16391947443E+01 -0.43554827786E+02  0.28962094072E+01  0.43681781235E+02  0.00000000000E+00 0.  1.
</event>
<event>
 7    1  0.2486424E-015  0.9000780E+02  0.7816164E-02  0.1186339E+00
        -11   -1    0    0    0    0  0.00000000000E+00  0.00000000000E+00  0.45593999997E+02  0.45594000000E+02  0.51100000000E-03 0.  1.
         11   -1    0    0    0    0 -0.00000000000E+00 -0.00000000000E+00 -0.45593999997E+02  0.45594000000E+02  0.51100000000E-03 0. -1.
    9900012    2    1    2    0    0 -0.25689810466E+00 -0.10987735399E+01  0.34579279701E+00  0.90007799768E+02  0.90000061925E+02 0.  0.
         12    1    1    2    0    0  0.25689810466E+00  0.10987735399E+01 -0.34579279701E+00  0.11802002316E+01  0.00000000000E+00 0. -1.
         11    1    3    3    0    0 -0.69370224212E-01 -0.48163393117E+01  0.84300832198E+01  0.97091832792E+01  0.51100000000E-03 0. -1.
        -11    1    3    3    0    0  0.85956720510E+01  0.16007609357E+02  0.32367397586E+02  0.37118426180E+02  0.51100000000E-03 0.  1.
         12    1    3    3    0    0 -0.87831999314E+01 -0.12290043585E+02 -0.40451688009E+02  0.43180190309E+02  0.00000000000E+00 0. -1.
</event>
<event>
 7    1  0.1935465E-015  0.9000767E+02  0.7816164E-02  0.1186339E+00
        -11   -1    0    0    0    0  0.00000000000E+00  0.00000000000E+00  0.45593999997E+02  0.45594000000E+02  0.51100000000E-03 0. -1.
         11   -1    0    0    0    0 -0.00000000000E+00 -0.00000000000E+00 -0.45593999997E+02  0.45594000000E+02  0.51100000000E-03 0.  1.
    9900012    2    1    2    0    0 -0.93780427767E+00 -0.61682669853E+00 -0.36501631480E+00  0.90007665747E+02  0.89999926135E+02 0.  0.
         12    1    1    2    0    0  0.93780427767E+00  0.61682669853E+00  0.36501631480E+00  0.11803342532E+01  0.00000000000E+00 0. -1.
         11    1    3    3    0    0 -0.26713860801E+02  0.25537148210E+02  0.77785760317E+01  0.37766156052E+02  0.51100000000E-03 0. -1.
        -11    1    3    3    0    0 -0.37616177295E+01  0.58168441346E+01 -0.51116094841E+01  0.86089485658E+01  0.51100000000E-03 0.  1.
        -12    1    3    3    0    0  0.29537674253E+02 -0.31970819043E+02 -0.30319828624E+01  0.43632561129E+02  0.00000000000E+00 0.  1.
</event>
<event>
 7    1  0.1935465E-015  0.9000736E+02  0.7816164E-02  0.1186340E+00
        -11   -1    0    0    0    0  0.00000000000E+00  0.00000000000E+00  0.45593999997E+02  0.45594000000E+02  0.51100000000E-03 0. -1.
         11   -1    0    0    0    0 -0.00000000000E+00 -0.00000000000E+00 -0.45593999997E+02  0.45594000000E+02  0.51100000000E-03 0.  1.
    9900012    2    1    2    0    0 -0.52329742478E+00 -0.10540928496E+01 -0.94594350710E-01  0.90007364569E+02  0.89999620980E+02 0.  0.
         12    1    1    2    0    0  0.52329742478E+00  0.10540928496E+01  0.94594350710E-01  0.11806354313E+01  0.00000000000E+00 0. -1.
         11    1    3    3    0    0  0.50626865270E+01  0.87028863777E+01  0.54437368886E+01  0.11445754573E+02  0.51100000000E-03 0. -1.
        -11    1    3    3    0    0 -0.21683284529E+02  0.28921445002E+02 -0.61287766737E+01  0.36663015598E+02  0.51100000000E-03 0.  1.
         12    1    3    3    0    0  0.16097300577E+02 -0.38678424229E+02  0.59044543431E+00  0.41898594398E+02  0.00000000000E+00 0. -1.
</event>
<event>
 7    1  0.1935465E-015  0.9000769E+02  0.7816164E-02  0.1186339E+00
        -11   -1    0    0    0    0  0.00000000000E+00  0.00000000000E+00  0.45593999997E+02  0.45594000000E+02  0.51100000000E-03 0.  1.
         11   -1    0    0    0    0 -0.00000000000E+00 -0.00000000000E+00 -0.45593999997E+02  0.45594000000E+02  0.51100000000E-03 0. -1.
    9900012    2    1    2    0    0  0.11585194212E+01  0.12039832706E+00  0.19093830356E+00  0.90007694767E+02  0.89999955538E+02 0.  0.
         12    1    1    2    0    0 -0.11585194212E+01 -0.12039832706E+00 -0.19093830356E+00  0.11803052326E+01  0.00000000000E+00 0. -1.
         11    1    3    3    0    0 -0.35478687557E+01 -0.82900460642E+01  0.62777297223E+01  0.10987362158E+02  0.51100000000E-03 0. -1.
        -11    1    3    3    0    0  0.38242269544E+02  0.15779623931E+02  0.75905679303E+01  0.42060485411E+02  0.51100000000E-03 0.  1.
         12    1    3    3    0    0 -0.33535881367E+02 -0.73691795394E+01 -0.13677359349E+02  0.36959847198E+02  0.00000000000E+00 0. -1.
</event>
<event>
 7    1  0.2274563E-015  0.9000759E+02  0.7816164E-02  0.1186339E+00
        -11   -1    0    0    0    0  0.00000000000E+00  0.00000000000E+00  0.45593999997E+02  0.45594000000E+02  0.51100000000E-03 0. -1.
         11   -1    0    0    0    0 -0.00000000000E+00 -0.00000000000E+00 -0.45593999997E+02  0.45594000000E+02  0.51100000000E-03 0.  1.
    9900012    2    1    2    0    0 -0.23628288762E+00 -0.12169982267E+00 -0.11500997191E+01  0.90007589134E+02  0.89999848510E+02 0.  0.
         12    1    1    2    0    0  0.23628288762E+00  0.12169982267E+00  0.11500997191E+01  0.11804108664E+01  0.00000000000E+00 0. -1.
         11    1    3    3    0    0 -0.56495349379E+01  0.16784517440E+01  0.82101235468E+01  0.10106462001E+02  0.51100000000E-03 0. -1.
        -11    1    3    3    0    0 -0.15152654253E+02  0.17463280682E+02 -0.34904545819E+02  0.41867605881E+02  0.51100000000E-03 0.  1.
         12    1    3    3    0    0  0.20565906304E+02 -0.19263432248E+02  0.25544322553E+02  0.38033521251E+02  0.00000000000E+00 0. -1.
</event>
<event>
 7    1  0.1935465E-015  0.9000758E+02  0.7816164E-02  0.1186339E+00
        -11   -1    0    0    0    0  0.00000000000E+00  0.00000000000E+00  0.45593999997E+02  0.45594000000E+02  0.51100000000E-03 0. -1.
         11   -1    0    0    0    0 -0.00000000000E+00 -0.00000000000E+00 -0.45593999997E+02  0.45594000000E+02  0.51100000000E-03 0.  1.
    9900012    2    1    2    0    0  0.16582471629E+00  0.10651841201E+01 -0.48090216199E+00  0.90007583999E+02  0.89999843308E+02 0.  0.
         12    1    1    2    0    0 -0.16582471629E+00 -0.10651841201E+01  0.48090216199E+00  0.11804160011E+01  0.00000000000E+00 0. -1.
         11    1    3    3    0    0 -0.75799595337E+01  0.23066012056E+02  0.26797518853E+02  0.36160803581E+02  0.51100000000E-03 0. -1.
        -11    1    3    3    0    0  0.15716880198E+02  0.27457775413E+01  0.28366893356E+00  0.15957446092E+02  0.51100000000E-03 0.  1.
        -12    1    3    3    0    0 -0.79710959481E+01 -0.24746605477E+02 -0.27562089948E+02  0.37889334325E+02  0.00000000000E+00 0.  1.
</event>
<event>
 7    1  0.1935465E-015  0.9000774E+02  0.7816164E-02  0.1186339E+00
        -11   -1    0    0    0    0  0.00000000000E+00  0.00000000000E+00  0.45593999997E+02  0.45594000000E+02  0.51100000000E-03 0. -1.
         11   -1    0    0    0    0 -0.00000000000E+00 -0.00000000000E+00 -0.45593999997E+02  0.45594000000E+02  0.51100000000E-03 0.  1.
    9900012    2    1    2    0    0 -0.69428229447E+00  0.76695932927E+00 -0.56811797830E+00  0.90007740472E+02  0.90000001846E+02 0.  0.
         12    1    1    2    0    0  0.69428229447E+00 -0.76695932927E+00  0.56811797830E+00  0.11802595284E+01  0.00000000000E+00 0. -1.
         11    1    3    3    0    0  0.25231238949E+01 -0.63357628283E+01 -0.43529115587E+01  0.80904810799E+01  0.51100000000E-03 0. -1.
        -11    1    3    3    0    0  0.31364218674E+02  0.22579088250E+02  0.16404850572E+02  0.41983908367E+02  0.51100000000E-03 0.  1.
         12    1    3    3    0    0 -0.34581624863E+02 -0.15476366092E+02 -0.12620056992E+02  0.39933351025E+02  0.00000000000E+00 0. -1.
</event>
<event>
 7    1  0.1935465E-015  0.9000785E+02  0.7816164E-02  0.1186339E+00
        -11   -1    0    0    0    0  0.00000000000E+00  0.00000000000E+00  0.45593999997E+02  0.45594000000E+02  0.51100000000E-03 0. -1.
         11   -1    0    0    0    0 -0.00000000000E+00 -0.00000000000E+00 -0.45593999997E+02  0.45594000000E+02  0.51100000000E-03 0.  1.
    9900012    2    1    2    0    0 -0.47697179687E+00 -0.55949383651E+00  0.92315843899E+00  0.90007848759E+02  0.90000111563E+02 0.  0.
         12    1    1    2    0    0  0.47697179687E+00  0.55949383651E+00 -0.92315843899E+00  0.11801512410E+01  0.00000000000E+00 0. -1.
         11    1    3    3    0    0  0.17992554002E+02 -0.24944163601E+02  0.18255044121E+02  0.35765764823E+02  0.51100000000E-03 0. -1.
        -11    1    3    3    0    0  0.55644063826E-01 -0.10812760165E+02  0.10397715080E+00  0.10813403264E+02  0.51100000000E-03 0.  1.
        -12    1    3    3    0    0 -0.18525169863E+02  0.35197429930E+02 -0.17435862833E+02  0.43428680671E+02  0.00000000000E+00 0.  1.
</event>
<event>
 7    1  0.1935465E-015  0.9000777E+02  0.7816164E-02  0.1186339E+00
        -11   -1    0    0    0    0  0.00000000000E+00  0.00000000000E+00  0.45593999997E+02  0.45594000000E+02  0.51100000000E-03 0.  1.
         11   -1    0    0    0    0 -0.00000000000E+00 -0.00000000000E+00 -0.45593999997E+02  0.45594000000E+02  0.51100000000E-03 0. -1.
    9900012    2    1    2    0    0  0.66250984738E+00  0.26893978342E+00  0.93899144028E+00  0.90007765773E+02  0.90000027481E+02 0.  0.
         12    1    1    2    0    0 -0.66250984738E+00 -0.26893978342E+00 -0.93899144028E+00  0.11802342267E+01  0.00000000000E+00 0. -1.
         11    1    3    3    0    0 -0.23137209152E+01  0.12912775030E+01 -0.69400053825E+01  0.74286187837E+01  0.51100000000E-03 0. -1.
        -11    1    3    3    0    0 -0.18420843794E+02 -0.34502446583E+02 -0.77676979679E+01  0.39875850314E+02  0.51100000000E-03 0.  1.
         12    1    3    3    0    0  0.21397074556E+02  0.33480108864E+02  0.15646694791E+02  0.42703296675E+02  0.00000000000E+00 0. -1.
</event>
<event>
 7    1  0.1935465E-015  0.9000774E+02  0.7816164E-02  0.1186339E+00
        -11   -1    0    0    0    0  0.00000000000E+00  0.00000000000E+00  0.45593999997E+02  0.45594000000E+02  0.51100000000E-03 0. -1.
         11   -1    0    0    0    0 -0.00000000000E+00 -0.00000000000E+00 -0.45593999997E+02  0.45594000000E+02  0.51100000000E-03 0.  1.
    9900012    2    1    2    0    0  0.77249689704E+00  0.78946689868E+00 -0.41593731989E+00  0.90007740158E+02  0.90000001528E+02 0.  0.
         12    1    1    2    0    0 -0.77249689704E+00 -0.78946689868E+00  0.41593731989E+00  0.11802598418E+01  0.00000000000E+00 0. -1.
         11    1    3    3    0    0 -0.50273355332E+01 -0.28879618449E+01 -0.64718253804E+01  0.86890131889E+01  0.51100000000E-03 0. -1.
        -11    1    3    3    0    0  0.42075928531E+02  0.13457692317E+01 -0.70374208033E+01  0.42681613705E+02  0.51100000000E-03 0.  1.
         12    1    3    3    0    0 -0.36276096101E+02  0.23316595119E+01  0.13093308864E+02  0.38637113265E+02  0.00000000000E+00 0. -1.
</event>
<event>
 7    1  0.2488070E-015  0.9000777E+02  0.7816164E-02  0.1186339E+00
        -11   -1    0    0    0    0  0.00000000000E+00  0.00000000000E+00  0.45593999997E+02  0.45594000000E+02  0.51100000000E-03 0. -1.
         11   -1    0    0    0    0 -0.00000000000E+00 -0.00000000000E+00 -0.45593999997E+02  0.45594000000E+02  0.51100000000E-03 0.  1.
    9900012    2    1    2    0    0 -0.33749179208E+00 -0.10639556660E+01 -0.38347019616E+00  0.90007766226E+02  0.90000027941E+02 0.  0.
         12    1    1    2    0    0  0.33749179208E+00  0.10639556660E+01  0.38347019616E+00  0.11802337736E+01  0.00000000000E+00 0. -1.
         11    1    3    3    0    0  0.66131333407E+00  0.53447451899E-01  0.94195820861E+01  0.94429189817E+01  0.51100000000E-03 0. -1.
        -11    1    3    3    0    0 -0.22352289545E+02  0.26144560846E+02 -0.25226601082E+02  0.42656116937E+02  0.51100000000E-03 0.  1.
         12    1    3    3    0    0  0.21353484419E+02 -0.27261963964E+02  0.15423548799E+02  0.37908730308E+02  0.00000000000E+00 0. -1.
</event>
<event>
 7    1  0.1935465E-015  0.9000773E+02  0.7816164E-02  0.1186339E+00
        -11   -1    0    0    0    0  0.00000000000E+00  0.00000000000E+00  0.45593999997E+02  0.45594000000E+02  0.51100000000E-03 0. -1.
         11   -1    0    0    0    0 -0.00000000000E+00 -0.00000000000E+00 -0.45593999997E+02  0.45594000000E+02  0.51100000000E-03 0.  1.
    9900012    2    1    2    0    0 -0.39941775697E+00  0.53651192426E+00 -0.97244769732E+00  0.90007731338E+02  0.89999992592E+02 0.  0.
         12    1    1    2    0    0  0.39941775697E+00 -0.53651192426E+00  0.97244769732E+00  0.11802686616E+01  0.00000000000E+00 0. -1.
         11    1    3    3    0    0 -0.10284714045E-01  0.78425285919E+00  0.10655235175E+02  0.10684062674E+02  0.51100000000E-03 0. -1.
        -11    1    3    3    0    0 -0.25461732197E+02 -0.27923358780E+02  0.55923436659E+01  0.38200629314E+02  0.51100000000E-03 0.  1.
         12    1    3    3    0    0  0.25072599154E+02  0.27675617845E+02 -0.17220026538E+02  0.41123039351E+02  0.00000000000E+00 0. -1.
</event>
<event>
 7    1  0.1935465E-015  0.9000778E+02  0.7816164E-02  0.1186339E+00
        -11   -1    0    0    0    0  0.00000000000E+00  0.00000000000E+00  0.45593999997E+02  0.45594000000E+02  0.51100000000E-03 0. -1.
         11   -1    0    0    0    0 -0.00000000000E+00 -0.00000000000E+00 -0.45593999997E+02  0.45594000000E+02  0.51100000000E-03 0.  1.
    9900012    2    1    2    0    0 -0.72871102056E+00 -0.80297858624E+00 -0.46596960477E+00  0.90007778820E+02  0.90000040700E+02 0.  0.
         12    1    1    2    0    0  0.72871102056E+00  0.80297858624E+00  0.46596960477E+00  0.11802211801E+01  0.00000000000E+00 0. -1.
         11    1    3    3    0    0 -0.94964368620E+01  0.42190184033E+01 -0.77579296728E+01  0.12967956756E+02  0.51100000000E-03 0. -1.
        -11    1    3    3    0    0 -0.21311876119E+02 -0.28019564349E+02  0.15223394896E+02  0.38354188852E+02  0.51100000000E-03 0.  1.
         12    1    3    3    0    0  0.30079601961E+02  0.22997567360E+02 -0.79314348278E+01  0.38685633212E+02  0.00000000000E+00 0. -1.
</event>
<event>
 7    1  0.1935465E-015  0.9000771E+02  0.7816164E-02  0.1186339E+00
        -11   -1    0    0    0    0  0.00000000000E+00  0.00000000000E+00  0.45593999997E+02  0.45594000000E+02  0.51100000000E-03 0. -1.
         11   -1    0    0    0    0 -0.00000000000E+00 -0.00000000000E+00 -0.45593999997E+02  0.45594000000E+02  0.51100000000E-03 0.  1.
    9900012    2    1    2    0    0  0.11408083937E+01  0.24512915629E+00 -0.17761586617E+00  0.90007712115E+02  0.89999973115E+02 0.  0.
         12    1    1    2    0    0 -0.11408083937E+01 -0.24512915629E+00  0.17761586617E+00  0.11802878845E+01  0.00000000000E+00 0. -1.
         11    1    3    3    0    0  0.70334949249E+01  0.51371747410E+01 -0.33468427727E+01  0.93307005088E+01  0.51100000000E-03 0. -1.
        -11    1    3    3    0    0 -0.18714754147E+01 -0.41346641232E+02 -0.83740709954E+01  0.42227623977E+02  0.51100000000E-03 0.  1.
         12    1    3    3    0    0 -0.40212111165E+01  0.36454595648E+02  0.11543297902E+02  0.38449387630E+02  0.00000000000E+00 0. -1.
</event>
<event>
 7    1  0.1935465E-015  0.9000750E+02  0.7816164E-02  0.1186340E+00
        -11   -1    0    0    0    0  0.00000000000E+00  0.00000000000E+00  0.45593999997E+02  0.45594000000E+02  0.51100000000E-03 0. -1.
         11   -1    0    0    0    0 -0.00000000000E+00 -0.00000000000E+00 -0.45593999997E+02  0.45594000000E+02  0.51100000000E-03 0.  1.
    9900012    2    1    2    0    0  0.83772650454E+00 -0.71137172435E+00 -0.43096824549E+00  0.90007504742E+02  0.89999763004E+02 0.  0.
         12    1    1    2    0    0 -0.83772650454E+00  0.71137172435E+00  0.43096824549E+00  0.11804952585E+01  0.00000000000E+00 0. -1.
         11    1    3    3    0    0  0.10303501309E+01  0.62524343863E+01  0.65302722461E+01  0.90993962996E+01  0.51100000000E-03 0. -1.
        -11    1    3    3    0    0 -0.12452512072E+02  0.34507638026E+02 -0.84133246157E+01  0.37638094670E+02  0.51100000000E-03 0.  1.
         12    1    3    3    0    0  0.12259888446E+02 -0.41471444137E+02  0.14520841241E+01  0.43270013772E+02  0.00000000000E+00 0. -1.
</event>
<event>
 7    1  0.1935465E-015  0.9000771E+02  0.7816164E-02  0.1186339E+00
        -11   -1    0    0    0    0  0.00000000000E+00  0.00000000000E+00  0.45593999997E+02  0.45594000000E+02  0.51100000000E-03 0. -1.
         11   -1    0    0    0    0 -0.00000000000E+00 -0.00000000000E+00 -0.45593999997E+02  0.45594000000E+02  0.51100000000E-03 0.  1.
    9900012    2    1    2    0    0 -0.45662970203E+00 -0.92254294221E+00 -0.57748531498E+00  0.90007709589E+02  0.89999970556E+02 0.  0.
         12    1    1    2    0    0  0.45662970203E+00  0.92254294221E+00  0.57748531498E+00  0.11802904109E+01  0.00000000000E+00 0. -1.
         11    1    3    3    0    0 -0.42960389339E+01 -0.41040085966E+01 -0.56295794922E+01  0.81848031499E+01  0.51100000000E-03 0. -1.
        -11    1    3    3    0    0 -0.95492188065E+01 -0.37502081469E+02  0.47733231931E+01  0.38992028786E+02  0.51100000000E-03 0.  1.
         12    1    3    3    0    0  0.13388628038E+02  0.40683547123E+02  0.27877098412E+00  0.42830877653E+02  0.00000000000E+00 0. -1.
</event>
<event>
 7    1  0.1935465E-015  0.9000778E+02  0.7816164E-02  0.1186339E+00
        -11   -1    0    0    0    0  0.00000000000E+00  0.00000000000E+00  0.45593999997E+02  0.45594000000E+02  0.51100000000E-03 0. -1.
         11   -1    0    0    0    0 -0.00000000000E+00 -0.00000000000E+00 -0.45593999997E+02  0.45594000000E+02  0.51100000000E-03 0.  1.
    9900012    2    1    2    0    0  0.27532710495E+00 -0.45383953572E+00 -0.10541111554E+01  0.90007777281E+02  0.90000039141E+02 0.  0.
         12    1    1    2    0    0 -0.27532710495E+00  0.45383953572E+00  0.10541111554E+01  0.11802227192E+01  0.00000000000E+00 0. -1.
         11    1    3    3    0    0  0.68685665190E+01  0.31716266830E+01  0.37544473192E+02  0.38299136928E+02  0.51100000000E-03 0. -1.
        -11    1    3    3    0    0 -0.87474714533E+01 -0.14463761260E+01  0.34755209891E+01  0.95231038601E+01  0.51100000000E-03 0.  1.
        -12    1    3    3    0    0  0.21542320393E+01 -0.21790900928E+01 -0.42074105337E+02  0.42185536493E+02  0.00000000000E+00 0.  1.
</event>
<event>
 7    1  0.1935465E-015  0.9000771E+02  0.7816164E-02  0.1186339E+00
        -11   -1    0    0    0    0  0.00000000000E+00  0.00000000000E+00  0.45593999997E+02  0.45594000000E+02  0.51100000000E-03 0.  1.
         11   -1    0    0    0    0 -0.00000000000E+00 -0.00000000000E+00 -0.45593999997E+02  0.45594000000E+02  0.51100000000E-03 0. -1.
    9900012    2    1    2    0    0 -0.90667102489E+00 -0.44717687529E+00  0.60914803453E+00  0.90007711547E+02  0.89999972539E+02 0.  0.
         12    1    1    2    0    0  0.90667102489E+00  0.44717687529E+00 -0.60914803453E+00  0.11802884534E+01  0.00000000000E+00 0. -1.
         11    1    3    3    0    0 -0.92591869945E+01  0.61753293061E+01  0.10855025949E+02  0.15546666024E+02  0.51100000000E-03 0. -1.
        -11    1    3    3    0    0 -0.18810345688E+02  0.56642694504E+01  0.22705903653E+02  0.30024508560E+02  0.51100000000E-03 0.  1.
         12    1    3    3    0    0  0.27162861657E+02 -0.12286775632E+02 -0.32951781567E+02  0.44436536963E+02  0.00000000000E+00 0. -1.
</event>
<event>
 7    1  0.1935465E-015  0.9000776E+02  0.7816164E-02  0.1186339E+00
        -11   -1    0    0    0    0  0.00000000000E+00  0.00000000000E+00  0.45593999997E+02  0.45594000000E+02  0.51100000000E-03 0. -1.
         11   -1    0    0    0    0 -0.00000000000E+00 -0.00000000000E+00 -0.45593999997E+02  0.45594000000E+02  0.51100000000E-03 0.  1.
    9900012    2    1    2    0    0 -0.82747661300E+00 -0.78047436457E+00 -0.31481370299E+00  0.90007760428E+02  0.90000022066E+02 0.  0.
         12    1    1    2    0    0  0.82747661300E+00  0.78047436457E+00  0.31481370299E+00  0.11802395716E+01  0.00000000000E+00 0. -1.
         11    1    3    3    0    0 -0.83364636495E+01  0.61656005541E+01 -0.70057519525E+00  0.10392404064E+02  0.51100000000E-03 0. -1.
        -11    1    3    3    0    0 -0.11346506023E+02  0.16223331255E+02 -0.30682802734E+02  0.36515394833E+02  0.51100000000E-03 0.  1.
         12    1    3    3    0    0  0.18855493059E+02 -0.23169406173E+02  0.31068564226E+02  0.43099961531E+02  0.00000000000E+00 0. -1.
</event>
<event>
 7    1  0.1935465E-015  0.9000792E+02  0.7816164E-02  0.1186339E+00
        -11   -1    0    0    0    0  0.00000000000E+00  0.00000000000E+00  0.45593999997E+02  0.45594000000E+02  0.51100000000E-03 0.  1.
         11   -1    0    0    0    0 -0.00000000000E+00 -0.00000000000E+00 -0.45593999997E+02  0.45594000000E+02  0.51100000000E-03 0. -1.
    9900012    2    1    2    0    0  0.35620931915E+00  0.11250195972E+01  0.47804817466E-02  0.90007924991E+02  0.90000188801E+02 0.  0.
         12    1    1    2    0    0 -0.35620931915E+00 -0.11250195972E+01 -0.47804817466E-02  0.11800750087E+01  0.00000000000E+00 0. -1.
         11    1    3    3    0    0  0.21654137677E+02  0.34845287119E+02  0.58159927195E+01  0.41435751284E+02  0.51100000000E-03 0. -1.
        -11    1    3    3    0    0  0.47760117636E+01 -0.32735861935E+01  0.43223345045E+01  0.72255955300E+01  0.51100000000E-03 0.  1.
        -12    1    3    3    0    0 -0.26073940122E+02 -0.30446681328E+02 -0.10133546742E+02  0.41346578177E+02  0.00000000000E+00 0.  1.
</event>
<event>
 7    1  0.1935465E-015  0.9000787E+02  0.7816164E-02  0.1186339E+00
        -11   -1    0    0    0    0  0.00000000000E+00  0.00000000000E+00  0.45593999997E+02  0.45594000000E+02  0.51100000000E-03 0.  1.
         11   -1    0    0    0    0 -0.00000000000E+00 -0.00000000000E+00 -0.45593999997E+02  0.45594000000E+02  0.51100000000E-03 0. -1.
    9900012    2    1    2    0    0 -0.78274791801E+00 -0.75167112481E+00  0.46368166134E+00  0.90007870996E+02  0.90000134093E+02 0.  0.
         12    1    1    2    0    0  0.78274791801E+00  0.75167112481E+00 -0.46368166134E+00  0.11801290040E+01  0.00000000000E+00 0. -1.
         11    1    3    3    0    0  0.68485129841E-01  0.31753601402E+02 -0.15231997135E+02  0.35218029888E+02  0.51100000000E-03 0. -1.
        -11    1    3    3    0    0 -0.66976341280E+00  0.98195271117E+01  0.62708620098E+00  0.98622985704E+01  0.51100000000E-03 0.  1.
        -12    1    3    3    0    0 -0.18146963505E+00 -0.42324799638E+02  0.15068592596E+02  0.44927542538E+02  0.00000000000E+00 0.  1.
</event>
<event>
 8    1  0.1935465E-015  0.9000772E+02  0.7816164E-02  0.1186339E+00
        -11   -1    0    0    0    0  0.00000000000E+00  0.00000000000E+00  0.45593999997E+02  0.45594000000E+02  0.51100000000E-03 0. -1.
         11   -1    0    0    0    0 -0.00000000000E+00 -0.00000000000E+00 -0.45593999997E+02  0.45594000000E+02  0.51100000000E-03 0.  1.
    9900012    2    1    2    0    0 -0.48691976609E+00  0.37728845405E+00 -0.10067864880E+01  0.90007721868E+02  0.89999982997E+02 0.  0.
         23    2    3    3    0    0  0.22608205781E+02  0.49152321809E+01 -0.14960694372E+02  0.62645534409E+02  0.56261444429E+02 0.  0.
         12    1    1    2    0    0  0.48691976609E+00 -0.37728845405E+00  0.10067864880E+01  0.11802781319E+01  0.00000000000E+00 0. -1.
         11    1    4    4    0    0  0.17231928091E+02 -0.20608206724E+02  0.78584657684E+01  0.27989158876E+02  0.51100000000E-03 0. -1.
        -11    1    4    4    0    0  0.53762776905E+01  0.25523438905E+02 -0.22819160140E+02  0.34656375533E+02  0.51100000000E-03 0.  1.
         12    1    3    3    0    0 -0.23095125547E+02 -0.45379437268E+01  0.13953907884E+02  0.27362187459E+02  0.00000000000E+00 0. -1.
</event>
<event>
 7    1  0.1935465E-015  0.9000770E+02  0.7816164E-02  0.1186339E+00
        -11   -1    0    0    0    0  0.00000000000E+00  0.00000000000E+00  0.45593999997E+02  0.45594000000E+02  0.51100000000E-03 0.  1.
         11   -1    0    0    0    0 -0.00000000000E+00 -0.00000000000E+00 -0.45593999997E+02  0.45594000000E+02  0.51100000000E-03 0. -1.
    9900012    2    1    2    0    0 -0.37140330904E+00  0.30443785239E+00  0.10781885424E+01  0.90007697769E+02  0.89999958579E+02 0.  0.
         12    1    1    2    0    0  0.37140330904E+00 -0.30443785239E+00 -0.10781885424E+01  0.11803022311E+01  0.00000000000E+00 0. -1.
         11    1    3    3    0    0  0.85117323184E+01 -0.94109156661E+01 -0.33945837636E+02  0.36239961559E+02  0.51100000000E-03 0. -1.
        -11    1    3    3    0    0  0.86005040031E+01  0.33635869322E+01 -0.43595516330E+01  0.10212153390E+02  0.51100000000E-03 0.  1.
        -12    1    3    3    0    0 -0.17483639631E+02  0.63517665863E+01  0.39383577812E+02  0.43555582820E+02  0.00000000000E+00 0.  1.
</event>
<event>
 7    1  0.1935465E-015  0.9000766E+02  0.7816164E-02  0.1186339E+00
        -11   -1    0    0    0    0  0.00000000000E+00  0.00000000000E+00  0.45593999997E+02  0.45594000000E+02  0.51100000000E-03 0.  1.
         11   -1    0    0    0    0 -0.00000000000E+00 -0.00000000000E+00 -0.45593999997E+02  0.45594000000E+02  0.51100000000E-03 0. -1.
    9900012    2    1    2    0    0 -0.70232055444E+00 -0.93863195481E+00  0.13758257886E+00  0.90007655527E+02  0.89999915780E+02 0.  0.
         12    1    1    2    0    0  0.70232055444E+00  0.93863195481E+00 -0.13758257886E+00  0.11803444725E+01  0.00000000000E+00 0. -1.
         11    1    3    3    0    0  0.29960572160E+02  0.14836414754E+02 -0.85034355526E+01  0.34497297044E+02  0.51100000000E-03 0. -1.
        -11    1    3    3    0    0  0.10183471691E+02 -0.75754117246E+00 -0.26501931107E+01  0.10549904649E+02  0.51100000000E-03 0.  1.
        -12    1    3    3    0    0 -0.40846364405E+02 -0.15017505537E+02  0.11291211242E+02  0.44960453834E+02  0.00000000000E+00 0.  1.
</event>
<event>
 7    1  0.1935465E-015  0.9000781E+02  0.7816164E-02  0.1186339E+00
        -11   -1    0    0    0    0  0.00000000000E+00  0.00000000000E+00  0.45593999997E+02  0.45594000000E+02  0.51100000000E-03 0.  1.
         11   -1    0    0    0    0 -0.00000000000E+00 -0.00000000000E+00 -0.45593999997E+02  0.45594000000E+02  0.51100000000E-03 0. -1.
    9900012    2    1    2    0    0  0.78160881354E+00  0.78487183633E+00  0.40731090191E+00  0.90007814291E+02  0.90000076640E+02 0.  0.
         12    1    1    2    0    0 -0.78160881354E+00 -0.78487183633E+00 -0.40731090191E+00  0.11801857090E+01  0.00000000000E+00 0. -1.
         11    1    3    3    0    0  0.35893603389E+02  0.60574493263E+01 -0.10467400695E+02  0.37876244985E+02  0.51100000000E-03 0. -1.
        -11    1    3    3    0    0  0.95384493682E+00  0.60878296597E+01 -0.78149291521E+01  0.99521157570E+01  0.51100000000E-03 0.  1.
        -12    1    3    3    0    0 -0.36065839512E+02 -0.11360407150E+02  0.18689640749E+02  0.42179453549E+02  0.00000000000E+00 0.  1.
</event>
<event>
 7    1  0.1935465E-015  0.9000772E+02  0.7816164E-02  0.1186339E+00
        -11   -1    0    0    0    0  0.00000000000E+00  0.00000000000E+00  0.45593999997E+02  0.45594000000E+02  0.51100000000E-03 0. -1.
         11   -1    0    0    0    0 -0.00000000000E+00 -0.00000000000E+00 -0.45593999997E+02  0.45594000000E+02  0.51100000000E-03 0.  1.
    9900012    2    1    2    0    0 -0.30339155103E+00 -0.66784233545E+00 -0.92466283748E+00  0.90007719872E+02  0.89999980974E+02 0.  0.
         12    1    1    2    0    0  0.30339155103E+00  0.66784233545E+00  0.92466283748E+00  0.11802801283E+01  0.00000000000E+00 0. -1.
         11    1    3    3    0    0  0.90746661593E+01  0.13983978092E+02  0.16490729735E+02  0.23448781986E+02  0.51100000000E-03 0. -1.
        -11    1    3    3    0    0  0.20023623443E+02  0.98852060997E+01  0.39944284649E+01  0.22685199017E+02  0.51100000000E-03 0.  1.
        -12    1    3    3    0    0 -0.29401681153E+02 -0.24537026527E+02 -0.21409821038E+02  0.43873738868E+02  0.00000000000E+00 0.  1.
</event>
<event>
 7    1  0.1935465E-015  0.9000784E+02  0.7816164E-02  0.1186339E+00
        -11   -1    0    0    0    0  0.00000000000E+00  0.00000000000E+00  0.45593999997E+02  0.45594000000E+02  0.51100000000E-03 0. -1.
         11   -1    0    0    0    0 -0.00000000000E+00 -0.00000000000E+00 -0.45593999997E+02  0.45594000000E+02  0.51100000000E-03 0.  1.
    9900012    2    1    2    0    0 -0.48162486157E+00  0.91331406737E+00 -0.57154606980E+00  0.90007843230E+02  0.90000105960E+02 0.  0.
         12    1    1    2    0    0  0.48162486157E+00 -0.91331406737E+00  0.57154606980E+00  0.11801567705E+01  0.00000000000E+00 0. -1.
         11    1    3    3    0    0 -0.15889854211E+02  0.56400159550E+01  0.33211135515E+02  0.37246164491E+02  0.51100000000E-03 0. -1.
        -11    1    3    3    0    0 -0.88629078149E+01 -0.22176342324E+01  0.20945946504E+01  0.93731725437E+01  0.51100000000E-03 0.  1.
        -12    1    3    3    0    0  0.24271137165E+02 -0.25090676553E+01 -0.35877276235E+02  0.43388506195E+02  0.00000000000E+00 0.  1.
</event>
<event>
 7    1  0.1935465E-015  0.9000773E+02  0.7816164E-02  0.1186339E+00
        -11   -1    0    0    0    0  0.00000000000E+00  0.00000000000E+00  0.45593999997E+02  0.45594000000E+02  0.51100000000E-03 0.  1.
         11   -1    0    0    0    0 -0.00000000000E+00 -0.00000000000E+00 -0.45593999997E+02  0.45594000000E+02  0.51100000000E-03 0. -1.
    9900012    2    1    2    0    0 -0.62157256979E+00 -0.91078302943E+00  0.42091451675E+00  0.90007725788E+02  0.89999986968E+02 0.  0.
         12    1    1    2    0    0  0.62157256979E+00  0.91078302943E+00 -0.42091451675E+00  0.11802742125E+01  0.00000000000E+00 0. -1.
         11    1    3    3    0    0  0.46498653961E+01  0.24052296106E+01 -0.10440736115E+02  0.11679698137E+02  0.51100000000E-03 0. -1.
        -11    1    3    3    0    0  0.26509808658E+02 -0.59636724044E+00  0.30854212862E+02  0.40683019315E+02  0.51100000000E-03 0.  1.
         12    1    3    3    0    0 -0.31781246624E+02 -0.27196453996E+01 -0.19992562230E+02  0.37645008336E+02  0.00000000000E+00 0. -1.
</event>
<event>
 7    1  0.2181931E-015  0.9000776E+02  0.7816164E-02  0.1186339E+00
        -11   -1    0    0    0    0  0.00000000000E+00  0.00000000000E+00  0.45593999997E+02  0.45594000000E+02  0.51100000000E-03 0.  1.
         11   -1    0    0    0    0 -0.00000000000E+00 -0.00000000000E+00 -0.45593999997E+02  0.45594000000E+02  0.51100000000E-03 0. -1.
    9900012    2    1    2    0    0 -0.11303684225E+01  0.54331308572E-02 -0.33942743516E+00  0.90007757113E+02  0.90000018707E+02 0.  0.
         12    1    1    2    0    0  0.11303684225E+01 -0.54331308572E-02  0.33942743516E+00  0.11802428874E+01  0.00000000000E+00 0. -1.
         11    1    3    3    0    0  0.93952681773E+01  0.14986965077E+01 -0.72109941229E+00  0.95413384789E+01  0.51100000000E-03 0. -1.
        -11    1    3    3    0    0 -0.34141876271E+02  0.14775540141E+02 -0.22763709147E+02  0.43613882608E+02  0.51100000000E-03 0.  1.
         12    1    3    3    0    0  0.23616239671E+02 -0.16268803518E+02  0.23145381124E+02  0.36852536025E+02  0.00000000000E+00 0. -1.
</event>
<event>
 7    1  0.1935465E-015  0.9000772E+02  0.7816164E-02  0.1186339E+00
        -11   -1    0    0    0    0  0.00000000000E+00  0.00000000000E+00  0.45593999997E+02  0.45594000000E+02  0.51100000000E-03 0. -1.
         11   -1    0    0    0    0 -0.00000000000E+00 -0.00000000000E+00 -0.45593999997E+02  0.45594000000E+02  0.51100000000E-03 0.  1.
    9900012    2    1    2    0    0  0.62429404864E+00  0.99124741091E+00  0.14403918828E+00  0.90007719620E+02  0.89999980718E+02 0.  0.
         12    1    1    2    0    0 -0.62429404864E+00 -0.99124741091E+00 -0.14403918828E+00  0.11802803805E+01  0.00000000000E+00 0. -1.
         11    1    3    3    0    0  0.10787027912E+01 -0.38800843240E+01  0.85382750451E+01  0.94403810877E+01  0.51100000000E-03 0. -1.
        -11    1    3    3    0    0 -0.13415221689E+02 -0.63313749907E+01 -0.41073357382E+02  0.43670071778E+02  0.51100000000E-03 0.  1.
         12    1    3    3    0    0  0.12960812947E+02  0.11202706726E+02  0.32679121525E+02  0.36897266753E+02  0.00000000000E+00 0. -1.
</event>
<event>
 7    1  0.1935465E-015  0.9000774E+02  0.7816164E-02  0.1186339E+00
        -11   -1    0    0    0    0  0.00000000000E+00  0.00000000000E+00  0.45593999997E+02  0.45594000000E+02  0.51100000000E-03 0. -1.
         11   -1    0    0    0    0 -0.00000000000E+00 -0.00000000000E+00 -0.45593999997E+02  0.45594000000E+02  0.51100000000E-03 0.  1.
    9900012    2    1    2    0    0  0.10300284115E+01 -0.56278198023E+00  0.12382259170E+00  0.90007739808E+02  0.90000001174E+02 0.  0.
         12    1    1    2    0    0 -0.10300284115E+01  0.56278198023E+00 -0.12382259170E+00  0.11802601916E+01  0.00000000000E+00 0. -1.
         11    1    3    3    0    0 -0.14676766962E+02  0.24938326160E+02  0.32423378750E+02  0.43458061277E+02  0.51100000000E-03 0. -1.
        -11    1    3    3    0    0 -0.22446549556E+01 -0.50280211390E+01 -0.97438397606E+01  0.11192045657E+02  0.51100000000E-03 0.  1.
        -12    1    3    3    0    0  0.17951450329E+02 -0.20473087001E+02 -0.22555716398E+02  0.35357632875E+02  0.00000000000E+00 0.  1.
</event>
<event>
 7    1  0.1935465E-015  0.9000780E+02  0.7816164E-02  0.1186339E+00
        -11   -1    0    0    0    0  0.00000000000E+00  0.00000000000E+00  0.45593999997E+02  0.45594000000E+02  0.51100000000E-03 0. -1.
         11   -1    0    0    0    0 -0.00000000000E+00 -0.00000000000E+00 -0.45593999997E+02  0.45594000000E+02  0.51100000000E-03 0.  1.
    9900012    2    1    2    0    0 -0.71235946550E+00  0.93778109227E+00 -0.77357215313E-01  0.90007799371E+02  0.90000061523E+02 0.  0.
         12    1    1    2    0    0  0.71235946550E+00 -0.93778109227E+00  0.77357215313E-01  0.11802006287E+01  0.00000000000E+00 0. -1.
         11    1    3    3    0    0  0.65283726965E+01 -0.61239348706E+01  0.50153352066E+01  0.10260400375E+02  0.51100000000E-03 0. -1.
        -11    1    3    3    0    0 -0.50251246499E+01  0.25190667865E+01 -0.42061123254E+02  0.42435075879E+02  0.51100000000E-03 0.  1.
         12    1    3    3    0    0 -0.22156075121E+01  0.45426491764E+01  0.36968430832E+02  0.37312323117E+02  0.00000000000E+00 0. -1.
</event>
<event>
 7    1  0.1935465E-015  0.9000770E+02  0.7816164E-02  0.1186339E+00
        -11   -1    0    0    0    0  0.00000000000E+00  0.00000000000E+00  0.45593999997E+02  0.45594000000E+02  0.51100000000E-03 0. -1.
         11   -1    0    0    0    0 -0.00000000000E+00 -0.00000000000E+00 -0.45593999997E+02  0.45594000000E+02  0.51100000000E-03 0.  1.
    9900012    2    1    2    0    0 -0.53942582146E+00  0.96435254882E+00  0.41491678956E+00  0.90007698345E+02  0.89999959163E+02 0.  0.
         12    1    1    2    0    0  0.53942582146E+00 -0.96435254882E+00 -0.41491678956E+00  0.11803016553E+01  0.00000000000E+00 0. -1.
         11    1    3    3    0    0 -0.78842772293E+01 -0.36936334013E+01 -0.17191521808E+01  0.88746965927E+01  0.51100000000E-03 0. -1.
        -11    1    3    3    0    0 -0.45623908538E+01  0.40757158336E+02  0.10229531638E+02  0.42268246755E+02  0.51100000000E-03 0.  1.
         12    1    3    3    0    0  0.11907242262E+02 -0.36099172386E+02 -0.80954626677E+01  0.38864754997E+02  0.00000000000E+00 0. -1.
</event>
<event>
 7    1  0.1935465E-015  0.9000765E+02  0.7816164E-02  0.1186339E+00
        -11   -1    0    0    0    0  0.00000000000E+00  0.00000000000E+00  0.45593999997E+02  0.45594000000E+02  0.51100000000E-03 0.  1.
         11   -1    0    0    0    0 -0.00000000000E+00 -0.00000000000E+00 -0.45593999997E+02  0.45594000000E+02  0.51100000000E-03 0. -1.
    9900012    2    1    2    0    0  0.16413343188E+00 -0.74386922187E+00 -0.90163420602E+00  0.90007650287E+02  0.89999910471E+02 0.  0.
         12    1    1    2    0    0 -0.16413343188E+00  0.74386922187E+00  0.90163420602E+00  0.11803497127E+01  0.00000000000E+00 0. -1.
         11    1    3    3    0    0  0.12130241385E+02 -0.65978595073E+01  0.52169975816E+01  0.14761150706E+02  0.51100000000E-03 0. -1.
        -11    1    3    3    0    0 -0.33229981564E+02 -0.15953530464E+02  0.13228304280E+02  0.39162926901E+02  0.51100000000E-03 0.  1.
         12    1    3    3    0    0  0.21263873611E+02  0.21807520750E+02 -0.19346936068E+02  0.36083572681E+02  0.00000000000E+00 0. -1.
</event>
<event>
 7    1  0.1935465E-015  0.9000776E+02  0.7816164E-02  0.1186339E+00
        -11   -1    0    0    0    0  0.00000000000E+00  0.00000000000E+00  0.45593999997E+02  0.45594000000E+02  0.51100000000E-03 0. -1.
         11   -1    0    0    0    0 -0.00000000000E+00 -0.00000000000E+00 -0.45593999997E+02  0.45594000000E+02  0.51100000000E-03 0.  1.
    9900012    2    1    2    0    0  0.70739937802E+00  0.80030440519E+00 -0.50205133077E+00  0.90007764193E+02  0.90000025881E+02 0.  0.
         12    1    1    2    0    0 -0.70739937802E+00 -0.80030440519E+00  0.50205133077E+00  0.11802358068E+01  0.00000000000E+00 0. -1.
         11    1    3    3    0    0 -0.28174649351E+01 -0.78582451231E+01  0.38080755178E+01  0.91755961378E+01  0.51100000000E-03 0. -1.
        -11    1    3    3    0    0  0.18213084981E+02  0.11224843738E+02 -0.38213482434E+02  0.43794792172E+02  0.51100000000E-03 0.  1.
         12    1    3    3    0    0 -0.14688220668E+02 -0.25662942096E+01  0.33903355585E+02  0.37037375883E+02  0.00000000000E+00 0. -1.
</event>
<event>
 7    1  0.1935465E-015  0.9000769E+02  0.7816164E-02  0.1186339E+00
        -11   -1    0    0    0    0  0.00000000000E+00  0.00000000000E+00  0.45593999997E+02  0.45594000000E+02  0.51100000000E-03 0.  1.
         11   -1    0    0    0    0 -0.00000000000E+00 -0.00000000000E+00 -0.45593999997E+02  0.45594000000E+02  0.51100000000E-03 0. -1.
    9900012    2    1    2    0    0  0.44095451081E+00 -0.10948402654E+01 -0.30552942344E-02  0.90007692658E+02  0.89999953401E+02 0.  0.
         12    1    1    2    0    0 -0.44095451081E+00  0.10948402654E+01  0.30552942344E-02  0.11803073422E+01  0.00000000000E+00 0. -1.
         11    1    3    3    0    0 -0.53711831128E+01  0.35959458578E+01 -0.69891607106E+01  0.95199160891E+01  0.51100000000E-03 0. -1.
        -11    1    3    3    0    0  0.29024612998E+02 -0.25602926515E+02 -0.15814538409E+02  0.41809539954E+02  0.51100000000E-03 0.  1.
         12    1    3    3    0    0 -0.23212475374E+02  0.20912140392E+02  0.22800643826E+02  0.38678236615E+02  0.00000000000E+00 0. -1.
</event>
<event>
 7    1  0.1935465E-015  0.9000784E+02  0.7816164E-02  0.1186339E+00
        -11   -1    0    0    0    0  0.00000000000E+00  0.00000000000E+00  0.45593999997E+02  0.45594000000E+02  0.51100000000E-03 0.  1.
         11   -1    0    0    0    0 -0.00000000000E+00 -0.00000000000E+00 -0.45593999997E+02  0.45594000000E+02  0.51100000000E-03 0. -1.
    9900012    2    1    2    0    0 -0.88080354506E-01 -0.85992706652E+00  0.80346026111E+00  0.90007838528E+02  0.90000101197E+02 0.  0.
         12    1    1    2    0    0  0.88080354506E-01  0.85992706652E+00 -0.80346026111E+00  0.11801614719E+01  0.00000000000E+00 0. -1.
         11    1    3    3    0    0 -0.32768902818E+02  0.26969951863E+01  0.16447282835E+02  0.36763948208E+02  0.51100000000E-03 0. -1.
        -11    1    3    3    0    0 -0.73551271555E+01  0.47179932237E+01  0.15829139389E+01  0.88804826632E+01  0.51100000000E-03 0.  1.
        -12    1    3    3    0    0  0.40035949619E+02 -0.82749154765E+01 -0.17226736513E+02  0.44363407657E+02  0.00000000000E+00 0.  1.
</event>
<event>
 7    1  0.1935465E-015  0.9000777E+02  0.7816164E-02  0.1186339E+00
        -11   -1    0    0    0    0  0.00000000000E+00  0.00000000000E+00  0.45593999997E+02  0.45594000000E+02  0.51100000000E-03 0. -1.
         11   -1    0    0    0    0 -0.00000000000E+00 -0.00000000000E+00 -0.45593999997E+02  0.45594000000E+02  0.51100000000E-03 0.  1.
    9900012    2    1    2    0    0 -0.10991330104E+01 -0.26986686159E+00  0.33469082360E+00  0.90007771444E+02  0.90000033227E+02 0.  0.
         12    1    1    2    0    0  0.10991330104E+01  0.26986686159E+00 -0.33469082360E+00  0.11802285562E+01  0.00000000000E+00 0. -1.
         11    1    3    3    0    0  0.38944135356E+02  0.39375417570E+01  0.21820059347E+01  0.39203457295E+02  0.51100000000E-03 0. -1.
        -11    1    3    3    0    0  0.32389797434E+01 -0.13836664997E+01  0.57760401465E+01  0.67652171285E+01  0.51100000000E-03 0.  1.
        -12    1    3    3    0    0 -0.43282248110E+02 -0.28237421190E+01 -0.76233552575E+01  0.44039097020E+02  0.00000000000E+00 0.  1.
</event>
<event>
 7    1  0.1935465E-015  0.9000769E+02  0.7816164E-02  0.1186339E+00
        -11   -1    0    0    0    0  0.00000000000E+00  0.00000000000E+00  0.45593999997E+02  0.45594000000E+02  0.51100000000E-03 0.  1.
         11   -1    0    0    0    0 -0.00000000000E+00 -0.00000000000E+00 -0.45593999997E+02  0.45594000000E+02  0.51100000000E-03 0. -1.
    9900012    2    1    2    0    0  0.17625831103E+00 -0.95835095162E+00  0.66606254831E+00  0.90007685272E+02  0.89999945918E+02 0.  0.
         12    1    1    2    0    0 -0.17625831103E+00  0.95835095162E+00 -0.66606254831E+00  0.11803147279E+01  0.00000000000E+00 0. -1.
         11    1    3    3    0    0 -0.38734506073E+02  0.19012896864E+02  0.19816662491E+01  0.43194666445E+02  0.51100000000E-03 0. -1.
        -11    1    3    3    0    0  0.80274650616E+01  0.14107855657E+01 -0.41446209061E+01  0.91437625704E+01  0.51100000000E-03 0.  1.
        -12    1    3    3    0    0  0.30883299323E+02 -0.21382033382E+02  0.28290172053E+01  0.37669256257E+02  0.00000000000E+00 0.  1.
</event>
<event>
 7    1  0.1935465E-015  0.9000783E+02  0.7816164E-02  0.1186339E+00
        -11   -1    0    0    0    0  0.00000000000E+00  0.00000000000E+00  0.45593999997E+02  0.45594000000E+02  0.51100000000E-03 0.  1.
         11   -1    0    0    0    0 -0.00000000000E+00 -0.00000000000E+00 -0.45593999997E+02  0.45594000000E+02  0.51100000000E-03 0. -1.
    9900012    2    1    2    0    0 -0.10158817568E+01 -0.51520086442E+00  0.30878367494E+00  0.90007832625E+02  0.90000095216E+02 0.  0.
         12    1    1    2    0    0  0.10158817568E+01  0.51520086442E+00 -0.30878367494E+00  0.11801673747E+01  0.00000000000E+00 0. -1.
         11    1    3    3    0    0  0.66314482481E+01 -0.50775657471E+01 -0.62046547086E+01  0.10404591299E+02  0.51100000000E-03 0. -1.
        -11    1    3    3    0    0  0.27426787260E+02 -0.15344880265E+02  0.19795780053E+02  0.37142521696E+02  0.51100000000E-03 0.  1.
         12    1    3    3    0    0 -0.35074117265E+02  0.19907245148E+02 -0.13282341669E+02  0.42460719630E+02  0.00000000000E+00 0. -1.
</event>
<event>
 7    1  0.1935465E-015  0.9000781E+02  0.7816164E-02  0.1186339E+00
        -11   -1    0    0    0    0  0.00000000000E+00  0.00000000000E+00  0.45593999997E+02  0.45594000000E+02  0.51100000000E-03 0. -1.
         11   -1    0    0    0    0 -0.00000000000E+00 -0.00000000000E+00 -0.45593999997E+02  0.45594000000E+02  0.51100000000E-03 0.  1.
    9900012    2    1    2    0    0  0.63129545322E+00 -0.97769635790E+00 -0.19601429890E+00  0.90007811149E+02  0.90000073457E+02 0.  0.
         12    1    1    2    0    0 -0.63129545322E+00  0.97769635790E+00  0.19601429890E+00  0.11801888505E+01  0.00000000000E+00 0. -1.
         11    1    3    3    0    0 -0.37090886613E+02 -0.62398311828E+00 -0.75051477942E+01  0.37847727386E+02  0.51100000000E-03 0. -1.
        -11    1    3    3    0    0  0.10339380331E+01 -0.47805223669E+00 -0.11067968415E+02  0.11126431903E+02  0.51100000000E-03 0.  1.
        -12    1    3    3    0    0  0.36688244033E+02  0.12433899708E+00  0.18377101910E+02  0.41033651860E+02  0.00000000000E+00 0.  1.
</event>
<event>
 7    1  0.1935465E-015  0.9000767E+02  0.7816164E-02  0.1186339E+00
        -11   -1    0    0    0    0  0.00000000000E+00  0.00000000000E+00  0.45593999997E+02  0.45594000000E+02  0.51100000000E-03 0. -1.
         11   -1    0    0    0    0 -0.00000000000E+00 -0.00000000000E+00 -0.45593999997E+02  0.45594000000E+02  0.51100000000E-03 0.  1.
    9900012    2    1    2    0    0  0.61734512578E+00 -0.72547153574E+00 -0.69695973291E+00  0.90007670884E+02  0.89999931339E+02 0.  0.
         12    1    1    2    0    0 -0.61734512578E+00  0.72547153574E+00  0.69695973291E+00  0.11803291163E+01  0.00000000000E+00 0. -1.
         11    1    3    3    0    0  0.22988426843E+01 -0.81381984573E+01  0.10330195225E+01  0.85195118060E+01  0.51100000000E-03 0. -1.
        -11    1    3    3    0    0  0.37695097859E+02 -0.82590013645E+01 -0.53266712563E+01  0.38955165679E+02  0.51100000000E-03 0.  1.
         12    1    3    3    0    0 -0.39376595417E+02  0.15671728286E+02  0.35966920009E+01  0.42532993399E+02  0.00000000000E+00 0. -1.
</event>
<event>
 7    1  0.1935465E-015  0.9000772E+02  0.7816164E-02  0.1186339E+00
        -11   -1    0    0    0    0  0.00000000000E+00  0.00000000000E+00  0.45593999997E+02  0.45594000000E+02  0.51100000000E-03 0.  1.
         11   -1    0    0    0    0 -0.00000000000E+00 -0.00000000000E+00 -0.45593999997E+02  0.45594000000E+02  0.51100000000E-03 0. -1.
    9900012    2    1    2    0    0 -0.31157221138E-01 -0.95738433652E+00 -0.68957719123E+00  0.90007715186E+02  0.89999976226E+02 0.  0.
         12    1    1    2    0    0  0.31157221138E-01  0.95738433652E+00  0.68957719123E+00  0.11802848143E+01  0.00000000000E+00 0. -1.
         11    1    3    3    0    0  0.51331484492E+01 -0.35197753839E+01  0.84762366409E+01  0.10515922195E+02  0.51100000000E-03 0. -1.
        -11    1    3    3    0    0  0.11611206865E+02  0.54091215846E+01  0.32258713793E+02  0.34708836584E+02  0.51100000000E-03 0.  1.
         12    1    3    3    0    0 -0.16775512535E+02 -0.28467305373E+01 -0.41424527625E+02  0.44782956407E+02  0.00000000000E+00 0. -1.
</event>
<event>
 7    1  0.1947667E-015  0.9000770E+02  0.7816164E-02  0.1186339E+00
        -11   -1    0    0    0    0  0.00000000000E+00  0.00000000000E+00  0.45593999997E+02  0.45594000000E+02  0.51100000000E-03 0. -1.
         11   -1    0    0    0    0 -0.00000000000E+00 -0.00000000000E+00 -0.45593999997E+02  0.45594000000E+02  0.51100000000E-03 0.  1.
    9900012    2    1    2    0    0  0.93406092275E+00 -0.39409423032E+00 -0.60443148625E+00  0.90007696017E+02  0.89999956805E+02 0.  0.
         12    1    1    2    0    0 -0.93406092275E+00  0.39409423032E+00  0.60443148625E+00  0.11803039826E+01  0.00000000000E+00 0. -1.
         11    1    3    3    0    0 -0.19641384467E+01 -0.77672862609E-01 -0.95330929425E+01  0.97336393103E+01  0.51100000000E-03 0. -1.
        -11    1    3    3    0    0 -0.23187842344E+02 -0.60183054381E+01 -0.26621078144E+02  0.35813095855E+02  0.51100000000E-03 0.  1.
         12    1    3    3    0    0  0.26086041713E+02  0.57018840704E+01  0.35549739600E+02  0.44460960852E+02  0.00000000000E+00 0. -1.
</event>
<event>
 7    1  0.1935465E-015  0.9000768E+02  0.7816164E-02  0.1186339E+00
        -11   -1    0    0    0    0  0.00000000000E+00  0.00000000000E+00  0.45593999997E+02  0.45594000000E+02  0.51100000000E-03 0. -1.
         11   -1    0    0    0    0 -0.00000000000E+00 -0.00000000000E+00 -0.45593999997E+02  0.45594000000E+02  0.51100000000E-03 0.  1.
    9900012    2    1    2    0    0 -0.81040795908E+00  0.77691702507E+00  0.36441122180E+00  0.90007679424E+02  0.89999939992E+02 0.  0.
         12    1    1    2    0    0  0.81040795908E+00 -0.77691702507E+00 -0.36441122180E+00  0.11803205762E+01  0.00000000000E+00 0. -1.
         11    1    3    3    0    0 -0.31532554980E+01  0.16350049736E+01 -0.12221277771E+02  0.12726974979E+02  0.51100000000E-03 0. -1.
        -11    1    3    3    0    0 -0.23972268636E+00  0.37586497580E+02  0.39555820806E+01  0.37794826327E+02  0.51100000000E-03 0.  1.
         12    1    3    3    0    0  0.25825702253E+01 -0.38444585528E+02  0.86301069120E+01  0.39485878117E+02  0.00000000000E+00 0. -1.
</event>
<event>
 7    1  0.1935465E-015  0.9000775E+02  0.7816164E-02  0.1186339E+00
        -11   -1    0    0    0    0  0.00000000000E+00  0.00000000000E+00  0.45593999997E+02  0.45594000000E+02  0.51100000000E-03 0. -1.
         11   -1    0    0    0    0 -0.00000000000E+00 -0.00000000000E+00 -0.45593999997E+02  0.45594000000E+02  0.51100000000E-03 0.  1.
    9900012    2    1    2    0    0  0.20751454762E+00  0.80801615762E+00 -0.83489319635E+00  0.90007746193E+02  0.90000007643E+02 0.  0.
         12    1    1    2    0    0 -0.20751454762E+00 -0.80801615762E+00  0.83489319635E+00  0.11802538065E+01  0.00000000000E+00 0. -1.
         11    1    3    3    0    0  0.24999435977E+02  0.31795035136E+02 -0.91632407093E+01  0.41471207349E+02  0.51100000000E-03 0. -1.
        -11    1    3    3    0    0  0.55555681232E+01 -0.67739178741E+01  0.34184731929E+01  0.94040554958E+01  0.51100000000E-03 0.  1.
        -12    1    3    3    0    0 -0.30347489552E+02 -0.24213101104E+02  0.49098743200E+01  0.39132483349E+02  0.00000000000E+00 0.  1.
</event>
<event>
 7    1  0.1935465E-015  0.9000776E+02  0.7816164E-02  0.1186339E+00
        -11   -1    0    0    0    0  0.00000000000E+00  0.00000000000E+00  0.45593999997E+02  0.45594000000E+02  0.51100000000E-03 0.  1.
         11   -1    0    0    0    0 -0.00000000000E+00 -0.00000000000E+00 -0.45593999997E+02  0.45594000000E+02  0.51100000000E-03 0. -1.
    9900012    2    1    2    0    0 -0.89333923159E+00  0.71555550859E+00 -0.28790173355E+00  0.90007761856E+02  0.90000023512E+02 0.  0.
         12    1    1    2    0    0  0.89333923159E+00 -0.71555550859E+00  0.28790173355E+00  0.11802381441E+01  0.00000000000E+00 0. -1.
         11    1    3    3    0    0 -0.58272614227E+01  0.92626853489E+01  0.49157842470E+01  0.11996634969E+02  0.51100000000E-03 0. -1.
        -11    1    3    3    0    0 -0.35977111573E+02 -0.36713685774E+01  0.18494671782E+01  0.36211214195E+02  0.51100000000E-03 0.  1.
         12    1    3    3    0    0  0.40911033764E+02 -0.48757612629E+01 -0.70531531587E+01  0.41799912692E+02  0.00000000000E+00 0. -1.
</event>
<event>
 7    1  0.1935465E-015  0.9000776E+02  0.7816164E-02  0.1186339E+00
        -11   -1    0    0    0    0  0.00000000000E+00  0.00000000000E+00  0.45593999997E+02  0.45594000000E+02  0.51100000000E-03 0.  1.
         11   -1    0    0    0    0 -0.00000000000E+00 -0.00000000000E+00 -0.45593999997E+02  0.45594000000E+02  0.51100000000E-03 0. -1.
    9900012    2    1    2    0    0  0.68419523797E+00  0.94169024059E+00  0.19507940875E+00  0.90007762902E+02  0.90000024572E+02 0.  0.
         12    1    1    2    0    0 -0.68419523797E+00 -0.94169024059E+00 -0.19507940875E+00  0.11802370985E+01  0.00000000000E+00 0. -1.
         11    1    3    3    0    0  0.22466221590E+01  0.10812163015E+02 -0.37761817756E+01  0.11670892393E+02  0.51100000000E-03 0. -1.
        -11    1    3    3    0    0 -0.35583739451E+02  0.36321779987E+01  0.16844152531E+02  0.39536321340E+02  0.51100000000E-03 0.  1.
         12    1    3    3    0    0  0.34021312530E+02 -0.13502650773E+02 -0.12872891346E+02  0.38800549169E+02  0.00000000000E+00 0. -1.
</event>
<event>
 7    1  0.1935465E-015  0.9000772E+02  0.7816164E-02  0.1186339E+00
        -11   -1    0    0    0    0  0.00000000000E+00  0.00000000000E+00  0.45593999997E+02  0.45594000000E+02  0.51100000000E-03 0. -1.
         11   -1    0    0    0    0 -0.00000000000E+00 -0.00000000000E+00 -0.45593999997E+02  0.45594000000E+02  0.51100000000E-03 0.  1.
    9900012    2    1    2    0    0  0.59604139324E+00 -0.98586941939E+00 -0.25661545898E+00  0.90007722343E+02  0.89999983478E+02 0.  0.
         12    1    1    2    0    0 -0.59604139324E+00  0.98586941939E+00  0.25661545898E+00  0.11802776573E+01  0.00000000000E+00 0. -1.
         11    1    3    3    0    0  0.20018841288E+01  0.44057812551E+01 -0.78641526099E+01  0.92338153038E+01  0.51100000000E-03 0. -1.
        -11    1    3    3    0    0 -0.95375571074E+01 -0.33800090107E+02 -0.19931221223E+02  0.40381489157E+02  0.51100000000E-03 0.  1.
         12    1    3    3    0    0  0.81317143718E+01  0.28408439432E+02  0.27538758374E+02  0.40392417882E+02  0.00000000000E+00 0. -1.
</event>
<event>
 7    1  0.1935465E-015  0.9000775E+02  0.7816164E-02  0.1186339E+00
        -11   -1    0    0    0    0  0.00000000000E+00  0.00000000000E+00  0.45593999997E+02  0.45594000000E+02  0.51100000000E-03 0.  1.
         11   -1    0    0    0    0 -0.00000000000E+00 -0.00000000000E+00 -0.45593999997E+02  0.45594000000E+02  0.51100000000E-03 0. -1.
    9900012    2    1    2    0    0  0.10896584038E+01  0.31004606588E+00 -0.33091226567E+00  0.90007751328E+02  0.90000012846E+02 0.  0.
         12    1    1    2    0    0 -0.10896584038E+01 -0.31004606588E+00  0.33091226567E+00  0.11802486719E+01  0.00000000000E+00 0. -1.
         11    1    3    3    0    0 -0.37856882475E+01  0.78487273610E+01  0.21836449411E+01  0.89834437820E+01  0.51100000000E-03 0. -1.
        -11    1    3    3    0    0 -0.26700116141E+02  0.23825438065E+02  0.41433082923E+01  0.36023807473E+02  0.51100000000E-03 0.  1.
         12    1    3    3    0    0  0.31575462793E+02 -0.31364119361E+02 -0.66578654991E+01  0.45000500073E+02  0.00000000000E+00 0. -1.
</event>
<event>
 7    1  0.1935465E-015  0.9000710E+02  0.7816164E-02  0.1186340E+00
        -11   -1    0    0    0    0  0.00000000000E+00  0.00000000000E+00  0.45593999997E+02  0.45594000000E+02  0.51100000000E-03 0. -1.
         11   -1    0    0    0    0 -0.00000000000E+00 -0.00000000000E+00 -0.45593999997E+02  0.45594000000E+02  0.51100000000E-03 0.  1.
    9900012    2    1    2    0    0 -0.19292311141E+00  0.11272619296E+01 -0.29426136786E+00  0.90007098422E+02  0.89999351319E+02 0.  0.
         12    1    1    2    0    0  0.19292311141E+00 -0.11272619296E+01  0.29426136786E+00  0.11809015782E+01  0.00000000000E+00 0. -1.
         11    1    3    3    0    0 -0.28747629923E+01  0.66867827218E+01  0.70746360719E+01  0.10150261142E+02  0.51100000000E-03 0. -1.
        -11    1    3    3    0    0 -0.81825210722E+01 -0.36289727183E+02  0.15226827122E+02  0.40196445298E+02  0.51100000000E-03 0.  1.
         12    1    3    3    0    0  0.10864360953E+02  0.30730206391E+02 -0.22595724562E+02  0.39660391982E+02  0.00000000000E+00 0. -1.
</event>
<event>
 7    1  0.1935465E-015  0.9000748E+02  0.7816164E-02  0.1186340E+00
        -11   -1    0    0    0    0  0.00000000000E+00  0.00000000000E+00  0.45593999997E+02  0.45594000000E+02  0.51100000000E-03 0. -1.
         11   -1    0    0    0    0 -0.00000000000E+00 -0.00000000000E+00 -0.45593999997E+02  0.45594000000E+02  0.51100000000E-03 0.  1.
    9900012    2    1    2    0    0  0.10754900410E+01  0.19684678712E+00 -0.44520845957E+00  0.90007475516E+02  0.89999733392E+02 0.  0.
         12    1    1    2    0    0 -0.10754900410E+01 -0.19684678712E+00  0.44520845957E+00  0.11805244844E+01  0.00000000000E+00 0. -1.
         11    1    3    3    0    0  0.42667467398E+01 -0.73760831534E+00  0.13623471320E+01  0.45392933082E+01  0.51100000000E-03 0. -1.
        -11    1    3    3    0    0 -0.17753513947E+02 -0.23552666937E+02 -0.32298014722E+02  0.43738737208E+02  0.51100000000E-03 0.  1.
         12    1    3    3    0    0  0.14562257249E+02  0.24487122039E+02  0.30490459130E+02  0.41729444999E+02  0.00000000000E+00 0. -1.
</event>
<event>
 7    1  0.1935465E-015  0.9000773E+02  0.7816164E-02  0.1186339E+00
        -11   -1    0    0    0    0  0.00000000000E+00  0.00000000000E+00  0.45593999997E+02  0.45594000000E+02  0.51100000000E-03 0. -1.
         11   -1    0    0    0    0 -0.00000000000E+00 -0.00000000000E+00 -0.45593999997E+02  0.45594000000E+02  0.51100000000E-03 0.  1.
    9900012    2    1    2    0    0  0.72851421799E+00 -0.29044179237E-01 -0.92815074981E+00  0.90007728699E+02  0.89999989918E+02 0.  0.
         12    1    1    2    0    0 -0.72851421799E+00  0.29044179237E-01  0.92815074981E+00  0.11802713012E+01  0.00000000000E+00 0. -1.
         11    1    3    3    0    0  0.23618455061E+02 -0.21319988106E+02  0.18251831941E+02  0.36681094337E+02  0.51100000000E-03 0. -1.
        -11    1    3    3    0    0 -0.42772550533E+01 -0.20720162628E+01  0.10309189344E+02  0.11351984292E+02  0.51100000000E-03 0.  1.
        -12    1    3    3    0    0 -0.18612685789E+02  0.23362960190E+02 -0.29489172035E+02  0.41974650069E+02  0.00000000000E+00 0.  1.
</event>
<event>
 7    1  0.1935465E-015  0.9000819E+02  0.7816164E-02  0.1186338E+00
        -11   -1    0    0    0    0  0.00000000000E+00  0.00000000000E+00  0.45593999997E+02  0.45594000000E+02  0.51100000000E-03 0.  1.
         11   -1    0    0    0    0 -0.00000000000E+00 -0.00000000000E+00 -0.45593999997E+02  0.45594000000E+02  0.51100000000E-03 0. -1.
    9900012    2    1    2    0    0 -0.60188906224E+00 -0.69555913277E+00  0.73883860096E+00  0.90008188393E+02  0.90000455678E+02 0.  0.
         12    1    1    2    0    0  0.60188906224E+00  0.69555913277E+00 -0.73883860096E+00  0.11798116073E+01  0.00000000000E+00 0. -1.
         11    1    3    3    0    0 -0.10883454126E+02  0.34633948745E+02 -0.67224407614E+01  0.36920877420E+02  0.51100000000E-03 0. -1.
        -11    1    3    3    0    0  0.57840139659E+00  0.80513617031E+01  0.18536943217E+01  0.82822192889E+01  0.51100000000E-03 0.  1.
        -12    1    3    3    0    0  0.97031636676E+01 -0.43380869581E+02  0.56075850407E+01  0.44805091684E+02  0.00000000000E+00 0.  1.
</event>
<event>
 7    1  0.1935465E-015  0.9000777E+02  0.7816164E-02  0.1186339E+00
        -11   -1    0    0    0    0  0.00000000000E+00  0.00000000000E+00  0.45593999997E+02  0.45594000000E+02  0.51100000000E-03 0. -1.
         11   -1    0    0    0    0 -0.00000000000E+00 -0.00000000000E+00 -0.45593999997E+02  0.45594000000E+02  0.51100000000E-03 0.  1.
    9900012    2    1    2    0    0 -0.80860579076E+00 -0.78390854269E+00  0.35297593804E+00  0.90007767844E+02  0.90000029580E+02 0.  0.
         12    1    1    2    0    0  0.80860579076E+00  0.78390854269E+00 -0.35297593804E+00  0.11802321555E+01  0.00000000000E+00 0. -1.
         11    1    3    3    0    0  0.79536972942E+01 -0.24021716812E+02  0.35030836135E+02  0.43214160409E+02  0.51100000000E-03 0. -1.
        -11    1    3    3    0    0 -0.65961783430E+01 -0.12722469352E+01 -0.60051168708E+01  0.90105277254E+01  0.51100000000E-03 0.  1.
        -12    1    3    3    0    0 -0.21661247420E+01  0.24510055205E+02 -0.28672743326E+02  0.37783079710E+02  0.00000000000E+00 0.  1.
</event>
<event>
 7    1  0.2310395E-015  0.9000789E+02  0.7816164E-02  0.1186339E+00
        -11   -1    0    0    0    0  0.00000000000E+00  0.00000000000E+00  0.45593999997E+02  0.45594000000E+02  0.51100000000E-03 0.  1.
         11   -1    0    0    0    0 -0.00000000000E+00 -0.00000000000E+00 -0.45593999997E+02  0.45594000000E+02  0.51100000000E-03 0. -1.
    9900012    2    1    2    0    0  0.74873892753E+00 -0.90224947991E+00  0.13414842117E+00  0.90007889876E+02  0.90000153222E+02 0.  0.
         12    1    1    2    0    0 -0.74873892753E+00  0.90224947991E+00 -0.13414842117E+00  0.11801101239E+01  0.00000000000E+00 0. -1.
         11    1    3    3    0    0  0.11152546569E+01 -0.86075026747E+01  0.43288382870E+01  0.96990585327E+01  0.51100000000E-03 0. -1.
        -11    1    3    3    0    0  0.95990493794E+01 -0.96332827859E+01  0.34317486581E+02  0.36913842548E+02  0.51100000000E-03 0.  1.
         12    1    3    3    0    0 -0.99655651087E+01  0.17338535981E+02 -0.38512176446E+02  0.43394988795E+02  0.00000000000E+00 0. -1.
</event>
<event>
 7    1  0.1935465E-015  0.9000774E+02  0.7816164E-02  0.1186339E+00
        -11   -1    0    0    0    0  0.00000000000E+00  0.00000000000E+00  0.45593999997E+02  0.45594000000E+02  0.51100000000E-03 0.  1.
         11   -1    0    0    0    0 -0.00000000000E+00 -0.00000000000E+00 -0.45593999997E+02  0.45594000000E+02  0.51100000000E-03 0. -1.
    9900012    2    1    2    0    0  0.74651930422E+00  0.90656363805E+00  0.11779018692E+00  0.90007735949E+02  0.89999997264E+02 0.  0.
         12    1    1    2    0    0 -0.74651930422E+00 -0.90656363805E+00 -0.11779018692E+00  0.11802640508E+01  0.00000000000E+00 0. -1.
         11    1    3    3    0    0 -0.90896445441E+01  0.34105045347E+02  0.59371794624E+01  0.35791421546E+02  0.51100000000E-03 0. -1.
        -11    1    3    3    0    0 -0.20708022274E+01  0.93851691722E+01 -0.21415848205E+01  0.98466241962E+01  0.51100000000E-03 0.  1.
        -12    1    3    3    0    0  0.11906966076E+02 -0.42583650881E+02 -0.36778044551E+01  0.44369690207E+02  0.00000000000E+00 0.  1.
</event>
<event>
 7    1  0.1935465E-015  0.9000762E+02  0.7816164E-02  0.1186339E+00
        -11   -1    0    0    0    0  0.00000000000E+00  0.00000000000E+00  0.45593999997E+02  0.45594000000E+02  0.51100000000E-03 0.  1.
         11   -1    0    0    0    0 -0.00000000000E+00 -0.00000000000E+00 -0.45593999997E+02  0.45594000000E+02  0.51100000000E-03 0. -1.
    9900012    2    1    2    0    0  0.81063808421E+00  0.76588640346E+00  0.38675698675E+00  0.90007619954E+02  0.89999879737E+02 0.  0.
         12    1    1    2    0    0 -0.81063808421E+00 -0.76588640346E+00 -0.38675698675E+00  0.11803800462E+01  0.00000000000E+00 0. -1.
         11    1    3    3    0    0  0.19542060706E+02 -0.29648165470E+02 -0.10003210778E+02  0.36891327958E+02  0.51100000000E-03 0. -1.
        -11    1    3    3    0    0  0.20146500002E+01 -0.24450322640E+01 -0.91048123466E+01  0.96402596191E+01  0.51100000000E-03 0.  1.
        -12    1    3    3    0    0 -0.20746072622E+02  0.32859084138E+02  0.19494780111E+02  0.43476032376E+02  0.00000000000E+00 0.  1.
</event>
<event>
 7    1  0.1935465E-015  0.9000775E+02  0.7816164E-02  0.1186339E+00
        -11   -1    0    0    0    0  0.00000000000E+00  0.00000000000E+00  0.45593999997E+02  0.45594000000E+02  0.51100000000E-03 0. -1.
         11   -1    0    0    0    0 -0.00000000000E+00 -0.00000000000E+00 -0.45593999997E+02  0.45594000000E+02  0.51100000000E-03 0.  1.
    9900012    2    1    2    0    0 -0.74703502233E+00 -0.88226717826E+00  0.23777182759E+00  0.90007749120E+02  0.90000010608E+02 0.  0.
         12    1    1    2    0    0  0.74703502233E+00  0.88226717826E+00 -0.23777182759E+00  0.11802508803E+01  0.00000000000E+00 0. -1.
         11    1    3    3    0    0  0.42465884228E+01  0.26704031316E+01  0.76863595144E+01  0.91784905602E+01  0.51100000000E-03 0. -1.
        -11    1    3    3    0    0  0.23207825153E+02 -0.20243329659E+02 -0.28434136986E+02  0.41915339560E+02  0.51100000000E-03 0.  1.
         12    1    3    3    0    0 -0.28201448598E+02  0.16690659349E+02  0.20985549299E+02  0.38913919000E+02  0.00000000000E+00 0. -1.
</event>
<event>
 7    1  0.1935465E-015  0.9000774E+02  0.7816164E-02  0.1186339E+00
        -11   -1    0    0    0    0  0.00000000000E+00  0.00000000000E+00  0.45593999997E+02  0.45594000000E+02  0.51100000000E-03 0.  1.
         11   -1    0    0    0    0 -0.00000000000E+00 -0.00000000000E+00 -0.45593999997E+02  0.45594000000E+02  0.51100000000E-03 0. -1.
    9900012    2    1    2    0    0  0.10097872641E+00  0.11759371232E+01 -0.41095969477E-03  0.90007735204E+02  0.89999996508E+02 0.  0.
         12    1    1    2    0    0 -0.10097872641E+00 -0.11759371232E+01  0.41095969476E-03  0.11802647964E+01  0.00000000000E+00 0. -1.
         11    1    3    3    0    0 -0.82247502498E+01  0.49389925646E+01  0.55032831612E+01  0.11060121611E+02  0.51100000000E-03 0. -1.
        -11    1    3    3    0    0 -0.13423148781E+02 -0.23136469421E+02 -0.30498794349E+02  0.40566656227E+02  0.51100000000E-03 0.  1.
         12    1    3    3    0    0  0.21748877757E+02  0.19373413980E+02  0.24995100228E+02  0.38380957366E+02  0.00000000000E+00 0. -1.
</event>
<event>
 7    1  0.1935465E-015  0.9000775E+02  0.7816164E-02  0.1186339E+00
        -11   -1    0    0    0    0  0.00000000000E+00  0.00000000000E+00  0.45593999997E+02  0.45594000000E+02  0.51100000000E-03 0. -1.
         11   -1    0    0    0    0 -0.00000000000E+00 -0.00000000000E+00 -0.45593999997E+02  0.45594000000E+02  0.51100000000E-03 0.  1.
    9900012    2    1    2    0    0 -0.77299452956E+00 -0.84790949828E+00 -0.27660535861E+00  0.90007753592E+02  0.90000015139E+02 0.  0.
         12    1    1    2    0    0  0.77299452956E+00  0.84790949828E+00  0.27660535861E+00  0.11802464084E+01  0.00000000000E+00 0. -1.
         11    1    3    3    0    0  0.82267237112E+01  0.35231569316E+01 -0.25709294713E+01  0.93113530914E+01  0.51100000000E-03 0. -1.
        -11    1    3    3    0    0  0.83596833585E+01  0.28235976101E+02 -0.21759985129E+02  0.36614909604E+02  0.51100000000E-03 0.  1.
         12    1    3    3    0    0 -0.17359401599E+02 -0.32607042531E+02  0.24054309242E+02  0.44081490896E+02  0.00000000000E+00 0. -1.
</event>
<event>
 7    1  0.1935465E-015  0.9000773E+02  0.7816164E-02  0.1186339E+00
        -11   -1    0    0    0    0  0.00000000000E+00  0.00000000000E+00  0.45593999997E+02  0.45594000000E+02  0.51100000000E-03 0. -1.
         11   -1    0    0    0    0 -0.00000000000E+00 -0.00000000000E+00 -0.45593999997E+02  0.45594000000E+02  0.51100000000E-03 0.  1.
    9900012    2    1    2    0    0  0.97770089642E+00 -0.22549311117E+00 -0.62152263106E+00  0.90007730299E+02  0.89999991539E+02 0.  0.
         12    1    1    2    0    0 -0.97770089642E+00  0.22549311117E+00  0.62152263106E+00  0.11802697009E+01  0.00000000000E+00 0. -1.
         11    1    3    3    0    0 -0.12224849735E+02  0.17860107047E+01  0.34065809648E+02  0.36236944856E+02  0.51100000000E-03 0. -1.
        -11    1    3    3    0    0 -0.70424090649E+01  0.34279878992E+01  0.47128370408E+01  0.91409769559E+01  0.51100000000E-03 0.  1.
        -12    1    3    3    0    0  0.20244959696E+02 -0.54394917150E+01 -0.39400169320E+02  0.44629808487E+02  0.00000000000E+00 0.  1.
</event>
<event>
 7    1  0.1935465E-015  0.9000771E+02  0.7816164E-02  0.1186339E+00
        -11   -1    0    0    0    0  0.00000000000E+00  0.00000000000E+00  0.45593999997E+02  0.45594000000E+02  0.51100000000E-03 0.  1.
         11   -1    0    0    0    0 -0.00000000000E+00 -0.00000000000E+00 -0.45593999997E+02  0.45594000000E+02  0.51100000000E-03 0. -1.
    9900012    2    1    2    0    0 -0.10568352949E+01  0.32992160122E+00  0.40907552616E+00  0.90007706863E+02  0.89999967793E+02 0.  0.
         12    1    1    2    0    0  0.10568352949E+01 -0.32992160122E+00 -0.40907552616E+00  0.11802931372E+01  0.00000000000E+00 0. -1.
         11    1    3    3    0    0  0.34627968246E+02 -0.71337676722E+01 -0.52656309679E+01  0.35745121287E+02  0.51100000000E-03 0. -1.
        -11    1    3    3    0    0  0.65746302252E+01  0.35581358809E+01 -0.67179279448E+01  0.10050703939E+02  0.51100000000E-03 0.  1.
        -12    1    3    3    0    0 -0.42259433766E+02  0.39055533925E+01  0.12392634439E+02  0.44211881637E+02  0.00000000000E+00 0.  1.
</event>
<event>
 7    1  0.1935465E-015  0.9000776E+02  0.7816164E-02  0.1186339E+00
        -11   -1    0    0    0    0  0.00000000000E+00  0.00000000000E+00  0.45593999997E+02  0.45594000000E+02  0.51100000000E-03 0.  1.
         11   -1    0    0    0    0 -0.00000000000E+00 -0.00000000000E+00 -0.45593999997E+02  0.45594000000E+02  0.51100000000E-03 0. -1.
    9900012    2    1    2    0    0  0.43244458795E+00 -0.23125112778E-01  0.10979183891E+01  0.90007759397E+02  0.90000021021E+02 0.  0.
         12    1    1    2    0    0 -0.43244458795E+00  0.23125112778E-01 -0.10979183891E+01  0.11802406033E+01  0.00000000000E+00 0. -1.
         11    1    3    3    0    0 -0.37416184431E+01 -0.53115137082E+01  0.62710908041E+01  0.90298652581E+01  0.51100000000E-03 0. -1.
        -11    1    3    3    0    0  0.40477278348E+02  0.66445140943E+01 -0.14439312387E+02  0.43486243485E+02  0.51100000000E-03 0.  1.
         12    1    3    3    0    0 -0.36303215317E+02 -0.13561254989E+01  0.92661399716E+01  0.37491650653E+02  0.00000000000E+00 0. -1.
</event>
<event>
 7    1  0.1935465E-015  0.9000778E+02  0.7816164E-02  0.1186339E+00
        -11   -1    0    0    0    0  0.00000000000E+00  0.00000000000E+00  0.45593999997E+02  0.45594000000E+02  0.51100000000E-03 0.  1.
         11   -1    0    0    0    0 -0.00000000000E+00 -0.00000000000E+00 -0.45593999997E+02  0.45594000000E+02  0.51100000000E-03 0. -1.
    9900012    2    1    2    0    0 -0.10198317106E+01 -0.57426344593E+00  0.15194754929E+00  0.90007778292E+02  0.90000040165E+02 0.  0.
         12    1    1    2    0    0  0.10198317106E+01  0.57426344593E+00 -0.15194754929E+00  0.11802217084E+01  0.00000000000E+00 0. -1.
         11    1    3    3    0    0  0.15640153185E+02  0.27114569173E+02 -0.23181006978E+02  0.38950909333E+02  0.51100000000E-03 0. -1.
        -11    1    3    3    0    0  0.79658911436E+01 -0.44990208235E+01 -0.12609696483E+01  0.92350774115E+01  0.51100000000E-03 0.  1.
        -12    1    3    3    0    0 -0.24625876039E+02 -0.23189811796E+02  0.24593924175E+02  0.41821791547E+02  0.00000000000E+00 0.  1.
</event>
<event>
 7    1  0.1935465E-015  0.9000770E+02  0.7816164E-02  0.1186339E+00
        -11   -1    0    0    0    0  0.00000000000E+00  0.00000000000E+00  0.45593999997E+02  0.45594000000E+02  0.51100000000E-03 0. -1.
         11   -1    0    0    0    0 -0.00000000000E+00 -0.00000000000E+00 -0.45593999997E+02  0.45594000000E+02  0.51100000000E-03 0.  1.
    9900012    2    1    2    0    0 -0.35096687952E+00 -0.85831348377E+00 -0.73022813063E+00  0.90007697958E+02  0.89999958771E+02 0.  0.
         12    1    1    2    0    0  0.35096687952E+00  0.85831348377E+00  0.73022813063E+00  0.11803020417E+01  0.00000000000E+00 0. -1.
         11    1    3    3    0    0  0.79988180571E+00  0.13327877161E+02  0.75164198841E+01  0.15322163315E+02  0.51100000000E-03 0. -1.
        -11    1    3    3    0    0 -0.14120141550E+02  0.26555980807E+02 -0.10533693818E+02  0.31867808518E+02  0.51100000000E-03 0.  1.
         12    1    3    3    0    0  0.12969292865E+02 -0.40742171452E+02  0.22870458032E+01  0.42817726125E+02  0.00000000000E+00 0. -1.
</event>
<event>
 7    1  0.1935465E-015  0.9000753E+02  0.7816164E-02  0.1186339E+00
        -11   -1    0    0    0    0  0.00000000000E+00  0.00000000000E+00  0.45593999997E+02  0.45594000000E+02  0.51100000000E-03 0. -1.
         11   -1    0    0    0    0 -0.00000000000E+00 -0.00000000000E+00 -0.45593999997E+02  0.45594000000E+02  0.51100000000E-03 0.  1.
    9900012    2    1    2    0    0  0.31706951388E+00  0.28917324318E+00 -0.10997081649E+01  0.90007528785E+02  0.89999787365E+02 0.  0.
         12    1    1    2    0    0 -0.31706951388E+00 -0.28917324318E+00  0.10997081649E+01  0.11804712148E+01  0.00000000000E+00 0. -1.
         11    1    3    3    0    0  0.18829765760E+02  0.45849195290E+01  0.31092870995E+02  0.36638070263E+02  0.51100000000E-03 0. -1.
        -11    1    3    3    0    0  0.67317435819E+01 -0.83516205368E+01  0.17559402926E+01  0.10869648744E+02  0.51100000000E-03 0.  1.
        -12    1    3    3    0    0 -0.25244439828E+02  0.40558742510E+01 -0.33948519452E+02  0.42499809778E+02  0.00000000000E+00 0.  1.
</event>
<event>
 7    1  0.1935465E-015  0.9000748E+02  0.7816164E-02  0.1186340E+00
        -11   -1    0    0    0    0  0.00000000000E+00  0.00000000000E+00  0.45593999997E+02  0.45594000000E+02  0.51100000000E-03 0.  1.
         11   -1    0    0    0    0 -0.00000000000E+00 -0.00000000000E+00 -0.45593999997E+02  0.45594000000E+02  0.51100000000E-03 0. -1.
    9900012    2    1    2    0    0  0.97200748239E+00  0.61140821432E+00  0.27385604672E+00  0.90007484992E+02  0.89999742993E+02 0.  0.
         12    1    1    2    0    0 -0.97200748239E+00 -0.61140821432E+00 -0.27385604672E+00  0.11805150082E+01  0.00000000000E+00 0. -1.
         11    1    3    3    0    0  0.29871692869E+02 -0.31988138266E+01  0.30905521452E+02  0.43101063806E+02  0.51100000000E-03 0. -1.
        -11    1    3    3    0    0 -0.67274259482E+01 -0.51833793037E+01 -0.60742585868E+00  0.85143788575E+01  0.51100000000E-03 0.  1.
        -12    1    3    3    0    0 -0.22172259438E+02  0.89936013446E+01 -0.30024239547E+02  0.38392042328E+02  0.00000000000E+00 0.  1.
</event>
<event>
 7    1  0.1935465E-015  0.9000775E+02  0.7816164E-02  0.1186339E+00
        -11   -1    0    0    0    0  0.00000000000E+00  0.00000000000E+00  0.45593999997E+02  0.45594000000E+02  0.51100000000E-03 0.  1.
         11   -1    0    0    0    0 -0.00000000000E+00 -0.00000000000E+00 -0.45593999997E+02  0.45594000000E+02  0.51100000000E-03 0. -1.
    9900012    2    1    2    0    0 -0.16936637022E+00  0.78109595844E+00  0.86844597059E+00  0.90007748219E+02  0.90000009695E+02 0.  0.
         12    1    1    2    0    0  0.16936637022E+00 -0.78109595844E+00 -0.86844597059E+00  0.11802517814E+01  0.00000000000E+00 0. -1.
         11    1    3    3    0    0  0.19012596545E+02 -0.31297103793E+02  0.14059316216E+02  0.39225653671E+02  0.51100000000E-03 0. -1.
        -11    1    3    3    0    0 -0.61438117947E+01 -0.60847910574E+01 -0.13561696261E+01  0.87527311108E+01  0.51100000000E-03 0.  1.
        -12    1    3    3    0    0 -0.13038151121E+02  0.38162990809E+02 -0.11834700620E+02  0.42029363436E+02  0.00000000000E+00 0.  1.
</event>
<event>
 7    1  0.1935465E-015  0.9000772E+02  0.7816164E-02  0.1186339E+00
        -11   -1    0    0    0    0  0.00000000000E+00  0.00000000000E+00  0.45593999997E+02  0.45594000000E+02  0.51100000000E-03 0.  1.
         11   -1    0    0    0    0 -0.00000000000E+00 -0.00000000000E+00 -0.45593999997E+02  0.45594000000E+02  0.51100000000E-03 0. -1.
    9900012    2    1    2    0    0  0.10390160494E+01 -0.49704732070E+00  0.25776100162E+00  0.90007724132E+02  0.89999985291E+02 0.  0.
         12    1    1    2    0    0 -0.10390160494E+01  0.49704732070E+00 -0.25776100162E+00  0.11802758677E+01  0.00000000000E+00 0. -1.
         11    1    3    3    0    0  0.13129969937E+02 -0.20289646904E+02 -0.27960102278E+02  0.36957180651E+02  0.51100000000E-03 0. -1.
        -11    1    3    3    0    0 -0.59918291668E+01 -0.58314841854E+01 -0.56904081165E+01  0.10113800935E+02  0.51100000000E-03 0.  1.
        -12    1    3    3    0    0 -0.60991247211E+01  0.25624083768E+02  0.33908271396E+02  0.42936742545E+02  0.00000000000E+00 0.  1.
</event>
<event>
 7    1  0.1935465E-015  0.9000706E+02  0.7816164E-02  0.1186340E+00
        -11   -1    0    0    0    0  0.00000000000E+00  0.00000000000E+00  0.45593999997E+02  0.45594000000E+02  0.51100000000E-03 0. -1.
         11   -1    0    0    0    0 -0.00000000000E+00 -0.00000000000E+00 -0.45593999997E+02  0.45594000000E+02  0.51100000000E-03 0.  1.
    9900012    2    1    2    0    0 -0.81080230676E+00  0.52056003824E+00 -0.68282154947E+00  0.90007056139E+02  0.89999308478E+02 0.  0.
         12    1    1    2    0    0  0.81080230676E+00 -0.52056003824E+00  0.68282154947E+00  0.11809438608E+01  0.00000000000E+00 0. -1.
         11    1    3    3    0    0 -0.21383715331E+01 -0.77307014211E+01  0.88527794250E+01  0.11946048765E+02  0.51100000000E-03 0. -1.
        -11    1    3    3    0    0 -0.17843830639E+02 -0.11971698981E+02 -0.34502331379E+02  0.40646460353E+02  0.51100000000E-03 0.  1.
         12    1    3    3    0    0  0.19171399865E+02  0.20222960440E+02  0.24966730404E+02  0.37414547022E+02  0.00000000000E+00 0. -1.
</event>
<event>
 7    1  0.1935465E-015  0.9000764E+02  0.7816164E-02  0.1186339E+00
        -11   -1    0    0    0    0  0.00000000000E+00  0.00000000000E+00  0.45593999997E+02  0.45594000000E+02  0.51100000000E-03 0. -1.
         11   -1    0    0    0    0 -0.00000000000E+00 -0.00000000000E+00 -0.45593999997E+02  0.45594000000E+02  0.51100000000E-03 0.  1.
    9900012    2    1    2    0    0  0.31114190856E-02  0.50592369430E+00 -0.10664357886E+01  0.90007638294E+02  0.89999898320E+02 0.  0.
         12    1    1    2    0    0 -0.31114190856E-02 -0.50592369430E+00  0.10664357886E+01  0.11803617058E+01  0.00000000000E+00 0. -1.
         11    1    3    3    0    0  0.35226770702E+02 -0.76140174557E+01  0.71304514684E+01  0.36738834689E+02  0.51100000000E-03 0. -1.
        -11    1    3    3    0    0  0.83747854633E+01  0.69380758609E+00 -0.15650163295E+01  0.85479633186E+01  0.51100000000E-03 0.  1.
        -12    1    3    3    0    0 -0.43598444746E+02  0.74261335639E+01 -0.66318709275E+01  0.44720840287E+02  0.00000000000E+00 0.  1.
</event>
<event>
 7    1  0.1935465E-015  0.9000760E+02  0.7816164E-02  0.1186339E+00
        -11   -1    0    0    0    0  0.00000000000E+00  0.00000000000E+00  0.45593999997E+02  0.45594000000E+02  0.51100000000E-03 0.  1.
         11   -1    0    0    0    0 -0.00000000000E+00 -0.00000000000E+00 -0.45593999997E+02  0.45594000000E+02  0.51100000000E-03 0. -1.
    9900012    2    1    2    0    0  0.84932524641E+00  0.33781712348E+00 -0.74690609347E+00  0.90007600705E+02  0.89999860234E+02 0.  0.
         12    1    1    2    0    0 -0.84932524641E+00 -0.33781712348E+00  0.74690609347E+00  0.11803992950E+01  0.00000000000E+00 0. -1.
         11    1    3    3    0    0  0.11137599873E+02  0.28382585693E+02 -0.18157574020E+02  0.35486825669E+02  0.51100000000E-03 0. -1.
        -11    1    3    3    0    0  0.87746948711E+01  0.38003933500E+01 -0.53752254977E+01  0.10969562849E+02  0.51100000000E-03 0.  1.
        -12    1    3    3    0    0 -0.19062969498E+02 -0.31845161919E+02  0.22785893424E+02  0.43551212186E+02  0.00000000000E+00 0.  1.
</event>
<event>
 7    1  0.2153897E-015  0.9000716E+02  0.7816164E-02  0.1186340E+00
        -11   -1    0    0    0    0  0.00000000000E+00  0.00000000000E+00  0.45593999997E+02  0.45594000000E+02  0.51100000000E-03 0.  1.
         11   -1    0    0    0    0 -0.00000000000E+00 -0.00000000000E+00 -0.45593999997E+02  0.45594000000E+02  0.51100000000E-03 0. -1.
    9900012    2    1    2    0    0 -0.78274138944E+00 -0.59278987406E+00  0.65597643527E+00  0.90007157504E+02  0.89999411181E+02 0.  0.
         12    1    1    2    0    0  0.78274138944E+00  0.59278987406E+00 -0.65597643527E+00  0.11808424963E+01  0.00000000000E+00 0. -1.
         11    1    3    3    0    0 -0.60087369187E+01 -0.62263859091E+01  0.31520918657E+01  0.92091521998E+01  0.51100000000E-03 0. -1.
        -11    1    3    3    0    0  0.19890731832E+02  0.95432721503E+01  0.34420260928E+02  0.40883610637E+02  0.51100000000E-03 0.  1.
         12    1    3    3    0    0 -0.14664736303E+02 -0.39096761153E+01 -0.36916376358E+02  0.39914394666E+02  0.00000000000E+00 0. -1.
</event>
<event>
 7    1  0.1935465E-015  0.9000785E+02  0.7816164E-02  0.1186339E+00
        -11   -1    0    0    0    0  0.00000000000E+00  0.00000000000E+00  0.45593999997E+02  0.45594000000E+02  0.51100000000E-03 0. -1.
         11   -1    0    0    0    0 -0.00000000000E+00 -0.00000000000E+00 -0.45593999997E+02  0.45594000000E+02  0.51100000000E-03 0.  1.
    9900012    2    1    2    0    0 -0.15402704142E+00 -0.11259008932E+01 -0.31840808231E+00  0.90007847104E+02  0.90000109886E+02 0.  0.
         12    1    1    2    0    0  0.15402704142E+00  0.11259008932E+01  0.31840808231E+00  0.11801528959E+01  0.00000000000E+00 0. -1.
         11    1    3    3    0    0 -0.88984290407E+01 -0.35260918684E+02  0.21971479106E+02  0.42488355113E+02  0.51100000000E-03 0. -1.
        -11    1    3    3    0    0 -0.71215859489E+01  0.50011432276E+01 -0.59323206645E+01  0.10531896730E+02  0.51100000000E-03 0.  1.
        -12    1    3    3    0    0  0.15865987948E+02  0.29133874563E+02 -0.16357566524E+02  0.36987595261E+02  0.00000000000E+00 0.  1.
</event>
<event>
 7    1  0.1935465E-015  0.9000770E+02  0.7816164E-02  0.1186339E+00
        -11   -1    0    0    0    0  0.00000000000E+00  0.00000000000E+00  0.45593999997E+02  0.45594000000E+02  0.51100000000E-03 0.  1.
         11   -1    0    0    0    0 -0.00000000000E+00 -0.00000000000E+00 -0.45593999997E+02  0.45594000000E+02  0.51100000000E-03 0. -1.
    9900012    2    1    2    0    0  0.31937088127E-01  0.11719141356E+01 -0.13672819426E+00  0.90007704563E+02  0.89999965464E+02 0.  0.
         12    1    1    2    0    0 -0.31937088127E-01 -0.11719141356E+01  0.13672819426E+00  0.11802954367E+01  0.00000000000E+00 0. -1.
         11    1    3    3    0    0  0.84215778348E+01  0.23348098158E+02 -0.26794997789E+01  0.24964702685E+02  0.51100000000E-03 0. -1.
        -11    1    3    3    0    0  0.15133676097E+02  0.40739308747E+01  0.20242686802E+02  0.25600613942E+02  0.51100000000E-03 0.  1.
        -12    1    3    3    0    0 -0.23523316844E+02 -0.26250114897E+02 -0.17699915217E+02  0.39442387937E+02  0.00000000000E+00 0.  1.
</event>
<event>
 7    1  0.1935465E-015  0.9000744E+02  0.7816164E-02  0.1186340E+00
        -11   -1    0    0    0    0  0.00000000000E+00  0.00000000000E+00  0.45593999997E+02  0.45594000000E+02  0.51100000000E-03 0. -1.
         11   -1    0    0    0    0 -0.00000000000E+00 -0.00000000000E+00 -0.45593999997E+02  0.45594000000E+02  0.51100000000E-03 0.  1.
    9900012    2    1    2    0    0 -0.73224967511E+00 -0.23621748225E+00 -0.89539697729E+00  0.90007439103E+02  0.89999696498E+02 0.  0.
         12    1    1    2    0    0  0.73224967511E+00  0.23621748225E+00  0.89539697729E+00  0.11805608974E+01  0.00000000000E+00 0. -1.
         11    1    3    3    0    0 -0.94909807787E+01 -0.60630585993E+01  0.36994606870E+02  0.38670923618E+02  0.51100000000E-03 0. -1.
        -11    1    3    3    0    0  0.71905661894E+01  0.32379432020E+01  0.43378634118E+01  0.90003098582E+01  0.51100000000E-03 0.  1.
        -12    1    3    3    0    0  0.15681649142E+01  0.25888979150E+01 -0.42227867259E+02  0.42336205627E+02  0.00000000000E+00 0.  1.
</event>
<event>
 7    1  0.1935465E-015  0.9000780E+02  0.7816164E-02  0.1186339E+00
        -11   -1    0    0    0    0  0.00000000000E+00  0.00000000000E+00  0.45593999997E+02  0.45594000000E+02  0.51100000000E-03 0.  1.
         11   -1    0    0    0    0 -0.00000000000E+00 -0.00000000000E+00 -0.45593999997E+02  0.45594000000E+02  0.51100000000E-03 0. -1.
    9900012    2    1    2    0    0  0.20562975943E+00  0.55040149966E+00  0.10235485930E+01  0.90007797843E+02  0.90000059975E+02 0.  0.
         12    1    1    2    0    0 -0.20562975943E+00 -0.55040149966E+00 -0.10235485930E+01  0.11802021568E+01  0.00000000000E+00 0. -1.
         11    1    3    3    0    0  0.20925857075E+02  0.91384915143E+01 -0.31748523567E+02  0.39107189498E+02  0.51100000000E-03 0. -1.
        -11    1    3    3    0    0  0.36306140152E+01  0.39530511443E+01 -0.27610583924E+01  0.60358441981E+01  0.51100000000E-03 0.  1.
        -12    1    3    3    0    0 -0.24350841331E+02 -0.12541141159E+02  0.35533130553E+02  0.44864764147E+02  0.00000000000E+00 0.  1.
</event>
<event>
 7    1  0.1935465E-015  0.9000775E+02  0.7816164E-02  0.1186339E+00
        -11   -1    0    0    0    0  0.00000000000E+00  0.00000000000E+00  0.45593999997E+02  0.45594000000E+02  0.51100000000E-03 0. -1.
         11   -1    0    0    0    0 -0.00000000000E+00 -0.00000000000E+00 -0.45593999997E+02  0.45594000000E+02  0.51100000000E-03 0.  1.
    9900012    2    1    2    0    0 -0.10003474242E+01  0.51220953547E+00  0.36046599718E+00  0.90007750318E+02  0.90000011822E+02 0.  0.
         12    1    1    2    0    0  0.10003474242E+01 -0.51220953547E+00 -0.36046599718E+00  0.11802496822E+01  0.00000000000E+00 0. -1.
         11    1    3    3    0    0  0.12065461203E+02  0.88527786041E+01  0.27959931204E+01  0.15223817552E+02  0.51100000000E-03 0. -1.
        -11    1    3    3    0    0 -0.24620097252E+01  0.20941130751E+02 -0.27608784014E+02  0.34739565397E+02  0.51100000000E-03 0.  1.
         12    1    3    3    0    0 -0.10603798902E+02 -0.29281699820E+02  0.25173256890E+02  0.40044367369E+02  0.00000000000E+00 0. -1.
</event>
<event>
 7    1  0.1935465E-015  0.9000775E+02  0.7816164E-02  0.1186339E+00
        -11   -1    0    0    0    0  0.00000000000E+00  0.00000000000E+00  0.45593999997E+02  0.45594000000E+02  0.51100000000E-03 0.  1.
         11   -1    0    0    0    0 -0.00000000000E+00 -0.00000000000E+00 -0.45593999997E+02  0.45594000000E+02  0.51100000000E-03 0. -1.
    9900012    2    1    2    0    0 -0.26940504166E+00 -0.51543125697E+00  0.10270088992E+01  0.90007747596E+02  0.90000009065E+02 0.  0.
         12    1    1    2    0    0  0.26940504166E+00  0.51543125697E+00 -0.10270088992E+01  0.11802524036E+01  0.00000000000E+00 0. -1.
         11    1    3    3    0    0 -0.17698844365E+02  0.29037443831E+02 -0.39821903836E+01  0.34238575855E+02  0.51100000000E-03 0. -1.
        -11    1    3    3    0    0 -0.32506292911E+01  0.95118002050E+01 -0.37134096109E+01  0.10715892176E+02  0.51100000000E-03 0.  1.
        -12    1    3    3    0    0  0.20680068614E+02 -0.39064675293E+02  0.87226088937E+01  0.45053279565E+02  0.00000000000E+00 0.  1.
</event>
<event>
 7    1  0.1935465E-015  0.9000769E+02  0.7816164E-02  0.1186339E+00
        -11   -1    0    0    0    0  0.00000000000E+00  0.00000000000E+00  0.45593999997E+02  0.45594000000E+02  0.51100000000E-03 0.  1.
         11   -1    0    0    0    0 -0.00000000000E+00 -0.00000000000E+00 -0.45593999997E+02  0.45594000000E+02  0.51100000000E-03 0. -1.
    9900012    2    1    2    0    0  0.11519726860E+01 -0.18265675499E+00 -0.18091628951E+00  0.90007688489E+02  0.89999949177E+02 0.  0.
         12    1    1    2    0    0 -0.11519726860E+01  0.18265675499E+00  0.18091628951E+00  0.11803115111E+01  0.00000000000E+00 0. -1.
         11    1    3    3    0    0 -0.89530865153E+00 -0.60581325370E+01  0.68619916726E+01  0.91972537963E+01  0.51100000000E-03 0. -1.
        -11    1    3    3    0    0 -0.36759635799E+02 -0.86187418518E+01  0.39187740347E+01  0.37959324617E+02  0.51100000000E-03 0.  1.
         12    1    3    3    0    0  0.38806917137E+02  0.14494217634E+02 -0.10961681997E+02  0.42851110075E+02  0.00000000000E+00 0. -1.
</event>
<event>
 7    1  0.1935465E-015  0.9000771E+02  0.7816164E-02  0.1186339E+00
        -11   -1    0    0    0    0  0.00000000000E+00  0.00000000000E+00  0.45593999997E+02  0.45594000000E+02  0.51100000000E-03 0.  1.
         11   -1    0    0    0    0 -0.00000000000E+00 -0.00000000000E+00 -0.45593999997E+02  0.45594000000E+02  0.51100000000E-03 0. -1.
    9900012    2    1    2    0    0  0.80852142148E+00 -0.28262464749E+00  0.81210003410E+00  0.90007707644E+02  0.89999968585E+02 0.  0.
         12    1    1    2    0    0 -0.80852142148E+00  0.28262464749E+00 -0.81210003410E+00  0.11802923561E+01  0.00000000000E+00 0. -1.
         11    1    3    3    0    0  0.34484934408E+02 -0.93072350642E+01 -0.79888271850E+01  0.36601320820E+02  0.51100000000E-03 0. -1.
        -11    1    3    3    0    0  0.62400999357E+01  0.93198295122E+01  0.74521924781E+01  0.13466003206E+02  0.51100000000E-03 0.  1.
        -12    1    3    3    0    0 -0.39916512922E+02 -0.29521909551E+00  0.13487347410E+01  0.39940383619E+02  0.00000000000E+00 0.  1.
</event>
<event>
 7    1  0.1935465E-015  0.9000769E+02  0.7816164E-02  0.1186339E+00
        -11   -1    0    0    0    0  0.00000000000E+00  0.00000000000E+00  0.45593999997E+02  0.45594000000E+02  0.51100000000E-03 0. -1.
         11   -1    0    0    0    0 -0.00000000000E+00 -0.00000000000E+00 -0.45593999997E+02  0.45594000000E+02  0.51100000000E-03 0.  1.
    9900012    2    1    2    0    0 -0.85242582287E+00 -0.79361235028E+00 -0.19150361153E+00  0.90007693269E+02  0.89999954020E+02 0.  0.
         12    1    1    2    0    0  0.85242582287E+00  0.79361235028E+00  0.19150361153E+00  0.11803067310E+01  0.00000000000E+00 0. -1.
         11    1    3    3    0    0  0.10805490795E+02 -0.57755133018E+01  0.35664040357E+01  0.12760659200E+02  0.51100000000E-03 0. -1.
        -11    1    3    3    0    0 -0.24104803372E+02  0.18362849585E+02  0.27577066927E+02  0.40972312737E+02  0.51100000000E-03 0.  1.
         12    1    3    3    0    0  0.12446886754E+02 -0.13380948633E+02 -0.31334974574E+02  0.36274721332E+02  0.00000000000E+00 0. -1.
</event>
<event>
 7    1  0.1935465E-015  0.9000787E+02  0.7816164E-02  0.1186339E+00
        -11   -1    0    0    0    0  0.00000000000E+00  0.00000000000E+00  0.45593999997E+02  0.45594000000E+02  0.51100000000E-03 0.  1.
         11   -1    0    0    0    0 -0.00000000000E+00 -0.00000000000E+00 -0.45593999997E+02  0.45594000000E+02  0.51100000000E-03 0. -1.
    9900012    2    1    2    0    0 -0.10290898217E+01  0.49802287565E+00  0.29267950327E+00  0.90007866983E+02  0.90000130027E+02 0.  0.
         12    1    1    2    0    0  0.10290898217E+01 -0.49802287565E+00 -0.29267950327E+00  0.11801330169E+01  0.00000000000E+00 0. -1.
         11    1    3    3    0    0 -0.12109593675E+02 -0.40846657839E+01 -0.10916755656E+01  0.12826476888E+02  0.51100000000E-03 0. -1.
        -11    1    3    3    0    0 -0.18168405213E+02 -0.45458025000E+00 -0.29308278156E+02  0.34485834192E+02  0.51100000000E-03 0.  1.
         12    1    3    3    0    0  0.29248909067E+02  0.50372689096E+01  0.30692633225E+02  0.42695555904E+02  0.00000000000E+00 0. -1.
</event>
<event>
 7    1  0.1935465E-015  0.9000772E+02  0.7816164E-02  0.1186339E+00
        -11   -1    0    0    0    0  0.00000000000E+00  0.00000000000E+00  0.45593999997E+02  0.45594000000E+02  0.51100000000E-03 0. -1.
         11   -1    0    0    0    0 -0.00000000000E+00 -0.00000000000E+00 -0.45593999997E+02  0.45594000000E+02  0.51100000000E-03 0.  1.
    9900012    2    1    2    0    0 -0.99105882927E+00 -0.37500760517E+00 -0.51982882511E+00  0.90007724475E+02  0.89999985638E+02 0.  0.
         12    1    1    2    0    0  0.99105882927E+00  0.37500760517E+00  0.51982882511E+00  0.11802755248E+01  0.00000000000E+00 0. -1.
         11    1    3    3    0    0 -0.33266179350E+01  0.78210968565E+01  0.59506456088E+01  0.10375265122E+02  0.51100000000E-03 0. -1.
        -11    1    3    3    0    0 -0.10011365638E+02  0.33322601096E+02 -0.99174895370E+01  0.36179825659E+02  0.51100000000E-03 0.  1.
         12    1    3    3    0    0  0.12346924744E+02 -0.41518705558E+02  0.34470151030E+01  0.43452633694E+02  0.00000000000E+00 0. -1.
</event>
<event>
 7    1  0.1935465E-015  0.9000771E+02  0.7816164E-02  0.1186339E+00
        -11   -1    0    0    0    0  0.00000000000E+00  0.00000000000E+00  0.45593999997E+02  0.45594000000E+02  0.51100000000E-03 0.  1.
         11   -1    0    0    0    0 -0.00000000000E+00 -0.00000000000E+00 -0.45593999997E+02  0.45594000000E+02  0.51100000000E-03 0. -1.
    9900012    2    1    2    0    0  0.16327459416E+00 -0.85381826691E+00  0.79838843751E+00  0.90007708374E+02  0.89999969324E+02 0.  0.
         12    1    1    2    0    0 -0.16327459416E+00  0.85381826691E+00 -0.79838843751E+00  0.11802916263E+01  0.00000000000E+00 0. -1.
         11    1    3    3    0    0  0.33371965634E+01  0.34992402732E+02 -0.95862301326E+01  0.36434886281E+02  0.51100000000E-03 0. -1.
        -11    1    3    3    0    0  0.20155083181E+01  0.80464828510E+01  0.26087377425E+01  0.86956122799E+01  0.51100000000E-03 0.  1.
        -12    1    3    3    0    0 -0.51894302873E+01 -0.43892703850E+02  0.77758808276E+01  0.44877209813E+02  0.00000000000E+00 0.  1.
</event>
<event>
 7    1  0.1935465E-015  0.9000767E+02  0.7816164E-02  0.1186339E+00
        -11   -1    0    0    0    0  0.00000000000E+00  0.00000000000E+00  0.45593999997E+02  0.45594000000E+02  0.51100000000E-03 0. -1.
         11   -1    0    0    0    0 -0.00000000000E+00 -0.00000000000E+00 -0.45593999997E+02  0.45594000000E+02  0.51100000000E-03 0.  1.
    9900012    2    1    2    0    0 -0.38552623751E+00 -0.17287334362E+00 -0.11021159002E+01  0.90007671601E+02  0.89999932066E+02 0.  0.
         12    1    1    2    0    0  0.38552623751E+00  0.17287334362E+00  0.11021159002E+01  0.11803283993E+01  0.00000000000E+00 0. -1.
         11    1    3    3    0    0  0.28579492095E-01 -0.13914058589E+02 -0.13868445790E+02  0.19645244516E+02  0.51100000000E-03 0. -1.
        -11    1    3    3    0    0 -0.29246566989E+02 -0.10945465570E+02  0.51712860606E+01  0.31652916090E+02  0.51100000000E-03 0.  1.
         12    1    3    3    0    0  0.28832461260E+02  0.24686650815E+02  0.75950438288E+01  0.38709510995E+02  0.00000000000E+00 0. -1.
</event>
<event>
 7    1  0.1935465E-015  0.9000771E+02  0.7816164E-02  0.1186339E+00
        -11   -1    0    0    0    0  0.00000000000E+00  0.00000000000E+00  0.45593999997E+02  0.45594000000E+02  0.51100000000E-03 0.  1.
         11   -1    0    0    0    0 -0.00000000000E+00 -0.00000000000E+00 -0.45593999997E+02  0.45594000000E+02  0.51100000000E-03 0. -1.
    9900012    2    1    2    0    0 -0.39670665376E+00  0.10601005905E+01 -0.33451334852E+00  0.90007708252E+02  0.89999969200E+02 0.  0.
         12    1    1    2    0    0  0.39670665376E+00 -0.10601005905E+01  0.33451334852E+00  0.11802917485E+01  0.00000000000E+00 0. -1.
         11    1    3    3    0    0  0.81785805700E+01  0.41544571766E+02  0.72278615159E+01  0.42954424751E+02  0.51100000000E-03 0. -1.
        -11    1    3    3    0    0 -0.25153756424E+01 -0.58059533772E+01 -0.99246759833E+01  0.11770106324E+02  0.51100000000E-03 0.  1.
        -12    1    3    3    0    0 -0.60599115813E+01 -0.34678517798E+02  0.23623011189E+01  0.35283177176E+02  0.00000000000E+00 0.  1.
</event>
<event>
 7    1  0.1935465E-015  0.9000740E+02  0.7816164E-02  0.1186340E+00
        -11   -1    0    0    0    0  0.00000000000E+00  0.00000000000E+00  0.45593999997E+02  0.45594000000E+02  0.51100000000E-03 0.  1.
         11   -1    0    0    0    0 -0.00000000000E+00 -0.00000000000E+00 -0.45593999997E+02  0.45594000000E+02  0.51100000000E-03 0. -1.
    9900012    2    1    2    0    0 -0.85329844904E-01 -0.11673312350E+01  0.15449595306E+00  0.90007401680E+02  0.89999658581E+02 0.  0.
         12    1    1    2    0    0  0.85329844904E-01  0.11673312350E+01 -0.15449595306E+00  0.11805983204E+01  0.00000000000E+00 0. -1.
         11    1    3    3    0    0 -0.12965379101E+02 -0.21405605623E+02 -0.26259712562E+02  0.36274970867E+02  0.51100000000E-03 0. -1.
        -11    1    3    3    0    0 -0.12382142954E+02 -0.11543310208E+01  0.19899258217E+01  0.12594036258E+02  0.51100000000E-03 0.  1.
        -12    1    3    3    0    0  0.25262192210E+02  0.21392605409E+02  0.24424282694E+02  0.41138394554E+02  0.00000000000E+00 0.  1.
</event>
<event>
 7    1  0.1935465E-015  0.9000761E+02  0.7816164E-02  0.1186339E+00
        -11   -1    0    0    0    0  0.00000000000E+00  0.00000000000E+00  0.45593999997E+02  0.45594000000E+02  0.51100000000E-03 0.  1.
         11   -1    0    0    0    0 -0.00000000000E+00 -0.00000000000E+00 -0.45593999997E+02  0.45594000000E+02  0.51100000000E-03 0. -1.
    9900012    2    1    2    0    0  0.11713356908E+01  0.93200610512E-01  0.11227558524E+00  0.90007610462E+02  0.89999870120E+02 0.  0.
         12    1    1    2    0    0 -0.11713356908E+01 -0.93200610512E-01 -0.11227558524E+00  0.11803895380E+01  0.00000000000E+00 0. -1.
         11    1    3    3    0    0 -0.11146618335E+02 -0.21690316061E+02 -0.27637547097E+02  0.36858525757E+02  0.51100000000E-03 0. -1.
        -11    1    3    3    0    0  0.63948128756E+01 -0.46768947342E+01 -0.59405446896E+01  0.99023758532E+01  0.51100000000E-03 0.  1.
        -12    1    3    3    0    0  0.59231411497E+01  0.26460411406E+02  0.33690367372E+02  0.43246708852E+02  0.00000000000E+00 0.  1.
</event>
<event>
 7    1  0.1935465E-015  0.9000777E+02  0.7816164E-02  0.1186339E+00
        -11   -1    0    0    0    0  0.00000000000E+00  0.00000000000E+00  0.45593999997E+02  0.45594000000E+02  0.51100000000E-03 0. -1.
         11   -1    0    0    0    0 -0.00000000000E+00 -0.00000000000E+00 -0.45593999997E+02  0.45594000000E+02  0.51100000000E-03 0.  1.
    9900012    2    1    2    0    0  0.52559053053E+00 -0.53666369894E+00 -0.91032558694E+00  0.90007768664E+02  0.90000030411E+02 0.  0.
         12    1    1    2    0    0 -0.52559053053E+00  0.53666369894E+00  0.91032558694E+00  0.11802313357E+01  0.00000000000E+00 0. -1.
         11    1    3    3    0    0  0.62314569407E+01 -0.27377433681E+01  0.73257793207E+01  0.99996668579E+01  0.51100000000E-03 0. -1.
        -11    1    3    3    0    0  0.11124519795E+01 -0.26829709658E+02  0.24056519255E+02  0.36052558698E+02  0.51100000000E-03 0.  1.
         12    1    3    3    0    0 -0.68183183896E+01  0.29030789327E+02 -0.32292624163E+02  0.43955543108E+02  0.00000000000E+00 0. -1.
</event>
<event>
 7    1  0.1935465E-015  0.9000779E+02  0.7816164E-02  0.1186339E+00
        -11   -1    0    0    0    0  0.00000000000E+00  0.00000000000E+00  0.45593999997E+02  0.45594000000E+02  0.51100000000E-03 0. -1.
         11   -1    0    0    0    0 -0.00000000000E+00 -0.00000000000E+00 -0.45593999997E+02  0.45594000000E+02  0.51100000000E-03 0.  1.
    9900012    2    1    2    0    0  0.82669158851E+00 -0.75674254968E+00  0.36988842091E+00  0.90007789971E+02  0.90000051998E+02 0.  0.
         12    1    1    2    0    0 -0.82669158851E+00  0.75674254968E+00 -0.36988842091E+00  0.11802100292E+01  0.00000000000E+00 0. -1.
         11    1    3    3    0    0  0.43382468988E+01  0.50974838195E+01  0.15412397594E+01  0.68687806562E+01  0.51100000000E-03 0. -1.
        -11    1    3    3    0    0  0.35108251172E+01  0.29805319194E+02 -0.25517899984E+02  0.39393478713E+02  0.51100000000E-03 0.  1.
        -12    1    3    3    0    0 -0.70223804276E+01 -0.35659545564E+02  0.24346548645E+02  0.43745530602E+02  0.00000000000E+00 0.  1.
</event>
<event>
 7    1  0.1935465E-015  0.9000778E+02  0.7816164E-02  0.1186339E+00
        -11   -1    0    0    0    0  0.00000000000E+00  0.00000000000E+00  0.45593999997E+02  0.45594000000E+02  0.51100000000E-03 0. -1.
         11   -1    0    0    0    0 -0.00000000000E+00 -0.00000000000E+00 -0.45593999997E+02  0.45594000000E+02  0.51100000000E-03 0.  1.
    9900012    2    1    2    0    0  0.63493324928E+00 -0.68020851748E+00 -0.72600588973E+00  0.90007784592E+02  0.90000046548E+02 0.  0.
         12    1    1    2    0    0 -0.63493324928E+00  0.68020851748E+00  0.72600588973E+00  0.11802154084E+01  0.00000000000E+00 0. -1.
         11    1    3    3    0    0 -0.25438719324E+02 -0.31595014517E+02  0.48533513951E+01  0.40852520157E+02  0.51100000000E-03 0. -1.
        -11    1    3    3    0    0 -0.57785593634E+01  0.61558084445E+01 -0.18225018185E+01  0.86375482089E+01  0.51100000000E-03 0.  1.
        -12    1    3    3    0    0  0.31852211937E+02  0.24758997555E+02 -0.37568554663E+01  0.40517716226E+02  0.00000000000E+00 0.  1.
</event>
<event>
 7    1  0.1935465E-015  0.9000773E+02  0.7816164E-02  0.1186339E+00
        -11   -1    0    0    0    0  0.00000000000E+00  0.00000000000E+00  0.45593999997E+02  0.45594000000E+02  0.51100000000E-03 0. -1.
         11   -1    0    0    0    0 -0.00000000000E+00 -0.00000000000E+00 -0.45593999997E+02  0.45594000000E+02  0.51100000000E-03 0.  1.
    9900012    2    1    2    0    0  0.10153311985E+01 -0.25380707930E+00  0.54564202733E+00  0.90007728549E+02  0.89999989766E+02 0.  0.
         12    1    1    2    0    0 -0.10153311985E+01  0.25380707930E+00 -0.54564202733E+00  0.11802714510E+01  0.00000000000E+00 0. -1.
         11    1    3    3    0    0  0.11396005564E+02 -0.10684928782E+02  0.37271046730E+02  0.40412468008E+02  0.51100000000E-03 0. -1.
        -11    1    3    3    0    0 -0.86454948039E+01  0.17192637152E+01  0.26704014009E+01  0.92104012958E+01  0.51100000000E-03 0.  1.
        -12    1    3    3    0    0 -0.17351795619E+01  0.87118579875E+01 -0.39395806103E+02  0.40384859245E+02  0.00000000000E+00 0.  1.
</event>
<event>
 7    1  0.1935465E-015  0.9000780E+02  0.7816164E-02  0.1186339E+00
        -11   -1    0    0    0    0  0.00000000000E+00  0.00000000000E+00  0.45593999997E+02  0.45594000000E+02  0.51100000000E-03 0.  1.
         11   -1    0    0    0    0 -0.00000000000E+00 -0.00000000000E+00 -0.45593999997E+02  0.45594000000E+02  0.51100000000E-03 0. -1.
    9900012    2    1    2    0    0  0.10808353860E+01  0.16100681063E+00  0.44580624743E+00  0.90007800214E+02  0.90000062377E+02 0.  0.
         12    1    1    2    0    0 -0.10808353860E+01 -0.16100681063E+00 -0.44580624743E+00  0.11801997860E+01  0.00000000000E+00 0. -1.
         11    1    3    3    0    0  0.84109401582E+01 -0.26903315784E+01 -0.20568119635E+01  0.90670984367E+01  0.51100000000E-03 0. -1.
        -11    1    3    3    0    0  0.33169418030E+02 -0.12652446316E+02  0.10111587819E+02  0.36912584558E+02  0.51100000000E-03 0.  1.
         12    1    3    3    0    0 -0.40499522803E+02  0.15503784705E+02 -0.76089696084E+01  0.44028117220E+02  0.00000000000E+00 0. -1.
</event>
<event>
 7    1  0.1935465E-015  0.9000766E+02  0.7816164E-02  0.1186339E+00
        -11   -1    0    0    0    0  0.00000000000E+00  0.00000000000E+00  0.45593999997E+02  0.45594000000E+02  0.51100000000E-03 0.  1.
         11   -1    0    0    0    0 -0.00000000000E+00 -0.00000000000E+00 -0.45593999997E+02  0.45594000000E+02  0.51100000000E-03 0. -1.
    9900012    2    1    2    0    0 -0.69839579592E+00 -0.43396037116E+00  0.84683173879E+00  0.90007660098E+02  0.89999920411E+02 0.  0.
         12    1    1    2    0    0  0.69839579592E+00  0.43396037116E+00 -0.84683173879E+00  0.11803399025E+01  0.00000000000E+00 0. -1.
         11    1    3    3    0    0  0.38352567046E+02  0.42367146821E+01 -0.49392084530E+01  0.38900706044E+02  0.51100000000E-03 0. -1.
        -11    1    3    3    0    0 -0.16627439708E+00 -0.91569540727E+01 -0.50947240469E+01  0.10480155936E+02  0.51100000000E-03 0.  1.
        -12    1    3    3    0    0 -0.38884688445E+02  0.44862790194E+01  0.10880764239E+02  0.40626798118E+02  0.00000000000E+00 0.  1.
</event>
<event>
 7    1  0.1935465E-015  0.9000775E+02  0.7816164E-02  0.1186339E+00
        -11   -1    0    0    0    0  0.00000000000E+00  0.00000000000E+00  0.45593999997E+02  0.45594000000E+02  0.51100000000E-03 0.  1.
         11   -1    0    0    0    0 -0.00000000000E+00 -0.00000000000E+00 -0.45593999997E+02  0.45594000000E+02  0.51100000000E-03 0. -1.
    9900012    2    1    2    0    0  0.57089247283E+00 -0.56376914377E+00 -0.86558565197E+00  0.90007749017E+02  0.90000010504E+02 0.  0.
         12    1    1    2    0    0 -0.57089247283E+00  0.56376914377E+00  0.86558565197E+00  0.11802509834E+01  0.00000000000E+00 0. -1.
         11    1    3    3    0    0  0.16362413523E+02  0.17024807754E+02  0.88774258757E+01  0.25226599965E+02  0.51100000000E-03 0. -1.
        -11    1    3    3    0    0  0.10748381328E+02  0.48446986800E+01  0.17169575360E+02  0.20827700900E+02  0.51100000000E-03 0.  1.
         12    1    3    3    0    0 -0.26539902379E+02 -0.22433275578E+02 -0.26912586887E+02  0.43953448151E+02  0.00000000000E+00 0. -1.
</event>
<event>
 7    1  0.1935465E-015  0.9000775E+02  0.7816164E-02  0.1186339E+00
        -11   -1    0    0    0    0  0.00000000000E+00  0.00000000000E+00  0.45593999997E+02  0.45594000000E+02  0.51100000000E-03 0.  1.
         11   -1    0    0    0    0 -0.00000000000E+00 -0.00000000000E+00 -0.45593999997E+02  0.45594000000E+02  0.51100000000E-03 0. -1.
    9900012    2    1    2    0    0 -0.13386150159E+00  0.33075264988E+00  0.11250226231E+01  0.90007749129E+02  0.90000010617E+02 0.  0.
         12    1    1    2    0    0  0.13386150159E+00 -0.33075264988E+00 -0.11250226231E+01  0.11802508714E+01  0.00000000000E+00 0. -1.
         11    1    3    3    0    0 -0.97211792662E+01  0.22128533965E+01  0.54480799125E+01  0.11361321291E+02  0.51100000000E-03 0. -1.
        -11    1    3    3    0    0 -0.32265564775E+02  0.57073073873E+01  0.91643011769E+01  0.34023880498E+02  0.51100000000E-03 0.  1.
         12    1    3    3    0    0  0.41852882539E+02 -0.75894081340E+01 -0.13487358466E+02  0.44622547339E+02  0.00000000000E+00 0. -1.
</event>
<event>
 7    1  0.1935465E-015  0.9000782E+02  0.7816164E-02  0.1186339E+00
        -11   -1    0    0    0    0  0.00000000000E+00  0.00000000000E+00  0.45593999997E+02  0.45594000000E+02  0.51100000000E-03 0.  1.
         11   -1    0    0    0    0 -0.00000000000E+00 -0.00000000000E+00 -0.45593999997E+02  0.45594000000E+02  0.51100000000E-03 0. -1.
    9900012    2    1    2    0    0 -0.71167605325E+00 -0.93791019109E+00  0.81616198617E-01  0.90007822244E+02  0.90000084698E+02 0.  0.
         12    1    1    2    0    0  0.71167605325E+00  0.93791019109E+00 -0.81616198617E-01  0.11801777558E+01  0.00000000000E+00 0. -1.
         11    1    3    3    0    0 -0.22317333995E+02 -0.14074489203E+01 -0.26014570355E+02  0.34304550428E+02  0.51100000000E-03 0. -1.
        -11    1    3    3    0    0 -0.13400457622E+02  0.35592287943E+01  0.51405577293E+01  0.14787349598E+02  0.51100000000E-03 0.  1.
        -12    1    3    3    0    0  0.35006115564E+02 -0.30896900651E+01  0.20955628824E+02  0.40915922218E+02  0.00000000000E+00 0.  1.
</event>
<event>
 7    1  0.1935465E-015  0.9000769E+02  0.7816164E-02  0.1186339E+00
        -11   -1    0    0    0    0  0.00000000000E+00  0.00000000000E+00  0.45593999997E+02  0.45594000000E+02  0.51100000000E-03 0.  1.
         11   -1    0    0    0    0 -0.00000000000E+00 -0.00000000000E+00 -0.45593999997E+02  0.45594000000E+02  0.51100000000E-03 0. -1.
    9900012    2    1    2    0    0 -0.18673943924E+00  0.10044380524E+01  0.59106281017E+00  0.90007693826E+02  0.89999954584E+02 0.  0.
         12    1    1    2    0    0  0.18673943924E+00 -0.10044380524E+01 -0.59106281017E+00  0.11803061742E+01  0.00000000000E+00 0. -1.
         11    1    3    3    0    0  0.14034118612E+02 -0.25078873801E+02 -0.18837523261E+02  0.34362169302E+02  0.51100000000E-03 0. -1.
        -11    1    3    3    0    0  0.39493252247E+01 -0.71057656434E+01 -0.59594933068E+01  0.10079912492E+02  0.51100000000E-03 0.  1.
        -12    1    3    3    0    0 -0.18170183276E+02  0.33189077496E+02  0.25388079377E+02  0.45565612032E+02  0.00000000000E+00 0.  1.
</event>
<event>
 7    1  0.1937321E-015  0.9000777E+02  0.7816164E-02  0.1186339E+00
        -11   -1    0    0    0    0  0.00000000000E+00  0.00000000000E+00  0.45593999997E+02  0.45594000000E+02  0.51100000000E-03 0.  1.
         11   -1    0    0    0    0 -0.00000000000E+00 -0.00000000000E+00 -0.45593999997E+02  0.45594000000E+02  0.51100000000E-03 0. -1.
    9900012    2    1    2    0    0 -0.11027538719E+01 -0.27027771786E+00  0.32222852822E+00  0.90007768086E+02  0.90000029825E+02 0.  0.
         12    1    1    2    0    0  0.11027538719E+01  0.27027771786E+00 -0.32222852822E+00  0.11802319142E+01  0.00000000000E+00 0. -1.
         11    1    3    3    0    0 -0.35862294849E+01 -0.85515599973E+01 -0.43093260329E+01  0.10225483432E+02  0.51100000000E-03 0. -1.
        -11    1    3    3    0    0  0.84373594353E+01 -0.53433467914E+01  0.40099160162E+02  0.41324121710E+02  0.51100000000E-03 0.  1.
         12    1    3    3    0    0 -0.59538838223E+01  0.13624629071E+02 -0.35467605601E+02  0.38458162943E+02  0.00000000000E+00 0. -1.
</event>
<event>
 7    1  0.1935465E-015  0.9000785E+02  0.7816164E-02  0.1186339E+00
        -11   -1    0    0    0    0  0.00000000000E+00  0.00000000000E+00  0.45593999997E+02  0.45594000000E+02  0.51100000000E-03 0.  1.
         11   -1    0    0    0    0 -0.00000000000E+00 -0.00000000000E+00 -0.45593999997E+02  0.45594000000E+02  0.51100000000E-03 0. -1.
    9900012    2    1    2    0    0  0.33000381274E+00  0.38578286405E+00  0.10653740635E+01  0.90007850505E+02  0.90000113332E+02 0.  0.
         12    1    1    2    0    0 -0.33000381274E+00 -0.38578286405E+00 -0.10653740635E+01  0.11801494947E+01  0.00000000000E+00 0. -1.
         11    1    3    3    0    0 -0.22277350170E+01 -0.26963699366E+01  0.57745441371E+01  0.67511905908E+01  0.51100000000E-03 0. -1.
        -11    1    3    3    0    0 -0.83314239026E+01  0.41695563310E+02  0.20623284361E+01  0.42569775931E+02  0.51100000000E-03 0.  1.
         12    1    3    3    0    0  0.10889162732E+02 -0.38613410510E+02 -0.67714985097E+01  0.40686883983E+02  0.00000000000E+00 0. -1.
</event>
<event>
 7    1  0.1935465E-015  0.9000766E+02  0.7816164E-02  0.1186339E+00
        -11   -1    0    0    0    0  0.00000000000E+00  0.00000000000E+00  0.45593999997E+02  0.45594000000E+02  0.51100000000E-03 0. -1.
         11   -1    0    0    0    0 -0.00000000000E+00 -0.00000000000E+00 -0.45593999997E+02  0.45594000000E+02  0.51100000000E-03 0.  1.
    9900012    2    1    2    0    0  0.46450180635E+00  0.10714263258E+01 -0.17171631922E+00  0.90007659882E+02  0.89999920192E+02 0.  0.
         12    1    1    2    0    0 -0.46450180635E+00 -0.10714263258E+01  0.17171631922E+00  0.11803401179E+01  0.00000000000E+00 0. -1.
         11    1    3    3    0    0  0.91841213697E+01 -0.42563445012E+00  0.50902625347E+01  0.10509044816E+02  0.51100000000E-03 0. -1.
        -11    1    3    3    0    0  0.12994677173E+02  0.14141346932E+02 -0.35391312292E+02  0.40266416700E+02  0.51100000000E-03 0.  1.
         12    1    3    3    0    0 -0.21714296736E+02 -0.12644286156E+02  0.30129333438E+02  0.39232198365E+02  0.00000000000E+00 0. -1.
</event>
<event>
 7    1  0.1935465E-015  0.9000775E+02  0.7816164E-02  0.1186339E+00
        -11   -1    0    0    0    0  0.00000000000E+00  0.00000000000E+00  0.45593999997E+02  0.45594000000E+02  0.51100000000E-03 0.  1.
         11   -1    0    0    0    0 -0.00000000000E+00 -0.00000000000E+00 -0.45593999997E+02  0.45594000000E+02  0.51100000000E-03 0. -1.
    9900012    2    1    2    0    0 -0.27284424335E+00 -0.10140949198E+01 -0.53867082631E+00  0.90007746321E+02  0.90000007773E+02 0.  0.
         12    1    1    2    0    0  0.27284424335E+00  0.10140949198E+01  0.53867082631E+00  0.11802536789E+01  0.00000000000E+00 0. -1.
         11    1    3    3    0    0 -0.55480230462E+01  0.71476118423E+01  0.72346928959E+01  0.11584890864E+02  0.51100000000E-03 0. -1.
        -11    1    3    3    0    0 -0.24902878358E+02 -0.86514664649E+01  0.23242330521E+02  0.35145513950E+02  0.51100000000E-03 0.  1.
         12    1    3    3    0    0  0.30178057161E+02  0.48975970278E+00 -0.31015694243E+02  0.43277341507E+02  0.00000000000E+00 0. -1.
</event>
<event>
 7    1  0.1935465E-015  0.9000777E+02  0.7816164E-02  0.1186339E+00
        -11   -1    0    0    0    0  0.00000000000E+00  0.00000000000E+00  0.45593999997E+02  0.45594000000E+02  0.51100000000E-03 0. -1.
         11   -1    0    0    0    0 -0.00000000000E+00 -0.00000000000E+00 -0.45593999997E+02  0.45594000000E+02  0.51100000000E-03 0.  1.
    9900012    2    1    2    0    0 -0.67369363503E+00  0.50930739398E+00 -0.82443042804E+00  0.90007770079E+02  0.90000031844E+02 0.  0.
         12    1    1    2    0    0  0.67369363503E+00 -0.50930739398E+00  0.82443042804E+00  0.11802299209E+01  0.00000000000E+00 0. -1.
         11    1    3    3    0    0 -0.27696793944E+02 -0.23082070938E+02  0.13510093455E+02  0.38502169016E+02  0.51100000000E-03 0. -1.
        -11    1    3    3    0    0 -0.53100624235E+01  0.30154882314E+01  0.56181897787E+01  0.82978303710E+01  0.51100000000E-03 0.  1.
        -12    1    3    3    0    0  0.32333162732E+02  0.20575890101E+02 -0.19952713662E+02  0.43207770692E+02  0.00000000000E+00 0.  1.
</event>
<event>
 7    1  0.1935465E-015  0.9000725E+02  0.7816164E-02  0.1186340E+00
        -11   -1    0    0    0    0  0.00000000000E+00  0.00000000000E+00  0.45593999997E+02  0.45594000000E+02  0.51100000000E-03 0. -1.
         11   -1    0    0    0    0 -0.00000000000E+00 -0.00000000000E+00 -0.45593999997E+02  0.45594000000E+02  0.51100000000E-03 0.  1.
    9900012    2    1    2    0    0  0.82677968988E+00  0.78839892301E+00 -0.29839027983E+00  0.90007248427E+02  0.89999503305E+02 0.  0.
         12    1    1    2    0    0 -0.82677968988E+00 -0.78839892301E+00  0.29839027983E+00  0.11807515727E+01  0.00000000000E+00 0. -1.
         11    1    3    3    0    0 -0.52000983903E+01 -0.20374795973E+02  0.30092817510E+02  0.36711728374E+02  0.51100000000E-03 0. -1.
        -11    1    3    3    0    0 -0.66193898839E+01 -0.57847371567E+01  0.22951993046E+01  0.90855625316E+01  0.51100000000E-03 0.  1.
        -12    1    3    3    0    0  0.12646267964E+02  0.26947932053E+02 -0.32686407095E+02  0.44209957522E+02  0.00000000000E+00 0.  1.
</event>
<event>
 7    1  0.2624091E-015  0.9000806E+02  0.7816164E-02  0.1186338E+00
        -11   -1    0    0    0    0  0.00000000000E+00  0.00000000000E+00  0.45593999997E+02  0.45594000000E+02  0.51100000000E-03 0.  1.
         11   -1    0    0    0    0 -0.00000000000E+00 -0.00000000000E+00 -0.45593999997E+02  0.45594000000E+02  0.51100000000E-03 0. -1.
    9900012    2    1    2    0    0  0.10387637536E+01  0.55670951303E+00  0.57476921502E-01  0.90008059657E+02  0.90000325243E+02 0.  0.
         12    1    1    2    0    0 -0.10387637536E+01 -0.55670951303E+00 -0.57476921502E-01  0.11799403435E+01  0.00000000000E+00 0. -1.
         11    1    3    3    0    0 -0.79233663983E+00  0.76535880733E+01  0.54106063124E+01  0.94063738324E+01  0.51100000000E-03 0. -1.
        -11    1    3    3    0    0 -0.98667643732E+01  0.14326736346E+02  0.31741931495E+02  0.36196113449E+02  0.51100000000E-03 0.  1.
         12    1    3    3    0    0  0.11697864767E+02 -0.21423614907E+02 -0.37095060886E+02  0.44405572375E+02  0.00000000000E+00 0. -1.
</event>
<event>
 7    1  0.1935465E-015  0.9000771E+02  0.7816164E-02  0.1186339E+00
        -11   -1    0    0    0    0  0.00000000000E+00  0.00000000000E+00  0.45593999997E+02  0.45594000000E+02  0.51100000000E-03 0.  1.
         11   -1    0    0    0    0 -0.00000000000E+00 -0.00000000000E+00 -0.45593999997E+02  0.45594000000E+02  0.51100000000E-03 0. -1.
    9900012    2    1    2    0    0  0.26248096848E-01 -0.11771560534E+01  0.81790201370E-01  0.90007714029E+02  0.89999975054E+02 0.  0.
         12    1    1    2    0    0 -0.26248096848E-01  0.11771560534E+01 -0.81790201370E-01  0.11802859711E+01  0.00000000000E+00 0. -1.
         11    1    3    3    0    0  0.36675053938E+02 -0.42793206592E+01 -0.42273490854E+01  0.37165072948E+02  0.51100000000E-03 0. -1.
        -11    1    3    3    0    0  0.60422043137E+01  0.34523054796E+01 -0.56967652996E+01  0.89933186996E+01  0.51100000000E-03 0.  1.
        -12    1    3    3    0    0 -0.42691010155E+02 -0.35014087379E+00  0.10005904586E+02  0.43849322381E+02  0.00000000000E+00 0.  1.
</event>
<event>
 7    1  0.1935465E-015  0.9000776E+02  0.7816164E-02  0.1186339E+00
        -11   -1    0    0    0    0  0.00000000000E+00  0.00000000000E+00  0.45593999997E+02  0.45594000000E+02  0.51100000000E-03 0. -1.
         11   -1    0    0    0    0 -0.00000000000E+00 -0.00000000000E+00 -0.45593999997E+02  0.45594000000E+02  0.51100000000E-03 0.  1.
    9900012    2    1    2    0    0  0.68427286771E+00  0.96163233798E+00 -0.31659484368E-02  0.90007755901E+02  0.90000017478E+02 0.  0.
         12    1    1    2    0    0 -0.68427286771E+00 -0.96163233798E+00  0.31659484368E-02  0.11802440994E+01  0.00000000000E+00 0. -1.
         11    1    3    3    0    0  0.80776637381E+01 -0.30058044202E+02  0.22253439992E+02  0.38261603004E+02  0.51100000000E-03 0. -1.
        -11    1    3    3    0    0 -0.73128679264E+01 -0.50031971430E+01  0.92505786165E+00  0.89087457742E+01  0.51100000000E-03 0.  1.
        -12    1    3    3    0    0 -0.80522943976E-01  0.36022873683E+02 -0.23181663802E+02  0.42837407122E+02  0.00000000000E+00 0.  1.
</event>
<event>
 7    1  0.1935465E-015  0.9000788E+02  0.7816164E-02  0.1186339E+00
        -11   -1    0    0    0    0  0.00000000000E+00  0.00000000000E+00  0.45593999997E+02  0.45594000000E+02  0.51100000000E-03 0.  1.
         11   -1    0    0    0    0 -0.00000000000E+00 -0.00000000000E+00 -0.45593999997E+02  0.45594000000E+02  0.51100000000E-03 0. -1.
    9900012    2    1    2    0    0  0.47123396748E+00  0.91710327574E+00  0.57405915858E+00  0.90007879757E+02  0.90000142970E+02 0.  0.
         12    1    1    2    0    0 -0.47123396748E+00 -0.91710327574E+00 -0.57405915858E+00  0.11801202430E+01  0.00000000000E+00 0. -1.
         11    1    3    3    0    0 -0.24759757813E+02  0.24288668754E+02 -0.26998224664E+02  0.43953261222E+02  0.51100000000E-03 0. -1.
        -11    1    3    3    0    0  0.40517001210E+01 -0.66373184722E+01  0.44957879223E+00  0.77892484698E+01  0.51100000000E-03 0.  1.
        -12    1    3    3    0    0  0.21179291659E+02 -0.16734247006E+02  0.27122705031E+02  0.38265370065E+02  0.00000000000E+00 0.  1.
</event>
<event>
 7    1  0.1935465E-015  0.9000771E+02  0.7816164E-02  0.1186339E+00
        -11   -1    0    0    0    0  0.00000000000E+00  0.00000000000E+00  0.45593999997E+02  0.45594000000E+02  0.51100000000E-03 0.  1.
         11   -1    0    0    0    0 -0.00000000000E+00 -0.00000000000E+00 -0.45593999997E+02  0.45594000000E+02  0.51100000000E-03 0. -1.
    9900012    2    1    2    0    0  0.16814148172E+00 -0.58204915384E+00  0.10129281904E+01  0.90007713469E+02  0.89999974487E+02 0.  0.
         12    1    1    2    0    0 -0.16814148172E+00  0.58204915384E+00 -0.10129281904E+01  0.11802865306E+01  0.00000000000E+00 0. -1.
         11    1    3    3    0    0 -0.33692421332E+02 -0.21434722851E+02 -0.81447881109E+01  0.40754928199E+02  0.51100000000E-03 0. -1.
        -11    1    3    3    0    0 -0.14370226389E+01  0.42281257802E+01  0.92106816311E+01  0.10236148594E+02  0.51100000000E-03 0.  1.
        -12    1    3    3    0    0  0.35297585452E+02  0.16624547917E+02 -0.52965329751E-01  0.39016636676E+02  0.00000000000E+00 0.  1.
</event>
<event>
 7    1  0.1935465E-015  0.9000786E+02  0.7816164E-02  0.1186339E+00
        -11   -1    0    0    0    0  0.00000000000E+00  0.00000000000E+00  0.45593999997E+02  0.45594000000E+02  0.51100000000E-03 0. -1.
         11   -1    0    0    0    0 -0.00000000000E+00 -0.00000000000E+00 -0.45593999997E+02  0.45594000000E+02  0.51100000000E-03 0.  1.
    9900012    2    1    2    0    0  0.11255876702E+01 -0.29765853614E+00 -0.19283214450E+00  0.90007859143E+02  0.90000122083E+02 0.  0.
         12    1    1    2    0    0 -0.11255876702E+01  0.29765853614E+00  0.19283214450E+00  0.11801408575E+01  0.00000000000E+00 0. -1.
         11    1    3    3    0    0  0.29990372997E+02  0.50715895686E+01 -0.23784413439E+02  0.38611420800E+02  0.51100000000E-03 0. -1.
        -11    1    3    3    0    0  0.72840610820E+01  0.39206447996E+01  0.32324109842E+01  0.88812995965E+01  0.51100000000E-03 0.  1.
        -12    1    3    3    0    0 -0.36148846409E+02 -0.92898929044E+01  0.20359170311E+02  0.42515138746E+02  0.00000000000E+00 0.  1.
</event>
<event>
 7    1  0.1935465E-015  0.9000781E+02  0.7816164E-02  0.1186339E+00
        -11   -1    0    0    0    0  0.00000000000E+00  0.00000000000E+00  0.45593999997E+02  0.45594000000E+02  0.51100000000E-03 0.  1.
         11   -1    0    0    0    0 -0.00000000000E+00 -0.00000000000E+00 -0.45593999997E+02  0.45594000000E+02  0.51100000000E-03 0. -1.
    9900012    2    1    2    0    0  0.82576118744E+00 -0.27237553043E+00  0.79799116687E+00  0.90007805156E+02  0.90000067384E+02 0.  0.
         12    1    1    2    0    0 -0.82576118744E+00  0.27237553043E+00 -0.79799116687E+00  0.11801948444E+01  0.00000000000E+00 0. -1.
         11    1    3    3    0    0 -0.23901574518E+02 -0.16425443620E+02 -0.30646949405E+02  0.42193790664E+02  0.51100000000E-03 0. -1.
        -11    1    3    3    0    0  0.10976157725E+02 -0.22240347663E+00  0.15926858935E+01  0.11093338106E+02  0.51100000000E-03 0.  1.
        -12    1    3    3    0    0  0.13751177980E+02  0.16375471567E+02  0.29852254678E+02  0.36720676386E+02  0.00000000000E+00 0.  1.
</event>
<event>
 7    1  0.1935465E-015  0.9000767E+02  0.7816164E-02  0.1186339E+00
        -11   -1    0    0    0    0  0.00000000000E+00  0.00000000000E+00  0.45593999997E+02  0.45594000000E+02  0.51100000000E-03 0. -1.
         11   -1    0    0    0    0 -0.00000000000E+00 -0.00000000000E+00 -0.45593999997E+02  0.45594000000E+02  0.51100000000E-03 0.  1.
    9900012    2    1    2    0    0 -0.67303064592E+00  0.15042281117E-01 -0.96953126562E+00  0.90007666405E+02  0.89999926801E+02 0.  0.
         12    1    1    2    0    0  0.67303064592E+00 -0.15042281117E-01  0.96953126562E+00  0.11803335950E+01  0.00000000000E+00 0. -1.
         11    1    3    3    0    0  0.20705149978E+01  0.71319363039E-01  0.69099715339E+01  0.72138634356E+01  0.51100000000E-03 0. -1.
        -11    1    3    3    0    0 -0.10850234314E+02  0.19751788855E+02 -0.38988787622E+02  0.45033168977E+02  0.51100000000E-03 0.  1.
         12    1    3    3    0    0  0.81066886699E+01 -0.19808065937E+02  0.31109284822E+02  0.37760633992E+02  0.00000000000E+00 0. -1.
</event>
<event>
 7    1  0.1935465E-015  0.9000771E+02  0.7816164E-02  0.1186339E+00
        -11   -1    0    0    0    0  0.00000000000E+00  0.00000000000E+00  0.45593999997E+02  0.45594000000E+02  0.51100000000E-03 0.  1.
         11   -1    0    0    0    0 -0.00000000000E+00 -0.00000000000E+00 -0.45593999997E+02  0.45594000000E+02  0.51100000000E-03 0. -1.
    9900012    2    1    2    0    0 -0.30200238629E+00 -0.11067485355E+01  0.27747292732E+00  0.90007708092E+02  0.89999969039E+02 0.  0.
         12    1    1    2    0    0  0.30200238629E+00  0.11067485355E+01 -0.27747292732E+00  0.11802919078E+01  0.00000000000E+00 0. -1.
         11    1    3    3    0    0 -0.83037913457E+01 -0.20646979833E+01 -0.53459247256E+01  0.10089342888E+02  0.51100000000E-03 0. -1.
        -11    1    3    3    0    0 -0.29192760904E+02  0.14146058574E+02  0.19777863360E+02  0.37993317067E+02  0.51100000000E-03 0.  1.
         12    1    3    3    0    0  0.37194549864E+02 -0.13188109126E+02 -0.14154465707E+02  0.41925048138E+02  0.00000000000E+00 0. -1.
</event>
<event>
 7    1  0.1935465E-015  0.9000775E+02  0.7816164E-02  0.1186339E+00
        -11   -1    0    0    0    0  0.00000000000E+00  0.00000000000E+00  0.45593999997E+02  0.45594000000E+02  0.51100000000E-03 0. -1.
         11   -1    0    0    0    0 -0.00000000000E+00 -0.00000000000E+00 -0.45593999997E+02  0.45594000000E+02  0.51100000000E-03 0.  1.
    9900012    2    1    2    0    0 -0.57594347677E+00 -0.61253471917E+00 -0.82829930196E+00  0.90007750279E+02  0.90000011783E+02 0.  0.
         12    1    1    2    0    0  0.57594347677E+00  0.61253471917E+00  0.82829930196E+00  0.11802497211E+01  0.00000000000E+00 0. -1.
         11    1    3    3    0    0  0.31503171100E+02 -0.22276527801E+02 -0.31864607032E+01  0.38714945594E+02  0.51100000000E-03 0. -1.
        -11    1    3    3    0    0  0.36727888695E+01 -0.19511353805E+01  0.70544525621E+01  0.81891152492E+01  0.51100000000E-03 0.  1.
        -12    1    3    3    0    0 -0.35751903447E+02  0.23615128462E+02 -0.46962911609E+01  0.43103689436E+02  0.00000000000E+00 0.  1.
</event>
<event>
 7    1  0.1935465E-015  0.9000792E+02  0.7816164E-02  0.1186339E+00
        -11   -1    0    0    0    0  0.00000000000E+00  0.00000000000E+00  0.45593999997E+02  0.45594000000E+02  0.51100000000E-03 0.  1.
         11   -1    0    0    0    0 -0.00000000000E+00 -0.00000000000E+00 -0.45593999997E+02  0.45594000000E+02  0.51100000000E-03 0. -1.
    9900012    2    1    2    0    0  0.62369461583E+00 -0.98850907193E+00  0.16259091673E+00  0.90007923322E+02  0.90000187110E+02 0.  0.
         12    1    1    2    0    0 -0.62369461583E+00  0.98850907193E+00 -0.16259091673E+00  0.11800766777E+01  0.00000000000E+00 0. -1.
         11    1    3    3    0    0  0.29845775276E+00 -0.56772221280E+01  0.89510823714E+01  0.10603857977E+02  0.51100000000E-03 0. -1.
        -11    1    3    3    0    0  0.25049492231E+02 -0.12809059781E+02  0.22374046401E+02  0.35946446641E+02  0.51100000000E-03 0.  1.
         12    1    3    3    0    0 -0.24724255368E+02  0.17497772837E+02 -0.31162537856E+02  0.43457618704E+02  0.00000000000E+00 0. -1.
</event>
<event>
 7    1  0.1935465E-015  0.9000768E+02  0.7816164E-02  0.1186339E+00
        -11   -1    0    0    0    0  0.00000000000E+00  0.00000000000E+00  0.45593999997E+02  0.45594000000E+02  0.51100000000E-03 0.  1.
         11   -1    0    0    0    0 -0.00000000000E+00 -0.00000000000E+00 -0.45593999997E+02  0.45594000000E+02  0.51100000000E-03 0. -1.
    9900012    2    1    2    0    0  0.30842172216E+00 -0.88011996785E+00  0.72348295989E+00  0.90007676862E+02  0.89999937397E+02 0.  0.
         12    1    1    2    0    0 -0.30842172216E+00  0.88011996785E+00 -0.72348295989E+00  0.11803231379E+01  0.00000000000E+00 0. -1.
         11    1    3    3    0    0 -0.18611097062E+02 -0.36062564315E+02 -0.13396590430E+02  0.42735817696E+02  0.51100000000E-03 0. -1.
        -11    1    3    3    0    0  0.52048930382E+01  0.59278774837E+01 -0.53661730256E+01  0.95407785952E+01  0.51100000000E-03 0.  1.
        -12    1    3    3    0    0  0.13714625746E+02  0.29254566863E+02  0.19486246415E+02  0.37731080571E+02  0.00000000000E+00 0.  1.
</event>
<event>
 7    1  0.1935465E-015  0.9000763E+02  0.7816164E-02  0.1186339E+00
        -11   -1    0    0    0    0  0.00000000000E+00  0.00000000000E+00  0.45593999997E+02  0.45594000000E+02  0.51100000000E-03 0.  1.
         11   -1    0    0    0    0 -0.00000000000E+00 -0.00000000000E+00 -0.45593999997E+02  0.45594000000E+02  0.51100000000E-03 0. -1.
    9900012    2    1    2    0    0  0.63090146661E-01  0.10322564793E+01  0.56897235503E+00  0.90007634232E+02  0.89999894204E+02 0.  0.
         12    1    1    2    0    0 -0.63090146661E-01 -0.10322564793E+01 -0.56897235503E+00  0.11803657681E+01  0.00000000000E+00 0. -1.
         11    1    3    3    0    0 -0.18974946329E+01 -0.77274216193E+01 -0.60367235226E+01  0.99877706178E+01  0.51100000000E-03 0. -1.
        -11    1    3    3    0    0  0.28486006775E+02  0.33150490225E+02  0.32372746396E+01  0.43827930952E+02  0.51100000000E-03 0.  1.
         12    1    3    3    0    0 -0.26525421995E+02 -0.24390812127E+02  0.33684212380E+01  0.36191932663E+02  0.00000000000E+00 0. -1.
</event>
<event>
 7    1  0.1935465E-015  0.9000771E+02  0.7816164E-02  0.1186339E+00
        -11   -1    0    0    0    0  0.00000000000E+00  0.00000000000E+00  0.45593999997E+02  0.45594000000E+02  0.51100000000E-03 0.  1.
         11   -1    0    0    0    0 -0.00000000000E+00 -0.00000000000E+00 -0.45593999997E+02  0.45594000000E+02  0.51100000000E-03 0. -1.
    9900012    2    1    2    0    0  0.74684255991E+00 -0.63287285113E+00  0.65937651255E+00  0.90007712221E+02  0.89999973223E+02 0.  0.
         12    1    1    2    0    0 -0.74684255991E+00  0.63287285113E+00 -0.65937651255E+00  0.11802877786E+01  0.00000000000E+00 0. -1.
         11    1    3    3    0    0 -0.45856804272E+01 -0.12277131616E+01  0.34600446846E+01  0.58743215836E+01  0.51100000000E-03 0. -1.
        -11    1    3    3    0    0 -0.38757199000E+02 -0.29870630962E+01  0.50774822179E+01  0.39202344907E+02  0.51100000000E-03 0.  1.
         12    1    3    3    0    0  0.44089721987E+02  0.35819034067E+01 -0.78781503899E+01  0.44931045731E+02  0.00000000000E+00 0. -1.
</event>
<event>
 7    1  0.1935465E-015  0.9000777E+02  0.7816164E-02  0.1186339E+00
        -11   -1    0    0    0    0  0.00000000000E+00  0.00000000000E+00  0.45593999997E+02  0.45594000000E+02  0.51100000000E-03 0.  1.
         11   -1    0    0    0    0 -0.00000000000E+00 -0.00000000000E+00 -0.45593999997E+02  0.45594000000E+02  0.51100000000E-03 0. -1.
    9900012    2    1    2    0    0 -0.93393165703E+00 -0.17252354277E+00  0.70068248261E+00  0.90007767542E+02  0.90000029274E+02 0.  0.
         12    1    1    2    0    0  0.93393165703E+00  0.17252354277E+00 -0.70068248261E+00  0.11802324577E+01  0.00000000000E+00 0. -1.
         11    1    3    3    0    0  0.68723814415E+01  0.37363482416E+01 -0.39138372985E+01  0.87468878763E+01  0.51100000000E-03 0. -1.
        -11    1    3    3    0    0  0.68737290301E+01 -0.39150712298E+02  0.13652102600E+02  0.42028637022E+02  0.51100000000E-03 0.  1.
         12    1    3    3    0    0 -0.14680042129E+02  0.35241840514E+02 -0.90375828186E+01  0.39232242644E+02  0.00000000000E+00 0. -1.
</event>
<event>
 7    1  0.1935465E-015  0.9000782E+02  0.7816164E-02  0.1186339E+00
        -11   -1    0    0    0    0  0.00000000000E+00  0.00000000000E+00  0.45593999997E+02  0.45594000000E+02  0.51100000000E-03 0.  1.
         11   -1    0    0    0    0 -0.00000000000E+00 -0.00000000000E+00 -0.45593999997E+02  0.45594000000E+02  0.51100000000E-03 0. -1.
    9900012    2    1    2    0    0 -0.11783712741E+01 -0.46328276645E-01  0.46046627203E-01  0.90007819734E+02  0.90000082154E+02 0.  0.
         12    1    1    2    0    0  0.11783712741E+01  0.46328276645E-01 -0.46046627203E-01  0.11801802662E+01  0.00000000000E+00 0. -1.
         11    1    3    3    0    0  0.51978209883E+01 -0.22786365169E+01 -0.50537829475E+01  0.75993585087E+01  0.51100000000E-03 0. -1.
        -11    1    3    3    0    0 -0.46402747638E+01 -0.31733948091E+02 -0.22024888359E+02  0.38905929096E+02  0.51100000000E-03 0.  1.
         12    1    3    3    0    0 -0.17359174986E+01  0.33966256331E+02  0.27124717934E+02  0.43502532130E+02  0.00000000000E+00 0. -1.
</event>
<event>
 7    1  0.1935465E-015  0.9000772E+02  0.7816164E-02  0.1186339E+00
        -11   -1    0    0    0    0  0.00000000000E+00  0.00000000000E+00  0.45593999997E+02  0.45594000000E+02  0.51100000000E-03 0.  1.
         11   -1    0    0    0    0 -0.00000000000E+00 -0.00000000000E+00 -0.45593999997E+02  0.45594000000E+02  0.51100000000E-03 0. -1.
    9900012    2    1    2    0    0 -0.40349315621E+00 -0.11090394878E+01  0.16614902441E-01  0.90007724029E+02  0.89999985186E+02 0.  0.
         12    1    1    2    0    0  0.40349315621E+00  0.11090394878E+01 -0.16614902441E-01  0.11802759709E+01  0.00000000000E+00 0. -1.
         11    1    3    3    0    0 -0.29277136904E+02 -0.85771774036E+01 -0.28436519197E+02  0.41705567276E+02  0.51100000000E-03 0. -1.
        -11    1    3    3    0    0  0.46875013404E+01 -0.34706024136E+01 -0.34683544279E+01  0.67858111253E+01  0.51100000000E-03 0.  1.
        -12    1    3    3    0    0  0.24186142407E+02  0.10938740329E+02  0.31921488527E+02  0.41516345628E+02  0.00000000000E+00 0.  1.
</event>
<event>
 7    1  0.2621976E-015  0.9000779E+02  0.7816164E-02  0.1186339E+00
        -11   -1    0    0    0    0  0.00000000000E+00  0.00000000000E+00  0.45593999997E+02  0.45594000000E+02  0.51100000000E-03 0.  1.
         11   -1    0    0    0    0 -0.00000000000E+00 -0.00000000000E+00 -0.45593999997E+02  0.45594000000E+02  0.51100000000E-03 0. -1.
    9900012    2    1    2    0    0 -0.77592244047E+00 -0.82280761288E+00  0.33739781851E+00  0.90007785914E+02  0.90000047888E+02 0.  0.
         12    1    1    2    0    0  0.77592244047E+00  0.82280761288E+00 -0.33739781851E+00  0.11802140862E+01  0.00000000000E+00 0. -1.
         11    1    3    3    0    0 -0.93179088398E+01  0.18225867606E+01 -0.21851653367E+01  0.97426995980E+01  0.51100000000E-03 0. -1.
        -11    1    3    3    0    0  0.43963356978E+01  0.26642979554E+02  0.29668054275E+02  0.40116948685E+02  0.51100000000E-03 0.  1.
         12    1    3    3    0    0  0.41456507016E+01 -0.29288373927E+02 -0.27145491120E+02  0.40148137630E+02  0.00000000000E+00 0. -1.
</event>
<event>
 7    1  0.1935465E-015  0.9000769E+02  0.7816164E-02  0.1186339E+00
        -11   -1    0    0    0    0  0.00000000000E+00  0.00000000000E+00  0.45593999997E+02  0.45594000000E+02  0.51100000000E-03 0.  1.
         11   -1    0    0    0    0 -0.00000000000E+00 -0.00000000000E+00 -0.45593999997E+02  0.45594000000E+02  0.51100000000E-03 0. -1.
    9900012    2    1    2    0    0 -0.27481267001E+00  0.11343248254E+01  0.17585058283E+00  0.90007687228E+02  0.89999947899E+02 0.  0.
         12    1    1    2    0    0  0.27481267001E+00 -0.11343248254E+01 -0.17585058283E+00  0.11803127724E+01  0.00000000000E+00 0. -1.
         11    1    3    3    0    0 -0.55791275952E+01  0.64124489202E+01  0.47239269217E+01  0.97242815519E+01  0.51100000000E-03 0. -1.
        -11    1    3    3    0    0  0.16956296609E+02 -0.61162013031E+00  0.34943548212E+02  0.38845097963E+02  0.51100000000E-03 0.  1.
         12    1    3    3    0    0 -0.11651981684E+02 -0.46665039645E+01 -0.39491624551E+02  0.41438307712E+02  0.00000000000E+00 0. -1.
</event>
<event>
 7    1  0.1935465E-015  0.9000773E+02  0.7816164E-02  0.1186339E+00
        -11   -1    0    0    0    0  0.00000000000E+00  0.00000000000E+00  0.45593999997E+02  0.45594000000E+02  0.51100000000E-03 0.  1.
         11   -1    0    0    0    0 -0.00000000000E+00 -0.00000000000E+00 -0.45593999997E+02  0.45594000000E+02  0.51100000000E-03 0. -1.
    9900012    2    1    2    0    0 -0.11506256252E+01 -0.12691374083E+00  0.23021701480E+00  0.90007726175E+02  0.89999987361E+02 0.  0.
         12    1    1    2    0    0  0.11506256252E+01  0.12691374083E+00 -0.23021701480E+00  0.11802738246E+01  0.00000000000E+00 0. -1.
         11    1    3    3    0    0  0.37710507839E+01  0.35603006928E+02 -0.87752135807E+01  0.36861894959E+02  0.51100000000E-03 0. -1.
        -11    1    3    3    0    0 -0.94953474732E+01 -0.60356007301E+01 -0.12028375080E+02  0.16470334154E+02  0.51100000000E-03 0.  1.
        -12    1    3    3    0    0  0.45736710641E+01 -0.29694319938E+02  0.21033805675E+02  0.36675497063E+02  0.00000000000E+00 0.  1.
</event>
<event>
 7    1  0.1935465E-015  0.9000774E+02  0.7816164E-02  0.1186339E+00
        -11   -1    0    0    0    0  0.00000000000E+00  0.00000000000E+00  0.45593999997E+02  0.45594000000E+02  0.51100000000E-03 0.  1.
         11   -1    0    0    0    0 -0.00000000000E+00 -0.00000000000E+00 -0.45593999997E+02  0.45594000000E+02  0.51100000000E-03 0. -1.
    9900012    2    1    2    0    0 -0.13362046359E+00  0.10721932341E+01  0.47493035281E+00  0.90007740876E+02  0.90000002256E+02 0.  0.
         12    1    1    2    0    0  0.13362046359E+00 -0.10721932341E+01 -0.47493035281E+00  0.11802591239E+01  0.00000000000E+00 0. -1.
         11    1    3    3    0    0 -0.15685909978E+00 -0.48138700171E+01 -0.57374486902E+01  0.74910791647E+01  0.51100000000E-03 0. -1.
        -11    1    3    3    0    0  0.13544512569E+02  0.18795223741E+02 -0.32275260824E+02  0.39729167091E+02  0.51100000000E-03 0.  1.
        -12    1    3    3    0    0 -0.13521273933E+02 -0.12909160490E+02  0.38487639867E+02  0.42787494620E+02  0.00000000000E+00 0.  1.
</event>
<event>
 7    1  0.1935465E-015  0.9000769E+02  0.7816164E-02  0.1186339E+00
        -11   -1    0    0    0    0  0.00000000000E+00  0.00000000000E+00  0.45593999997E+02  0.45594000000E+02  0.51100000000E-03 0.  1.
         11   -1    0    0    0    0 -0.00000000000E+00 -0.00000000000E+00 -0.45593999997E+02  0.45594000000E+02  0.51100000000E-03 0. -1.
    9900012    2    1    2    0    0  0.19979736899E+00  0.59000339358E+00  0.10025531064E+01  0.90007688294E+02  0.89999948979E+02 0.  0.
         12    1    1    2    0    0 -0.19979736899E+00 -0.59000339358E+00 -0.10025531064E+01  0.11803117064E+01  0.00000000000E+00 0. -1.
         11    1    3    3    0    0  0.96821783244E+00  0.21725168388E+01  0.96475870885E+01  0.99364587292E+01  0.51100000000E-03 0. -1.
        -11    1    3    3    0    0 -0.79427664234E+01 -0.87284658328E+01  0.34130644629E+02  0.36113357048E+02  0.51100000000E-03 0.  1.
         12    1    3    3    0    0  0.71743459599E+01  0.71459523876E+01 -0.42775678611E+02  0.43957872516E+02  0.00000000000E+00 0. -1.
</event>
<event>
 7    1  0.1935465E-015  0.9000763E+02  0.7816164E-02  0.1186339E+00
        -11   -1    0    0    0    0  0.00000000000E+00  0.00000000000E+00  0.45593999997E+02  0.45594000000E+02  0.51100000000E-03 0.  1.
         11   -1    0    0    0    0 -0.00000000000E+00 -0.00000000000E+00 -0.45593999997E+02  0.45594000000E+02  0.51100000000E-03 0. -1.
    9900012    2    1    2    0    0 -0.66207694070E+00  0.96464141489E+00  0.15617961413E+00  0.90007630987E+02  0.89999890916E+02 0.  0.
         12    1    1    2    0    0  0.66207694070E+00 -0.96464141489E+00 -0.15617961413E+00  0.11803690129E+01  0.00000000000E+00 0. -1.
         11    1    3    3    0    0  0.11181781102E+01 -0.77788226044E+01  0.32091212399E+01  0.84887491888E+01  0.51100000000E-03 0. -1.
        -11    1    3    3    0    0 -0.69892819269E+01  0.63447063154E+01  0.38465208582E+02  0.39606535214E+02  0.51100000000E-03 0.  1.
         12    1    3    3    0    0  0.52090268759E+01  0.23987577039E+01 -0.41518150208E+02  0.41912346585E+02  0.00000000000E+00 0. -1.
</event>
<event>
 7    1  0.1935465E-015  0.9000732E+02  0.7816164E-02  0.1186340E+00
        -11   -1    0    0    0    0  0.00000000000E+00  0.00000000000E+00  0.45593999997E+02  0.45594000000E+02  0.51100000000E-03 0. -1.
         11   -1    0    0    0    0 -0.00000000000E+00 -0.00000000000E+00 -0.45593999997E+02  0.45594000000E+02  0.51100000000E-03 0.  1.
    9900012    2    1    2    0    0  0.90788328037E+00  0.34089223554E+00  0.67346062210E+00  0.90007318512E+02  0.89999574315E+02 0.  0.
         12    1    1    2    0    0 -0.90788328037E+00 -0.34089223554E+00 -0.67346062210E+00  0.11806814882E+01  0.00000000000E+00 0. -1.
         11    1    3    3    0    0  0.25498713227E+02 -0.35503841939E+02 -0.80747430373E+01  0.44451193955E+02  0.51100000000E-03 0. -1.
        -11    1    3    3    0    0 -0.16270187739E+01  0.96970610655E+01  0.30346122126E+01  0.10290240762E+02  0.51100000000E-03 0.  1.
        -12    1    3    3    0    0 -0.22963811173E+02  0.26147673109E+02  0.57135914469E+01  0.35265883795E+02  0.00000000000E+00 0.  1.
</event>
<event>
 7    1  0.1935465E-015  0.9000812E+02  0.7816164E-02  0.1186338E+00
        -11   -1    0    0    0    0  0.00000000000E+00  0.00000000000E+00  0.45593999997E+02  0.45594000000E+02  0.51100000000E-03 0.  1.
         11   -1    0    0    0    0 -0.00000000000E+00 -0.00000000000E+00 -0.45593999997E+02  0.45594000000E+02  0.51100000000E-03 0. -1.
    9900012    2    1    2    0    0  0.45889572683E-02 -0.52598565371E+00  0.10561428707E+01  0.90008118765E+02  0.90000385131E+02 0.  0.
         12    1    1    2    0    0 -0.45889572683E-02  0.52598565371E+00 -0.10561428707E+01  0.11798812355E+01  0.00000000000E+00 0. -1.
         11    1    3    3    0    0 -0.39173946579E+02 -0.90354042278E+01 -0.13554545596E+02  0.42425962885E+02  0.51100000000E-03 0. -1.
        -11    1    3    3    0    0  0.90548370268E+01 -0.64294246091E+01  0.69346321056E+01  0.13092619947E+02  0.51100000000E-03 0.  1.
        -12    1    3    3    0    0  0.30123698509E+02  0.14938843183E+02  0.76760563617E+01  0.34489535932E+02  0.00000000000E+00 0.  1.
</event>
<event>
 7    1  0.1935465E-015  0.9000786E+02  0.7816164E-02  0.1186339E+00
        -11   -1    0    0    0    0  0.00000000000E+00  0.00000000000E+00  0.45593999997E+02  0.45594000000E+02  0.51100000000E-03 0.  1.
         11   -1    0    0    0    0 -0.00000000000E+00 -0.00000000000E+00 -0.45593999997E+02  0.45594000000E+02  0.51100000000E-03 0. -1.
    9900012    2    1    2    0    0  0.88159472637E+00  0.38126738928E+00 -0.68567549253E+00  0.90007862311E+02  0.90000125294E+02 0.  0.
         12    1    1    2    0    0 -0.88159472637E+00 -0.38126738928E+00  0.68567549253E+00  0.11801376889E+01  0.00000000000E+00 0. -1.
         11    1    3    3    0    0  0.30682387751E+02 -0.11785457523E+02 -0.26959307631E+02  0.42510118740E+02  0.51100000000E-03 0. -1.
        -11    1    3    3    0    0  0.25672527909E+01  0.31472833575E+01  0.86481055384E+01  0.95543659700E+01  0.51100000000E-03 0.  1.
        -12    1    3    3    0    0 -0.32368045815E+02  0.90194415545E+01  0.17625526600E+02  0.37943377601E+02  0.00000000000E+00 0.  1.
</event>
<event>
 7    1  0.1935465E-015  0.9000779E+02  0.7816164E-02  0.1186339E+00
        -11   -1    0    0    0    0  0.00000000000E+00  0.00000000000E+00  0.45593999997E+02  0.45594000000E+02  0.51100000000E-03 0.  1.
         11   -1    0    0    0    0 -0.00000000000E+00 -0.00000000000E+00 -0.45593999997E+02  0.45594000000E+02  0.51100000000E-03 0. -1.
    9900012    2    1    2    0    0 -0.60501933852E+00 -0.81879261959E+00  0.59701252633E+00  0.90007790819E+02  0.90000052858E+02 0.  0.
         12    1    1    2    0    0  0.60501933852E+00  0.81879261959E+00 -0.59701252633E+00  0.11802091808E+01  0.00000000000E+00 0. -1.
         11    1    3    3    0    0  0.53833602170E+01  0.75677666818E+01  0.59227859215E+00  0.93060439483E+01  0.51100000000E-03 0. -1.
        -11    1    3    3    0    0  0.28847256824E+02 -0.20744355715E+02 -0.17724529433E+02  0.39707070708E+02  0.51100000000E-03 0.  1.
         12    1    3    3    0    0 -0.34835636379E+02  0.12357796414E+02  0.17729263368E+02  0.40994676163E+02  0.00000000000E+00 0. -1.
</event>
<event>
 7    1  0.1935465E-015  0.9000774E+02  0.7816164E-02  0.1186339E+00
        -11   -1    0    0    0    0  0.00000000000E+00  0.00000000000E+00  0.45593999997E+02  0.45594000000E+02  0.51100000000E-03 0. -1.
         11   -1    0    0    0    0 -0.00000000000E+00 -0.00000000000E+00 -0.45593999997E+02  0.45594000000E+02  0.51100000000E-03 0.  1.
    9900012    2    1    2    0    0  0.20589175236E+00  0.11683787462E+00 -0.11562717637E+01  0.90007742869E+02  0.90000004275E+02 0.  0.
         12    1    1    2    0    0 -0.20589175236E+00 -0.11683787462E+00  0.11562717637E+01  0.11802571305E+01  0.00000000000E+00 0. -1.
         11    1    3    3    0    0 -0.21186963929E+02 -0.28911996441E+02 -0.95143834712E+01  0.37085232530E+02  0.51100000000E-03 0. -1.
        -11    1    3    3    0    0  0.10020678588E+01 -0.76200348016E+01 -0.46857106711E+01  0.90013862891E+01  0.51100000000E-03 0.  1.
        -12    1    3    3    0    0  0.20390787823E+02  0.36648869117E+02  0.13043822379E+02  0.43921124050E+02  0.00000000000E+00 0.  1.
</event>
<event>
 7    1  0.1935465E-015  0.9000771E+02  0.7816164E-02  0.1186339E+00
        -11   -1    0    0    0    0  0.00000000000E+00  0.00000000000E+00  0.45593999997E+02  0.45594000000E+02  0.51100000000E-03 0.  1.
         11   -1    0    0    0    0 -0.00000000000E+00 -0.00000000000E+00 -0.45593999997E+02  0.45594000000E+02  0.51100000000E-03 0. -1.
    9900012    2    1    2    0    0 -0.31850349023E+00 -0.55015176836E+00  0.99447101487E+00  0.90007710188E+02  0.89999971162E+02 0.  0.
         12    1    1    2    0    0  0.31850349023E+00  0.55015176836E+00 -0.99447101487E+00  0.11802898123E+01  0.00000000000E+00 0. -1.
         11    1    3    3    0    0  0.27326380144E+02 -0.11717653311E+02 -0.66373868474E+01  0.30464559004E+02  0.51100000000E-03 0. -1.
        -11    1    3    3    0    0  0.12587993726E+02  0.12423825678E+02 -0.29314363866E+01  0.17927697847E+02  0.51100000000E-03 0.  1.
        -12    1    3    3    0    0 -0.40232877360E+02 -0.12563241359E+01  0.10563294249E+02  0.41615453337E+02  0.00000000000E+00 0.  1.
</event>
<event>
 7    1  0.1935465E-015  0.9000770E+02  0.7816164E-02  0.1186339E+00
        -11   -1    0    0    0    0  0.00000000000E+00  0.00000000000E+00  0.45593999997E+02  0.45594000000E+02  0.51100000000E-03 0. -1.
         11   -1    0    0    0    0 -0.00000000000E+00 -0.00000000000E+00 -0.45593999997E+02  0.45594000000E+02  0.51100000000E-03 0.  1.
    9900012    2    1    2    0    0  0.89323939592E+00 -0.68848281588E+00 -0.34815412001E+00  0.90007704911E+02  0.89999965816E+02 0.  0.
         12    1    1    2    0    0 -0.89323939592E+00  0.68848281588E+00  0.34815412001E+00  0.11802950892E+01  0.00000000000E+00 0. -1.
         11    1    3    3    0    0 -0.34067485346E+02 -0.53621582596E+01  0.17094309442E+02  0.38491060191E+02  0.51100000000E-03 0. -1.
        -11    1    3    3    0    0 -0.23022724040E+01  0.44204180626E+01  0.57620608692E+01  0.76185234653E+01  0.51100000000E-03 0.  1.
        -12    1    3    3    0    0  0.37262997146E+02  0.25325738112E+00 -0.23204524431E+02  0.43898121255E+02  0.00000000000E+00 0.  1.
</event>
<event>
 7    1  0.1935465E-015  0.9000774E+02  0.7816164E-02  0.1186339E+00
        -11   -1    0    0    0    0  0.00000000000E+00  0.00000000000E+00  0.45593999997E+02  0.45594000000E+02  0.51100000000E-03 0.  1.
         11   -1    0    0    0    0 -0.00000000000E+00 -0.00000000000E+00 -0.45593999997E+02  0.45594000000E+02  0.51100000000E-03 0. -1.
    9900012    2    1    2    0    0  0.56963858725E+00  0.59209216036E+00  0.84732761664E+00  0.90007735057E+02  0.89999996359E+02 0.  0.
         12    1    1    2    0    0 -0.56963858725E+00 -0.59209216036E+00 -0.84732761664E+00  0.11802649433E+01  0.00000000000E+00 0. -1.
         11    1    3    3    0    0  0.23436203517E+01  0.98237009111E+01  0.51059690229E+01  0.11316738747E+02  0.51100000000E-03 0. -1.
        -11    1    3    3    0    0  0.32650389509E+02  0.35449017027E+01  0.16239661705E+02  0.36637970409E+02  0.51100000000E-03 0.  1.
         12    1    3    3    0    0 -0.34424371273E+02 -0.12776510454E+02 -0.20498303112E+02  0.42053025900E+02  0.00000000000E+00 0. -1.
</event>
<event>
 7    1  0.1935465E-015  0.9000771E+02  0.7816164E-02  0.1186339E+00
        -11   -1    0    0    0    0  0.00000000000E+00  0.00000000000E+00  0.45593999997E+02  0.45594000000E+02  0.51100000000E-03 0. -1.
         11   -1    0    0    0    0 -0.00000000000E+00 -0.00000000000E+00 -0.45593999997E+02  0.45594000000E+02  0.51100000000E-03 0.  1.
    9900012    2    1    2    0    0  0.79938930465E+00  0.18412083835E+00 -0.84862146836E+00  0.90007710993E+02  0.89999971978E+02 0.  0.
         12    1    1    2    0    0 -0.79938930465E+00 -0.18412083835E+00  0.84862146836E+00  0.11802890070E+01  0.00000000000E+00 0. -1.
         11    1    3    3    0    0  0.24885139878E+02  0.16045661154E+02  0.17754469191E+02  0.34524695584E+02  0.51100000000E-03 0. -1.
        -11    1    3    3    0    0  0.11885376675E+02 -0.48605740532E+01  0.13347130984E+01  0.12910027813E+02  0.51100000000E-03 0.  1.
        -12    1    3    3    0    0 -0.35971127248E+02 -0.11000966263E+02 -0.19937803758E+02  0.42572987596E+02  0.00000000000E+00 0.  1.
</event>
<event>
 7    1  0.1935465E-015  0.9000772E+02  0.7816164E-02  0.1186339E+00
        -11   -1    0    0    0    0  0.00000000000E+00  0.00000000000E+00  0.45593999997E+02  0.45594000000E+02  0.51100000000E-03 0.  1.
         11   -1    0    0    0    0 -0.00000000000E+00 -0.00000000000E+00 -0.45593999997E+02  0.45594000000E+02  0.51100000000E-03 0. -1.
    9900012    2    1    2    0    0 -0.29979503129E+00 -0.97212839072E+00  0.59845422597E+00  0.90007721165E+02  0.89999982284E+02 0.  0.
         12    1    1    2    0    0  0.29979503129E+00  0.97212839072E+00 -0.59845422597E+00  0.11802788354E+01  0.00000000000E+00 0. -1.
         11    1    3    3    0    0  0.15927776342E+02 -0.18572902600E+02 -0.24436523592E+02  0.34580203234E+02  0.51100000000E-03 0. -1.
        -11    1    3    3    0    0 -0.31525412142E+00 -0.12817655746E+02 -0.19710920613E+00  0.12823047075E+02  0.51100000000E-03 0.  1.
        -12    1    3    3    0    0 -0.15912317252E+02  0.30418429956E+02  0.25232087024E+02  0.42604470855E+02  0.00000000000E+00 0.  1.
</event>
<event>
 7    1  0.1935465E-015  0.9000777E+02  0.7816164E-02  0.1186339E+00
        -11   -1    0    0    0    0  0.00000000000E+00  0.00000000000E+00  0.45593999997E+02  0.45594000000E+02  0.51100000000E-03 0.  1.
         11   -1    0    0    0    0 -0.00000000000E+00 -0.00000000000E+00 -0.45593999997E+02  0.45594000000E+02  0.51100000000E-03 0. -1.
    9900012    2    1    2    0    0  0.43416012755E+00  0.67755349541E+00  0.86335238578E+00  0.90007766507E+02  0.90000028225E+02 0.  0.
         12    1    1    2    0    0 -0.43416012755E+00 -0.67755349541E+00 -0.86335238578E+00  0.11802334928E+01  0.00000000000E+00 0. -1.
         11    1    3    3    0    0 -0.82947623323E+01  0.22996846127E+02  0.24911827132E+02  0.34903540584E+02  0.51100000000E-03 0. -1.
        -11    1    3    3    0    0 -0.11823076830E+02  0.47392516716E+01  0.11677996622E+01  0.12790989346E+02  0.51100000000E-03 0.  1.
        -12    1    3    3    0    0  0.20551999290E+02 -0.27058544304E+02 -0.25216274409E+02  0.42313236578E+02  0.00000000000E+00 0.  1.
</event>
<event>
 7    1  0.1935465E-015  0.9000773E+02  0.7816164E-02  0.1186339E+00
        -11   -1    0    0    0    0  0.00000000000E+00  0.00000000000E+00  0.45593999997E+02  0.45594000000E+02  0.51100000000E-03 0.  1.
         11   -1    0    0    0    0 -0.00000000000E+00 -0.00000000000E+00 -0.45593999997E+02  0.45594000000E+02  0.51100000000E-03 0. -1.
    9900012    2    1    2    0    0 -0.61540302909E+00 -0.10071322718E+01  0.28601770116E-02  0.90007726946E+02  0.89999988142E+02 0.  0.
         12    1    1    2    0    0  0.61540302909E+00  0.10071322718E+01 -0.28601770115E-02  0.11802730539E+01  0.00000000000E+00 0. -1.
         11    1    3    3    0    0  0.15872762479E+02 -0.20149352163E+02 -0.25066436237E+02  0.35864567573E+02  0.51100000000E-03 0. -1.
        -11    1    3    3    0    0  0.29585736971E+01 -0.97757846993E+01  0.14482735890E+02  0.17721985327E+02  0.51100000000E-03 0.  1.
        -12    1    3    3    0    0 -0.19446739205E+02  0.28918004590E+02  0.10586560524E+02  0.36421174046E+02  0.00000000000E+00 0.  1.
</event>
<event>
 7    1  0.2918577E-015  0.9000782E+02  0.7816164E-02  0.1186339E+00
        -11   -1    0    0    0    0  0.00000000000E+00  0.00000000000E+00  0.45593999997E+02  0.45594000000E+02  0.51100000000E-03 0.  1.
         11   -1    0    0    0    0 -0.00000000000E+00 -0.00000000000E+00 -0.45593999997E+02  0.45594000000E+02  0.51100000000E-03 0. -1.
    9900012    2    1    2    0    0 -0.11444433233E+01  0.22432067394E+00  0.18100809230E+00  0.90007816025E+02  0.90000078397E+02 0.  0.
         12    1    1    2    0    0  0.11444433233E+01 -0.22432067394E+00 -0.18100809230E+00  0.11801839749E+01  0.00000000000E+00 0. -1.
         11    1    3    3    0    0 -0.80011718450E+01  0.34050048691E+01  0.40784811517E+01  0.96045206969E+01  0.51100000000E-03 0. -1.
        -11    1    3    3    0    0 -0.14092017862E-01  0.14224266907E+02  0.34703786261E+02  0.37505769539E+02  0.51100000000E-03 0.  1.
         12    1    3    3    0    0  0.68708205395E+01 -0.17404951102E+02 -0.38601259320E+02  0.42897525789E+02  0.00000000000E+00 0. -1.
</event>
<event>
 7    1  0.1935465E-015  0.9000775E+02  0.7816164E-02  0.1186339E+00
        -11   -1    0    0    0    0  0.00000000000E+00  0.00000000000E+00  0.45593999997E+02  0.45594000000E+02  0.51100000000E-03 0.  1.
         11   -1    0    0    0    0 -0.00000000000E+00 -0.00000000000E+00 -0.45593999997E+02  0.45594000000E+02  0.51100000000E-03 0. -1.
    9900012    2    1    2    0    0 -0.90983366705E+00 -0.41392089069E+00  0.62758206211E+00  0.90007751276E+02  0.90000012793E+02 0.  0.
         12    1    1    2    0    0  0.90983366705E+00  0.41392089069E+00 -0.62758206211E+00  0.11802487238E+01  0.00000000000E+00 0. -1.
         11    1    3    3    0    0  0.21716203648E+02  0.18835520685E+02  0.17936498764E+02  0.33883452135E+02  0.51100000000E-03 0. -1.
        -11    1    3    3    0    0  0.42840176633E+01  0.58579400232E+01  0.84971348203E+01  0.11174505317E+02  0.51100000000E-03 0.  1.
        -12    1    3    3    0    0 -0.26910054979E+02 -0.25107381599E+02 -0.25806051522E+02  0.44949793825E+02  0.00000000000E+00 0.  1.
</event>
<event>
 7    1  0.1935465E-015  0.9000769E+02  0.7816164E-02  0.1186339E+00
        -11   -1    0    0    0    0  0.00000000000E+00  0.00000000000E+00  0.45593999997E+02  0.45594000000E+02  0.51100000000E-03 0.  1.
         11   -1    0    0    0    0 -0.00000000000E+00 -0.00000000000E+00 -0.45593999997E+02  0.45594000000E+02  0.51100000000E-03 0. -1.
    9900012    2    1    2    0    0  0.10907224609E+01  0.39952383881E+00  0.20934753677E+00  0.90007694457E+02  0.89999955224E+02 0.  0.
         12    1    1    2    0    0 -0.10907224609E+01 -0.39952383881E+00 -0.20934753677E+00  0.11803055433E+01  0.00000000000E+00 0. -1.
         11    1    3    3    0    0 -0.23827397855E+02  0.11498036431E+02 -0.28215179333E+02  0.38678754832E+02  0.51100000000E-03 0. -1.
        -11    1    3    3    0    0 -0.74712767534E+01 -0.55702667174E+01  0.30226826578E+01  0.97971658320E+01  0.51100000000E-03 0.  1.
        -12    1    3    3    0    0  0.32389397070E+02 -0.55282458753E+01  0.25401844212E+02  0.41531773792E+02  0.00000000000E+00 0.  1.
</event>
<event>
 7    1  0.1935465E-015  0.9000767E+02  0.7816164E-02  0.1186339E+00
        -11   -1    0    0    0    0  0.00000000000E+00  0.00000000000E+00  0.45593999997E+02  0.45594000000E+02  0.51100000000E-03 0.  1.
         11   -1    0    0    0    0 -0.00000000000E+00 -0.00000000000E+00 -0.45593999997E+02  0.45594000000E+02  0.51100000000E-03 0. -1.
    9900012    2    1    2    0    0  0.41268196875E+00 -0.10883402430E+01  0.19590358293E+00  0.90007674153E+02  0.89999934652E+02 0.  0.
         12    1    1    2    0    0 -0.41268196875E+00  0.10883402430E+01 -0.19590358293E+00  0.11803258472E+01  0.00000000000E+00 0. -1.
         11    1    3    3    0    0 -0.85687200164E+01  0.27834942095E+02 -0.23780300952E+02  0.37599330815E+02  0.51100000000E-03 0. -1.
        -11    1    3    3    0    0  0.14196654085E+02  0.24748716155E+01  0.45138326480E+01  0.15101147710E+02  0.51100000000E-03 0.  1.
        -12    1    3    3    0    0 -0.52152520994E+01 -0.31398153954E+02  0.19462371887E+02  0.37307195628E+02  0.00000000000E+00 0.  1.
</event>
<event>
 7    1  0.1935465E-015  0.9000767E+02  0.7816164E-02  0.1186339E+00
        -11   -1    0    0    0    0  0.00000000000E+00  0.00000000000E+00  0.45593999997E+02  0.45594000000E+02  0.51100000000E-03 0. -1.
         11   -1    0    0    0    0 -0.00000000000E+00 -0.00000000000E+00 -0.45593999997E+02  0.45594000000E+02  0.51100000000E-03 0.  1.
    9900012    2    1    2    0    0 -0.11482670967E+01  0.21546510078E+00  0.16805476268E+00  0.90007667446E+02  0.89999927856E+02 0.  0.
         12    1    1    2    0    0  0.11482670967E+01 -0.21546510078E+00 -0.16805476268E+00  0.11803325541E+01  0.00000000000E+00 0. -1.
         11    1    3    3    0    0 -0.31471763040E+02  0.23223224509E+02  0.95230538841E+01  0.40255168376E+02  0.51100000000E-03 0. -1.
        -11    1    3    3    0    0  0.71530465571E+01  0.63288208176E+01  0.35724460552E+01  0.10197177015E+02  0.51100000000E-03 0.  1.
        -12    1    3    3    0    0  0.23170449386E+02 -0.29336580226E+02 -0.12927445177E+02  0.39555322055E+02  0.00000000000E+00 0.  1.
</event>
<event>
 7    1  0.1935465E-015  0.9000772E+02  0.7816164E-02  0.1186339E+00
        -11   -1    0    0    0    0  0.00000000000E+00  0.00000000000E+00  0.45593999997E+02  0.45594000000E+02  0.51100000000E-03 0.  1.
         11   -1    0    0    0    0 -0.00000000000E+00 -0.00000000000E+00 -0.45593999997E+02  0.45594000000E+02  0.51100000000E-03 0. -1.
    9900012    2    1    2    0    0 -0.74931217094E+00 -0.90675735031E+00  0.96843433294E-01  0.90007721951E+02  0.89999983081E+02 0.  0.
         12    1    1    2    0    0  0.74931217094E+00  0.90675735031E+00 -0.96843433294E-01  0.11802780488E+01  0.00000000000E+00 0. -1.
         11    1    3    3    0    0  0.63090859785E+01 -0.60104708441E+01  0.60777526470E+01  0.10624001278E+02  0.51100000000E-03 0. -1.
        -11    1    3    3    0    0 -0.29455473980E+02 -0.10452542280E+02  0.23590219047E+02  0.39158383807E+02  0.51100000000E-03 0.  1.
         12    1    3    3    0    0  0.22397075830E+02  0.15556255773E+02 -0.29571128260E+02  0.40225336866E+02  0.00000000000E+00 0. -1.
</event>
<event>
 7    1  0.1935465E-015  0.9000777E+02  0.7816164E-02  0.1186339E+00
        -11   -1    0    0    0    0  0.00000000000E+00  0.00000000000E+00  0.45593999997E+02  0.45594000000E+02  0.51100000000E-03 0.  1.
         11   -1    0    0    0    0 -0.00000000000E+00 -0.00000000000E+00 -0.45593999997E+02  0.45594000000E+02  0.51100000000E-03 0. -1.
    9900012    2    1    2    0    0  0.10656793169E-01 -0.74048508245E+00  0.91897578191E+00  0.90007767730E+02  0.90000029464E+02 0.  0.
         12    1    1    2    0    0 -0.10656793169E-01  0.74048508245E+00 -0.91897578191E+00  0.11802322705E+01  0.00000000000E+00 0. -1.
         11    1    3    3    0    0 -0.13987039531E+02 -0.11798494221E+02 -0.32397986469E+02  0.37208483821E+02  0.51100000000E-03 0. -1.
        -11    1    3    3    0    0 -0.12442637563E+02  0.14506608205E+01  0.13315701903E+02  0.18282001088E+02  0.51100000000E-03 0.  1.
        -12    1    3    3    0    0  0.26440333888E+02  0.96073483178E+01  0.20001260349E+02  0.34517282821E+02  0.00000000000E+00 0.  1.
</event>
<event>
 7    1  0.1935465E-015  0.9000776E+02  0.7816164E-02  0.1186339E+00
        -11   -1    0    0    0    0  0.00000000000E+00  0.00000000000E+00  0.45593999997E+02  0.45594000000E+02  0.51100000000E-03 0. -1.
         11   -1    0    0    0    0 -0.00000000000E+00 -0.00000000000E+00 -0.45593999997E+02  0.45594000000E+02  0.51100000000E-03 0.  1.
    9900012    2    1    2    0    0  0.10097295554E+01  0.61053337442E+00  0.25702829413E-01  0.90007760443E+02  0.90000022081E+02 0.  0.
         12    1    1    2    0    0 -0.10097295554E+01 -0.61053337442E+00 -0.25702829413E-01  0.11802395569E+01  0.00000000000E+00 0. -1.
         11    1    3    3    0    0 -0.24059306667E+00  0.94932336940E+01 -0.20960059431E+01  0.97248450974E+01  0.51100000000E-03 0. -1.
        -11    1    3    3    0    0 -0.34798398385E+02 -0.20461476855E+02 -0.78605843960E+01  0.41126504259E+02  0.51100000000E-03 0.  1.
         12    1    3    3    0    0  0.36048721007E+02  0.11578776535E+02  0.99822931685E+01  0.39156411087E+02  0.00000000000E+00 0. -1.
</event>
<event>
 7    1  0.1935465E-015  0.9000777E+02  0.7816164E-02  0.1186339E+00
        -11   -1    0    0    0    0  0.00000000000E+00  0.00000000000E+00  0.45593999997E+02  0.45594000000E+02  0.51100000000E-03 0.  1.
         11   -1    0    0    0    0 -0.00000000000E+00 -0.00000000000E+00 -0.45593999997E+02  0.45594000000E+02  0.51100000000E-03 0. -1.
    9900012    2    1    2    0    0 -0.87780647575E+00 -0.14835366045E-01 -0.78877921146E+00  0.90007772504E+02  0.90000034301E+02 0.  0.
         12    1    1    2    0    0  0.87780647575E+00  0.14835366045E-01  0.78877921146E+00  0.11802274956E+01  0.00000000000E+00 0. -1.
         11    1    3    3    0    0  0.13890756453E+01  0.11503679725E+02 -0.17568750892E+01  0.11719675282E+02  0.51100000000E-03 0. -1.
        -11    1    3    3    0    0  0.13580685635E+02  0.24070269458E+02  0.20784071861E+02  0.34580204416E+02  0.51100000000E-03 0.  1.
         12    1    3    3    0    0 -0.15847567756E+02 -0.35588784549E+02 -0.19815975983E+02  0.43707892807E+02  0.00000000000E+00 0. -1.
</event>
<event>
 7    1  0.1935465E-015  0.9000771E+02  0.7816164E-02  0.1186339E+00
        -11   -1    0    0    0    0  0.00000000000E+00  0.00000000000E+00  0.45593999997E+02  0.45594000000E+02  0.51100000000E-03 0.  1.
         11   -1    0    0    0    0 -0.00000000000E+00 -0.00000000000E+00 -0.45593999997E+02  0.45594000000E+02  0.51100000000E-03 0. -1.
    9900012    2    1    2    0    0  0.88295347348E+00 -0.78324482433E+00  0.17623158105E-02  0.90007710884E+02  0.89999971868E+02 0.  0.
         12    1    1    2    0    0 -0.88295347348E+00  0.78324482433E+00 -0.17623158105E-02  0.11802891158E+01  0.00000000000E+00 0. -1.
         11    1    3    3    0    0 -0.56525544418E+01 -0.33572811521E+02  0.18917459491E+02  0.38948110596E+02  0.51100000000E-03 0. -1.
        -11    1    3    3    0    0 -0.49264739447E+01 -0.48462398766E+01 -0.72683798919E+01  0.10029233918E+02  0.51100000000E-03 0.  1.
        -12    1    3    3    0    0  0.11461981860E+02  0.37635806573E+02 -0.11647317283E+02  0.41030366370E+02  0.00000000000E+00 0.  1.
</event>
<event>
 7    1  0.1935465E-015  0.9000769E+02  0.7816164E-02  0.1186339E+00
        -11   -1    0    0    0    0  0.00000000000E+00  0.00000000000E+00  0.45593999997E+02  0.45594000000E+02  0.51100000000E-03 0.  1.
         11   -1    0    0    0    0 -0.00000000000E+00 -0.00000000000E+00 -0.45593999997E+02  0.45594000000E+02  0.51100000000E-03 0. -1.
    9900012    2    1    2    0    0  0.10940564202E+01 -0.16055753392E+00  0.41280147688E+00  0.90007685113E+02  0.89999945757E+02 0.  0.
         12    1    1    2    0    0 -0.10940564202E+01  0.16055753392E+00 -0.41280147688E+00  0.11803148866E+01  0.00000000000E+00 0. -1.
         11    1    3    3    0    0  0.23840630388E+01 -0.54918596485E+01  0.97721218385E+01  0.11460307346E+02  0.51100000000E-03 0. -1.
        -11    1    3    3    0    0  0.10214892045E+02 -0.25748912036E+02  0.20084375940E+02  0.34215970652E+02  0.51100000000E-03 0.  1.
         12    1    3    3    0    0 -0.11504898664E+02  0.31080214151E+02 -0.29443696301E+02  0.44331407115E+02  0.00000000000E+00 0. -1.
</event>
<event>
 7    1  0.1935465E-015  0.9000779E+02  0.7816164E-02  0.1186339E+00
        -11   -1    0    0    0    0  0.00000000000E+00  0.00000000000E+00  0.45593999997E+02  0.45594000000E+02  0.51100000000E-03 0.  1.
         11   -1    0    0    0    0 -0.00000000000E+00 -0.00000000000E+00 -0.45593999997E+02  0.45594000000E+02  0.51100000000E-03 0. -1.
    9900012    2    1    2    0    0  0.61335853196E+00 -0.98172161138E+00  0.23002810035E+00  0.90007788605E+02  0.90000050614E+02 0.  0.
         12    1    1    2    0    0 -0.61335853196E+00  0.98172161138E+00 -0.23002810035E+00  0.11802113954E+01  0.00000000000E+00 0. -1.
         11    1    3    3    0    0  0.16035417875E+02 -0.23123600422E+02 -0.21053603554E+02  0.35143843639E+02  0.51100000000E-03 0. -1.
        -11    1    3    3    0    0 -0.90303002939E+00 -0.12720386573E+02  0.64450853335E+01  0.14288555666E+02  0.51100000000E-03 0.  1.
        -12    1    3    3    0    0 -0.14519029314E+02  0.34862265383E+02  0.14838546321E+02  0.40575389299E+02  0.00000000000E+00 0.  1.
</event>
<event>
 7    1  0.1935465E-015  0.9000790E+02  0.7816164E-02  0.1186339E+00
        -11   -1    0    0    0    0  0.00000000000E+00  0.00000000000E+00  0.45593999997E+02  0.45594000000E+02  0.51100000000E-03 0.  1.
         11   -1    0    0    0    0 -0.00000000000E+00 -0.00000000000E+00 -0.45593999997E+02  0.45594000000E+02  0.51100000000E-03 0. -1.
    9900012    2    1    2    0    0 -0.23506977341E+00  0.37542666009E+00  0.10938191851E+01  0.90007896875E+02  0.90000160314E+02 0.  0.
         12    1    1    2    0    0  0.23506977341E+00 -0.37542666009E+00 -0.10938191851E+01  0.11801031248E+01  0.00000000000E+00 0. -1.
         11    1    3    3    0    0  0.21398737338E+02  0.33215860521E+02 -0.12879906195E+01  0.39533002288E+02  0.51100000000E-03 0. -1.
        -11    1    3    3    0    0 -0.82529808313E+01 -0.44304852319E+01 -0.12584175158E+02  0.15687649813E+02  0.51100000000E-03 0.  1.
        -12    1    3    3    0    0 -0.13380826280E+02 -0.28409948629E+02  0.14965984963E+02  0.34787244774E+02  0.00000000000E+00 0.  1.
</event>
<event>
 7    1  0.1935465E-015  0.9000777E+02  0.7816164E-02  0.1186339E+00
        -11   -1    0    0    0    0  0.00000000000E+00  0.00000000000E+00  0.45593999997E+02  0.45594000000E+02  0.51100000000E-03 0.  1.
         11   -1    0    0    0    0 -0.00000000000E+00 -0.00000000000E+00 -0.45593999997E+02  0.45594000000E+02  0.51100000000E-03 0. -1.
    9900012    2    1    2    0    0 -0.89408623252E+00 -0.55030850225E+00 -0.53918068182E+00  0.90007768901E+02  0.90000030651E+02 0.  0.
         12    1    1    2    0    0  0.89408623252E+00  0.55030850225E+00  0.53918068182E+00  0.11802310988E+01  0.00000000000E+00 0. -1.
         11    1    3    3    0    0  0.19657193909E+01 -0.98670843413E+01 -0.35014917005E+02  0.36431687022E+02  0.51100000000E-03 0. -1.
        -11    1    3    3    0    0  0.10488602228E+02 -0.16956167050E+01 -0.40278142450E+01  0.11362622082E+02  0.51100000000E-03 0.  1.
        -12    1    3    3    0    0 -0.13348407852E+02  0.11012392544E+02  0.38503550568E+02  0.42213459798E+02  0.00000000000E+00 0.  1.
</event>
<event>
 7    1  0.1935465E-015  0.9000782E+02  0.7816164E-02  0.1186339E+00
        -11   -1    0    0    0    0  0.00000000000E+00  0.00000000000E+00  0.45593999997E+02  0.45594000000E+02  0.51100000000E-03 0. -1.
         11   -1    0    0    0    0 -0.00000000000E+00 -0.00000000000E+00 -0.45593999997E+02  0.45594000000E+02  0.51100000000E-03 0.  1.
    9900012    2    1    2    0    0  0.74480219579E+00 -0.64996878988E+00 -0.64469234869E+00  0.90007822910E+02  0.90000085373E+02 0.  0.
         12    1    1    2    0    0 -0.74480219579E+00  0.64996878988E+00  0.64469234869E+00  0.11801770897E+01  0.00000000000E+00 0. -1.
         11    1    3    3    0    0  0.15415646897E+01  0.96570990177E+01 -0.79194654149E+00  0.98113792464E+01  0.51100000000E-03 0. -1.
        -11    1    3    3    0    0  0.22986345701E+01  0.33032110697E+02 -0.11770848285E+02  0.35141953953E+02  0.51100000000E-03 0.  1.
         12    1    3    3    0    0 -0.30953970641E+01 -0.43339178505E+02  0.11918102478E+02  0.45054489711E+02  0.00000000000E+00 0. -1.
</event>
<event>
 7    1  0.1935465E-015  0.9000777E+02  0.7816164E-02  0.1186339E+00
        -11   -1    0    0    0    0  0.00000000000E+00  0.00000000000E+00  0.45593999997E+02  0.45594000000E+02  0.51100000000E-03 0. -1.
         11   -1    0    0    0    0 -0.00000000000E+00 -0.00000000000E+00 -0.45593999997E+02  0.45594000000E+02  0.51100000000E-03 0.  1.
    9900012    2    1    2    0    0 -0.55198890211E+00  0.64842250370E+00 -0.81719435798E+00  0.90007766926E+02  0.90000028649E+02 0.  0.
         12    1    1    2    0    0  0.55198890211E+00 -0.64842250370E+00  0.81719435798E+00  0.11802330745E+01  0.00000000000E+00 0. -1.
         11    1    3    3    0    0  0.35287541919E+02 -0.50446363024E+01 -0.14214242966E+02  0.38375821470E+02  0.51100000000E-03 0. -1.
        -11    1    3    3    0    0  0.51464360681E+00  0.10973782977E+02 -0.30220377739E+01  0.11393923093E+02  0.51100000000E-03 0.  1.
        -12    1    3    3    0    0 -0.36354174428E+02 -0.52807241710E+01  0.16419086382E+02  0.40238022363E+02  0.00000000000E+00 0.  1.
</event>
<event>
 7    1  0.1935465E-015  0.9000775E+02  0.7816164E-02  0.1186339E+00
        -11   -1    0    0    0    0  0.00000000000E+00  0.00000000000E+00  0.45593999997E+02  0.45594000000E+02  0.51100000000E-03 0.  1.
         11   -1    0    0    0    0 -0.00000000000E+00 -0.00000000000E+00 -0.45593999997E+02  0.45594000000E+02  0.51100000000E-03 0. -1.
    9900012    2    1    2    0    0 -0.54016160136E+00 -0.58374484121E+00  0.87204562539E+00  0.90007747413E+02  0.90000008879E+02 0.  0.
         12    1    1    2    0    0  0.54016160136E+00  0.58374484121E+00 -0.87204562539E+00  0.11802525865E+01  0.00000000000E+00 0. -1.
         11    1    3    3    0    0 -0.61462253978E+01 -0.52251828186E+01  0.53517425461E+01  0.96808972037E+01  0.51100000000E-03 0. -1.
        -11    1    3    3    0    0  0.14702970639E+02 -0.35262914329E+02 -0.86947481174E+01  0.39182255137E+02  0.51100000000E-03 0.  1.
         12    1    3    3    0    0 -0.90969068421E+01  0.39904352306E+02  0.42150511967E+01  0.41144595072E+02  0.00000000000E+00 0. -1.
</event>
<event>
 7    1  0.1935465E-015  0.9000775E+02  0.7816164E-02  0.1186339E+00
        -11   -1    0    0    0    0  0.00000000000E+00  0.00000000000E+00  0.45593999997E+02  0.45594000000E+02  0.51100000000E-03 0. -1.
         11   -1    0    0    0    0 -0.00000000000E+00 -0.00000000000E+00 -0.45593999997E+02  0.45594000000E+02  0.51100000000E-03 0.  1.
    9900012    2    1    2    0    0  0.92687121107E+00  0.70300319815E+00 -0.19921786409E+00  0.90007749393E+02  0.90000010885E+02 0.  0.
         12    1    1    2    0    0 -0.92687121107E+00 -0.70300319815E+00  0.19921786409E+00  0.11802506072E+01  0.00000000000E+00 0. -1.
         11    1    3    3    0    0 -0.31307783164E+01 -0.33531057539E+02 -0.10170756847E+02  0.35179225228E+02  0.51100000000E-03 0. -1.
        -11    1    3    3    0    0  0.12062139428E+01 -0.97375504636E+01  0.10236369033E+01  0.98652254854E+01  0.51100000000E-03 0.  1.
        -12    1    3    3    0    0  0.28514355847E+01  0.43971611201E+02  0.89479020791E+01  0.44963298679E+02  0.00000000000E+00 0.  1.
</event>
<event>
 7    1  0.1935465E-015  0.9000764E+02  0.7816164E-02  0.1186339E+00
        -11   -1    0    0    0    0  0.00000000000E+00  0.00000000000E+00  0.45593999997E+02  0.45594000000E+02  0.51100000000E-03 0.  1.
         11   -1    0    0    0    0 -0.00000000000E+00 -0.00000000000E+00 -0.45593999997E+02  0.45594000000E+02  0.51100000000E-03 0. -1.
    9900012    2    1    2    0    0  0.11512031334E+01 -0.23839874915E+00 -0.10556374736E+00  0.90007641443E+02  0.89999901510E+02 0.  0.
         12    1    1    2    0    0 -0.11512031334E+01  0.23839874915E+00  0.10556374736E+00  0.11803585568E+01  0.00000000000E+00 0. -1.
         11    1    3    3    0    0 -0.55915157701E+01  0.73883380857E+01  0.13524512021E+01  0.93638513867E+01  0.51100000000E-03 0. -1.
        -11    1    3    3    0    0 -0.31510918722E+01  0.35603697067E+02  0.39787448543E+01  0.35963634907E+02  0.51100000000E-03 0.  1.
         12    1    3    3    0    0  0.98938107757E+01 -0.43230433902E+02 -0.54367598037E+01  0.44680155150E+02  0.00000000000E+00 0. -1.
</event>
<event>
 7    1  0.1935465E-015  0.9000781E+02  0.7816164E-02  0.1186339E+00
        -11   -1    0    0    0    0  0.00000000000E+00  0.00000000000E+00  0.45593999997E+02  0.45594000000E+02  0.51100000000E-03 0. -1.
         11   -1    0    0    0    0 -0.00000000000E+00 -0.00000000000E+00 -0.45593999997E+02  0.45594000000E+02  0.51100000000E-03 0.  1.
    9900012    2    1    2    0    0  0.11566050123E+01  0.30642418269E-02 -0.23474874415E+00  0.90007808695E+02  0.90000070970E+02 0.  0.
         12    1    1    2    0    0 -0.11566050123E+01 -0.30642418269E-02  0.23474874415E+00  0.11801913052E+01  0.00000000000E+00 0. -1.
         11    1    3    3    0    0  0.26074719712E+02  0.29711003268E+02 -0.11172863271E+02  0.41078797417E+02  0.51100000000E-03 0. -1.
        -11    1    3    3    0    0  0.38742401733E+01  0.56307924073E+00  0.55701920407E+01  0.68083650595E+01  0.51100000000E-03 0.  1.
        -12    1    3    3    0    0 -0.28792354873E+02 -0.30271018267E+02  0.53679224865E+01  0.42120646219E+02  0.00000000000E+00 0.  1.
</event>
<event>
 7    1  0.1935465E-015  0.9000774E+02  0.7816164E-02  0.1186339E+00
        -11   -1    0    0    0    0  0.00000000000E+00  0.00000000000E+00  0.45593999997E+02  0.45594000000E+02  0.51100000000E-03 0.  1.
         11   -1    0    0    0    0 -0.00000000000E+00 -0.00000000000E+00 -0.45593999997E+02  0.45594000000E+02  0.51100000000E-03 0. -1.
    9900012    2    1    2    0    0  0.75120548588E+00  0.46445406078E+00  0.78292945892E+00  0.90007743335E+02  0.90000004747E+02 0.  0.
         12    1    1    2    0    0 -0.75120548588E+00 -0.46445406078E+00 -0.78292945892E+00  0.11802566646E+01  0.00000000000E+00 0. -1.
         11    1    3    3    0    0 -0.31424098330E+02 -0.40704807854E+01 -0.19355238390E+02  0.37130419107E+02  0.51100000000E-03 0. -1.
        -11    1    3    3    0    0 -0.13575090662E+01 -0.92374833034E+01 -0.30762138993E+01  0.98304130564E+01  0.51100000000E-03 0.  1.
        -12    1    3    3    0    0  0.33532812882E+02  0.13772418150E+02  0.23214381748E+02  0.43046911172E+02  0.00000000000E+00 0.  1.
</event>
<event>
 7    1  0.1935465E-015  0.9000787E+02  0.7816164E-02  0.1186339E+00
        -11   -1    0    0    0    0  0.00000000000E+00  0.00000000000E+00  0.45593999997E+02  0.45594000000E+02  0.51100000000E-03 0. -1.
         11   -1    0    0    0    0 -0.00000000000E+00 -0.00000000000E+00 -0.45593999997E+02  0.45594000000E+02  0.51100000000E-03 0.  1.
    9900012    2    1    2    0    0 -0.66967582122E+00 -0.96307610813E+00  0.12928871902E+00  0.90007874215E+02  0.90000137355E+02 0.  0.
         12    1    1    2    0    0  0.66967582122E+00  0.96307610813E+00 -0.12928871902E+00  0.11801257850E+01  0.00000000000E+00 0. -1.
         11    1    3    3    0    0  0.68477790654E+01 -0.76404262108E+01  0.32243792323E+01  0.10754757668E+02  0.51100000000E-03 0. -1.
        -11    1    3    3    0    0 -0.22173613696E+02 -0.30521985962E+02 -0.91368646093E+01  0.38816788463E+02  0.51100000000E-03 0.  1.
         12    1    3    3    0    0  0.14656158809E+02  0.37199336065E+02  0.60417740960E+01  0.40436328084E+02  0.00000000000E+00 0. -1.
</event>
<event>
 7    1  0.1935465E-015  0.9000770E+02  0.7816164E-02  0.1186339E+00
        -11   -1    0    0    0    0  0.00000000000E+00  0.00000000000E+00  0.45593999997E+02  0.45594000000E+02  0.51100000000E-03 0. -1.
         11   -1    0    0    0    0 -0.00000000000E+00 -0.00000000000E+00 -0.45593999997E+02  0.45594000000E+02  0.51100000000E-03 0.  1.
    9900012    2    1    2    0    0 -0.62909909480E+00 -0.47042017839E+00 -0.88094035423E+00  0.90007696343E+02  0.89999957135E+02 0.  0.
         12    1    1    2    0    0  0.62909909480E+00  0.47042017839E+00  0.88094035423E+00  0.11803036571E+01  0.00000000000E+00 0. -1.
         11    1    3    3    0    0 -0.14542718516E+02 -0.71523716491E+01  0.31114627822E+02  0.35082291071E+02  0.51100000000E-03 0. -1.
        -11    1    3    3    0    0 -0.95782955697E+01 -0.46743152299E+01  0.31858403012E+01  0.11123962764E+02  0.51100000000E-03 0.  1.
        -12    1    3    3    0    0  0.23491914991E+02  0.11356266701E+02 -0.35181408478E+02  0.43801442508E+02  0.00000000000E+00 0.  1.
</event>
<event>
 7    1  0.1935465E-015  0.9000768E+02  0.7816164E-02  0.1186339E+00
        -11   -1    0    0    0    0  0.00000000000E+00  0.00000000000E+00  0.45593999997E+02  0.45594000000E+02  0.51100000000E-03 0. -1.
         11   -1    0    0    0    0 -0.00000000000E+00 -0.00000000000E+00 -0.45593999997E+02  0.45594000000E+02  0.51100000000E-03 0.  1.
    9900012    2    1    2    0    0 -0.10083757069E+01  0.58386573098E+00 -0.18824694932E+00  0.90007678996E+02  0.89999939559E+02 0.  0.
         12    1    1    2    0    0  0.10083757069E+01 -0.58386573098E+00  0.18824694932E+00  0.11803210038E+01  0.00000000000E+00 0. -1.
         11    1    3    3    0    0  0.41827285047E+01 -0.33512667901E+01  0.13105266262E+02  0.14158891584E+02  0.51100000000E-03 0. -1.
        -11    1    3    3    0    0  0.40250037158E+01 -0.19799207001E+02  0.23571833337E+02  0.31045781999E+02  0.51100000000E-03 0.  1.
        -12    1    3    3    0    0 -0.92161079274E+01  0.23734339522E+02 -0.36865346548E+02  0.44803005413E+02  0.00000000000E+00 0.  1.
</event>
<event>
 7    1  0.1935465E-015  0.9000753E+02  0.7816164E-02  0.1186339E+00
        -11   -1    0    0    0    0  0.00000000000E+00  0.00000000000E+00  0.45593999997E+02  0.45594000000E+02  0.51100000000E-03 0.  1.
         11   -1    0    0    0    0 -0.00000000000E+00 -0.00000000000E+00 -0.45593999997E+02  0.45594000000E+02  0.51100000000E-03 0. -1.
    9900012    2    1    2    0    0 -0.10322675493E+01 -0.20701651893E+00 -0.53393473438E+00  0.90007526183E+02  0.89999784728E+02 0.  0.
         12    1    1    2    0    0  0.10322675493E+01  0.20701651893E+00  0.53393473438E+00  0.11804738172E+01  0.00000000000E+00 0. -1.
         11    1    3    3    0    0  0.41121292356E+01  0.35112750122E+01 -0.84849467407E+01  0.10061460158E+02  0.51100000000E-03 0. -1.
        -11    1    3    3    0    0  0.18445037239E+02  0.22697881399E+02 -0.19487325967E+02  0.35144972505E+02  0.51100000000E-03 0.  1.
         12    1    3    3    0    0 -0.23589434024E+02 -0.26416172930E+02  0.27438337973E+02  0.44801093520E+02  0.00000000000E+00 0. -1.
</event>
<event>
 7    1  0.1935465E-015  0.9000783E+02  0.7816164E-02  0.1186339E+00
        -11   -1    0    0    0    0  0.00000000000E+00  0.00000000000E+00  0.45593999997E+02  0.45594000000E+02  0.51100000000E-03 0. -1.
         11   -1    0    0    0    0 -0.00000000000E+00 -0.00000000000E+00 -0.45593999997E+02  0.45594000000E+02  0.51100000000E-03 0.  1.
    9900012    2    1    2    0    0 -0.93894353874E+00  0.29957807690E-01  0.71433838621E+00  0.90007834008E+02  0.90000096617E+02 0.  0.
         12    1    1    2    0    0  0.93894353874E+00 -0.29957807690E-01 -0.71433838621E+00  0.11801659922E+01  0.00000000000E+00 0. -1.
         11    1    3    3    0    0 -0.65943483470E+01  0.32584484495E+01  0.40581690166E+02  0.41242896278E+02  0.51100000000E-03 0. -1.
        -11    1    3    3    0    0 -0.48381981135E+01  0.69125413207E+01 -0.27377785461E+01  0.88705591776E+01  0.51100000000E-03 0.  1.
        -12    1    3    3    0    0  0.10493602922E+02 -0.10141031962E+02 -0.37129573234E+02  0.39894378552E+02  0.00000000000E+00 0.  1.
</event>
<event>
 7    1  0.1935465E-015  0.9000772E+02  0.7816164E-02  0.1186339E+00
        -11   -1    0    0    0    0  0.00000000000E+00  0.00000000000E+00  0.45593999997E+02  0.45594000000E+02  0.51100000000E-03 0.  1.
         11   -1    0    0    0    0 -0.00000000000E+00 -0.00000000000E+00 -0.45593999997E+02  0.45594000000E+02  0.51100000000E-03 0. -1.
    9900012    2    1    2    0    0 -0.84553396917E+00  0.51090191712E+00 -0.64584528976E+00  0.90007718423E+02  0.89999979507E+02 0.  0.
         12    1    1    2    0    0  0.84553396917E+00 -0.51090191712E+00  0.64584528976E+00  0.11802815767E+01  0.00000000000E+00 0. -1.
         11    1    3    3    0    0  0.20346436387E+02 -0.14986545356E+02 -0.92221536310E+01  0.26900225523E+02  0.51100000000E-03 0. -1.
        -11    1    3    3    0    0 -0.41571434851E+01 -0.17036159698E+02  0.18066403863E+02  0.25177520291E+02  0.51100000000E-03 0.  1.
        -12    1    3    3    0    0 -0.17034826871E+02  0.32533606971E+02 -0.94900955213E+01  0.37929972609E+02  0.00000000000E+00 0.  1.
</event>
<event>
 7    1  0.1935465E-015  0.9000785E+02  0.7816164E-02  0.1186339E+00
        -11   -1    0    0    0    0  0.00000000000E+00  0.00000000000E+00  0.45593999997E+02  0.45594000000E+02  0.51100000000E-03 0.  1.
         11   -1    0    0    0    0 -0.00000000000E+00 -0.00000000000E+00 -0.45593999997E+02  0.45594000000E+02  0.51100000000E-03 0. -1.
    9900012    2    1    2    0    0  0.57248767473E+00  0.81353383468E+00  0.63496120039E+00  0.90007849516E+02  0.90000112330E+02 0.  0.
         12    1    1    2    0    0 -0.57248767473E+00 -0.81353383468E+00 -0.63496120039E+00  0.11801504836E+01  0.00000000000E+00 0. -1.
         11    1    3    3    0    0  0.26912489308E+02  0.12175965749E+01 -0.21751147936E+02  0.34624804100E+02  0.51100000000E-03 0. -1.
        -11    1    3    3    0    0  0.68510442459E+01  0.19772841903E+01 -0.77196918277E+01  0.10509048587E+02  0.51100000000E-03 0.  1.
        -12    1    3    3    0    0 -0.33191045879E+02 -0.23813469305E+01  0.30105800964E+02  0.44873996829E+02  0.00000000000E+00 0.  1.
</event>
<event>
 7    1  0.1935465E-015  0.9000775E+02  0.7816164E-02  0.1186339E+00
        -11   -1    0    0    0    0  0.00000000000E+00  0.00000000000E+00  0.45593999997E+02  0.45594000000E+02  0.51100000000E-03 0. -1.
         11   -1    0    0    0    0 -0.00000000000E+00 -0.00000000000E+00 -0.45593999997E+02  0.45594000000E+02  0.51100000000E-03 0.  1.
    9900012    2    1    2    0    0  0.69896364395E+00 -0.65072351553E-01 -0.94879255246E+00  0.90007749224E+02  0.90000010714E+02 0.  0.
         12    1    1    2    0    0 -0.69896364395E+00  0.65072351553E-01  0.94879255246E+00  0.11802507759E+01  0.00000000000E+00 0. -1.
         11    1    3    3    0    0 -0.25932643272E+00 -0.21456977789E+01 -0.10403551340E+02  0.10625683503E+02  0.51100000000E-03 0. -1.
        -11    1    3    3    0    0 -0.20247032725E+02  0.32908776099E+02 -0.56149127637E+01  0.39044296947E+02  0.51100000000E-03 0.  1.
         12    1    3    3    0    0  0.21205322802E+02 -0.30828150672E+02  0.15069671551E+02  0.40337768774E+02  0.00000000000E+00 0. -1.
</event>
<event>
 7    1  0.1935465E-015  0.9000774E+02  0.7816164E-02  0.1186339E+00
        -11   -1    0    0    0    0  0.00000000000E+00  0.00000000000E+00  0.45593999997E+02  0.45594000000E+02  0.51100000000E-03 0.  1.
         11   -1    0    0    0    0 -0.00000000000E+00 -0.00000000000E+00 -0.45593999997E+02  0.45594000000E+02  0.51100000000E-03 0. -1.
    9900012    2    1    2    0    0 -0.33243681031E+00 -0.59693088344E-01  0.11308955911E+01  0.90007744801E+02  0.90000006232E+02 0.  0.
         12    1    1    2    0    0  0.33243681031E+00  0.59693088344E-01 -0.11308955911E+01  0.11802551994E+01  0.00000000000E+00 0. -1.
         11    1    3    3    0    0 -0.32090667539E+01 -0.32583912318E+02 -0.12485650001E+02  0.35041417032E+02  0.51100000000E-03 0. -1.
        -11    1    3    3    0    0 -0.31339185697E+01 -0.66484584532E+01 -0.71241006450E+01  0.10236027338E+02  0.51100000000E-03 0.  1.
        -12    1    3    3    0    0  0.60105485133E+01  0.39172677683E+02  0.20740646237E+02  0.44730300431E+02  0.00000000000E+00 0.  1.
</event>
<event>
 7    1  0.1935465E-015  0.9000775E+02  0.7816164E-02  0.1186339E+00
        -11   -1    0    0    0    0  0.00000000000E+00  0.00000000000E+00  0.45593999997E+02  0.45594000000E+02  0.51100000000E-03 0.  1.
         11   -1    0    0    0    0 -0.00000000000E+00 -0.00000000000E+00 -0.45593999997E+02  0.45594000000E+02  0.51100000000E-03 0. -1.
    9900012    2    1    2    0    0 -0.11287027356E+01  0.19573166140E+00  0.28411145212E+00  0.90007745762E+02  0.90000007206E+02 0.  0.
         12    1    1    2    0    0  0.11287027356E+01 -0.19573166140E+00 -0.28411145212E+00  0.11802542378E+01  0.00000000000E+00 0. -1.
         11    1    3    3    0    0 -0.29885208802E+02  0.31480172448E+01 -0.20700046586E+02  0.36490103407E+02  0.51100000000E-03 0. -1.
        -11    1    3    3    0    0  0.87795240273E+01 -0.19153680108E+01 -0.11969787297E+02  0.14967447510E+02  0.51100000000E-03 0.  1.
        -12    1    3    3    0    0  0.19976982039E+02 -0.10369175726E+01  0.32953945335E+02  0.38550194845E+02  0.00000000000E+00 0.  1.
</event>
<event>
 7    1  0.1935465E-015  0.9000763E+02  0.7816164E-02  0.1186339E+00
        -11   -1    0    0    0    0  0.00000000000E+00  0.00000000000E+00  0.45593999997E+02  0.45594000000E+02  0.51100000000E-03 0.  1.
         11   -1    0    0    0    0 -0.00000000000E+00 -0.00000000000E+00 -0.45593999997E+02  0.45594000000E+02  0.51100000000E-03 0. -1.
    9900012    2    1    2    0    0  0.78124704521E-01  0.77356834881E+00 -0.88812485761E+00  0.90007628354E+02  0.89999888248E+02 0.  0.
         12    1    1    2    0    0 -0.78124704521E-01 -0.77356834881E+00  0.88812485761E+00  0.11803716459E+01  0.00000000000E+00 0. -1.
         11    1    3    3    0    0  0.19723826176E+02  0.37467171810E+01 -0.31749169437E+02  0.37564304451E+02  0.51100000000E-03 0. -1.
        -11    1    3    3    0    0  0.45937093549E+01 -0.11317063755E+02 -0.14177030816E+00  0.12214671373E+02  0.51100000000E-03 0.  1.
        -12    1    3    3    0    0 -0.24239410827E+02  0.83439149230E+01  0.31002814887E+02  0.40228652530E+02  0.00000000000E+00 0.  1.
</event>
<event>
 7    1  0.1935465E-015  0.9000775E+02  0.7816164E-02  0.1186339E+00
        -11   -1    0    0    0    0  0.00000000000E+00  0.00000000000E+00  0.45593999997E+02  0.45594000000E+02  0.51100000000E-03 0. -1.
         11   -1    0    0    0    0 -0.00000000000E+00 -0.00000000000E+00 -0.45593999997E+02  0.45594000000E+02  0.51100000000E-03 0.  1.
    9900012    2    1    2    0    0  0.39453374782E+00  0.39951349154E+00 -0.10381316603E+01  0.90007752038E+02  0.90000013565E+02 0.  0.
         12    1    1    2    0    0 -0.39453374782E+00 -0.39951349154E+00  0.10381316603E+01  0.11802479622E+01  0.00000000000E+00 0. -1.
         11    1    3    3    0    0 -0.23452934245E+02 -0.18621421579E+02  0.21514659703E+02  0.36873812506E+02  0.51100000000E-03 0. -1.
        -11    1    3    3    0    0  0.66480993004E+00  0.51919022280E+01  0.97323260140E+01  0.11050610431E+02  0.51100000000E-03 0.  1.
        -12    1    3    3    0    0  0.23182658063E+02  0.13829032843E+02 -0.32285117377E+02  0.42083329101E+02  0.00000000000E+00 0.  1.
</event>
<event>
 7    1  0.1935465E-015  0.9000766E+02  0.7816164E-02  0.1186339E+00
        -11   -1    0    0    0    0  0.00000000000E+00  0.00000000000E+00  0.45593999997E+02  0.45594000000E+02  0.51100000000E-03 0.  1.
         11   -1    0    0    0    0 -0.00000000000E+00 -0.00000000000E+00 -0.45593999997E+02  0.45594000000E+02  0.51100000000E-03 0. -1.
    9900012    2    1    2    0    0  0.55483335407E+00 -0.78891884996E-01  0.10388207149E+01  0.90007655788E+02  0.89999916045E+02 0.  0.
         12    1    1    2    0    0 -0.55483335407E+00  0.78891884996E-01 -0.10388207149E+01  0.11803442117E+01  0.00000000000E+00 0. -1.
         11    1    3    3    0    0 -0.29836201051E+01  0.92010269538E+01  0.39518681996E+01  0.10448834790E+02  0.51100000000E-03 0. -1.
        -11    1    3    3    0    0  0.80059487959E+01  0.33157319857E+02 -0.11567701197E+02  0.36018256308E+02  0.51100000000E-03 0.  1.
         12    1    3    3    0    0 -0.44674953366E+01 -0.42437238696E+02  0.86546537119E+01  0.43540564691E+02  0.00000000000E+00 0. -1.
</event>
<event>
 7    1  0.1935465E-015  0.9000771E+02  0.7816164E-02  0.1186339E+00
        -11   -1    0    0    0    0  0.00000000000E+00  0.00000000000E+00  0.45593999997E+02  0.45594000000E+02  0.51100000000E-03 0.  1.
         11   -1    0    0    0    0 -0.00000000000E+00 -0.00000000000E+00 -0.45593999997E+02  0.45594000000E+02  0.51100000000E-03 0. -1.
    9900012    2    1    2    0    0  0.97680527702E+00 -0.83295280729E-01  0.65726865437E+00  0.90007708198E+02  0.89999969147E+02 0.  0.
         12    1    1    2    0    0 -0.97680527702E+00  0.83295280729E-01 -0.65726865437E+00  0.11802918016E+01  0.00000000000E+00 0. -1.
         11    1    3    3    0    0  0.17414477451E+02  0.27645623890E+02  0.13002080567E+02  0.35165304556E+02  0.51100000000E-03 0. -1.
        -11    1    3    3    0    0  0.10737365748E+02 -0.36665680751E+01 -0.14582279742E+02  0.18476407319E+02  0.51100000000E-03 0.  1.
        -12    1    3    3    0    0 -0.27175037922E+02 -0.24062351096E+02  0.22374678303E+01  0.36365996324E+02  0.00000000000E+00 0.  1.
</event>
<event>
 7    1  0.1935465E-015  0.9000768E+02  0.7816164E-02  0.1186339E+00
        -11   -1    0    0    0    0  0.00000000000E+00  0.00000000000E+00  0.45593999997E+02  0.45594000000E+02  0.51100000000E-03 0.  1.
         11   -1    0    0    0    0 -0.00000000000E+00 -0.00000000000E+00 -0.45593999997E+02  0.45594000000E+02  0.51100000000E-03 0. -1.
    9900012    2    1    2    0    0 -0.11380681608E+01  0.10541168211E+00  0.29468456178E+00  0.90007682351E+02  0.89999942958E+02 0.  0.
         12    1    1    2    0    0  0.11380681608E+01 -0.10541168211E+00 -0.29468456178E+00  0.11803176489E+01  0.00000000000E+00 0. -1.
         11    1    3    3    0    0  0.40373630532E+01  0.36296619402E+01  0.10586109808E+02  0.11897078102E+02  0.51100000000E-03 0. -1.
        -11    1    3    3    0    0 -0.33196428434E+02 -0.46811424053E+01  0.18187939983E+02  0.38140754005E+02  0.51100000000E-03 0.  1.
         12    1    3    3    0    0  0.28020997220E+02  0.11568921472E+01 -0.28479365230E+02  0.39969850244E+02  0.00000000000E+00 0. -1.
</event>
<event>
 7    1  0.1935465E-015  0.9000793E+02  0.7816164E-02  0.1186339E+00
        -11   -1    0    0    0    0  0.00000000000E+00  0.00000000000E+00  0.45593999997E+02  0.45594000000E+02  0.51100000000E-03 0. -1.
         11   -1    0    0    0    0 -0.00000000000E+00 -0.00000000000E+00 -0.45593999997E+02  0.45594000000E+02  0.51100000000E-03 0.  1.
    9900012    2    1    2    0    0  0.54247448236E+00  0.89992682887E+00 -0.53704332850E+00  0.90007931189E+02  0.90000195081E+02 0.  0.
         12    1    1    2    0    0 -0.54247448236E+00 -0.89992682887E+00  0.53704332850E+00  0.11800688107E+01  0.00000000000E+00 0. -1.
         11    1    3    3    0    0 -0.94973351463E+01 -0.16591756947E+01  0.12090464059E+01  0.97166883422E+01  0.51100000000E-03 0. -1.
        -11    1    3    3    0    0 -0.34409103462E+02  0.81823092875E+01  0.12235405218E+01  0.35389739163E+02  0.51100000000E-03 0.  1.
         12    1    3    3    0    0  0.44448913091E+02 -0.56232067639E+01 -0.29696302562E+01  0.44901503684E+02  0.00000000000E+00 0. -1.
</event>
<event>
 7    1  0.1935465E-015  0.9000902E+02  0.7816164E-02  0.1186336E+00
        -11   -1    0    0    0    0  0.00000000000E+00  0.00000000000E+00  0.45593999997E+02  0.45594000000E+02  0.51100000000E-03 0. -1.
         11   -1    0    0    0    0 -0.00000000000E+00 -0.00000000000E+00 -0.45593999997E+02  0.45594000000E+02  0.51100000000E-03 0.  1.
    9900012    2    1    2    0    0 -0.10408434781E+01 -0.30796598513E-01  0.55289120277E+00  0.90009020671E+02  0.90001298934E+02 0.  0.
         12    1    1    2    0    0  0.10408434781E+01  0.30796598513E-01 -0.55289120277E+00  0.11789793291E+01  0.00000000000E+00 0. -1.
         11    1    3    3    0    0 -0.32775386091E+02  0.16929472442E+01  0.58395587137E+00  0.32824274683E+02  0.51100000000E-03 0. -1.
        -11    1    3    3    0    0 -0.85465737209E+01  0.11638156414E+02 -0.25838481719E+01  0.14668567712E+02  0.51100000000E-03 0.  1.
         12    1    3    3    0    0  0.40281116333E+02 -0.13361900257E+02  0.25527835033E+01  0.42516178276E+02  0.00000000000E+00 0. -1.
</event>
<event>
 7    1  0.1935465E-015  0.9000774E+02  0.7816164E-02  0.1186339E+00
        -11   -1    0    0    0    0  0.00000000000E+00  0.00000000000E+00  0.45593999997E+02  0.45594000000E+02  0.51100000000E-03 0.  1.
         11   -1    0    0    0    0 -0.00000000000E+00 -0.00000000000E+00 -0.45593999997E+02  0.45594000000E+02  0.51100000000E-03 0. -1.
    9900012    2    1    2    0    0  0.32043299109E+00  0.74655700249E+00  0.85614836301E+00  0.90007739571E+02  0.90000000934E+02 0.  0.
         12    1    1    2    0    0 -0.32043299109E+00 -0.74655700249E+00 -0.85614836301E+00  0.11802604286E+01  0.00000000000E+00 0. -1.
         11    1    3    3    0    0 -0.72023679961E+01 -0.11772161661E+02  0.25458955340E+01  0.14033512720E+02  0.51100000000E-03 0. -1.
        -11    1    3    3    0    0  0.12117269221E+02 -0.12798287929E+02  0.30219372549E+02  0.34983351251E+02  0.51100000000E-03 0.  1.
         12    1    3    3    0    0 -0.45944682333E+01  0.25317006592E+02 -0.31909119720E+02  0.40990875600E+02  0.00000000000E+00 0. -1.
</event>
<event>
 7    1  0.1935465E-015  0.9000767E+02  0.7816164E-02  0.1186339E+00
        -11   -1    0    0    0    0  0.00000000000E+00  0.00000000000E+00  0.45593999997E+02  0.45594000000E+02  0.51100000000E-03 0.  1.
         11   -1    0    0    0    0 -0.00000000000E+00 -0.00000000000E+00 -0.45593999997E+02  0.45594000000E+02  0.51100000000E-03 0. -1.
    9900012    2    1    2    0    0 -0.63388886736E+00  0.61915508698E+00  0.77974584608E+00  0.90007673053E+02  0.89999933537E+02 0.  0.
         12    1    1    2    0    0  0.63388886736E+00 -0.61915508698E+00 -0.77974584608E+00  0.11803269472E+01  0.00000000000E+00 0. -1.
         11    1    3    3    0    0  0.32349989781E+02 -0.23899702648E+02 -0.25523449653E+01  0.40301762871E+02  0.51100000000E-03 0. -1.
        -11    1    3    3    0    0 -0.10161138246E+02 -0.57446182164E+01  0.23370209349E+00  0.11674929800E+02  0.51100000000E-03 0.  1.
        -12    1    3    3    0    0 -0.22822740402E+02  0.30263475951E+02  0.30983887179E+01  0.38030980381E+02  0.00000000000E+00 0.  1.
</event>
<event>
 7    1  0.1935465E-015  0.9000783E+02  0.7816164E-02  0.1186339E+00
        -11   -1    0    0    0    0  0.00000000000E+00  0.00000000000E+00  0.45593999997E+02  0.45594000000E+02  0.51100000000E-03 0. -1.
         11   -1    0    0    0    0 -0.00000000000E+00 -0.00000000000E+00 -0.45593999997E+02  0.45594000000E+02  0.51100000000E-03 0.  1.
    9900012    2    1    2    0    0 -0.11066156155E+01 -0.40135932944E+00  0.84339034166E-01  0.90007830307E+02  0.90000092867E+02 0.  0.
         12    1    1    2    0    0  0.11066156155E+01  0.40135932944E+00 -0.84339034166E-01  0.11801696931E+01  0.00000000000E+00 0. -1.
         11    1    3    3    0    0  0.39517151705E+01 -0.15313260390E+01 -0.77461512525E+01  0.88297152680E+01  0.51100000000E-03 0. -1.
        -11    1    3    3    0    0  0.22635533556E+02  0.30077078368E+02  0.14924777946E+02  0.40493789888E+02  0.51100000000E-03 0.  1.
         12    1    3    3    0    0 -0.27693864342E+02 -0.28947111659E+02 -0.70942876588E+01  0.40684325151E+02  0.00000000000E+00 0. -1.
</event>
<event>
 7    1  0.1935465E-015  0.9000772E+02  0.7816164E-02  0.1186339E+00
        -11   -1    0    0    0    0  0.00000000000E+00  0.00000000000E+00  0.45593999997E+02  0.45594000000E+02  0.51100000000E-03 0.  1.
         11   -1    0    0    0    0 -0.00000000000E+00 -0.00000000000E+00 -0.45593999997E+02  0.45594000000E+02  0.51100000000E-03 0. -1.
    9900012    2    1    2    0    0 -0.30700171752E+00 -0.10900726305E+00  0.11344257579E+01  0.90007722728E+02  0.89999983868E+02 0.  0.
         12    1    1    2    0    0  0.30700171752E+00  0.10900726305E+00 -0.11344257579E+01  0.11802772717E+01  0.00000000000E+00 0. -1.
         11    1    3    3    0    0 -0.16504940399E+01  0.19690375082E+02 -0.24579714666E+02  0.31537237906E+02  0.51100000000E-03 0. -1.
        -11    1    3    3    0    0  0.40842603656E+01  0.16025502490E+02  0.92419111277E+01  0.18944942183E+02  0.51100000000E-03 0.  1.
        -12    1    3    3    0    0 -0.27407680433E+01 -0.35824884835E+02  0.16472229296E+02  0.39525542639E+02  0.00000000000E+00 0.  1.
</event>
<event>
 7    1  0.1935465E-015  0.9000774E+02  0.7816164E-02  0.1186339E+00
        -11   -1    0    0    0    0  0.00000000000E+00  0.00000000000E+00  0.45593999997E+02  0.45594000000E+02  0.51100000000E-03 0. -1.
         11   -1    0    0    0    0 -0.00000000000E+00 -0.00000000000E+00 -0.45593999997E+02  0.45594000000E+02  0.51100000000E-03 0.  1.
    9900012    2    1    2    0    0  0.24230175582E+00  0.11551129272E+01 -0.37701313608E-02  0.90007741457E+02  0.90000002844E+02 0.  0.
         12    1    1    2    0    0 -0.24230175582E+00 -0.11551129272E+01  0.37701313608E-02  0.11802585434E+01  0.00000000000E+00 0. -1.
         11    1    3    3    0    0  0.72200641777E+01  0.27435828904E+01 -0.35211288640E+01  0.84885170993E+01  0.51100000000E-03 0. -1.
        -11    1    3    3    0    0 -0.35240389789E+02  0.12586087723E+02  0.23432768527E+02  0.44151889176E+02  0.51100000000E-03 0.  1.
         12    1    3    3    0    0  0.28262627367E+02 -0.14174557686E+02 -0.19915409795E+02  0.37367335182E+02  0.00000000000E+00 0. -1.
</event>
<event>
 7    1  0.1935465E-015  0.9000775E+02  0.7816164E-02  0.1186339E+00
        -11   -1    0    0    0    0  0.00000000000E+00  0.00000000000E+00  0.45593999997E+02  0.45594000000E+02  0.51100000000E-03 0. -1.
         11   -1    0    0    0    0 -0.00000000000E+00 -0.00000000000E+00 -0.45593999997E+02  0.45594000000E+02  0.51100000000E-03 0.  1.
    9900012    2    1    2    0    0 -0.75390939722E+00 -0.56579984610E+00 -0.71027338009E+00  0.90007747010E+02  0.90000008471E+02 0.  0.
         12    1    1    2    0    0  0.75390939722E+00  0.56579984610E+00  0.71027338009E+00  0.11802529896E+01  0.00000000000E+00 0. -1.
         11    1    3    3    0    0 -0.29496204883E+02 -0.29876872398E+02 -0.88648109590E+01  0.42909654863E+02  0.51100000000E-03 0. -1.
        -11    1    3    3    0    0  0.91678355688E+01 -0.20349058247E+01  0.86963772716E+00  0.94311357094E+01  0.51100000000E-03 0.  1.
        -12    1    3    3    0    0  0.19574459917E+02  0.31345978377E+02  0.72848998518E+01  0.37666956438E+02  0.00000000000E+00 0.  1.
</event>
<event>
 7    1  0.1935465E-015  0.9000749E+02  0.7816164E-02  0.1186340E+00
        -11   -1    0    0    0    0  0.00000000000E+00  0.00000000000E+00  0.45593999997E+02  0.45594000000E+02  0.51100000000E-03 0.  1.
         11   -1    0    0    0    0 -0.00000000000E+00 -0.00000000000E+00 -0.45593999997E+02  0.45594000000E+02  0.51100000000E-03 0. -1.
    9900012    2    1    2    0    0 -0.86070829050E+00 -0.54993134858E+00  0.59191262030E+00  0.90007490026E+02  0.89999748094E+02 0.  0.
         12    1    1    2    0    0  0.86070829050E+00  0.54993134858E+00 -0.59191262030E+00  0.11805099744E+01  0.00000000000E+00 0. -1.
         11    1    3    3    0    0  0.13689291473E+02 -0.33542379981E+02 -0.15212739367E+02  0.39292688825E+02  0.51100000000E-03 0. -1.
        -11    1    3    3    0    0  0.28145493715E+01 -0.37308736057E+01  0.81253839276E+01  0.93735249644E+01  0.51100000000E-03 0.  1.
        -12    1    3    3    0    0 -0.17364549135E+02  0.36723322238E+02  0.76792680596E+01  0.41341276236E+02  0.00000000000E+00 0.  1.
</event>
<event>
 7    1  0.1935465E-015  0.9000763E+02  0.7816164E-02  0.1186339E+00
        -11   -1    0    0    0    0  0.00000000000E+00  0.00000000000E+00  0.45593999997E+02  0.45594000000E+02  0.51100000000E-03 0.  1.
         11   -1    0    0    0    0 -0.00000000000E+00 -0.00000000000E+00 -0.45593999997E+02  0.45594000000E+02  0.51100000000E-03 0. -1.
    9900012    2    1    2    0    0  0.17945213121E-01  0.19186376284E+00 -0.11645319526E+01  0.90007632090E+02  0.89999892034E+02 0.  0.
         12    1    1    2    0    0 -0.17945213121E-01 -0.19186376284E+00  0.11645319526E+01  0.11803679099E+01  0.00000000000E+00 0. -1.
         11    1    3    3    0    0  0.30601994397E+02 -0.32762760670E+01 -0.24743267064E+02  0.39489812752E+02  0.51100000000E-03 0. -1.
        -11    1    3    3    0    0  0.22065145720E+01 -0.91523332530E+01  0.34613019215E+01  0.10030679029E+02  0.51100000000E-03 0.  1.
        -12    1    3    3    0    0 -0.32790563756E+02  0.12620473083E+02  0.20117433190E+02  0.40487140309E+02  0.00000000000E+00 0.  1.
</event>
<event>
 7    1  0.1935465E-015  0.9000790E+02  0.7816164E-02  0.1186339E+00
        -11   -1    0    0    0    0  0.00000000000E+00  0.00000000000E+00  0.45593999997E+02  0.45594000000E+02  0.51100000000E-03 0. -1.
         11   -1    0    0    0    0 -0.00000000000E+00 -0.00000000000E+00 -0.45593999997E+02  0.45594000000E+02  0.51100000000E-03 0.  1.
    9900012    2    1    2    0    0  0.14311884861E+00  0.10590266049E+01 -0.50061912495E+00  0.90007898367E+02  0.90000161826E+02 0.  0.
         12    1    1    2    0    0 -0.14311884861E+00 -0.10590266049E+01  0.50061912495E+00  0.11801016325E+01  0.00000000000E+00 0. -1.
         11    1    3    3    0    0  0.13297713947E+02  0.35691115455E+02 -0.55675306987E+01  0.38492626787E+02  0.51100000000E-03 0. -1.
        -11    1    3    3    0    0 -0.66197521017E+01  0.62509514262E+01  0.43898085967E+01  0.10107716428E+02  0.51100000000E-03 0.  1.
        -12    1    3    3    0    0 -0.65348429972E+01 -0.40883040276E+02  0.67710297708E+00  0.41407555152E+02  0.00000000000E+00 0.  1.
</event>
<event>
 7    1  0.1935465E-015  0.9000830E+02  0.7816164E-02  0.1186338E+00
        -11   -1    0    0    0    0  0.00000000000E+00  0.00000000000E+00  0.45593999997E+02  0.45594000000E+02  0.51100000000E-03 0.  1.
         11   -1    0    0    0    0 -0.00000000000E+00 -0.00000000000E+00 -0.45593999997E+02  0.45594000000E+02  0.51100000000E-03 0. -1.
    9900012    2    1    2    0    0  0.11616139251E+00  0.99974121171E+00  0.61540725231E+00  0.90008295780E+02  0.90000564483E+02 0.  0.
         12    1    1    2    0    0 -0.11616139251E+00 -0.99974121171E+00 -0.61540725231E+00  0.11797042196E+01  0.00000000000E+00 0. -1.
         11    1    3    3    0    0  0.25227247545E+00  0.40029904116E+02 -0.38871641359E+01  0.40218986936E+02  0.51100000000E-03 0. -1.
        -11    1    3    3    0    0 -0.96287033281E+00 -0.18979690130E+01 -0.97706571614E+01  0.99997573610E+01  0.51100000000E-03 0.  1.
        -12    1    3    3    0    0  0.82675924986E+00 -0.37132193891E+02  0.14273228550E+02  0.39789551483E+02  0.00000000000E+00 0.  1.
</event>
<event>
 7    1  0.1935465E-015  0.9000759E+02  0.7816164E-02  0.1186339E+00
        -11   -1    0    0    0    0  0.00000000000E+00  0.00000000000E+00  0.45593999997E+02  0.45594000000E+02  0.51100000000E-03 0.  1.
         11   -1    0    0    0    0 -0.00000000000E+00 -0.00000000000E+00 -0.45593999997E+02  0.45594000000E+02  0.51100000000E-03 0. -1.
    9900012    2    1    2    0    0  0.21720325912E+00 -0.51493926172E-01  0.11591092898E+01  0.90007591924E+02  0.89999851337E+02 0.  0.
         12    1    1    2    0    0 -0.21720325912E+00  0.51493926172E-01 -0.11591092898E+01  0.11804080760E+01  0.00000000000E+00 0. -1.
         11    1    3    3    0    0  0.12867475893E+02 -0.46302468029E+01 -0.39121454146E+02  0.41442723078E+02  0.51100000000E-03 0. -1.
        -11    1    3    3    0    0 -0.82907409496E+01  0.75490149997E+00  0.47441065156E+00  0.83385446869E+01  0.51100000000E-03 0.  1.
        -12    1    3    3    0    0 -0.43595316841E+01  0.38238513767E+01  0.39806152785E+02  0.40226324159E+02  0.00000000000E+00 0.  1.
</event>
<event>
 7    1  0.1935465E-015  0.9000763E+02  0.7816164E-02  0.1186339E+00
        -11   -1    0    0    0    0  0.00000000000E+00  0.00000000000E+00  0.45593999997E+02  0.45594000000E+02  0.51100000000E-03 0. -1.
         11   -1    0    0    0    0 -0.00000000000E+00 -0.00000000000E+00 -0.45593999997E+02  0.45594000000E+02  0.51100000000E-03 0.  1.
    9900012    2    1    2    0    0 -0.77561764558E+00 -0.19778536549E+00 -0.86750446500E+00  0.90007633201E+02  0.89999893159E+02 0.  0.
         12    1    1    2    0    0  0.77561764558E+00  0.19778536549E+00  0.86750446500E+00  0.11803667988E+01  0.00000000000E+00 0. -1.
         11    1    3    3    0    0  0.11640252321E+02 -0.20082673856E+02  0.28361722824E+02  0.36649646452E+02  0.51100000000E-03 0. -1.
        -11    1    3    3    0    0  0.41786611146E+01 -0.36400947239E+01  0.57963659156E+01  0.80193114666E+01  0.51100000000E-03 0.  1.
        -12    1    3    3    0    0 -0.16594531081E+02  0.23524983214E+02 -0.35025593204E+02  0.45338675282E+02  0.00000000000E+00 0.  1.
</event>
<event>
 7    1  0.1935465E-015  0.9000784E+02  0.7816164E-02  0.1186339E+00
        -11   -1    0    0    0    0  0.00000000000E+00  0.00000000000E+00  0.45593999997E+02  0.45594000000E+02  0.51100000000E-03 0. -1.
         11   -1    0    0    0    0 -0.00000000000E+00 -0.00000000000E+00 -0.45593999997E+02  0.45594000000E+02  0.51100000000E-03 0.  1.
    9900012    2    1    2    0    0  0.11183977338E+01 -0.31577594755E+00  0.20552563612E+00  0.90007843770E+02  0.90000106508E+02 0.  0.
         12    1    1    2    0    0 -0.11183977338E+01  0.31577594755E+00 -0.20552563612E+00  0.11801562299E+01  0.00000000000E+00 0. -1.
         11    1    3    3    0    0 -0.65919931179E+01 -0.43486163267E+01 -0.62483095543E+01  0.10070065033E+02  0.51100000000E-03 0. -1.
        -11    1    3    3    0    0 -0.35885623793E+02  0.23679075114E+01  0.47579825190E+01  0.36277036523E+02  0.51100000000E-03 0.  1.
         12    1    3    3    0    0  0.43596014645E+02  0.16649328678E+01  0.16958526715E+01  0.43660742214E+02  0.00000000000E+00 0. -1.
</event>
<event>
 7    1  0.1935465E-015  0.9000774E+02  0.7816164E-02  0.1186339E+00
        -11   -1    0    0    0    0  0.00000000000E+00  0.00000000000E+00  0.45593999997E+02  0.45594000000E+02  0.51100000000E-03 0. -1.
         11   -1    0    0    0    0 -0.00000000000E+00 -0.00000000000E+00 -0.45593999997E+02  0.45594000000E+02  0.51100000000E-03 0.  1.
    9900012    2    1    2    0    0 -0.18719286583E+00  0.92278772671E+00  0.71164347388E+00  0.90007739524E+02  0.90000000886E+02 0.  0.
         12    1    1    2    0    0  0.18719286583E+00 -0.92278772671E+00 -0.71164347388E+00  0.11802604761E+01  0.00000000000E+00 0. -1.
         11    1    3    3    0    0  0.20772022070E+02  0.23820659267E+02 -0.93381298054E+01  0.32956052211E+02  0.51100000000E-03 0. -1.
        -11    1    3    3    0    0 -0.45337472394E+01  0.31784783784E+01 -0.15853839549E+02  0.16792909740E+02  0.51100000000E-03 0.  1.
        -12    1    3    3    0    0 -0.16425467697E+02 -0.26076349919E+02  0.25903612828E+02  0.40258777573E+02  0.00000000000E+00 0.  1.
</event>
<event>
 7    1  0.1935465E-015  0.9000768E+02  0.7816164E-02  0.1186339E+00
        -11   -1    0    0    0    0  0.00000000000E+00  0.00000000000E+00  0.45593999997E+02  0.45594000000E+02  0.51100000000E-03 0.  1.
         11   -1    0    0    0    0 -0.00000000000E+00 -0.00000000000E+00 -0.45593999997E+02  0.45594000000E+02  0.51100000000E-03 0. -1.
    9900012    2    1    2    0    0 -0.61904374443E+00 -0.91320685022E+00 -0.41951532625E+00  0.90007680121E+02  0.89999940698E+02 0.  0.
         12    1    1    2    0    0  0.61904374443E+00  0.91320685022E+00  0.41951532625E+00  0.11803198794E+01  0.00000000000E+00 0. -1.
         11    1    3    3    0    0 -0.18847802092E+01 -0.28767539003E+02 -0.17871504216E+02  0.33919232891E+02  0.51100000000E-03 0. -1.
        -11    1    3    3    0    0  0.22459254675E+01 -0.89019390355E+01 -0.73293911307E+01  0.11747709326E+02  0.51100000000E-03 0.  1.
        -12    1    3    3    0    0 -0.98018900274E+00  0.36756271188E+02  0.24781380020E+02  0.44340737904E+02  0.00000000000E+00 0.  1.
</event>
<event>
 7    1  0.1935465E-015  0.9000759E+02  0.7816164E-02  0.1186339E+00
        -11   -1    0    0    0    0  0.00000000000E+00  0.00000000000E+00  0.45593999997E+02  0.45594000000E+02  0.51100000000E-03 0. -1.
         11   -1    0    0    0    0 -0.00000000000E+00 -0.00000000000E+00 -0.45593999997E+02  0.45594000000E+02  0.51100000000E-03 0.  1.
    9900012    2    1    2    0    0  0.11386473627E+01  0.20231447043E+00 -0.23646282794E+00  0.90007591753E+02  0.89999851164E+02 0.  0.
         12    1    1    2    0    0 -0.11386473627E+01 -0.20231447043E+00  0.23646282794E+00  0.11804082474E+01  0.00000000000E+00 0. -1.
         11    1    3    3    0    0  0.13112549854E+02  0.35567643364E+02 -0.52737098028E+00  0.37911401169E+02  0.51100000000E-03 0. -1.
        -11    1    3    3    0    0  0.38229549196E+01  0.79447100280E+00 -0.10487558238E+02  0.11190846552E+02  0.51100000000E-03 0.  1.
        -12    1    3    3    0    0 -0.15796857411E+02 -0.36159799896E+02  0.10778466391E+02  0.40905344032E+02  0.00000000000E+00 0.  1.
</event>
<event>
 7    1  0.1935465E-015  0.9000772E+02  0.7816164E-02  0.1186339E+00
        -11   -1    0    0    0    0  0.00000000000E+00  0.00000000000E+00  0.45593999997E+02  0.45594000000E+02  0.51100000000E-03 0.  1.
         11   -1    0    0    0    0 -0.00000000000E+00 -0.00000000000E+00 -0.45593999997E+02  0.45594000000E+02  0.51100000000E-03 0. -1.
    9900012    2    1    2    0    0  0.83739857193E+00 -0.78001747184E+00  0.28876969684E+00  0.90007723947E+02  0.89999985103E+02 0.  0.
         12    1    1    2    0    0 -0.83739857193E+00  0.78001747184E+00 -0.28876969684E+00  0.11802760535E+01  0.00000000000E+00 0. -1.
         11    1    3    3    0    0  0.56147773305E+01  0.50447075166E+01 -0.69496720026E+01  0.10260250465E+02  0.51100000000E-03 0. -1.
        -11    1    3    3    0    0 -0.18846492362E+02  0.24373143041E+02  0.27039769326E+02  0.40992554221E+02  0.51100000000E-03 0.  1.
         12    1    3    3    0    0  0.14069113604E+02 -0.30197868030E+02 -0.19801327627E+02  0.38754919261E+02  0.00000000000E+00 0. -1.
</event>
<event>
 7    1  0.1935465E-015  0.9000781E+02  0.7816164E-02  0.1186339E+00
        -11   -1    0    0    0    0  0.00000000000E+00  0.00000000000E+00  0.45593999997E+02  0.45594000000E+02  0.51100000000E-03 0. -1.
         11   -1    0    0    0    0 -0.00000000000E+00 -0.00000000000E+00 -0.45593999997E+02  0.45594000000E+02  0.51100000000E-03 0.  1.
    9900012    2    1    2    0    0  0.53031994565E+00 -0.10991617290E+00 -0.10485810355E+01  0.90007812304E+02  0.90000074626E+02 0.  0.
         12    1    1    2    0    0 -0.53031994565E+00  0.10991617290E+00  0.10485810355E+01  0.11801876960E+01  0.00000000000E+00 0. -1.
         11    1    3    3    0    0 -0.24880118445E+02 -0.84398631257E+01  0.17426041436E+02  0.31526473063E+02  0.51100000000E-03 0. -1.
        -11    1    3    3    0    0  0.86354649430E+00 -0.14141705754E+02  0.77151084367E+01  0.16132465795E+02  0.51100000000E-03 0.  1.
        -12    1    3    3    0    0  0.24546891896E+02  0.22471652707E+02 -0.26189730908E+02  0.42348873446E+02  0.00000000000E+00 0.  1.
</event>
<event>
 7    1  0.1935465E-015  0.9000769E+02  0.7816164E-02  0.1186339E+00
        -11   -1    0    0    0    0  0.00000000000E+00  0.00000000000E+00  0.45593999997E+02  0.45594000000E+02  0.51100000000E-03 0.  1.
         11   -1    0    0    0    0 -0.00000000000E+00 -0.00000000000E+00 -0.45593999997E+02  0.45594000000E+02  0.51100000000E-03 0. -1.
    9900012    2    1    2    0    0 -0.55358812589E+00 -0.96554270463E+00  0.39293143188E+00  0.90007691719E+02  0.89999952450E+02 0.  0.
         12    1    1    2    0    0  0.55358812589E+00  0.96554270463E+00 -0.39293143188E+00  0.11803082808E+01  0.00000000000E+00 0. -1.
         11    1    3    3    0    0  0.19543992859E+01  0.17406771814E+02 -0.38201932074E+01  0.17927890504E+02  0.51100000000E-03 0. -1.
        -11    1    3    3    0    0  0.48912780449E+01  0.21850974772E+02 -0.14940673022E+02  0.26918644282E+02  0.51100000000E-03 0.  1.
        -12    1    3    3    0    0 -0.73992654567E+01 -0.40223289290E+02  0.19153797661E+02  0.45161156932E+02  0.00000000000E+00 0.  1.
</event>
<event>
 7    1  0.1935465E-015  0.9000776E+02  0.7816164E-02  0.1186339E+00
        -11   -1    0    0    0    0  0.00000000000E+00  0.00000000000E+00  0.45593999997E+02  0.45594000000E+02  0.51100000000E-03 0.  1.
         11   -1    0    0    0    0 -0.00000000000E+00 -0.00000000000E+00 -0.45593999997E+02  0.45594000000E+02  0.51100000000E-03 0. -1.
    9900012    2    1    2    0    0 -0.70369590277E+00 -0.58216277266E+00 -0.74757906377E+00  0.90007756011E+02  0.90000017590E+02 0.  0.
         12    1    1    2    0    0  0.70369590277E+00  0.58216277266E+00  0.74757906377E+00  0.11802439892E+01  0.00000000000E+00 0. -1.
         11    1    3    3    0    0  0.66916325960E+01 -0.63451294002E+00  0.65176376325E+01  0.93627001469E+01  0.51100000000E-03 0. -1.
        -11    1    3    3    0    0  0.86943302489E+01 -0.42652440257E+01  0.34418913176E+02  0.35755353020E+02  0.51100000000E-03 0.  1.
         12    1    3    3    0    0 -0.16089658748E+02  0.43175941930E+01 -0.41684129872E+02  0.44889702844E+02  0.00000000000E+00 0. -1.
</event>
<event>
 7    1  0.1935465E-015  0.9000775E+02  0.7816164E-02  0.1186339E+00
        -11   -1    0    0    0    0  0.00000000000E+00  0.00000000000E+00  0.45593999997E+02  0.45594000000E+02  0.51100000000E-03 0.  1.
         11   -1    0    0    0    0 -0.00000000000E+00 -0.00000000000E+00 -0.45593999997E+02  0.45594000000E+02  0.51100000000E-03 0. -1.
    9900012    2    1    2    0    0  0.11312674579E+01  0.29170980390E-01  0.33522929535E+00  0.90007747617E+02  0.90000009085E+02 0.  0.
         12    1    1    2    0    0 -0.11312674579E+01 -0.29170980390E-01 -0.33522929535E+00  0.11802523831E+01  0.00000000000E+00 0. -1.
         11    1    3    3    0    0 -0.10957223830E+02  0.63741117692E+01 -0.38310580978E+02  0.40353322912E+02  0.51100000000E-03 0. -1.
        -11    1    3    3    0    0  0.16149979874E+01 -0.10278221535E+02  0.10825382741E+01  0.10460494529E+02  0.51100000000E-03 0.  1.
        -12    1    3    3    0    0  0.10473493301E+02  0.39332807458E+01  0.37563271999E+02  0.39193930176E+02  0.00000000000E+00 0.  1.
</event>
<event>
 7    1  0.1935465E-015  0.9000771E+02  0.7816164E-02  0.1186339E+00
        -11   -1    0    0    0    0  0.00000000000E+00  0.00000000000E+00  0.45593999997E+02  0.45594000000E+02  0.51100000000E-03 0.  1.
         11   -1    0    0    0    0 -0.00000000000E+00 -0.00000000000E+00 -0.45593999997E+02  0.45594000000E+02  0.51100000000E-03 0. -1.
    9900012    2    1    2    0    0  0.12125545761E+00 -0.11329157661E+01  0.30804465082E+00  0.90007706593E+02  0.89999967520E+02 0.  0.
         12    1    1    2    0    0 -0.12125545761E+00  0.11329157661E+01 -0.30804465082E+00  0.11802934068E+01  0.00000000000E+00 0. -1.
         11    1    3    3    0    0  0.35946557904E+02 -0.10165896808E+01  0.16649393706E+01  0.35999451428E+02  0.51100000000E-03 0. -1.
        -11    1    3    3    0    0 -0.40479972521E+01  0.12499462687E+02  0.11519968326E+02  0.17473766615E+02  0.51100000000E-03 0.  1.
        -12    1    3    3    0    0 -0.31777305194E+02 -0.12615788772E+02 -0.12876863045E+02  0.36534488551E+02  0.00000000000E+00 0.  1.
</event>
<event>
 7    1  0.1935465E-015  0.9000774E+02  0.7816164E-02  0.1186339E+00
        -11   -1    0    0    0    0  0.00000000000E+00  0.00000000000E+00  0.45593999997E+02  0.45594000000E+02  0.51100000000E-03 0. -1.
         11   -1    0    0    0    0 -0.00000000000E+00 -0.00000000000E+00 -0.45593999997E+02  0.45594000000E+02  0.51100000000E-03 0.  1.
    9900012    2    1    2    0    0  0.11199311300E+01 -0.32427697292E+00 -0.18330747507E+00  0.90007744552E+02  0.90000005981E+02 0.  0.
         12    1    1    2    0    0 -0.11199311300E+01  0.32427697292E+00  0.18330747507E+00  0.11802554476E+01  0.00000000000E+00 0. -1.
         11    1    3    3    0    0  0.86042969059E+00 -0.10227398438E+00 -0.86930029192E+01  0.87360803130E+01  0.51100000000E-03 0. -1.
        -11    1    3    3    0    0 -0.21070140454E+02 -0.33471211399E+02 -0.42034245151E+01  0.39773629318E+02  0.51100000000E-03 0.  1.
         12    1    3    3    0    0  0.21329641893E+02  0.33249208410E+02  0.12713119959E+02  0.41498034921E+02  0.00000000000E+00 0. -1.
</event>
<event>
 7    1  0.1935465E-015  0.9000774E+02  0.7816164E-02  0.1186339E+00
        -11   -1    0    0    0    0  0.00000000000E+00  0.00000000000E+00  0.45593999997E+02  0.45594000000E+02  0.51100000000E-03 0.  1.
         11   -1    0    0    0    0 -0.00000000000E+00 -0.00000000000E+00 -0.45593999997E+02  0.45594000000E+02  0.51100000000E-03 0. -1.
    9900012    2    1    2    0    0  0.85366504332E+00 -0.65703685769E+00  0.48225430698E+00  0.90007741276E+02  0.90000002661E+02 0.  0.
         12    1    1    2    0    0 -0.85366504332E+00  0.65703685769E+00 -0.48225430698E+00  0.11802587238E+01  0.00000000000E+00 0. -1.
         11    1    3    3    0    0  0.17403323425E+02 -0.11483538213E+02 -0.31298789988E+02  0.37607998764E+02  0.51100000000E-03 0. -1.
        -11    1    3    3    0    0  0.93690766928E+01  0.19086003696E+01 -0.10634006557E+01  0.96204560527E+01  0.51100000000E-03 0.  1.
        -12    1    3    3    0    0 -0.25918735074E+02  0.89179009859E+01  0.32844444950E+02  0.42779286459E+02  0.00000000000E+00 0.  1.
</event>
<event>
 7    1  0.1935465E-015  0.9000786E+02  0.7816164E-02  0.1186339E+00
        -11   -1    0    0    0    0  0.00000000000E+00  0.00000000000E+00  0.45593999997E+02  0.45594000000E+02  0.51100000000E-03 0. -1.
         11   -1    0    0    0    0 -0.00000000000E+00 -0.00000000000E+00 -0.45593999997E+02  0.45594000000E+02  0.51100000000E-03 0.  1.
    9900012    2    1    2    0    0 -0.11416280305E+01 -0.23116045926E+00  0.18967234923E+00  0.90007862161E+02  0.90000125142E+02 0.  0.
         12    1    1    2    0    0  0.11416280305E+01  0.23116045926E+00 -0.18967234923E+00  0.11801378386E+01  0.00000000000E+00 0. -1.
         11    1    3    3    0    0 -0.38768405857E+01 -0.24512933665E+01 -0.12952479638E+02  0.13740649953E+02  0.51100000000E-03 0. -1.
        -11    1    3    3    0    0 -0.91015600273E+01  0.36278193788E+02 -0.13023962128E+01  0.37425151645E+02  0.51100000000E-03 0.  1.
         12    1    3    3    0    0  0.11836772583E+02 -0.34058060881E+02  0.14444548200E+02  0.38842060564E+02  0.00000000000E+00 0. -1.
</event>
<event>
 7    1  0.1935465E-015  0.9000748E+02  0.7816164E-02  0.1186340E+00
        -11   -1    0    0    0    0  0.00000000000E+00  0.00000000000E+00  0.45593999997E+02  0.45594000000E+02  0.51100000000E-03 0. -1.
         11   -1    0    0    0    0 -0.00000000000E+00 -0.00000000000E+00 -0.45593999997E+02  0.45594000000E+02  0.51100000000E-03 0.  1.
    9900012    2    1    2    0    0 -0.59864226903E+00  0.82537282377E+00 -0.59498879201E+00  0.90007481247E+02  0.89999739199E+02 0.  0.
         12    1    1    2    0    0  0.59864226903E+00 -0.82537282377E+00  0.59498879201E+00  0.11805187534E+01  0.00000000000E+00 0. -1.
         11    1    3    3    0    0 -0.19879852080E+01  0.35493585387E+02 -0.24870711519E+00  0.35550085011E+02  0.51100000000E-03 0. -1.
        -11    1    3    3    0    0  0.49449844938E+00  0.91915855466E+01 -0.47675138114E+01  0.10366241449E+02  0.51100000000E-03 0.  1.
        -12    1    3    3    0    0  0.89484448957E+00 -0.43859798109E+02  0.44212321346E+01  0.44091154787E+02  0.00000000000E+00 0.  1.
</event>
<event>
 7    1  0.1935465E-015  0.9000768E+02  0.7816164E-02  0.1186339E+00
        -11   -1    0    0    0    0  0.00000000000E+00  0.00000000000E+00  0.45593999997E+02  0.45594000000E+02  0.51100000000E-03 0.  1.
         11   -1    0    0    0    0 -0.00000000000E+00 -0.00000000000E+00 -0.45593999997E+02  0.45594000000E+02  0.51100000000E-03 0. -1.
    9900012    2    1    2    0    0 -0.10122135574E+01 -0.37770440982E+00 -0.47529859400E+00  0.90007684084E+02  0.89999944714E+02 0.  0.
         12    1    1    2    0    0  0.10122135574E+01  0.37770440982E+00  0.47529859400E+00  0.11803159156E+01  0.00000000000E+00 0. -1.
         11    1    3    3    0    0 -0.79772551515E+01 -0.50664969516E+01  0.67389503046E+00  0.94741820696E+01  0.51100000000E-03 0. -1.
        -11    1    3    3    0    0 -0.23062027792E+02 -0.27748763094E+02  0.25873202269E+01  0.36173819336E+02  0.51100000000E-03 0.  1.
         12    1    3    3    0    0  0.30027069386E+02  0.32437555636E+02 -0.37365138514E+01  0.44359682679E+02  0.00000000000E+00 0. -1.
</event>
<event>
 7    1  0.1935465E-015  0.9000770E+02  0.7816164E-02  0.1186339E+00
        -11   -1    0    0    0    0  0.00000000000E+00  0.00000000000E+00  0.45593999997E+02  0.45594000000E+02  0.51100000000E-03 0.  1.
         11   -1    0    0    0    0 -0.00000000000E+00 -0.00000000000E+00 -0.45593999997E+02  0.45594000000E+02  0.51100000000E-03 0. -1.
    9900012    2    1    2    0    0  0.87103538136E+00  0.52400193450E+00 -0.59985241976E+00  0.90007701907E+02  0.89999962772E+02 0.  0.
         12    1    1    2    0    0 -0.87103538136E+00 -0.52400193450E+00  0.59985241976E+00  0.11802980930E+01  0.00000000000E+00 0. -1.
         11    1    3    3    0    0 -0.88306295418E+01 -0.51758057930E+01 -0.16953486591E+01  0.10375123664E+02  0.51100000000E-03 0. -1.
        -11    1    3    3    0    0 -0.18081290230E+02 -0.88158367229E+01  0.30576956680E+02  0.36600578050E+02  0.51100000000E-03 0.  1.
         12    1    3    3    0    0  0.27782955153E+02  0.14515644450E+02 -0.29481460441E+02  0.43032000193E+02  0.00000000000E+00 0. -1.
</event>
<event>
 7    1  0.1935465E-015  0.9000784E+02  0.7816164E-02  0.1186339E+00
        -11   -1    0    0    0    0  0.00000000000E+00  0.00000000000E+00  0.45593999997E+02  0.45594000000E+02  0.51100000000E-03 0.  1.
         11   -1    0    0    0    0 -0.00000000000E+00 -0.00000000000E+00 -0.45593999997E+02  0.45594000000E+02  0.51100000000E-03 0. -1.
    9900012    2    1    2    0    0 -0.11309397692E+01 -0.15101433044E+00  0.30155819513E+00  0.90007844318E+02  0.90000107063E+02 0.  0.
         12    1    1    2    0    0  0.11309397692E+01  0.15101433044E+00 -0.30155819513E+00  0.11801556824E+01  0.00000000000E+00 0. -1.
         11    1    3    3    0    0  0.24920219934E+02  0.96700165096E+01 -0.29544133099E+02  0.39841967593E+02  0.51100000000E-03 0. -1.
        -11    1    3    3    0    0 -0.76384215912E+01  0.81953621063E+00 -0.51262810308E+01  0.92355769431E+01  0.51100000000E-03 0.  1.
        -12    1    3    3    0    0 -0.18412738112E+02 -0.10640567051E+02  0.34971972325E+02  0.40930299782E+02  0.00000000000E+00 0.  1.
</event>
<event>
 7    1  0.1935465E-015  0.9000752E+02  0.7816164E-02  0.1186339E+00
        -11   -1    0    0    0    0  0.00000000000E+00  0.00000000000E+00  0.45593999997E+02  0.45594000000E+02  0.51100000000E-03 0.  1.
         11   -1    0    0    0    0 -0.00000000000E+00 -0.00000000000E+00 -0.45593999997E+02  0.45594000000E+02  0.51100000000E-03 0. -1.
    9900012    2    1    2    0    0 -0.49183199261E+00  0.87033792535E+00 -0.62781382711E+00  0.90007518312E+02  0.89999776754E+02 0.  0.
         12    1    1    2    0    0  0.49183199261E+00 -0.87033792535E+00  0.62781382711E+00  0.11804816876E+01  0.00000000000E+00 0. -1.
         11    1    3    3    0    0 -0.19638539638E+01  0.10395897922E+02  0.95123701482E+00  0.10622441721E+02  0.51100000000E-03 0. -1.
        -11    1    3    3    0    0  0.11535289408E+02  0.53176827439E+00  0.36738968113E+02  0.38511004369E+02  0.51100000000E-03 0.  1.
         12    1    3    3    0    0 -0.10063267436E+02 -0.10057328271E+02 -0.38318018955E+02  0.40874072223E+02  0.00000000000E+00 0. -1.
</event>
<event>
 7    1  0.1935465E-015  0.9000775E+02  0.7816164E-02  0.1186339E+00
        -11   -1    0    0    0    0  0.00000000000E+00  0.00000000000E+00  0.45593999997E+02  0.45594000000E+02  0.51100000000E-03 0. -1.
         11   -1    0    0    0    0 -0.00000000000E+00 -0.00000000000E+00 -0.45593999997E+02  0.45594000000E+02  0.51100000000E-03 0.  1.
    9900012    2    1    2    0    0  0.95240890630E+00  0.48970343150E+00  0.49607670716E+00  0.90007752452E+02  0.90000013984E+02 0.  0.
         12    1    1    2    0    0 -0.95240890630E+00 -0.48970343150E+00 -0.49607670716E+00  0.11802475482E+01  0.00000000000E+00 0. -1.
         11    1    3    3    0    0  0.37578513276E+00 -0.75226110855E+01 -0.51342610691E+01  0.91154555013E+01  0.51100000000E-03 0. -1.
        -11    1    3    3    0    0 -0.84424151725E+01 -0.25888759331E+02  0.28182144940E+02  0.39188461660E+02  0.51100000000E-03 0.  1.
         12    1    3    3    0    0  0.90190389460E+01  0.33901073848E+02 -0.22551807164E+02  0.41703835290E+02  0.00000000000E+00 0. -1.
</event>
<event>
 7    1  0.1935465E-015  0.9000860E+02  0.7816164E-02  0.1186337E+00
        -11   -1    0    0    0    0  0.00000000000E+00  0.00000000000E+00  0.45593999997E+02  0.45594000000E+02  0.51100000000E-03 0. -1.
         11   -1    0    0    0    0 -0.00000000000E+00 -0.00000000000E+00 -0.45593999997E+02  0.45594000000E+02  0.51100000000E-03 0.  1.
    9900012    2    1    2    0    0  0.32079227466E+00 -0.10173783124E+01 -0.50301757525E+00  0.90008596339E+02  0.90000869007E+02 0.  0.
         12    1    1    2    0    0 -0.32079227466E+00  0.10173783124E+01  0.50301757525E+00  0.11794036607E+01  0.00000000000E+00 0. -1.
         11    1    3    3    0    0 -0.21137579686E+02  0.20216210339E+02 -0.23688982611E+02  0.37638548495E+02  0.51100000000E-03 0. -1.
        -11    1    3    3    0    0  0.40084997652E+01  0.72330234759E+00 -0.88797635910E+01  0.97694134086E+01  0.51100000000E-03 0.  1.
        -12    1    3    3    0    0  0.17449872195E+02 -0.21956890998E+02  0.32065728627E+02  0.42600634436E+02  0.00000000000E+00 0.  1.
</event>
<event>
 7    1  0.1935465E-015  0.9000773E+02  0.7816164E-02  0.1186339E+00
        -11   -1    0    0    0    0  0.00000000000E+00  0.00000000000E+00  0.45593999997E+02  0.45594000000E+02  0.51100000000E-03 0. -1.
         11   -1    0    0    0    0 -0.00000000000E+00 -0.00000000000E+00 -0.45593999997E+02  0.45594000000E+02  0.51100000000E-03 0.  1.
    9900012    2    1    2    0    0  0.10705769794E+01 -0.23385068400E-01  0.49635193268E+00  0.90007725807E+02  0.89999986987E+02 0.  0.
         12    1    1    2    0    0 -0.10705769794E+01  0.23385068400E-01 -0.49635193268E+00  0.11802741933E+01  0.00000000000E+00 0. -1.
         11    1    3    3    0    0 -0.29531788686E+02 -0.23544885807E+02  0.54574576164E+01  0.38161132511E+02  0.51100000000E-03 0. -1.
        -11    1    3    3    0    0 -0.43787630765E+01  0.23089327576E+01  0.75835084133E+01  0.90561767140E+01  0.51100000000E-03 0.  1.
        -12    1    3    3    0    0  0.34981128742E+02  0.21212567981E+02 -0.12544614097E+02  0.42790416582E+02  0.00000000000E+00 0.  1.
</event>
<event>
 7    1  0.1935465E-015  0.9000784E+02  0.7816164E-02  0.1186339E+00
        -11   -1    0    0    0    0  0.00000000000E+00  0.00000000000E+00  0.45593999997E+02  0.45594000000E+02  0.51100000000E-03 0. -1.
         11   -1    0    0    0    0 -0.00000000000E+00 -0.00000000000E+00 -0.45593999997E+02  0.45594000000E+02  0.51100000000E-03 0.  1.
    9900012    2    1    2    0    0 -0.51429881101E+00  0.46512905764E+00 -0.95495150584E+00  0.90007838703E+02  0.90000101374E+02 0.  0.
         12    1    1    2    0    0  0.51429881101E+00 -0.46512905764E+00  0.95495150584E+00  0.11801612965E+01  0.00000000000E+00 0. -1.
         11    1    3    3    0    0 -0.39598870392E+01 -0.97917118039E+01  0.34532840288E+02  0.36111983939E+02  0.51100000000E-03 0. -1.
        -11    1    3    3    0    0  0.65129433966E+01  0.22138949971E+01  0.74287616259E+01  0.10124537634E+02  0.51100000000E-03 0.  1.
        -12    1    3    3    0    0 -0.30673551684E+01  0.80429458645E+01 -0.42916553420E+02  0.43771317130E+02  0.00000000000E+00 0.  1.
</event>
<event>
 7    1  0.1935465E-015  0.9000797E+02  0.7816164E-02  0.1186339E+00
        -11   -1    0    0    0    0  0.00000000000E+00  0.00000000000E+00  0.45593999997E+02  0.45594000000E+02  0.51100000000E-03 0.  1.
         11   -1    0    0    0    0 -0.00000000000E+00 -0.00000000000E+00 -0.45593999997E+02  0.45594000000E+02  0.51100000000E-03 0. -1.
    9900012    2    1    2    0    0  0.10757525238E+01 -0.13100822893E+00  0.46696601017E+00  0.90007972923E+02  0.90000237365E+02 0.  0.
         12    1    1    2    0    0 -0.10757525238E+01  0.13100822893E+00 -0.46696601017E+00  0.11800270773E+01  0.00000000000E+00 0. -1.
         11    1    3    3    0    0 -0.21632620609E+02 -0.85117994310E+01  0.27750861835E+02  0.36201261536E+02  0.51100000000E-03 0. -1.
        -11    1    3    3    0    0 -0.10096630021E+01 -0.41951722483E+01  0.82271456716E+01  0.92900385216E+01  0.51100000000E-03 0.  1.
        -12    1    3    3    0    0  0.23718036135E+02  0.12575963450E+02 -0.35511041496E+02  0.44516672865E+02  0.00000000000E+00 0.  1.
</event>
<event>
 7    1  0.1935465E-015  0.9000771E+02  0.7816164E-02  0.1186339E+00
        -11   -1    0    0    0    0  0.00000000000E+00  0.00000000000E+00  0.45593999997E+02  0.45594000000E+02  0.51100000000E-03 0.  1.
         11   -1    0    0    0    0 -0.00000000000E+00 -0.00000000000E+00 -0.45593999997E+02  0.45594000000E+02  0.51100000000E-03 0. -1.
    9900012    2    1    2    0    0 -0.49480548973E+00  0.10030556574E+01 -0.37701865417E+00  0.90007705041E+02  0.89999965948E+02 0.  0.
         12    1    1    2    0    0  0.49480548973E+00 -0.10030556574E+01  0.37701865417E+00  0.11802949589E+01  0.00000000000E+00 0. -1.
         11    1    3    3    0    0  0.66022141075E+01  0.93086630320E+01  0.37206319812E+01  0.12003480377E+02  0.51100000000E-03 0. -1.
        -11    1    3    3    0    0 -0.20098024740E+02  0.26132489620E+02  0.15357447613E+02  0.36368788949E+02  0.51100000000E-03 0.  1.
         12    1    3    3    0    0  0.13001005142E+02 -0.34438096994E+02 -0.19455098249E+02  0.41635435715E+02  0.00000000000E+00 0. -1.
</event>
<event>
 7    1  0.1935465E-015  0.9000780E+02  0.7816164E-02  0.1186339E+00
        -11   -1    0    0    0    0  0.00000000000E+00  0.00000000000E+00  0.45593999997E+02  0.45594000000E+02  0.51100000000E-03 0. -1.
         11   -1    0    0    0    0 -0.00000000000E+00 -0.00000000000E+00 -0.45593999997E+02  0.45594000000E+02  0.51100000000E-03 0.  1.
    9900012    2    1    2    0    0 -0.48100063729E+00  0.69798146553E-01 -0.10754705159E+01  0.90007800769E+02  0.90000062939E+02 0.  0.
         12    1    1    2    0    0  0.48100063729E+00 -0.69798146553E-01  0.10754705159E+01  0.11801992310E+01  0.00000000000E+00 0. -1.
         11    1    3    3    0    0 -0.33622114519E+02  0.14291514689E+01  0.14431700065E+02  0.36616431088E+02  0.51100000000E-03 0. -1.
        -11    1    3    3    0    0 -0.36341162256E+01 -0.67378114887E+01  0.66337822534E+01  0.10129756742E+02  0.51100000000E-03 0.  1.
        -12    1    3    3    0    0  0.36775230107E+02  0.53784581663E+01 -0.22140952834E+02  0.43261612939E+02  0.00000000000E+00 0.  1.
</event>
<event>
 7    1  0.1935465E-015  0.9000773E+02  0.7816164E-02  0.1186339E+00
        -11   -1    0    0    0    0  0.00000000000E+00  0.00000000000E+00  0.45593999997E+02  0.45594000000E+02  0.51100000000E-03 0.  1.
         11   -1    0    0    0    0 -0.00000000000E+00 -0.00000000000E+00 -0.45593999997E+02  0.45594000000E+02  0.51100000000E-03 0. -1.
    9900012    2    1    2    0    0 -0.76284127863E+00  0.51891051758E+00 -0.73609746914E+00  0.90007731206E+02  0.89999992458E+02 0.  0.
         12    1    1    2    0    0  0.76284127863E+00 -0.51891051758E+00  0.73609746914E+00  0.11802687938E+01  0.00000000000E+00 0. -1.
         11    1    3    3    0    0 -0.25972873574E+02  0.12216132197E+02 -0.23902988540E+02  0.37352066997E+02  0.51100000000E-03 0. -1.
        -11    1    3    3    0    0 -0.73356340089E+01 -0.71975804793E+00 -0.44261849668E+01  0.85977143231E+01  0.51100000000E-03 0.  1.
        -12    1    3    3    0    0  0.32545666304E+02 -0.10977463631E+02  0.27593076038E+02  0.44057949886E+02  0.00000000000E+00 0.  1.
</event>
<event>
 7    1  0.1935465E-015  0.9000748E+02  0.7816164E-02  0.1186340E+00
        -11   -1    0    0    0    0  0.00000000000E+00  0.00000000000E+00  0.45593999997E+02  0.45594000000E+02  0.51100000000E-03 0.  1.
         11   -1    0    0    0    0 -0.00000000000E+00 -0.00000000000E+00 -0.45593999997E+02  0.45594000000E+02  0.51100000000E-03 0. -1.
    9900012    2    1    2    0    0 -0.50475257897E+00 -0.96301564569E+00 -0.45984241592E+00  0.90007479205E+02  0.89999737130E+02 0.  0.
         12    1    1    2    0    0  0.50475257897E+00  0.96301564569E+00  0.45984241592E+00  0.11805207949E+01  0.00000000000E+00 0. -1.
         11    1    3    3    0    0 -0.40773597492E+00  0.26057248040E+02 -0.29593257963E+02  0.39432313414E+02  0.51100000000E-03 0. -1.
        -11    1    3    3    0    0  0.11022181911E+01  0.50177846345E+00 -0.58914411851E+01  0.60146276747E+01  0.51100000000E-03 0.  1.
        -12    1    3    3    0    0 -0.11992347951E+01 -0.27522042149E+02  0.35024856732E+02  0.44560538117E+02  0.00000000000E+00 0.  1.
</event>
<event>
 7    1  0.1935465E-015  0.9000774E+02  0.7816164E-02  0.1186339E+00
        -11   -1    0    0    0    0  0.00000000000E+00  0.00000000000E+00  0.45593999997E+02  0.45594000000E+02  0.51100000000E-03 0. -1.
         11   -1    0    0    0    0 -0.00000000000E+00 -0.00000000000E+00 -0.45593999997E+02  0.45594000000E+02  0.51100000000E-03 0.  1.
    9900012    2    1    2    0    0  0.10281088809E+01 -0.12791870188E-01 -0.57951912923E+00  0.90007739891E+02  0.90000001258E+02 0.  0.
         12    1    1    2    0    0 -0.10281088809E+01  0.12791870188E-01  0.57951912923E+00  0.11802601086E+01  0.00000000000E+00 0. -1.
         11    1    3    3    0    0 -0.17953085041E+02 -0.24285917902E+02  0.21221912727E+02  0.36911903919E+02  0.51100000000E-03 0. -1.
        -11    1    3    3    0    0 -0.53569829322E+01 -0.62750323599E+01  0.22746541198E+00  0.82537893133E+01  0.51100000000E-03 0.  1.
        -12    1    3    3    0    0  0.24338176854E+02  0.30548158392E+02 -0.22028897269E+02  0.44842046659E+02  0.00000000000E+00 0.  1.
</event>
<event>
 7    1  0.1935465E-015  0.9000780E+02  0.7816164E-02  0.1186339E+00
        -11   -1    0    0    0    0  0.00000000000E+00  0.00000000000E+00  0.45593999997E+02  0.45594000000E+02  0.51100000000E-03 0. -1.
         11   -1    0    0    0    0 -0.00000000000E+00 -0.00000000000E+00 -0.45593999997E+02  0.45594000000E+02  0.51100000000E-03 0.  1.
    9900012    2    1    2    0    0 -0.98526715017E+00  0.59858886407E-02  0.64968138989E+00  0.90007799552E+02  0.90000061707E+02 0.  0.
         12    1    1    2    0    0  0.98526715017E+00 -0.59858886407E-02 -0.64968138989E+00  0.11802004476E+01  0.00000000000E+00 0. -1.
         11    1    3    3    0    0 -0.87550602951E+01  0.60905397151E+00 -0.12096292497E+01  0.88591890540E+01  0.51100000000E-03 0. -1.
        -11    1    3    3    0    0 -0.12494581415E+02  0.29822910720E+02 -0.20510287426E+02  0.38290892640E+02  0.51100000000E-03 0.  1.
         12    1    3    3    0    0  0.20264374560E+02 -0.30425978803E+02  0.22369598066E+02  0.42857717859E+02  0.00000000000E+00 0. -1.
</event>
<event>
 7    1  0.1935465E-015  0.9000777E+02  0.7816164E-02  0.1186339E+00
        -11   -1    0    0    0    0  0.00000000000E+00  0.00000000000E+00  0.45593999997E+02  0.45594000000E+02  0.51100000000E-03 0. -1.
         11   -1    0    0    0    0 -0.00000000000E+00 -0.00000000000E+00 -0.45593999997E+02  0.45594000000E+02  0.51100000000E-03 0.  1.
    9900012    2    1    2    0    0  0.54367058553E+00 -0.75922609405E+00 -0.72176915586E+00  0.90007765836E+02  0.90000027545E+02 0.  0.
         12    1    1    2    0    0 -0.54367058553E+00  0.75922609405E+00  0.72176915586E+00  0.11802341640E+01  0.00000000000E+00 0. -1.
         11    1    3    3    0    0  0.70590165851E+01  0.17640485676E+01  0.13847205854E+01  0.74066884543E+01  0.51100000000E-03 0. -1.
        -11    1    3    3    0    0  0.25449103616E+02 -0.28378898469E+02 -0.12641888627E+02  0.40160130745E+02  0.51100000000E-03 0.  1.
         12    1    3    3    0    0 -0.31964449616E+02  0.25855623807E+02  0.10535398885E+02  0.42440946636E+02  0.00000000000E+00 0. -1.
</event>
<event>
 7    1  0.1935465E-015  0.9000774E+02  0.7816164E-02  0.1186339E+00
        -11   -1    0    0    0    0  0.00000000000E+00  0.00000000000E+00  0.45593999997E+02  0.45594000000E+02  0.51100000000E-03 0. -1.
         11   -1    0    0    0    0 -0.00000000000E+00 -0.00000000000E+00 -0.45593999997E+02  0.45594000000E+02  0.51100000000E-03 0.  1.
    9900012    2    1    2    0    0  0.69592301652E+00  0.79667209100E+00  0.52346103266E+00  0.90007742944E+02  0.90000004351E+02 0.  0.
         12    1    1    2    0    0 -0.69592301652E+00 -0.79667209100E+00 -0.52346103266E+00  0.11802570560E+01  0.00000000000E+00 0. -1.
         11    1    3    3    0    0  0.79785596938E+01  0.13438950179E+02  0.33958079197E+02  0.37382000210E+02  0.51100000000E-03 0. -1.
        -11    1    3    3    0    0 -0.41894542215E+01 -0.24426049179E+01  0.82665513495E+01  0.95840344810E+01  0.51100000000E-03 0.  1.
        -12    1    3    3    0    0 -0.30931824559E+01 -0.10199673170E+02 -0.41701169514E+02  0.43041708253E+02  0.00000000000E+00 0.  1.
</event>
<event>
 7    1  0.1935465E-015  0.9000766E+02  0.7816164E-02  0.1186339E+00
        -11   -1    0    0    0    0  0.00000000000E+00  0.00000000000E+00  0.45593999997E+02  0.45594000000E+02  0.51100000000E-03 0.  1.
         11   -1    0    0    0    0 -0.00000000000E+00 -0.00000000000E+00 -0.45593999997E+02  0.45594000000E+02  0.51100000000E-03 0. -1.
    9900012    2    1    2    0    0 -0.63203636096E+00  0.13828329878E+00  0.98722299075E+00  0.90007660445E+02  0.89999920763E+02 0.  0.
         12    1    1    2    0    0  0.63203636096E+00 -0.13828329878E+00 -0.98722299075E+00  0.11803395553E+01  0.00000000000E+00 0. -1.
         11    1    3    3    0    0 -0.25935601281E+02  0.58035277432E+01 -0.27277272687E+02  0.38083933011E+02  0.51100000000E-03 0. -1.
        -11    1    3    3    0    0  0.32504805002E+01  0.47506764354E+01 -0.69900782146E+01  0.90551501249E+01  0.51100000000E-03 0.  1.
        -12    1    3    3    0    0  0.22053084420E+02 -0.10415920880E+02  0.35254573892E+02  0.42868577309E+02  0.00000000000E+00 0.  1.
</event>
<event>
 7    1  0.1935465E-015  0.9000775E+02  0.7816164E-02  0.1186339E+00
        -11   -1    0    0    0    0  0.00000000000E+00  0.00000000000E+00  0.45593999997E+02  0.45594000000E+02  0.51100000000E-03 0. -1.
         11   -1    0    0    0    0 -0.00000000000E+00 -0.00000000000E+00 -0.45593999997E+02  0.45594000000E+02  0.51100000000E-03 0.  1.
    9900012    2    1    2    0    0 -0.14383020657E+00  0.10845523837E+01  0.44277523005E+00  0.90007749643E+02  0.90000011138E+02 0.  0.
         12    1    1    2    0    0  0.14383020657E+00 -0.10845523837E+01 -0.44277523005E+00  0.11802503572E+01  0.00000000000E+00 0. -1.
         11    1    3    3    0    0  0.36788280645E+02  0.27605185493E+01  0.26858241289E+01  0.36989345858E+02  0.51100000000E-03 0. -1.
        -11    1    3    3    0    0  0.34493207283E+00 -0.11469060675E+02  0.69236951544E+01  0.13401338954E+02  0.51100000000E-03 0.  1.
        -12    1    3    3    0    0 -0.37277042925E+02  0.97930945096E+01 -0.91667440532E+01  0.39617064831E+02  0.00000000000E+00 0.  1.
</event>
<event>
 7    1  0.1935465E-015  0.9000770E+02  0.7816164E-02  0.1186339E+00
        -11   -1    0    0    0    0  0.00000000000E+00  0.00000000000E+00  0.45593999997E+02  0.45594000000E+02  0.51100000000E-03 0. -1.
         11   -1    0    0    0    0 -0.00000000000E+00 -0.00000000000E+00 -0.45593999997E+02  0.45594000000E+02  0.51100000000E-03 0.  1.
    9900012    2    1    2    0    0  0.25033288159E+00 -0.82344165671E+00 -0.80770163423E+00  0.90007701460E+02  0.89999962319E+02 0.  0.
         12    1    1    2    0    0 -0.25033288159E+00  0.82344165671E+00  0.80770163423E+00  0.11802985400E+01  0.00000000000E+00 0. -1.
         11    1    3    3    0    0 -0.10296550779E+01  0.10783665764E+02  0.61868415577E+00  0.10850364383E+02  0.51100000000E-03 0. -1.
        -11    1    3    3    0    0 -0.24007866911E+01  0.33564495678E+02 -0.31945367702E+01  0.33801541567E+02  0.51100000000E-03 0.  1.
         12    1    3    3    0    0  0.36807746506E+01 -0.45171603099E+02  0.17681509802E+01  0.45355795511E+02  0.00000000000E+00 0. -1.
</event>
<event>
 7    1  0.1935465E-015  0.9000764E+02  0.7816164E-02  0.1186339E+00
        -11   -1    0    0    0    0  0.00000000000E+00  0.00000000000E+00  0.45593999997E+02  0.45594000000E+02  0.51100000000E-03 0.  1.
         11   -1    0    0    0    0 -0.00000000000E+00 -0.00000000000E+00 -0.45593999997E+02  0.45594000000E+02  0.51100000000E-03 0. -1.
    9900012    2    1    2    0    0 -0.24217271580E+00  0.11504758177E+01  0.10488139735E+00  0.90007643131E+02  0.89999903220E+02 0.  0.
         12    1    1    2    0    0  0.24217271580E+00 -0.11504758177E+01 -0.10488139735E+00  0.11803568693E+01  0.00000000000E+00 0. -1.
         11    1    3    3    0    0 -0.98530706167E+00 -0.45182635125E+01  0.67042691365E+01  0.81444926233E+01  0.51100000000E-03 0. -1.
        -11    1    3    3    0    0 -0.11269763110E+02  0.47160400462E+01  0.35777694237E+02  0.37805978356E+02  0.51100000000E-03 0.  1.
         12    1    3    3    0    0  0.12012897455E+02  0.95269928409E+00 -0.42377081976E+02  0.44057172152E+02  0.00000000000E+00 0. -1.
</event>
<event>
 7    1  0.1935465E-015  0.9000771E+02  0.7816164E-02  0.1186339E+00
        -11   -1    0    0    0    0  0.00000000000E+00  0.00000000000E+00  0.45593999997E+02  0.45594000000E+02  0.51100000000E-03 0.  1.
         11   -1    0    0    0    0 -0.00000000000E+00 -0.00000000000E+00 -0.45593999997E+02  0.45594000000E+02  0.51100000000E-03 0. -1.
    9900012    2    1    2    0    0  0.10964545332E+01 -0.32676578703E+00 -0.28999278271E+00  0.90007710105E+02  0.89999971078E+02 0.  0.
         12    1    1    2    0    0 -0.10964545332E+01  0.32676578703E+00  0.28999278271E+00  0.11802898954E+01  0.00000000000E+00 0. -1.
         11    1    3    3    0    0  0.76592281204E+01 -0.70192399225E+01  0.80374956052E+01  0.13135251819E+02  0.51100000000E-03 0. -1.
        -11    1    3    3    0    0  0.24682230179E+02 -0.17372470882E+02  0.12027521072E+02  0.32491175641E+02  0.51100000000E-03 0.  1.
         12    1    3    3    0    0 -0.31245003766E+02  0.24064945017E+02 -0.20355009460E+02  0.44381282644E+02  0.00000000000E+00 0. -1.
</event>
<event>
 7    1  0.2240617E-015  0.9000770E+02  0.7816164E-02  0.1186339E+00
        -11   -1    0    0    0    0  0.00000000000E+00  0.00000000000E+00  0.45593999997E+02  0.45594000000E+02  0.51100000000E-03 0. -1.
         11   -1    0    0    0    0 -0.00000000000E+00 -0.00000000000E+00 -0.45593999997E+02  0.45594000000E+02  0.51100000000E-03 0.  1.
    9900012    2    1    2    0    0  0.53025510712E+00  0.59138848945E+00 -0.87304268778E+00  0.90007697344E+02  0.89999958149E+02 0.  0.
         12    1    1    2    0    0 -0.53025510712E+00 -0.59138848945E+00  0.87304268778E+00  0.11803026556E+01  0.00000000000E+00 0. -1.
         11    1    3    3    0    0 -0.23665534517E+01  0.84811142392E+01  0.44571856956E+01  0.98689603588E+01  0.51100000000E-03 0. -1.
        -11    1    3    3    0    0  0.13428900125E+02  0.79408744575E+01 -0.38703202811E+02  0.41729255371E+02  0.51100000000E-03 0.  1.
         12    1    3    3    0    0 -0.10532091567E+02 -0.15830600207E+02  0.33372974428E+02  0.38409481614E+02  0.00000000000E+00 0. -1.
</event>
<event>
 7    1  0.1935465E-015  0.9000776E+02  0.7816164E-02  0.1186339E+00
        -11   -1    0    0    0    0  0.00000000000E+00  0.00000000000E+00  0.45593999997E+02  0.45594000000E+02  0.51100000000E-03 0.  1.
         11   -1    0    0    0    0 -0.00000000000E+00 -0.00000000000E+00 -0.45593999997E+02  0.45594000000E+02  0.51100000000E-03 0. -1.
    9900012    2    1    2    0    0  0.10566340088E+01  0.49463504717E+00 -0.17840878810E+00  0.90007758942E+02  0.90000020560E+02 0.  0.
         12    1    1    2    0    0 -0.10566340088E+01 -0.49463504717E+00  0.17840878810E+00  0.11802410577E+01  0.00000000000E+00 0. -1.
         11    1    3    3    0    0 -0.91929420545E+01  0.10193181553E+01 -0.74356119095E+01  0.11867498382E+02  0.51100000000E-03 0. -1.
        -11    1    3    3    0    0  0.24010746274E+02  0.32981379422E+02 -0.16865314766E+01  0.40830524292E+02  0.51100000000E-03 0.  1.
         12    1    3    3    0    0 -0.13761170211E+02 -0.33506062531E+02  0.89437345980E+01  0.37309736269E+02  0.00000000000E+00 0. -1.
</event>
<event>
 7    1  0.1935465E-015  0.9000735E+02  0.7816164E-02  0.1186340E+00
        -11   -1    0    0    0    0  0.00000000000E+00  0.00000000000E+00  0.45593999997E+02  0.45594000000E+02  0.51100000000E-03 0. -1.
         11   -1    0    0    0    0 -0.00000000000E+00 -0.00000000000E+00 -0.45593999997E+02  0.45594000000E+02  0.51100000000E-03 0.  1.
    9900012    2    1    2    0    0  0.16695589313E-01 -0.25670469262E+00 -0.11522791726E+01  0.90007354696E+02  0.89999610977E+02 0.  0.
         12    1    1    2    0    0 -0.16695589313E-01  0.25670469262E+00  0.11522791726E+01  0.11806453039E+01  0.00000000000E+00 0. -1.
         11    1    3    3    0    0  0.24534295147E+01  0.11533740607E+00 -0.91042672610E+01  0.94297561857E+01  0.51100000000E-03 0. -1.
        -11    1    3    3    0    0 -0.16029015992E+02  0.35515493801E+02 -0.66301106708E+01  0.39525156817E+02  0.51100000000E-03 0.  1.
         12    1    3    3    0    0  0.13592282067E+02 -0.35887535900E+02  0.14582098759E+02  0.41052441693E+02  0.00000000000E+00 0. -1.
</event>
<event>
 7    1  0.1935465E-015  0.9000766E+02  0.7816164E-02  0.1186339E+00
        -11   -1    0    0    0    0  0.00000000000E+00  0.00000000000E+00  0.45593999997E+02  0.45594000000E+02  0.51100000000E-03 0.  1.
         11   -1    0    0    0    0 -0.00000000000E+00 -0.00000000000E+00 -0.45593999997E+02  0.45594000000E+02  0.51100000000E-03 0. -1.
    9900012    2    1    2    0    0 -0.97581880247E+00  0.65756982776E+00  0.92610142003E-01  0.90007662314E+02  0.89999922657E+02 0.  0.
         12    1    1    2    0    0  0.97581880247E+00 -0.65756982776E+00 -0.92610142003E-01  0.11803376856E+01  0.00000000000E+00 0. -1.
         11    1    3    3    0    0  0.25767789772E+02 -0.29259695167E+02  0.44263102321E+01  0.39239023606E+02  0.51100000000E-03 0. -1.
        -11    1    3    3    0    0  0.10709451547E+00  0.12704988029E+01  0.91623828314E+01  0.92506700219E+01  0.51100000000E-03 0.  1.
        -12    1    3    3    0    0 -0.26850703090E+02  0.28646766192E+02 -0.13496082921E+02  0.41517968687E+02  0.00000000000E+00 0.  1.
</event>
<event>
 7    1  0.1935465E-015  0.9000774E+02  0.7816164E-02  0.1186339E+00
        -11   -1    0    0    0    0  0.00000000000E+00  0.00000000000E+00  0.45593999997E+02  0.45594000000E+02  0.51100000000E-03 0.  1.
         11   -1    0    0    0    0 -0.00000000000E+00 -0.00000000000E+00 -0.45593999997E+02  0.45594000000E+02  0.51100000000E-03 0. -1.
    9900012    2    1    2    0    0  0.85661492732E+00  0.79394498954E+00 -0.16995661509E+00  0.90007736033E+02  0.89999997349E+02 0.  0.
         12    1    1    2    0    0 -0.85661492732E+00 -0.79394498954E+00  0.16995661509E+00  0.11802639667E+01  0.00000000000E+00 0. -1.
         11    1    3    3    0    0  0.18544508853E+01 -0.40501599767E+01  0.88790406052E+01  0.99337881119E+01  0.51100000000E-03 0. -1.
        -11    1    3    3    0    0  0.19722318146E+01  0.17621539067E+02  0.32216366074E+02  0.36773666946E+02  0.51100000000E-03 0.  1.
         12    1    3    3    0    0 -0.29700677726E+01 -0.12777434100E+02 -0.41265363294E+02  0.43300280975E+02  0.00000000000E+00 0. -1.
</event>
<event>
 7    1  0.1935465E-015  0.9000871E+02  0.7816164E-02  0.1186337E+00
        -11   -1    0    0    0    0  0.00000000000E+00  0.00000000000E+00  0.45593999997E+02  0.45594000000E+02  0.51100000000E-03 0. -1.
         11   -1    0    0    0    0 -0.00000000000E+00 -0.00000000000E+00 -0.45593999997E+02  0.45594000000E+02  0.51100000000E-03 0.  1.
    9900012    2    1    2    0    0 -0.15425631669E+00  0.11590704670E+01  0.15321221174E+00  0.90008714903E+02  0.90000989134E+02 0.  0.
         12    1    1    2    0    0  0.15425631669E+00 -0.11590704670E+01 -0.15321221174E+00  0.11792850972E+01  0.00000000000E+00 0. -1.
         11    1    3    3    0    0  0.32286607797E+01  0.54428503475E+01 -0.78915055602E+01  0.10115568724E+02  0.51100000000E-03 0. -1.
        -11    1    3    3    0    0  0.34825018710E+02 -0.13806985322E+02 -0.62932872325E+01  0.37987106185E+02  0.51100000000E-03 0.  1.
         12    1    3    3    0    0 -0.38207935807E+02  0.95232054413E+01  0.14338005004E+02  0.41906039994E+02  0.00000000000E+00 0. -1.
</event>
<event>
 7    1  0.1935465E-015  0.9000773E+02  0.7816164E-02  0.1186339E+00
        -11   -1    0    0    0    0  0.00000000000E+00  0.00000000000E+00  0.45593999997E+02  0.45594000000E+02  0.51100000000E-03 0.  1.
         11   -1    0    0    0    0 -0.00000000000E+00 -0.00000000000E+00 -0.45593999997E+02  0.45594000000E+02  0.51100000000E-03 0. -1.
    9900012    2    1    2    0    0  0.95681959355E+00  0.68751935216E+00  0.69672669183E-01  0.90007728474E+02  0.89999989690E+02 0.  0.
         12    1    1    2    0    0 -0.95681959355E+00 -0.68751935216E+00 -0.69672669183E-01  0.11802715260E+01  0.00000000000E+00 0. -1.
         11    1    3    3    0    0  0.63862284175E+01  0.24012543782E+02 -0.27347370835E+02  0.36949490716E+02  0.51100000000E-03 0. -1.
        -11    1    3    3    0    0  0.22917757001E+01  0.50875075091E+01 -0.62196063315E+01  0.83557448318E+01  0.51100000000E-03 0.  1.
        -12    1    3    3    0    0 -0.77211845240E+01 -0.28412531939E+02  0.33636649836E+02  0.44702492926E+02  0.00000000000E+00 0.  1.
</event>
<event>
 7    1  0.1935465E-015  0.9000778E+02  0.7816164E-02  0.1186339E+00
        -11   -1    0    0    0    0  0.00000000000E+00  0.00000000000E+00  0.45593999997E+02  0.45594000000E+02  0.51100000000E-03 0. -1.
         11   -1    0    0    0    0 -0.00000000000E+00 -0.00000000000E+00 -0.45593999997E+02  0.45594000000E+02  0.51100000000E-03 0.  1.
    9900012    2    1    2    0    0 -0.99847142750E+00  0.45422803771E+00 -0.43548846253E+00  0.90007780316E+02  0.90000042216E+02 0.  0.
         12    1    1    2    0    0  0.99847142750E+00 -0.45422803771E+00  0.43548846253E+00  0.11802196841E+01  0.00000000000E+00 0. -1.
         11    1    3    3    0    0 -0.33554713487E+02 -0.51981262505E+01  0.25330465610E+02  0.42362386641E+02  0.51100000000E-03 0. -1.
        -11    1    3    3    0    0  0.95897815852E+01 -0.10696809274E+01  0.31141520751E+01  0.10139332894E+02  0.51100000000E-03 0.  1.
        -12    1    3    3    0    0  0.22966460474E+02  0.67220352156E+01 -0.28880106148E+02  0.37506060780E+02  0.00000000000E+00 0.  1.
</event>
<event>
 7    1  0.1935465E-015  0.9000777E+02  0.7816164E-02  0.1186339E+00
        -11   -1    0    0    0    0  0.00000000000E+00  0.00000000000E+00  0.45593999997E+02  0.45594000000E+02  0.51100000000E-03 0.  1.
         11   -1    0    0    0    0 -0.00000000000E+00 -0.00000000000E+00 -0.45593999997E+02  0.45594000000E+02  0.51100000000E-03 0. -1.
    9900012    2    1    2    0    0 -0.22288267210E+00 -0.66928586088E+00  0.94620871009E+00  0.90007774949E+02  0.90000036778E+02 0.  0.
         12    1    1    2    0    0  0.22288267210E+00  0.66928586088E+00 -0.94620871009E+00  0.11802250515E+01  0.00000000000E+00 0. -1.
         11    1    3    3    0    0  0.29422223951E+01 -0.16556265389E+01 -0.92622491300E+01  0.98583482930E+01  0.51100000000E-03 0. -1.
        -11    1    3    3    0    0  0.34800542837E+01 -0.38882302206E+02  0.62909986962E+01  0.39541381709E+02  0.51100000000E-03 0.  1.
         12    1    3    3    0    0 -0.66451593510E+01  0.39868642884E+02  0.39174591439E+01  0.40608044946E+02  0.00000000000E+00 0. -1.
</event>
<event>
 7    1  0.1935465E-015  0.9000775E+02  0.7816164E-02  0.1186339E+00
        -11   -1    0    0    0    0  0.00000000000E+00  0.00000000000E+00  0.45593999997E+02  0.45594000000E+02  0.51100000000E-03 0. -1.
         11   -1    0    0    0    0 -0.00000000000E+00 -0.00000000000E+00 -0.45593999997E+02  0.45594000000E+02  0.51100000000E-03 0.  1.
    9900012    2    1    2    0    0  0.35380812380E+00 -0.10738412327E+01 -0.33863909299E+00  0.90007749342E+02  0.90000010833E+02 0.  0.
         12    1    1    2    0    0 -0.35380812380E+00  0.10738412327E+01  0.33863909299E+00  0.11802506584E+01  0.00000000000E+00 0. -1.
         11    1    3    3    0    0  0.50143769750E+01 -0.27579829872E+01 -0.80990645093E+01  0.99169195213E+01  0.51100000000E-03 0. -1.
        -11    1    3    3    0    0  0.16990777017E+02  0.35298201141E+02 -0.87928251003E+00  0.39184469442E+02  0.51100000000E-03 0.  1.
         12    1    3    3    0    0 -0.21651345868E+02 -0.33614059387E+02  0.86397079263E+01  0.40906360378E+02  0.00000000000E+00 0. -1.
</event>
<event>
 7    1  0.1935465E-015  0.9000773E+02  0.7816164E-02  0.1186339E+00
        -11   -1    0    0    0    0  0.00000000000E+00  0.00000000000E+00  0.45593999997E+02  0.45594000000E+02  0.51100000000E-03 0.  1.
         11   -1    0    0    0    0 -0.00000000000E+00 -0.00000000000E+00 -0.45593999997E+02  0.45594000000E+02  0.51100000000E-03 0. -1.
    9900012    2    1    2    0    0  0.73824861774E+00  0.89303652045E+00 -0.22474583460E+00  0.90007730565E+02  0.89999991809E+02 0.  0.
         12    1    1    2    0    0 -0.73824861774E+00 -0.89303652045E+00  0.22474583460E+00  0.11802694348E+01  0.00000000000E+00 0. -1.
         11    1    3    3    0    0 -0.27706720296E+02 -0.13578015905E+02  0.20519067554E+02  0.37054783754E+02  0.51100000000E-03 0. -1.
        -11    1    3    3    0    0 -0.14913606675E+01  0.82220270448E+01  0.75711190553E+01  0.11275980196E+02  0.51100000000E-03 0.  1.
        -12    1    3    3    0    0  0.29936329581E+02  0.62490253807E+01 -0.28314932444E+02  0.41676966616E+02  0.00000000000E+00 0.  1.
</event>
<event>
 7    1  0.1935465E-015  0.9000770E+02  0.7816164E-02  0.1186339E+00
        -11   -1    0    0    0    0  0.00000000000E+00  0.00000000000E+00  0.45593999997E+02  0.45594000000E+02  0.51100000000E-03 0.  1.
         11   -1    0    0    0    0 -0.00000000000E+00 -0.00000000000E+00 -0.45593999997E+02  0.45594000000E+02  0.51100000000E-03 0. -1.
    9900012    2    1    2    0    0 -0.10834339680E+00  0.23301330270E+00  0.11519832752E+01  0.90007703869E+02  0.89999964760E+02 0.  0.
         12    1    1    2    0    0  0.10834339680E+00 -0.23301330270E+00 -0.11519832752E+01  0.11802961311E+01  0.00000000000E+00 0. -1.
         11    1    3    3    0    0 -0.13083491715E+02  0.42156274356E+01  0.17071880594E+02  0.21917992093E+02  0.51100000000E-03 0. -1.
        -11    1    3    3    0    0  0.17294618711E+02  0.15006982891E+02  0.17899553496E+02  0.29063850183E+02  0.51100000000E-03 0.  1.
         12    1    3    3    0    0 -0.43194703934E+01 -0.18989597024E+02 -0.33819450815E+02  0.39025861592E+02  0.00000000000E+00 0. -1.
</event>
<event>
 7    1  0.1935465E-015  0.9000717E+02  0.7816164E-02  0.1186340E+00
        -11   -1    0    0    0    0  0.00000000000E+00  0.00000000000E+00  0.45593999997E+02  0.45594000000E+02  0.51100000000E-03 0. -1.
         11   -1    0    0    0    0 -0.00000000000E+00 -0.00000000000E+00 -0.45593999997E+02  0.45594000000E+02  0.51100000000E-03 0.  1.
    9900012    2    1    2    0    0  0.10751646018E+01 -0.28913470555E+00 -0.39342133298E+00  0.90007170569E+02  0.89999424419E+02 0.  0.
         12    1    1    2    0    0 -0.10751646018E+01  0.28913470555E+00  0.39342133298E+00  0.11808294306E+01  0.00000000000E+00 0. -1.
         11    1    3    3    0    0  0.10803801828E+02 -0.11465904919E+02  0.14837805178E+02  0.21641385638E+02  0.51100000000E-03 0. -1.
        -11    1    3    3    0    0  0.13419228829E+02 -0.21152416877E+02  0.17902304500E+01  0.25113848121E+02  0.51100000000E-03 0.  1.
        -12    1    3    3    0    0 -0.23147866055E+02  0.32329187090E+02 -0.17021456961E+02  0.43251936811E+02  0.00000000000E+00 0.  1.
</event>
<event>
 7    1  0.1935465E-015  0.9000773E+02  0.7816164E-02  0.1186339E+00
        -11   -1    0    0    0    0  0.00000000000E+00  0.00000000000E+00  0.45593999997E+02  0.45594000000E+02  0.51100000000E-03 0.  1.
         11   -1    0    0    0    0 -0.00000000000E+00 -0.00000000000E+00 -0.45593999997E+02  0.45594000000E+02  0.51100000000E-03 0. -1.
    9900012    2    1    2    0    0  0.70733783921E+00 -0.60124857999E+00  0.72883628288E+00  0.90007733504E+02  0.89999994787E+02 0.  0.
         12    1    1    2    0    0 -0.70733783921E+00  0.60124857999E+00 -0.72883628288E+00  0.11802664957E+01  0.00000000000E+00 0. -1.
         11    1    3    3    0    0  0.21309452816E+02 -0.91970852301E+01 -0.18353153725E+02  0.29589143414E+02  0.51100000000E-03 0. -1.
        -11    1    3    3    0    0  0.15581403338E+02  0.67032014448E+01 -0.40399534534E+01  0.17436578328E+02  0.51100000000E-03 0.  1.
        -12    1    3    3    0    0 -0.36183518315E+02  0.18926352053E+01  0.23121943462E+02  0.42982011763E+02  0.00000000000E+00 0.  1.
</event>
<event>
 7    1  0.1935465E-015  0.9000772E+02  0.7816164E-02  0.1186339E+00
        -11   -1    0    0    0    0  0.00000000000E+00  0.00000000000E+00  0.45593999997E+02  0.45594000000E+02  0.51100000000E-03 0. -1.
         11   -1    0    0    0    0 -0.00000000000E+00 -0.00000000000E+00 -0.45593999997E+02  0.45594000000E+02  0.51100000000E-03 0.  1.
    9900012    2    1    2    0    0 -0.55567099429E+00 -0.63352144356E+00 -0.82639584676E+00  0.90007724706E+02  0.89999985872E+02 0.  0.
         12    1    1    2    0    0  0.55567099429E+00  0.63352144356E+00  0.82639584676E+00  0.11802752937E+01  0.00000000000E+00 0. -1.
         11    1    3    3    0    0 -0.38718689777E+01 -0.64197482956E+01 -0.90263771241E+01  0.11733713044E+02  0.51100000000E-03 0. -1.
        -11    1    3    3    0    0 -0.16990327979E+02  0.83122612126E+01 -0.29694806845E+02  0.35207193656E+02  0.51100000000E-03 0.  1.
         12    1    3    3    0    0  0.20306525963E+02 -0.25260343606E+01  0.37894788123E+02  0.43066818006E+02  0.00000000000E+00 0. -1.
</event>
<event>
 7    1  0.1935465E-015  0.9000771E+02  0.7816164E-02  0.1186339E+00
        -11   -1    0    0    0    0  0.00000000000E+00  0.00000000000E+00  0.45593999997E+02  0.45594000000E+02  0.51100000000E-03 0.  1.
         11   -1    0    0    0    0 -0.00000000000E+00 -0.00000000000E+00 -0.45593999997E+02  0.45594000000E+02  0.51100000000E-03 0. -1.
    9900012    2    1    2    0    0 -0.35173536983E+00  0.52002126320E+00  0.99947239438E+00  0.90007709802E+02  0.89999970771E+02 0.  0.
         12    1    1    2    0    0  0.35173536983E+00 -0.52002126320E+00 -0.99947239438E+00  0.11802901981E+01  0.00000000000E+00 0. -1.
         11    1    3    3    0    0 -0.35507328667E+01 -0.37602321305E+02 -0.13112184585E+02  0.39980891139E+02  0.51100000000E-03 0. -1.
        -11    1    3    3    0    0  0.15692991728E+01  0.15970841337E+01 -0.73145329960E+01  0.76495601726E+01  0.51100000000E-03 0.  1.
        -12    1    3    3    0    0  0.16296983240E+01  0.36525258434E+02  0.21426189976E+02  0.42377258491E+02  0.00000000000E+00 0.  1.
</event>
<event>
 7    1  0.1935465E-015  0.9000780E+02  0.7816164E-02  0.1186339E+00
        -11   -1    0    0    0    0  0.00000000000E+00  0.00000000000E+00  0.45593999997E+02  0.45594000000E+02  0.51100000000E-03 0. -1.
         11   -1    0    0    0    0 -0.00000000000E+00 -0.00000000000E+00 -0.45593999997E+02  0.45594000000E+02  0.51100000000E-03 0.  1.
    9900012    2    1    2    0    0 -0.54168834193E+00 -0.10251445304E+01 -0.22030106007E+00  0.90007796575E+02  0.90000058690E+02 0.  0.
         12    1    1    2    0    0  0.54168834193E+00  0.10251445304E+01  0.22030106007E+00  0.11802034253E+01  0.00000000000E+00 0. -1.
         11    1    3    3    0    0 -0.17602783542E+02  0.33061222374E+02  0.73683409953E+01  0.38173221800E+02  0.51100000000E-03 0. -1.
        -11    1    3    3    0    0 -0.80762869941E+01 -0.30079129820E+01 -0.81458786073E+01  0.11858722135E+02  0.51100000000E-03 0.  1.
        -12    1    3    3    0    0  0.25137382194E+02 -0.31078453922E+02  0.55723655198E+00  0.39975852641E+02  0.00000000000E+00 0.  1.
</event>
<event>
 7    1  0.1935465E-015  0.9000775E+02  0.7816164E-02  0.1186339E+00
        -11   -1    0    0    0    0  0.00000000000E+00  0.00000000000E+00  0.45593999997E+02  0.45594000000E+02  0.51100000000E-03 0.  1.
         11   -1    0    0    0    0 -0.00000000000E+00 -0.00000000000E+00 -0.45593999997E+02  0.45594000000E+02  0.51100000000E-03 0. -1.
    9900012    2    1    2    0    0  0.56988262392E+00 -0.10040646339E+01 -0.24512885786E+00  0.90007745726E+02  0.90000007170E+02 0.  0.
         12    1    1    2    0    0 -0.56988262392E+00  0.10040646339E+01  0.24512885786E+00  0.11802542739E+01  0.00000000000E+00 0. -1.
         11    1    3    3    0    0  0.88191768180E+01  0.30395487555E+02  0.29832316616E+02  0.43492880548E+02  0.51100000000E-03 0. -1.
        -11    1    3    3    0    0  0.13425112485E+01 -0.90045635934E+01 -0.19631256343E+01  0.93133433566E+01  0.51100000000E-03 0.  1.
        -12    1    3    3    0    0 -0.95918054425E+01 -0.22394988595E+02 -0.28114319839E+02  0.37201521822E+02  0.00000000000E+00 0.  1.
</event>
<event>
 7    1  0.1935465E-015  0.9000789E+02  0.7816164E-02  0.1186339E+00
        -11   -1    0    0    0    0  0.00000000000E+00  0.00000000000E+00  0.45593999997E+02  0.45594000000E+02  0.51100000000E-03 0.  1.
         11   -1    0    0    0    0 -0.00000000000E+00 -0.00000000000E+00 -0.45593999997E+02  0.45594000000E+02  0.51100000000E-03 0. -1.
    9900012    2    1    2    0    0  0.84886363578E+00 -0.77965927903E+00  0.25340061613E+00  0.90007894100E+02  0.90000157502E+02 0.  0.
         12    1    1    2    0    0 -0.84886363578E+00  0.77965927903E+00 -0.25340061613E+00  0.11801059002E+01  0.00000000000E+00 0. -1.
         11    1    3    3    0    0  0.55953955747E+01  0.33189833159E+01  0.27359581236E+01  0.70575894613E+01  0.51100000000E-03 0. -1.
        -11    1    3    3    0    0  0.40799675326E+01  0.30325984713E+02  0.23786670001E+02  0.38757156164E+02  0.51100000000E-03 0.  1.
         12    1    3    3    0    0 -0.88264994715E+01 -0.34424627308E+02 -0.26269227509E+02  0.44193148475E+02  0.00000000000E+00 0. -1.
</event>
<event>
 7    1  0.1935465E-015  0.9000683E+02  0.7816164E-02  0.1186341E+00
        -11   -1    0    0    0    0  0.00000000000E+00  0.00000000000E+00  0.45593999997E+02  0.45594000000E+02  0.51100000000E-03 0.  1.
         11   -1    0    0    0    0 -0.00000000000E+00 -0.00000000000E+00 -0.45593999997E+02  0.45594000000E+02  0.51100000000E-03 0. -1.
    9900012    2    1    2    0    0 -0.43326279287E+00 -0.10978614458E+01 -0.46392458125E-01  0.90006827421E+02  0.89999076738E+02 0.  0.
         12    1    1    2    0    0  0.43326279287E+00  0.10978614458E+01  0.46392458125E-01  0.11811725793E+01  0.00000000000E+00 0. -1.
         11    1    3    3    0    0 -0.52631527878E+01  0.73653174297E+01 -0.25942224545E+01  0.94169351974E+01  0.51100000000E-03 0. -1.
        -11    1    3    3    0    0 -0.31583037855E+02 -0.24643167674E+02  0.63628602085E+01  0.40561804489E+02  0.51100000000E-03 0.  1.
         12    1    3    3    0    0  0.36412927850E+02  0.16179988798E+02 -0.38150302121E+01  0.40028087734E+02  0.00000000000E+00 0. -1.
</event>
<event>
 7    1  0.1935465E-015  0.9000780E+02  0.7816164E-02  0.1186339E+00
        -11   -1    0    0    0    0  0.00000000000E+00  0.00000000000E+00  0.45593999997E+02  0.45594000000E+02  0.51100000000E-03 0.  1.
         11   -1    0    0    0    0 -0.00000000000E+00 -0.00000000000E+00 -0.45593999997E+02  0.45594000000E+02  0.51100000000E-03 0. -1.
    9900012    2    1    2    0    0 -0.96225860263E+00 -0.68331276577E+00 -0.42564964431E-02  0.90007798292E+02  0.90000060429E+02 0.  0.
         12    1    1    2    0    0  0.96225860263E+00  0.68331276577E+00  0.42564964431E-02  0.11802017082E+01  0.00000000000E+00 0. -1.
         11    1    3    3    0    0  0.11985503432E+02  0.23644920505E+02 -0.21541872231E+02  0.34158261339E+02  0.51100000000E-03 0. -1.
        -11    1    3    3    0    0 -0.32621501223E+01  0.10790142123E+02 -0.33152964514E+01  0.11749892820E+02  0.51100000000E-03 0.  1.
        -12    1    3    3    0    0 -0.96856119121E+01 -0.35118375395E+02  0.24852912186E+02  0.44099644132E+02  0.00000000000E+00 0.  1.
</event>
<event>
 7    1  0.1935465E-015  0.9000777E+02  0.7816164E-02  0.1186339E+00
        -11   -1    0    0    0    0  0.00000000000E+00  0.00000000000E+00  0.45593999997E+02  0.45594000000E+02  0.51100000000E-03 0. -1.
         11   -1    0    0    0    0 -0.00000000000E+00 -0.00000000000E+00 -0.45593999997E+02  0.45594000000E+02  0.51100000000E-03 0.  1.
    9900012    2    1    2    0    0 -0.11316801476E+01  0.30684987193E+00  0.13446906611E+00  0.90007771747E+02  0.90000033534E+02 0.  0.
         12    1    1    2    0    0  0.11316801476E+01 -0.30684987193E+00 -0.13446906611E+00  0.11802282534E+01  0.00000000000E+00 0. -1.
         11    1    3    3    0    0  0.15123898685E+01  0.73675751255E+01  0.48152834872E+01  0.89305902194E+01  0.51100000000E-03 0. -1.
        -11    1    3    3    0    0 -0.27234675986E+02  0.25643968869E+02 -0.12455632746E+02  0.39426938795E+02  0.51100000000E-03 0.  1.
         12    1    3    3    0    0  0.24590605970E+02 -0.32704694123E+02  0.77748183244E+01  0.41650242732E+02  0.00000000000E+00 0. -1.
</event>
<event>
 7    1  0.1935465E-015  0.9000772E+02  0.7816164E-02  0.1186339E+00
        -11   -1    0    0    0    0  0.00000000000E+00  0.00000000000E+00  0.45593999997E+02  0.45594000000E+02  0.51100000000E-03 0. -1.
         11   -1    0    0    0    0 -0.00000000000E+00 -0.00000000000E+00 -0.45593999997E+02  0.45594000000E+02  0.51100000000E-03 0.  1.
    9900012    2    1    2    0    0  0.32372017907E-01 -0.11790459652E+01  0.43131451598E-01  0.90007721364E+02  0.89999982486E+02 0.  0.
         12    1    1    2    0    0 -0.32372017907E-01  0.11790459652E+01 -0.43131451598E-01  0.11802786356E+01  0.00000000000E+00 0. -1.
         11    1    3    3    0    0 -0.82343380707E+01  0.36328390296E+02 -0.95179353311E+01  0.38446682018E+02  0.51100000000E-03 0. -1.
        -11    1    3    3    0    0 -0.36482869320E+01  0.49298907605E+01  0.35182188175E+01  0.70704797827E+01  0.51100000000E-03 0.  1.
        -12    1    3    3    0    0  0.11914997021E+02 -0.42437327022E+02  0.60428479652E+01  0.44490559564E+02  0.00000000000E+00 0.  1.
</event>
<event>
 7    1  0.1935465E-015  0.9000767E+02  0.7816164E-02  0.1186339E+00
        -11   -1    0    0    0    0  0.00000000000E+00  0.00000000000E+00  0.45593999997E+02  0.45594000000E+02  0.51100000000E-03 0.  1.
         11   -1    0    0    0    0 -0.00000000000E+00 -0.00000000000E+00 -0.45593999997E+02  0.45594000000E+02  0.51100000000E-03 0. -1.
    9900012    2    1    2    0    0  0.50046329920E+00  0.94272570278E+00  0.50396016372E+00  0.90007673303E+02  0.89999933791E+02 0.  0.
         12    1    1    2    0    0 -0.50046329920E+00 -0.94272570278E+00 -0.50396016372E+00  0.11803266968E+01  0.00000000000E+00 0. -1.
         11    1    3    3    0    0 -0.13209900674E+02  0.34628641460E+02  0.65702887413E+01  0.37640576239E+02  0.51100000000E-03 0. -1.
        -11    1    3    3    0    0 -0.84410458715E+01  0.29234291031E+01  0.10341351043E+01  0.89926152370E+01  0.51100000000E-03 0.  1.
        -12    1    3    3    0    0  0.22151409845E+02 -0.36609344861E+02 -0.71004636819E+01  0.43374481827E+02  0.00000000000E+00 0.  1.
</event>
<event>
 7    1  0.1935465E-015  0.9000772E+02  0.7816164E-02  0.1186339E+00
        -11   -1    0    0    0    0  0.00000000000E+00  0.00000000000E+00  0.45593999997E+02  0.45594000000E+02  0.51100000000E-03 0.  1.
         11   -1    0    0    0    0 -0.00000000000E+00 -0.00000000000E+00 -0.45593999997E+02  0.45594000000E+02  0.51100000000E-03 0. -1.
    9900012    2    1    2    0    0  0.11398186973E+01 -0.28614623174E+00 -0.10947209592E+00  0.90007724410E+02  0.89999985572E+02 0.  0.
         12    1    1    2    0    0 -0.11398186973E+01  0.28614623174E+00  0.10947209592E+00  0.11802755901E+01  0.00000000000E+00 0. -1.
         11    1    3    3    0    0  0.27598957931E+02  0.59241646239E+01  0.10252588620E+02  0.30031879379E+02  0.51100000000E-03 0. -1.
        -11    1    3    3    0    0 -0.27189575375E+01 -0.25143500437E+02 -0.14777538649E+02  0.29291022398E+02  0.51100000000E-03 0.  1.
         12    1    3    3    0    0 -0.23740181696E+02  0.18933189581E+02  0.44154779325E+01  0.30684822633E+02  0.00000000000E+00 0. -1.
</event>
<event>
 7    1  0.1935465E-015  0.9000756E+02  0.7816164E-02  0.1186339E+00
        -11   -1    0    0    0    0  0.00000000000E+00  0.00000000000E+00  0.45593999997E+02  0.45594000000E+02  0.51100000000E-03 0. -1.
         11   -1    0    0    0    0 -0.00000000000E+00 -0.00000000000E+00 -0.45593999997E+02  0.45594000000E+02  0.51100000000E-03 0.  1.
    9900012    2    1    2    0    0  0.11221672134E+01  0.15627205014E+00 -0.33129597055E+00  0.90007560578E+02  0.89999819578E+02 0.  0.
         12    1    1    2    0    0 -0.11221672134E+01 -0.15627205014E+00  0.33129597055E+00  0.11804394218E+01  0.00000000000E+00 0. -1.
         11    1    3    3    0    0 -0.16486737566E+02 -0.30059596513E+02 -0.20848600798E+02  0.40125503282E+02  0.51100000000E-03 0. -1.
        -11    1    3    3    0    0 -0.75247319788E+01  0.80162463314E+01  0.96566511831E+01  0.14633274033E+02  0.51100000000E-03 0.  1.
        -12    1    3    3    0    0  0.25133636758E+02  0.22199622232E+02  0.10860653644E+02  0.35248783263E+02  0.00000000000E+00 0.  1.
</event>
<event>
 7    1  0.1935465E-015  0.9000773E+02  0.7816164E-02  0.1186339E+00
        -11   -1    0    0    0    0  0.00000000000E+00  0.00000000000E+00  0.45593999997E+02  0.45594000000E+02  0.51100000000E-03 0. -1.
         11   -1    0    0    0    0 -0.00000000000E+00 -0.00000000000E+00 -0.45593999997E+02  0.45594000000E+02  0.51100000000E-03 0.  1.
    9900012    2    1    2    0    0  0.61308131482E+00  0.85358999221E+00 -0.53716081787E+00  0.90007734641E+02  0.89999995938E+02 0.  0.
         12    1    1    2    0    0 -0.61308131482E+00 -0.85358999221E+00  0.53716081787E+00  0.11802653590E+01  0.00000000000E+00 0. -1.
         11    1    3    3    0    0 -0.25849156529E+01 -0.99579465847E+01 -0.14919842471E+01  0.10395600337E+02  0.51100000000E-03 0. -1.
        -11    1    3    3    0    0 -0.19289141280E+02  0.33654417263E+02  0.18603326597E+02  0.43020629160E+02  0.51100000000E-03 0.  1.
         12    1    3    3    0    0  0.22487138248E+02 -0.22842880686E+02 -0.17648503168E+02  0.36591505143E+02  0.00000000000E+00 0. -1.
</event>
<event>
 7    1  0.2073036E-015  0.9000779E+02  0.7816164E-02  0.1186339E+00
        -11   -1    0    0    0    0  0.00000000000E+00  0.00000000000E+00  0.45593999997E+02  0.45594000000E+02  0.51100000000E-03 0.  1.
         11   -1    0    0    0    0 -0.00000000000E+00 -0.00000000000E+00 -0.45593999997E+02  0.45594000000E+02  0.51100000000E-03 0. -1.
    9900012    2    1    2    0    0 -0.50621430492E+00  0.10592719882E+01 -0.12074075603E+00  0.90007793070E+02  0.90000055138E+02 0.  0.
         12    1    1    2    0    0  0.50621430492E+00 -0.10592719882E+01  0.12074075603E+00  0.11802069300E+01  0.00000000000E+00 0. -1.
         11    1    3    3    0    0 -0.94486583793E+01 -0.53409656245E+00  0.30185436894E+01  0.99334792783E+01  0.51100000000E-03 0. -1.
        -11    1    3    3    0    0  0.38805599268E+01  0.30529382229E+02  0.24807619186E+02  0.39528722400E+02  0.51100000000E-03 0.  1.
         12    1    3    3    0    0  0.50618841475E+01 -0.28936013678E+02 -0.27946903632E+02  0.40545591392E+02  0.00000000000E+00 0. -1.
</event>
<event>
 7    1  0.1935465E-015  0.9000766E+02  0.7816164E-02  0.1186339E+00
        -11   -1    0    0    0    0  0.00000000000E+00  0.00000000000E+00  0.45593999997E+02  0.45594000000E+02  0.51100000000E-03 0.  1.
         11   -1    0    0    0    0 -0.00000000000E+00 -0.00000000000E+00 -0.45593999997E+02  0.45594000000E+02  0.51100000000E-03 0. -1.
    9900012    2    1    2    0    0  0.11794634673E+01  0.21478972075E-01 -0.40045227028E-01  0.90007661473E+02  0.89999921805E+02 0.  0.
         12    1    1    2    0    0 -0.11794634673E+01 -0.21478972075E-01  0.40045227028E-01  0.11803385265E+01  0.00000000000E+00 0. -1.
         11    1    3    3    0    0  0.28181268545E+02  0.14806057966E+01 -0.23778954558E+02  0.36902774563E+02  0.51100000000E-03 0. -1.
        -11    1    3    3    0    0 -0.70118746858E+00  0.14549102214E+02  0.57916515928E+00  0.14577498813E+02  0.51100000000E-03 0.  1.
        -12    1    3    3    0    0 -0.26300617609E+02 -0.16008229038E+02  0.23159744172E+02  0.38527388098E+02  0.00000000000E+00 0.  1.
</event>
<event>
 7    1  0.1935465E-015  0.9000770E+02  0.7816164E-02  0.1186339E+00
        -11   -1    0    0    0    0  0.00000000000E+00  0.00000000000E+00  0.45593999997E+02  0.45594000000E+02  0.51100000000E-03 0. -1.
         11   -1    0    0    0    0 -0.00000000000E+00 -0.00000000000E+00 -0.45593999997E+02  0.45594000000E+02  0.51100000000E-03 0.  1.
    9900012    2    1    2    0    0 -0.81118134260E+00  0.85625195590E+00 -0.43819661947E-01  0.90007702264E+02  0.89999963134E+02 0.  0.
         12    1    1    2    0    0  0.81118134260E+00 -0.85625195590E+00  0.43819661947E-01  0.11802977359E+01  0.00000000000E+00 0. -1.
         11    1    3    3    0    0  0.17267139763E+02 -0.60889861835E+01  0.32542529916E+02  0.37339605273E+02  0.51100000000E-03 0. -1.
        -11    1    3    3    0    0 -0.41834768812E+01 -0.12011767424E+02 -0.28772985662E+00  0.12722689346E+02  0.51100000000E-03 0.  1.
        -12    1    3    3    0    0 -0.13894844225E+02  0.18957005564E+02 -0.32298619722E+02  0.39945407645E+02  0.00000000000E+00 0.  1.
</event>
<event>
 7    1  0.1935465E-015  0.9000776E+02  0.7816164E-02  0.1186339E+00
        -11   -1    0    0    0    0  0.00000000000E+00  0.00000000000E+00  0.45593999997E+02  0.45594000000E+02  0.51100000000E-03 0.  1.
         11   -1    0    0    0    0 -0.00000000000E+00 -0.00000000000E+00 -0.45593999997E+02  0.45594000000E+02  0.51100000000E-03 0. -1.
    9900012    2    1    2    0    0 -0.91105730276E+00  0.42611403611E+00  0.61755616216E+00  0.90007756722E+02  0.90000018311E+02 0.  0.
         12    1    1    2    0    0  0.91105730276E+00 -0.42611403611E+00 -0.61755616216E+00  0.11802432775E+01  0.00000000000E+00 0. -1.
         11    1    3    3    0    0  0.28713585042E+01  0.59675229642E+01  0.73534137522E+01  0.98958943032E+01  0.51100000000E-03 0. -1.
        -11    1    3    3    0    0  0.36103220894E+02 -0.38147582810E+01  0.86605346566E+01  0.37322912540E+02  0.51100000000E-03 0.  1.
         12    1    3    3    0    0 -0.39885636701E+02 -0.17266506470E+01 -0.15396392247E+02  0.42788949879E+02  0.00000000000E+00 0. -1.
</event>
<event>
 7    1  0.1935465E-015  0.9000789E+02  0.7816164E-02  0.1186339E+00
        -11   -1    0    0    0    0  0.00000000000E+00  0.00000000000E+00  0.45593999997E+02  0.45594000000E+02  0.51100000000E-03 0. -1.
         11   -1    0    0    0    0 -0.00000000000E+00 -0.00000000000E+00 -0.45593999997E+02  0.45594000000E+02  0.51100000000E-03 0.  1.
    9900012    2    1    2    0    0  0.10203517777E+01  0.48388652088E-01 -0.59093134088E+00  0.90007890233E+02  0.90000153584E+02 0.  0.
         12    1    1    2    0    0 -0.10203517777E+01 -0.48388652088E-01  0.59093134088E+00  0.11801097667E+01  0.00000000000E+00 0. -1.
         11    1    3    3    0    0 -0.37157387123E+02  0.94881108979E+01 -0.12428860049E+02  0.40313424918E+02  0.51100000000E-03 0. -1.
        -11    1    3    3    0    0  0.10918996379E+02 -0.20647580408E+01 -0.92435646991E+01  0.14454452473E+02  0.51100000000E-03 0.  1.
        -12    1    3    3    0    0  0.27258742521E+02 -0.73749642051E+01  0.21081493407E+02  0.35240012842E+02  0.00000000000E+00 0.  1.
</event>
<event>
 7    1  0.1935465E-015  0.9000762E+02  0.7816164E-02  0.1186339E+00
        -11   -1    0    0    0    0  0.00000000000E+00  0.00000000000E+00  0.45593999997E+02  0.45594000000E+02  0.51100000000E-03 0.  1.
         11   -1    0    0    0    0 -0.00000000000E+00 -0.00000000000E+00 -0.45593999997E+02  0.45594000000E+02  0.51100000000E-03 0. -1.
    9900012    2    1    2    0    0 -0.10331694403E+01 -0.44352415295E+00  0.35936504183E+00  0.90007620400E+02  0.89999880189E+02 0.  0.
         12    1    1    2    0    0  0.10331694403E+01  0.44352415295E+00 -0.35936504183E+00  0.11803795999E+01  0.00000000000E+00 0. -1.
         11    1    3    3    0    0 -0.21875604398E+00  0.17637271524E+01  0.76631004788E+00  0.19354118490E+01  0.51100000000E-03 0. -1.
        -11    1    3    3    0    0  0.26306720985E+02  0.33590896543E+02  0.44553527952E+01  0.42898042710E+02  0.51100000000E-03 0.  1.
         12    1    3    3    0    0 -0.27121134382E+02 -0.35798147848E+02 -0.48622978013E+01  0.45174165841E+02  0.00000000000E+00 0. -1.
</event>
<event>
 7    1  0.1935465E-015  0.9000765E+02  0.7816164E-02  0.1186339E+00
        -11   -1    0    0    0    0  0.00000000000E+00  0.00000000000E+00  0.45593999997E+02  0.45594000000E+02  0.51100000000E-03 0. -1.
         11   -1    0    0    0    0 -0.00000000000E+00 -0.00000000000E+00 -0.45593999997E+02  0.45594000000E+02  0.51100000000E-03 0.  1.
    9900012    2    1    2    0    0  0.51269717997E+00  0.10333956182E+01  0.24991795924E+00  0.90007650946E+02  0.89999911139E+02 0.  0.
         12    1    1    2    0    0 -0.51269717997E+00 -0.10333956182E+01 -0.24991795924E+00  0.11803490536E+01  0.00000000000E+00 0. -1.
         11    1    3    3    0    0  0.23113234190E+01  0.96881386037E+00 -0.97174027231E+01  0.10035374043E+02  0.51100000000E-03 0. -1.
        -11    1    3    3    0    0 -0.17803536001E+02 -0.35105829849E+02 -0.23042766155E+01  0.39429619254E+02  0.51100000000E-03 0.  1.
         12    1    3    3    0    0  0.16004909762E+02  0.35170411606E+02  0.12271597298E+02  0.40542657650E+02  0.00000000000E+00 0. -1.
</event>
<event>
 7    1  0.1935465E-015  0.9000737E+02  0.7816164E-02  0.1186340E+00
        -11   -1    0    0    0    0  0.00000000000E+00  0.00000000000E+00  0.45593999997E+02  0.45594000000E+02  0.51100000000E-03 0.  1.
         11   -1    0    0    0    0 -0.00000000000E+00 -0.00000000000E+00 -0.45593999997E+02  0.45594000000E+02  0.51100000000E-03 0. -1.
    9900012    2    1    2    0    0  0.72933166927E+00  0.78162805996E+00  0.50101722282E+00  0.90007370776E+02  0.89999627269E+02 0.  0.
         12    1    1    2    0    0 -0.72933166927E+00 -0.78162805996E+00 -0.50101722282E+00  0.11806292244E+01  0.00000000000E+00 0. -1.
         11    1    3    3    0    0 -0.26815685111E+02 -0.10390369484E+02  0.18899631782E+02  0.34412742229E+02  0.51100000000E-03 0. -1.
        -11    1    3    3    0    0 -0.69473892706E+01  0.50056820406E+01  0.80042490064E+01  0.11721393807E+02  0.51100000000E-03 0.  1.
        -12    1    3    3    0    0  0.34492406050E+02  0.61663155033E+01 -0.26402863565E+02  0.43873234739E+02  0.00000000000E+00 0.  1.
</event>
<event>
 7    1  0.1935465E-015  0.9000765E+02  0.7816164E-02  0.1186339E+00
        -11   -1    0    0    0    0  0.00000000000E+00  0.00000000000E+00  0.45593999997E+02  0.45594000000E+02  0.51100000000E-03 0.  1.
         11   -1    0    0    0    0 -0.00000000000E+00 -0.00000000000E+00 -0.45593999997E+02  0.45594000000E+02  0.51100000000E-03 0. -1.
    9900012    2    1    2    0    0  0.10976216154E+01 -0.31518214691E+00  0.29850145199E+00  0.90007654240E+02  0.89999914476E+02 0.  0.
         12    1    1    2    0    0 -0.10976216154E+01  0.31518214691E+00 -0.29850145199E+00  0.11803457600E+01  0.00000000000E+00 0. -1.
         11    1    3    3    0    0  0.17206051866E+01  0.74619576136E+01  0.33705134951E+01  0.83666991769E+01  0.51100000000E-03 0. -1.
        -11    1    3    3    0    0  0.17247989683E+02 -0.21811631170E+02  0.30390486960E+02  0.41192500535E+02  0.51100000000E-03 0.  1.
         12    1    3    3    0    0 -0.17870973254E+02  0.14034491410E+02 -0.33462499003E+02  0.40448454528E+02  0.00000000000E+00 0. -1.
</event>
<event>
 7    1  0.1935465E-015  0.9000771E+02  0.7816164E-02  0.1186339E+00
        -11   -1    0    0    0    0  0.00000000000E+00  0.00000000000E+00  0.45593999997E+02  0.45594000000E+02  0.51100000000E-03 0.  1.
         11   -1    0    0    0    0 -0.00000000000E+00 -0.00000000000E+00 -0.45593999997E+02  0.45594000000E+02  0.51100000000E-03 0. -1.
    9900012    2    1    2    0    0 -0.97700489484E+00  0.64817971799E+00  0.13569302651E+00  0.90007708464E+02  0.89999969416E+02 0.  0.
         12    1    1    2    0    0  0.97700489484E+00 -0.64817971799E+00 -0.13569302651E+00  0.11802915355E+01  0.00000000000E+00 0. -1.
         11    1    3    3    0    0 -0.22170779891E+02  0.19136698010E+02  0.21341568906E+02  0.36238367172E+02  0.51100000000E-03 0. -1.
        -11    1    3    3    0    0 -0.93824732702E+01 -0.43123735861E+01  0.46169970969E+01  0.11311234816E+02  0.51100000000E-03 0.  1.
         12    1    3    3    0    0  0.30576248266E+02 -0.14176144706E+02 -0.25822872976E+02  0.42458106476E+02  0.00000000000E+00 0. -1.
</event>
<event>
 7    1  0.1935465E-015  0.9000774E+02  0.7816164E-02  0.1186339E+00
        -11   -1    0    0    0    0  0.00000000000E+00  0.00000000000E+00  0.45593999997E+02  0.45594000000E+02  0.51100000000E-03 0.  1.
         11   -1    0    0    0    0 -0.00000000000E+00 -0.00000000000E+00 -0.45593999997E+02  0.45594000000E+02  0.51100000000E-03 0. -1.
    9900012    2    1    2    0    0  0.42067397154E+00  0.58092402915E+00  0.93731936945E+00  0.90007742859E+02  0.90000004265E+02 0.  0.
         12    1    1    2    0    0 -0.42067397154E+00 -0.58092402915E+00 -0.93731936945E+00  0.11802571408E+01  0.00000000000E+00 0. -1.
         11    1    3    3    0    0  0.13260337058E+01  0.66475632639E+01 -0.83753366027E+01  0.10774726271E+02  0.51100000000E-03 0. -1.
        -11    1    3    3    0    0  0.28523748082E+02  0.21408638573E+02 -0.59862194719E+01  0.36163086622E+02  0.51100000000E-03 0.  1.
         12    1    3    3    0    0 -0.29429107816E+02 -0.27475277808E+02  0.15298875444E+02  0.43069929967E+02  0.00000000000E+00 0. -1.
</event>
<event>
 7    1  0.1935465E-015  0.9000738E+02  0.7816164E-02  0.1186340E+00
        -11   -1    0    0    0    0  0.00000000000E+00  0.00000000000E+00  0.45593999997E+02  0.45594000000E+02  0.51100000000E-03 0.  1.
         11   -1    0    0    0    0 -0.00000000000E+00 -0.00000000000E+00 -0.45593999997E+02  0.45594000000E+02  0.51100000000E-03 0. -1.
    9900012    2    1    2    0    0 -0.11387451301E+01 -0.28919933785E+00 -0.11609475162E+00  0.90007383754E+02  0.89999640419E+02 0.  0.
         12    1    1    2    0    0  0.11387451301E+01  0.28919933785E+00  0.11609475162E+00  0.11806162458E+01  0.00000000000E+00 0. -1.
         11    1    3    3    0    0 -0.15227640483E+02  0.16568443168E+02 -0.38157162445E+02  0.44298570969E+02  0.51100000000E-03 0. -1.
        -11    1    3    3    0    0  0.30110634845E+00 -0.74084281444E+01  0.58785411294E+01  0.94621730419E+01  0.51100000000E-03 0.  1.
        -12    1    3    3    0    0  0.13787789005E+02 -0.94492143619E+01  0.32162526564E+02  0.36246639744E+02  0.00000000000E+00 0.  1.
</event>
<event>
 7    1  0.1935465E-015  0.9000774E+02  0.7816164E-02  0.1186339E+00
        -11   -1    0    0    0    0  0.00000000000E+00  0.00000000000E+00  0.45593999997E+02  0.45594000000E+02  0.51100000000E-03 0.  1.
         11   -1    0    0    0    0 -0.00000000000E+00 -0.00000000000E+00 -0.45593999997E+02  0.45594000000E+02  0.51100000000E-03 0. -1.
    9900012    2    1    2    0    0  0.64436724438E+00 -0.14046903964E+00  0.97881341831E+00  0.90007738841E+02  0.90000000193E+02 0.  0.
         12    1    1    2    0    0 -0.64436724438E+00  0.14046903964E+00 -0.97881341831E+00  0.11802611595E+01  0.00000000000E+00 0. -1.
         11    1    3    3    0    0  0.36307077085E+02  0.67863940189E+01 -0.14365996672E+02  0.39631311496E+02  0.51100000000E-03 0. -1.
        -11    1    3    3    0    0 -0.93534747133E+00  0.39942941643E+01  0.13296217823E+02  0.13914692574E+02  0.51100000000E-03 0.  1.
        -12    1    3    3    0    0 -0.34727362369E+02 -0.10921157223E+02  0.20485922672E+01  0.36461734771E+02  0.00000000000E+00 0.  1.
</event>
<event>
 7    1  0.1935465E-015  0.9000758E+02  0.7816164E-02  0.1186339E+00
        -11   -1    0    0    0    0  0.00000000000E+00  0.00000000000E+00  0.45593999997E+02  0.45594000000E+02  0.51100000000E-03 0. -1.
         11   -1    0    0    0    0 -0.00000000000E+00 -0.00000000000E+00 -0.45593999997E+02  0.45594000000E+02  0.51100000000E-03 0.  1.
    9900012    2    1    2    0    0  0.32284205444E+00  0.11231256087E+01  0.16658228417E+00  0.90007581522E+02  0.89999840798E+02 0.  0.
         12    1    1    2    0    0 -0.32284205444E+00 -0.11231256087E+01 -0.16658228417E+00  0.11804184777E+01  0.00000000000E+00 0. -1.
         11    1    3    3    0    0 -0.69549339263E+00 -0.98099906557E+01 -0.18782274902E+01  0.10012360685E+02  0.51100000000E-03 0. -1.
        -11    1    3    3    0    0  0.15377626688E+02  0.22638707245E+02 -0.31467236377E+02  0.41703350390E+02  0.51100000000E-03 0.  1.
         12    1    3    3    0    0 -0.14359291241E+02 -0.11705590981E+02  0.33512046151E+02  0.38291870448E+02  0.00000000000E+00 0. -1.
</event>
<event>
 7    1  0.1935465E-015  0.9000774E+02  0.7816164E-02  0.1186339E+00
        -11   -1    0    0    0    0  0.00000000000E+00  0.00000000000E+00  0.45593999997E+02  0.45594000000E+02  0.51100000000E-03 0.  1.
         11   -1    0    0    0    0 -0.00000000000E+00 -0.00000000000E+00 -0.45593999997E+02  0.45594000000E+02  0.51100000000E-03 0. -1.
    9900012    2    1    2    0    0 -0.48681100255E+00  0.69045258947E+00  0.82419934205E+00  0.90007739738E+02  0.90000001103E+02 0.  0.
         12    1    1    2    0    0  0.48681100255E+00 -0.69045258947E+00 -0.82419934205E+00  0.11802602620E+01  0.00000000000E+00 0. -1.
         11    1    3    3    0    0 -0.10368089451E+02  0.23275951861E+02 -0.26629872888E+02  0.36856713692E+02  0.51100000000E-03 0. -1.
        -11    1    3    3    0    0  0.48712506565E+00 -0.55621704853E-01 -0.91452297459E+01  0.91583629525E+01  0.51100000000E-03 0.  1.
        -12    1    3    3    0    0  0.93941533828E+01 -0.22529877566E+02  0.36599301976E+02  0.43992663094E+02  0.00000000000E+00 0.  1.
</event>
<event>
 7    1  0.1935465E-015  0.9000764E+02  0.7816164E-02  0.1186339E+00
        -11   -1    0    0    0    0  0.00000000000E+00  0.00000000000E+00  0.45593999997E+02  0.45594000000E+02  0.51100000000E-03 0. -1.
         11   -1    0    0    0    0 -0.00000000000E+00 -0.00000000000E+00 -0.45593999997E+02  0.45594000000E+02  0.51100000000E-03 0.  1.
    9900012    2    1    2    0    0  0.23965398067E-01 -0.70965152424E+00 -0.94290814983E+00  0.90007637596E+02  0.89999897612E+02 0.  0.
         12    1    1    2    0    0 -0.23965398067E-01  0.70965152424E+00  0.94290814983E+00  0.11803624042E+01  0.00000000000E+00 0. -1.
         11    1    3    3    0    0 -0.34020779443E+02 -0.13073659690E+02  0.11503296249E+02  0.38218579729E+02  0.51100000000E-03 0. -1.
        -11    1    3    3    0    0  0.92364125326E-01  0.41242086256E+01  0.96193428577E+01  0.10466584218E+02  0.51100000000E-03 0.  1.
        -12    1    3    3    0    0  0.33952380716E+02  0.82397995406E+01 -0.22065547256E+02  0.41322473649E+02  0.00000000000E+00 0.  1.
</event>
<event>
 7    1  0.1935465E-015  0.9000778E+02  0.7816164E-02  0.1186339E+00
        -11   -1    0    0    0    0  0.00000000000E+00  0.00000000000E+00  0.45593999997E+02  0.45594000000E+02  0.51100000000E-03 0. -1.
         11   -1    0    0    0    0 -0.00000000000E+00 -0.00000000000E+00 -0.45593999997E+02  0.45594000000E+02  0.51100000000E-03 0.  1.
    9900012    2    1    2    0    0  0.31537617932E+00  0.11357140660E+01  0.60128376616E-01  0.90007777989E+02  0.90000039858E+02 0.  0.
         12    1    1    2    0    0 -0.31537617932E+00 -0.11357140660E+01 -0.60128376616E-01  0.11802220113E+01  0.00000000000E+00 0. -1.
         11    1    3    3    0    0  0.65346693019E+01 -0.81406052117E+01 -0.45843010627E+01  0.11401191718E+02  0.51100000000E-03 0. -1.
        -11    1    3    3    0    0  0.81377369453E+01  0.62047079380E+01 -0.34929105024E+02  0.36397301291E+02  0.51100000000E-03 0.  1.
         12    1    3    3    0    0 -0.14357030068E+02  0.30716113397E+01  0.39573534463E+02  0.42209284980E+02  0.00000000000E+00 0. -1.
</event>
<event>
 7    1  0.1935465E-015  0.9000773E+02  0.7816164E-02  0.1186339E+00
        -11   -1    0    0    0    0  0.00000000000E+00  0.00000000000E+00  0.45593999997E+02  0.45594000000E+02  0.51100000000E-03 0. -1.
         11   -1    0    0    0    0 -0.00000000000E+00 -0.00000000000E+00 -0.45593999997E+02  0.45594000000E+02  0.51100000000E-03 0.  1.
    9900012    2    1    2    0    0  0.24504949148E+00  0.10025323225E+01 -0.57263977073E+00  0.90007730277E+02  0.89999991517E+02 0.  0.
         12    1    1    2    0    0 -0.24504949148E+00 -0.10025323225E+01  0.57263977073E+00  0.11802697226E+01  0.00000000000E+00 0. -1.
         11    1    3    3    0    0  0.16969791550E+02 -0.15174826540E+02  0.28761188875E+02  0.36680446719E+02  0.51100000000E-03 0. -1.
        -11    1    3    3    0    0 -0.18312935805E+01  0.14631956044E-01  0.89758546841E+01  0.91607760503E+01  0.51100000000E-03 0.  1.
        -12    1    3    3    0    0 -0.14893448477E+02  0.16162726907E+02 -0.38309683330E+02  0.44166507508E+02  0.00000000000E+00 0.  1.
</event>
<event>
 7    1  0.1935465E-015  0.9000773E+02  0.7816164E-02  0.1186339E+00
        -11   -1    0    0    0    0  0.00000000000E+00  0.00000000000E+00  0.45593999997E+02  0.45594000000E+02  0.51100000000E-03 0.  1.
         11   -1    0    0    0    0 -0.00000000000E+00 -0.00000000000E+00 -0.45593999997E+02  0.45594000000E+02  0.51100000000E-03 0. -1.
    9900012    2    1    2    0    0 -0.85297811121E+00  0.79986193919E+00  0.16027332914E+00  0.90007729556E+02  0.89999990787E+02 0.  0.
         12    1    1    2    0    0  0.85297811121E+00 -0.79986193919E+00 -0.16027332914E+00  0.11802704436E+01  0.00000000000E+00 0. -1.
         11    1    3    3    0    0 -0.30212389185E+02 -0.21311850894E+02 -0.13078775197E+02  0.39217825152E+02  0.51100000000E-03 0. -1.
        -11    1    3    3    0    0  0.63862882270E+01 -0.21091652365E+01 -0.85853853173E+01  0.10906057795E+02  0.51100000000E-03 0.  1.
        -12    1    3    3    0    0  0.22973122846E+02  0.24220878070E+02  0.21824433843E+02  0.39883846609E+02  0.00000000000E+00 0.  1.
</event>
<event>
 7    1  0.1935465E-015  0.9000772E+02  0.7816164E-02  0.1186339E+00
        -11   -1    0    0    0    0  0.00000000000E+00  0.00000000000E+00  0.45593999997E+02  0.45594000000E+02  0.51100000000E-03 0.  1.
         11   -1    0    0    0    0 -0.00000000000E+00 -0.00000000000E+00 -0.45593999997E+02  0.45594000000E+02  0.51100000000E-03 0. -1.
    9900012    2    1    2    0    0 -0.34463303796E+00  0.11263485189E+01  0.75030269087E-01  0.90007719331E+02  0.89999980426E+02 0.  0.
         12    1    1    2    0    0  0.34463303796E+00 -0.11263485189E+01 -0.75030269087E-01  0.11802806693E+01  0.00000000000E+00 0. -1.
         11    1    3    3    0    0 -0.22263219588E+00 -0.54750422841E+01  0.72710269459E+01  0.91045859992E+01  0.51100000000E-03 0. -1.
        -11    1    3    3    0    0  0.38175950405E+02 -0.89962960027E+01 -0.29176790456E+01  0.39330006132E+02  0.51100000000E-03 0.  1.
         12    1    3    3    0    0 -0.38297951247E+02  0.15597686806E+02 -0.42783176312E+01  0.41573127199E+02  0.00000000000E+00 0. -1.
</event>
<event>
 7    1  0.1935465E-015  0.9000773E+02  0.7816164E-02  0.1186339E+00
        -11   -1    0    0    0    0  0.00000000000E+00  0.00000000000E+00  0.45593999997E+02  0.45594000000E+02  0.51100000000E-03 0.  1.
         11   -1    0    0    0    0 -0.00000000000E+00 -0.00000000000E+00 -0.45593999997E+02  0.45594000000E+02  0.51100000000E-03 0. -1.
    9900012    2    1    2    0    0  0.57041633526E+00  0.56611813980E-01  0.10317241184E+01  0.90007731238E+02  0.89999992491E+02 0.  0.
         12    1    1    2    0    0 -0.57041633526E+00 -0.56611813980E-01 -0.10317241184E+01  0.11802687615E+01  0.00000000000E+00 0. -1.
         11    1    3    3    0    0  0.45470627321E+01  0.12118256355E+02  0.14201821959E+02  0.19215089482E+02  0.51100000000E-03 0. -1.
        -11    1    3    3    0    0 -0.94653442127E+01  0.18186532253E+02  0.17803008018E+02  0.27153080695E+02  0.51100000000E-03 0.  1.
         12    1    3    3    0    0  0.54886978159E+01 -0.30248176795E+02 -0.30973105859E+02  0.43639561062E+02  0.00000000000E+00 0. -1.
</event>
<event>
 7    1  0.1935465E-015  0.9000775E+02  0.7816164E-02  0.1186339E+00
        -11   -1    0    0    0    0  0.00000000000E+00  0.00000000000E+00  0.45593999997E+02  0.45594000000E+02  0.51100000000E-03 0.  1.
         11   -1    0    0    0    0 -0.00000000000E+00 -0.00000000000E+00 -0.45593999997E+02  0.45594000000E+02  0.51100000000E-03 0. -1.
    9900012    2    1    2    0    0 -0.47135139203E+00 -0.10813318371E+01  0.39230103277E-01  0.90007750163E+02  0.90000011665E+02 0.  0.
         12    1    1    2    0    0  0.47135139203E+00  0.10813318371E+01 -0.39230103277E-01  0.11802498369E+01  0.00000000000E+00 0. -1.
         11    1    3    3    0    0 -0.83170607184E+01  0.12682203273E+01  0.44027626157E+01  0.94955884864E+01  0.51100000000E-03 0. -1.
        -11    1    3    3    0    0 -0.13256593812E+01 -0.28734900081E+02  0.26339903764E+02  0.39003107389E+02  0.51100000000E-03 0.  1.
         12    1    3    3    0    0  0.91713687076E+01  0.26385347917E+02 -0.30703436276E+02  0.41509054287E+02  0.00000000000E+00 0. -1.
</event>
<event>
 7    1  0.1935465E-015  0.9000774E+02  0.7816164E-02  0.1186339E+00
        -11   -1    0    0    0    0  0.00000000000E+00  0.00000000000E+00  0.45593999997E+02  0.45594000000E+02  0.51100000000E-03 0. -1.
         11   -1    0    0    0    0 -0.00000000000E+00 -0.00000000000E+00 -0.45593999997E+02  0.45594000000E+02  0.51100000000E-03 0.  1.
    9900012    2    1    2    0    0 -0.10212095997E+00  0.59741334024E+00  0.10127595956E+01  0.90007740118E+02  0.90000001488E+02 0.  0.
         12    1    1    2    0    0  0.10212095997E+00 -0.59741334024E+00 -0.10127595956E+01  0.11802598816E+01  0.00000000000E+00 0. -1.
         11    1    3    3    0    0  0.79037281365E+01  0.36232128570E+00 -0.61009844959E+01  0.99911064077E+01  0.51100000000E-03 0. -1.
        -11    1    3    3    0    0 -0.14914928022E+01 -0.39242597402E+02  0.76125738155E+01  0.40001965977E+02  0.51100000000E-03 0.  1.
         12    1    3    3    0    0 -0.65143562942E+01  0.39477689457E+02 -0.49882972397E+00  0.40014667734E+02  0.00000000000E+00 0. -1.
</event>
<event>
 8    1  0.1935465E-015  0.9000767E+02  0.7816164E-02  0.1186339E+00
        -11   -1    0    0    0    0  0.00000000000E+00  0.00000000000E+00  0.45593999997E+02  0.45594000000E+02  0.51100000000E-03 0.  1.
         11   -1    0    0    0    0 -0.00000000000E+00 -0.00000000000E+00 -0.45593999997E+02  0.45594000000E+02  0.51100000000E-03 0. -1.
    9900012    2    1    2    0    0  0.11112763465E+01  0.38980781802E+00  0.79292154637E-01  0.90007672715E+02  0.89999933195E+02 0.  0.
         23    2    3    3    0    0 -0.88526123384E+01  0.16839859461E+02  0.19727199042E+02  0.62513609323E+02  0.56185757596E+02 0.  0.
         12    1    1    2    0    0 -0.11112763465E+01 -0.38980781802E+00 -0.79292154637E-01  0.11803272847E+01  0.00000000000E+00 0. -1.
         11    1    4    4    0    0 -0.14714346772E+02 -0.15024205470E+02 -0.51674437234E+01  0.21655050816E+02  0.51100000000E-03 0. -1.
        -11    1    4    4    0    0  0.58617344341E+01  0.31864064931E+02  0.24894642766E+02  0.40858558506E+02  0.51100000000E-03 0.  1.
         12    1    3    3    0    0  0.99638886849E+01 -0.16450051643E+02 -0.19647906888E+02  0.27494063393E+02  0.00000000000E+00 0. -1.
</event>
<event>
 7    1  0.1935465E-015  0.9000755E+02  0.7816164E-02  0.1186339E+00
        -11   -1    0    0    0    0  0.00000000000E+00  0.00000000000E+00  0.45593999997E+02  0.45594000000E+02  0.51100000000E-03 0.  1.
         11   -1    0    0    0    0 -0.00000000000E+00 -0.00000000000E+00 -0.45593999997E+02  0.45594000000E+02  0.51100000000E-03 0. -1.
    9900012    2    1    2    0    0  0.46269277349E+00  0.41597003193E+00  0.10031732109E+01  0.90007545782E+02  0.89999804586E+02 0.  0.
         12    1    1    2    0    0 -0.46269277349E+00 -0.41597003193E+00 -0.10031732109E+01  0.11804542182E+01  0.00000000000E+00 0. -1.
         11    1    3    3    0    0  0.23262188716E+02 -0.19779516980E+02 -0.13765484167E+02  0.33493988571E+02  0.51100000000E-03 0. -1.
        -11    1    3    3    0    0  0.59045964389E+01 -0.89820922005E+01 -0.40213873826E+01  0.11476663110E+02  0.51100000000E-03 0.  1.
        -12    1    3    3    0    0 -0.28704092381E+02  0.29177579213E+02  0.18790044760E+02  0.45036894100E+02  0.00000000000E+00 0.  1.
</event>
<event>
 7    1  0.1935465E-015  0.9000779E+02  0.7816164E-02  0.1186339E+00
        -11   -1    0    0    0    0  0.00000000000E+00  0.00000000000E+00  0.45593999997E+02  0.45594000000E+02  0.51100000000E-03 0. -1.
         11   -1    0    0    0    0 -0.00000000000E+00 -0.00000000000E+00 -0.45593999997E+02  0.45594000000E+02  0.51100000000E-03 0.  1.
    9900012    2    1    2    0    0  0.22767127909E+00 -0.50766921326E+00 -0.10408290948E+01  0.90007793473E+02  0.90000055547E+02 0.  0.
         12    1    1    2    0    0 -0.22767127909E+00  0.50766921326E+00  0.10408290948E+01  0.11802065268E+01  0.00000000000E+00 0. -1.
         11    1    3    3    0    0  0.88970549607E+01  0.37503966339E+01  0.29105780928E+01  0.10084370431E+02  0.51100000000E-03 0. -1.
        -11    1    3    3    0    0 -0.64552860266E+00  0.37042715661E+02 -0.71388407263E+01  0.37729862680E+02  0.51100000000E-03 0.  1.
         12    1    3    3    0    0 -0.80238550790E+01 -0.41300781508E+02  0.31874335388E+01  0.42193560362E+02  0.00000000000E+00 0. -1.
</event>
<event>
 7    1  0.1935465E-015  0.9000774E+02  0.7816164E-02  0.1186339E+00
        -11   -1    0    0    0    0  0.00000000000E+00  0.00000000000E+00  0.45593999997E+02  0.45594000000E+02  0.51100000000E-03 0.  1.
         11   -1    0    0    0    0 -0.00000000000E+00 -0.00000000000E+00 -0.45593999997E+02  0.45594000000E+02  0.51100000000E-03 0. -1.
    9900012    2    1    2    0    0 -0.54180024303E+00  0.28196784723E+00  0.10099315237E+01  0.90007739413E+02  0.90000000773E+02 0.  0.
         12    1    1    2    0    0  0.54180024303E+00 -0.28196784723E+00 -0.10099315237E+01  0.11802605868E+01  0.00000000000E+00 0. -1.
         11    1    3    3    0    0  0.40653876301E+01  0.20978417361E+01  0.79708619106E+01  0.91903730278E+01  0.51100000000E-03 0. -1.
        -11    1    3    3    0    0  0.26676290034E+02 -0.21104328613E+01  0.24621197906E+02  0.36363192426E+02  0.51100000000E-03 0.  1.
         12    1    3    3    0    0 -0.31283477907E+02  0.29455897250E+00 -0.31582128293E+02  0.44454173960E+02  0.00000000000E+00 0. -1.
</event>
<event>
 7    1  0.1935465E-015  0.9000764E+02  0.7816164E-02  0.1186339E+00
        -11   -1    0    0    0    0  0.00000000000E+00  0.00000000000E+00  0.45593999997E+02  0.45594000000E+02  0.51100000000E-03 0.  1.
         11   -1    0    0    0    0 -0.00000000000E+00 -0.00000000000E+00 -0.45593999997E+02  0.45594000000E+02  0.51100000000E-03 0. -1.
    9900012    2    1    2    0    0  0.23345207765E+00 -0.10833852121E+01 -0.40622595459E+00  0.90007642886E+02  0.89999902972E+02 0.  0.
         12    1    1    2    0    0 -0.23345207765E+00  0.10833852121E+01  0.40622595459E+00  0.11803571140E+01  0.00000000000E+00 0. -1.
         11    1    3    3    0    0  0.33530787563E+02  0.21455437383E+02  0.45572231727E+00  0.39810264895E+02  0.51100000000E-03 0. -1.
        -11    1    3    3    0    0 -0.40577763990E+00  0.37328468057E+01  0.64576727488E+01  0.74699624069E+01  0.51100000000E-03 0.  1.
        -12    1    3    3    0    0 -0.32891557846E+02 -0.26271669400E+02 -0.73196210207E+01  0.42727415584E+02  0.00000000000E+00 0.  1.
</event>
<event>
 7    1  0.1935465E-015  0.9000771E+02  0.7816164E-02  0.1186339E+00
        -11   -1    0    0    0    0  0.00000000000E+00  0.00000000000E+00  0.45593999997E+02  0.45594000000E+02  0.51100000000E-03 0. -1.
         11   -1    0    0    0    0 -0.00000000000E+00 -0.00000000000E+00 -0.45593999997E+02  0.45594000000E+02  0.51100000000E-03 0.  1.
    9900012    2    1    2    0    0  0.19447786566E+00  0.11438327615E+01 -0.21657030175E+00  0.90007712865E+02  0.89999973874E+02 0.  0.
         12    1    1    2    0    0 -0.19447786566E+00 -0.11438327615E+01  0.21657030175E+00  0.11802871354E+01  0.00000000000E+00 0. -1.
         11    1    3    3    0    0  0.59801952556E+01 -0.46564380392E+01 -0.69163442555E+01  0.10260651472E+02  0.51100000000E-03 0. -1.
        -11    1    3    3    0    0  0.40102365274E+01 -0.20894899420E+02 -0.27820054440E+02  0.35023338620E+02  0.51100000000E-03 0.  1.
         12    1    3    3    0    0 -0.97959539173E+01  0.26695170221E+02  0.34519828394E+02  0.44723722772E+02  0.00000000000E+00 0. -1.
</event>
<event>
 7    1  0.1935465E-015  0.9000784E+02  0.7816164E-02  0.1186339E+00
        -11   -1    0    0    0    0  0.00000000000E+00  0.00000000000E+00  0.45593999997E+02  0.45594000000E+02  0.51100000000E-03 0. -1.
         11   -1    0    0    0    0 -0.00000000000E+00 -0.00000000000E+00 -0.45593999997E+02  0.45594000000E+02  0.51100000000E-03 0.  1.
    9900012    2    1    2    0    0 -0.65254699176E+00 -0.71371795924E+00 -0.67643532758E+00  0.90007840835E+02  0.90000103534E+02 0.  0.
         12    1    1    2    0    0  0.65254699176E+00  0.71371795924E+00  0.67643532758E+00  0.11801591648E+01  0.00000000000E+00 0. -1.
         11    1    3    3    0    0 -0.64957452009E+01  0.26676208693E+01 -0.90770903572E+01  0.11476257074E+02  0.51100000000E-03 0. -1.
        -11    1    3    3    0    0 -0.13462700992E+02 -0.11961668016E+01 -0.31431087341E+02  0.34213862464E+02  0.51100000000E-03 0.  1.
         12    1    3    3    0    0  0.19305899201E+02 -0.21851720269E+01  0.39831742370E+02  0.44317721297E+02  0.00000000000E+00 0. -1.
</event>
<event>
 7    1  0.1935465E-015  0.9000775E+02  0.7816164E-02  0.1186339E+00
        -11   -1    0    0    0    0  0.00000000000E+00  0.00000000000E+00  0.45593999997E+02  0.45594000000E+02  0.51100000000E-03 0.  1.
         11   -1    0    0    0    0 -0.00000000000E+00 -0.00000000000E+00 -0.45593999997E+02  0.45594000000E+02  0.51100000000E-03 0. -1.
    9900012    2    1    2    0    0 -0.81538283632E-01  0.10396102324E+01 -0.55276700442E+00  0.90007750328E+02  0.90000011832E+02 0.  0.
         12    1    1    2    0    0  0.81538283632E-01 -0.10396102324E+01  0.55276700442E+00  0.11802496719E+01  0.00000000000E+00 0. -1.
         11    1    3    3    0    0  0.60357266830E+01  0.25640338112E+02 -0.22727088443E+02  0.34790479796E+02  0.51100000000E-03 0. -1.
        -11    1    3    3    0    0  0.62744919521E+01  0.53182640610E+00 -0.10456382742E+02  0.12206065250E+02  0.51100000000E-03 0.  1.
        -12    1    3    3    0    0 -0.12391756919E+02 -0.25132554286E+02  0.32630704181E+02  0.43011205282E+02  0.00000000000E+00 0.  1.
</event>
<event>
 7    1  0.1935465E-015  0.9000775E+02  0.7816164E-02  0.1186339E+00
        -11   -1    0    0    0    0  0.00000000000E+00  0.00000000000E+00  0.45593999997E+02  0.45594000000E+02  0.51100000000E-03 0. -1.
         11   -1    0    0    0    0 -0.00000000000E+00 -0.00000000000E+00 -0.45593999997E+02  0.45594000000E+02  0.51100000000E-03 0.  1.
    9900012    2    1    2    0    0 -0.35383549579E+00  0.67102264796E+00 -0.90417332755E+00  0.90007745638E+02  0.90000007081E+02 0.  0.
         12    1    1    2    0    0  0.35383549579E+00 -0.67102264796E+00  0.90417332755E+00  0.11802543617E+01  0.00000000000E+00 0. -1.
         11    1    3    3    0    0  0.26354203323E+02 -0.53225127970E+01  0.22134547738E+02  0.34825441549E+02  0.51100000000E-03 0. -1.
        -11    1    3    3    0    0  0.91909859980E+01 -0.20741755977E+01  0.32440114486E+01  0.99649404698E+01  0.51100000000E-03 0.  1.
        -12    1    3    3    0    0 -0.35899024817E+02  0.80677110427E+01 -0.26282732514E+02  0.45217363619E+02  0.00000000000E+00 0.  1.
</event>
<event>
 7    1  0.1935465E-015  0.9000782E+02  0.7816164E-02  0.1186339E+00
        -11   -1    0    0    0    0  0.00000000000E+00  0.00000000000E+00  0.45593999997E+02  0.45594000000E+02  0.51100000000E-03 0.  1.
         11   -1    0    0    0    0 -0.00000000000E+00 -0.00000000000E+00 -0.45593999997E+02  0.45594000000E+02  0.51100000000E-03 0. -1.
    9900012    2    1    2    0    0 -0.98604232518E+00 -0.52187441703E+00  0.38495360556E+00  0.90007821347E+02  0.90000083789E+02 0.  0.
         12    1    1    2    0    0  0.98604232518E+00  0.52187441703E+00 -0.38495360556E+00  0.11801786528E+01  0.00000000000E+00 0. -1.
         11    1    3    3    0    0  0.49129843114E+01 -0.66722997750E+01  0.61576801319E+01  0.10323469572E+02  0.51100000000E-03 0. -1.
        -11    1    3    3    0    0  0.24801563871E+01  0.40545847438E+02 -0.14657383256E+02  0.43185134066E+02  0.51100000000E-03 0.  1.
         12    1    3    3    0    0 -0.83791830238E+01 -0.34395422080E+02  0.88846567297E+01  0.36499217709E+02  0.00000000000E+00 0. -1.
</event>
<event>
 7    1  0.1935465E-015  0.9000776E+02  0.7816164E-02  0.1186339E+00
        -11   -1    0    0    0    0  0.00000000000E+00  0.00000000000E+00  0.45593999997E+02  0.45594000000E+02  0.51100000000E-03 0.  1.
         11   -1    0    0    0    0 -0.00000000000E+00 -0.00000000000E+00 -0.45593999997E+02  0.45594000000E+02  0.51100000000E-03 0. -1.
    9900012    2    1    2    0    0  0.41178615695E+00  0.71961894588E+00  0.83997214182E+00  0.90007757455E+02  0.90000019053E+02 0.  0.
         12    1    1    2    0    0 -0.41178615695E+00 -0.71961894588E+00 -0.83997214182E+00  0.11802425451E+01  0.00000000000E+00 0. -1.
         11    1    3    3    0    0 -0.17628401535E+02  0.94922375728E+01  0.17398438480E+02  0.26524870907E+02  0.51100000000E-03 0.  1.
        -11    1    3    3    0    0 -0.79181818351E+01 -0.25141129448E+02  0.38355438064E+01  0.26636166954E+02  0.51100000000E-03 0. -1.
         12    1    3    3    0    0  0.25958369527E+02  0.16368510821E+02 -0.20394010145E+02  0.36846719593E+02  0.00000000000E+00 0. -1.
</event>
<event>
 7    1  0.1935465E-015  0.9000756E+02  0.7816164E-02  0.1186339E+00
        -11   -1    0    0    0    0  0.00000000000E+00  0.00000000000E+00  0.45593999997E+02  0.45594000000E+02  0.51100000000E-03 0. -1.
         11   -1    0    0    0    0 -0.00000000000E+00 -0.00000000000E+00 -0.45593999997E+02  0.45594000000E+02  0.51100000000E-03 0.  1.
    9900012    2    1    2    0    0 -0.13376987096E+00 -0.86266762740E+00  0.79456943311E+00  0.90007563472E+02  0.89999822509E+02 0.  0.
         12    1    1    2    0    0  0.13376987096E+00  0.86266762740E+00 -0.79456943311E+00  0.11804365285E+01  0.00000000000E+00 0. -1.
         11    1    3    3    0    0  0.14542021046E+02  0.28612270788E+01 -0.10731256296E+02  0.18298001488E+02  0.51100000000E-03 0. -1.
        -11    1    3    3    0    0 -0.23108337345E+02 -0.10924139364E+02 -0.23652609604E+02  0.34824962557E+02  0.51100000000E-03 0.  1.
         12    1    3    3    0    0  0.84325464282E+01  0.72002446581E+01  0.35178435333E+02  0.36884599427E+02  0.00000000000E+00 0. -1.
</event>
<event>
 7    1  0.1935465E-015  0.9000779E+02  0.7816164E-02  0.1186339E+00
        -11   -1    0    0    0    0  0.00000000000E+00  0.00000000000E+00  0.45593999997E+02  0.45594000000E+02  0.51100000000E-03 0.  1.
         11   -1    0    0    0    0 -0.00000000000E+00 -0.00000000000E+00 -0.45593999997E+02  0.45594000000E+02  0.51100000000E-03 0. -1.
    9900012    2    1    2    0    0  0.10826967875E+01  0.37763258759E+00  0.27938510869E+00  0.90007790381E+02  0.90000052414E+02 0.  0.
         12    1    1    2    0    0 -0.10826967875E+01 -0.37763258759E+00 -0.27938510869E+00  0.11802096186E+01  0.00000000000E+00 0. -1.
         11    1    3    3    0    0  0.32429510536E+01  0.34567099066E+02  0.16859474669E+02  0.38595892991E+02  0.51100000000E-03 0. -1.
        -11    1    3    3    0    0  0.59332461020E+00 -0.13014232029E+01  0.93387995698E+01  0.94476935869E+01  0.51100000000E-03 0.  1.
        -12    1    3    3    0    0 -0.27535788763E+01 -0.32888043276E+02 -0.25918889130E+02  0.41964203804E+02  0.00000000000E+00 0.  1.
</event>
<event>
 7    1  0.1935465E-015  0.9000776E+02  0.7816164E-02  0.1186339E+00
        -11   -1    0    0    0    0  0.00000000000E+00  0.00000000000E+00  0.45593999997E+02  0.45594000000E+02  0.51100000000E-03 0. -1.
         11   -1    0    0    0    0 -0.00000000000E+00 -0.00000000000E+00 -0.45593999997E+02  0.45594000000E+02  0.51100000000E-03 0.  1.
    9900012    2    1    2    0    0  0.67944250019E+00  0.37840294625E+00 -0.88777246750E+00  0.90007758137E+02  0.90000019745E+02 0.  0.
         12    1    1    2    0    0 -0.67944250019E+00 -0.37840294625E+00  0.88777246750E+00  0.11802418629E+01  0.00000000000E+00 0. -1.
         11    1    3    3    0    0  0.28575226558E+02  0.14136283205E+02  0.17314038154E+02  0.36278836712E+02  0.51100000000E-03 0. -1.
        -11    1    3    3    0    0  0.74418956932E+01  0.57754102758E+01  0.45547061816E-01  0.94201512811E+01  0.51100000000E-03 0.  1.
        -12    1    3    3    0    0 -0.35337679751E+02 -0.19533290534E+02 -0.18247357684E+02  0.44308770144E+02  0.00000000000E+00 0.  1.
</event>
<event>
 8    1  0.1935465E-015  0.9000770E+02  0.7816164E-02  0.1186339E+00
        -11   -1    0    0    0    0  0.00000000000E+00  0.00000000000E+00  0.45593999997E+02  0.45594000000E+02  0.51100000000E-03 0.  1.
         11   -1    0    0    0    0 -0.00000000000E+00 -0.00000000000E+00 -0.45593999997E+02  0.45594000000E+02  0.51100000000E-03 0. -1.
    9900012    2    1    2    0    0  0.84796535632E-01  0.29662029112E+00  0.11392737556E+01  0.90007695489E+02  0.89999956269E+02 0.  0.
         23    2    3    3    0    0  0.18040314063E+01  0.26433582863E+02  0.60420921641E+01  0.63359352024E+02  0.57235581406E+02 0.  0.
         12    1    1    2    0    0 -0.84796535632E-01 -0.29662029112E+00 -0.11392737556E+01  0.11803045115E+01  0.00000000000E+00 0. -1.
         11    1    4    4    0    0 -0.13869834933E+01  0.38310263803E+02  0.21226386865E+02  0.43819625003E+02  0.51100000000E-03 0.  1.
        -11    1    4    4    0    0  0.31910148997E+01 -0.11876680940E+02 -0.15184294701E+02  0.19539727021E+02  0.51100000000E-03 0. -1.
        -12    1    3    3    0    0 -0.17192348707E+01 -0.26136962572E+02 -0.49028184084E+01  0.26648343464E+02  0.00000000000E+00 0.  1.
</event>
<event>
 7    1  0.1935465E-015  0.9000777E+02  0.7816164E-02  0.1186339E+00
        -11   -1    0    0    0    0  0.00000000000E+00  0.00000000000E+00  0.45593999997E+02  0.45594000000E+02  0.51100000000E-03 0. -1.
         11   -1    0    0    0    0 -0.00000000000E+00 -0.00000000000E+00 -0.45593999997E+02  0.45594000000E+02  0.51100000000E-03 0.  1.
    9900012    2    1    2    0    0  0.97323263257E+00  0.64510112006E+00 -0.17208958719E+00  0.90007766109E+02  0.90000027821E+02 0.  0.
         12    1    1    2    0    0 -0.97323263257E+00 -0.64510112006E+00  0.17208958719E+00  0.11802338913E+01  0.00000000000E+00 0. -1.
         11    1    3    3    0    0  0.23672777328E+02  0.20084820639E+02  0.90720691643E+01  0.32343513193E+02  0.51100000000E-03 0. -1.
        -11    1    3    3    0    0  0.10680556549E+02 -0.16453820932E+02 -0.13598979202E+02  0.23869117014E+02  0.51100000000E-03 0.  1.
         12    1    3    3    0    0 -0.33380101244E+02 -0.29858985875E+01  0.43548204502E+01  0.33795135901E+02  0.00000000000E+00 0. -1.
</event>
<event>
 7    1  0.1935465E-015  0.9000777E+02  0.7816164E-02  0.1186339E+00
        -11   -1    0    0    0    0  0.00000000000E+00  0.00000000000E+00  0.45593999997E+02  0.45594000000E+02  0.51100000000E-03 0.  1.
         11   -1    0    0    0    0 -0.00000000000E+00 -0.00000000000E+00 -0.45593999997E+02  0.45594000000E+02  0.51100000000E-03 0. -1.
    9900012    2    1    2    0    0  0.80527744443E+00 -0.85827185941E+00 -0.88489105861E-01  0.90007774314E+02  0.90000036135E+02 0.  0.
         12    1    1    2    0    0 -0.80527744443E+00  0.85827185941E+00  0.88489105861E-01  0.11802256856E+01  0.00000000000E+00 0. -1.
         11    1    3    3    0    0  0.23324135052E+01  0.53815175546E+01  0.81931106062E+01  0.10076107662E+02  0.51100000000E-03 0. -1.
        -11    1    3    3    0    0 -0.18114465635E+02  0.30634000352E+02 -0.15572250955E+02  0.38846761034E+02  0.51100000000E-03 0.  1.
         12    1    3    3    0    0  0.16587329575E+02 -0.36873789766E+02  0.72906512424E+01  0.41084905618E+02  0.00000000000E+00 0. -1.
</event>
<event>
 7    1  0.1935465E-015  0.9000775E+02  0.7816164E-02  0.1186339E+00
        -11   -1    0    0    0    0  0.00000000000E+00  0.00000000000E+00  0.45593999997E+02  0.45594000000E+02  0.51100000000E-03 0.  1.
         11   -1    0    0    0    0 -0.00000000000E+00 -0.00000000000E+00 -0.45593999997E+02  0.45594000000E+02  0.51100000000E-03 0. -1.
    9900012    2    1    2    0    0  0.38953908160E+00 -0.98524144297E+00  0.52013564925E+00  0.90007753208E+02  0.90000014750E+02 0.  0.
         12    1    1    2    0    0 -0.38953908160E+00  0.98524144297E+00 -0.52013564925E+00  0.11802467923E+01  0.00000000000E+00 0. -1.
         11    1    3    3    0    0  0.12396101188E+02 -0.62070888369E+01 -0.12865909416E+02  0.18913563965E+02  0.51100000000E-03 0. -1.
        -11    1    3    3    0    0  0.16832265734E+02  0.25352135271E+02 -0.58787948931E+01  0.30993808449E+02  0.51100000000E-03 0.  1.
        -12    1    3    3    0    0 -0.28838827840E+02 -0.20130287877E+02  0.19264839958E+02  0.40100380794E+02  0.00000000000E+00 0.  1.
</event>
<event>
 7    1  0.1935465E-015  0.9000768E+02  0.7816164E-02  0.1186339E+00
        -11   -1    0    0    0    0  0.00000000000E+00  0.00000000000E+00  0.45593999997E+02  0.45594000000E+02  0.51100000000E-03 0. -1.
         11   -1    0    0    0    0 -0.00000000000E+00 -0.00000000000E+00 -0.45593999997E+02  0.45594000000E+02  0.51100000000E-03 0.  1.
    9900012    2    1    2    0    0  0.67999994494E+00  0.46933792440E+00 -0.84289724911E+00  0.90007680643E+02  0.89999941227E+02 0.  0.
         12    1    1    2    0    0 -0.67999994494E+00 -0.46933792440E+00  0.84289724911E+00  0.11803193572E+01  0.00000000000E+00 0. -1.
         11    1    3    3    0    0  0.40006526870E+01  0.28661160019E+02  0.18158305505E+02  0.34164182628E+02  0.51100000000E-03 0. -1.
        -11    1    3    3    0    0  0.34607437806E+01  0.10711678857E+02 -0.10615718727E+02  0.15472889059E+02  0.51100000000E-03 0.  1.
        -12    1    3    3    0    0 -0.67813965226E+01 -0.38903500952E+02 -0.83854840270E+01  0.40370608956E+02  0.00000000000E+00 0.  1.
</event>
<event>
 7    1  0.3041007E-015  0.9000779E+02  0.7816164E-02  0.1186339E+00
        -11   -1    0    0    0    0  0.00000000000E+00  0.00000000000E+00  0.45593999997E+02  0.45594000000E+02  0.51100000000E-03 0. -1.
         11   -1    0    0    0    0 -0.00000000000E+00 -0.00000000000E+00 -0.45593999997E+02  0.45594000000E+02  0.51100000000E-03 0.  1.
    9900012    2    1    2    0    0  0.72203076416E+00  0.62540449361E+00 -0.69313690890E+00  0.90007789011E+02  0.90000051026E+02 0.  0.
         12    1    1    2    0    0 -0.72203076416E+00 -0.62540449361E+00  0.69313690890E+00  0.11802109894E+01  0.00000000000E+00 0. -1.
         11    1    3    3    0    0 -0.60814242998E+00  0.38903079227E+01 -0.89833833996E+01  0.98084407790E+01  0.51100000000E-03 0. -1.
        -11    1    3    3    0    0  0.70082050545E+01 -0.18912640490E+02 -0.31309251720E+02  0.37243417565E+02  0.51100000000E-03 0.  1.
         12    1    3    3    0    0 -0.56780318604E+01  0.15647737061E+02  0.39599498210E+02  0.42955930667E+02  0.00000000000E+00 0. -1.
</event>
<event>
 7    1  0.1935465E-015  0.9000780E+02  0.7816164E-02  0.1186339E+00
        -11   -1    0    0    0    0  0.00000000000E+00  0.00000000000E+00  0.45593999997E+02  0.45594000000E+02  0.51100000000E-03 0. -1.
         11   -1    0    0    0    0 -0.00000000000E+00 -0.00000000000E+00 -0.45593999997E+02  0.45594000000E+02  0.51100000000E-03 0.  1.
    9900012    2    1    2    0    0  0.21257758535E+00  0.50078144638E+00 -0.10473269827E+01  0.90007802942E+02  0.90000065141E+02 0.  0.
         12    1    1    2    0    0 -0.21257758535E+00 -0.50078144638E+00  0.10473269827E+01  0.11801970579E+01  0.00000000000E+00 0. -1.
         11    1    3    3    0    0  0.34984496334E+01  0.37177715924E+02  0.91195929440E+01  0.38439415798E+02  0.51100000000E-03 0. -1.
        -11    1    3    3    0    0 -0.59400398060E+01  0.15582029960E+00  0.83573190431E+01  0.10254420252E+02  0.51100000000E-03 0.  1.
        -12    1    3    3    0    0  0.26541677579E+01 -0.36832754777E+02 -0.18524238970E+02  0.41313966892E+02  0.00000000000E+00 0.  1.
</event>
<event>
 7    1  0.1935465E-015  0.9000775E+02  0.7816164E-02  0.1186339E+00
        -11   -1    0    0    0    0  0.00000000000E+00  0.00000000000E+00  0.45593999997E+02  0.45594000000E+02  0.51100000000E-03 0.  1.
         11   -1    0    0    0    0 -0.00000000000E+00 -0.00000000000E+00 -0.45593999997E+02  0.45594000000E+02  0.51100000000E-03 0. -1.
    9900012    2    1    2    0    0  0.66059555982E+00 -0.10031554423E+00  0.97290892390E+00  0.90007745165E+02  0.90000006601E+02 0.  0.
         12    1    1    2    0    0 -0.66059555982E+00  0.10031554423E+00 -0.97290892390E+00  0.11802548353E+01  0.00000000000E+00 0. -1.
         11    1    3    3    0    0  0.20885409915E+02  0.15973332969E+01 -0.31670076315E+02  0.37970324663E+02  0.51100000000E-03 0. -1.
        -11    1    3    3    0    0 -0.26741742242E+00  0.65256987328E+01 -0.52821586953E+01  0.83998486161E+01  0.51100000000E-03 0.  1.
        -12    1    3    3    0    0 -0.19957396933E+02 -0.82233475739E+01  0.37925143934E+02  0.43637571886E+02  0.00000000000E+00 0.  1.
</event>
<event>
 7    1  0.1935465E-015  0.9000770E+02  0.7816164E-02  0.1186339E+00
        -11   -1    0    0    0    0  0.00000000000E+00  0.00000000000E+00  0.45593999997E+02  0.45594000000E+02  0.51100000000E-03 0. -1.
         11   -1    0    0    0    0 -0.00000000000E+00 -0.00000000000E+00 -0.45593999997E+02  0.45594000000E+02  0.51100000000E-03 0.  1.
    9900012    2    1    2    0    0  0.16631547258E+00 -0.11593983745E+01  0.14570879136E+00  0.90007704919E+02  0.89999965824E+02 0.  0.
         12    1    1    2    0    0 -0.16631547258E+00  0.11593983745E+01 -0.14570879136E+00  0.11802950814E+01  0.00000000000E+00 0. -1.
         11    1    3    3    0    0 -0.22993487375E+01 -0.12737233815E+01  0.53636547559E+01  0.59731204969E+01  0.51100000000E-03 0. -1.
        -11    1    3    3    0    0 -0.36295002119E+02 -0.12514307006E+02 -0.16422395168E+02  0.41756797314E+02  0.51100000000E-03 0.  1.
         12    1    3    3    0    0  0.38760666329E+02  0.12628632013E+02  0.11204449203E+02  0.42277787108E+02  0.00000000000E+00 0. -1.
</event>
<event>
 7    1  0.1935465E-015  0.9000773E+02  0.7816164E-02  0.1186339E+00
        -11   -1    0    0    0    0  0.00000000000E+00  0.00000000000E+00  0.45593999997E+02  0.45594000000E+02  0.51100000000E-03 0. -1.
         11   -1    0    0    0    0 -0.00000000000E+00 -0.00000000000E+00 -0.45593999997E+02  0.45594000000E+02  0.51100000000E-03 0.  1.
    9900012    2    1    2    0    0  0.63324276179E+00 -0.32546624245E-01  0.99547759405E+00  0.90007732523E+02  0.89999993792E+02 0.  0.
         12    1    1    2    0    0 -0.63324276179E+00  0.32546624245E-01 -0.99547759405E+00  0.11802674775E+01  0.00000000000E+00 0. -1.
         11    1    3    3    0    0 -0.23956198072E+02  0.14035548116E+02 -0.10526236691E+02  0.29693394823E+02  0.51100000000E-03 0. -1.
        -11    1    3    3    0    0  0.22150587041E+02  0.64969127261E+01 -0.14345808190E+02  0.27178311098E+02  0.51100000000E-03 0.  1.
         12    1    3    3    0    0  0.24388537929E+01 -0.20565007466E+02  0.25867522476E+02  0.33136026601E+02  0.00000000000E+00 0. -1.
</event>
<event>
 7    1  0.1935465E-015  0.9000779E+02  0.7816164E-02  0.1186339E+00
        -11   -1    0    0    0    0  0.00000000000E+00  0.00000000000E+00  0.45593999997E+02  0.45594000000E+02  0.51100000000E-03 0.  1.
         11   -1    0    0    0    0 -0.00000000000E+00 -0.00000000000E+00 -0.45593999997E+02  0.45594000000E+02  0.51100000000E-03 0. -1.
    9900012    2    1    2    0    0 -0.41170493531E+00  0.11035299193E+01  0.74927878258E-01  0.90007790941E+02  0.90000052981E+02 0.  0.
         12    1    1    2    0    0  0.41170493531E+00 -0.11035299193E+01 -0.74927878258E-01  0.11802090592E+01  0.00000000000E+00 0. -1.
         11    1    3    3    0    0  0.81481710687E+01 -0.11507387816E+01 -0.13963756678E+01  0.83466614149E+01  0.51100000000E-03 0. -1.
        -11    1    3    3    0    0  0.34261577958E+02 -0.10693475401E+02  0.70533912018E+01  0.36578087266E+02  0.51100000000E-03 0.  1.
         12    1    3    3    0    0 -0.42821453963E+02  0.12947744102E+02 -0.55820876558E+01  0.45083042260E+02  0.00000000000E+00 0. -1.
</event>
<event>
 7    1  0.1935465E-015  0.9000769E+02  0.7816164E-02  0.1186339E+00
        -11   -1    0    0    0    0  0.00000000000E+00  0.00000000000E+00  0.45593999997E+02  0.45594000000E+02  0.51100000000E-03 0.  1.
         11   -1    0    0    0    0 -0.00000000000E+00 -0.00000000000E+00 -0.45593999997E+02  0.45594000000E+02  0.51100000000E-03 0. -1.
    9900012    2    1    2    0    0 -0.91508800018E+00 -0.73583100034E+00 -0.11958739910E+00  0.90007688831E+02  0.89999949524E+02 0.  0.
         12    1    1    2    0    0  0.91508800018E+00  0.73583100034E+00  0.11958739910E+00  0.11803111688E+01  0.00000000000E+00 0. -1.
         11    1    3    3    0    0  0.19509350784E+01 -0.18269937996E+01 -0.85656358008E+01  0.89729689043E+01  0.51100000000E-03 0. -1.
        -11    1    3    3    0    0  0.17344910621E+02  0.34684615844E+02  0.14427209260E+02  0.41376477231E+02  0.51100000000E-03 0.  1.
         12    1    3    3    0    0 -0.20210933700E+02 -0.33593453045E+02 -0.59811608584E+01  0.39658242696E+02  0.00000000000E+00 0. -1.
</event>
<event>
 7    1  0.1935465E-015  0.9000768E+02  0.7816164E-02  0.1186339E+00
        -11   -1    0    0    0    0  0.00000000000E+00  0.00000000000E+00  0.45593999997E+02  0.45594000000E+02  0.51100000000E-03 0. -1.
         11   -1    0    0    0    0 -0.00000000000E+00 -0.00000000000E+00 -0.45593999997E+02  0.45594000000E+02  0.51100000000E-03 0.  1.
    9900012    2    1    2    0    0  0.39944550679E+00  0.10355875577E+01 -0.40145192641E+00  0.90007677183E+02  0.89999937722E+02 0.  0.
         12    1    1    2    0    0 -0.39944550679E+00 -0.10355875577E+01  0.40145192641E+00  0.11803228167E+01  0.00000000000E+00 0. -1.
         11    1    3    3    0    0 -0.29694018002E+01  0.57526005398E+01  0.61097876404E+01  0.89016439658E+01  0.51100000000E-03 0. -1.
        -11    1    3    3    0    0  0.18425963713E+02 -0.38409028086E+02  0.38551192977E+01  0.42774192246E+02  0.51100000000E-03 0.  1.
         12    1    3    3    0    0 -0.15057116406E+02  0.33692015103E+02 -0.10366358865E+02  0.38331840972E+02  0.00000000000E+00 0. -1.
</event>
<event>
 7    1  0.1935465E-015  0.9000779E+02  0.7816164E-02  0.1186339E+00
        -11   -1    0    0    0    0  0.00000000000E+00  0.00000000000E+00  0.45593999997E+02  0.45594000000E+02  0.51100000000E-03 0.  1.
         11   -1    0    0    0    0 -0.00000000000E+00 -0.00000000000E+00 -0.45593999997E+02  0.45594000000E+02  0.51100000000E-03 0. -1.
    9900012    2    1    2    0    0 -0.45116186936E+00 -0.99017369078E+00  0.45706401087E+00  0.90007788798E+02  0.90000050811E+02 0.  0.
         12    1    1    2    0    0  0.45116186936E+00  0.99017369078E+00 -0.45706401087E+00  0.11802112016E+01  0.00000000000E+00 0. -1.
         11    1    3    3    0    0  0.11643011632E+02  0.22297020620E+02 -0.26474669975E+02  0.36518830744E+02  0.51100000000E-03 0. -1.
        -11    1    3    3    0    0 -0.31323435347E+01  0.97369318628E+01  0.48197175365E+00  0.10239712650E+02  0.51100000000E-03 0.  1.
        -12    1    3    3    0    0 -0.89618299667E+01 -0.33024126173E+02  0.26449762233E+02  0.43249245404E+02  0.00000000000E+00 0.  1.
</event>
<event>
 7    1  0.1935465E-015  0.9000776E+02  0.7816164E-02  0.1186339E+00
        -11   -1    0    0    0    0  0.00000000000E+00  0.00000000000E+00  0.45593999997E+02  0.45594000000E+02  0.51100000000E-03 0.  1.
         11   -1    0    0    0    0 -0.00000000000E+00 -0.00000000000E+00 -0.45593999997E+02  0.45594000000E+02  0.51100000000E-03 0. -1.
    9900012    2    1    2    0    0 -0.79877555919E-01  0.11661072884E+01  0.16365564372E+00  0.90007758583E+02  0.90000020197E+02 0.  0.
         12    1    1    2    0    0  0.79877555919E-01 -0.11661072884E+01 -0.16365564372E+00  0.11802414167E+01  0.00000000000E+00 0. -1.
         11    1    3    3    0    0 -0.25603948799E+01 -0.81328181643E+01 -0.44463750633E+00  0.85379187164E+01  0.51100000000E-03 0. -1.
        -11    1    3    3    0    0  0.25533726641E+02 -0.23769004522E+02  0.15924746325E+02  0.38347546439E+02  0.51100000000E-03 0.  1.
         12    1    3    3    0    0 -0.23053209317E+02  0.33067929974E+02 -0.15316453175E+02  0.43122293428E+02  0.00000000000E+00 0. -1.
</event>
<event>
 7    1  0.1935465E-015  0.9000778E+02  0.7816164E-02  0.1186339E+00
        -11   -1    0    0    0    0  0.00000000000E+00  0.00000000000E+00  0.45593999997E+02  0.45594000000E+02  0.51100000000E-03 0.  1.
         11   -1    0    0    0    0 -0.00000000000E+00 -0.00000000000E+00 -0.45593999997E+02  0.45594000000E+02  0.51100000000E-03 0. -1.
    9900012    2    1    2    0    0  0.10304336424E+01 -0.20809324157E+00  0.53649021001E+00  0.90007780514E+02  0.90000042417E+02 0.  0.
         12    1    1    2    0    0 -0.10304336424E+01  0.20809324157E+00 -0.53649021001E+00  0.11802194855E+01  0.00000000000E+00 0. -1.
         11    1    3    3    0    0  0.66014407015E+01  0.54819322928E+01 -0.43541230589E+01  0.96223172298E+01  0.51100000000E-03 0. -1.
        -11    1    3    3    0    0 -0.87754439437E+01 -0.30346500364E+02 -0.25871123041E+02  0.40831770821E+02  0.51100000000E-03 0.  1.
         12    1    3    3    0    0  0.32044368846E+01  0.24656474829E+02  0.30761736309E+02  0.39553692464E+02  0.00000000000E+00 0. -1.
</event>
<event>
 7    1  0.1935465E-015  0.9000792E+02  0.7816164E-02  0.1186339E+00
        -11   -1    0    0    0    0  0.00000000000E+00  0.00000000000E+00  0.45593999997E+02  0.45594000000E+02  0.51100000000E-03 0.  1.
         11   -1    0    0    0    0 -0.00000000000E+00 -0.00000000000E+00 -0.45593999997E+02  0.45594000000E+02  0.51100000000E-03 0. -1.
    9900012    2    1    2    0    0 -0.57989326650E+00 -0.10270199318E+01 -0.39153738010E-01  0.90007924089E+02  0.90000187887E+02 0.  0.
         12    1    1    2    0    0  0.57989326650E+00  0.10270199318E+01  0.39153738010E-01  0.11800759111E+01  0.00000000000E+00 0. -1.
         11    1    3    3    0    0  0.80163740506E+01 -0.53253694914E+01  0.35682919250E+01  0.10264235026E+02  0.51100000000E-03 0. -1.
        -11    1    3    3    0    0  0.26925557163E+02  0.23378920955E+02  0.10256696534E+02  0.37104708564E+02  0.51100000000E-03 0.  1.
         12    1    3    3    0    0 -0.35521824480E+02 -0.19080571395E+02 -0.13864142197E+02  0.42638980499E+02  0.00000000000E+00 0. -1.
</event>
<event>
 7    1  0.1935465E-015  0.9000781E+02  0.7816164E-02  0.1186339E+00
        -11   -1    0    0    0    0  0.00000000000E+00  0.00000000000E+00  0.45593999997E+02  0.45594000000E+02  0.51100000000E-03 0. -1.
         11   -1    0    0    0    0 -0.00000000000E+00 -0.00000000000E+00 -0.45593999997E+02  0.45594000000E+02  0.51100000000E-03 0.  1.
    9900012    2    1    2    0    0  0.12324199045E+00 -0.85355232225E+00  0.80567033462E+00  0.90007811522E+02  0.90000073834E+02 0.  0.
         12    1    1    2    0    0 -0.12324199045E+00  0.85355232225E+00 -0.80567033462E+00  0.11801884778E+01  0.00000000000E+00 0. -1.
         11    1    3    3    0    0  0.30742742511E+01  0.35968935068E+02 -0.36290037320E+00  0.36101899521E+02  0.51100000000E-03 0. -1.
        -11    1    3    3    0    0 -0.48133036185E-01  0.10995172314E+01 -0.13202582617E+02  0.13248375107E+02  0.51100000000E-03 0.  1.
        -12    1    3    3    0    0 -0.29028992245E+01 -0.37922004622E+02  0.14371153325E+02  0.40657536894E+02  0.00000000000E+00 0.  1.
</event>
<event>
 7    1  0.1935465E-015  0.9000771E+02  0.7816164E-02  0.1186339E+00
        -11   -1    0    0    0    0  0.00000000000E+00  0.00000000000E+00  0.45593999997E+02  0.45594000000E+02  0.51100000000E-03 0.  1.
         11   -1    0    0    0    0 -0.00000000000E+00 -0.00000000000E+00 -0.45593999997E+02  0.45594000000E+02  0.51100000000E-03 0. -1.
    9900012    2    1    2    0    0 -0.45480687996E+00 -0.34363359478E+00  0.10335187740E+01  0.90007705799E+02  0.89999966715E+02 0.  0.
         12    1    1    2    0    0  0.45480687996E+00  0.34363359478E+00 -0.10335187740E+01  0.11802942014E+01  0.00000000000E+00 0. -1.
         11    1    3    3    0    0  0.27722635480E+02  0.22783943434E+02  0.85981321132E+01  0.36899599896E+02  0.51100000000E-03 0. -1.
        -11    1    3    3    0    0  0.73287785667E+01 -0.10797400842E+02  0.42243671692E+01  0.13716418573E+02  0.51100000000E-03 0.  1.
        -12    1    3    3    0    0 -0.35506220926E+02 -0.12330176187E+02 -0.11788980508E+02  0.39391687330E+02  0.00000000000E+00 0.  1.
</event>
<event>
 7    1  0.1935465E-015  0.9000781E+02  0.7816164E-02  0.1186339E+00
        -11   -1    0    0    0    0  0.00000000000E+00  0.00000000000E+00  0.45593999997E+02  0.45594000000E+02  0.51100000000E-03 0.  1.
         11   -1    0    0    0    0 -0.00000000000E+00 -0.00000000000E+00 -0.45593999997E+02  0.45594000000E+02  0.51100000000E-03 0. -1.
    9900012    2    1    2    0    0 -0.46329099325E-01  0.11628400167E+01  0.19621403180E+00  0.90007812203E+02  0.90000074524E+02 0.  0.
         12    1    1    2    0    0  0.46329099325E-01 -0.11628400167E+01 -0.19621403180E+00  0.11801877970E+01  0.00000000000E+00 0. -1.
         11    1    3    3    0    0 -0.88843084201E+01  0.14344591630E+02 -0.31210984219E+02  0.35479906726E+02  0.51100000000E-03 0. -1.
        -11    1    3    3    0    0 -0.13251464553E+02 -0.23894948356E+00 -0.92607569114E+00  0.13285933392E+02  0.51100000000E-03 0.  1.
        -12    1    3    3    0    0  0.22089443874E+02 -0.12942802130E+02  0.32333273942E+02  0.41241972085E+02  0.00000000000E+00 0.  1.
</event>
<event>
 7    1  0.1935465E-015  0.9000777E+02  0.7816164E-02  0.1186339E+00
        -11   -1    0    0    0    0  0.00000000000E+00  0.00000000000E+00  0.45593999997E+02  0.45594000000E+02  0.51100000000E-03 0. -1.
         11   -1    0    0    0    0 -0.00000000000E+00 -0.00000000000E+00 -0.45593999997E+02  0.45594000000E+02  0.51100000000E-03 0.  1.
    9900012    2    1    2    0    0  0.27639653931E-01  0.71261938078E+00 -0.94039433012E+00  0.90007774670E+02  0.90000036496E+02 0.  0.
         12    1    1    2    0    0 -0.27639653931E-01 -0.71261938078E+00  0.94039433012E+00  0.11802253295E+01  0.00000000000E+00 0. -1.
         11    1    3    3    0    0  0.13595310314E+02  0.11838549897E+02 -0.11232963797E+02  0.21240602678E+02  0.51100000000E-03 0. -1.
        -11    1    3    3    0    0  0.92215024344E+01  0.23861135581E+02 -0.69740108033E+00  0.25590550344E+02  0.51100000000E-03 0.  1.
         12    1    3    3    0    0 -0.22789173095E+02 -0.34987066097E+02  0.10989970547E+02  0.43176621649E+02  0.00000000000E+00 0. -1.
</event>
<event>
 7    1  0.1935465E-015  0.9000767E+02  0.7816164E-02  0.1186339E+00
        -11   -1    0    0    0    0  0.00000000000E+00  0.00000000000E+00  0.45593999997E+02  0.45594000000E+02  0.51100000000E-03 0.  1.
         11   -1    0    0    0    0 -0.00000000000E+00 -0.00000000000E+00 -0.45593999997E+02  0.45594000000E+02  0.51100000000E-03 0. -1.
    9900012    2    1    2    0    0  0.34254277257E+00  0.96800164718E+00  0.58207539815E+00  0.90007671864E+02  0.89999932332E+02 0.  0.
         12    1    1    2    0    0 -0.34254277257E+00 -0.96800164718E+00 -0.58207539815E+00  0.11803281362E+01  0.00000000000E+00 0. -1.
         11    1    3    3    0    0  0.37391744961E+01 -0.67118027712E+01  0.61240088759E+01  0.98251314151E+01  0.51100000000E-03 0. -1.
        -11    1    3    3    0    0  0.10771593961E+02 -0.26515494132E+02  0.20257880500E+02  0.35063947127E+02  0.51100000000E-03 0.  1.
         12    1    3    3    0    0 -0.14168225685E+02  0.34195298550E+02 -0.25799813978E+02  0.45118593321E+02  0.00000000000E+00 0. -1.
</event>
<event>
 7    1  0.1935465E-015  0.9000774E+02  0.7816164E-02  0.1186339E+00
        -11   -1    0    0    0    0  0.00000000000E+00  0.00000000000E+00  0.45593999997E+02  0.45594000000E+02  0.51100000000E-03 0.  1.
         11   -1    0    0    0    0 -0.00000000000E+00 -0.00000000000E+00 -0.45593999997E+02  0.45594000000E+02  0.51100000000E-03 0. -1.
    9900012    2    1    2    0    0  0.44334705721E+00  0.94478309223E+00  0.55121584544E+00  0.90007741294E+02  0.90000002679E+02 0.  0.
         12    1    1    2    0    0 -0.44334705721E+00 -0.94478309223E+00 -0.55121584544E+00  0.11802587059E+01  0.00000000000E+00 0. -1.
         11    1    3    3    0    0 -0.19777586428E+02 -0.23073988644E+02 -0.23737227422E+02  0.38561870323E+02  0.51100000000E-03 0. -1.
        -11    1    3    3    0    0  0.51714171852E+01 -0.78881531356E+01  0.88626718648E+01  0.12942699426E+02  0.51100000000E-03 0.  1.
        -12    1    3    3    0    0  0.15049516300E+02  0.31906924872E+02  0.15425771403E+02  0.38503171545E+02  0.00000000000E+00 0.  1.
</event>
<event>
 7    1  0.1935465E-015  0.9000777E+02  0.7816164E-02  0.1186339E+00
        -11   -1    0    0    0    0  0.00000000000E+00  0.00000000000E+00  0.45593999997E+02  0.45594000000E+02  0.51100000000E-03 0. -1.
         11   -1    0    0    0    0 -0.00000000000E+00 -0.00000000000E+00 -0.45593999997E+02  0.45594000000E+02  0.51100000000E-03 0.  1.
    9900012    2    1    2    0    0  0.10098927159E+01 -0.48626834662E+00 -0.36959387063E+00  0.90007771280E+02  0.90000033061E+02 0.  0.
         12    1    1    2    0    0 -0.10098927159E+01  0.48626834662E+00  0.36959387063E+00  0.11802287201E+01  0.00000000000E+00 0. -1.
         11    1    3    3    0    0 -0.33852024868E+02  0.61193420328E+01  0.17082478368E+02  0.38408553761E+02  0.51100000000E-03 0. -1.
        -11    1    3    3    0    0  0.10764204492E+01  0.99586300554E+01 -0.79561370997E+01  0.12791915860E+02  0.51100000000E-03 0.  1.
        -12    1    3    3    0    0  0.33785497135E+02 -0.16564240435E+02 -0.94959351385E+01  0.38807301658E+02  0.00000000000E+00 0.  1.
</event>
<event>
 7    1  0.1935465E-015  0.9000768E+02  0.7816164E-02  0.1186339E+00
        -11   -1    0    0    0    0  0.00000000000E+00  0.00000000000E+00  0.45593999997E+02  0.45594000000E+02  0.51100000000E-03 0. -1.
         11   -1    0    0    0    0 -0.00000000000E+00 -0.00000000000E+00 -0.45593999997E+02  0.45594000000E+02  0.51100000000E-03 0.  1.
    9900012    2    1    2    0    0 -0.12701633346E+00 -0.67317823947E+00 -0.96117027210E+00  0.90007682084E+02  0.89999942687E+02 0.  0.
         12    1    1    2    0    0  0.12701633346E+00  0.67317823947E+00  0.96117027210E+00  0.11803179161E+01  0.00000000000E+00 0. -1.
         11    1    3    3    0    0 -0.84345002480E+01  0.34634661033E+02  0.20394362893E+01  0.35705179456E+02  0.51100000000E-03 0. -1.
        -11    1    3    3    0    0 -0.38740798931E+01  0.80649512173E+01 -0.23340532761E+01  0.92466068432E+01  0.51100000000E-03 0.  1.
        -12    1    3    3    0    0  0.12181563808E+02 -0.43372790490E+02 -0.66655328535E+00  0.45055895785E+02  0.00000000000E+00 0.  1.
</event>
<event>
 7    1  0.1935465E-015  0.9000768E+02  0.7816164E-02  0.1186339E+00
        -11   -1    0    0    0    0  0.00000000000E+00  0.00000000000E+00  0.45593999997E+02  0.45594000000E+02  0.51100000000E-03 0. -1.
         11   -1    0    0    0    0 -0.00000000000E+00 -0.00000000000E+00 -0.45593999997E+02  0.45594000000E+02  0.51100000000E-03 0.  1.
    9900012    2    1    2    0    0  0.15202199739E+00  0.95963580336E+00 -0.67018368908E+00  0.90007678967E+02  0.89999939530E+02 0.  0.
         12    1    1    2    0    0 -0.15202199739E+00 -0.95963580336E+00  0.67018368908E+00  0.11803210326E+01  0.00000000000E+00 0. -1.
         11    1    3    3    0    0  0.82412088399E+01 -0.22780659758E+01 -0.10849979754E+01  0.86188356871E+01  0.51100000000E-03 0. -1.
        -11    1    3    3    0    0 -0.10768965448E+02 -0.26695504187E+02 -0.27907628540E+02  0.40093095310E+02  0.51100000000E-03 0.  1.
         12    1    3    3    0    0  0.26797786057E+01  0.29933205966E+02  0.28322442826E+02  0.41295747970E+02  0.00000000000E+00 0. -1.
</event>
<event>
 7    1  0.1935465E-015  0.9000772E+02  0.7816164E-02  0.1186339E+00
        -11   -1    0    0    0    0  0.00000000000E+00  0.00000000000E+00  0.45593999997E+02  0.45594000000E+02  0.51100000000E-03 0.  1.
         11   -1    0    0    0    0 -0.00000000000E+00 -0.00000000000E+00 -0.45593999997E+02  0.45594000000E+02  0.51100000000E-03 0. -1.
    9900012    2    1    2    0    0  0.20107209480E-01  0.10380453413E+01 -0.56135087604E+00  0.90007721543E+02  0.89999982667E+02 0.  0.
         12    1    1    2    0    0 -0.20107209480E-01 -0.10380453413E+01  0.56135087604E+00  0.11802784572E+01  0.00000000000E+00 0. -1.
         11    1    3    3    0    0  0.68491061612E+01 -0.25879715165E+01  0.61356184252E+01  0.95526784463E+01  0.51100000000E-03 0. -1.
        -11    1    3    3    0    0  0.30734938396E+02 -0.78723256256E+01  0.15524105447E+02  0.35321492029E+02  0.51100000000E-03 0.  1.
         12    1    3    3    0    0 -0.37563937348E+02  0.11498342483E+02 -0.22221074749E+02  0.45133551067E+02  0.00000000000E+00 0. -1.
</event>
<event>
 7    1  0.1935465E-015  0.9000774E+02  0.7816164E-02  0.1186339E+00
        -11   -1    0    0    0    0  0.00000000000E+00  0.00000000000E+00  0.45593999997E+02  0.45594000000E+02  0.51100000000E-03 0.  1.
         11   -1    0    0    0    0 -0.00000000000E+00 -0.00000000000E+00 -0.45593999997E+02  0.45594000000E+02  0.51100000000E-03 0. -1.
    9900012    2    1    2    0    0 -0.10521558187E+01  0.44797600907E+00  0.29204716586E+00  0.90007743283E+02  0.90000004694E+02 0.  0.
         12    1    1    2    0    0  0.10521558187E+01 -0.44797600907E+00 -0.29204716586E+00  0.11802567172E+01  0.00000000000E+00 0. -1.
         11    1    3    3    0    0  0.47292308378E+01 -0.41683057417E+01 -0.89116403748E+00  0.63666765802E+01  0.51100000000E-03 0. -1.
        -11    1    3    3    0    0  0.33539305911E+02 -0.17825100002E+02  0.44910229091E+01  0.38246418370E+02  0.51100000000E-03 0.  1.
         12    1    3    3    0    0 -0.39320692568E+02  0.22441381753E+02 -0.33078117057E+01  0.45394648333E+02  0.00000000000E+00 0. -1.
</event>
<event>
 7    1  0.1959730E-015  0.9000901E+02  0.7816164E-02  0.1186337E+00
        -11   -1    0    0    0    0  0.00000000000E+00  0.00000000000E+00  0.45593999997E+02  0.45594000000E+02  0.51100000000E-03 0.  1.
         11   -1    0    0    0    0 -0.00000000000E+00 -0.00000000000E+00 -0.45593999997E+02  0.45594000000E+02  0.51100000000E-03 0. -1.
    9900012    2    1    2    0    0  0.68770338084E+00  0.91056862642E+00  0.29655041693E+00  0.90009011742E+02  0.90001289887E+02 0.  0.
         12    1    1    2    0    0 -0.68770338084E+00 -0.91056862642E+00 -0.29655041693E+00  0.11789882583E+01  0.00000000000E+00 0. -1.
         11    1    3    3    0    0 -0.85208576445E+01  0.16101242207E+01  0.31634747880E+01  0.92306602147E+01  0.51100000000E-03 0. -1.
        -11    1    3    3    0    0 -0.27271846102E+02  0.17321946196E+02  0.15855135292E+02  0.35988730531E+02  0.51100000000E-03 0.  1.
         12    1    3    3    0    0  0.36480407127E+02 -0.18021501790E+02 -0.18722059663E+02  0.44789620996E+02  0.00000000000E+00 0. -1.
</event>
<event>
 7    1  0.1935465E-015  0.9000773E+02  0.7816164E-02  0.1186339E+00
        -11   -1    0    0    0    0  0.00000000000E+00  0.00000000000E+00  0.45593999997E+02  0.45594000000E+02  0.51100000000E-03 0.  1.
         11   -1    0    0    0    0 -0.00000000000E+00 -0.00000000000E+00 -0.45593999997E+02  0.45594000000E+02  0.51100000000E-03 0. -1.
    9900012    2    1    2    0    0 -0.42413215659E+00 -0.70624935459E-01  0.10991665108E+01  0.90007727580E+02  0.89999988784E+02 0.  0.
         12    1    1    2    0    0  0.42413215659E+00  0.70624935459E-01 -0.10991665108E+01  0.11802724203E+01  0.00000000000E+00 0. -1.
         11    1    3    3    0    0  0.70031128859E+01 -0.12386252993E+02 -0.14382132047E+01  0.14301444360E+02  0.51100000000E-03 0. -1.
        -11    1    3    3    0    0 -0.26951614105E+02  0.23967294374E+02  0.24890382413E+02  0.43821819216E+02  0.51100000000E-03 0.  1.
         12    1    3    3    0    0  0.19524369062E+02 -0.11651666317E+02 -0.22353002697E+02  0.31884464004E+02  0.00000000000E+00 0. -1.
</event>
<event>
 7    1  0.1935465E-015  0.9000776E+02  0.7816164E-02  0.1186339E+00
        -11   -1    0    0    0    0  0.00000000000E+00  0.00000000000E+00  0.45593999997E+02  0.45594000000E+02  0.51100000000E-03 0.  1.
         11   -1    0    0    0    0 -0.00000000000E+00 -0.00000000000E+00 -0.45593999997E+02  0.45594000000E+02  0.51100000000E-03 0. -1.
    9900012    2    1    2    0    0 -0.51704569417E+00  0.94093960554E+00  0.49016604217E+00  0.90007760050E+02  0.90000021682E+02 0.  0.
         12    1    1    2    0    0  0.51704569417E+00 -0.94093960554E+00 -0.49016604217E+00  0.11802399502E+01  0.00000000000E+00 0. -1.
         11    1    3    3    0    0  0.92901648455E+01  0.46440569635E+01 -0.78111752889E+00  0.10415592772E+02  0.51100000000E-03 0. -1.
        -11    1    3    3    0    0  0.23466341895E+02  0.25179090132E+02  0.71134466753E+01  0.35146221784E+02  0.51100000000E-03 0.  1.
         12    1    3    3    0    0 -0.33273552434E+02 -0.28882207490E+02 -0.58421631042E+01  0.44445945494E+02  0.00000000000E+00 0. -1.
</event>
<event>
 7    1  0.1935465E-015  0.9000772E+02  0.7816164E-02  0.1186339E+00
        -11   -1    0    0    0    0  0.00000000000E+00  0.00000000000E+00  0.45593999997E+02  0.45594000000E+02  0.51100000000E-03 0. -1.
         11   -1    0    0    0    0 -0.00000000000E+00 -0.00000000000E+00 -0.45593999997E+02  0.45594000000E+02  0.51100000000E-03 0.  1.
    9900012    2    1    2    0    0  0.83169376834E+00 -0.67250225214E+00 -0.49909292685E+00  0.90007717172E+02  0.89999978239E+02 0.  0.
         12    1    1    2    0    0 -0.83169376834E+00  0.67250225214E+00  0.49909292685E+00  0.11802828276E+01  0.00000000000E+00 0. -1.
         11    1    3    3    0    0  0.44166228909E+01 -0.82028752492E+01 -0.33014696253E+01  0.98839982832E+01  0.51100000000E-03 0. -1.
        -11    1    3    3    0    0  0.12448461215E+02  0.76697407156E+01 -0.35612305265E+02  0.38497082952E+02  0.51100000000E-03 0.  1.
         12    1    3    3    0    0 -0.16033390337E+02 -0.13936771845E+00  0.38414681964E+02  0.41626635937E+02  0.00000000000E+00 0. -1.
</event>
<event>
 7    1  0.1935465E-015  0.9000780E+02  0.7816164E-02  0.1186339E+00
        -11   -1    0    0    0    0  0.00000000000E+00  0.00000000000E+00  0.45593999997E+02  0.45594000000E+02  0.51100000000E-03 0. -1.
         11   -1    0    0    0    0 -0.00000000000E+00 -0.00000000000E+00 -0.45593999997E+02  0.45594000000E+02  0.51100000000E-03 0.  1.
    9900012    2    1    2    0    0  0.10268543597E+01 -0.16988579603E+00 -0.55639437767E+00  0.90007802659E+02  0.90000064854E+02 0.  0.
         12    1    1    2    0    0 -0.10268543597E+01  0.16988579603E+00  0.55639437767E+00  0.11801973408E+01  0.00000000000E+00 0. -1.
         11    1    3    3    0    0 -0.13192708752E+02  0.43342116030E+01  0.35068209264E+02  0.37717532470E+02  0.51100000000E-03 0. -1.
        -11    1    3    3    0    0  0.12016727646E+01 -0.68601975364E+01  0.56368051670E+01  0.89599051570E+01  0.51100000000E-03 0.  1.
        -12    1    3    3    0    0  0.13017890347E+02  0.23561001373E+01 -0.41261408808E+02  0.43330365032E+02  0.00000000000E+00 0.  1.
</event>
<event>
 7    1  0.1935465E-015  0.9000775E+02  0.7816164E-02  0.1186339E+00
        -11   -1    0    0    0    0  0.00000000000E+00  0.00000000000E+00  0.45593999997E+02  0.45594000000E+02  0.51100000000E-03 0.  1.
         11   -1    0    0    0    0 -0.00000000000E+00 -0.00000000000E+00 -0.45593999997E+02  0.45594000000E+02  0.51100000000E-03 0. -1.
    9900012    2    1    2    0    0  0.72583029291E+00  0.30049668516E-01  0.93018809496E+00  0.90007753209E+02  0.90000014751E+02 0.  0.
         12    1    1    2    0    0 -0.72583029291E+00 -0.30049668516E-01 -0.93018809496E+00  0.11802467914E+01  0.00000000000E+00 0. -1.
         11    1    3    3    0    0  0.12923251915E+02  0.28523237311E+02 -0.24833265759E+02  0.39965942943E+02  0.51100000000E-03 0. -1.
        -11    1    3    3    0    0  0.21434677497E+01 -0.95183914144E+01 -0.51538497788E+01  0.11034328113E+02  0.51100000000E-03 0.  1.
        -12    1    3    3    0    0 -0.14340889372E+02 -0.18974796228E+02  0.30917303633E+02  0.39007482152E+02  0.00000000000E+00 0.  1.
</event>
<event>
 7    1  0.1935465E-015  0.9000767E+02  0.7816164E-02  0.1186339E+00
        -11   -1    0    0    0    0  0.00000000000E+00  0.00000000000E+00  0.45593999997E+02  0.45594000000E+02  0.51100000000E-03 0. -1.
         11   -1    0    0    0    0 -0.00000000000E+00 -0.00000000000E+00 -0.45593999997E+02  0.45594000000E+02  0.51100000000E-03 0.  1.
    9900012    2    1    2    0    0 -0.43711626833E-01 -0.11516486026E+01  0.25489246407E+00  0.90007671496E+02  0.89999931959E+02 0.  0.
         12    1    1    2    0    0  0.43711626833E-01  0.11516486026E+01 -0.25489246407E+00  0.11803285044E+01  0.00000000000E+00 0. -1.
         11    1    3    3    0    0 -0.18486198940E+02 -0.73324653491E+01 -0.11008415650E+02  0.22730812012E+02  0.51100000000E-03 0. -1.
        -11    1    3    3    0    0 -0.17732160967E+02 -0.12228857122E+02 -0.71639225085E+01  0.22700137996E+02  0.51100000000E-03 0.  1.
         12    1    3    3    0    0  0.36174648280E+02  0.18409673869E+02  0.18427230623E+02  0.44576721487E+02  0.00000000000E+00 0. -1.
</event>
<event>
 7    1  0.1935465E-015  0.9000773E+02  0.7816164E-02  0.1186339E+00
        -11   -1    0    0    0    0  0.00000000000E+00  0.00000000000E+00  0.45593999997E+02  0.45594000000E+02  0.51100000000E-03 0.  1.
         11   -1    0    0    0    0 -0.00000000000E+00 -0.00000000000E+00 -0.45593999997E+02  0.45594000000E+02  0.51100000000E-03 0. -1.
    9900012    2    1    2    0    0 -0.23193750916E+00 -0.10863916644E+01  0.39874343844E+00  0.90007729613E+02  0.89999990844E+02 0.  0.
         12    1    1    2    0    0  0.23193750916E+00  0.10863916644E+01 -0.39874343844E+00  0.11802703869E+01  0.00000000000E+00 0. -1.
         11    1    3    3    0    0  0.13128177688E+01  0.78348779702E+01  0.66452764575E+01  0.10357050872E+02  0.51100000000E-03 0. -1.
        -11    1    3    3    0    0  0.38560343641E+02 -0.22929622500E+01 -0.78645438067E+00  0.38636463196E+02  0.51100000000E-03 0.  1.
         12    1    3    3    0    0 -0.40105098918E+02 -0.66283073846E+01 -0.54600786384E+01  0.41014215545E+02  0.00000000000E+00 0. -1.
</event>
<event>
 7    1  0.1935465E-015  0.9000776E+02  0.7816164E-02  0.1186339E+00
        -11   -1    0    0    0    0  0.00000000000E+00  0.00000000000E+00  0.45593999997E+02  0.45594000000E+02  0.51100000000E-03 0. -1.
         11   -1    0    0    0    0 -0.00000000000E+00 -0.00000000000E+00 -0.45593999997E+02  0.45594000000E+02  0.51100000000E-03 0.  1.
    9900012    2    1    2    0    0 -0.33034888527E+00  0.68183042656E-01 -0.11310129944E+01  0.90007758623E+02  0.90000020237E+02 0.  0.
         12    1    1    2    0    0  0.33034888527E+00 -0.68183042656E-01  0.11310129944E+01  0.11802413765E+01  0.00000000000E+00 0. -1.
         11    1    3    3    0    0  0.34954238335E+01  0.36159820148E+01 -0.11002911583E+02  0.12097825312E+02  0.51100000000E-03 0. -1.
        -11    1    3    3    0    0  0.30824813902E+02 -0.10139475603E+02 -0.13977194863E+02  0.35331856647E+02  0.51100000000E-03 0.  1.
         12    1    3    3    0    0 -0.34650586621E+02  0.65916766312E+01  0.23849093452E+02  0.42578076665E+02  0.00000000000E+00 0. -1.
</event>
<event>
 7    1  0.1935465E-015  0.9000781E+02  0.7816164E-02  0.1186339E+00
        -11   -1    0    0    0    0  0.00000000000E+00  0.00000000000E+00  0.45593999997E+02  0.45594000000E+02  0.51100000000E-03 0.  1.
         11   -1    0    0    0    0 -0.00000000000E+00 -0.00000000000E+00 -0.45593999997E+02  0.45594000000E+02  0.51100000000E-03 0. -1.
    9900012    2    1    2    0    0  0.58589713291E+00 -0.99920696159E+00  0.22617153856E+00  0.90007812063E+02  0.90000074382E+02 0.  0.
         12    1    1    2    0    0 -0.58589713291E+00  0.99920696159E+00 -0.22617153856E+00  0.11801879373E+01  0.00000000000E+00 0. -1.
         11    1    3    3    0    0  0.37873061181E+01 -0.66381459633E+01 -0.64195127715E+01  0.99809224998E+01  0.51100000000E-03 0. -1.
        -11    1    3    3    0    0  0.25099262576E+02  0.84039814387E+01 -0.25745818189E+02  0.36924883755E+02  0.51100000000E-03 0.  1.
         12    1    3    3    0    0 -0.28300671561E+02 -0.27650424370E+01  0.32391502499E+02  0.43102005807E+02  0.00000000000E+00 0. -1.
</event>
<event>
 7    1  0.1935465E-015  0.9000771E+02  0.7816164E-02  0.1186339E+00
        -11   -1    0    0    0    0  0.00000000000E+00  0.00000000000E+00  0.45593999997E+02  0.45594000000E+02  0.51100000000E-03 0.  1.
         11   -1    0    0    0    0 -0.00000000000E+00 -0.00000000000E+00 -0.45593999997E+02  0.45594000000E+02  0.51100000000E-03 0. -1.
    9900012    2    1    2    0    0  0.11001387453E+01  0.42191296895E+00 -0.69053512839E-01  0.90007710120E+02  0.89999971094E+02 0.  0.
         12    1    1    2    0    0 -0.11001387453E+01 -0.42191296895E+00  0.69053512839E-01  0.11802898796E+01  0.00000000000E+00 0. -1.
         11    1    3    3    0    0 -0.59894967479E+01 -0.46809066257E+01  0.17965402745E+01  0.78110508480E+01  0.51100000000E-03 0. -1.
        -11    1    3    3    0    0 -0.32048299140E+02  0.20751011835E+02  0.77620588141E+01  0.38960846080E+02  0.51100000000E-03 0.  1.
         12    1    3    3    0    0  0.39137934634E+02 -0.15648192241E+02 -0.96276526014E+01  0.43235813192E+02  0.00000000000E+00 0. -1.
</event>
<event>
 7    1  0.1935465E-015  0.9000723E+02  0.7816164E-02  0.1186340E+00
        -11   -1    0    0    0    0  0.00000000000E+00  0.00000000000E+00  0.45593999997E+02  0.45594000000E+02  0.51100000000E-03 0. -1.
         11   -1    0    0    0    0 -0.00000000000E+00 -0.00000000000E+00 -0.45593999997E+02  0.45594000000E+02  0.51100000000E-03 0.  1.
    9900012    2    1    2    0    0 -0.10986813908E+01  0.83692176314E-02  0.43247572277E+00  0.90007234954E+02  0.89999489654E+02 0.  0.
         12    1    1    2    0    0  0.10986813908E+01 -0.83692176314E-02 -0.43247572277E+00  0.11807650457E+01  0.00000000000E+00 0. -1.
         11    1    3    3    0    0  0.20656765771E+01 -0.94591413654E+01 -0.15335784190E+02  0.18136390272E+02  0.51100000000E-03 0.  1.
        -11    1    3    3    0    0  0.88540869870E+01 -0.13456413887E+02 -0.21272244994E+02  0.26682922225E+02  0.51100000000E-03 0. -1.
         12    1    3    3    0    0 -0.12018444955E+02  0.22923924470E+02  0.37040504908E+02  0.45187922458E+02  0.00000000000E+00 0. -1.
</event>
<event>
 7    1  0.1935465E-015  0.9000772E+02  0.7816164E-02  0.1186339E+00
        -11   -1    0    0    0    0  0.00000000000E+00  0.00000000000E+00  0.45593999997E+02  0.45594000000E+02  0.51100000000E-03 0.  1.
         11   -1    0    0    0    0 -0.00000000000E+00 -0.00000000000E+00 -0.45593999997E+02  0.45594000000E+02  0.51100000000E-03 0. -1.
    9900012    2    1    2    0    0  0.97874077072E+00 -0.65748754844E+00 -0.53165498893E-01  0.90007724633E+02  0.89999985798E+02 0.  0.
         12    1    1    2    0    0 -0.97874077072E+00  0.65748754844E+00  0.53165498893E-01  0.11802753674E+01  0.00000000000E+00 0. -1.
         11    1    3    3    0    0 -0.53583295643E+01 -0.34440110949E+01  0.72730163686E+01  0.96679716332E+01  0.51100000000E-03 0. -1.
        -11    1    3    3    0    0 -0.23792020306E+02  0.36774392511E+01  0.25979754543E+02  0.35419365269E+02  0.51100000000E-03 0.  1.
         12    1    3    3    0    0  0.30129090642E+02 -0.89091570470E+00 -0.33305936410E+02  0.44920387730E+02  0.00000000000E+00 0. -1.
</event>
<event>
 7    1  0.1935465E-015  0.9000781E+02  0.7816164E-02  0.1186339E+00
        -11   -1    0    0    0    0  0.00000000000E+00  0.00000000000E+00  0.45593999997E+02  0.45594000000E+02  0.51100000000E-03 0. -1.
         11   -1    0    0    0    0 -0.00000000000E+00 -0.00000000000E+00 -0.45593999997E+02  0.45594000000E+02  0.51100000000E-03 0.  1.
    9900012    2    1    2    0    0  0.48809962808E-01  0.11446293382E+01 -0.28337231981E+00  0.90007805691E+02  0.90000067927E+02 0.  0.
         12    1    1    2    0    0 -0.48809962808E-01 -0.11446293382E+01  0.28337231981E+00  0.11801943085E+01  0.00000000000E+00 0. -1.
         11    1    3    3    0    0 -0.10558852083E+02  0.70486733627E+00  0.41033152004E+01  0.11350039258E+02  0.51100000000E-03 0. -1.
        -11    1    3    3    0    0 -0.90303349434E+01 -0.35514231972E+02 -0.80783245502E+01  0.37524218174E+02  0.51100000000E-03 0.  1.
         12    1    3    3    0    0  0.19637996989E+02  0.35953993974E+02  0.36916370299E+01  0.41133548259E+02  0.00000000000E+00 0. -1.
</event>
<event>
 7    1  0.1935465E-015  0.9000772E+02  0.7816164E-02  0.1186339E+00
        -11   -1    0    0    0    0  0.00000000000E+00  0.00000000000E+00  0.45593999997E+02  0.45594000000E+02  0.51100000000E-03 0.  1.
         11   -1    0    0    0    0 -0.00000000000E+00 -0.00000000000E+00 -0.45593999997E+02  0.45594000000E+02  0.51100000000E-03 0. -1.
    9900012    2    1    2    0    0  0.44377538155E+00  0.83426544263E+00  0.70719055149E+00  0.90007722959E+02  0.89999984102E+02 0.  0.
         12    1    1    2    0    0 -0.44377538155E+00 -0.83426544263E+00 -0.70719055149E+00  0.11802770413E+01  0.00000000000E+00 0. -1.
         11    1    3    3    0    0  0.31729132245E+01 -0.86800329613E+01  0.21400235071E+01  0.94863086294E+01  0.51100000000E-03 0. -1.
        -11    1    3    3    0    0 -0.18104720085E+02 -0.31455904887E+02  0.36024338853E+01  0.36472350785E+02  0.51100000000E-03 0.  1.
         12    1    3    3    0    0  0.15375582242E+02  0.40970203291E+02 -0.50352668409E+01  0.44049063544E+02  0.00000000000E+00 0. -1.
</event>
<event>
 7    1  0.1935465E-015  0.9000777E+02  0.7816164E-02  0.1186339E+00
        -11   -1    0    0    0    0  0.00000000000E+00  0.00000000000E+00  0.45593999997E+02  0.45594000000E+02  0.51100000000E-03 0.  1.
         11   -1    0    0    0    0 -0.00000000000E+00 -0.00000000000E+00 -0.45593999997E+02  0.45594000000E+02  0.51100000000E-03 0. -1.
    9900012    2    1    2    0    0  0.55961700874E+00 -0.73301757099E+00 -0.73652140003E+00  0.90007767087E+02  0.90000028813E+02 0.  0.
         12    1    1    2    0    0 -0.55961700874E+00  0.73301757099E+00  0.73652140003E+00  0.11802329128E+01  0.00000000000E+00 0. -1.
         11    1    3    3    0    0 -0.20286322877E+02 -0.15703881387E+02  0.26305820988E+02  0.36744292137E+02  0.51100000000E-03 0. -1.
        -11    1    3    3    0    0 -0.86937466874E+01  0.22991460879E+01  0.27842986181E+01  0.94137996184E+01  0.51100000000E-03 0.  1.
        -12    1    3    3    0    0  0.29539686573E+02  0.12671717728E+02 -0.29826641006E+02  0.43849675332E+02  0.00000000000E+00 0.  1.
</event>
<event>
 7    1  0.1935465E-015  0.9000790E+02  0.7816164E-02  0.1186339E+00
        -11   -1    0    0    0    0  0.00000000000E+00  0.00000000000E+00  0.45593999997E+02  0.45594000000E+02  0.51100000000E-03 0.  1.
         11   -1    0    0    0    0 -0.00000000000E+00 -0.00000000000E+00 -0.45593999997E+02  0.45594000000E+02  0.51100000000E-03 0. -1.
    9900012    2    1    2    0    0 -0.56992944030E+00 -0.99917509062E+00  0.26355142334E+00  0.90007902639E+02  0.90000166154E+02 0.  0.
         12    1    1    2    0    0  0.56992944030E+00  0.99917509062E+00 -0.26355142334E+00  0.11800973610E+01  0.00000000000E+00 0. -1.
         11    1    3    3    0    0 -0.35674975878E+02  0.20337043637E+02 -0.83732373131E-01  0.41064659492E+02  0.51100000000E-03 0. -1.
        -11    1    3    3    0    0  0.63433322015E+01  0.62840126431E+01  0.14806631072E+01  0.90509138663E+01  0.51100000000E-03 0.  1.
        -12    1    3    3    0    0  0.28761714236E+02 -0.27620231371E+02 -0.11333793107E+01  0.39892329281E+02  0.00000000000E+00 0.  1.
</event>
<event>
 7    1  0.1935465E-015  0.9000777E+02  0.7816164E-02  0.1186339E+00
        -11   -1    0    0    0    0  0.00000000000E+00  0.00000000000E+00  0.45593999997E+02  0.45594000000E+02  0.51100000000E-03 0. -1.
         11   -1    0    0    0    0 -0.00000000000E+00 -0.00000000000E+00 -0.45593999997E+02  0.45594000000E+02  0.51100000000E-03 0.  1.
    9900012    2    1    2    0    0  0.10624967757E+01 -0.51278555611E+00  0.33129359555E-01  0.90007768675E+02  0.90000030422E+02 0.  0.
         12    1    1    2    0    0 -0.10624967757E+01  0.51278555611E+00 -0.33129359555E-01  0.11802313245E+01  0.00000000000E+00 0. -1.
         11    1    3    3    0    0  0.20325002739E+02 -0.35480049741E+01  0.29913942395E+02  0.36339207828E+02  0.51100000000E-03 0. -1.
        -11    1    3    3    0    0  0.76659890915E+01 -0.26256318488E+01  0.47838459828E+01  0.94099157278E+01  0.51100000000E-03 0.  1.
        -12    1    3    3    0    0 -0.26928495055E+02  0.56608512668E+01 -0.34664659019E+02  0.44258645120E+02  0.00000000000E+00 0.  1.
</event>
<event>
 7    1  0.1935465E-015  0.9000778E+02  0.7816164E-02  0.1186339E+00
        -11   -1    0    0    0    0  0.00000000000E+00  0.00000000000E+00  0.45593999997E+02  0.45594000000E+02  0.51100000000E-03 0. -1.
         11   -1    0    0    0    0 -0.00000000000E+00 -0.00000000000E+00 -0.45593999997E+02  0.45594000000E+02  0.51100000000E-03 0.  1.
    9900012    2    1    2    0    0 -0.53599847026E+00 -0.46000888553E-01 -0.10504775349E+01  0.90007782438E+02  0.90000044366E+02 0.  0.
         12    1    1    2    0    0  0.53599847026E+00  0.46000888553E-01  0.10504775349E+01  0.11802175618E+01  0.00000000000E+00 0. -1.
         11    1    3    3    0    0  0.20877440437E+02  0.20616692191E+02  0.24915995781E+02  0.38493146950E+02  0.51100000000E-03 0. -1.
        -11    1    3    3    0    0  0.96710839067E+00  0.79824698800E+01 -0.34141300696E+01  0.87356401263E+01  0.51100000000E-03 0.  1.
        -12    1    3    3    0    0 -0.22380547298E+02 -0.28645162959E+02 -0.22552343246E+02  0.42778995362E+02  0.00000000000E+00 0.  1.
</event>
<event>
 7    1  0.1935465E-015  0.9000775E+02  0.7816164E-02  0.1186339E+00
        -11   -1    0    0    0    0  0.00000000000E+00  0.00000000000E+00  0.45593999997E+02  0.45594000000E+02  0.51100000000E-03 0.  1.
         11   -1    0    0    0    0 -0.00000000000E+00 -0.00000000000E+00 -0.45593999997E+02  0.45594000000E+02  0.51100000000E-03 0. -1.
    9900012    2    1    2    0    0 -0.62542163862E+00  0.45016428074E+00  0.89397453242E+00  0.90007749785E+02  0.90000011282E+02 0.  0.
         12    1    1    2    0    0  0.62542163862E+00 -0.45016428074E+00 -0.89397453242E+00  0.11802502151E+01  0.00000000000E+00 0. -1.
         11    1    3    3    0    0 -0.90085364809E+01  0.10472927650E+02  0.15170161641E+01  0.13897383977E+02  0.51100000000E-03 0. -1.
        -11    1    3    3    0    0  0.11353992162E+02  0.15211427678E+02  0.30505294576E+02  0.35928730390E+02  0.51100000000E-03 0.  1.
         12    1    3    3    0    0 -0.29708773195E+01 -0.25234191047E+02 -0.31128336208E+02  0.40181635418E+02  0.00000000000E+00 0. -1.
</event>
<event>
 7    1  0.1935465E-015  0.9000835E+02  0.7816164E-02  0.1186338E+00
        -11   -1    0    0    0    0  0.00000000000E+00  0.00000000000E+00  0.45593999997E+02  0.45594000000E+02  0.51100000000E-03 0.  1.
         11   -1    0    0    0    0 -0.00000000000E+00 -0.00000000000E+00 -0.45593999997E+02  0.45594000000E+02  0.51100000000E-03 0. -1.
    9900012    2    1    2    0    0  0.34453913785E+00  0.10793785693E+01 -0.32833686418E+00  0.90008351574E+02  0.90000621012E+02 0.  0.
         12    1    1    2    0    0 -0.34453913785E+00 -0.10793785693E+01  0.32833686418E+00  0.11796484263E+01  0.00000000000E+00 0. -1.
         11    1    3    3    0    0  0.49600705430E+01 -0.67844340814E+01  0.34215985365E+01  0.90740389245E+01  0.51100000000E-03 0. -1.
        -11    1    3    3    0    0 -0.32400577058E+02 -0.10486202056E+02  0.20493548345E+02  0.39745985348E+02  0.51100000000E-03 0.  1.
         12    1    3    3    0    0  0.27785045653E+02  0.18350014707E+02 -0.24243483746E+02  0.41188327301E+02  0.00000000000E+00 0. -1.
</event>
<event>
 7    1  0.1935465E-015  0.9000772E+02  0.7816164E-02  0.1186339E+00
        -11   -1    0    0    0    0  0.00000000000E+00  0.00000000000E+00  0.45593999997E+02  0.45594000000E+02  0.51100000000E-03 0. -1.
         11   -1    0    0    0    0 -0.00000000000E+00 -0.00000000000E+00 -0.45593999997E+02  0.45594000000E+02  0.51100000000E-03 0.  1.
    9900012    2    1    2    0    0 -0.46259602636E+00 -0.90821546848E+00 -0.59516261790E+00  0.90007716575E+02  0.89999977634E+02 0.  0.
         12    1    1    2    0    0  0.46259602636E+00  0.90821546848E+00  0.59516261790E+00  0.11802834247E+01  0.00000000000E+00 0. -1.
         11    1    3    3    0    0 -0.39765192616E+01 -0.65577707077E+01  0.57978821944E+01  0.96141822478E+01  0.51100000000E-03 0. -1.
        -11    1    3    3    0    0  0.29634604364E+02 -0.13363118364E+02 -0.26842489880E+02  0.42158059389E+02  0.51100000000E-03 0.  1.
         12    1    3    3    0    0 -0.26120681129E+02  0.19012673603E+02  0.20449445068E+02  0.38235474938E+02  0.00000000000E+00 0. -1.
</event>
<event>
 7    1  0.1935465E-015  0.9000731E+02  0.7816164E-02  0.1186340E+00
        -11   -1    0    0    0    0  0.00000000000E+00  0.00000000000E+00  0.45593999997E+02  0.45594000000E+02  0.51100000000E-03 0.  1.
         11   -1    0    0    0    0 -0.00000000000E+00 -0.00000000000E+00 -0.45593999997E+02  0.45594000000E+02  0.51100000000E-03 0. -1.
    9900012    2    1    2    0    0  0.10528457565E+01  0.23294309473E+00  0.48091280401E+00  0.90007312151E+02  0.89999567870E+02 0.  0.
         12    1    1    2    0    0 -0.10528457565E+01 -0.23294309473E+00 -0.48091280401E+00  0.11806878493E+01  0.00000000000E+00 0. -1.
         11    1    3    3    0    0  0.24312605069E+01  0.12065107750E+02 -0.37545315692E+02  0.39511119743E+02  0.51100000000E-03 0. -1.
        -11    1    3    3    0    0  0.11746611724E+02  0.83583634140E-01  0.45143429350E+01  0.12584481142E+02  0.51100000000E-03 0.  1.
        -12    1    3    3    0    0 -0.13125026474E+02 -0.11915748290E+02  0.33511885561E+02  0.37911711266E+02  0.00000000000E+00 0.  1.
</event>
<event>
 7    1  0.2171910E-015  0.9000772E+02  0.7816164E-02  0.1186339E+00
        -11   -1    0    0    0    0  0.00000000000E+00  0.00000000000E+00  0.45593999997E+02  0.45594000000E+02  0.51100000000E-03 0. -1.
         11   -1    0    0    0    0 -0.00000000000E+00 -0.00000000000E+00 -0.45593999997E+02  0.45594000000E+02  0.51100000000E-03 0.  1.
    9900012    2    1    2    0    0  0.11641921046E+01  0.10037588964E+00  0.16626740261E+00  0.90007718921E+02  0.89999980011E+02 0.  0.
         12    1    1    2    0    0 -0.11641921046E+01 -0.10037588964E+00 -0.16626740261E+00  0.11802810787E+01  0.00000000000E+00 0. -1.
         11    1    3    3    0    0  0.30411303001E+00 -0.22774727786E+01  0.96146987195E+01  0.98854336637E+01  0.51100000000E-03 0. -1.
        -11    1    3    3    0    0  0.30319122018E+02 -0.13754296728E+02  0.16990332172E+02  0.37377817299E+02  0.51100000000E-03 0.  1.
         12    1    3    3    0    0 -0.29459042944E+02  0.16132145397E+02 -0.26438763489E+02  0.42744467959E+02  0.00000000000E+00 0. -1.
</event>
<event>
 7    1  0.1935465E-015  0.9000742E+02  0.7816164E-02  0.1186340E+00
        -11   -1    0    0    0    0  0.00000000000E+00  0.00000000000E+00  0.45593999997E+02  0.45594000000E+02  0.51100000000E-03 0.  1.
         11   -1    0    0    0    0 -0.00000000000E+00 -0.00000000000E+00 -0.45593999997E+02  0.45594000000E+02  0.51100000000E-03 0. -1.
    9900012    2    1    2    0    0  0.81415235786E+00  0.52876254206E+00  0.67180983410E+00  0.90007422878E+02  0.89999680059E+02 0.  0.
         12    1    1    2    0    0 -0.81415235786E+00 -0.52876254206E+00 -0.67180983410E+00  0.11805771220E+01  0.00000000000E+00 0. -1.
         11    1    3    3    0    0 -0.96956716217E+01  0.15264867272E+02 -0.22933389186E+02  0.29205522780E+02  0.51100000000E-03 0. -1.
        -11    1    3    3    0    0 -0.15835019047E+01  0.27936892880E+01 -0.15739227066E+02  0.16063481783E+02  0.51100000000E-03 0.  1.
        -12    1    3    3    0    0  0.12093325884E+02 -0.17529794018E+02  0.39344426086E+02  0.44738418315E+02  0.00000000000E+00 0.  1.
</event>
<event>
 7    1  0.1935465E-015  0.9000828E+02  0.7816164E-02  0.1186338E+00
        -11   -1    0    0    0    0  0.00000000000E+00  0.00000000000E+00  0.45593999997E+02  0.45594000000E+02  0.51100000000E-03 0.  1.
         11   -1    0    0    0    0 -0.00000000000E+00 -0.00000000000E+00 -0.45593999997E+02  0.45594000000E+02  0.51100000000E-03 0. -1.
    9900012    2    1    2    0    0  0.11630820744E+01  0.61795023355E-01  0.18752158282E+00  0.90008278473E+02  0.90000546947E+02 0.  0.
         12    1    1    2    0    0 -0.11630820744E+01 -0.61795023355E-01 -0.18752158282E+00  0.11797215268E+01  0.00000000000E+00 0. -1.
         11    1    3    3    0    0 -0.60743392459E+01 -0.64774396968E+01 -0.12118088276E+01  0.89623268851E+01  0.51100000000E-03 0. -1.
        -11    1    3    3    0    0 -0.73529041492E+01  0.40829795851E+02  0.10270668007E+02  0.42739022570E+02  0.51100000000E-03 0.  1.
         12    1    3    3    0    0  0.14590325470E+02 -0.34290561131E+02 -0.88713375968E+01  0.38306929018E+02  0.00000000000E+00 0. -1.
</event>
<event>
 7    1  0.1935465E-015  0.9000775E+02  0.7816164E-02  0.1186339E+00
        -11   -1    0    0    0    0  0.00000000000E+00  0.00000000000E+00  0.45593999997E+02  0.45594000000E+02  0.51100000000E-03 0.  1.
         11   -1    0    0    0    0 -0.00000000000E+00 -0.00000000000E+00 -0.45593999997E+02  0.45594000000E+02  0.51100000000E-03 0. -1.
    9900012    2    1    2    0    0  0.61030139051E+00  0.62476185182E+00  0.79384721595E+00  0.90007750636E+02  0.90000012144E+02 0.  0.
         12    1    1    2    0    0 -0.61030139051E+00 -0.62476185182E+00 -0.79384721595E+00  0.11802493639E+01  0.00000000000E+00 0. -1.
         11    1    3    3    0    0  0.19695108723E+02  0.34359522048E+02 -0.96847714294E+01  0.40770931567E+02  0.51100000000E-03 0. -1.
        -11    1    3    3    0    0  0.71403258864E+01 -0.42766076167E+01  0.41207530882E+01  0.92873156911E+01  0.51100000000E-03 0.  1.
         12    1    3    3    0    0 -0.26225133218E+02 -0.29458152579E+02  0.63578655571E+01  0.39949503378E+02  0.00000000000E+00 0. -1.
</event>
<event>
 7    1  0.1935465E-015  0.9000814E+02  0.7816164E-02  0.1186338E+00
        -11   -1    0    0    0    0  0.00000000000E+00  0.00000000000E+00  0.45593999997E+02  0.45594000000E+02  0.51100000000E-03 0.  1.
         11   -1    0    0    0    0 -0.00000000000E+00 -0.00000000000E+00 -0.45593999997E+02  0.45594000000E+02  0.51100000000E-03 0. -1.
    9900012    2    1    2    0    0  0.10073373071E+01 -0.54289610216E+00  0.28742305510E+00  0.90008137025E+02  0.90000403632E+02 0.  0.
         12    1    1    2    0    0 -0.10073373071E+01  0.54289610216E+00 -0.28742305510E+00  0.11798629754E+01  0.00000000000E+00 0. -1.
         11    1    3    3    0    0 -0.18309769340E+02 -0.35151941411E+02  0.10777149284E+02  0.41073757866E+02  0.51100000000E-03 0. -1.
        -11    1    3    3    0    0  0.64258114484E+01  0.96159179345E+00  0.64176083857E+01  0.91324371994E+01  0.51100000000E-03 0.  1.
        -12    1    3    3    0    0  0.12891295199E+02  0.33647453516E+02 -0.16907334614E+02  0.39801941959E+02  0.00000000000E+00 0.  1.
</event>
<event>
 7    1  0.1935465E-015  0.9000734E+02  0.7816164E-02  0.1186340E+00
        -11   -1    0    0    0    0  0.00000000000E+00  0.00000000000E+00  0.45593999997E+02  0.45594000000E+02  0.51100000000E-03 0. -1.
         11   -1    0    0    0    0 -0.00000000000E+00 -0.00000000000E+00 -0.45593999997E+02  0.45594000000E+02  0.51100000000E-03 0.  1.
    9900012    2    1    2    0    0 -0.19523210990E+00 -0.11518434951E+01  0.17057930587E+00  0.90007340729E+02  0.89999596826E+02 0.  0.
         12    1    1    2    0    0  0.19523210990E+00  0.11518434951E+01 -0.17057930587E+00  0.11806592707E+01  0.00000000000E+00 0. -1.
         11    1    3    3    0    0 -0.10429579876E+02 -0.14833007399E+02 -0.13089577529E+02  0.22363615205E+02  0.51100000000E-03 0. -1.
        -11    1    3    3    0    0 -0.10601773585E+02 -0.21320075064E+02  0.12524006301E+02  0.26903418704E+02  0.51100000000E-03 0.  1.
        -12    1    3    3    0    0  0.20836121351E+02  0.35001238968E+02  0.73615053395E+00  0.40740306820E+02  0.00000000000E+00 0.  1.
</event>
<event>
 7    1  0.1935465E-015  0.9000774E+02  0.7816164E-02  0.1186339E+00
        -11   -1    0    0    0    0  0.00000000000E+00  0.00000000000E+00  0.45593999997E+02  0.45594000000E+02  0.51100000000E-03 0. -1.
         11   -1    0    0    0    0 -0.00000000000E+00 -0.00000000000E+00 -0.45593999997E+02  0.45594000000E+02  0.51100000000E-03 0.  1.
    9900012    2    1    2    0    0  0.42909167584E+00 -0.10850608836E+01  0.17756885604E+00  0.90007742619E+02  0.90000004021E+02 0.  0.
         12    1    1    2    0    0 -0.42909167584E+00  0.10850608836E+01 -0.17756885604E+00  0.11802573812E+01  0.00000000000E+00 0. -1.
         11    1    3    3    0    0 -0.12860455391E+02 -0.71114960546E+01  0.34193332775E+02  0.37217585837E+02  0.51100000000E-03 0. -1.
        -11    1    3    3    0    0  0.35180002853E+01  0.82504269543E+01  0.64849649143E+01  0.11068000774E+02  0.51100000000E-03 0.  1.
        -12    1    3    3    0    0  0.97715467814E+01 -0.22239917833E+01 -0.40500728833E+02  0.41722156008E+02  0.00000000000E+00 0.  1.
</event>
<event>
 7    1  0.1935465E-015  0.9000776E+02  0.7816164E-02  0.1186339E+00
        -11   -1    0    0    0    0  0.00000000000E+00  0.00000000000E+00  0.45593999997E+02  0.45594000000E+02  0.51100000000E-03 0.  1.
         11   -1    0    0    0    0 -0.00000000000E+00 -0.00000000000E+00 -0.45593999997E+02  0.45594000000E+02  0.51100000000E-03 0. -1.
    9900012    2    1    2    0    0  0.11410799449E+01 -0.88058392290E-01 -0.28836918743E+00  0.90007756589E+02  0.90000018176E+02 0.  0.
         12    1    1    2    0    0 -0.11410799449E+01  0.88058392290E-01  0.28836918743E+00  0.11802434111E+01  0.00000000000E+00 0. -1.
         11    1    3    3    0    0  0.17801677849E+02  0.27277643276E+02  0.16612003160E+02  0.36564028856E+02  0.51100000000E-03 0. -1.
        -11    1    3    3    0    0  0.15331258720E-01  0.66519432752E+01  0.61816557123E+01  0.90808288163E+01  0.51100000000E-03 0.  1.
        -12    1    3    3    0    0 -0.16675929162E+02 -0.34017644944E+02 -0.23082028059E+02  0.44362898917E+02  0.00000000000E+00 0.  1.
</event>
<event>
 7    1  0.1935465E-015  0.9000770E+02  0.7816164E-02  0.1186339E+00
        -11   -1    0    0    0    0  0.00000000000E+00  0.00000000000E+00  0.45593999997E+02  0.45594000000E+02  0.51100000000E-03 0.  1.
         11   -1    0    0    0    0 -0.00000000000E+00 -0.00000000000E+00 -0.45593999997E+02  0.45594000000E+02  0.51100000000E-03 0. -1.
    9900012    2    1    2    0    0  0.44972704929E+00  0.46844160683E+00  0.98561031348E+00  0.90007695104E+02  0.89999955879E+02 0.  0.
         12    1    1    2    0    0 -0.44972704929E+00 -0.46844160683E+00 -0.98561031348E+00  0.11803048962E+01  0.00000000000E+00 0. -1.
         11    1    3    3    0    0  0.18977692387E+02 -0.26519370521E+02 -0.23970286482E+02  0.40472267733E+02  0.51100000000E-03 0. -1.
        -11    1    3    3    0    0  0.63366071250E+01  0.14779451683E+01  0.72937744009E+01  0.97742548079E+01  0.51100000000E-03 0.  1.
        -12    1    3    3    0    0 -0.24864572462E+02  0.25509866960E+02  0.17662122395E+02  0.39761172563E+02  0.00000000000E+00 0.  1.
</event>
<event>
 7    1  0.1935465E-015  0.9000769E+02  0.7816164E-02  0.1186339E+00
        -11   -1    0    0    0    0  0.00000000000E+00  0.00000000000E+00  0.45593999997E+02  0.45594000000E+02  0.51100000000E-03 0. -1.
         11   -1    0    0    0    0 -0.00000000000E+00 -0.00000000000E+00 -0.45593999997E+02  0.45594000000E+02  0.51100000000E-03 0.  1.
    9900012    2    1    2    0    0 -0.75569871477E+00 -0.80496697672E+00  0.41722028133E+00  0.90007692775E+02  0.89999953520E+02 0.  0.
         12    1    1    2    0    0  0.75569871477E+00  0.80496697672E+00 -0.41722028133E+00  0.11803072245E+01  0.00000000000E+00 0. -1.
         11    1    3    3    0    0  0.27859474865E+01 -0.41258263726E+01 -0.63040528701E+01  0.80327473198E+01  0.51100000000E-03 0. -1.
        -11    1    3    3    0    0 -0.33106719822E+02 -0.17265657881E+02 -0.14623760703E+02  0.40100027641E+02  0.51100000000E-03 0.  1.
         12    1    3    3    0    0  0.29565073621E+02  0.20586517277E+02  0.21345033854E+02  0.41874917815E+02  0.00000000000E+00 0. -1.
</event>
<event>
 7    1  0.1935465E-015  0.9000778E+02  0.7816164E-02  0.1186339E+00
        -11   -1    0    0    0    0  0.00000000000E+00  0.00000000000E+00  0.45593999997E+02  0.45594000000E+02  0.51100000000E-03 0.  1.
         11   -1    0    0    0    0 -0.00000000000E+00 -0.00000000000E+00 -0.45593999997E+02  0.45594000000E+02  0.51100000000E-03 0. -1.
    9900012    2    1    2    0    0 -0.79576569513E+00 -0.48306798280E+00  0.72548034971E+00  0.90007779912E+02  0.90000041807E+02 0.  0.
         12    1    1    2    0    0  0.79576569513E+00  0.48306798280E+00 -0.72548034971E+00  0.11802200877E+01  0.00000000000E+00 0. -1.
         11    1    3    3    0    0 -0.70079184547E+01 -0.37474574408E+01  0.54096037232E+01  0.96134370046E+01  0.51100000000E-03 0. -1.
        -11    1    3    3    0    0 -0.13783421287E+02  0.37317458578E+02 -0.86335626082E+01  0.40707662923E+02  0.51100000000E-03 0.  1.
         12    1    3    3    0    0  0.19995574047E+02 -0.34053069120E+02  0.39494392348E+01  0.39686679985E+02  0.00000000000E+00 0. -1.
</event>
<event>
 7    1  0.1935465E-015  0.9000774E+02  0.7816164E-02  0.1186339E+00
        -11   -1    0    0    0    0  0.00000000000E+00  0.00000000000E+00  0.45593999997E+02  0.45594000000E+02  0.51100000000E-03 0.  1.
         11   -1    0    0    0    0 -0.00000000000E+00 -0.00000000000E+00 -0.45593999997E+02  0.45594000000E+02  0.51100000000E-03 0. -1.
    9900012    2    1    2    0    0  0.28729648296E+00 -0.38161035815E+00 -0.10792843632E+01  0.90007737118E+02  0.89999998448E+02 0.  0.
         12    1    1    2    0    0 -0.28729648296E+00  0.38161035815E+00  0.10792843632E+01  0.11802628823E+01  0.00000000000E+00 0. -1.
         11    1    3    3    0    0  0.16548151534E+01  0.20030156437E+02 -0.10785751157E+02  0.22809603424E+02  0.51100000000E-03 0. -1.
        -11    1    3    3    0    0 -0.30940746795E+02 -0.14843069205E+01  0.82509592793E+01  0.32056377034E+02  0.51100000000E-03 0.  1.
         12    1    3    3    0    0  0.29573228125E+02 -0.18927459874E+02  0.14555075145E+01  0.35141756660E+02  0.00000000000E+00 0. -1.
</event>
<event>
 7    1  0.1935465E-015  0.9000755E+02  0.7816164E-02  0.1186339E+00
        -11   -1    0    0    0    0  0.00000000000E+00  0.00000000000E+00  0.45593999997E+02  0.45594000000E+02  0.51100000000E-03 0.  1.
         11   -1    0    0    0    0 -0.00000000000E+00 -0.00000000000E+00 -0.45593999997E+02  0.45594000000E+02  0.51100000000E-03 0. -1.
    9900012    2    1    2    0    0 -0.10855727389E+01  0.41919292491E+00  0.19819727097E+00  0.90007545410E+02  0.89999804210E+02 0.  0.
         12    1    1    2    0    0  0.10855727389E+01 -0.41919292491E+00 -0.19819727097E+00  0.11804545895E+01  0.00000000000E+00 0. -1.
         11    1    3    3    0    0 -0.50769991879E+01 -0.73726118097E+01  0.20530962981E+01  0.91840367117E+01  0.51100000000E-03 0. -1.
        -11    1    3    3    0    0 -0.12888219609E+02  0.25980501202E+02  0.29144518984E+02  0.41115637347E+02  0.51100000000E-03 0.  1.
         12    1    3    3    0    0  0.16879646058E+02 -0.18188696467E+02 -0.30999418011E+02  0.39707871352E+02  0.00000000000E+00 0. -1.
</event>
<event>
 7    1  0.1935465E-015  0.9000776E+02  0.7816164E-02  0.1186339E+00
        -11   -1    0    0    0    0  0.00000000000E+00  0.00000000000E+00  0.45593999997E+02  0.45594000000E+02  0.51100000000E-03 0. -1.
         11   -1    0    0    0    0 -0.00000000000E+00 -0.00000000000E+00 -0.45593999997E+02  0.45594000000E+02  0.51100000000E-03 0.  1.
    9900012    2    1    2    0    0  0.42645701611E+00  0.97381900128E+00  0.51260715153E+00  0.90007764801E+02  0.90000026496E+02 0.  0.
         12    1    1    2    0    0 -0.42645701611E+00 -0.97381900128E+00 -0.51260715153E+00  0.11802351993E+01  0.00000000000E+00 0. -1.
         11    1    3    3    0    0  0.84013368410E+01  0.41955656980E+01  0.10157952131E+01  0.94454789407E+01  0.51100000000E-03 0. -1.
        -11    1    3    3    0    0 -0.89094843031E+01 -0.68975113319E+01 -0.39656290651E+02  0.41225913714E+02  0.51100000000E-03 0.  1.
         12    1    3    3    0    0  0.93460447822E+00  0.36757646351E+01  0.39153102590E+02  0.39336372146E+02  0.00000000000E+00 0. -1.
</event>
<event>
 7    1  0.1935465E-015  0.9000769E+02  0.7816164E-02  0.1186339E+00
        -11   -1    0    0    0    0  0.00000000000E+00  0.00000000000E+00  0.45593999997E+02  0.45594000000E+02  0.51100000000E-03 0.  1.
         11   -1    0    0    0    0 -0.00000000000E+00 -0.00000000000E+00 -0.45593999997E+02  0.45594000000E+02  0.51100000000E-03 0. -1.
    9900012    2    1    2    0    0  0.76556156092E+00 -0.84249610277E+00 -0.31184766201E+00  0.90007689384E+02  0.89999950084E+02 0.  0.
         12    1    1    2    0    0 -0.76556156092E+00  0.84249610277E+00  0.31184766201E+00  0.11803106163E+01  0.00000000000E+00 0. -1.
         11    1    3    3    0    0  0.77435355703E+01  0.61218101095E+01 -0.14914276785E+01  0.99831487481E+01  0.51100000000E-03 0. -1.
        -11    1    3    3    0    0  0.14412238135E+02  0.32229929385E+02  0.20481728861E+01  0.35364897408E+02  0.51100000000E-03 0.  1.
         12    1    3    3    0    0 -0.21390212144E+02 -0.39194235598E+02 -0.86859286957E+00  0.44659643228E+02  0.00000000000E+00 0. -1.
</event>
<event>
 7    1  0.1935465E-015  0.9000772E+02  0.7816164E-02  0.1186339E+00
        -11   -1    0    0    0    0  0.00000000000E+00  0.00000000000E+00  0.45593999997E+02  0.45594000000E+02  0.51100000000E-03 0. -1.
         11   -1    0    0    0    0 -0.00000000000E+00 -0.00000000000E+00 -0.45593999997E+02  0.45594000000E+02  0.51100000000E-03 0.  1.
    9900012    2    1    2    0    0  0.11592293493E+01 -0.15068855713E-02 -0.22190255142E+00  0.90007722195E+02  0.89999983328E+02 0.  0.
         12    1    1    2    0    0 -0.11592293493E+01  0.15068855713E-02  0.22190255142E+00  0.11802778052E+01  0.00000000000E+00 0. -1.
         11    1    3    3    0    0 -0.36367676019E+02  0.47832734338E+01 -0.73466531947E+01  0.37409368843E+02  0.51100000000E-03 0. -1.
        -11    1    3    3    0    0  0.77839668844E-01 -0.38031863782E+01 -0.10521745699E+02  0.11188271469E+02  0.51100000000E-03 0.  1.
        -12    1    3    3    0    0  0.37449065700E+02 -0.98159394119E+00  0.17646496342E+02  0.41410081883E+02  0.00000000000E+00 0.  1.
</event>
<event>
 7    1  0.1935465E-015  0.9000773E+02  0.7816164E-02  0.1186339E+00
        -11   -1    0    0    0    0  0.00000000000E+00  0.00000000000E+00  0.45593999997E+02  0.45594000000E+02  0.51100000000E-03 0.  1.
         11   -1    0    0    0    0 -0.00000000000E+00 -0.00000000000E+00 -0.45593999997E+02  0.45594000000E+02  0.51100000000E-03 0. -1.
    9900012    2    1    2    0    0  0.84701357254E+00  0.51799737617E+00  0.63818298253E+00  0.90007732745E+02  0.89999994017E+02 0.  0.
         12    1    1    2    0    0 -0.84701357254E+00 -0.51799737617E+00 -0.63818298253E+00  0.11802672549E+01  0.00000000000E+00 0. -1.
         11    1    3    3    0    0  0.71894655700E+01 -0.21998345785E+01 -0.63719301007E+01  0.98554137825E+01  0.51100000000E-03 0. -1.
        -11    1    3    3    0    0  0.12599304434E+02 -0.32187941967E+02  0.17964130142E+02  0.38955308397E+02  0.51100000000E-03 0.  1.
         12    1    3    3    0    0 -0.18941756431E+02  0.34905773922E+02 -0.10954017058E+02  0.41197010565E+02  0.00000000000E+00 0. -1.
</event>
<event>
 7    1  0.1935465E-015  0.9000868E+02  0.7816164E-02  0.1186337E+00
        -11   -1    0    0    0    0  0.00000000000E+00  0.00000000000E+00  0.45593999997E+02  0.45594000000E+02  0.51100000000E-03 0.  1.
         11   -1    0    0    0    0 -0.00000000000E+00 -0.00000000000E+00 -0.45593999997E+02  0.45594000000E+02  0.51100000000E-03 0. -1.
    9900012    2    1    2    0    0  0.64779782433E+00 -0.73255352259E+00  0.65917445564E+00  0.90008683398E+02  0.90000957214E+02 0.  0.
         12    1    1    2    0    0 -0.64779782433E+00  0.73255352259E+00 -0.65917445564E+00  0.11793166019E+01  0.00000000000E+00 0. -1.
         11    1    3    3    0    0  0.24057259820E+02  0.74192148617E+01 -0.26827291536E+02  0.36789945238E+02  0.51100000000E-03 0. -1.
        -11    1    3    3    0    0 -0.37170908831E+00 -0.18772380758E+01 -0.92273062046E+01  0.94236601432E+01  0.51100000000E-03 0.  1.
        -12    1    3    3    0    0 -0.23037752907E+02 -0.62745303085E+01  0.36713772196E+02  0.43795078017E+02  0.00000000000E+00 0.  1.
</event>
<event>
 7    1  0.1935465E-015  0.9000773E+02  0.7816164E-02  0.1186339E+00
        -11   -1    0    0    0    0  0.00000000000E+00  0.00000000000E+00  0.45593999997E+02  0.45594000000E+02  0.51100000000E-03 0.  1.
         11   -1    0    0    0    0 -0.00000000000E+00 -0.00000000000E+00 -0.45593999997E+02  0.45594000000E+02  0.51100000000E-03 0. -1.
    9900012    2    1    2    0    0 -0.64461942202E-02  0.10031138993E+01  0.62190635620E+00  0.90007726064E+02  0.89999987248E+02 0.  0.
         12    1    1    2    0    0  0.64461942202E-02 -0.10031138993E+01 -0.62190635620E+00  0.11802739361E+01  0.00000000000E+00 0. -1.
         11    1    3    3    0    0 -0.15443979916E+02 -0.22445693215E+02 -0.24594159040E+02  0.36704200287E+02  0.51100000000E-03 0. -1.
        -11    1    3    3    0    0 -0.38814889642E+01 -0.18020678264E+01 -0.68953142043E+01  0.81153412293E+01  0.51100000000E-03 0.  1.
        -12    1    3    3    0    0  0.19319022686E+02  0.25250874941E+02  0.32111379601E+02  0.45188184547E+02  0.00000000000E+00 0.  1.
</event>
<event>
 7    1  0.1935465E-015  0.9000773E+02  0.7816164E-02  0.1186339E+00
        -11   -1    0    0    0    0  0.00000000000E+00  0.00000000000E+00  0.45593999997E+02  0.45594000000E+02  0.51100000000E-03 0. -1.
         11   -1    0    0    0    0 -0.00000000000E+00 -0.00000000000E+00 -0.45593999997E+02  0.45594000000E+02  0.51100000000E-03 0.  1.
    9900012    2    1    2    0    0 -0.56772876230E+00 -0.56150827612E+00 -0.86915763936E+00  0.90007727788E+02  0.89999988995E+02 0.  0.
         12    1    1    2    0    0  0.56772876230E+00  0.56150827612E+00  0.86915763936E+00  0.11802722117E+01  0.00000000000E+00 0. -1.
         11    1    3    3    0    0 -0.92478960017E+01  0.22119474165E+02  0.27735647471E+02  0.36661435579E+02  0.51100000000E-03 0. -1.
        -11    1    3    3    0    0  0.36319217669E+01 -0.33697899076E+00  0.87766327670E+01  0.95044039029E+01  0.51100000000E-03 0.  1.
        -12    1    3    3    0    0  0.50482454725E+01 -0.22344003450E+02 -0.37381437877E+02  0.43841888307E+02  0.00000000000E+00 0.  1.
</event>
<event>
 7    1  0.1935465E-015  0.9000774E+02  0.7816164E-02  0.1186339E+00
        -11   -1    0    0    0    0  0.00000000000E+00  0.00000000000E+00  0.45593999997E+02  0.45594000000E+02  0.51100000000E-03 0. -1.
         11   -1    0    0    0    0 -0.00000000000E+00 -0.00000000000E+00 -0.45593999997E+02  0.45594000000E+02  0.51100000000E-03 0.  1.
    9900012    2    1    2    0    0 -0.11355284112E+01  0.27595382723E+00 -0.16567237853E+00  0.90007736206E+02  0.89999997523E+02 0.  0.
         12    1    1    2    0    0  0.11355284112E+01 -0.27595382723E+00  0.16567237853E+00  0.11802637944E+01  0.00000000000E+00 0. -1.
         11    1    3    3    0    0 -0.11167552185E+02 -0.33210031648E+02  0.41391089907E+01  0.35281052243E+02  0.51100000000E-03 0. -1.
        -11    1    3    3    0    0 -0.15157857424E+01 -0.94916847347E+01  0.18885943590E+01  0.97957375645E+01  0.51100000000E-03 0.  1.
        -12    1    3    3    0    0  0.11547809516E+02  0.42977670210E+02 -0.61933757282E+01  0.44930946398E+02  0.00000000000E+00 0.  1.
</event>
<event>
 7    1  0.1935465E-015  0.9000781E+02  0.7816164E-02  0.1186339E+00
        -11   -1    0    0    0    0  0.00000000000E+00  0.00000000000E+00  0.45593999997E+02  0.45594000000E+02  0.51100000000E-03 0.  1.
         11   -1    0    0    0    0 -0.00000000000E+00 -0.00000000000E+00 -0.45593999997E+02  0.45594000000E+02  0.51100000000E-03 0. -1.
    9900012    2    1    2    0    0  0.28580062600E+00 -0.11446789733E+01  0.29431140141E-01  0.90007814361E+02  0.90000076711E+02 0.  0.
         12    1    1    2    0    0 -0.28580062600E+00  0.11446789733E+01 -0.29431140141E-01  0.11801856387E+01  0.00000000000E+00 0. -1.
         11    1    3    3    0    0 -0.24627692385E+01  0.28808301197E+02  0.20162846945E+02  0.35249451731E+02  0.51100000000E-03 0. -1.
        -11    1    3    3    0    0 -0.41828953379E+01  0.53987890207E+01  0.69076057317E+01  0.97138331004E+01  0.51100000000E-03 0.  1.
        -12    1    3    3    0    0  0.69314652024E+01 -0.35351769191E+02 -0.27041021537E+02  0.45044529529E+02  0.00000000000E+00 0.  1.
</event>
<event>
 7    1  0.1935465E-015  0.9000775E+02  0.7816164E-02  0.1186339E+00
        -11   -1    0    0    0    0  0.00000000000E+00  0.00000000000E+00  0.45593999997E+02  0.45594000000E+02  0.51100000000E-03 0.  1.
         11   -1    0    0    0    0 -0.00000000000E+00 -0.00000000000E+00 -0.45593999997E+02  0.45594000000E+02  0.51100000000E-03 0. -1.
    9900012    2    1    2    0    0 -0.70978142190E+00  0.87753820946E+00 -0.34515056134E+00  0.90007749228E+02  0.90000010717E+02 0.  0.
         12    1    1    2    0    0  0.70978142190E+00 -0.87753820946E+00  0.34515056134E+00  0.11802507725E+01  0.00000000000E+00 0. -1.
         11    1    3    3    0    0 -0.39661057402E+02  0.99191553577E+01  0.15527575828E+02  0.43732078942E+02  0.51100000000E-03 0. -1.
        -11    1    3    3    0    0  0.90630584116E+01  0.41460590041E+01 -0.77166565824E+01  0.12604587344E+02  0.51100000000E-03 0.  1.
        -12    1    3    3    0    0  0.29888217569E+02 -0.13187676152E+02 -0.81560698067E+01  0.33671082941E+02  0.00000000000E+00 0.  1.
</event>
<event>
 7    1  0.1935465E-015  0.9000757E+02  0.7816164E-02  0.1186339E+00
        -11   -1    0    0    0    0  0.00000000000E+00  0.00000000000E+00  0.45593999997E+02  0.45594000000E+02  0.51100000000E-03 0.  1.
         11   -1    0    0    0    0 -0.00000000000E+00 -0.00000000000E+00 -0.45593999997E+02  0.45594000000E+02  0.51100000000E-03 0. -1.
    9900012    2    1    2    0    0  0.78862023781E+00 -0.58474375181E+00 -0.65541536273E+00  0.90007569387E+02  0.89999828503E+02 0.  0.
         12    1    1    2    0    0 -0.78862023781E+00  0.58474375181E+00  0.65541536273E+00  0.11804306132E+01  0.00000000000E+00 0. -1.
         11    1    3    3    0    0 -0.91111210290E+00 -0.21789965450E+01  0.51650894083E+01  0.56794630084E+01  0.51100000000E-03 0. -1.
        -11    1    3    3    0    0 -0.36096828338E+02  0.47946647225E+01  0.16865467816E+02  0.40129961759E+02  0.51100000000E-03 0.  1.
         12    1    3    3    0    0  0.37796560678E+02 -0.32004119293E+01 -0.22685972587E+02  0.44198144620E+02  0.00000000000E+00 0. -1.
</event>
<event>
 7    1  0.1935465E-015  0.9000766E+02  0.7816164E-02  0.1186339E+00
        -11   -1    0    0    0    0  0.00000000000E+00  0.00000000000E+00  0.45593999997E+02  0.45594000000E+02  0.51100000000E-03 0. -1.
         11   -1    0    0    0    0 -0.00000000000E+00 -0.00000000000E+00 -0.45593999997E+02  0.45594000000E+02  0.51100000000E-03 0.  1.
    9900012    2    1    2    0    0 -0.70355760395E+00 -0.91900240128E+00 -0.23161700921E+00  0.90007658882E+02  0.89999919179E+02 0.  0.
         12    1    1    2    0    0  0.70355760395E+00  0.91900240128E+00  0.23161700921E+00  0.11803411179E+01  0.00000000000E+00 0. -1.
         11    1    3    3    0    0 -0.62223506122E+01  0.17280519052E+02  0.36151382256E+02  0.40549431872E+02  0.51100000000E-03 0. -1.
        -11    1    3    3    0    0 -0.54561023955E+00 -0.10455365093E+02  0.12657214882E+01  0.10545823861E+02  0.51100000000E-03 0.  1.
        -12    1    3    3    0    0  0.60644032478E+01 -0.77441563606E+01 -0.37648720753E+02  0.38912403149E+02  0.00000000000E+00 0.  1.
</event>
<event>
 7    1  0.1935465E-015  0.9000770E+02  0.7816164E-02  0.1186339E+00
        -11   -1    0    0    0    0  0.00000000000E+00  0.00000000000E+00  0.45593999997E+02  0.45594000000E+02  0.51100000000E-03 0.  1.
         11   -1    0    0    0    0 -0.00000000000E+00 -0.00000000000E+00 -0.45593999997E+02  0.45594000000E+02  0.51100000000E-03 0. -1.
    9900012    2    1    2    0    0  0.19640549790E+00  0.31520706150E+00  0.11203477374E+01  0.90007699333E+02  0.89999960164E+02 0.  0.
         12    1    1    2    0    0 -0.19640549790E+00 -0.31520706150E+00 -0.11203477374E+01  0.11803006667E+01  0.00000000000E+00 0. -1.
         11    1    3    3    0    0  0.14896693802E+02  0.98495832558E+01 -0.19061885032E+02  0.26120513735E+02  0.51100000000E-03 0. -1.
        -11    1    3    3    0    0  0.21485547236E+02 -0.53702209550E+01 -0.20043624111E+00  0.22147419445E+02  0.51100000000E-03 0.  1.
         12    1    3    3    0    0 -0.36185835540E+02 -0.41641552392E+01  0.20382669010E+02  0.41739766154E+02  0.00000000000E+00 0. -1.
</event>
<event>
 7    1  0.1935465E-015  0.9000778E+02  0.7816164E-02  0.1186339E+00
        -11   -1    0    0    0    0  0.00000000000E+00  0.00000000000E+00  0.45593999997E+02  0.45594000000E+02  0.51100000000E-03 0. -1.
         11   -1    0    0    0    0 -0.00000000000E+00 -0.00000000000E+00 -0.45593999997E+02  0.45594000000E+02  0.51100000000E-03 0.  1.
    9900012    2    1    2    0    0 -0.75706676200E+00  0.66207532738E+00  0.61759739644E+00  0.90007779527E+02  0.90000041417E+02 0.  0.
         12    1    1    2    0    0  0.75706676200E+00 -0.66207532738E+00 -0.61759739644E+00  0.11802204732E+01  0.00000000000E+00 0. -1.
         11    1    3    3    0    0 -0.30066977194E+01  0.60993915439E+01 -0.76767042194E+01  0.10255466655E+02  0.51100000000E-03 0. -1.
        -11    1    3    3    0    0  0.14777273478E+02 -0.39005174336E+02 -0.39292643306E+01  0.41895233081E+02  0.51100000000E-03 0.  1.
         12    1    3    3    0    0 -0.12527642521E+02  0.33567858119E+02  0.12223565946E+02  0.37857079791E+02  0.00000000000E+00 0. -1.
</event>
<event>
 7    1  0.1935465E-015  0.9000769E+02  0.7816164E-02  0.1186339E+00
        -11   -1    0    0    0    0  0.00000000000E+00  0.00000000000E+00  0.45593999997E+02  0.45594000000E+02  0.51100000000E-03 0.  1.
         11   -1    0    0    0    0 -0.00000000000E+00 -0.00000000000E+00 -0.45593999997E+02  0.45594000000E+02  0.51100000000E-03 0. -1.
    9900012    2    1    2    0    0  0.74891654437E+00  0.10085899586E+00 -0.90669328096E+00  0.90007685960E+02  0.89999946615E+02 0.  0.
         12    1    1    2    0    0 -0.74891654437E+00 -0.10085899586E+00  0.90669328096E+00  0.11803140401E+01  0.00000000000E+00 0. -1.
         11    1    3    3    0    0 -0.20154744952E+02  0.32919692093E+01 -0.31090563760E+02  0.37197768220E+02  0.51100000000E-03 0. -1.
        -11    1    3    3    0    0 -0.10513655080E+02  0.74149372000E+00  0.26931956137E+01  0.10878421713E+02  0.51100000000E-03 0.  1.
        -12    1    3    3    0    0  0.31417316577E+02 -0.39326039335E+01  0.27490674865E+02  0.41931496028E+02  0.00000000000E+00 0.  1.
</event>
<event>
 7    1  0.1935465E-015  0.9000765E+02  0.7816164E-02  0.1186339E+00
        -11   -1    0    0    0    0  0.00000000000E+00  0.00000000000E+00  0.45593999997E+02  0.45594000000E+02  0.51100000000E-03 0.  1.
         11   -1    0    0    0    0 -0.00000000000E+00 -0.00000000000E+00 -0.45593999997E+02  0.45594000000E+02  0.51100000000E-03 0. -1.
    9900012    2    1    2    0    0  0.66322630350E+00 -0.39124139983E+00  0.89459005239E+00  0.90007648220E+02  0.89999908377E+02 0.  0.
         12    1    1    2    0    0 -0.66322630350E+00  0.39124139983E+00 -0.89459005239E+00  0.11803517799E+01  0.00000000000E+00 0. -1.
         11    1    3    3    0    0  0.31224578961E+00  0.66676189985E+01 -0.77048928931E+01  0.10194116700E+02  0.51100000000E-03 0. -1.
        -11    1    3    3    0    0  0.88605446086E+01 -0.31160055776E+02 -0.22586408122E+02  0.39491823949E+02  0.51100000000E-03 0.  1.
         12    1    3    3    0    0 -0.85095640947E+01  0.24101195378E+02  0.31185891068E+02  0.40321707570E+02  0.00000000000E+00 0. -1.
</event>
<event>
 7    1  0.1935465E-015  0.9000785E+02  0.7816164E-02  0.1186339E+00
        -11   -1    0    0    0    0  0.00000000000E+00  0.00000000000E+00  0.45593999997E+02  0.45594000000E+02  0.51100000000E-03 0.  1.
         11   -1    0    0    0    0 -0.00000000000E+00 -0.00000000000E+00 -0.45593999997E+02  0.45594000000E+02  0.51100000000E-03 0. -1.
    9900012    2    1    2    0    0 -0.30476687335E-02 -0.44794469780E+00  0.10918335283E+01  0.90007845691E+02  0.90000108454E+02 0.  0.
         12    1    1    2    0    0  0.30476687335E-02  0.44794469780E+00 -0.10918335283E+01  0.11801543095E+01  0.00000000000E+00 0. -1.
         11    1    3    3    0    0  0.26835575346E+02  0.15640584140E+02 -0.22214459180E+02  0.38187146704E+02  0.51100000000E-03 0. -1.
        -11    1    3    3    0    0  0.56099923924E+01  0.48102499869E+01  0.60137585924E+01  0.95276341370E+01  0.51100000000E-03 0.  1.
        -12    1    3    3    0    0 -0.32448615408E+02 -0.20898778825E+02  0.17292534116E+02  0.42293064850E+02  0.00000000000E+00 0.  1.
</event>
<event>
 7    1  0.1935465E-015  0.9000773E+02  0.7816164E-02  0.1186339E+00
        -11   -1    0    0    0    0  0.00000000000E+00  0.00000000000E+00  0.45593999997E+02  0.45594000000E+02  0.51100000000E-03 0.  1.
         11   -1    0    0    0    0 -0.00000000000E+00 -0.00000000000E+00 -0.45593999997E+02  0.45594000000E+02  0.51100000000E-03 0. -1.
    9900012    2    1    2    0    0  0.76022211855E+00 -0.60327325662E+00  0.67168620996E+00  0.90007729414E+02  0.89999990642E+02 0.  0.
         12    1    1    2    0    0 -0.76022211855E+00  0.60327325662E+00 -0.67168620996E+00  0.11802705861E+01  0.00000000000E+00 0. -1.
         11    1    3    3    0    0  0.21621550319E+01 -0.12875422266E+01 -0.82950208713E+01  0.86683361082E+01  0.51100000000E-03 0. -1.
        -11    1    3    3    0    0  0.17367096634E+02 -0.33361986695E+02  0.17583498004E+02  0.41518882500E+02  0.51100000000E-03 0.  1.
         12    1    3    3    0    0 -0.18769029548E+02  0.34046255665E+02 -0.86167909229E+01  0.39820510805E+02  0.00000000000E+00 0. -1.
</event>
<event>
 7    1  0.1935465E-015  0.9000783E+02  0.7816164E-02  0.1186339E+00
        -11   -1    0    0    0    0  0.00000000000E+00  0.00000000000E+00  0.45593999997E+02  0.45594000000E+02  0.51100000000E-03 0.  1.
         11   -1    0    0    0    0 -0.00000000000E+00 -0.00000000000E+00 -0.45593999997E+02  0.45594000000E+02  0.51100000000E-03 0. -1.
    9900012    2    1    2    0    0  0.85861420531E+00 -0.74964950421E+00  0.30595460204E+00  0.90007830118E+02  0.90000092675E+02 0.  0.
         12    1    1    2    0    0 -0.85861420531E+00  0.74964950421E+00 -0.30595460204E+00  0.11801698824E+01  0.00000000000E+00 0. -1.
         11    1    3    3    0    0  0.34341705720E+01 -0.21640408476E+02 -0.28786411699E+02  0.36176764716E+02  0.51100000000E-03 0. -1.
        -11    1    3    3    0    0 -0.24153856571E+01 -0.61207623642E+01 -0.64332400879E+01  0.92024126229E+01  0.51100000000E-03 0.  1.
        -12    1    3    3    0    0 -0.16017070963E+00  0.27011521336E+02  0.35525606389E+02  0.44628652779E+02  0.00000000000E+00 0.  1.
</event>
<event>
 7    1  0.1935465E-015  0.9000772E+02  0.7816164E-02  0.1186339E+00
        -11   -1    0    0    0    0  0.00000000000E+00  0.00000000000E+00  0.45593999997E+02  0.45594000000E+02  0.51100000000E-03 0.  1.
         11   -1    0    0    0    0 -0.00000000000E+00 -0.00000000000E+00 -0.45593999997E+02  0.45594000000E+02  0.51100000000E-03 0. -1.
    9900012    2    1    2    0    0  0.18380998827E+00  0.24127153241E+00  0.11406433266E+01  0.90007718143E+02  0.89999979222E+02 0.  0.
         12    1    1    2    0    0 -0.18380998827E+00 -0.24127153241E+00 -0.11406433266E+01  0.11802818573E+01  0.00000000000E+00 0. -1.
         11    1    3    3    0    0  0.11342158182E+02 -0.70929505856E+01 -0.39322992536E+02  0.41536155846E+02  0.51100000000E-03 0. -1.
        -11    1    3    3    0    0  0.14199100407E+01  0.88035935603E+01  0.38195506165E+01  0.97009469266E+01  0.51100000000E-03 0.  1.
        -12    1    3    3    0    0 -0.12578258235E+02 -0.14693714423E+01  0.36644085246E+02  0.38770615370E+02  0.00000000000E+00 0.  1.
</event>
<event>
 7    1  0.1935465E-015  0.9000784E+02  0.7816164E-02  0.1186339E+00
        -11   -1    0    0    0    0  0.00000000000E+00  0.00000000000E+00  0.45593999997E+02  0.45594000000E+02  0.51100000000E-03 0.  1.
         11   -1    0    0    0    0 -0.00000000000E+00 -0.00000000000E+00 -0.45593999997E+02  0.45594000000E+02  0.51100000000E-03 0. -1.
    9900012    2    1    2    0    0  0.77977704545E+00 -0.61853657291E+00 -0.63414459102E+00  0.90007839377E+02  0.90000102057E+02 0.  0.
         12    1    1    2    0    0 -0.77977704545E+00  0.61853657291E+00  0.63414459102E+00  0.11801606225E+01  0.00000000000E+00 0. -1.
         11    1    3    3    0    0  0.14327434789E+02 -0.25589419680E+01 -0.35866607040E+02  0.38707067474E+02  0.51100000000E-03 0. -1.
        -11    1    3    3    0    0  0.13093384085E+01  0.23028866838E+01 -0.64903728790E+01  0.70101779233E+01  0.51100000000E-03 0.  1.
        -12    1    3    3    0    0 -0.14856996152E+02 -0.36248128867E+00  0.41722835328E+02  0.44290593980E+02  0.00000000000E+00 0.  1.
</event>
<event>
 7    1  0.1935465E-015  0.9000789E+02  0.7816164E-02  0.1186339E+00
        -11   -1    0    0    0    0  0.00000000000E+00  0.00000000000E+00  0.45593999997E+02  0.45594000000E+02  0.51100000000E-03 0.  1.
         11   -1    0    0    0    0 -0.00000000000E+00 -0.00000000000E+00 -0.45593999997E+02  0.45594000000E+02  0.51100000000E-03 0. -1.
    9900012    2    1    2    0    0  0.19094460064E+00  0.41905366934E-01  0.11638019681E+01  0.90007893682E+02  0.90000157079E+02 0.  0.
         12    1    1    2    0    0 -0.19094460064E+00 -0.41905366934E-01 -0.11638019681E+01  0.11801063177E+01  0.00000000000E+00 0. -1.
         11    1    3    3    0    0 -0.24714315363E+01  0.93968690323E+01 -0.42502505595E+01  0.10605364281E+02  0.51100000000E-03 0. -1.
        -11    1    3    3    0    0  0.12139059054E+02  0.32580403450E+02  0.99683771495E+01  0.36169157951E+02  0.51100000000E-03 0.  1.
         12    1    3    3    0    0 -0.94766829166E+01 -0.41935367115E+02 -0.45543246220E+01  0.43233371450E+02  0.00000000000E+00 0. -1.
</event>
<event>
 7    1  0.1935465E-015  0.9000773E+02  0.7816164E-02  0.1186339E+00
        -11   -1    0    0    0    0  0.00000000000E+00  0.00000000000E+00  0.45593999997E+02  0.45594000000E+02  0.51100000000E-03 0. -1.
         11   -1    0    0    0    0 -0.00000000000E+00 -0.00000000000E+00 -0.45593999997E+02  0.45594000000E+02  0.51100000000E-03 0.  1.
    9900012    2    1    2    0    0 -0.21932963948E+00 -0.10727644523E+00 -0.11547437675E+01  0.90007725924E+02  0.89999987106E+02 0.  0.
         12    1    1    2    0    0  0.21932963948E+00  0.10727644523E+00  0.11547437675E+01  0.11802740762E+01  0.00000000000E+00 0. -1.
         11    1    3    3    0    0  0.42091907880E+01  0.50329097430E+01  0.23749277969E+01  0.69776607737E+01  0.51100000000E-03 0. -1.
        -11    1    3    3    0    0  0.20141576346E+02  0.22883176726E+02 -0.25520132133E+02  0.39756760672E+02  0.51100000000E-03 0.  1.
         12    1    3    3    0    0 -0.24570096774E+02 -0.28023362914E+02  0.21990460568E+02  0.43273304478E+02  0.00000000000E+00 0. -1.
</event>
<event>
 7    1  0.1935465E-015  0.9000685E+02  0.7816164E-02  0.1186341E+00
        -11   -1    0    0    0    0  0.00000000000E+00  0.00000000000E+00  0.45593999997E+02  0.45594000000E+02  0.51100000000E-03 0.  1.
         11   -1    0    0    0    0 -0.00000000000E+00 -0.00000000000E+00 -0.45593999997E+02  0.45594000000E+02  0.51100000000E-03 0. -1.
    9900012    2    1    2    0    0  0.46978814787E+00 -0.10304375874E+01  0.33557265943E+00  0.90006851603E+02  0.89999101240E+02 0.  0.
         12    1    1    2    0    0 -0.46978814787E+00  0.10304375874E+01 -0.33557265943E+00  0.11811483967E+01  0.00000000000E+00 0. -1.
         11    1    3    3    0    0 -0.68596764937E+00 -0.68428570193E+00  0.10547223668E+02  0.10591634713E+02  0.51100000000E-03 0. -1.
        -11    1    3    3    0    0 -0.19086579294E+02 -0.32469728134E+02  0.59831398069E+01  0.38136317553E+02  0.51100000000E-03 0.  1.
         12    1    3    3    0    0  0.20242335092E+02  0.32123576249E+02 -0.16194790815E+02  0.41278899337E+02  0.00000000000E+00 0. -1.
</event>
<event>
 7    1  0.1935465E-015  0.9000776E+02  0.7816164E-02  0.1186339E+00
        -11   -1    0    0    0    0  0.00000000000E+00  0.00000000000E+00  0.45593999997E+02  0.45594000000E+02  0.51100000000E-03 0.  1.
         11   -1    0    0    0    0 -0.00000000000E+00 -0.00000000000E+00 -0.45593999997E+02  0.45594000000E+02  0.51100000000E-03 0. -1.
    9900012    2    1    2    0    0 -0.47007025435E+00 -0.10821132891E+01 -0.31986769912E-01  0.90007763427E+02  0.90000025104E+02 0.  0.
         12    1    1    2    0    0  0.47007025435E+00  0.10821132891E+01  0.31986769912E-01  0.11802365728E+01  0.00000000000E+00 0. -1.
         11    1    3    3    0    0  0.25923912001E+02 -0.29380267685E+02  0.46270335501E+01  0.39454515362E+02  0.51100000000E-03 0. -1.
        -11    1    3    3    0    0  0.43416289175E+01 -0.10075043097E+00 -0.74391057873E+01  0.86139530695E+01  0.51100000000E-03 0.  1.
        -12    1    3    3    0    0 -0.30735611173E+02  0.28398904827E+02  0.27800854673E+01  0.41939294996E+02  0.00000000000E+00 0.  1.
</event>
<event>
 7    1  0.2229070E-015  0.9000760E+02  0.7816164E-02  0.1186339E+00
        -11   -1    0    0    0    0  0.00000000000E+00  0.00000000000E+00  0.45593999997E+02  0.45594000000E+02  0.51100000000E-03 0.  1.
         11   -1    0    0    0    0 -0.00000000000E+00 -0.00000000000E+00 -0.45593999997E+02  0.45594000000E+02  0.51100000000E-03 0. -1.
    9900012    2    1    2    0    0  0.97170085736E-01  0.10607321288E+01  0.50868474571E+00  0.90007595474E+02  0.89999854934E+02 0.  0.
         12    1    1    2    0    0 -0.97170085736E-01 -0.10607321288E+01 -0.50868474571E+00  0.11804045261E+01  0.00000000000E+00 0. -1.
         11    1    3    3    0    0 -0.40463447362E+01  0.24045150453E+01  0.86635397932E+01  0.98595902723E+01  0.51100000000E-03 0. -1.
        -11    1    3    3    0    0  0.60995532045E+01 -0.37690923889E+02  0.10004099238E+02  0.39470144346E+02  0.51100000000E-03 0.  1.
         12    1    3    3    0    0 -0.19560383826E+01  0.36347140972E+02 -0.18158954286E+02  0.40677860855E+02  0.00000000000E+00 0. -1.
</event>
<event>
 7    1  0.1935465E-015  0.9000771E+02  0.7816164E-02  0.1186339E+00
        -11   -1    0    0    0    0  0.00000000000E+00  0.00000000000E+00  0.45593999997E+02  0.45594000000E+02  0.51100000000E-03 0.  1.
         11   -1    0    0    0    0 -0.00000000000E+00 -0.00000000000E+00 -0.45593999997E+02  0.45594000000E+02  0.51100000000E-03 0. -1.
    9900012    2    1    2    0    0  0.81212075128E-01 -0.66899965573E+00  0.96897809721E+00  0.90007714232E+02  0.89999975260E+02 0.  0.
         12    1    1    2    0    0 -0.81212075128E-01  0.66899965573E+00 -0.96897809721E+00  0.11802857677E+01  0.00000000000E+00 0. -1.
         11    1    3    3    0    0 -0.37607464902E+01  0.13204585774E+01 -0.61120148088E+01  0.72968178203E+01  0.51100000000E-03 0. -1.
        -11    1    3    3    0    0 -0.26948886520E+02  0.25795270235E+02  0.15490859129E+02  0.40393132683E+02  0.51100000000E-03 0.  1.
         12    1    3    3    0    0  0.30790845085E+02 -0.27784728468E+02 -0.84098662229E+01  0.42317763729E+02  0.00000000000E+00 0. -1.
</event>
<event>
 7    1  0.1935465E-015  0.9000777E+02  0.7816164E-02  0.1186339E+00
        -11   -1    0    0    0    0  0.00000000000E+00  0.00000000000E+00  0.45593999997E+02  0.45594000000E+02  0.51100000000E-03 0.  1.
         11   -1    0    0    0    0 -0.00000000000E+00 -0.00000000000E+00 -0.45593999997E+02  0.45594000000E+02  0.51100000000E-03 0. -1.
    9900012    2    1    2    0    0  0.36324609770E+00  0.36106953756E+00  0.10633039941E+01  0.90007773614E+02  0.90000035426E+02 0.  0.
         12    1    1    2    0    0 -0.36324609770E+00 -0.36106953756E+00 -0.10633039941E+01  0.11802263860E+01  0.00000000000E+00 0. -1.
         11    1    3    3    0    0  0.32937973109E+02 -0.12262657271E+02 -0.85203278969E+01  0.36164607334E+02  0.51100000000E-03 0. -1.
        -11    1    3    3    0    0  0.20449755375E+01 -0.63832350457E+01 -0.81483659153E+01  0.10550994358E+02  0.51100000000E-03 0.  1.
        -12    1    3    3    0    0 -0.34619702549E+02  0.19006961854E+02  0.17731997806E+02  0.43292171922E+02  0.00000000000E+00 0.  1.
</event>
<event>
 7    1  0.1935465E-015  0.9000773E+02  0.7816164E-02  0.1186339E+00
        -11   -1    0    0    0    0  0.00000000000E+00  0.00000000000E+00  0.45593999997E+02  0.45594000000E+02  0.51100000000E-03 0. -1.
         11   -1    0    0    0    0 -0.00000000000E+00 -0.00000000000E+00 -0.45593999997E+02  0.45594000000E+02  0.51100000000E-03 0.  1.
    9900012    2    1    2    0    0  0.21361494166E-01 -0.48078665339E+00 -0.10776890752E+01  0.90007734834E+02  0.89999996134E+02 0.  0.
         12    1    1    2    0    0 -0.21361494166E-01  0.48078665339E+00  0.10776890752E+01  0.11802651661E+01  0.00000000000E+00 0. -1.
         11    1    3    3    0    0 -0.30838587927E+02  0.18502324241E+02 -0.12323530533E+01  0.35984346624E+02  0.51100000000E-03 0. -1.
        -11    1    3    3    0    0 -0.45924797466E+01  0.81588732159E+01 -0.39064200346E+00  0.93707355001E+01  0.51100000000E-03 0.  1.
        -12    1    3    3    0    0  0.35452429168E+02 -0.27141984110E+02  0.54530598154E+00  0.44652652709E+02  0.00000000000E+00 0.  1.
</event>
<event>
 7    1  0.1935465E-015  0.9000770E+02  0.7816164E-02  0.1186339E+00
        -11   -1    0    0    0    0  0.00000000000E+00  0.00000000000E+00  0.45593999997E+02  0.45594000000E+02  0.51100000000E-03 0.  1.
         11   -1    0    0    0    0 -0.00000000000E+00 -0.00000000000E+00 -0.45593999997E+02  0.45594000000E+02  0.51100000000E-03 0. -1.
    9900012    2    1    2    0    0 -0.22182870654E+00 -0.37973816756E+00  0.10953057922E+01  0.90007701805E+02  0.89999962669E+02 0.  0.
         12    1    1    2    0    0  0.22182870654E+00  0.37973816756E+00 -0.10953057922E+01  0.11802981951E+01  0.00000000000E+00 0. -1.
         11    1    3    3    0    0 -0.32788841566E+01  0.98715637928E+01  0.78828747624E+01  0.13051381835E+02  0.51100000000E-03 0. -1.
        -11    1    3    3    0    0 -0.72784130725E+01  0.30740694217E+02  0.72498067360E+01  0.32411807660E+02  0.51100000000E-03 0.  1.
         12    1    3    3    0    0  0.10335468523E+02 -0.40991996178E+02 -0.14037375706E+02  0.44544512310E+02  0.00000000000E+00 0. -1.
</event>
<event>
 7    1  0.1935465E-015  0.9000771E+02  0.7816164E-02  0.1186339E+00
        -11   -1    0    0    0    0  0.00000000000E+00  0.00000000000E+00  0.45593999997E+02  0.45594000000E+02  0.51100000000E-03 0.  1.
         11   -1    0    0    0    0 -0.00000000000E+00 -0.00000000000E+00 -0.45593999997E+02  0.45594000000E+02  0.51100000000E-03 0. -1.
    9900012    2    1    2    0    0 -0.10951963304E+01 -0.20921737043E+00  0.38711032161E+00  0.90007711344E+02  0.89999972334E+02 0.  0.
         12    1    1    2    0    0  0.10951963304E+01  0.20921737043E+00 -0.38711032161E+00  0.11802886559E+01  0.00000000000E+00 0. -1.
         11    1    3    3    0    0 -0.92719381662E+01  0.54050404663E+01 -0.52519509613E+01  0.11948484798E+02  0.51100000000E-03 0. -1.
        -11    1    3    3    0    0 -0.32277005808E+02 -0.92107993784E+01  0.14379669178E+02  0.36516007655E+02  0.51100000000E-03 0.  1.
         12    1    3    3    0    0  0.40453747644E+02  0.35965415417E+01 -0.87406078950E+01  0.41543218892E+02  0.00000000000E+00 0. -1.
</event>
<event>
 7    1  0.1935465E-015  0.9000769E+02  0.7816164E-02  0.1186339E+00
        -11   -1    0    0    0    0  0.00000000000E+00  0.00000000000E+00  0.45593999997E+02  0.45594000000E+02  0.51100000000E-03 0. -1.
         11   -1    0    0    0    0 -0.00000000000E+00 -0.00000000000E+00 -0.45593999997E+02  0.45594000000E+02  0.51100000000E-03 0.  1.
    9900012    2    1    2    0    0  0.90902449549E+00 -0.62263519275E+00 -0.42322756961E+00  0.90007694238E+02  0.89999955002E+02 0.  0.
         12    1    1    2    0    0 -0.90902449549E+00  0.62263519275E+00  0.42322756961E+00  0.11803057622E+01  0.00000000000E+00 0. -1.
         11    1    3    3    0    0  0.38164546394E+01  0.87544291363E+01 -0.85951317929E+00  0.95887495892E+01  0.51100000000E-03 0. -1.
        -11    1    3    3    0    0  0.14696167769E+02  0.32129657656E+02  0.40668810537E+00  0.35333520114E+02  0.51100000000E-03 0.  1.
         12    1    3    3    0    0 -0.17603597913E+02 -0.41506721985E+02  0.29597504317E-01  0.45085424534E+02  0.00000000000E+00 0. -1.
</event>
<event>
 7    1  0.1935465E-015  0.9000792E+02  0.7816164E-02  0.1186339E+00
        -11   -1    0    0    0    0  0.00000000000E+00  0.00000000000E+00  0.45593999997E+02  0.45594000000E+02  0.51100000000E-03 0. -1.
         11   -1    0    0    0    0 -0.00000000000E+00 -0.00000000000E+00 -0.45593999997E+02  0.45594000000E+02  0.51100000000E-03 0.  1.
    9900012    2    1    2    0    0 -0.83530476819E-01 -0.65551595897E+00 -0.97771224828E+00  0.90007915362E+02  0.90000179044E+02 0.  0.
         12    1    1    2    0    0  0.83530476819E-01  0.65551595897E+00  0.97771224828E+00  0.11800846383E+01  0.00000000000E+00 0. -1.
         11    1    3    3    0    0 -0.20021005808E+01  0.10655118702E+02 -0.22151425759E+01  0.11065569040E+02  0.51100000000E-03 0. -1.
        -11    1    3    3    0    0  0.36041799054E+01  0.12131992713E+02  0.35332803565E+02  0.37531085356E+02  0.51100000000E-03 0.  1.
         12    1    3    3    0    0 -0.16856098015E+01 -0.23442627373E+02 -0.34095373238E+02  0.41411260966E+02  0.00000000000E+00 0. -1.
</event>
<event>
 7    1  0.1935465E-015  0.9000775E+02  0.7816164E-02  0.1186339E+00
        -11   -1    0    0    0    0  0.00000000000E+00  0.00000000000E+00  0.45593999997E+02  0.45594000000E+02  0.51100000000E-03 0.  1.
         11   -1    0    0    0    0 -0.00000000000E+00 -0.00000000000E+00 -0.45593999997E+02  0.45594000000E+02  0.51100000000E-03 0. -1.
    9900012    2    1    2    0    0  0.80773771944E+00 -0.86022810618E+00  0.23515387421E-01  0.90007751894E+02  0.90000013419E+02 0.  0.
         12    1    1    2    0    0 -0.80773771944E+00  0.86022810618E+00 -0.23515387421E-01  0.11802481059E+01  0.00000000000E+00 0. -1.
         11    1    3    3    0    0 -0.20777977442E+01 -0.32932196869E+02 -0.19053690387E+01  0.33052643851E+02  0.51100000000E-03 0. -1.
        -11    1    3    3    0    0 -0.14912004664E+02 -0.49937035551E+01  0.18805355195E+01  0.15837972484E+02  0.51100000000E-03 0.  1.
        -12    1    3    3    0    0  0.17797540128E+02  0.37065672318E+02  0.48348906592E-01  0.41117135559E+02  0.00000000000E+00 0.  1.
</event>
<event>
 7    1  0.1935465E-015  0.9000780E+02  0.7816164E-02  0.1186339E+00
        -11   -1    0    0    0    0  0.00000000000E+00  0.00000000000E+00  0.45593999997E+02  0.45594000000E+02  0.51100000000E-03 0. -1.
         11   -1    0    0    0    0 -0.00000000000E+00 -0.00000000000E+00 -0.45593999997E+02  0.45594000000E+02  0.51100000000E-03 0.  1.
    9900012    2    1    2    0    0 -0.11049870368E+01  0.13350022895E+00 -0.39248799812E+00  0.90007802774E+02  0.90000064971E+02 0.  0.
         12    1    1    2    0    0  0.11049870368E+01 -0.13350022895E+00  0.39248799812E+00  0.11801972256E+01  0.00000000000E+00 0. -1.
         11    1    3    3    0    0  0.24164592729E+02 -0.18192558548E+02  0.20962542760E+02  0.36801153889E+02  0.51100000000E-03 0. -1.
        -11    1    3    3    0    0  0.86586939861E+01 -0.23814184572E+01 -0.36551392479E+01  0.96955752071E+01  0.51100000000E-03 0.  1.
        -12    1    3    3    0    0 -0.33928273752E+02  0.20707477235E+02 -0.17699891510E+02  0.43511073679E+02  0.00000000000E+00 0.  1.
</event>
<event>
 7    1  0.1935465E-015  0.9000781E+02  0.7816164E-02  0.1186339E+00
        -11   -1    0    0    0    0  0.00000000000E+00  0.00000000000E+00  0.45593999997E+02  0.45594000000E+02  0.51100000000E-03 0.  1.
         11   -1    0    0    0    0 -0.00000000000E+00 -0.00000000000E+00 -0.45593999997E+02  0.45594000000E+02  0.51100000000E-03 0. -1.
    9900012    2    1    2    0    0 -0.10312766608E+01  0.31707495242E+00  0.47829810139E+00  0.90007814781E+02  0.90000077136E+02 0.  0.
         12    1    1    2    0    0  0.10312766608E+01 -0.31707495242E+00 -0.47829810139E+00  0.11801852187E+01  0.00000000000E+00 0. -1.
         11    1    3    3    0    0 -0.22193333705E+02 -0.34052905593E+02 -0.91504825758E+01  0.41663842500E+02  0.51100000000E-03 0. -1.
        -11    1    3    3    0    0  0.80043007384E+01 -0.17693366694E+01  0.50107312446E+01  0.96076433337E+01  0.51100000000E-03 0.  1.
        -12    1    3    3    0    0  0.13157756306E+02  0.36139317215E+02  0.46180494325E+01  0.38736328947E+02  0.00000000000E+00 0.  1.
</event>
<event>
 7    1  0.1935465E-015  0.9000771E+02  0.7816164E-02  0.1186339E+00
        -11   -1    0    0    0    0  0.00000000000E+00  0.00000000000E+00  0.45593999997E+02  0.45594000000E+02  0.51100000000E-03 0. -1.
         11   -1    0    0    0    0 -0.00000000000E+00 -0.00000000000E+00 -0.45593999997E+02  0.45594000000E+02  0.51100000000E-03 0.  1.
    9900012    2    1    2    0    0  0.10544785142E+01 -0.35158403623E-01 -0.52907513858E+00  0.90007711242E+02  0.89999972230E+02 0.  0.
         12    1    1    2    0    0 -0.10544785142E+01  0.35158403623E-01  0.52907513858E+00  0.11802887581E+01  0.00000000000E+00 0. -1.
         11    1    3    3    0    0  0.40226955533E+02 -0.25577448716E+01  0.30339199118E+01  0.40422205291E+02  0.51100000000E-03 0. -1.
        -11    1    3    3    0    0  0.99439954906E+00  0.73401273202E+01 -0.52766683820E+01  0.90944779407E+01  0.51100000000E-03 0.  1.
        -12    1    3    3    0    0 -0.40166876568E+02 -0.48175408522E+01  0.17136733316E+01  0.40491028011E+02  0.00000000000E+00 0.  1.
</event>
<event>
 7    1  0.1935465E-015  0.9000807E+02  0.7816164E-02  0.1186338E+00
        -11   -1    0    0    0    0  0.00000000000E+00  0.00000000000E+00  0.45593999997E+02  0.45594000000E+02  0.51100000000E-03 0.  1.
         11   -1    0    0    0    0 -0.00000000000E+00 -0.00000000000E+00 -0.45593999997E+02  0.45594000000E+02  0.51100000000E-03 0. -1.
    9900012    2    1    2    0    0  0.51646808380E+00  0.10597851503E+01 -0.48502513689E-01  0.90008069349E+02  0.90000335064E+02 0.  0.
         12    1    1    2    0    0 -0.51646808380E+00 -0.10597851503E+01  0.48502513689E-01  0.11799306506E+01  0.00000000000E+00 0. -1.
         11    1    3    3    0    0  0.21731748383E+02  0.31300149436E+02 -0.81761203937E+01  0.38972005176E+02  0.51100000000E-03 0. -1.
        -11    1    3    3    0    0 -0.84275628722E+01  0.70257681156E+01  0.22611134190E+01  0.11202583083E+02  0.51100000000E-03 0.  1.
        -12    1    3    3    0    0 -0.12787717427E+02 -0.37266132401E+02  0.58665044610E+01  0.39833481090E+02  0.00000000000E+00 0.  1.
</event>
<event>
 7    1  0.1935465E-015  0.9000774E+02  0.7816164E-02  0.1186339E+00
        -11   -1    0    0    0    0  0.00000000000E+00  0.00000000000E+00  0.45593999997E+02  0.45594000000E+02  0.51100000000E-03 0. -1.
         11   -1    0    0    0    0 -0.00000000000E+00 -0.00000000000E+00 -0.45593999997E+02  0.45594000000E+02  0.51100000000E-03 0.  1.
    9900012    2    1    2    0    0  0.11773266092E+01 -0.67288620586E-01 -0.48978297766E-01  0.90007735378E+02  0.89999996685E+02 0.  0.
         12    1    1    2    0    0 -0.11773266092E+01  0.67288620586E-01  0.48978297766E-01  0.11802646215E+01  0.00000000000E+00 0. -1.
         11    1    3    3    0    0  0.54686329856E+01  0.98487654946E+01 -0.20624596150E+01  0.11452417580E+02  0.51100000000E-03 0. -1.
        -11    1    3    3    0    0  0.93905716707E+01  0.32018072073E+02 -0.54796695839E+01  0.33813703651E+02  0.51100000000E-03 0.  1.
         12    1    3    3    0    0 -0.13681878047E+02 -0.41934126189E+02  0.74931509011E+01  0.44741614147E+02  0.00000000000E+00 0. -1.
</event>
<event>
 7    1  0.1935465E-015  0.9000788E+02  0.7816164E-02  0.1186339E+00
        -11   -1    0    0    0    0  0.00000000000E+00  0.00000000000E+00  0.45593999997E+02  0.45594000000E+02  0.51100000000E-03 0. -1.
         11   -1    0    0    0    0 -0.00000000000E+00 -0.00000000000E+00 -0.45593999997E+02  0.45594000000E+02  0.51100000000E-03 0.  1.
    9900012    2    1    2    0    0  0.92270423180E+00  0.40857017304E+00 -0.61184965797E+00  0.90007884459E+02  0.90000147734E+02 0.  0.
         12    1    1    2    0    0 -0.92270423180E+00 -0.40857017304E+00  0.61184965797E+00  0.11801155408E+01  0.00000000000E+00 0. -1.
         11    1    3    3    0    0 -0.28344752434E+02  0.18403102810E+02  0.16236698555E+02  0.37493060209E+02  0.51100000000E-03 0. -1.
        -11    1    3    3    0    0 -0.81188456654E+01 -0.32081206451E+01 -0.68223406166E+01  0.11079351279E+02  0.51100000000E-03 0.  1.
        -12    1    3    3    0    0  0.37386302331E+02 -0.14786411992E+02 -0.10026207596E+02  0.41435472971E+02  0.00000000000E+00 0.  1.
</event>
<event>
 7    1  0.1935465E-015  0.9000774E+02  0.7816164E-02  0.1186339E+00
        -11   -1    0    0    0    0  0.00000000000E+00  0.00000000000E+00  0.45593999997E+02  0.45594000000E+02  0.51100000000E-03 0. -1.
         11   -1    0    0    0    0 -0.00000000000E+00 -0.00000000000E+00 -0.45593999997E+02  0.45594000000E+02  0.51100000000E-03 0.  1.
    9900012    2    1    2    0    0  0.30652219392E-01  0.56372621069E+00 -0.10364828835E+01  0.90007735806E+02  0.89999997119E+02 0.  0.
         12    1    1    2    0    0 -0.30652219392E-01 -0.56372621069E+00  0.10364828835E+01  0.11802641937E+01  0.00000000000E+00 0. -1.
         11    1    3    3    0    0  0.22881946866E+02  0.16374803951E+01  0.24207448896E+02  0.33350643424E+02  0.51100000000E-03 0. -1.
        -11    1    3    3    0    0  0.11292024386E+02  0.85259484594E+01 -0.20940657656E+01  0.14303381543E+02  0.51100000000E-03 0.  1.
        -12    1    3    3    0    0 -0.34143319033E+02 -0.95997026438E+01 -0.23149866014E+02  0.42353710840E+02  0.00000000000E+00 0.  1.
</event>
<event>
 7    1  0.1935465E-015  0.9000773E+02  0.7816164E-02  0.1186339E+00
        -11   -1    0    0    0    0  0.00000000000E+00  0.00000000000E+00  0.45593999997E+02  0.45594000000E+02  0.51100000000E-03 0.  1.
         11   -1    0    0    0    0 -0.00000000000E+00 -0.00000000000E+00 -0.45593999997E+02  0.45594000000E+02  0.51100000000E-03 0. -1.
    9900012    2    1    2    0    0  0.61018814171E-01 -0.90720807192E+00  0.75252759710E+00  0.90007725640E+02  0.89999986818E+02 0.  0.
         12    1    1    2    0    0 -0.61018814171E-01  0.90720807192E+00 -0.75252759710E+00  0.11802743604E+01  0.00000000000E+00 0. -1.
         11    1    3    3    0    0 -0.52544242407E+01 -0.17582415116E+01  0.92806162716E+01  0.10808803169E+02  0.51100000000E-03 0. -1.
        -11    1    3    3    0    0  0.30505902472E+02 -0.93473317192E+01  0.21672791951E+02  0.38570618443E+02  0.51100000000E-03 0.  1.
         12    1    3    3    0    0 -0.25190459417E+02  0.10198365159E+02 -0.30200880626E+02  0.40628304027E+02  0.00000000000E+00 0. -1.
</event>
<event>
 7    1  0.1935465E-015  0.9000769E+02  0.7816164E-02  0.1186339E+00
        -11   -1    0    0    0    0  0.00000000000E+00  0.00000000000E+00  0.45593999997E+02  0.45594000000E+02  0.51100000000E-03 0.  1.
         11   -1    0    0    0    0 -0.00000000000E+00 -0.00000000000E+00 -0.45593999997E+02  0.45594000000E+02  0.51100000000E-03 0. -1.
    9900012    2    1    2    0    0  0.53280282276E-01  0.30347675321E+00  0.11393827430E+01  0.90007690734E+02  0.89999951452E+02 0.  0.
         12    1    1    2    0    0 -0.53280282276E-01 -0.30347675321E+00 -0.11393827430E+01  0.11803092659E+01  0.00000000000E+00 0. -1.
         11    1    3    3    0    0 -0.26227632591E+02 -0.25162371680E+02  0.10246187670E+02  0.37762653799E+02  0.51100000000E-03 0.  1.
        -11    1    3    3    0    0  0.55805532072E+01 -0.70418005968E+01 -0.10324715162E+02  0.13686828456E+02  0.51100000000E-03 0. -1.
        -12    1    3    3    0    0  0.20700359666E+02  0.32507649030E+02  0.12179102354E+01  0.38558208479E+02  0.00000000000E+00 0.  1.
</event>
<event>
 7    1  0.1935465E-015  0.9000808E+02  0.7816164E-02  0.1186338E+00
        -11   -1    0    0    0    0  0.00000000000E+00  0.00000000000E+00  0.45593999997E+02  0.45594000000E+02  0.51100000000E-03 0. -1.
         11   -1    0    0    0    0 -0.00000000000E+00 -0.00000000000E+00 -0.45593999997E+02  0.45594000000E+02  0.51100000000E-03 0.  1.
    9900012    2    1    2    0    0 -0.44193649349E+00  0.10886865414E+01  0.10797597304E+00  0.90008082604E+02  0.90000348494E+02 0.  0.
         12    1    1    2    0    0  0.44193649349E+00 -0.10886865414E+01 -0.10797597304E+00  0.11799173956E+01  0.00000000000E+00 0. -1.
         11    1    3    3    0    0 -0.71982592812E+01 -0.32597631187E+02  0.22908404612E+02  0.40487226354E+02  0.51100000000E-03 0. -1.
        -11    1    3    3    0    0 -0.19470834889E+01 -0.22634463127E+01 -0.99111842711E+01  0.10351130240E+02  0.51100000000E-03 0.  1.
        -12    1    3    3    0    0  0.87034062765E+01  0.35949764041E+02 -0.12889244368E+02  0.39169726011E+02  0.00000000000E+00 0.  1.
</event>
<event>
 7    1  0.1935465E-015  0.9000762E+02  0.7816164E-02  0.1186339E+00
        -11   -1    0    0    0    0  0.00000000000E+00  0.00000000000E+00  0.45593999997E+02  0.45594000000E+02  0.51100000000E-03 0.  1.
         11   -1    0    0    0    0 -0.00000000000E+00 -0.00000000000E+00 -0.45593999997E+02  0.45594000000E+02  0.51100000000E-03 0. -1.
    9900012    2    1    2    0    0  0.31135259272E+00  0.35278362878E+00  0.10825395678E+01  0.90007623517E+02  0.89999883347E+02 0.  0.
         12    1    1    2    0    0 -0.31135259272E+00 -0.35278362878E+00 -0.10825395678E+01  0.11803764830E+01  0.00000000000E+00 0. -1.
         11    1    3    3    0    0  0.35483001158E+02 -0.17050632158E+02 -0.87122837532E-01  0.39367182003E+02  0.51100000000E-03 0. -1.
        -11    1    3    3    0    0 -0.30035413117E+01 -0.77984806709E+01  0.47615353385E+01  0.96182004672E+01  0.51100000000E-03 0.  1.
        -12    1    3    3    0    0 -0.32168107254E+02  0.25201896458E+02 -0.35918729331E+01  0.41022241047E+02  0.00000000000E+00 0.  1.
</event>
<event>
 7    1  0.1935465E-015  0.9000777E+02  0.7816164E-02  0.1186339E+00
        -11   -1    0    0    0    0  0.00000000000E+00  0.00000000000E+00  0.45593999997E+02  0.45594000000E+02  0.51100000000E-03 0.  1.
         11   -1    0    0    0    0 -0.00000000000E+00 -0.00000000000E+00 -0.45593999997E+02  0.45594000000E+02  0.51100000000E-03 0. -1.
    9900012    2    1    2    0    0 -0.75746800375E+00  0.51031584892E+00 -0.74750672224E+00  0.90007768522E+02  0.90000030266E+02 0.  0.
         12    1    1    2    0    0  0.75746800375E+00 -0.51031584892E+00  0.74750672224E+00  0.11802314782E+01  0.00000000000E+00 0. -1.
         11    1    3    3    0    0  0.62140319034E+01 -0.37744391669E+02  0.12498183367E+02  0.40242488525E+02  0.51100000000E-03 0. -1.
        -11    1    3    3    0    0 -0.11042039394E+02  0.43204447246E+01  0.25275159364E+01  0.12123580893E+02  0.51100000000E-03 0.  1.
        -12    1    3    3    0    0  0.40705394873E+01  0.33934262793E+02 -0.15773206026E+02  0.37641699103E+02  0.00000000000E+00 0.  1.
</event>
<event>
 7    1  0.1935465E-015  0.9000769E+02  0.7816164E-02  0.1186339E+00
        -11   -1    0    0    0    0  0.00000000000E+00  0.00000000000E+00  0.45593999997E+02  0.45594000000E+02  0.51100000000E-03 0. -1.
         11   -1    0    0    0    0 -0.00000000000E+00 -0.00000000000E+00 -0.45593999997E+02  0.45594000000E+02  0.51100000000E-03 0.  1.
    9900012    2    1    2    0    0 -0.59174895084E+00  0.14109724446E+00 -0.10114588849E+01  0.90007693121E+02  0.89999953870E+02 0.  0.
         12    1    1    2    0    0  0.59174895084E+00 -0.14109724446E+00  0.10114588849E+01  0.11803068792E+01  0.00000000000E+00 0. -1.
         11    1    3    3    0    0 -0.15221124821E+02 -0.13249208644E+02  0.26945674167E+02  0.33664425244E+02  0.51100000000E-03 0. -1.
        -11    1    3    3    0    0 -0.15848829449E+00 -0.13965350782E+02  0.79817574476E+00  0.13989039488E+02  0.51100000000E-03 0.  1.
        -12    1    3    3    0    0  0.14787864164E+02  0.27355656670E+02 -0.28755308796E+02  0.42354228388E+02  0.00000000000E+00 0.  1.
</event>
<event>
 7    1  0.1935465E-015  0.9000769E+02  0.7816164E-02  0.1186339E+00
        -11   -1    0    0    0    0  0.00000000000E+00  0.00000000000E+00  0.45593999997E+02  0.45594000000E+02  0.51100000000E-03 0. -1.
         11   -1    0    0    0    0 -0.00000000000E+00 -0.00000000000E+00 -0.45593999997E+02  0.45594000000E+02  0.51100000000E-03 0.  1.
    9900012    2    1    2    0    0 -0.41141289728E+00 -0.31394617989E-01 -0.11058454407E+01  0.90007686341E+02  0.89999947001E+02 0.  0.
         12    1    1    2    0    0  0.41141289728E+00  0.31394617989E-01  0.11058454407E+01  0.11803136586E+01  0.00000000000E+00 0. -1.
         11    1    3    3    0    0 -0.36185978334E+01 -0.43157782090E+01 -0.90945113725E+01  0.10697211281E+02  0.51100000000E-03 0. -1.
        -11    1    3    3    0    0 -0.27529558148E+02 -0.87100943352E+01  0.28147116751E+02  0.40323721266E+02  0.51100000000E-03 0.  1.
         12    1    3    3    0    0  0.30736743084E+02  0.12994477926E+02 -0.20158450819E+02  0.38986753794E+02  0.00000000000E+00 0. -1.
</event>
<event>
 7    1  0.1935465E-015  0.9000787E+02  0.7816164E-02  0.1186339E+00
        -11   -1    0    0    0    0  0.00000000000E+00  0.00000000000E+00  0.45593999997E+02  0.45594000000E+02  0.51100000000E-03 0.  1.
         11   -1    0    0    0    0 -0.00000000000E+00 -0.00000000000E+00 -0.45593999997E+02  0.45594000000E+02  0.51100000000E-03 0. -1.
    9900012    2    1    2    0    0  0.26549075090E+00  0.11075941603E+01  0.30895725098E+00  0.90007870878E+02  0.90000133973E+02 0.  0.
         12    1    1    2    0    0 -0.26549075090E+00 -0.11075941603E+01 -0.30895725098E+00  0.11801291225E+01  0.00000000000E+00 0. -1.
         11    1    3    3    0    0 -0.38576997053E+01  0.12064015486E+02  0.70716802884E+01  0.14506239314E+02  0.51100000000E-03 0. -1.
        -11    1    3    3    0    0  0.13735584489E+02  0.16626550321E+02  0.24551667472E+02  0.32678629603E+02  0.51100000000E-03 0.  1.
         12    1    3    3    0    0 -0.96123940333E+01 -0.27582971647E+02 -0.31314390510E+02  0.42823001960E+02  0.00000000000E+00 0. -1.
</event>
<event>
 7    1  0.2940077E-015  0.9000782E+02  0.7816164E-02  0.1186339E+00
        -11   -1    0    0    0    0  0.00000000000E+00  0.00000000000E+00  0.45593999997E+02  0.45594000000E+02  0.51100000000E-03 0.  1.
         11   -1    0    0    0    0 -0.00000000000E+00 -0.00000000000E+00 -0.45593999997E+02  0.45594000000E+02  0.51100000000E-03 0. -1.
    9900012    2    1    2    0    0  0.10508077911E-01  0.98554058782E+00  0.64917919122E+00  0.90007815992E+02  0.90000078363E+02 0.  0.
         12    1    1    2    0    0 -0.10508077911E-01 -0.98554058782E+00 -0.64917919122E+00  0.11801840078E+01  0.00000000000E+00 0. -1.
         11    1    3    3    0    0 -0.90481413301E+01  0.17395097646E+01  0.14223442684E+01  0.93229726605E+01  0.51100000000E-03 0. -1.
        -11    1    3    3    0    0 -0.12099550584E+02  0.49359332583E+01  0.35766970984E+02  0.38079374668E+02  0.51100000000E-03 0.  1.
         12    1    3    3    0    0  0.21158199992E+02 -0.56899024351E+01 -0.36540136062E+02  0.42605468663E+02  0.00000000000E+00 0. -1.
</event>
<event>
 7    1  0.1935465E-015  0.9000804E+02  0.7816164E-02  0.1186338E+00
        -11   -1    0    0    0    0  0.00000000000E+00  0.00000000000E+00  0.45593999997E+02  0.45594000000E+02  0.51100000000E-03 0.  1.
         11   -1    0    0    0    0 -0.00000000000E+00 -0.00000000000E+00 -0.45593999997E+02  0.45594000000E+02  0.51100000000E-03 0. -1.
    9900012    2    1    2    0    0 -0.85580399099E+00 -0.43556351819E+00 -0.68571009696E+00  0.90008036277E+02  0.90000301556E+02 0.  0.
         12    1    1    2    0    0  0.85580399099E+00  0.43556351819E+00  0.68571009696E+00  0.11799637225E+01  0.00000000000E+00 0. -1.
         11    1    3    3    0    0  0.57887140532E+00  0.25088495109E+01 -0.10030336929E+02  0.10355533648E+02  0.51100000000E-03 0. -1.
        -11    1    3    3    0    0 -0.34781912124E+02 -0.65110446344E+01  0.24305504014E+02  0.42929391317E+02  0.51100000000E-03 0.  1.
         12    1    3    3    0    0  0.33347236728E+02  0.35666316054E+01 -0.14960877182E+02  0.36723111312E+02  0.00000000000E+00 0. -1.
</event>
<event>
 7    1  0.1935465E-015  0.9000718E+02  0.7816164E-02  0.1186340E+00
        -11   -1    0    0    0    0  0.00000000000E+00  0.00000000000E+00  0.45593999997E+02  0.45594000000E+02  0.51100000000E-03 0.  1.
         11   -1    0    0    0    0 -0.00000000000E+00 -0.00000000000E+00 -0.45593999997E+02  0.45594000000E+02  0.51100000000E-03 0. -1.
    9900012    2    1    2    0    0  0.67810538127E+00  0.22034781735E+00  0.94124836140E+00  0.90007183102E+02  0.89999437117E+02 0.  0.
         12    1    1    2    0    0 -0.67810538127E+00 -0.22034781735E+00 -0.94124836140E+00  0.11808168980E+01  0.00000000000E+00 0. -1.
         11    1    3    3    0    0  0.12214597067E+02  0.22178932218E+02 -0.28062854493E+02  0.37797158867E+02  0.51100000000E-03 0. -1.
        -11    1    3    3    0    0  0.61512874488E+01  0.36348102755E+01 -0.28423182263E+01  0.76895354981E+01  0.51100000000E-03 0.  1.
        -12    1    3    3    0    0 -0.17687779134E+02 -0.25593394676E+02  0.31846421081E+02  0.44520488737E+02  0.00000000000E+00 0.  1.
</event>
<event>
 7    1  0.1935465E-015  0.9000774E+02  0.7816164E-02  0.1186339E+00
        -11   -1    0    0    0    0  0.00000000000E+00  0.00000000000E+00  0.45593999997E+02  0.45594000000E+02  0.51100000000E-03 0.  1.
         11   -1    0    0    0    0 -0.00000000000E+00 -0.00000000000E+00 -0.45593999997E+02  0.45594000000E+02  0.51100000000E-03 0. -1.
    9900012    2    1    2    0    0  0.51446542639E+00 -0.10261006578E+01  0.27470367058E+00  0.90007737596E+02  0.89999998933E+02 0.  0.
         12    1    1    2    0    0 -0.51446542639E+00  0.10261006578E+01 -0.27470367058E+00  0.11802624037E+01  0.00000000000E+00 0. -1.
         11    1    3    3    0    0 -0.34028110248E+02  0.18089250387E+02 -0.50373280213E+01  0.38865253639E+02  0.51100000000E-03 0. -1.
        -11    1    3    3    0    0 -0.60522464763E+01 -0.49822930265E+01  0.15733212576E+01  0.79955156965E+01  0.51100000000E-03 0.  1.
        -12    1    3    3    0    0  0.40594822150E+02 -0.14133058018E+02  0.37387104343E+01  0.43146968261E+02  0.00000000000E+00 0.  1.
</event>
<event>
 7    1  0.1935465E-015  0.9000786E+02  0.7816164E-02  0.1186339E+00
        -11   -1    0    0    0    0  0.00000000000E+00  0.00000000000E+00  0.45593999997E+02  0.45594000000E+02  0.51100000000E-03 0. -1.
         11   -1    0    0    0    0 -0.00000000000E+00 -0.00000000000E+00 -0.45593999997E+02  0.45594000000E+02  0.51100000000E-03 0.  1.
    9900012    2    1    2    0    0 -0.60255245533E+00 -0.97271057962E+00  0.28894272369E+00  0.90007863046E+02  0.90000126038E+02 0.  0.
         12    1    1    2    0    0  0.60255245533E+00  0.97271057962E+00 -0.28894272369E+00  0.11801369542E+01  0.00000000000E+00 0. -1.
         11    1    3    3    0    0  0.33136223828E+02  0.14875339201E+02  0.51177711553E+01  0.36680739194E+02  0.51100000000E-03 0. -1.
        -11    1    3    3    0    0  0.19924177728E+01  0.72416228887E+01 -0.76122856444E+01  0.10693817075E+02  0.51100000000E-03 0.  1.
        -12    1    3    3    0    0 -0.35731194056E+02 -0.23089672669E+02  0.27834572128E+01  0.42633306777E+02  0.00000000000E+00 0.  1.
</event>
<event>
 7    1  0.1935465E-015  0.9000783E+02  0.7816164E-02  0.1186339E+00
        -11   -1    0    0    0    0  0.00000000000E+00  0.00000000000E+00  0.45593999997E+02  0.45594000000E+02  0.51100000000E-03 0.  1.
         11   -1    0    0    0    0 -0.00000000000E+00 -0.00000000000E+00 -0.45593999997E+02  0.45594000000E+02  0.51100000000E-03 0. -1.
    9900012    2    1    2    0    0  0.85118707300E+00  0.40260601489E+00  0.71147438501E+00  0.90007827624E+02  0.90000090149E+02 0.  0.
         12    1    1    2    0    0 -0.85118707300E+00 -0.40260601489E+00 -0.71147438501E+00  0.11801723760E+01  0.00000000000E+00 0. -1.
         11    1    3    3    0    0  0.29218641115E+02 -0.18177805632E+02  0.94043102417E+01  0.35673556839E+02  0.51100000000E-03 0. -1.
        -11    1    3    3    0    0  0.96767759794E+01 -0.17362501821E+01  0.16834795674E+01  0.99744003211E+01  0.51100000000E-03 0.  1.
        -12    1    3    3    0    0 -0.38044230021E+02  0.20316661829E+02 -0.10376315424E+02  0.44359870464E+02  0.00000000000E+00 0.  1.
</event>
<event>
 7    1  0.1935465E-015  0.9000780E+02  0.7816164E-02  0.1186339E+00
        -11   -1    0    0    0    0  0.00000000000E+00  0.00000000000E+00  0.45593999997E+02  0.45594000000E+02  0.51100000000E-03 0. -1.
         11   -1    0    0    0    0 -0.00000000000E+00 -0.00000000000E+00 -0.45593999997E+02  0.45594000000E+02  0.51100000000E-03 0.  1.
    9900012    2    1    2    0    0 -0.94852686656E+00  0.30621215486E+00  0.63197724691E+00  0.90007803262E+02  0.90000065465E+02 0.  0.
         12    1    1    2    0    0  0.94852686656E+00 -0.30621215486E+00 -0.63197724691E+00  0.11801967382E+01  0.00000000000E+00 0. -1.
         11    1    3    3    0    0  0.86549705979E+01  0.42331235260E+01 -0.23900427092E+01  0.99267394068E+01  0.51100000000E-03 0. -1.
        -11    1    3    3    0    0 -0.37989867944E+01  0.62668271677E+01 -0.37338258869E+02  0.38050637301E+02  0.51100000000E-03 0.  1.
         12    1    3    3    0    0 -0.58045106701E+01 -0.10193738539E+02  0.40360278825E+02  0.42030426554E+02  0.00000000000E+00 0. -1.
</event>
<event>
 7    1  0.1935465E-015  0.9000776E+02  0.7816164E-02  0.1186339E+00
        -11   -1    0    0    0    0  0.00000000000E+00  0.00000000000E+00  0.45593999997E+02  0.45594000000E+02  0.51100000000E-03 0. -1.
         11   -1    0    0    0    0 -0.00000000000E+00 -0.00000000000E+00 -0.45593999997E+02  0.45594000000E+02  0.51100000000E-03 0.  1.
    9900012    2    1    2    0    0 -0.26766434633E+00 -0.99025481347E-01 -0.11452106691E+01  0.90007763700E+02  0.90000025380E+02 0.  0.
         12    1    1    2    0    0  0.26766434633E+00  0.99025481347E-01  0.11452106691E+01  0.11802363004E+01  0.00000000000E+00 0. -1.
         11    1    3    3    0    0 -0.68099286743E+01  0.66811140695E+01  0.12866674439E+02  0.16017606723E+02  0.51100000000E-03 0. -1.
        -11    1    3    3    0    0 -0.17502277863E+02 -0.32828011756E+02 -0.72104139828E+01  0.37894566317E+02  0.51100000000E-03 0.  1.
         12    1    3    3    0    0  0.24044542191E+02  0.26047872205E+02 -0.68014711250E+01  0.36095590660E+02  0.00000000000E+00 0. -1.
</event>
<event>
 7    1  0.1935465E-015  0.9000772E+02  0.7816164E-02  0.1186339E+00
        -11   -1    0    0    0    0  0.00000000000E+00  0.00000000000E+00  0.45593999997E+02  0.45594000000E+02  0.51100000000E-03 0.  1.
         11   -1    0    0    0    0 -0.00000000000E+00 -0.00000000000E+00 -0.45593999997E+02  0.45594000000E+02  0.51100000000E-03 0. -1.
    9900012    2    1    2    0    0 -0.10299821154E+01 -0.54217247777E-01  0.57380743263E+00  0.90007721373E+02  0.89999982495E+02 0.  0.
         12    1    1    2    0    0  0.10299821154E+01  0.54217247777E-01 -0.57380743263E+00  0.11802786272E+01  0.00000000000E+00 0. -1.
         11    1    3    3    0    0  0.45373313724E+01  0.23180040496E+01  0.82475531991E+01  0.96944650595E+01  0.51100000000E-03 0. -1.
        -11    1    3    3    0    0 -0.39397123673E+02  0.12996263794E+02 -0.11252231081E+02  0.42984287023E+02  0.51100000000E-03 0.  1.
         12    1    3    3    0    0  0.33829810185E+02 -0.15368485092E+02  0.35784853145E+01  0.37328969291E+02  0.00000000000E+00 0. -1.
</event>
<event>
 7    1  0.1935465E-015  0.9000778E+02  0.7816164E-02  0.1186339E+00
        -11   -1    0    0    0    0  0.00000000000E+00  0.00000000000E+00  0.45593999997E+02  0.45594000000E+02  0.51100000000E-03 0.  1.
         11   -1    0    0    0    0 -0.00000000000E+00 -0.00000000000E+00 -0.45593999997E+02  0.45594000000E+02  0.51100000000E-03 0. -1.
    9900012    2    1    2    0    0  0.10018147450E+01 -0.30628866865E+00  0.54357766317E+00  0.90007778746E+02  0.90000040626E+02 0.  0.
         12    1    1    2    0    0 -0.10018147450E+01  0.30628866865E+00 -0.54357766317E+00  0.11802212537E+01  0.00000000000E+00 0. -1.
         11    1    3    3    0    0  0.34320331682E+02  0.13531520897E+02 -0.17367681034E+02  0.40775281352E+02  0.51100000000E-03 0. -1.
        -11    1    3    3    0    0 -0.10762140727E+02  0.68581639026E+01 -0.17041411803E+01  0.12874866313E+02  0.51100000000E-03 0.  1.
        -12    1    3    3    0    0 -0.22556376210E+02 -0.20695973468E+02  0.19615399878E+02  0.36357631082E+02  0.00000000000E+00 0.  1.
</event>
<event>
 7    1  0.1935465E-015  0.9000775E+02  0.7816164E-02  0.1186339E+00
        -11   -1    0    0    0    0  0.00000000000E+00  0.00000000000E+00  0.45593999997E+02  0.45594000000E+02  0.51100000000E-03 0. -1.
         11   -1    0    0    0    0 -0.00000000000E+00 -0.00000000000E+00 -0.45593999997E+02  0.45594000000E+02  0.51100000000E-03 0.  1.
    9900012    2    1    2    0    0  0.26162333558E+00  0.88218797449E+00 -0.73911252034E+00  0.90007750149E+02  0.90000011651E+02 0.  0.
         12    1    1    2    0    0 -0.26162333558E+00 -0.88218797449E+00  0.73911252034E+00  0.11802498506E+01  0.00000000000E+00 0. -1.
         11    1    3    3    0    0 -0.34717887162E+02  0.12238050993E+01  0.16883927022E+02  0.38625074496E+02  0.51100000000E-03 0. -1.
        -11    1    3    3    0    0  0.30050528660E-02  0.88422191404E+01  0.34926405072E+01  0.95070177412E+01  0.51100000000E-03 0.  1.
        -12    1    3    3    0    0  0.34976505444E+02 -0.91838362652E+01 -0.21115680049E+02  0.41875657912E+02  0.00000000000E+00 0.  1.
</event>
<event>
 7    1  0.1935465E-015  0.9000786E+02  0.7816164E-02  0.1186339E+00
        -11   -1    0    0    0    0  0.00000000000E+00  0.00000000000E+00  0.45593999997E+02  0.45594000000E+02  0.51100000000E-03 0.  1.
         11   -1    0    0    0    0 -0.00000000000E+00 -0.00000000000E+00 -0.45593999997E+02  0.45594000000E+02  0.51100000000E-03 0. -1.
    9900012    2    1    2    0    0 -0.96754729324E+00 -0.52202090706E-01  0.67369337795E+00  0.90007857809E+02  0.90000120732E+02 0.  0.
         12    1    1    2    0    0  0.96754729324E+00  0.52202090706E-01 -0.67369337795E+00  0.11801421908E+01  0.00000000000E+00 0. -1.
         11    1    3    3    0    0 -0.35775726806E+02 -0.18813044113E+02 -0.13341192493E+02  0.42565486896E+02  0.51100000000E-03 0. -1.
        -11    1    3    3    0    0  0.12457684494E+01  0.81181497904E+01 -0.24536865951E+01  0.85718652122E+01  0.51100000000E-03 0.  1.
        -12    1    3    3    0    0  0.33562411064E+02  0.10642692231E+02  0.16468572466E+02  0.38870505701E+02  0.00000000000E+00 0.  1.
</event>
<event>
 7    1  0.1935465E-015  0.9000773E+02  0.7816164E-02  0.1186339E+00
        -11   -1    0    0    0    0  0.00000000000E+00  0.00000000000E+00  0.45593999997E+02  0.45594000000E+02  0.51100000000E-03 0. -1.
         11   -1    0    0    0    0 -0.00000000000E+00 -0.00000000000E+00 -0.45593999997E+02  0.45594000000E+02  0.51100000000E-03 0.  1.
    9900012    2    1    2    0    0  0.89225058033E+00 -0.66689139888E+00 -0.39011678327E+00  0.90007726159E+02  0.89999987344E+02 0.  0.
         12    1    1    2    0    0 -0.89225058033E+00  0.66689139888E+00  0.39011678327E+00  0.11802738414E+01  0.00000000000E+00 0. -1.
         11    1    3    3    0    0 -0.42462583700E+01 -0.98318261353E+01  0.36699902579E+02  0.38230594618E+02  0.51100000000E-03 0. -1.
        -11    1    3    3    0    0  0.28189792939E+01 -0.74517067035E+01  0.28458299457E+01  0.84601019731E+01  0.51100000000E-03 0.  1.
        -12    1    3    3    0    0  0.23195296565E+01  0.16616641440E+02 -0.39935849308E+02  0.43317029567E+02  0.00000000000E+00 0.  1.
</event>
<event>
 7    1  0.1935465E-015  0.9000761E+02  0.7816164E-02  0.1186339E+00
        -11   -1    0    0    0    0  0.00000000000E+00  0.00000000000E+00  0.45593999997E+02  0.45594000000E+02  0.51100000000E-03 0.  1.
         11   -1    0    0    0    0 -0.00000000000E+00 -0.00000000000E+00 -0.45593999997E+02  0.45594000000E+02  0.51100000000E-03 0. -1.
    9900012    2    1    2    0    0 -0.16752448053E+00 -0.10602754443E+01  0.49098653735E+00  0.90007611823E+02  0.89999871499E+02 0.  0.
         12    1    1    2    0    0  0.16752448053E+00  0.10602754443E+01 -0.49098653735E+00  0.11803881774E+01  0.00000000000E+00 0. -1.
         11    1    3    3    0    0  0.11819829612E+02 -0.66517921763E+01  0.91013179740E+01  0.16333667694E+02  0.51100000000E-03 0. -1.
        -11    1    3    3    0    0 -0.99795546831E+01  0.38110924942E+02  0.18933933430E+01  0.39441336821E+02  0.51100000000E-03 0.  1.
         12    1    3    3    0    0 -0.20077994091E+01 -0.32519408210E+02 -0.10503724780E+02  0.34232607308E+02  0.00000000000E+00 0. -1.
</event>
<event>
 7    1  0.1935465E-015  0.9000779E+02  0.7816164E-02  0.1186339E+00
        -11   -1    0    0    0    0  0.00000000000E+00  0.00000000000E+00  0.45593999997E+02  0.45594000000E+02  0.51100000000E-03 0.  1.
         11   -1    0    0    0    0 -0.00000000000E+00 -0.00000000000E+00 -0.45593999997E+02  0.45594000000E+02  0.51100000000E-03 0. -1.
    9900012    2    1    2    0    0  0.43627015897E+00 -0.87197997193E+00  0.66499357240E+00  0.90007789352E+02  0.90000051371E+02 0.  0.
         12    1    1    2    0    0 -0.43627015897E+00  0.87197997193E+00 -0.66499357240E+00  0.11802106483E+01  0.00000000000E+00 0. -1.
         11    1    3    3    0    0 -0.56460681974E+01 -0.49381755934E+01  0.89337222521E+00  0.75539247068E+01  0.51100000000E-03 0. -1.
        -11    1    3    3    0    0  0.65984773447E+01 -0.38800897825E+02 -0.31527334289E+01  0.39484038594E+02  0.51100000000E-03 0.  1.
         12    1    3    3    0    0 -0.51613898835E+00  0.42867093447E+02  0.29243547761E+01  0.42969826051E+02  0.00000000000E+00 0. -1.
</event>
<event>
 7    1  0.1935465E-015  0.9000760E+02  0.7816164E-02  0.1186339E+00
        -11   -1    0    0    0    0  0.00000000000E+00  0.00000000000E+00  0.45593999997E+02  0.45594000000E+02  0.51100000000E-03 0.  1.
         11   -1    0    0    0    0 -0.00000000000E+00 -0.00000000000E+00 -0.45593999997E+02  0.45594000000E+02  0.51100000000E-03 0. -1.
    9900012    2    1    2    0    0  0.68153055521E+00 -0.86191719236E+00  0.43123649473E+00  0.90007597501E+02  0.89999856988E+02 0.  0.
         12    1    1    2    0    0 -0.68153055521E+00  0.86191719236E+00 -0.43123649473E+00  0.11804024985E+01  0.00000000000E+00 0. -1.
         11    1    3    3    0    0  0.81353045191E+01 -0.29360940162E+01  0.87852025247E+00  0.86934242843E+01  0.51100000000E-03 0. -1.
        -11    1    3    3    0    0  0.48929460401E+01  0.16875821578E+02  0.36013896858E+02  0.40071623900E+02  0.51100000000E-03 0.  1.
         12    1    3    3    0    0 -0.12346720004E+02 -0.14801644754E+02 -0.36461180615E+02  0.41242549317E+02  0.00000000000E+00 0. -1.
</event>
<event>
 7    1  0.1935465E-015  0.9000778E+02  0.7816164E-02  0.1186339E+00
        -11   -1    0    0    0    0  0.00000000000E+00  0.00000000000E+00  0.45593999997E+02  0.45594000000E+02  0.51100000000E-03 0. -1.
         11   -1    0    0    0    0 -0.00000000000E+00 -0.00000000000E+00 -0.45593999997E+02  0.45594000000E+02  0.51100000000E-03 0.  1.
    9900012    2    1    2    0    0  0.63517362420E+00 -0.79855371302E+00 -0.59312009032E+00  0.90007777560E+02  0.90000039424E+02 0.  0.
         12    1    1    2    0    0 -0.63517362420E+00  0.79855371302E+00  0.59312009032E+00  0.11802224396E+01  0.00000000000E+00 0. -1.
         11    1    3    3    0    0 -0.27164509381E+01  0.60603498866E+01  0.82204996011E+01  0.10568044303E+02  0.51100000000E-03 0. -1.
        -11    1    3    3    0    0 -0.31300045656E+02 -0.23590133157E+02 -0.11556902571E+02  0.40862565237E+02  0.51100000000E-03 0.  1.
         12    1    3    3    0    0  0.34651670219E+02  0.16731229557E+02  0.27432828796E+01  0.38577168020E+02  0.00000000000E+00 0. -1.
</event>
<event>
 7    1  0.1935465E-015  0.9000780E+02  0.7816164E-02  0.1186339E+00
        -11   -1    0    0    0    0  0.00000000000E+00  0.00000000000E+00  0.45593999997E+02  0.45594000000E+02  0.51100000000E-03 0. -1.
         11   -1    0    0    0    0 -0.00000000000E+00 -0.00000000000E+00 -0.45593999997E+02  0.45594000000E+02  0.51100000000E-03 0.  1.
    9900012    2    1    2    0    0 -0.27650681179E-02  0.51117505014E+00 -0.10637551944E+01  0.90007795488E+02  0.90000057588E+02 0.  0.
         12    1    1    2    0    0  0.27650681179E-02 -0.51117505014E+00  0.10637551944E+01  0.11802045124E+01  0.00000000000E+00 0. -1.
         11    1    3    3    0    0 -0.11869334854E+02 -0.14705906107E+02  0.35481080192E+02  0.40200147216E+02  0.51100000000E-03 0. -1.
        -11    1    3    3    0    0  0.23152998247E+01 -0.75937641047E+01 -0.38766568483E+01  0.88348364522E+01  0.51100000000E-03 0.  1.
        -12    1    3    3    0    0  0.95512699616E+01  0.22810845262E+02 -0.32668178538E+02  0.40972811820E+02  0.00000000000E+00 0.  1.
</event>
<event>
 7    1  0.1935465E-015  0.9000775E+02  0.7816164E-02  0.1186339E+00
        -11   -1    0    0    0    0  0.00000000000E+00  0.00000000000E+00  0.45593999997E+02  0.45594000000E+02  0.51100000000E-03 0.  1.
         11   -1    0    0    0    0 -0.00000000000E+00 -0.00000000000E+00 -0.45593999997E+02  0.45594000000E+02  0.51100000000E-03 0. -1.
    9900012    2    1    2    0    0  0.25654898993E-01  0.11739750039E+01  0.11879425239E+00  0.90007751061E+02  0.90000012575E+02 0.  0.
         12    1    1    2    0    0 -0.25654898993E-01 -0.11739750039E+01 -0.11879425239E+00  0.11802489390E+01  0.00000000000E+00 0. -1.
         11    1    3    3    0    0 -0.11035372112E+02  0.34431841145E+01 -0.14879350325E+02  0.18842240335E+02  0.51100000000E-03 0. -1.
        -11    1    3    3    0    0  0.20027004500E+02 -0.14100687758E+02 -0.20976798512E+02  0.32248044601E+02  0.51100000000E-03 0.  1.
        -12    1    3    3    0    0 -0.89659774891E+01  0.11831478648E+02  0.35974943090E+02  0.38917466125E+02  0.00000000000E+00 0.  1.
</event>
<event>
 7    1  0.1935465E-015  0.9000904E+02  0.7816164E-02  0.1186336E+00
        -11   -1    0    0    0    0  0.00000000000E+00  0.00000000000E+00  0.45593999997E+02  0.45594000000E+02  0.51100000000E-03 0. -1.
         11   -1    0    0    0    0 -0.00000000000E+00 -0.00000000000E+00 -0.45593999997E+02  0.45594000000E+02  0.51100000000E-03 0.  1.
    9900012    2    1    2    0    0 -0.81387758402E+00  0.62841215972E+00 -0.57674996730E+00  0.90009043220E+02  0.90001321781E+02 0.  0.
         12    1    1    2    0    0  0.81387758402E+00 -0.62841215972E+00  0.57674996730E+00  0.11789567800E+01  0.00000000000E+00 0. -1.
         11    1    3    3    0    0 -0.90229761170E+01  0.48549753634E+01  0.10898464682E+01  0.10304011324E+02  0.51100000000E-03 0. -1.
        -11    1    3    3    0    0 -0.23724869422E+02 -0.22033768720E+02  0.19163630826E+02  0.37624475276E+02  0.51100000000E-03 0.  1.
         12    1    3    3    0    0  0.31933967955E+02  0.17807205516E+02 -0.20830227261E+02  0.42080556620E+02  0.00000000000E+00 0. -1.
</event>
<event>
 7    1  0.1935465E-015  0.9000765E+02  0.7816164E-02  0.1186339E+00
        -11   -1    0    0    0    0  0.00000000000E+00  0.00000000000E+00  0.45593999997E+02  0.45594000000E+02  0.51100000000E-03 0. -1.
         11   -1    0    0    0    0 -0.00000000000E+00 -0.00000000000E+00 -0.45593999997E+02  0.45594000000E+02  0.51100000000E-03 0.  1.
    9900012    2    1    2    0    0  0.60865711966E+00  0.48256306166E+00  0.88876210282E+00  0.90007648920E+02  0.89999909085E+02 0.  0.
         12    1    1    2    0    0 -0.60865711966E+00 -0.48256306166E+00 -0.88876210282E+00  0.11803510805E+01  0.00000000000E+00 0. -1.
         11    1    3    3    0    0  0.92341625042E+01  0.49423854489E+01  0.90105092216E+00  0.10512317732E+02  0.51100000000E-03 0. -1.
        -11    1    3    3    0    0  0.43691364743E+01 -0.24387690201E+02 -0.31471296108E+02  0.40053604904E+02  0.51100000000E-03 0.  1.
         12    1    3    3    0    0 -0.12994641859E+02  0.19927867813E+02  0.31459007288E+02  0.39441726283E+02  0.00000000000E+00 0. -1.
</event>
<event>
 7    1  0.1935465E-015  0.9000787E+02  0.7816164E-02  0.1186339E+00
        -11   -1    0    0    0    0  0.00000000000E+00  0.00000000000E+00  0.45593999997E+02  0.45594000000E+02  0.51100000000E-03 0.  1.
         11   -1    0    0    0    0 -0.00000000000E+00 -0.00000000000E+00 -0.45593999997E+02  0.45594000000E+02  0.51100000000E-03 0. -1.
    9900012    2    1    2    0    0  0.68446910821E+00 -0.58884176569E+00  0.75991457863E+00  0.90007871722E+02  0.90000134829E+02 0.  0.
         12    1    1    2    0    0 -0.68446910821E+00  0.58884176569E+00 -0.75991457863E+00  0.11801282777E+01  0.00000000000E+00 0. -1.
         11    1    3    3    0    0  0.42870176440E+01  0.41543799422E+02  0.14054072921E+02  0.44065664146E+02  0.51100000000E-03 0. -1.
        -11    1    3    3    0    0 -0.40019497852E+01 -0.52375335126E+01  0.35568191668E+00  0.66010506183E+01  0.51100000000E-03 0.  1.
        -12    1    3    3    0    0  0.39940124936E+00 -0.36895107675E+02 -0.13649840259E+02  0.39341156958E+02  0.00000000000E+00 0.  1.
</event>
<event>
 7    1  0.1935465E-015  0.9000779E+02  0.7816164E-02  0.1186339E+00
        -11   -1    0    0    0    0  0.00000000000E+00  0.00000000000E+00  0.45593999997E+02  0.45594000000E+02  0.51100000000E-03 0.  1.
         11   -1    0    0    0    0 -0.00000000000E+00 -0.00000000000E+00 -0.45593999997E+02  0.45594000000E+02  0.51100000000E-03 0. -1.
    9900012    2    1    2    0    0 -0.77499477442E+00 -0.50228733467E+00  0.73483645812E+00  0.90007790660E+02  0.90000052696E+02 0.  0.
         12    1    1    2    0    0  0.77499477442E+00  0.50228733467E+00 -0.73483645812E+00  0.11802093404E+01  0.00000000000E+00 0. -1.
         11    1    3    3    0    0 -0.15291415347E+02 -0.32018657341E+02  0.17236505647E+02  0.39447673295E+02  0.51100000000E-03 0. -1.
        -11    1    3    3    0    0  0.70538881437E+01 -0.50518927142E+01  0.20000661440E+01  0.89038880710E+01  0.51100000000E-03 0.  1.
        -12    1    3    3    0    0  0.74625324294E+01  0.36568262720E+02 -0.18501735333E+02  0.41656229294E+02  0.00000000000E+00 0.  1.
</event>
<event>
 7    1  0.1935465E-015  0.9000788E+02  0.7816164E-02  0.1186339E+00
        -11   -1    0    0    0    0  0.00000000000E+00  0.00000000000E+00  0.45593999997E+02  0.45594000000E+02  0.51100000000E-03 0. -1.
         11   -1    0    0    0    0 -0.00000000000E+00 -0.00000000000E+00 -0.45593999997E+02  0.45594000000E+02  0.51100000000E-03 0.  1.
    9900012    2    1    2    0    0 -0.21484221883E+00 -0.70379063640E+00 -0.92261179117E+00  0.90007876720E+02  0.90000139893E+02 0.  0.
         12    1    1    2    0    0  0.21484221883E+00  0.70379063640E+00  0.92261179117E+00  0.11801232800E+01  0.00000000000E+00 0. -1.
         11    1    3    3    0    0 -0.32634825679E+02  0.18497450017E+02  0.10611113473E+02  0.38984397310E+02  0.51100000000E-03 0. -1.
        -11    1    3    3    0    0  0.28199137751E+01  0.18569270481E+01  0.87773573277E+01  0.94043656714E+01  0.51100000000E-03 0.  1.
        -12    1    3    3    0    0  0.29600069685E+02 -0.21058167702E+02 -0.20311082592E+02  0.41619113738E+02  0.00000000000E+00 0.  1.
</event>
<event>
 7    1  0.1935465E-015  0.9000773E+02  0.7816164E-02  0.1186339E+00
        -11   -1    0    0    0    0  0.00000000000E+00  0.00000000000E+00  0.45593999997E+02  0.45594000000E+02  0.51100000000E-03 0.  1.
         11   -1    0    0    0    0 -0.00000000000E+00 -0.00000000000E+00 -0.45593999997E+02  0.45594000000E+02  0.51100000000E-03 0. -1.
    9900012    2    1    2    0    0  0.33016272413E+00  0.33551901718E-01  0.11326509472E+01  0.90007732521E+02  0.89999993790E+02 0.  0.
         12    1    1    2    0    0 -0.33016272413E+00 -0.33551901718E-01 -0.11326509472E+01  0.11802674793E+01  0.00000000000E+00 0. -1.
         11    1    3    3    0    0  0.64193266649E+01 -0.62084432988E+01 -0.20421432864E+01  0.91609427729E+01  0.51100000000E-03 0. -1.
        -11    1    3    3    0    0 -0.31842516275E+02 -0.13023209581E+02  0.24519645492E+02  0.42246453648E+02  0.51100000000E-03 0.  1.
         12    1    3    3    0    0  0.25753352334E+02  0.19265204782E+02 -0.21344851259E+02  0.38600336100E+02  0.00000000000E+00 0. -1.
</event>
<event>
 7    1  0.1935465E-015  0.9000814E+02  0.7816164E-02  0.1186338E+00
        -11   -1    0    0    0    0  0.00000000000E+00  0.00000000000E+00  0.45593999997E+02  0.45594000000E+02  0.51100000000E-03 0. -1.
         11   -1    0    0    0    0 -0.00000000000E+00 -0.00000000000E+00 -0.45593999997E+02  0.45594000000E+02  0.51100000000E-03 0.  1.
    9900012    2    1    2    0    0 -0.35605405968E+00  0.10079517199E+01 -0.49932776800E+00  0.90008140100E+02  0.90000406749E+02 0.  0.
         12    1    1    2    0    0  0.35605405968E+00 -0.10079517199E+01  0.49932776800E+00  0.11798598997E+01  0.00000000000E+00 0. -1.
         11    1    3    3    0    0  0.15087704082E+01 -0.25215295776E+02  0.27752996772E+02  0.37527541344E+02  0.51100000000E-03 0. -1.
        -11    1    3    3    0    0  0.31449735541E+01  0.32597028702E+01  0.80482588031E+01  0.92353122027E+01  0.51100000000E-03 0.  1.
        -12    1    3    3    0    0 -0.50097980220E+01  0.22963544626E+02 -0.36300583343E+02  0.43245286553E+02  0.00000000000E+00 0.  1.
</event>
<event>
 7    1  0.1935465E-015  0.9000789E+02  0.7816164E-02  0.1186339E+00
        -11   -1    0    0    0    0  0.00000000000E+00  0.00000000000E+00  0.45593999997E+02  0.45594000000E+02  0.51100000000E-03 0.  1.
         11   -1    0    0    0    0 -0.00000000000E+00 -0.00000000000E+00 -0.45593999997E+02  0.45594000000E+02  0.51100000000E-03 0. -1.
    9900012    2    1    2    0    0 -0.94706551468E+00 -0.13681342684E+00  0.69065687416E+00  0.90007890717E+02  0.90000154074E+02 0.  0.
         12    1    1    2    0    0  0.94706551468E+00  0.13681342684E+00 -0.69065687416E+00  0.11801092834E+01  0.00000000000E+00 0. -1.
         11    1    3    3    0    0 -0.37145601794E+02 -0.14791133616E+02  0.31158358460E+01  0.40103388879E+02  0.51100000000E-03 0. -1.
        -11    1    3    3    0    0 -0.17154797974E+00  0.76951921516E+01 -0.94771717609E+01  0.12209102989E+02  0.51100000000E-03 0.  1.
        -12    1    3    3    0    0  0.36370084259E+02  0.69591280373E+01  0.70519927890E+01  0.37695398849E+02  0.00000000000E+00 0.  1.
</event>
<event>
 7    1  0.1935465E-015  0.9000772E+02  0.7816164E-02  0.1186339E+00
        -11   -1    0    0    0    0  0.00000000000E+00  0.00000000000E+00  0.45593999997E+02  0.45594000000E+02  0.51100000000E-03 0. -1.
         11   -1    0    0    0    0 -0.00000000000E+00 -0.00000000000E+00 -0.45593999997E+02  0.45594000000E+02  0.51100000000E-03 0.  1.
    9900012    2    1    2    0    0 -0.23442221545E-01  0.60521478684E+00 -0.10130298144E+01  0.90007718728E+02  0.89999979815E+02 0.  0.
         12    1    1    2    0    0  0.23442221545E-01 -0.60521478684E+00  0.10130298144E+01  0.11802812719E+01  0.00000000000E+00 0. -1.
         11    1    3    3    0    0 -0.47723261906E+01 -0.11852711650E+02 -0.98423107002E+00  0.12815248019E+02  0.51100000000E-03 0. -1.
        -11    1    3    3    0    0  0.10070746914E+02 -0.31132613744E+02  0.45683225746E+01  0.33038298281E+02  0.51100000000E-03 0.  1.
         12    1    3    3    0    0 -0.53218629454E+01  0.43590540180E+02 -0.45971213190E+01  0.44154172428E+02  0.00000000000E+00 0. -1.
</event>
<event>
 7    1  0.1935465E-015  0.9000744E+02  0.7816164E-02  0.1186340E+00
        -11   -1    0    0    0    0  0.00000000000E+00  0.00000000000E+00  0.45593999997E+02  0.45594000000E+02  0.51100000000E-03 0.  1.
         11   -1    0    0    0    0 -0.00000000000E+00 -0.00000000000E+00 -0.45593999997E+02  0.45594000000E+02  0.51100000000E-03 0. -1.
    9900012    2    1    2    0    0  0.43180185230E-01  0.10041263198E+01  0.61934239542E+00  0.90007441150E+02  0.89999698573E+02 0.  0.
         12    1    1    2    0    0 -0.43180185230E-01 -0.10041263198E+01 -0.61934239542E+00  0.11805588496E+01  0.00000000000E+00 0. -1.
         11    1    3    3    0    0  0.13974851761E+02  0.36073076570E+02 -0.80856317470E+00  0.38693889823E+02  0.51100000000E-03 0. -1.
        -11    1    3    3    0    0  0.14911655714E+00  0.28492279084E+01 -0.90841655422E+01  0.95216804862E+01  0.51100000000E-03 0.  1.
        -12    1    3    3    0    0 -0.14080788133E+02 -0.37918178159E+02  0.10512071112E+02  0.41791870841E+02  0.00000000000E+00 0.  1.
</event>
<event>
 7    1  0.1935465E-015  0.9000767E+02  0.7816164E-02  0.1186339E+00
        -11   -1    0    0    0    0  0.00000000000E+00  0.00000000000E+00  0.45593999997E+02  0.45594000000E+02  0.51100000000E-03 0.  1.
         11   -1    0    0    0    0 -0.00000000000E+00 -0.00000000000E+00 -0.45593999997E+02  0.45594000000E+02  0.51100000000E-03 0. -1.
    9900012    2    1    2    0    0  0.37998570783E+00  0.71074236361E+00  0.86233898351E+00  0.90007672771E+02  0.89999933251E+02 0.  0.
         12    1    1    2    0    0 -0.37998570783E+00 -0.71074236361E+00 -0.86233898351E+00  0.11803272292E+01  0.00000000000E+00 0. -1.
         11    1    3    3    0    0 -0.13616122218E+02 -0.97529536625E+00 -0.83997878454E+00  0.13676825287E+02  0.51100000000E-03 0. -1.
        -11    1    3    3    0    0 -0.22985930101E+02  0.10950185779E+02  0.21543286643E+02  0.33352252560E+02  0.51100000000E-03 0.  1.
         12    1    3    3    0    0  0.36982038027E+02 -0.92641480492E+01 -0.19840968875E+02  0.42978594923E+02  0.00000000000E+00 0. -1.
</event>
<event>
 7    1  0.1935465E-015  0.9000775E+02  0.7816164E-02  0.1186339E+00
        -11   -1    0    0    0    0  0.00000000000E+00  0.00000000000E+00  0.45593999997E+02  0.45594000000E+02  0.51100000000E-03 0.  1.
         11   -1    0    0    0    0 -0.00000000000E+00 -0.00000000000E+00 -0.45593999997E+02  0.45594000000E+02  0.51100000000E-03 0. -1.
    9900012    2    1    2    0    0 -0.40734864813E+00  0.10974612705E+01 -0.15042797143E+00  0.90007753104E+02  0.90000014645E+02 0.  0.
         12    1    1    2    0    0  0.40734864813E+00 -0.10974612705E+01  0.15042797143E+00  0.11802468962E+01  0.00000000000E+00 0. -1.
         11    1    3    3    0    0 -0.94308946712E+01 -0.10601970318E+02  0.61343123553E+01  0.15458762475E+02  0.51100000000E-03 0. -1.
        -11    1    3    3    0    0 -0.28952445609E+02  0.18407212628E+02  0.42536919140E+01  0.34571136496E+02  0.51100000000E-03 0.  1.
         12    1    3    3    0    0  0.37975991632E+02 -0.67077810390E+01 -0.10538432241E+02  0.39977854132E+02  0.00000000000E+00 0. -1.
</event>
<event>
 7    1  0.1935465E-015  0.9000777E+02  0.7816164E-02  0.1186339E+00
        -11   -1    0    0    0    0  0.00000000000E+00  0.00000000000E+00  0.45593999997E+02  0.45594000000E+02  0.51100000000E-03 0. -1.
         11   -1    0    0    0    0 -0.00000000000E+00 -0.00000000000E+00 -0.45593999997E+02  0.45594000000E+02  0.51100000000E-03 0.  1.
    9900012    2    1    2    0    0  0.11429924051E+01 -0.28130076978E-01  0.29277070173E+00  0.90007772216E+02  0.90000034009E+02 0.  0.
         12    1    1    2    0    0 -0.11429924051E+01  0.28130076978E-01 -0.29277070173E+00  0.11802277845E+01  0.00000000000E+00 0. -1.
         11    1    3    3    0    0  0.18795077955E+01 -0.84484066461E+01 -0.20386522762E+01  0.88918067779E+01  0.51100000000E-03 0. -1.
        -11    1    3    3    0    0  0.15501309834E+02  0.31569993187E+02 -0.23918668900E+02  0.42533020098E+02  0.51100000000E-03 0.  1.
         12    1    3    3    0    0 -0.16237825225E+02 -0.23149716618E+02  0.26250091878E+02  0.38582945340E+02  0.00000000000E+00 0. -1.
</event>
<event>
 7    1  0.1935465E-015  0.9000771E+02  0.7816164E-02  0.1186339E+00
        -11   -1    0    0    0    0  0.00000000000E+00  0.00000000000E+00  0.45593999997E+02  0.45594000000E+02  0.51100000000E-03 0. -1.
         11   -1    0    0    0    0 -0.00000000000E+00 -0.00000000000E+00 -0.45593999997E+02  0.45594000000E+02  0.51100000000E-03 0.  1.
    9900012    2    1    2    0    0 -0.66073102958E+00 -0.97785772098E+00 -0.17484010009E-01  0.90007713210E+02  0.89999974224E+02 0.  0.
         12    1    1    2    0    0  0.66073102958E+00  0.97785772098E+00  0.17484010009E-01  0.11802867899E+01  0.00000000000E+00 0. -1.
         11    1    3    3    0    0 -0.80734604774E+01 -0.31777460738E+02  0.27203494433E+02  0.42603026708E+02  0.51100000000E-03 0. -1.
        -11    1    3    3    0    0 -0.73685449273E+00 -0.95582380442E+00 -0.10561485351E+02  0.10630217625E+02  0.51100000000E-03 0.  1.
        -12    1    3    3    0    0  0.81495839405E+01  0.31755426822E+02 -0.16659493093E+02  0.36774468876E+02  0.00000000000E+00 0.  1.
</event>
<event>
 7    1  0.1935465E-015  0.9000775E+02  0.7816164E-02  0.1186339E+00
        -11   -1    0    0    0    0  0.00000000000E+00  0.00000000000E+00  0.45593999997E+02  0.45594000000E+02  0.51100000000E-03 0.  1.
         11   -1    0    0    0    0 -0.00000000000E+00 -0.00000000000E+00 -0.45593999997E+02  0.45594000000E+02  0.51100000000E-03 0. -1.
    9900012    2    1    2    0    0  0.70436558659E+00  0.54067671632E-01  0.94548665281E+00  0.90007746128E+02  0.90000007576E+02 0.  0.
         12    1    1    2    0    0 -0.70436558659E+00 -0.54067671632E-01 -0.94548665281E+00  0.11802538724E+01  0.00000000000E+00 0. -1.
         11    1    3    3    0    0  0.38569944130E+02 -0.79445333175E+00  0.13434144741E+02  0.40850312012E+02  0.51100000000E-03 0. -1.
        -11    1    3    3    0    0 -0.17623336167E+01  0.95196022389E+01  0.81617550765E+00  0.97156980852E+01  0.51100000000E-03 0.  1.
        -12    1    3    3    0    0 -0.36103244927E+02 -0.86710812355E+01 -0.13304833596E+02  0.39441736030E+02  0.00000000000E+00 0.  1.
</event>
<event>
 7    1  0.1935465E-015  0.9000775E+02  0.7816164E-02  0.1186339E+00
        -11   -1    0    0    0    0  0.00000000000E+00  0.00000000000E+00  0.45593999997E+02  0.45594000000E+02  0.51100000000E-03 0. -1.
         11   -1    0    0    0    0 -0.00000000000E+00 -0.00000000000E+00 -0.45593999997E+02  0.45594000000E+02  0.51100000000E-03 0.  1.
    9900012    2    1    2    0    0  0.40410083236E+00  0.94701654136E+00 -0.57692564886E+00  0.90007753832E+02  0.90000015383E+02 0.  0.
         12    1    1    2    0    0 -0.40410083236E+00 -0.94701654136E+00  0.57692564886E+00  0.11802461678E+01  0.00000000000E+00 0. -1.
         11    1    3    3    0    0  0.37519584945E+01 -0.97823821779E+01 -0.12732602648E+01  0.10554306495E+02  0.51100000000E-03 0. -1.
        -11    1    3    3    0    0  0.14169648321E+02  0.97093833056E+01 -0.35383742313E+02  0.39332687145E+02  0.51100000000E-03 0.  1.
         12    1    3    3    0    0 -0.17517505983E+02  0.10200154137E+01  0.36080076929E+02  0.40120760193E+02  0.00000000000E+00 0. -1.
</event>
<event>
 7    1  0.1935465E-015  0.9000767E+02  0.7816164E-02  0.1186339E+00
        -11   -1    0    0    0    0  0.00000000000E+00  0.00000000000E+00  0.45593999997E+02  0.45594000000E+02  0.51100000000E-03 0.  1.
         11   -1    0    0    0    0 -0.00000000000E+00 -0.00000000000E+00 -0.45593999997E+02  0.45594000000E+02  0.51100000000E-03 0. -1.
    9900012    2    1    2    0    0 -0.61060988672E+00  0.87265977719E+00  0.50873328764E+00  0.90007665692E+02  0.89999926079E+02 0.  0.
         12    1    1    2    0    0  0.61060988672E+00 -0.87265977719E+00 -0.50873328764E+00  0.11803343079E+01  0.00000000000E+00 0. -1.
         11    1    3    3    0    0 -0.72232151413E+01  0.14823901998E+02 -0.34433025588E+02  0.38177953833E+02  0.51100000000E-03 0. -1.
        -11    1    3    3    0    0  0.36310641181E+01  0.72654116365E+01 -0.26647867725E+01  0.85482116072E+01  0.51100000000E-03 0.  1.
        -12    1    3    3    0    0  0.29815411364E+01 -0.21216653858E+02  0.37606545649E+02  0.43281500252E+02  0.00000000000E+00 0.  1.
</event>
<event>
 7    1  0.1935465E-015  0.9000773E+02  0.7816164E-02  0.1186339E+00
        -11   -1    0    0    0    0  0.00000000000E+00  0.00000000000E+00  0.45593999997E+02  0.45594000000E+02  0.51100000000E-03 0. -1.
         11   -1    0    0    0    0 -0.00000000000E+00 -0.00000000000E+00 -0.45593999997E+02  0.45594000000E+02  0.51100000000E-03 0.  1.
    9900012    2    1    2    0    0  0.91695479326E+00  0.74302737297E+00 -0.11602696351E-01  0.90007732915E+02  0.89999994189E+02 0.  0.
         12    1    1    2    0    0 -0.91695479326E+00 -0.74302737297E+00  0.11602696351E-01  0.11802670852E+01  0.00000000000E+00 0. -1.
         11    1    3    3    0    0  0.59754410110E+01 -0.77599643638E+01 -0.12096195018E+01  0.98684406977E+01  0.51100000000E-03 0. -1.
        -11    1    3    3    0    0  0.76192718196E+01  0.14192427022E+02 -0.36535218944E+02  0.39928692833E+02  0.51100000000E-03 0.  1.
         12    1    3    3    0    0 -0.12677758037E+02 -0.56894352849E+01  0.37733235749E+02  0.40210599384E+02  0.00000000000E+00 0. -1.
</event>
<event>
 7    1  0.1935465E-015  0.9000777E+02  0.7816164E-02  0.1186339E+00
        -11   -1    0    0    0    0  0.00000000000E+00  0.00000000000E+00  0.45593999997E+02  0.45594000000E+02  0.51100000000E-03 0.  1.
         11   -1    0    0    0    0 -0.00000000000E+00 -0.00000000000E+00 -0.45593999997E+02  0.45594000000E+02  0.51100000000E-03 0. -1.
    9900012    2    1    2    0    0  0.71558196917E+00  0.57510757202E+00  0.74171462234E+00  0.90007768305E+02  0.90000030046E+02 0.  0.
         12    1    1    2    0    0 -0.71558196917E+00 -0.57510757202E+00 -0.74171462234E+00  0.11802316955E+01  0.00000000000E+00 0. -1.
         11    1    3    3    0    0 -0.15962854856E+02  0.21627298777E+02 -0.25591182556E+02  0.37114167274E+02  0.51100000000E-03 0. -1.
        -11    1    3    3    0    0  0.92648884992E+01  0.46727253958E+01 -0.51355183685E+01  0.11577826683E+02  0.51100000000E-03 0.  1.
        -12    1    3    3    0    0  0.74135483262E+01 -0.25724916601E+02  0.31468415547E+02  0.41315774348E+02  0.00000000000E+00 0.  1.
</event>
<event>
 7    1  0.1935465E-015  0.9000774E+02  0.7816164E-02  0.1186339E+00
        -11   -1    0    0    0    0  0.00000000000E+00  0.00000000000E+00  0.45593999997E+02  0.45594000000E+02  0.51100000000E-03 0.  1.
         11   -1    0    0    0    0 -0.00000000000E+00 -0.00000000000E+00 -0.45593999997E+02  0.45594000000E+02  0.51100000000E-03 0. -1.
    9900012    2    1    2    0    0  0.97233091815E+00  0.26595682385E+00  0.61389051464E+00  0.90007736466E+02  0.89999997787E+02 0.  0.
         12    1    1    2    0    0 -0.97233091815E+00 -0.26595682385E+00 -0.61389051464E+00  0.11802635343E+01  0.00000000000E+00 0. -1.
         11    1    3    3    0    0 -0.24867477263E+00 -0.78690385518E+01  0.39146175448E+01  0.87924875692E+01  0.51100000000E-03 0. -1.
        -11    1    3    3    0    0  0.51705496087E+00 -0.19790104544E+02  0.31121656142E+02  0.36884591159E+02  0.51100000000E-03 0.  1.
         12    1    3    3    0    0  0.70395072991E+00  0.27925099920E+02 -0.34422383172E+02  0.44330657737E+02  0.00000000000E+00 0. -1.
</event>
<event>
 7    1  0.1935465E-015  0.9000775E+02  0.7816164E-02  0.1186339E+00
        -11   -1    0    0    0    0  0.00000000000E+00  0.00000000000E+00  0.45593999997E+02  0.45594000000E+02  0.51100000000E-03 0. -1.
         11   -1    0    0    0    0 -0.00000000000E+00 -0.00000000000E+00 -0.45593999997E+02  0.45594000000E+02  0.51100000000E-03 0.  1.
    9900012    2    1    2    0    0  0.10929023294E+01  0.98339097795E-01 -0.43460327277E+00  0.90007751685E+02  0.90000013207E+02 0.  0.
         12    1    1    2    0    0 -0.10929023294E+01 -0.98339097795E-01  0.43460327277E+00  0.11802483148E+01  0.00000000000E+00 0. -1.
         11    1    3    3    0    0 -0.77324703474E+01 -0.13165732551E+01  0.92123750497E+01  0.12099269281E+02  0.51100000000E-03 0. -1.
        -11    1    3    3    0    0 -0.27165235487E+02  0.21098808113E+02  0.41109866295E+01  0.34641159539E+02  0.51100000000E-03 0.  1.
         12    1    3    3    0    0  0.35990608164E+02 -0.19683895760E+02 -0.13757964952E+02  0.43267322866E+02  0.00000000000E+00 0. -1.
</event>
<event>
 7    1  0.1935465E-015  0.9000775E+02  0.7816164E-02  0.1186339E+00
        -11   -1    0    0    0    0  0.00000000000E+00  0.00000000000E+00  0.45593999997E+02  0.45594000000E+02  0.51100000000E-03 0. -1.
         11   -1    0    0    0    0 -0.00000000000E+00 -0.00000000000E+00 -0.45593999997E+02  0.45594000000E+02  0.51100000000E-03 0.  1.
    9900012    2    1    2    0    0  0.23508707254E+00 -0.11054072341E+01 -0.34027654271E+00  0.90007754597E+02  0.90000016158E+02 0.  0.
         12    1    1    2    0    0 -0.23508707254E+00  0.11054072341E+01  0.34027654271E+00  0.11802454026E+01  0.00000000000E+00 0. -1.
         11    1    3    3    0    0 -0.19758977468E+02  0.24695291059E+02 -0.19688069738E+02  0.37254458543E+02  0.51100000000E-03 0. -1.
        -11    1    3    3    0    0 -0.12372801311E+01  0.76799516646E+01 -0.15586908838E+01  0.79336017814E+01  0.51100000000E-03 0.  1.
        -12    1    3    3    0    0  0.21231344672E+02 -0.33480649958E+02  0.20906484079E+02  0.44819694273E+02  0.00000000000E+00 0.  1.
</event>
<event>
 7    1  0.1935465E-015  0.9000768E+02  0.7816164E-02  0.1186339E+00
        -11   -1    0    0    0    0  0.00000000000E+00  0.00000000000E+00  0.45593999997E+02  0.45594000000E+02  0.51100000000E-03 0.  1.
         11   -1    0    0    0    0 -0.00000000000E+00 -0.00000000000E+00 -0.45593999997E+02  0.45594000000E+02  0.51100000000E-03 0. -1.
    9900012    2    1    2    0    0  0.82974290204E+00  0.10050224724E+00  0.83341300149E+00  0.90007681731E+02  0.89999942330E+02 0.  0.
         12    1    1    2    0    0 -0.82974290204E+00 -0.10050224724E+00 -0.83341300149E+00  0.11803182690E+01  0.00000000000E+00 0. -1.
         11    1    3    3    0    0  0.91245971763E+00 -0.89990793321E+01 -0.20104901508E+01  0.92659636557E+01  0.51100000000E-03 0. -1.
        -11    1    3    3    0    0  0.35278596345E+02 -0.10319189027E+02  0.13261420196E+02  0.39075955371E+02  0.51100000000E-03 0.  1.
         12    1    3    3    0    0 -0.35361313161E+02  0.19418770607E+02 -0.10417517044E+02  0.41665762704E+02  0.00000000000E+00 0. -1.
</event>
<event>
 7    1  0.1935465E-015  0.9000771E+02  0.7816164E-02  0.1186339E+00
        -11   -1    0    0    0    0  0.00000000000E+00  0.00000000000E+00  0.45593999997E+02  0.45594000000E+02  0.51100000000E-03 0.  1.
         11   -1    0    0    0    0 -0.00000000000E+00 -0.00000000000E+00 -0.45593999997E+02  0.45594000000E+02  0.51100000000E-03 0. -1.
    9900012    2    1    2    0    0  0.89446405992E+00  0.23380363995E+00 -0.73372177742E+00  0.90007712856E+02  0.89999973865E+02 0.  0.
         12    1    1    2    0    0 -0.89446405992E+00 -0.23380363995E+00  0.73372177742E+00  0.11802871444E+01  0.00000000000E+00 0. -1.
         11    1    3    3    0    0 -0.14573785376E+02 -0.33903294658E+02  0.16232276309E+02  0.40315200648E+02  0.51100000000E-03 0. -1.
        -11    1    3    3    0    0 -0.11104610312E+00  0.57940537375E+01  0.72553260246E+01  0.92856419236E+01  0.51100000000E-03 0.  1.
        -12    1    3    3    0    0  0.15579295539E+02  0.28343044561E+02 -0.24221324111E+02  0.40406870284E+02  0.00000000000E+00 0.  1.
</event>
<event>
 7    1  0.1935465E-015  0.9000768E+02  0.7816164E-02  0.1186339E+00
        -11   -1    0    0    0    0  0.00000000000E+00  0.00000000000E+00  0.45593999997E+02  0.45594000000E+02  0.51100000000E-03 0.  1.
         11   -1    0    0    0    0 -0.00000000000E+00 -0.00000000000E+00 -0.45593999997E+02  0.45594000000E+02  0.51100000000E-03 0. -1.
    9900012    2    1    2    0    0  0.95176711373E+00  0.61994427014E+00  0.32087959810E+00  0.90007680021E+02  0.89999940597E+02 0.  0.
         12    1    1    2    0    0 -0.95176711373E+00 -0.61994427014E+00 -0.32087959810E+00  0.11803199792E+01  0.00000000000E+00 0. -1.
         11    1    3    3    0    0  0.84282683095E+01 -0.61473624459E+01  0.29525569390E+01  0.10841741764E+02  0.51100000000E-03 0. -1.
        -11    1    3    3    0    0  0.30603722705E+02 -0.16006514534E+02  0.17386869054E+01  0.34580621500E+02  0.51100000000E-03 0.  1.
         12    1    3    3    0    0 -0.38080223901E+02  0.22773821250E+02 -0.43703642463E+01  0.44585316757E+02  0.00000000000E+00 0. -1.
</event>
<event>
 7    1  0.1935465E-015  0.9000775E+02  0.7816164E-02  0.1186339E+00
        -11   -1    0    0    0    0  0.00000000000E+00  0.00000000000E+00  0.45593999997E+02  0.45594000000E+02  0.51100000000E-03 0.  1.
         11   -1    0    0    0    0 -0.00000000000E+00 -0.00000000000E+00 -0.45593999997E+02  0.45594000000E+02  0.51100000000E-03 0. -1.
    9900012    2    1    2    0    0  0.15185571072E+00  0.11484326576E+01  0.22592617375E+00  0.90007745637E+02  0.90000007079E+02 0.  0.
         12    1    1    2    0    0 -0.15185571072E+00 -0.11484326576E+01 -0.22592617375E+00  0.11802543632E+01  0.00000000000E+00 0. -1.
         11    1    3    3    0    0 -0.42849652086E+01 -0.54758998641E+01  0.35767828770E+01  0.78191931918E+01  0.51100000000E-03 0. -1.
        -11    1    3    3    0    0  0.41611745196E+02  0.65507436504E+01  0.88861713251E+01  0.43051290593E+02  0.51100000000E-03 0.  1.
         12    1    3    3    0    0 -0.37174924277E+02  0.73588871300E-01 -0.12237028028E+02  0.39137261852E+02  0.00000000000E+00 0. -1.
</event>
<event>
 7    1  0.1935465E-015  0.9000778E+02  0.7816164E-02  0.1186339E+00
        -11   -1    0    0    0    0  0.00000000000E+00  0.00000000000E+00  0.45593999997E+02  0.45594000000E+02  0.51100000000E-03 0. -1.
         11   -1    0    0    0    0 -0.00000000000E+00 -0.00000000000E+00 -0.45593999997E+02  0.45594000000E+02  0.51100000000E-03 0.  1.
    9900012    2    1    2    0    0 -0.73738990745E+00 -0.66715943194E+00 -0.63567356482E+00  0.90007776943E+02  0.90000038799E+02 0.  0.
         12    1    1    2    0    0  0.73738990745E+00  0.66715943194E+00  0.63567356482E+00  0.11802230570E+01  0.00000000000E+00 0. -1.
         11    1    3    3    0    0  0.45444625250E+01  0.98127607165E+01 -0.51871970486E+01  0.11993724442E+02  0.51100000000E-03 0. -1.
        -11    1    3    3    0    0  0.62847866621E+01  0.32431465298E+02 -0.19782622459E+01  0.33093987468E+02  0.51100000000E-03 0.  1.
         12    1    3    3    0    0 -0.11566639095E+02 -0.42911385446E+02  0.65297857296E+01  0.44920065033E+02  0.00000000000E+00 0. -1.
</event>
<event>
 7    1  0.1935465E-015  0.9000769E+02  0.7816164E-02  0.1186339E+00
        -11   -1    0    0    0    0  0.00000000000E+00  0.00000000000E+00  0.45593999997E+02  0.45594000000E+02  0.51100000000E-03 0.  1.
         11   -1    0    0    0    0 -0.00000000000E+00 -0.00000000000E+00 -0.45593999997E+02  0.45594000000E+02  0.51100000000E-03 0. -1.
    9900012    2    1    2    0    0 -0.31272094632E-01 -0.11588678242E+01  0.22176959867E+00  0.90007688883E+02  0.89999949576E+02 0.  0.
         12    1    1    2    0    0  0.31272094632E-01  0.11588678242E+01 -0.22176959867E+00  0.11803111169E+01  0.00000000000E+00 0. -1.
         11    1    3    3    0    0  0.73168143516E+00  0.59151784745E+00 -0.10871944271E+02  0.10912580977E+02  0.51100000000E-03 0. -1.
        -11    1    3    3    0    0 -0.34105549187E+02  0.58829243500E+01 -0.13306217953E+02  0.37079006469E+02  0.51100000000E-03 0.  1.
         12    1    3    3    0    0  0.33342595657E+02 -0.76333100217E+01  0.24399931822E+02  0.42016101437E+02  0.00000000000E+00 0. -1.
</event>
<event>
 7    1  0.1935465E-015  0.9000767E+02  0.7816164E-02  0.1186339E+00
        -11   -1    0    0    0    0  0.00000000000E+00  0.00000000000E+00  0.45593999997E+02  0.45594000000E+02  0.51100000000E-03 0. -1.
         11   -1    0    0    0    0 -0.00000000000E+00 -0.00000000000E+00 -0.45593999997E+02  0.45594000000E+02  0.51100000000E-03 0.  1.
    9900012    2    1    2    0    0  0.92438900112E+00  0.22716376669E+00 -0.69791906384E+00  0.90007665547E+02  0.89999925932E+02 0.  0.
         12    1    1    2    0    0 -0.92438900112E+00 -0.22716376669E+00  0.69791906384E+00  0.11803344534E+01  0.00000000000E+00 0. -1.
         11    1    3    3    0    0  0.20696761760E+02 -0.18232984896E+01  0.29664614147E+02  0.36216980789E+02  0.51100000000E-03 0. -1.
        -11    1    3    3    0    0  0.77425645607E+01 -0.31733234737E+01  0.41533976361E+01  0.93417343160E+01  0.51100000000E-03 0.  1.
        -12    1    3    3    0    0 -0.27514937320E+02  0.52237857300E+01 -0.34515930847E+02  0.44448950441E+02  0.00000000000E+00 0.  1.
</event>
<event>
 7    1  0.1935465E-015  0.9000763E+02  0.7816164E-02  0.1186339E+00
        -11   -1    0    0    0    0  0.00000000000E+00  0.00000000000E+00  0.45593999997E+02  0.45594000000E+02  0.51100000000E-03 0.  1.
         11   -1    0    0    0    0 -0.00000000000E+00 -0.00000000000E+00 -0.45593999997E+02  0.45594000000E+02  0.51100000000E-03 0. -1.
    9900012    2    1    2    0    0 -0.96036653797E+00  0.42773224968E+00  0.53667228101E+00  0.90007628913E+02  0.89999888815E+02 0.  0.
         12    1    1    2    0    0  0.96036653797E+00 -0.42773224968E+00 -0.53667228101E+00  0.11803710865E+01  0.00000000000E+00 0. -1.
         11    1    3    3    0    0  0.27439534819E+02  0.44582865976E+01  0.10174257881E+01  0.27817971636E+02  0.51100000000E-03 0. -1.
        -11    1    3    3    0    0  0.33964460733E+01 -0.23111164525E+02  0.69480353469E+01  0.24370822043E+02  0.51100000000E-03 0.  1.
         12    1    3    3    0    0 -0.31796347430E+02  0.19080610177E+02 -0.74287888540E+01  0.37818835234E+02  0.00000000000E+00 0. -1.
</event>
<event>
 7    1  0.1935465E-015  0.9000769E+02  0.7816164E-02  0.1186339E+00
        -11   -1    0    0    0    0  0.00000000000E+00  0.00000000000E+00  0.45593999997E+02  0.45594000000E+02  0.51100000000E-03 0. -1.
         11   -1    0    0    0    0 -0.00000000000E+00 -0.00000000000E+00 -0.45593999997E+02  0.45594000000E+02  0.51100000000E-03 0.  1.
    9900012    2    1    2    0    0  0.67665536752E+00  0.37161969592E+00 -0.89283691327E+00  0.90007694345E+02  0.89999955111E+02 0.  0.
         12    1    1    2    0    0 -0.67665536752E+00 -0.37161969592E+00  0.89283691327E+00  0.11803056547E+01  0.00000000000E+00 0. -1.
         11    1    3    3    0    0  0.37671436065E+02  0.35054900919E+01  0.15384094600E+02  0.40842330038E+02  0.51100000000E-03 0. -1.
        -11    1    3    3    0    0 -0.74948993960E+01 -0.27082074907E+01 -0.17924744122E+02  0.19616430788E+02  0.51100000000E-03 0.  1.
        -12    1    3    3    0    0 -0.29499881302E+02 -0.42566290530E+00  0.16478126081E+01  0.29548933519E+02  0.00000000000E+00 0.  1.
</event>
<event>
 7    1  0.1935465E-015  0.9000772E+02  0.7816164E-02  0.1186339E+00
        -11   -1    0    0    0    0  0.00000000000E+00  0.00000000000E+00  0.45593999997E+02  0.45594000000E+02  0.51100000000E-03 0.  1.
         11   -1    0    0    0    0 -0.00000000000E+00 -0.00000000000E+00 -0.45593999997E+02  0.45594000000E+02  0.51100000000E-03 0. -1.
    9900012    2    1    2    0    0 -0.18590716153E+00  0.76271841303E+00  0.88134616776E+00  0.90007715323E+02  0.89999976366E+02 0.  0.
         12    1    1    2    0    0  0.18590716153E+00 -0.76271841303E+00 -0.88134616776E+00  0.11802846766E+01  0.00000000000E+00 0. -1.
         11    1    3    3    0    0  0.18503982696E+01  0.74713245033E+01  0.72672452214E+00  0.77312865929E+01  0.51100000000E-03 0. -1.
        -11    1    3    3    0    0  0.35234032860E+02 -0.78265374999E+01 -0.18528037266E+02  0.40570678156E+02  0.51100000000E-03 0.  1.
         12    1    3    3    0    0 -0.37270338291E+02  0.11179314097E+01  0.18682658912E+02  0.41705750575E+02  0.00000000000E+00 0. -1.
</event>
<event>
 7    1  0.1935465E-015  0.9000791E+02  0.7816164E-02  0.1186339E+00
        -11   -1    0    0    0    0  0.00000000000E+00  0.00000000000E+00  0.45593999997E+02  0.45594000000E+02  0.51100000000E-03 0.  1.
         11   -1    0    0    0    0 -0.00000000000E+00 -0.00000000000E+00 -0.45593999997E+02  0.45594000000E+02  0.51100000000E-03 0. -1.
    9900012    2    1    2    0    0 -0.47035759108E+00 -0.10207409498E+01  0.35979819053E+00  0.90007913949E+02  0.90000177613E+02 0.  0.
         12    1    1    2    0    0  0.47035759108E+00  0.10207409498E+01 -0.35979819053E+00  0.11800860511E+01  0.00000000000E+00 0. -1.
         11    1    3    3    0    0 -0.96348538327E+01 -0.24960172232E+02  0.11534705935E+02  0.29135717728E+02  0.51100000000E-03 0. -1.
        -11    1    3    3    0    0  0.25783014032E+02 -0.30685789099E+01 -0.13139105211E+02  0.29100104383E+02  0.51100000000E-03 0.  1.
        -12    1    3    3    0    0 -0.16618517790E+02  0.27008010192E+02  0.19641974664E+01  0.31772091838E+02  0.00000000000E+00 0.  1.
</event>
<event>
 8    1  0.1935465E-015  0.9000775E+02  0.7816164E-02  0.1186339E+00
        -11   -1    0    0    0    0  0.00000000000E+00  0.00000000000E+00  0.45593999997E+02  0.45594000000E+02  0.51100000000E-03 0. -1.
         11   -1    0    0    0    0 -0.00000000000E+00 -0.00000000000E+00 -0.45593999997E+02  0.45594000000E+02  0.51100000000E-03 0.  1.
    9900012    2    1    2    0    0 -0.57324268956E+00  0.83166225982E+00 -0.61051400070E+00  0.90007747213E+02  0.90000008676E+02 0.  0.
         23    2    3    3    0    0  0.10107854211E+02  0.24925074559E+02 -0.10175072350E+02  0.61971001260E+02  0.54894852593E+02 0.  0.
         12    1    1    2    0    0  0.57324268956E+00 -0.83166225982E+00  0.61051400070E+00  0.11802527867E+01  0.00000000000E+00 0. -1.
         11    1    4    4    0    0  0.19399013843E+02  0.36169346039E+02  0.44888369472E+01  0.41287927877E+02  0.51100000000E-03 0. -1.
        -11    1    4    4    0    0 -0.92911596315E+01 -0.11244271480E+02 -0.14663909297E+02  0.20683073383E+02  0.51100000000E-03 0.  1.
        -12    1    3    3    0    0 -0.10681096901E+02 -0.24093412300E+02  0.95645583494E+01  0.28036745954E+02  0.00000000000E+00 0.  1.
</event>
<event>
 7    1  0.1935465E-015  0.9000777E+02  0.7816164E-02  0.1186339E+00
        -11   -1    0    0    0    0  0.00000000000E+00  0.00000000000E+00  0.45593999997E+02  0.45594000000E+02  0.51100000000E-03 0. -1.
         11   -1    0    0    0    0 -0.00000000000E+00 -0.00000000000E+00 -0.45593999997E+02  0.45594000000E+02  0.51100000000E-03 0.  1.
    9900012    2    1    2    0    0 -0.27622232604E+00  0.11464915320E+01  0.46967439381E-01  0.90007768012E+02  0.90000029749E+02 0.  0.
         12    1    1    2    0    0  0.27622232604E+00 -0.11464915320E+01 -0.46967439381E-01  0.11802319885E+01  0.00000000000E+00 0. -1.
         11    1    3    3    0    0  0.50229500043E+01  0.67885353920E+01 -0.69872089268E+01  0.10960626276E+02  0.51100000000E-03 0. -1.
        -11    1    3    3    0    0 -0.38628072628E+02 -0.33463652568E+01 -0.12012763481E+02  0.40591041402E+02  0.51100000000E-03 0.  1.
         12    1    3    3    0    0  0.33328900298E+02 -0.22956786033E+01  0.19046939847E+02  0.38456100333E+02  0.00000000000E+00 0. -1.
</event>
<event>
 7    1  0.1935465E-015  0.9000773E+02  0.7816164E-02  0.1186339E+00
        -11   -1    0    0    0    0  0.00000000000E+00  0.00000000000E+00  0.45593999997E+02  0.45594000000E+02  0.51100000000E-03 0.  1.
         11   -1    0    0    0    0 -0.00000000000E+00 -0.00000000000E+00 -0.45593999997E+02  0.45594000000E+02  0.51100000000E-03 0. -1.
    9900012    2    1    2    0    0  0.68992490600E+00 -0.61517662754E+00  0.73389764899E+00  0.90007726973E+02  0.89999988169E+02 0.  0.
         12    1    1    2    0    0 -0.68992490600E+00  0.61517662754E+00 -0.73389764899E+00  0.11802730270E+01  0.00000000000E+00 0. -1.
         11    1    3    3    0    0 -0.37203791897E+01 -0.53276357235E+01  0.10012936401E+02  0.11936658634E+02  0.51100000000E-03 0. -1.
        -11    1    3    3    0    0 -0.30946346635E+02 -0.13245255552E+02  0.83368646757E+01  0.34678761188E+02  0.51100000000E-03 0.  1.
         12    1    3    3    0    0  0.35356650730E+02  0.17957714648E+02 -0.17615903428E+02  0.43392307150E+02  0.00000000000E+00 0. -1.
</event>
<event>
 7    1  0.1935465E-015  0.9000781E+02  0.7816164E-02  0.1186339E+00
        -11   -1    0    0    0    0  0.00000000000E+00  0.00000000000E+00  0.45593999997E+02  0.45594000000E+02  0.51100000000E-03 0. -1.
         11   -1    0    0    0    0 -0.00000000000E+00 -0.00000000000E+00 -0.45593999997E+02  0.45594000000E+02  0.51100000000E-03 0.  1.
    9900012    2    1    2    0    0  0.27981221849E+00 -0.60624835995E-01 -0.11449343357E+01  0.90007811506E+02  0.90000073818E+02 0.  0.
         12    1    1    2    0    0 -0.27981221849E+00  0.60624835995E-01  0.11449343357E+01  0.11801884940E+01  0.00000000000E+00 0. -1.
         11    1    3    3    0    0  0.59360809128E+01  0.18013383959E+02  0.29220923318E+02  0.34836495491E+02  0.51100000000E-03 0. -1.
        -11    1    3    3    0    0  0.49706621540E+01  0.10924015490E+01  0.88720246699E+01  0.10228081218E+02  0.51100000000E-03 0.  1.
        -12    1    3    3    0    0 -0.10626930848E+02 -0.19166410344E+02 -0.39237882324E+02  0.44943234797E+02  0.00000000000E+00 0.  1.
</event>
<event>
 7    1  0.1935465E-015  0.9000772E+02  0.7816164E-02  0.1186339E+00
        -11   -1    0    0    0    0  0.00000000000E+00  0.00000000000E+00  0.45593999997E+02  0.45594000000E+02  0.51100000000E-03 0. -1.
         11   -1    0    0    0    0 -0.00000000000E+00 -0.00000000000E+00 -0.45593999997E+02  0.45594000000E+02  0.51100000000E-03 0.  1.
    9900012    2    1    2    0    0 -0.11742079225E+01  0.11794575497E+00  0.19535137017E-01  0.90007721614E+02  0.89999982740E+02 0.  0.
         12    1    1    2    0    0  0.11742079225E+01 -0.11794575497E+00 -0.19535137017E-01  0.11802783858E+01  0.00000000000E+00 0. -1.
         11    1    3    3    0    0  0.34804866893E+02 -0.12723961280E+02 -0.94553178054E+01  0.38245012553E+02  0.51100000000E-03 0. -1.
        -11    1    3    3    0    0 -0.33135500431E+00 -0.90029935999E+01  0.27291980489E+01  0.94134059803E+01  0.51100000000E-03 0.  1.
        -12    1    3    3    0    0 -0.35647719811E+02  0.21844900635E+02  0.67456548934E+01  0.42349303081E+02  0.00000000000E+00 0.  1.
</event>
<event>
 7    1  0.1935465E-015  0.9000766E+02  0.7816164E-02  0.1186339E+00
        -11   -1    0    0    0    0  0.00000000000E+00  0.00000000000E+00  0.45593999997E+02  0.45594000000E+02  0.51100000000E-03 0. -1.
         11   -1    0    0    0    0 -0.00000000000E+00 -0.00000000000E+00 -0.45593999997E+02  0.45594000000E+02  0.51100000000E-03 0.  1.
    9900012    2    1    2    0    0  0.56837322818E+00 -0.16674131410E+00 -0.10209516091E+01  0.90007664039E+02  0.89999924404E+02 0.  0.
         12    1    1    2    0    0 -0.56837322818E+00  0.16674131410E+00  0.10209516091E+01  0.11803359608E+01  0.00000000000E+00 0. -1.
         11    1    3    3    0    0  0.76977502104E+01 -0.79163111559E+00  0.75765053915E+01  0.10829841750E+02  0.51100000000E-03 0. -1.
        -11    1    3    3    0    0 -0.14529035378E+02 -0.32512219746E+02  0.14138877985E+02  0.38315077617E+02  0.51100000000E-03 0.  1.
         12    1    3    3    0    0  0.73996583960E+01  0.33137109548E+02 -0.22736334985E+02  0.40862744672E+02  0.00000000000E+00 0. -1.
</event>
<event>
 7    1  0.2360026E-015  0.9000774E+02  0.7816164E-02  0.1186339E+00
        -11   -1    0    0    0    0  0.00000000000E+00  0.00000000000E+00  0.45593999997E+02  0.45594000000E+02  0.51100000000E-03 0. -1.
         11   -1    0    0    0    0 -0.00000000000E+00 -0.00000000000E+00 -0.45593999997E+02  0.45594000000E+02  0.51100000000E-03 0.  1.
    9900012    2    1    2    0    0  0.10584684199E+01 -0.32452481341E+00 -0.40907993673E+00  0.90007738103E+02  0.89999999446E+02 0.  0.
         12    1    1    2    0    0 -0.10584684199E+01  0.32452481341E+00  0.40907993673E+00  0.11802618968E+01  0.00000000000E+00 0. -1.
         11    1    3    3    0    0 -0.35490952024E+01  0.78537988820E+01 -0.27101796693E+01  0.90345618452E+01  0.51100000000E-03 0. -1.
        -11    1    3    3    0    0 -0.26009952036E+02  0.24669093233E+02  0.37645370214E+01  0.36045159246E+02  0.51100000000E-03 0.  1.
         12    1    3    3    0    0  0.30617515658E+02 -0.32847416928E+02 -0.14634372888E+01  0.44928017012E+02  0.00000000000E+00 0. -1.
</event>
<event>
 7    1  0.1935465E-015  0.9000769E+02  0.7816164E-02  0.1186339E+00
        -11   -1    0    0    0    0  0.00000000000E+00  0.00000000000E+00  0.45593999997E+02  0.45594000000E+02  0.51100000000E-03 0.  1.
         11   -1    0    0    0    0 -0.00000000000E+00 -0.00000000000E+00 -0.45593999997E+02  0.45594000000E+02  0.51100000000E-03 0. -1.
    9900012    2    1    2    0    0  0.76439482862E+00  0.46681033387E+00  0.76871874202E+00  0.90007686547E+02  0.89999947210E+02 0.  0.
         12    1    1    2    0    0 -0.76439482862E+00 -0.46681033387E+00 -0.76871874202E+00  0.11803134525E+01  0.00000000000E+00 0. -1.
         11    1    3    3    0    0 -0.30736237012E+02  0.21294585197E+02 -0.25614726690E+01  0.37479818128E+02  0.51100000000E-03 0. -1.
        -11    1    3    3    0    0 -0.52822419807E+01  0.48622599535E+01 -0.17083314055E+01  0.73798406928E+01  0.51100000000E-03 0.  1.
        -12    1    3    3    0    0  0.36782873821E+02 -0.25690034817E+02  0.50385228165E+01  0.45148027727E+02  0.00000000000E+00 0.  1.
</event>
<event>
 7    1  0.1935465E-015  0.9000773E+02  0.7816164E-02  0.1186339E+00
        -11   -1    0    0    0    0  0.00000000000E+00  0.00000000000E+00  0.45593999997E+02  0.45594000000E+02  0.51100000000E-03 0. -1.
         11   -1    0    0    0    0 -0.00000000000E+00 -0.00000000000E+00 -0.45593999997E+02  0.45594000000E+02  0.51100000000E-03 0.  1.
    9900012    2    1    2    0    0 -0.10683333337E+01  0.49796136244E+00 -0.61155518095E-01  0.90007728155E+02  0.89999989367E+02 0.  0.
         12    1    1    2    0    0  0.10683333337E+01 -0.49796136244E+00  0.61155518095E-01  0.11802718449E+01  0.00000000000E+00 0. -1.
         11    1    3    3    0    0  0.24420071822E+02 -0.15406890298E+02 -0.21367217950E+02  0.35920331007E+02  0.51100000000E-03 0. -1.
        -11    1    3    3    0    0  0.31363186137E+01 -0.35732646161E+01 -0.76128866906E+01  0.89755645220E+01  0.51100000000E-03 0.  1.
        -12    1    3    3    0    0 -0.28624723769E+02  0.19478116277E+02  0.28918949123E+02  0.45111832626E+02  0.00000000000E+00 0.  1.
</event>
<event>
 7    1  0.1935465E-015  0.9000771E+02  0.7816164E-02  0.1186339E+00
        -11   -1    0    0    0    0  0.00000000000E+00  0.00000000000E+00  0.45593999997E+02  0.45594000000E+02  0.51100000000E-03 0. -1.
         11   -1    0    0    0    0 -0.00000000000E+00 -0.00000000000E+00 -0.45593999997E+02  0.45594000000E+02  0.51100000000E-03 0.  1.
    9900012    2    1    2    0    0  0.53483368736E+00 -0.95473295470E+00 -0.44217244227E+00  0.90007712511E+02  0.89999973516E+02 0.  0.
         12    1    1    2    0    0 -0.53483368736E+00  0.95473295470E+00  0.44217244227E+00  0.11802874890E+01  0.00000000000E+00 0. -1.
         11    1    3    3    0    0  0.15644585284E+02 -0.12487282787E+02  0.26710745930E+02  0.33378873985E+02  0.51100000000E-03 0. -1.
        -11    1    3    3    0    0 -0.27744949898E+01 -0.10848623815E+02  0.75693077135E+01  0.13516097094E+02  0.51100000000E-03 0.  1.
        -12    1    3    3    0    0 -0.12335256607E+02  0.22381173647E+02 -0.34722226086E+02  0.43112741432E+02  0.00000000000E+00 0.  1.
</event>
<event>
 7    1  0.1935465E-015  0.9000773E+02  0.7816164E-02  0.1186339E+00
        -11   -1    0    0    0    0  0.00000000000E+00  0.00000000000E+00  0.45593999997E+02  0.45594000000E+02  0.51100000000E-03 0.  1.
         11   -1    0    0    0    0 -0.00000000000E+00 -0.00000000000E+00 -0.45593999997E+02  0.45594000000E+02  0.51100000000E-03 0. -1.
    9900012    2    1    2    0    0 -0.11461361909E+01 -0.27981589413E+00  0.33293538222E-01  0.90007731572E+02  0.89999992829E+02 0.  0.
         12    1    1    2    0    0  0.11461361909E+01  0.27981589413E+00 -0.33293538222E-01  0.11802684281E+01  0.00000000000E+00 0. -1.
         11    1    3    3    0    0 -0.24640536680E+02  0.92931802064E+01  0.24792980585E+02  0.36169201440E+02  0.51100000000E-03 0. -1.
        -11    1    3    3    0    0 -0.10606162301E+02  0.19294243716E+01 -0.12515386281E+01  0.10852635918E+02  0.51100000000E-03 0.  1.
        -12    1    3    3    0    0  0.34100562790E+02 -0.11502420472E+02 -0.23508148419E+02  0.42985894214E+02  0.00000000000E+00 0.  1.
</event>
<event>
 7    1  0.1935465E-015  0.9000773E+02  0.7816164E-02  0.1186339E+00
        -11   -1    0    0    0    0  0.00000000000E+00  0.00000000000E+00  0.45593999997E+02  0.45594000000E+02  0.51100000000E-03 0.  1.
         11   -1    0    0    0    0 -0.00000000000E+00 -0.00000000000E+00 -0.45593999997E+02  0.45594000000E+02  0.51100000000E-03 0. -1.
    9900012    2    1    2    0    0  0.27758011968E+00 -0.84568419207E+00  0.77512088800E+00  0.90007726783E+02  0.89999987977E+02 0.  0.
         12    1    1    2    0    0 -0.27758011968E+00  0.84568419207E+00 -0.77512088800E+00  0.11802732169E+01  0.00000000000E+00 0. -1.
         11    1    3    3    0    0  0.50309925992E+01  0.18319219163E+01  0.72516878752E+01  0.90140890688E+01  0.51100000000E-03 0. -1.
        -11    1    3    3    0    0  0.24034274776E+02  0.28703099259E+02  0.23238056174E+01  0.37508856873E+02  0.51100000000E-03 0.  1.
         12    1    3    3    0    0 -0.28787687255E+02 -0.31380705368E+02 -0.88003726045E+01  0.43484780842E+02  0.00000000000E+00 0. -1.
</event>
<event>
 7    1  0.1935465E-015  0.9000718E+02  0.7816164E-02  0.1186340E+00
        -11   -1    0    0    0    0  0.00000000000E+00  0.00000000000E+00  0.45593999997E+02  0.45594000000E+02  0.51100000000E-03 0.  1.
         11   -1    0    0    0    0 -0.00000000000E+00 -0.00000000000E+00 -0.45593999997E+02  0.45594000000E+02  0.51100000000E-03 0. -1.
    9900012    2    1    2    0    0 -0.13717446715E+00 -0.11052353560E+01  0.39238723958E+00  0.90007182583E+02  0.89999436591E+02 0.  0.
         12    1    1    2    0    0  0.13717446715E+00  0.11052353560E+01 -0.39238723958E+00  0.11808174170E+01  0.00000000000E+00 0. -1.
         11    1    3    3    0    0  0.33866383407E+02 -0.65044442119E+01  0.29759004602E+01  0.34613519084E+02  0.51100000000E-03 0. -1.
        -11    1    3    3    0    0  0.87830075212E+01 -0.64284968569E+01 -0.15181487239E+01  0.10989611857E+02  0.51100000000E-03 0.  1.
        -12    1    3    3    0    0 -0.42786565395E+02  0.11827705713E+02 -0.10653644967E+01  0.44404051642E+02  0.00000000000E+00 0.  1.
</event>
<event>
 7    1  0.1935465E-015  0.9000768E+02  0.7816164E-02  0.1186339E+00
        -11   -1    0    0    0    0  0.00000000000E+00  0.00000000000E+00  0.45593999997E+02  0.45594000000E+02  0.51100000000E-03 0.  1.
         11   -1    0    0    0    0 -0.00000000000E+00 -0.00000000000E+00 -0.45593999997E+02  0.45594000000E+02  0.51100000000E-03 0. -1.
    9900012    2    1    2    0    0  0.70789970373E+00  0.49172552545E+00  0.80637386839E+00  0.90007680213E+02  0.89999940792E+02 0.  0.
         12    1    1    2    0    0 -0.70789970373E+00 -0.49172552545E+00 -0.80637386839E+00  0.11803197866E+01  0.00000000000E+00 0. -1.
         11    1    3    3    0    0 -0.18909880648E+02  0.25578799629E+02 -0.51490041500E+01  0.32223761739E+02  0.51100000000E-03 0. -1.
        -11    1    3    3    0    0  0.21419737994E+02 -0.15397901076E+01 -0.15012963589E+02  0.26202389305E+02  0.51100000000E-03 0.  1.
        -12    1    3    3    0    0 -0.18019576420E+01 -0.23547283996E+02  0.20968341607E+02  0.31581529170E+02  0.00000000000E+00 0.  1.
</event>
<event>
 7    1  0.1935465E-015  0.9000814E+02  0.7816164E-02  0.1186338E+00
        -11   -1    0    0    0    0  0.00000000000E+00  0.00000000000E+00  0.45593999997E+02  0.45594000000E+02  0.51100000000E-03 0.  1.
         11   -1    0    0    0    0 -0.00000000000E+00 -0.00000000000E+00 -0.45593999997E+02  0.45594000000E+02  0.51100000000E-03 0. -1.
    9900012    2    1    2    0    0  0.70192691957E+00 -0.41208003864E+00  0.85414254955E+00  0.90008139477E+02  0.90000406117E+02 0.  0.
         12    1    1    2    0    0 -0.70192691957E+00  0.41208003864E+00 -0.85414254955E+00  0.11798605230E+01  0.00000000000E+00 0. -1.
         11    1    3    3    0    0 -0.43422442273E+01  0.48562066718E+01 -0.30018050923E+02  0.30716790354E+02  0.51100000000E-03 0. -1.
        -11    1    3    3    0    0  0.18375227490E+02  0.12989050729E+02  0.19562592534E+01  0.22587416291E+02  0.51100000000E-03 0.  1.
        -12    1    3    3    0    0 -0.13331056343E+02 -0.18257337440E+02  0.28915934219E+02  0.36703932833E+02  0.00000000000E+00 0.  1.
</event>
<event>
 7    1  0.1935465E-015  0.9000774E+02  0.7816164E-02  0.1186339E+00
        -11   -1    0    0    0    0  0.00000000000E+00  0.00000000000E+00  0.45593999997E+02  0.45594000000E+02  0.51100000000E-03 0.  1.
         11   -1    0    0    0    0 -0.00000000000E+00 -0.00000000000E+00 -0.45593999997E+02  0.45594000000E+02  0.51100000000E-03 0. -1.
    9900012    2    1    2    0    0 -0.63252119520E+00 -0.52154018878E+00 -0.84907583926E+00  0.90007738583E+02  0.89999999933E+02 0.  0.
         12    1    1    2    0    0  0.63252119520E+00  0.52154018878E+00  0.84907583926E+00  0.11802614167E+01  0.00000000000E+00 0. -1.
         11    1    3    3    0    0  0.15953616121E+02 -0.35764317580E+02 -0.13126702912E+02  0.41302719147E+02  0.51100000000E-03 0. -1.
        -11    1    3    3    0    0 -0.51542126205E+01 -0.27324498390E+01  0.63209450903E+01  0.86015427079E+01  0.51100000000E-03 0.  1.
        -12    1    3    3    0    0 -0.11431924695E+02  0.37975227231E+02  0.59566819829E+01  0.40103476728E+02  0.00000000000E+00 0.  1.
</event>
<event>
 7    1  0.1935465E-015  0.9000752E+02  0.7816164E-02  0.1186339E+00
        -11   -1    0    0    0    0  0.00000000000E+00  0.00000000000E+00  0.45593999997E+02  0.45594000000E+02  0.51100000000E-03 0. -1.
         11   -1    0    0    0    0 -0.00000000000E+00 -0.00000000000E+00 -0.45593999997E+02  0.45594000000E+02  0.51100000000E-03 0.  1.
    9900012    2    1    2    0    0 -0.96623029450E+00 -0.31662675474E+00 -0.59974164637E+00  0.90007515554E+02  0.89999773959E+02 0.  0.
         12    1    1    2    0    0  0.96623029450E+00  0.31662675474E+00  0.59974164637E+00  0.11804844456E+01  0.00000000000E+00 0. -1.
         11    1    3    3    0    0  0.80842411926E+01  0.33687436629E+02  0.11530747417E+02  0.36512415403E+02  0.51100000000E-03 0. -1.
        -11    1    3    3    0    0 -0.51439571377E+01  0.81414122767E+01 -0.38230901878E+01  0.10361414370E+02  0.51100000000E-03 0.  1.
        -12    1    3    3    0    0 -0.39065143494E+01 -0.42145475661E+02 -0.83073988760E+01  0.43133685782E+02  0.00000000000E+00 0.  1.
</event>
<event>
 7    1  0.1935465E-015  0.9000795E+02  0.7816164E-02  0.1186339E+00
        -11   -1    0    0    0    0  0.00000000000E+00  0.00000000000E+00  0.45593999997E+02  0.45594000000E+02  0.51100000000E-03 0.  1.
         11   -1    0    0    0    0 -0.00000000000E+00 -0.00000000000E+00 -0.45593999997E+02  0.45594000000E+02  0.51100000000E-03 0. -1.
    9900012    2    1    2    0    0 -0.96084803549E+00 -0.52803866897E-01 -0.68301722241E+00  0.90007945034E+02  0.90000209109E+02 0.  0.
         12    1    1    2    0    0  0.96084803549E+00  0.52803866897E-01  0.68301722241E+00  0.11800549656E+01  0.00000000000E+00 0. -1.
         11    1    3    3    0    0  0.94166716989E+00 -0.55569754364E+01  0.69354741480E+01  0.89368627033E+01  0.51100000000E-03 0. -1.
        -11    1    3    3    0    0 -0.11134764666E+02 -0.12190075380E+02  0.32393251328E+02  0.36357992984E+02  0.51100000000E-03 0.  1.
         12    1    3    3    0    0  0.92322494605E+01  0.17694246949E+02 -0.40011742699E+02  0.44713089347E+02  0.00000000000E+00 0. -1.
</event>
<event>
 7    1  0.1935465E-015  0.9000771E+02  0.7816164E-02  0.1186339E+00
        -11   -1    0    0    0    0  0.00000000000E+00  0.00000000000E+00  0.45593999997E+02  0.45594000000E+02  0.51100000000E-03 0. -1.
         11   -1    0    0    0    0 -0.00000000000E+00 -0.00000000000E+00 -0.45593999997E+02  0.45594000000E+02  0.51100000000E-03 0.  1.
    9900012    2    1    2    0    0 -0.12785181446E+00 -0.10769694717E+01 -0.46571111473E+00  0.90007705049E+02  0.89999965955E+02 0.  0.
         12    1    1    2    0    0  0.12785181446E+00  0.10769694717E+01  0.46571111473E+00  0.11802949512E+01  0.00000000000E+00 0. -1.
         11    1    3    3    0    0 -0.72143698198E+01 -0.12586180199E+02 -0.17863827643E+01  0.14616778973E+02  0.51100000000E-03 0. -1.
        -11    1    3    3    0    0  0.17336124672E+02 -0.61674278913E+01 -0.31645245896E+02  0.36606010074E+02  0.51100000000E-03 0.  1.
         12    1    3    3    0    0 -0.10249606667E+02  0.17676638619E+02  0.32965917545E+02  0.38784916002E+02  0.00000000000E+00 0. -1.
</event>
<event>
 7    1  0.1935465E-015  0.9000774E+02  0.7816164E-02  0.1186339E+00
        -11   -1    0    0    0    0  0.00000000000E+00  0.00000000000E+00  0.45593999997E+02  0.45594000000E+02  0.51100000000E-03 0.  1.
         11   -1    0    0    0    0 -0.00000000000E+00 -0.00000000000E+00 -0.45593999997E+02  0.45594000000E+02  0.51100000000E-03 0. -1.
    9900012    2    1    2    0    0 -0.10203272024E+01 -0.34716607655E+00  0.48106167467E+00  0.90007740613E+02  0.90000001990E+02 0.  0.
         12    1    1    2    0    0  0.10203272024E+01  0.34716607655E+00 -0.48106167467E+00  0.11802593866E+01  0.00000000000E+00 0. -1.
         11    1    3    3    0    0 -0.18818667186E+01 -0.79756301194E+01 -0.84578859700E+01  0.11776584118E+02  0.51100000000E-03 0. -1.
        -11    1    3    3    0    0 -0.19451876910E+02 -0.23338708800E+02  0.23527054503E+02  0.38426464027E+02  0.51100000000E-03 0.  1.
         12    1    3    3    0    0  0.20313416426E+02  0.30967172842E+02 -0.14588106859E+02  0.39804692468E+02  0.00000000000E+00 0. -1.
</event>
<event>
 7    1  0.1935465E-015  0.9000771E+02  0.7816164E-02  0.1186339E+00
        -11   -1    0    0    0    0  0.00000000000E+00  0.00000000000E+00  0.45593999997E+02  0.45594000000E+02  0.51100000000E-03 0.  1.
         11   -1    0    0    0    0 -0.00000000000E+00 -0.00000000000E+00 -0.45593999997E+02  0.45594000000E+02  0.51100000000E-03 0. -1.
    9900012    2    1    2    0    0  0.61321073434E+00 -0.10014451816E+01 -0.11903649816E+00  0.90007707856E+02  0.89999968800E+02 0.  0.
         12    1    1    2    0    0 -0.61321073434E+00  0.10014451816E+01  0.11903649816E+00  0.11802921436E+01  0.00000000000E+00 0. -1.
         11    1    3    3    0    0 -0.22007395851E+02 -0.21562426718E+02 -0.23232354046E+02  0.38587640416E+02  0.51100000000E-03 0. -1.
        -11    1    3    3    0    0 -0.23732253764E+01  0.17591388859E+01 -0.72505040363E+01  0.78292130734E+01  0.51100000000E-03 0.  1.
        -12    1    3    3    0    0  0.24993831962E+02  0.18801842651E+02  0.30363821584E+02  0.43590854366E+02  0.00000000000E+00 0.  1.
</event>
<event>
 7    1  0.1935465E-015  0.9000777E+02  0.7816164E-02  0.1186339E+00
        -11   -1    0    0    0    0  0.00000000000E+00  0.00000000000E+00  0.45593999997E+02  0.45594000000E+02  0.51100000000E-03 0.  1.
         11   -1    0    0    0    0 -0.00000000000E+00 -0.00000000000E+00 -0.45593999997E+02  0.45594000000E+02  0.51100000000E-03 0. -1.
    9900012    2    1    2    0    0  0.49380021382E+00 -0.99318387377E+00 -0.40335734595E+00  0.90007766969E+02  0.90000028693E+02 0.  0.
         12    1    1    2    0    0 -0.49380021382E+00  0.99318387377E+00  0.40335734595E+00  0.11802330307E+01  0.00000000000E+00 0. -1.
         11    1    3    3    0    0 -0.39046655342E+02 -0.16128371083E+01  0.14836900761E+02  0.41801628693E+02  0.51100000000E-03 0. -1.
        -11    1    3    3    0    0  0.86001719092E+01 -0.27096625915E+01  0.57276613507E+01  0.10682290627E+02  0.51100000000E-03 0.  1.
        -12    1    3    3    0    0  0.30940283647E+02  0.33293158261E+01 -0.20967919457E+02  0.37523847649E+02  0.00000000000E+00 0.  1.
</event>
<event>
 7    1  0.1935465E-015  0.9000768E+02  0.7816164E-02  0.1186339E+00
        -11   -1    0    0    0    0  0.00000000000E+00  0.00000000000E+00  0.45593999997E+02  0.45594000000E+02  0.51100000000E-03 0. -1.
         11   -1    0    0    0    0 -0.00000000000E+00 -0.00000000000E+00 -0.45593999997E+02  0.45594000000E+02  0.51100000000E-03 0.  1.
    9900012    2    1    2    0    0 -0.84257719016E+00  0.23304318729E+00 -0.79303469246E+00  0.90007682470E+02  0.89999943078E+02 0.  0.
         12    1    1    2    0    0  0.84257719016E+00 -0.23304318729E+00  0.79303469246E+00  0.11803175301E+01  0.00000000000E+00 0. -1.
         11    1    3    3    0    0 -0.25379104197E+02  0.11080361262E+02  0.25833094282E+02  0.37871124831E+02  0.51100000000E-03 0. -1.
        -11    1    3    3    0    0 -0.11687896588E+01 -0.65738350522E+01  0.69482607508E+01  0.96363740215E+01  0.51100000000E-03 0.  1.
        -12    1    3    3    0    0  0.25705316666E+02 -0.42734830221E+01 -0.33574389726E+02  0.42500183617E+02  0.00000000000E+00 0.  1.
</event>
<event>
 7    1  0.1935465E-015  0.9000772E+02  0.7816164E-02  0.1186339E+00
        -11   -1    0    0    0    0  0.00000000000E+00  0.00000000000E+00  0.45593999997E+02  0.45594000000E+02  0.51100000000E-03 0.  1.
         11   -1    0    0    0    0 -0.00000000000E+00 -0.00000000000E+00 -0.45593999997E+02  0.45594000000E+02  0.51100000000E-03 0. -1.
    9900012    2    1    2    0    0  0.89947254354E+00 -0.87268766944E-01 -0.75921322651E+00  0.90007715535E+02  0.89999976580E+02 0.  0.
         12    1    1    2    0    0 -0.89947254354E+00  0.87268766944E-01  0.75921322651E+00  0.11802844647E+01  0.00000000000E+00 0. -1.
         11    1    3    3    0    0 -0.72894114049E+01  0.25052764869E+01  0.28985226185E+01  0.82348869171E+01  0.51100000000E-03 0. -1.
        -11    1    3    3    0    0 -0.76362734722E+01  0.35204910611E+02  0.11905912811E+02  0.37940073323E+02  0.51100000000E-03 0.  1.
         12    1    3    3    0    0  0.15825157421E+02 -0.37797455865E+02 -0.15563648656E+02  0.43832755295E+02  0.00000000000E+00 0. -1.
</event>
<event>
 7    1  0.1935465E-015  0.9000768E+02  0.7816164E-02  0.1186339E+00
        -11   -1    0    0    0    0  0.00000000000E+00  0.00000000000E+00  0.45593999997E+02  0.45594000000E+02  0.51100000000E-03 0.  1.
         11   -1    0    0    0    0 -0.00000000000E+00 -0.00000000000E+00 -0.45593999997E+02  0.45594000000E+02  0.51100000000E-03 0. -1.
    9900012    2    1    2    0    0 -0.32600115504E+00  0.10703524464E+01 -0.37578569076E+00  0.90007683941E+02  0.89999944570E+02 0.  0.
         12    1    1    2    0    0  0.32600115504E+00 -0.10703524464E+01  0.37578569076E+00  0.11803160585E+01  0.00000000000E+00 0. -1.
         11    1    3    3    0    0  0.24074031969E+02 -0.10828258772E+02 -0.25978969328E+02  0.37036698704E+02  0.51100000000E-03 0. -1.
        -11    1    3    3    0    0  0.16618728796E+01  0.32606147991E+01 -0.84614560091E+01  0.92189841301E+01  0.51100000000E-03 0.  1.
        -12    1    3    3    0    0 -0.26061906004E+02  0.86379964190E+01  0.34064639646E+02  0.43752001108E+02  0.00000000000E+00 0.  1.
</event>
<event>
 7    1  0.1935465E-015  0.9000775E+02  0.7816164E-02  0.1186339E+00
        -11   -1    0    0    0    0  0.00000000000E+00  0.00000000000E+00  0.45593999997E+02  0.45594000000E+02  0.51100000000E-03 0. -1.
         11   -1    0    0    0    0 -0.00000000000E+00 -0.00000000000E+00 -0.45593999997E+02  0.45594000000E+02  0.51100000000E-03 0.  1.
    9900012    2    1    2    0    0  0.98791423537E-01  0.11287144623E+01 -0.33052134111E+00  0.90007745604E+02  0.90000007046E+02 0.  0.
         12    1    1    2    0    0 -0.98791423537E-01 -0.11287144623E+01  0.33052134111E+00  0.11802543962E+01  0.00000000000E+00 0. -1.
         11    1    3    3    0    0  0.44376607455E+01 -0.67368884418E+01 -0.77001266898E+01  0.11152150020E+02  0.51100000000E-03 0. -1.
        -11    1    3    3    0    0  0.10768767578E+02 -0.23840512873E+02 -0.21128493710E+02  0.33626621238E+02  0.51100000000E-03 0.  1.
         12    1    3    3    0    0 -0.15107636900E+02  0.31706115777E+02  0.28498099059E+02  0.45228974345E+02  0.00000000000E+00 0. -1.
</event>
<event>
 7    1  0.1935465E-015  0.9000774E+02  0.7816164E-02  0.1186339E+00
        -11   -1    0    0    0    0  0.00000000000E+00  0.00000000000E+00  0.45593999997E+02  0.45594000000E+02  0.51100000000E-03 0.  1.
         11   -1    0    0    0    0 -0.00000000000E+00 -0.00000000000E+00 -0.45593999997E+02  0.45594000000E+02  0.51100000000E-03 0. -1.
    9900012    2    1    2    0    0  0.11211475536E+01  0.24028105534E+00 -0.27982170480E+00  0.90007742821E+02  0.90000004226E+02 0.  0.
         12    1    1    2    0    0 -0.11211475536E+01 -0.24028105534E+00  0.27982170480E+00  0.11802571792E+01  0.00000000000E+00 0. -1.
         11    1    3    3    0    0  0.30893900074E+01 -0.11993201157E+02  0.25773675284E+01  0.12650060405E+02  0.51100000000E-03 0. -1.
        -11    1    3    3    0    0  0.17059033407E+02 -0.22648373913E+02  0.16873033343E+02  0.32994828627E+02  0.51100000000E-03 0.  1.
         12    1    3    3    0    0 -0.19027275860E+02  0.34881856125E+02 -0.19730222576E+02  0.44362853789E+02  0.00000000000E+00 0. -1.
</event>
<event>
 7    1  0.1935465E-015  0.9000776E+02  0.7816164E-02  0.1186339E+00
        -11   -1    0    0    0    0  0.00000000000E+00  0.00000000000E+00  0.45593999997E+02  0.45594000000E+02  0.51100000000E-03 0.  1.
         11   -1    0    0    0    0 -0.00000000000E+00 -0.00000000000E+00 -0.45593999997E+02  0.45594000000E+02  0.51100000000E-03 0. -1.
    9900012    2    1    2    0    0  0.78964815435E+00 -0.73662807199E+00  0.47622943955E+00  0.90007762904E+02  0.90000024574E+02 0.  0.
         12    1    1    2    0    0 -0.78964815435E+00  0.73662807199E+00 -0.47622943955E+00  0.11802370962E+01  0.00000000000E+00 0. -1.
         11    1    3    3    0    0 -0.20631416141E+02 -0.23315917647E+02 -0.18457273779E+02  0.36193346119E+02  0.51100000000E-03 0. -1.
        -11    1    3    3    0    0 -0.47976522374E+01 -0.67143932902E+01 -0.30189571156E+01  0.87871864993E+01  0.51100000000E-03 0.  1.
        -12    1    3    3    0    0  0.26218716533E+02  0.29293682865E+02  0.21952460334E+02  0.45027230285E+02  0.00000000000E+00 0.  1.
</event>
<event>
 7    1  0.1935465E-015  0.9000775E+02  0.7816164E-02  0.1186339E+00
        -11   -1    0    0    0    0  0.00000000000E+00  0.00000000000E+00  0.45593999997E+02  0.45594000000E+02  0.51100000000E-03 0.  1.
         11   -1    0    0    0    0 -0.00000000000E+00 -0.00000000000E+00 -0.45593999997E+02  0.45594000000E+02  0.51100000000E-03 0. -1.
    9900012    2    1    2    0    0  0.11679853669E+01  0.14558892794E+00 -0.87255420666E-01  0.90007746018E+02  0.90000007466E+02 0.  0.
         12    1    1    2    0    0 -0.11679853669E+01 -0.14558892794E+00  0.87255420666E-01  0.11802539818E+01  0.00000000000E+00 0. -1.
         11    1    3    3    0    0  0.34083553444E+01 -0.76103017802E+01 -0.25196467980E+01  0.87110389500E+01  0.51100000000E-03 0. -1.
        -11    1    3    3    0    0  0.28040915538E+02 -0.23505489285E+02 -0.56695464847E+01  0.37026270786E+02  0.51100000000E-03 0.  1.
         12    1    3    3    0    0 -0.30281285515E+02  0.31261379993E+02  0.81019378620E+01  0.44270436282E+02  0.00000000000E+00 0. -1.
</event>
<event>
 7    1  0.1935465E-015  0.9000756E+02  0.7816164E-02  0.1186339E+00
        -11   -1    0    0    0    0  0.00000000000E+00  0.00000000000E+00  0.45593999997E+02  0.45594000000E+02  0.51100000000E-03 0.  1.
         11   -1    0    0    0    0 -0.00000000000E+00 -0.00000000000E+00 -0.45593999997E+02  0.45594000000E+02  0.51100000000E-03 0. -1.
    9900012    2    1    2    0    0  0.48500220249E+00  0.88240878784E+00  0.61608621143E+00  0.90007561681E+02  0.89999820695E+02 0.  0.
         12    1    1    2    0    0 -0.48500220249E+00 -0.88240878784E+00 -0.61608621143E+00  0.11804383191E+01  0.00000000000E+00 0. -1.
         11    1    3    3    0    0  0.11394714304E+02 -0.95503116112E+01 -0.36191997311E+02  0.39126827568E+02  0.51100000000E-03 0. -1.
        -11    1    3    3    0    0 -0.38310286328E+01  0.53657731037E+01 -0.49376305689E+01  0.82370199272E+01  0.51100000000E-03 0.  1.
        -12    1    3    3    0    0 -0.70786834683E+01  0.50669472954E+01  0.41745714091E+02  0.42643714185E+02  0.00000000000E+00 0.  1.
</event>
<event>
 7    1  0.1935465E-015  0.9000773E+02  0.7816164E-02  0.1186339E+00
        -11   -1    0    0    0    0  0.00000000000E+00  0.00000000000E+00  0.45593999997E+02  0.45594000000E+02  0.51100000000E-03 0. -1.
         11   -1    0    0    0    0 -0.00000000000E+00 -0.00000000000E+00 -0.45593999997E+02  0.45594000000E+02  0.51100000000E-03 0.  1.
    9900012    2    1    2    0    0  0.18212867773E+00  0.96868716464E+00 -0.64923713912E+00  0.90007731157E+02  0.89999992409E+02 0.  0.
         12    1    1    2    0    0 -0.18212867773E+00 -0.96868716464E+00  0.64923713912E+00  0.11802688427E+01  0.00000000000E+00 0. -1.
         11    1    3    3    0    0  0.25994364305E+01  0.81418049775E+01 -0.25610528109E+01  0.89221662061E+01  0.51100000000E-03 0. -1.
        -11    1    3    3    0    0  0.13258965194E+02  0.72789262511E+01 -0.35184744565E+02  0.38298161519E+02  0.51100000000E-03 0.  1.
         12    1    3    3    0    0 -0.15676272947E+02 -0.14452044064E+02  0.37096560236E+02  0.42787403432E+02  0.00000000000E+00 0. -1.
</event>
<event>
 7    1  0.1935465E-015  0.9000779E+02  0.7816164E-02  0.1186339E+00
        -11   -1    0    0    0    0  0.00000000000E+00  0.00000000000E+00  0.45593999997E+02  0.45594000000E+02  0.51100000000E-03 0.  1.
         11   -1    0    0    0    0 -0.00000000000E+00 -0.00000000000E+00 -0.45593999997E+02  0.45594000000E+02  0.51100000000E-03 0. -1.
    9900012    2    1    2    0    0 -0.86921647063E+00  0.79286779564E+00  0.93428307926E-01  0.90007785840E+02  0.90000047813E+02 0.  0.
         12    1    1    2    0    0  0.86921647063E+00 -0.79286779564E+00 -0.93428307926E-01  0.11802141598E+01  0.00000000000E+00 0. -1.
         11    1    3    3    0    0 -0.59860286124E+01  0.32364308106E+02 -0.15663120900E+02  0.36450162336E+02  0.51100000000E-03 0. -1.
        -11    1    3    3    0    0  0.67412998163E+01  0.61950682584E+00  0.19937694420E+02  0.21055654133E+02  0.51100000000E-03 0.  1.
        -12    1    3    3    0    0 -0.16244876745E+01 -0.32190947136E+02 -0.41811452124E+01  0.32501969371E+02  0.00000000000E+00 0.  1.
</event>
<event>
 7    1  0.1935465E-015  0.9000773E+02  0.7816164E-02  0.1186339E+00
        -11   -1    0    0    0    0  0.00000000000E+00  0.00000000000E+00  0.45593999997E+02  0.45594000000E+02  0.51100000000E-03 0.  1.
         11   -1    0    0    0    0 -0.00000000000E+00 -0.00000000000E+00 -0.45593999997E+02  0.45594000000E+02  0.51100000000E-03 0. -1.
    9900012    2    1    2    0    0 -0.45146206725E+00 -0.10878855091E+01 -0.75722288902E-01  0.90007725988E+02  0.89999987171E+02 0.  0.
         12    1    1    2    0    0  0.45146206725E+00  0.10878855091E+01  0.75722288902E-01  0.11802740123E+01  0.00000000000E+00 0. -1.
         11    1    3    3    0    0 -0.21512263196E+02  0.18825490100E+01  0.48864650333E+01  0.22140438102E+02  0.51100000000E-03 0. -1.
        -11    1    3    3    0    0  0.13022479445E+02 -0.31909937362E+02  0.76299041679E+01  0.35299355677E+02  0.51100000000E-03 0.  1.
         12    1    3    3    0    0  0.80383216834E+01  0.28939502843E+02 -0.12592091490E+02  0.32567932209E+02  0.00000000000E+00 0. -1.
</event>
<event>
 7    1  0.1935465E-015  0.9000774E+02  0.7816164E-02  0.1186339E+00
        -11   -1    0    0    0    0  0.00000000000E+00  0.00000000000E+00  0.45593999997E+02  0.45594000000E+02  0.51100000000E-03 0.  1.
         11   -1    0    0    0    0 -0.00000000000E+00 -0.00000000000E+00 -0.45593999997E+02  0.45594000000E+02  0.51100000000E-03 0. -1.
    9900012    2    1    2    0    0 -0.71646163948E+00  0.92953666229E+00 -0.12512411592E+00  0.90007740820E+02  0.90000002199E+02 0.  0.
         12    1    1    2    0    0  0.71646163948E+00 -0.92953666229E+00  0.12512411592E+00  0.11802591799E+01  0.00000000000E+00 0. -1.
         11    1    3    3    0    0 -0.18085026834E+02  0.99873034139E+01 -0.28630219562E+02  0.35305862084E+02  0.51100000000E-03 0. -1.
        -11    1    3    3    0    0  0.42995396760E+01 -0.11038902044E+01 -0.11255618447E+02  0.12099320720E+02  0.51100000000E-03 0.  1.
        -12    1    3    3    0    0  0.13069025519E+02 -0.79538765472E+01  0.39760713893E+02  0.42602558015E+02  0.00000000000E+00 0.  1.
</event>
<event>
 7    1  0.1935465E-015  0.9000732E+02  0.7816164E-02  0.1186340E+00
        -11   -1    0    0    0    0  0.00000000000E+00  0.00000000000E+00  0.45593999997E+02  0.45594000000E+02  0.51100000000E-03 0. -1.
         11   -1    0    0    0    0 -0.00000000000E+00 -0.00000000000E+00 -0.45593999997E+02  0.45594000000E+02  0.51100000000E-03 0.  1.
    9900012    2    1    2    0    0 -0.64081545527E+00  0.99159777509E+00 -0.96113142530E-02  0.90007320970E+02  0.89999576805E+02 0.  0.
         12    1    1    2    0    0  0.64081545527E+00 -0.99159777509E+00  0.96113142530E-02  0.11806790303E+01  0.00000000000E+00 0. -1.
         11    1    3    3    0    0 -0.30729627326E+01 -0.29111772944E+01 -0.55280017440E+01  0.69625323510E+01  0.51100000000E-03 0. -1.
        -11    1    3    3    0    0  0.22880940355E+02  0.25250172325E+02 -0.23679606802E+02  0.41494968520E+02  0.51100000000E-03 0.  1.
         12    1    3    3    0    0 -0.20448793077E+02 -0.21347397255E+02  0.29197997232E+02  0.41549820099E+02  0.00000000000E+00 0. -1.
</event>
<event>
 7    1  0.1935465E-015  0.9000776E+02  0.7816164E-02  0.1186339E+00
        -11   -1    0    0    0    0  0.00000000000E+00  0.00000000000E+00  0.45593999997E+02  0.45594000000E+02  0.51100000000E-03 0. -1.
         11   -1    0    0    0    0 -0.00000000000E+00 -0.00000000000E+00 -0.45593999997E+02  0.45594000000E+02  0.51100000000E-03 0.  1.
    9900012    2    1    2    0    0 -0.61584556993E+00 -0.42796738656E+00  0.91133988634E+00  0.90007761787E+02  0.90000023443E+02 0.  0.
         12    1    1    2    0    0  0.61584556993E+00  0.42796738656E+00 -0.91133988634E+00  0.11802382126E+01  0.00000000000E+00 0. -1.
         11    1    3    3    0    0  0.24246535829E+02 -0.18447937523E+02 -0.23490078375E+02  0.38470828960E+02  0.51100000000E-03 0. -1.
        -11    1    3    3    0    0  0.21496855211E+01 -0.76288807119E+01  0.62863035705E+01  0.10116253338E+02  0.51100000000E-03 0.  1.
        -12    1    3    3    0    0 -0.27012066920E+02  0.25648850848E+02  0.18115114691E+02  0.41420679490E+02  0.00000000000E+00 0.  1.
</event>
<event>
 7    1  0.1935465E-015  0.9000775E+02  0.7816164E-02  0.1186339E+00
        -11   -1    0    0    0    0  0.00000000000E+00  0.00000000000E+00  0.45593999997E+02  0.45594000000E+02  0.51100000000E-03 0.  1.
         11   -1    0    0    0    0 -0.00000000000E+00 -0.00000000000E+00 -0.45593999997E+02  0.45594000000E+02  0.51100000000E-03 0. -1.
    9900012    2    1    2    0    0  0.56335971665E+00  0.68247319900E+00 -0.78092703599E+00  0.90007749657E+02  0.90000011152E+02 0.  0.
         12    1    1    2    0    0 -0.56335971665E+00 -0.68247319900E+00  0.78092703599E+00  0.11802503435E+01  0.00000000000E+00 0. -1.
         11    1    3    3    0    0  0.13334453558E+01  0.16853375309E+01 -0.78556255567E+01  0.81442797262E+01  0.51100000000E-03 0. -1.
        -11    1    3    3    0    0 -0.33550576050E+02 -0.18369953995E+02  0.19248000877E+02  0.42820344477E+02  0.51100000000E-03 0.  1.
         12    1    3    3    0    0  0.32780490411E+02  0.17367089663E+02 -0.12173302357E+02  0.39043125454E+02  0.00000000000E+00 0. -1.
</event>
<event>
 7    1  0.1935465E-015  0.9000773E+02  0.7816164E-02  0.1186339E+00
        -11   -1    0    0    0    0  0.00000000000E+00  0.00000000000E+00  0.45593999997E+02  0.45594000000E+02  0.51100000000E-03 0. -1.
         11   -1    0    0    0    0 -0.00000000000E+00 -0.00000000000E+00 -0.45593999997E+02  0.45594000000E+02  0.51100000000E-03 0.  1.
    9900012    2    1    2    0    0 -0.10142741831E+01 -0.25284931883E+00 -0.54804446556E+00  0.90007729848E+02  0.89999991082E+02 0.  0.
         12    1    1    2    0    0  0.10142741831E+01  0.25284931883E+00  0.54804446556E+00  0.11802701524E+01  0.00000000000E+00 0. -1.
         11    1    3    3    0    0  0.19234332686E+02  0.39329303886E+02 -0.11640158469E+01  0.43796217087E+02  0.51100000000E-03 0. -1.
        -11    1    3    3    0    0 -0.32766914529E+01 -0.87091005392E+01  0.52395665515E+01  0.10678866840E+02  0.51100000000E-03 0.  1.
        -12    1    3    3    0    0 -0.16971915416E+02 -0.30873052665E+02 -0.46235951702E+01  0.35532645920E+02  0.00000000000E+00 0.  1.
</event>
<event>
 7    1  0.1935465E-015  0.9000780E+02  0.7816164E-02  0.1186339E+00
        -11   -1    0    0    0    0  0.00000000000E+00  0.00000000000E+00  0.45593999997E+02  0.45594000000E+02  0.51100000000E-03 0. -1.
         11   -1    0    0    0    0 -0.00000000000E+00 -0.00000000000E+00 -0.45593999997E+02  0.45594000000E+02  0.51100000000E-03 0.  1.
    9900012    2    1    2    0    0  0.13748735636E+00  0.25239040560E+00 -0.11446713860E+01  0.90007798207E+02  0.90000060343E+02 0.  0.
         12    1    1    2    0    0 -0.13748735636E+00 -0.25239040560E+00  0.11446713860E+01  0.11802017929E+01  0.00000000000E+00 0. -1.
         11    1    3    3    0    0 -0.12965979134E+01  0.72766810254E+01 -0.26476962604E+01  0.78512131956E+01  0.51100000000E-03 0. -1.
        -11    1    3    3    0    0 -0.52397831705E+01  0.23272695418E+02 -0.29741344424E+02  0.38126385196E+02  0.51100000000E-03 0.  1.
         12    1    3    3    0    0  0.66738684402E+01 -0.30296986038E+02  0.31244369299E+02  0.44030199816E+02  0.00000000000E+00 0. -1.
</event>
<event>
 7    1  0.1935465E-015  0.9000898E+02  0.7816164E-02  0.1186337E+00
        -11   -1    0    0    0    0  0.00000000000E+00  0.00000000000E+00  0.45593999997E+02  0.45594000000E+02  0.51100000000E-03 0.  1.
         11   -1    0    0    0    0 -0.00000000000E+00 -0.00000000000E+00 -0.45593999997E+02  0.45594000000E+02  0.51100000000E-03 0. -1.
    9900012    2    1    2    0    0 -0.46803867018E+00 -0.76954351848E+00  0.76080646803E+00  0.90008981804E+02  0.90001259555E+02 0.  0.
         12    1    1    2    0    0  0.46803867018E+00  0.76954351848E+00 -0.76080646803E+00  0.11790181955E+01  0.00000000000E+00 0. -1.
         11    1    3    3    0    0 -0.21561912947E+02  0.15684682222E+02  0.27889686072E+01  0.26808649584E+02  0.51100000000E-03 0. -1.
        -11    1    3    3    0    0  0.45159289181E+01 -0.17590785934E+02  0.25343927712E+02  0.31179224428E+02  0.51100000000E-03 0.  1.
         12    1    3    3    0    0  0.16577945359E+02  0.11365601934E+01 -0.27372089852E+02  0.32021107792E+02  0.00000000000E+00 0. -1.
</event>
<event>
 7    1  0.1935465E-015  0.9000756E+02  0.7816164E-02  0.1186339E+00
        -11   -1    0    0    0    0  0.00000000000E+00  0.00000000000E+00  0.45593999997E+02  0.45594000000E+02  0.51100000000E-03 0.  1.
         11   -1    0    0    0    0 -0.00000000000E+00 -0.00000000000E+00 -0.45593999997E+02  0.45594000000E+02  0.51100000000E-03 0. -1.
    9900012    2    1    2    0    0 -0.29072681242E+00  0.82072793086E+00  0.79706550208E+00  0.90007563712E+02  0.89999822753E+02 0.  0.
         12    1    1    2    0    0  0.29072681242E+00 -0.82072793086E+00 -0.79706550208E+00  0.11804362882E+01  0.00000000000E+00 0. -1.
         11    1    3    3    0    0 -0.32739921161E+01  0.36893654044E+01 -0.90635478820E+01  0.10318834330E+02  0.51100000000E-03 0. -1.
        -11    1    3    3    0    0  0.18317769513E+01 -0.39755493154E+02 -0.45776720571E+01  0.40060076441E+02  0.51100000000E-03 0.  1.
         12    1    3    3    0    0  0.11514883524E+01  0.36886855680E+02  0.14438285441E+02  0.39628652941E+02  0.00000000000E+00 0. -1.
</event>
<event>
 7    1  0.1935465E-015  0.9000775E+02  0.7816164E-02  0.1186339E+00
        -11   -1    0    0    0    0  0.00000000000E+00  0.00000000000E+00  0.45593999997E+02  0.45594000000E+02  0.51100000000E-03 0.  1.
         11   -1    0    0    0    0 -0.00000000000E+00 -0.00000000000E+00 -0.45593999997E+02  0.45594000000E+02  0.51100000000E-03 0. -1.
    9900012    2    1    2    0    0 -0.50937672557E+00  0.95676092037E+00  0.46704920055E+00  0.90007749576E+02  0.90000011071E+02 0.  0.
         12    1    1    2    0    0  0.50937672557E+00 -0.95676092037E+00 -0.46704920055E+00  0.11802504239E+01  0.00000000000E+00 0. -1.
         11    1    3    3    0    0 -0.27242084851E+02 -0.16014252017E+02  0.14660523858E+02  0.34835591207E+02  0.51100000000E-03 0. -1.
        -11    1    3    3    0    0 -0.88712841581E+01  0.82627996139E+01  0.57791813531E+01  0.13430282106E+02  0.51100000000E-03 0.  1.
        -12    1    3    3    0    0  0.35603992284E+02  0.87082133235E+01 -0.19972656011E+02  0.41741876263E+02  0.00000000000E+00 0.  1.
</event>
<event>
 7    1  0.1935465E-015  0.9000771E+02  0.7816164E-02  0.1186339E+00
        -11   -1    0    0    0    0  0.00000000000E+00  0.00000000000E+00  0.45593999997E+02  0.45594000000E+02  0.51100000000E-03 0. -1.
         11   -1    0    0    0    0 -0.00000000000E+00 -0.00000000000E+00 -0.45593999997E+02  0.45594000000E+02  0.51100000000E-03 0.  1.
    9900012    2    1    2    0    0  0.20855947927E+00 -0.73712883572E+00 -0.89789612959E+00  0.90007714680E+02  0.89999975714E+02 0.  0.
         12    1    1    2    0    0 -0.20855947927E+00  0.73712883572E+00  0.89789612959E+00  0.11802853199E+01  0.00000000000E+00 0. -1.
         11    1    3    3    0    0  0.98734857439E+00  0.22273588274E+02  0.24585923554E+02  0.33189685583E+02  0.51100000000E-03 0. -1.
        -11    1    3    3    0    0  0.32411459968E+01  0.10451529900E+02  0.43810746737E+01  0.11786997929E+02  0.51100000000E-03 0.  1.
        -12    1    3    3    0    0 -0.40199350919E+01 -0.33462247009E+02 -0.29864894358E+02  0.45031031168E+02  0.00000000000E+00 0.  1.
</event>
<event>
 7    1  0.1935465E-015  0.9000777E+02  0.7816164E-02  0.1186339E+00
        -11   -1    0    0    0    0  0.00000000000E+00  0.00000000000E+00  0.45593999997E+02  0.45594000000E+02  0.51100000000E-03 0. -1.
         11   -1    0    0    0    0 -0.00000000000E+00 -0.00000000000E+00 -0.45593999997E+02  0.45594000000E+02  0.51100000000E-03 0.  1.
    9900012    2    1    2    0    0  0.29395036786E+00  0.11210234949E+00 -0.11375240092E+01  0.90007773485E+02  0.90000035295E+02 0.  0.
         12    1    1    2    0    0 -0.29395036786E+00 -0.11210234949E+00  0.11375240092E+01  0.11802265152E+01  0.00000000000E+00 0. -1.
         11    1    3    3    0    0  0.22837254562E+02  0.33292215357E+02  0.17226024641E+01  0.40408899500E+02  0.51100000000E-03 0. -1.
        -11    1    3    3    0    0 -0.58346325968E+01  0.25146370911E+01 -0.75967741342E+01  0.99033991511E+01  0.51100000000E-03 0.  1.
        -12    1    3    3    0    0 -0.16708671597E+02 -0.35694750099E+02  0.47366476608E+01  0.39695474833E+02  0.00000000000E+00 0.  1.
</event>
<event>
 7    1  0.1935465E-015  0.9000774E+02  0.7816164E-02  0.1186339E+00
        -11   -1    0    0    0    0  0.00000000000E+00  0.00000000000E+00  0.45593999997E+02  0.45594000000E+02  0.51100000000E-03 0.  1.
         11   -1    0    0    0    0 -0.00000000000E+00 -0.00000000000E+00 -0.45593999997E+02  0.45594000000E+02  0.51100000000E-03 0. -1.
    9900012    2    1    2    0    0  0.50514845568E+00 -0.85409015190E+00 -0.63903708994E+00  0.90007740134E+02  0.90000001503E+02 0.  0.
         12    1    1    2    0    0 -0.50514845568E+00  0.85409015190E+00  0.63903708994E+00  0.11802598664E+01  0.00000000000E+00 0. -1.
         11    1    3    3    0    0 -0.11866355587E+02  0.11367871535E+02 -0.36350655932E+02  0.39892469027E+02  0.51100000000E-03 0. -1.
        -11    1    3    3    0    0  0.63167530174E+01  0.67136261488E+01 -0.28485507414E-01  0.92181861792E+01  0.51100000000E-03 0.  1.
        -12    1    3    3    0    0  0.60547510249E+01 -0.18935587835E+02  0.35740104349E+02  0.40897084927E+02  0.00000000000E+00 0.  1.
</event>
<event>
 7    1  0.1935465E-015  0.9000768E+02  0.7816164E-02  0.1186339E+00
        -11   -1    0    0    0    0  0.00000000000E+00  0.00000000000E+00  0.45593999997E+02  0.45594000000E+02  0.51100000000E-03 0. -1.
         11   -1    0    0    0    0 -0.00000000000E+00 -0.00000000000E+00 -0.45593999997E+02  0.45594000000E+02  0.51100000000E-03 0.  1.
    9900012    2    1    2    0    0 -0.10535790138E+01  0.52924874430E+00 -0.54907607135E-01  0.90007683171E+02  0.89999943789E+02 0.  0.
         12    1    1    2    0    0  0.10535790138E+01 -0.52924874430E+00  0.54907607135E-01  0.11803168290E+01  0.00000000000E+00 0. -1.
         11    1    3    3    0    0 -0.10893230695E+02  0.14627493290E+02  0.20358524965E+02  0.27333049115E+02  0.51100000000E-03 0. -1.
        -11    1    3    3    0    0  0.12167739989E+02  0.13613881989E+02  0.10524399928E+02  0.21074977422E+02  0.51100000000E-03 0.  1.
        -12    1    3    3    0    0 -0.23280883083E+01 -0.27712126534E+02 -0.30937832500E+02  0.41599656634E+02  0.00000000000E+00 0.  1.
</event>
<event>
 7    1  0.1935465E-015  0.9000781E+02  0.7816164E-02  0.1186339E+00
        -11   -1    0    0    0    0  0.00000000000E+00  0.00000000000E+00  0.45593999997E+02  0.45594000000E+02  0.51100000000E-03 0.  1.
         11   -1    0    0    0    0 -0.00000000000E+00 -0.00000000000E+00 -0.45593999997E+02  0.45594000000E+02  0.51100000000E-03 0. -1.
    9900012    2    1    2    0    0 -0.99826331423E-01  0.11743912817E+01 -0.60774312550E-01  0.90007807772E+02  0.90000070034E+02 0.  0.
         12    1    1    2    0    0  0.99826331423E-01 -0.11743912817E+01  0.60774312550E-01  0.11801922284E+01  0.00000000000E+00 0. -1.
         11    1    3    3    0    0 -0.33613245210E+02  0.38745472037E+01  0.36261411876E+01  0.34029564642E+02  0.51100000000E-03 0. -1.
        -11    1    3    3    0    0 -0.11119387194E+02  0.16622095013E+00 -0.11845787754E+01  0.11183542735E+02  0.51100000000E-03 0.  1.
        -12    1    3    3    0    0  0.44632806073E+02 -0.28663768722E+01 -0.25023367248E+01  0.44794700394E+02  0.00000000000E+00 0.  1.
</event>
<event>
 7    1  0.1935465E-015  0.9000772E+02  0.7816164E-02  0.1186339E+00
        -11   -1    0    0    0    0  0.00000000000E+00  0.00000000000E+00  0.45593999997E+02  0.45594000000E+02  0.51100000000E-03 0.  1.
         11   -1    0    0    0    0 -0.00000000000E+00 -0.00000000000E+00 -0.45593999997E+02  0.45594000000E+02  0.51100000000E-03 0. -1.
    9900012    2    1    2    0    0  0.33868022198E+00 -0.10973949810E+01  0.27217792617E+00  0.90007720008E+02  0.89999981112E+02 0.  0.
         12    1    1    2    0    0 -0.33868022198E+00  0.10973949810E+01 -0.27217792617E+00  0.11802799925E+01  0.00000000000E+00 0. -1.
         11    1    3    3    0    0 -0.47147778001E+00 -0.69886591038E+01  0.58214819283E+01  0.91078701939E+01  0.51100000000E-03 0. -1.
        -11    1    3    3    0    0 -0.65792187417E+01  0.33329967221E+02  0.22677776185E+02  0.40846717948E+02  0.51100000000E-03 0.  1.
         12    1    3    3    0    0  0.73893767437E+01 -0.27438703098E+02 -0.28227080187E+02  0.40053131866E+02  0.00000000000E+00 0. -1.
</event>
<event>
 7    1  0.1935465E-015  0.9000767E+02  0.7816164E-02  0.1186339E+00
        -11   -1    0    0    0    0  0.00000000000E+00  0.00000000000E+00  0.45593999997E+02  0.45594000000E+02  0.51100000000E-03 0. -1.
         11   -1    0    0    0    0 -0.00000000000E+00 -0.00000000000E+00 -0.45593999997E+02  0.45594000000E+02  0.51100000000E-03 0.  1.
    9900012    2    1    2    0    0 -0.11538300217E+01  0.10114054504E+00  0.22720178521E+00  0.90007672173E+02  0.89999932645E+02 0.  0.
         12    1    1    2    0    0  0.11538300217E+01 -0.10114054504E+00 -0.22720178521E+00  0.11803278274E+01  0.00000000000E+00 0. -1.
         11    1    3    3    0    0 -0.14942522318E+01  0.18948857440E+01  0.83616250172E+01  0.87028819884E+01  0.51100000000E-03 0. -1.
        -11    1    3    3    0    0 -0.39172527273E+02  0.84047568807E+01 -0.50391452188E+01  0.40379695590E+02  0.51100000000E-03 0.  1.
         12    1    3    3    0    0  0.39512949483E+02 -0.10198502080E+02 -0.30952780133E+01  0.40925094594E+02  0.00000000000E+00 0. -1.
</event>
<event>
 7    1  0.1935465E-015  0.9000782E+02  0.7816164E-02  0.1186339E+00
        -11   -1    0    0    0    0  0.00000000000E+00  0.00000000000E+00  0.45593999997E+02  0.45594000000E+02  0.51100000000E-03 0.  1.
         11   -1    0    0    0    0 -0.00000000000E+00 -0.00000000000E+00 -0.45593999997E+02  0.45594000000E+02  0.51100000000E-03 0. -1.
    9900012    2    1    2    0    0 -0.26600409709E+00 -0.12364951922E+00  0.11431467207E+01  0.90007817045E+02  0.90000079430E+02 0.  0.
         12    1    1    2    0    0  0.26600409709E+00  0.12364951922E+00 -0.11431467207E+01  0.11801829554E+01  0.00000000000E+00 0. -1.
         11    1    3    3    0    0 -0.46389706337E+01  0.70721774002E+00  0.69990264387E+01  0.84265400268E+01  0.51100000000E-03 0. -1.
        -11    1    3    3    0    0 -0.10929047149E+02 -0.38806795837E+02 -0.77057729726E+00  0.40323755584E+02  0.51100000000E-03 0.  1.
         12    1    3    3    0    0  0.15302013685E+02  0.37975928578E+02 -0.50853024208E+01  0.41257521434E+02  0.00000000000E+00 0. -1.
</event>
<event>
 7    1  0.1935465E-015  0.9000786E+02  0.7816164E-02  0.1186339E+00
        -11   -1    0    0    0    0  0.00000000000E+00  0.00000000000E+00  0.45593999997E+02  0.45594000000E+02  0.51100000000E-03 0. -1.
         11   -1    0    0    0    0 -0.00000000000E+00 -0.00000000000E+00 -0.45593999997E+02  0.45594000000E+02  0.51100000000E-03 0.  1.
    9900012    2    1    2    0    0 -0.75862754399E+00  0.43403937945E+00 -0.79298591542E+00  0.90007859078E+02  0.90000122018E+02 0.  0.
         12    1    1    2    0    0  0.75862754399E+00 -0.43403937945E+00  0.79298591542E+00  0.11801409219E+01  0.00000000000E+00 0. -1.
         11    1    3    3    0    0 -0.41245090777E+01 -0.21111697188E+01 -0.43486605689E+01  0.63544835918E+01  0.51100000000E-03 0. -1.
        -11    1    3    3    0    0 -0.21152360177E+02 -0.35701824352E+01 -0.32912372182E+02  0.39286038062E+02  0.51100000000E-03 0.  1.
         12    1    3    3    0    0  0.24518241710E+02  0.61153915335E+01  0.36468046836E+02  0.44367337425E+02  0.00000000000E+00 0. -1.
</event>
<event>
 7    1  0.1935465E-015  0.9000762E+02  0.7816164E-02  0.1186339E+00
        -11   -1    0    0    0    0  0.00000000000E+00  0.00000000000E+00  0.45593999997E+02  0.45594000000E+02  0.51100000000E-03 0. -1.
         11   -1    0    0    0    0 -0.00000000000E+00 -0.00000000000E+00 -0.45593999997E+02  0.45594000000E+02  0.51100000000E-03 0.  1.
    9900012    2    1    2    0    0  0.22536482211E+00 -0.80761269172E+00 -0.83081943465E+00  0.90007623579E+02  0.89999883410E+02 0.  0.
         12    1    1    2    0    0 -0.22536482211E+00  0.80761269172E+00  0.83081943465E+00  0.11803764213E+01  0.00000000000E+00 0. -1.
         11    1    3    3    0    0 -0.15566888939E+02  0.93661437809E+01  0.37001725015E+02  0.41221115158E+02  0.51100000000E-03 0. -1.
        -11    1    3    3    0    0  0.64277864221E+01  0.56759906879E+01 -0.24778524060E+01  0.89259767748E+01  0.51100000000E-03 0.  1.
        -12    1    3    3    0    0  0.93644673385E+01 -0.15849747161E+02 -0.35354692044E+02  0.39860531646E+02  0.00000000000E+00 0.  1.
</event>
<event>
 7    1  0.1935465E-015  0.9000782E+02  0.7816164E-02  0.1186339E+00
        -11   -1    0    0    0    0  0.00000000000E+00  0.00000000000E+00  0.45593999997E+02  0.45594000000E+02  0.51100000000E-03 0.  1.
         11   -1    0    0    0    0 -0.00000000000E+00 -0.00000000000E+00 -0.45593999997E+02  0.45594000000E+02  0.51100000000E-03 0. -1.
    9900012    2    1    2    0    0 -0.36485703059E+00 -0.65580846158E+00  0.91083309212E+00  0.90007821067E+02  0.90000083506E+02 0.  0.
         12    1    1    2    0    0  0.36485703059E+00  0.65580846158E+00 -0.91083309212E+00  0.11801789325E+01  0.00000000000E+00 0. -1.
         11    1    3    3    0    0 -0.11818388196E+02  0.20326579334E+01  0.16572507335E+01  0.12105886092E+02  0.51100000000E-03 0. -1.
        -11    1    3    3    0    0  0.33347119650E+01 -0.88454384945E+01  0.37318326760E+02  0.38497007656E+02  0.51100000000E-03 0.  1.
         12    1    3    3    0    0  0.81188192003E+01  0.61569720995E+01 -0.38064744402E+02  0.39404927319E+02  0.00000000000E+00 0. -1.
</event>
<event>
 7    1  0.1935465E-015  0.9000774E+02  0.7816164E-02  0.1186339E+00
        -11   -1    0    0    0    0  0.00000000000E+00  0.00000000000E+00  0.45593999997E+02  0.45594000000E+02  0.51100000000E-03 0.  1.
         11   -1    0    0    0    0 -0.00000000000E+00 -0.00000000000E+00 -0.45593999997E+02  0.45594000000E+02  0.51100000000E-03 0. -1.
    9900012    2    1    2    0    0 -0.38952288689E+00  0.94045999359E+00  0.59735445881E+00  0.90007735018E+02  0.89999996320E+02 0.  0.
         12    1    1    2    0    0  0.38952288689E+00 -0.94045999359E+00 -0.59735445881E+00  0.11802649823E+01  0.00000000000E+00 0. -1.
         11    1    3    3    0    0  0.22406278960E+02  0.22515512028E+02 -0.23966596740E+02  0.39791800390E+02  0.51100000000E-03 0. -1.
        -11    1    3    3    0    0  0.70221533936E+01 -0.74785370885E+01  0.25782123378E+01  0.10577633686E+02  0.51100000000E-03 0.  1.
        -12    1    3    3    0    0 -0.29817955241E+02 -0.14096514946E+02  0.21985738861E+02  0.39638300942E+02  0.00000000000E+00 0.  1.
</event>
<event>
 7    1  0.1935465E-015  0.9000758E+02  0.7816164E-02  0.1186339E+00
        -11   -1    0    0    0    0  0.00000000000E+00  0.00000000000E+00  0.45593999997E+02  0.45594000000E+02  0.51100000000E-03 0. -1.
         11   -1    0    0    0    0 -0.00000000000E+00 -0.00000000000E+00 -0.45593999997E+02  0.45594000000E+02  0.51100000000E-03 0.  1.
    9900012    2    1    2    0    0 -0.51494857893E+00 -0.10574980453E+01  0.99605177752E-01  0.90007578318E+02  0.89999837552E+02 0.  0.
         12    1    1    2    0    0  0.51494857893E+00  0.10574980453E+01 -0.99605177752E-01  0.11804216815E+01  0.00000000000E+00 0. -1.
         11    1    3    3    0    0  0.18166793244E+02 -0.13915946547E+02  0.51614748226E+00  0.22890005538E+02  0.51100000000E-03 0. -1.
        -11    1    3    3    0    0  0.64545131109E+01 -0.15540173925E+02 -0.18579933451E+02  0.25067342748E+02  0.51100000000E-03 0.  1.
        -12    1    3    3    0    0 -0.25136254934E+02  0.28398622427E+02  0.18163391147E+02  0.42050230032E+02  0.00000000000E+00 0.  1.
</event>
<event>
 7    1  0.1935465E-015  0.9000780E+02  0.7816164E-02  0.1186339E+00
        -11   -1    0    0    0    0  0.00000000000E+00  0.00000000000E+00  0.45593999997E+02  0.45594000000E+02  0.51100000000E-03 0.  1.
         11   -1    0    0    0    0 -0.00000000000E+00 -0.00000000000E+00 -0.45593999997E+02  0.45594000000E+02  0.51100000000E-03 0. -1.
    9900012    2    1    2    0    0  0.20756444894E+00  0.65706212130E+00 -0.95815851228E+00  0.90007796049E+02  0.90000058157E+02 0.  0.
         12    1    1    2    0    0 -0.20756444894E+00 -0.65706212130E+00  0.95815851228E+00  0.11802039512E+01  0.00000000000E+00 0. -1.
         11    1    3    3    0    0 -0.31247117116E+01 -0.81769274429E+01  0.29634809380E+01  0.92416548960E+01  0.51100000000E-03 0. -1.
        -11    1    3    3    0    0 -0.20081313023E+02 -0.29302766828E+02 -0.57126914608E+01  0.35979801563E+02  0.51100000000E-03 0.  1.
         12    1    3    3    0    0  0.23413589183E+02  0.38136756392E+02  0.17910520106E+01  0.44786339590E+02  0.00000000000E+00 0. -1.
</event>
<event>
 7    1  0.2644408E-015  0.9000778E+02  0.7816164E-02  0.1186339E+00
        -11   -1    0    0    0    0  0.00000000000E+00  0.00000000000E+00  0.45593999997E+02  0.45594000000E+02  0.51100000000E-03 0.  1.
         11   -1    0    0    0    0 -0.00000000000E+00 -0.00000000000E+00 -0.45593999997E+02  0.45594000000E+02  0.51100000000E-03 0. -1.
    9900012    2    1    2    0    0  0.10155754461E+01  0.33133861209E-01  0.60036601516E+00  0.90007775152E+02  0.90000036984E+02 0.  0.
         12    1    1    2    0    0 -0.10155754461E+01 -0.33133861209E-01 -0.60036601516E+00  0.11802248479E+01  0.00000000000E+00 0. -1.
         11    1    3    3    0    0 -0.46475628453E+01  0.50486230249E+01  0.66718551670E+01  0.95708978930E+01  0.51100000000E-03 0. -1.
        -11    1    3    3    0    0 -0.26593607871E+02  0.20257268420E+01  0.23924850288E+02  0.35829066558E+02  0.51100000000E-03 0.  1.
         12    1    3    3    0    0  0.32256746162E+02 -0.70412160057E+01 -0.29996339440E+02  0.44607810702E+02  0.00000000000E+00 0. -1.
</event>
<event>
 7    1  0.1935465E-015  0.9000767E+02  0.7816164E-02  0.1186339E+00
        -11   -1    0    0    0    0  0.00000000000E+00  0.00000000000E+00  0.45593999997E+02  0.45594000000E+02  0.51100000000E-03 0.  1.
         11   -1    0    0    0    0 -0.00000000000E+00 -0.00000000000E+00 -0.45593999997E+02  0.45594000000E+02  0.51100000000E-03 0. -1.
    9900012    2    1    2    0    0  0.35360743519E+00  0.20235364857E+00  0.11077923763E+01  0.90007665655E+02  0.89999926041E+02 0.  0.
         12    1    1    2    0    0 -0.35360743519E+00 -0.20235364857E+00 -0.11077923763E+01  0.11803343451E+01  0.00000000000E+00 0. -1.
         11    1    3    3    0    0 -0.18364303726E+00 -0.54928885913E+01  0.84199411514E+01  0.10054897269E+02  0.51100000000E-03 0. -1.
        -11    1    3    3    0    0 -0.23434963412E+02  0.28812771656E+02  0.14796951309E+02  0.39979033117E+02  0.51100000000E-03 0.  1.
         12    1    3    3    0    0  0.23972213885E+02 -0.23117529416E+02 -0.22109100084E+02  0.39973735269E+02  0.00000000000E+00 0. -1.
</event>
<event>
 7    1  0.1935465E-015  0.9000776E+02  0.7816164E-02  0.1186339E+00
        -11   -1    0    0    0    0  0.00000000000E+00  0.00000000000E+00  0.45593999997E+02  0.45594000000E+02  0.51100000000E-03 0.  1.
         11   -1    0    0    0    0 -0.00000000000E+00 -0.00000000000E+00 -0.45593999997E+02  0.45594000000E+02  0.51100000000E-03 0. -1.
    9900012    2    1    2    0    0 -0.29157992811E+00 -0.50204623121E+00  0.10275734965E+01  0.90007755719E+02  0.90000017294E+02 0.  0.
         12    1    1    2    0    0  0.29157992811E+00  0.50204623121E+00 -0.10275734965E+01  0.11802442813E+01  0.00000000000E+00 0. -1.
         11    1    3    3    0    0 -0.89268531650E+01  0.37201448147E+02 -0.58016832207E+01  0.38694908969E+02  0.51100000000E-03 0. -1.
        -11    1    3    3    0    0  0.10224717317E+02  0.25764174633E+01  0.13009708610E+01  0.10624278639E+02  0.51100000000E-03 0.  1.
        -12    1    3    3    0    0 -0.15894440804E+01 -0.40279911841E+02  0.55282858563E+01  0.40688568111E+02  0.00000000000E+00 0.  1.
</event>
<event>
 7    1  0.1935465E-015  0.9000775E+02  0.7816164E-02  0.1186339E+00
        -11   -1    0    0    0    0  0.00000000000E+00  0.00000000000E+00  0.45593999997E+02  0.45594000000E+02  0.51100000000E-03 0.  1.
         11   -1    0    0    0    0 -0.00000000000E+00 -0.00000000000E+00 -0.45593999997E+02  0.45594000000E+02  0.51100000000E-03 0. -1.
    9900012    2    1    2    0    0 -0.17150284000E+00  0.93810537600E+00  0.69537309084E+00  0.90007746359E+02  0.90000007811E+02 0.  0.
         12    1    1    2    0    0  0.17150284000E+00 -0.93810537600E+00 -0.69537309084E+00  0.11802536406E+01  0.00000000000E+00 0. -1.
         11    1    3    3    0    0  0.17345677887E+00 -0.15722549175E+02 -0.37994917749E+02  0.41119854266E+02  0.51100000000E-03 0. -1.
        -11    1    3    3    0    0  0.56885208235E+01 -0.44612446796E+01  0.54863956432E+01  0.90753793675E+01  0.51100000000E-03 0.  1.
        -12    1    3    3    0    0 -0.60334804423E+01  0.21121899231E+02  0.33203895197E+02  0.39812512726E+02  0.00000000000E+00 0.  1.
</event>
<event>
 7    1  0.1935465E-015  0.9000772E+02  0.7816164E-02  0.1186339E+00
        -11   -1    0    0    0    0  0.00000000000E+00  0.00000000000E+00  0.45593999997E+02  0.45594000000E+02  0.51100000000E-03 0. -1.
         11   -1    0    0    0    0 -0.00000000000E+00 -0.00000000000E+00 -0.45593999997E+02  0.45594000000E+02  0.51100000000E-03 0.  1.
    9900012    2    1    2    0    0  0.95252183246E-01  0.33318270886E+00 -0.11282587635E+01  0.90007723959E+02  0.89999985115E+02 0.  0.
         12    1    1    2    0    0 -0.95252183246E-01 -0.33318270886E+00  0.11282587635E+01  0.11802760411E+01  0.00000000000E+00 0. -1.
         11    1    3    3    0    0 -0.63778341026E+01  0.18609648784E+02 -0.33855989671E+01  0.19961414687E+02  0.51100000000E-03 0. -1.
        -11    1    3    3    0    0  0.80851867432E+00  0.89620912724E+01 -0.27722423188E+02  0.29146278152E+02  0.51100000000E-03 0.  1.
        -12    1    3    3    0    0  0.56645676115E+01 -0.27238557347E+02  0.29979763392E+02  0.40900031120E+02  0.00000000000E+00 0.  1.
</event>
<event>
 7    1  0.1935465E-015  0.9000780E+02  0.7816164E-02  0.1186339E+00
        -11   -1    0    0    0    0  0.00000000000E+00  0.00000000000E+00  0.45593999997E+02  0.45594000000E+02  0.51100000000E-03 0.  1.
         11   -1    0    0    0    0 -0.00000000000E+00 -0.00000000000E+00 -0.45593999997E+02  0.45594000000E+02  0.51100000000E-03 0. -1.
    9900012    2    1    2    0    0  0.19068820689E+00 -0.10757589873E+01 -0.44638385633E+00  0.90007797501E+02  0.90000059628E+02 0.  0.
         12    1    1    2    0    0 -0.19068820689E+00  0.10757589873E+01  0.44638385633E+00  0.11802024988E+01  0.00000000000E+00 0. -1.
         11    1    3    3    0    0 -0.20204704101E+00 -0.10137881062E+02 -0.31951745578E+01  0.10631396717E+02  0.51100000000E-03 0. -1.
        -11    1    3    3    0    0 -0.21059387092E+02 -0.12573903891E+02  0.29825388765E+02  0.38615471757E+02  0.51100000000E-03 0.  1.
         12    1    3    3    0    0  0.21452122340E+02  0.21636025966E+02 -0.27076598063E+02  0.40760929027E+02  0.00000000000E+00 0. -1.
</event>
<event>
 7    1  0.1935465E-015  0.9000795E+02  0.7816164E-02  0.1186339E+00
        -11   -1    0    0    0    0  0.00000000000E+00  0.00000000000E+00  0.45593999997E+02  0.45594000000E+02  0.51100000000E-03 0. -1.
         11   -1    0    0    0    0 -0.00000000000E+00 -0.00000000000E+00 -0.45593999997E+02  0.45594000000E+02  0.51100000000E-03 0.  1.
    9900012    2    1    2    0    0 -0.93126710673E+00 -0.25593287174E+00  0.67805705832E+00  0.90007948546E+02  0.90000212667E+02 0.  0.
         12    1    1    2    0    0  0.93126710673E+00  0.25593287174E+00 -0.67805705832E+00  0.11800514536E+01  0.00000000000E+00 0. -1.
         11    1    3    3    0    0  0.67050107528E+01 -0.14603259635E+01 -0.61389182040E+01  0.92073904061E+01  0.51100000000E-03 0. -1.
        -11    1    3    3    0    0  0.29254366724E+02  0.69214854856E+01 -0.18862837292E+02  0.35489879751E+02  0.51100000000E-03 0.  1.
         12    1    3    3    0    0 -0.36890644584E+02 -0.57170923938E+01  0.25679812555E+02  0.45310678389E+02  0.00000000000E+00 0. -1.
</event>
<event>
 7    1  0.1935465E-015  0.9000776E+02  0.7816164E-02  0.1186339E+00
        -11   -1    0    0    0    0  0.00000000000E+00  0.00000000000E+00  0.45593999997E+02  0.45594000000E+02  0.51100000000E-03 0.  1.
         11   -1    0    0    0    0 -0.00000000000E+00 -0.00000000000E+00 -0.45593999997E+02  0.45594000000E+02  0.51100000000E-03 0. -1.
    9900012    2    1    2    0    0  0.49642751361E+00  0.47255722312E+00 -0.96084313374E+00  0.90007758443E+02  0.90000020054E+02 0.  0.
         12    1    1    2    0    0 -0.49642751361E+00 -0.47255722312E+00  0.96084313374E+00  0.11802415571E+01  0.00000000000E+00 0. -1.
         11    1    3    3    0    0  0.27915008900E+01 -0.86366966746E+01  0.16700232637E+01  0.92289752752E+01  0.51100000000E-03 0. -1.
        -11    1    3    3    0    0 -0.34580153883E+01  0.37581986248E+02  0.21502325128E+02  0.43436315992E+02  0.51100000000E-03 0.  1.
         12    1    3    3    0    0  0.11629420119E+01 -0.28472732350E+02 -0.24133191525E+02  0.37342467176E+02  0.00000000000E+00 0. -1.
</event>
<event>
 7    1  0.1935465E-015  0.9000771E+02  0.7816164E-02  0.1186339E+00
        -11   -1    0    0    0    0  0.00000000000E+00  0.00000000000E+00  0.45593999997E+02  0.45594000000E+02  0.51100000000E-03 0.  1.
         11   -1    0    0    0    0 -0.00000000000E+00 -0.00000000000E+00 -0.45593999997E+02  0.45594000000E+02  0.51100000000E-03 0. -1.
    9900012    2    1    2    0    0  0.13027742439E+00 -0.15944255926E+00  0.11621872366E+01  0.90007714734E+02  0.89999975768E+02 0.  0.
         12    1    1    2    0    0 -0.13027742439E+00  0.15944255926E+00 -0.11621872366E+01  0.11802852664E+01  0.00000000000E+00 0. -1.
         11    1    3    3    0    0 -0.81111397804E+00  0.91712785100E+01  0.15617796833E+01  0.93385979373E+01  0.51100000000E-03 0. -1.
        -11    1    3    3    0    0 -0.34634825652E+02  0.10635675441E+02  0.11772773496E+02  0.38095760080E+02  0.51100000000E-03 0.  1.
         12    1    3    3    0    0  0.35576217054E+02 -0.19966396510E+02 -0.12172365943E+02  0.42573356717E+02  0.00000000000E+00 0. -1.
</event>
<event>
 7    1  0.1935465E-015  0.9000770E+02  0.7816164E-02  0.1186339E+00
        -11   -1    0    0    0    0  0.00000000000E+00  0.00000000000E+00  0.45593999997E+02  0.45594000000E+02  0.51100000000E-03 0.  1.
         11   -1    0    0    0    0 -0.00000000000E+00 -0.00000000000E+00 -0.45593999997E+02  0.45594000000E+02  0.51100000000E-03 0. -1.
    9900012    2    1    2    0    0 -0.22020988793E+00  0.44776514833E+00  0.10696324795E+01  0.90007703569E+02  0.89999964457E+02 0.  0.
         12    1    1    2    0    0  0.22020988793E+00 -0.44776514833E+00 -0.10696324795E+01  0.11802964306E+01  0.00000000000E+00 0. -1.
         11    1    3    3    0    0 -0.19466460952E+02 -0.31653631452E+02 -0.85879528944E+01  0.38139853452E+02  0.51100000000E-03 0. -1.
        -11    1    3    3    0    0  0.32433297829E+01 -0.50968967279E+01 -0.59408261215E+01  0.84729545970E+01  0.51100000000E-03 0.  1.
        -12    1    3    3    0    0  0.16002921281E+02  0.37198293329E+02  0.15598411495E+02  0.43394895521E+02  0.00000000000E+00 0.  1.
</event>
<event>
 7    1  0.1976450E-015  0.9000776E+02  0.7816164E-02  0.1186339E+00
        -11   -1    0    0    0    0  0.00000000000E+00  0.00000000000E+00  0.45593999997E+02  0.45594000000E+02  0.51100000000E-03 0.  1.
         11   -1    0    0    0    0 -0.00000000000E+00 -0.00000000000E+00 -0.45593999997E+02  0.45594000000E+02  0.51100000000E-03 0. -1.
    9900012    2    1    2    0    0  0.48602898096E+00  0.85352405509E+00  0.65440572884E+00  0.90007756660E+02  0.90000018248E+02 0.  0.
         12    1    1    2    0    0 -0.48602898096E+00 -0.85352405509E+00 -0.65440572884E+00  0.11802433397E+01  0.00000000000E+00 0. -1.
         11    1    3    3    0    0 -0.80563740019E+01 -0.47663536895E+01 -0.16843918809E+01  0.95110706980E+01  0.51100000000E-03 0. -1.
        -11    1    3    3    0    0  0.16621191176E+02 -0.30794971292E+02  0.18801308870E+02  0.39725098722E+02  0.51100000000E-03 0.  1.
         12    1    3    3    0    0 -0.80787881935E+01  0.36414849037E+02 -0.16462511260E+02  0.40771587240E+02  0.00000000000E+00 0. -1.
</event>
<event>
 7    1  0.1935465E-015  0.9000778E+02  0.7816164E-02  0.1186339E+00
        -11   -1    0    0    0    0  0.00000000000E+00  0.00000000000E+00  0.45593999997E+02  0.45594000000E+02  0.51100000000E-03 0.  1.
         11   -1    0    0    0    0 -0.00000000000E+00 -0.00000000000E+00 -0.45593999997E+02  0.45594000000E+02  0.51100000000E-03 0. -1.
    9900012    2    1    2    0    0  0.41928007624E+00 -0.58984775050E+00  0.93230706431E+00  0.90007782811E+02  0.90000044744E+02 0.  0.
         12    1    1    2    0    0 -0.41928007624E+00  0.58984775050E+00 -0.93230706431E+00  0.11802171890E+01  0.00000000000E+00 0. -1.
         11    1    3    3    0    0 -0.77541657034E+01  0.35163625866E+02  0.77097249713E+01  0.36824550632E+02  0.51100000000E-03 0. -1.
        -11    1    3    3    0    0  0.17186268638E+01  0.47176368337E+01  0.81451480673E+01  0.95683443130E+01  0.51100000000E-03 0.  1.
        -12    1    3    3    0    0  0.64548189159E+01 -0.40471110451E+02 -0.14922565974E+02  0.43614887866E+02  0.00000000000E+00 0.  1.
</event>
<event>
 7    1  0.1935465E-015  0.9000785E+02  0.7816164E-02  0.1186339E+00
        -11   -1    0    0    0    0  0.00000000000E+00  0.00000000000E+00  0.45593999997E+02  0.45594000000E+02  0.51100000000E-03 0. -1.
         11   -1    0    0    0    0 -0.00000000000E+00 -0.00000000000E+00 -0.45593999997E+02  0.45594000000E+02  0.51100000000E-03 0.  1.
    9900012    2    1    2    0    0  0.10977122507E+01 -0.42623002118E+00 -0.78133416964E-01  0.90007852108E+02  0.90000114956E+02 0.  0.
         12    1    1    2    0    0 -0.10977122507E+01  0.42623002118E+00  0.78133416964E-01  0.11801478920E+01  0.00000000000E+00 0. -1.
         11    1    3    3    0    0 -0.27748995322E+02  0.21028673453E+02  0.14848771210E+02  0.37850995433E+02  0.51100000000E-03 0. -1.
        -11    1    3    3    0    0 -0.58239060623E+01 -0.91710424225E+01 -0.10500379224E+02  0.15109065658E+02  0.51100000000E-03 0.  1.
        -12    1    3    3    0    0  0.34670613635E+02 -0.12283861052E+02 -0.44265254025E+01  0.37047791017E+02  0.00000000000E+00 0.  1.
</event>
<event>
 7    1  0.1935465E-015  0.9000780E+02  0.7816164E-02  0.1186339E+00
        -11   -1    0    0    0    0  0.00000000000E+00  0.00000000000E+00  0.45593999997E+02  0.45594000000E+02  0.51100000000E-03 0.  1.
         11   -1    0    0    0    0 -0.00000000000E+00 -0.00000000000E+00 -0.45593999997E+02  0.45594000000E+02  0.51100000000E-03 0. -1.
    9900012    2    1    2    0    0  0.14240040910E+00 -0.96389690983E+00 -0.66596345018E+00  0.90007795591E+02  0.90000057693E+02 0.  0.
         12    1    1    2    0    0 -0.14240040910E+00  0.96389690983E+00  0.66596345018E+00  0.11802044087E+01  0.00000000000E+00 0. -1.
         11    1    3    3    0    0  0.54514893635E+00 -0.83194523421E+01  0.78336319449E+01  0.11440116448E+02  0.51100000000E-03 0. -1.
        -11    1    3    3    0    0  0.15222868087E+02  0.15116466861E+02  0.29661956827E+02  0.36607034382E+02  0.51100000000E-03 0.  1.
         12    1    3    3    0    0 -0.15625616615E+02 -0.77609114289E+01 -0.38161552222E+02  0.41960644761E+02  0.00000000000E+00 0. -1.
</event>
<event>
 7    1  0.1935465E-015  0.9000772E+02  0.7816164E-02  0.1186339E+00
        -11   -1    0    0    0    0  0.00000000000E+00  0.00000000000E+00  0.45593999997E+02  0.45594000000E+02  0.51100000000E-03 0.  1.
         11   -1    0    0    0    0 -0.00000000000E+00 -0.00000000000E+00 -0.45593999997E+02  0.45594000000E+02  0.51100000000E-03 0. -1.
    9900012    2    1    2    0    0 -0.58522830771E+00  0.51113870889E-02  0.10249625461E+01  0.90007717610E+02  0.89999978683E+02 0.  0.
         12    1    1    2    0    0  0.58522830771E+00 -0.51113870889E-02 -0.10249625461E+01  0.11802823896E+01  0.00000000000E+00 0. -1.
         11    1    3    3    0    0 -0.22680249888E+02 -0.28575519886E+02  0.84265247788E+01  0.37442761541E+02  0.51100000000E-03 0. -1.
        -11    1    3    3    0    0  0.31284778273E+01 -0.90326346619E+01  0.99798838244E+00  0.96110271836E+01  0.51100000000E-03 0.  1.
        -12    1    3    3    0    0  0.18966543753E+02  0.37613265935E+02 -0.83995506151E+01  0.42953928886E+02  0.00000000000E+00 0.  1.
</event>
<event>
 7    1  0.1935465E-015  0.9000770E+02  0.7816164E-02  0.1186339E+00
        -11   -1    0    0    0    0  0.00000000000E+00  0.00000000000E+00  0.45593999997E+02  0.45594000000E+02  0.51100000000E-03 0.  1.
         11   -1    0    0    0    0 -0.00000000000E+00 -0.00000000000E+00 -0.45593999997E+02  0.45594000000E+02  0.51100000000E-03 0. -1.
    9900012    2    1    2    0    0  0.75062768498E+00  0.49529216317E+00  0.76442918222E+00  0.90007699944E+02  0.89999960783E+02 0.  0.
         12    1    1    2    0    0 -0.75062768498E+00 -0.49529216317E+00 -0.76442918222E+00  0.11803000563E+01  0.00000000000E+00 0. -1.
         11    1    3    3    0    0 -0.24680360162E+01  0.72462957721E+01 -0.42158381394E+01  0.87391816363E+01  0.51100000000E-03 0. -1.
        -11    1    3    3    0    0 -0.24546355647E+02  0.19729307090E+02 -0.18267420255E+02  0.36406974288E+02  0.51100000000E-03 0.  1.
         12    1    3    3    0    0  0.27765019349E+02 -0.26480310699E+02  0.23247687576E+02  0.44861544019E+02  0.00000000000E+00 0. -1.
</event>
<event>
 7    1  0.1935465E-015  0.9000775E+02  0.7816164E-02  0.1186339E+00
        -11   -1    0    0    0    0  0.00000000000E+00  0.00000000000E+00  0.45593999997E+02  0.45594000000E+02  0.51100000000E-03 0.  1.
         11   -1    0    0    0    0 -0.00000000000E+00 -0.00000000000E+00 -0.45593999997E+02  0.45594000000E+02  0.51100000000E-03 0. -1.
    9900012    2    1    2    0    0 -0.56698891594E+00 -0.69902552975E+00  0.76345746532E+00  0.90007754084E+02  0.90000015637E+02 0.  0.
         12    1    1    2    0    0  0.56698891594E+00  0.69902552975E+00 -0.76345746532E+00  0.11802459165E+01  0.00000000000E+00 0. -1.
         11    1    3    3    0    0 -0.28551177006E+02  0.19958099041E+02 -0.11162021934E+02  0.36579860027E+02  0.51100000000E-03 0. -1.
        -11    1    3    3    0    0 -0.10943277686E+01 -0.12400323118E+02 -0.10096837364E+02  0.16028465045E+02  0.51100000000E-03 0.  1.
        -12    1    3    3    0    0  0.29078515858E+02 -0.82568014522E+01  0.22022316763E+02  0.37399429011E+02  0.00000000000E+00 0.  1.
</event>
<event>
 7    1  0.1935465E-015  0.9000775E+02  0.7816164E-02  0.1186339E+00
        -11   -1    0    0    0    0  0.00000000000E+00  0.00000000000E+00  0.45593999997E+02  0.45594000000E+02  0.51100000000E-03 0.  1.
         11   -1    0    0    0    0 -0.00000000000E+00 -0.00000000000E+00 -0.45593999997E+02  0.45594000000E+02  0.51100000000E-03 0. -1.
    9900012    2    1    2    0    0 -0.95783133189E+00  0.67522240560E+00  0.14005196817E+00  0.90007753962E+02  0.90000015514E+02 0.  0.
         12    1    1    2    0    0  0.95783133189E+00 -0.67522240560E+00 -0.14005196817E+00  0.11802460384E+01  0.00000000000E+00 0. -1.
         11    1    3    3    0    0  0.52013324817E+01 -0.35464366909E+01  0.74030386939E+01  0.97178215127E+01  0.51100000000E-03 0. -1.
        -11    1    3    3    0    0  0.20914457601E+02 -0.75001487172E+01  0.27071188451E+02  0.35021650617E+02  0.51100000000E-03 0.  1.
         12    1    3    3    0    0 -0.27073621415E+02  0.11721807814E+02 -0.34334175177E+02  0.45268281832E+02  0.00000000000E+00 0. -1.
</event>
<event>
 7    1  0.1935465E-015  0.9000769E+02  0.7816164E-02  0.1186339E+00
        -11   -1    0    0    0    0  0.00000000000E+00  0.00000000000E+00  0.45593999997E+02  0.45594000000E+02  0.51100000000E-03 0.  1.
         11   -1    0    0    0    0 -0.00000000000E+00 -0.00000000000E+00 -0.45593999997E+02  0.45594000000E+02  0.51100000000E-03 0. -1.
    9900012    2    1    2    0    0  0.15933306329E+00  0.94843846736E-01  0.11656507783E+01  0.90007693210E+02  0.89999953961E+02 0.  0.
         12    1    1    2    0    0 -0.15933306329E+00 -0.94843846736E-01 -0.11656507783E+01  0.11803067895E+01  0.00000000000E+00 0. -1.
         11    1    3    3    0    0  0.17397779668E+01 -0.85164725438E+01  0.82872688562E+01  0.12009827531E+02  0.51100000000E-03 0. -1.
        -11    1    3    3    0    0  0.32889123146E+02 -0.40252819437E+01  0.13627274899E+02  0.35827362971E+02  0.51100000000E-03 0.  1.
         12    1    3    3    0    0 -0.34469568049E+02  0.12636598334E+02 -0.20748892977E+02  0.42170502709E+02  0.00000000000E+00 0. -1.
</event>
<event>
 7    1  0.1935465E-015  0.9000758E+02  0.7816164E-02  0.1186339E+00
        -11   -1    0    0    0    0  0.00000000000E+00  0.00000000000E+00  0.45593999997E+02  0.45594000000E+02  0.51100000000E-03 0. -1.
         11   -1    0    0    0    0 -0.00000000000E+00 -0.00000000000E+00 -0.45593999997E+02  0.45594000000E+02  0.51100000000E-03 0.  1.
    9900012    2    1    2    0    0 -0.11265707805E+01  0.34542708832E+00 -0.70012752555E-01  0.90007583386E+02  0.89999842687E+02 0.  0.
         12    1    1    2    0    0  0.11265707805E+01 -0.34542708832E+00  0.70012752555E-01  0.11804166139E+01  0.00000000000E+00 0. -1.
         11    1    3    3    0    0  0.25812236755E+01  0.95294868812E+01 -0.24096141527E+01  0.10162680577E+02  0.51100000000E-03 0. -1.
        -11    1    3    3    0    0  0.64127947855E+01  0.34097024269E+02 -0.40846394685E+01  0.34934442615E+02  0.51100000000E-03 0.  1.
         12    1    3    3    0    0 -0.10120589242E+02 -0.43281084062E+02  0.64242408686E+01  0.44910460195E+02  0.00000000000E+00 0. -1.
</event>
<event>
 7    1  0.1935465E-015  0.9000809E+02  0.7816164E-02  0.1186338E+00
        -11   -1    0    0    0    0  0.00000000000E+00  0.00000000000E+00  0.45593999997E+02  0.45594000000E+02  0.51100000000E-03 0.  1.
         11   -1    0    0    0    0 -0.00000000000E+00 -0.00000000000E+00 -0.45593999997E+02  0.45594000000E+02  0.51100000000E-03 0. -1.
    9900012    2    1    2    0    0 -0.82638848757E+00  0.73693590781E+00 -0.40767604543E+00  0.90008088045E+02  0.90000354006E+02 0.  0.
         12    1    1    2    0    0  0.82638848757E+00 -0.73693590781E+00  0.40767604543E+00  0.11799119555E+01  0.00000000000E+00 0. -1.
         11    1    3    3    0    0  0.71622987937E+01  0.24778886610E+00  0.65883371023E+01  0.97347886144E+01  0.51100000000E-03 0. -1.
        -11    1    3    3    0    0  0.88619554597E+01 -0.29494152403E+02  0.19852447362E+02  0.36640946318E+02  0.51100000000E-03 0.  1.
         12    1    3    3    0    0 -0.16850642741E+02  0.29983299445E+02 -0.26848460509E+02  0.43632353112E+02  0.00000000000E+00 0. -1.
</event>
<event>
 7    1  0.1935465E-015  0.9000771E+02  0.7816164E-02  0.1186339E+00
        -11   -1    0    0    0    0  0.00000000000E+00  0.00000000000E+00  0.45593999997E+02  0.45594000000E+02  0.51100000000E-03 0.  1.
         11   -1    0    0    0    0 -0.00000000000E+00 -0.00000000000E+00 -0.45593999997E+02  0.45594000000E+02  0.51100000000E-03 0. -1.
    9900012    2    1    2    0    0 -0.90824226982E+00 -0.60681375874E+00  0.44715369835E+00  0.90007714700E+02  0.89999975734E+02 0.  0.
         12    1    1    2    0    0  0.90824226982E+00  0.60681375874E+00 -0.44715369835E+00  0.11802852996E+01  0.00000000000E+00 0. -1.
         11    1    3    3    0    0 -0.70804352107E+01  0.70727295654E+01  0.21895199177E+00  0.10010195129E+02  0.51100000000E-03 0. -1.
        -11    1    3    3    0    0 -0.53788233341E+00  0.35300678253E+02 -0.67391719609E+01  0.35942226441E+02  0.51100000000E-03 0.  1.
         12    1    3    3    0    0  0.67100752743E+01 -0.42980221577E+02  0.69673736675E+01  0.44055293131E+02  0.00000000000E+00 0. -1.
</event>
<event>
 7    1  0.1935465E-015  0.9000771E+02  0.7816164E-02  0.1186339E+00
        -11   -1    0    0    0    0  0.00000000000E+00  0.00000000000E+00  0.45593999997E+02  0.45594000000E+02  0.51100000000E-03 0.  1.
         11   -1    0    0    0    0 -0.00000000000E+00 -0.00000000000E+00 -0.45593999997E+02  0.45594000000E+02  0.51100000000E-03 0. -1.
    9900012    2    1    2    0    0 -0.73100843670E+00  0.39976579352E+00  0.83599540071E+00  0.90007714300E+02  0.89999975329E+02 0.  0.
         12    1    1    2    0    0  0.73100843670E+00 -0.39976579352E+00 -0.83599540071E+00  0.11802857002E+01  0.00000000000E+00 0. -1.
         11    1    3    3    0    0  0.61285699802E+01 -0.50759081159E+01 -0.27596356419E-01  0.79576991036E+01  0.51100000000E-03 0. -1.
        -11    1    3    3    0    0  0.23379381594E+02  0.64811165902E+01  0.30987488740E+02  0.39355111671E+02  0.51100000000E-03 0.  1.
         12    1    3    3    0    0 -0.30238960011E+02 -0.10054426808E+01 -0.30123896983E+02  0.42694903525E+02  0.00000000000E+00 0. -1.
</event>
<event>
 7    1  0.1935465E-015  0.9000770E+02  0.7816164E-02  0.1186339E+00
        -11   -1    0    0    0    0  0.00000000000E+00  0.00000000000E+00  0.45593999997E+02  0.45594000000E+02  0.51100000000E-03 0.  1.
         11   -1    0    0    0    0 -0.00000000000E+00 -0.00000000000E+00 -0.45593999997E+02  0.45594000000E+02  0.51100000000E-03 0. -1.
    9900012    2    1    2    0    0  0.43987084615E+00 -0.63678361261E+00  0.89113612272E+00  0.90007702021E+02  0.89999962887E+02 0.  0.
         12    1    1    2    0    0 -0.43987084615E+00  0.63678361261E+00 -0.89113612272E+00  0.11802979792E+01  0.00000000000E+00 0. -1.
         11    1    3    3    0    0  0.86803825753E+01  0.21033470184E+01  0.41156151404E+01  0.98341953701E+01  0.51100000000E-03 0. -1.
        -11    1    3    3    0    0 -0.11567308177E+02  0.37434731855E+02  0.33680534843E+01  0.39325634795E+02  0.51100000000E-03 0.  1.
         12    1    3    3    0    0  0.33267964476E+01 -0.40174862486E+02 -0.65925325019E+01  0.40847871856E+02  0.00000000000E+00 0. -1.
</event>
<event>
 7    1  0.1935465E-015  0.9000773E+02  0.7816164E-02  0.1186339E+00
        -11   -1    0    0    0    0  0.00000000000E+00  0.00000000000E+00  0.45593999997E+02  0.45594000000E+02  0.51100000000E-03 0.  1.
         11   -1    0    0    0    0 -0.00000000000E+00 -0.00000000000E+00 -0.45593999997E+02  0.45594000000E+02  0.51100000000E-03 0. -1.
    9900012    2    1    2    0    0  0.29672170753E+00 -0.55415871133E+00  0.99894742314E+00  0.90007732402E+02  0.89999993670E+02 0.  0.
         12    1    1    2    0    0 -0.29672170753E+00  0.55415871133E+00 -0.99894742314E+00  0.11802675982E+01  0.00000000000E+00 0. -1.
         11    1    3    3    0    0  0.37339107080E+02  0.74372613006E+01  0.30108516473E+01  0.38191451938E+02  0.51100000000E-03 0. -1.
        -11    1    3    3    0    0  0.44871026893E+01 -0.28240709415E+01  0.72227644523E+01  0.89597875992E+01  0.51100000000E-03 0.  1.
        -12    1    3    3    0    0 -0.41529488062E+02 -0.51673490704E+01 -0.92346686765E+01  0.42856492865E+02  0.00000000000E+00 0.  1.
</event>
<event>
 7    1  0.1935465E-015  0.9000777E+02  0.7816164E-02  0.1186339E+00
        -11   -1    0    0    0    0  0.00000000000E+00  0.00000000000E+00  0.45593999997E+02  0.45594000000E+02  0.51100000000E-03 0.  1.
         11   -1    0    0    0    0 -0.00000000000E+00 -0.00000000000E+00 -0.45593999997E+02  0.45594000000E+02  0.51100000000E-03 0. -1.
    9900012    2    1    2    0    0 -0.67408936771E-02 -0.11674417309E+01  0.17316760828E+00  0.90007765847E+02  0.90000027556E+02 0.  0.
         12    1    1    2    0    0  0.67408936771E-02  0.11674417309E+01 -0.17316760828E+00  0.11802341528E+01  0.00000000000E+00 0. -1.
         11    1    3    3    0    0 -0.26215189239E+01  0.11936281415E-01  0.90660966984E+01  0.94375109827E+01  0.51100000000E-03 0. -1.
        -11    1    3    3    0    0  0.20550241259E+02 -0.33990057932E+02  0.62864993821E+01  0.40213884776E+02  0.51100000000E-03 0.  1.
         12    1    3    3    0    0 -0.17935463228E+02  0.32810679920E+02 -0.15179428472E+02  0.40356370089E+02  0.00000000000E+00 0. -1.
</event>
<event>
 7    1  0.1935465E-015  0.9000780E+02  0.7816164E-02  0.1186339E+00
        -11   -1    0    0    0    0  0.00000000000E+00  0.00000000000E+00  0.45593999997E+02  0.45594000000E+02  0.51100000000E-03 0.  1.
         11   -1    0    0    0    0 -0.00000000000E+00 -0.00000000000E+00 -0.45593999997E+02  0.45594000000E+02  0.51100000000E-03 0. -1.
    9900012    2    1    2    0    0  0.11528565711E+01  0.12003823506E+00 -0.22222783924E+00  0.90007799736E+02  0.90000061892E+02 0.  0.
         12    1    1    2    0    0 -0.11528565711E+01 -0.12003823506E+00  0.22222783924E+00  0.11802002643E+01  0.00000000000E+00 0. -1.
         11    1    3    3    0    0  0.24281579190E+01 -0.10152474185E+02 -0.74006011487E+01  0.12795998616E+02  0.51100000000E-03 0. -1.
        -11    1    3    3    0    0  0.29047941258E+02 -0.17353012487E+02 -0.54917604258E+01  0.34279284802E+02  0.51100000000E-03 0.  1.
         12    1    3    3    0    0 -0.30323242606E+02  0.27625524906E+02  0.12670133735E+02  0.42932516318E+02  0.00000000000E+00 0. -1.
</event>
<event>
 7    1  0.1935465E-015  0.9000776E+02  0.7816164E-02  0.1186339E+00
        -11   -1    0    0    0    0  0.00000000000E+00  0.00000000000E+00  0.45593999997E+02  0.45594000000E+02  0.51100000000E-03 0.  1.
         11   -1    0    0    0    0 -0.00000000000E+00 -0.00000000000E+00 -0.45593999997E+02  0.45594000000E+02  0.51100000000E-03 0. -1.
    9900012    2    1    2    0    0 -0.81498110274E+00 -0.31295530109E+00  0.79425366871E+00  0.90007756759E+02  0.90000018348E+02 0.  0.
         12    1    1    2    0    0  0.81498110274E+00  0.31295530109E+00 -0.79425366871E+00  0.11802432413E+01  0.00000000000E+00 0. -1.
         11    1    3    3    0    0 -0.16519027969E+02  0.25372578797E+02  0.25442329540E+02  0.39546911037E+02  0.51100000000E-03 0. -1.
        -11    1    3    3    0    0  0.11366253210E+01 -0.37544766678E+01  0.77665221925E+01  0.87009700262E+01  0.51100000000E-03 0.  1.
        -12    1    3    3    0    0  0.14567421545E+02 -0.21931057430E+02 -0.32414598064E+02  0.41759875696E+02  0.00000000000E+00 0.  1.
</event>
<event>
 7    1  0.1935465E-015  0.9000759E+02  0.7816164E-02  0.1186339E+00
        -11   -1    0    0    0    0  0.00000000000E+00  0.00000000000E+00  0.45593999997E+02  0.45594000000E+02  0.51100000000E-03 0.  1.
         11   -1    0    0    0    0 -0.00000000000E+00 -0.00000000000E+00 -0.45593999997E+02  0.45594000000E+02  0.51100000000E-03 0. -1.
    9900012    2    1    2    0    0 -0.11176260662E+01 -0.11868351690E+00 -0.36081857676E+00  0.90007591661E+02  0.89999851071E+02 0.  0.
         12    1    1    2    0    0  0.11176260662E+01  0.11868351690E+00  0.36081857676E+00  0.11804083389E+01  0.00000000000E+00 0. -1.
         11    1    3    3    0    0  0.29149095984E+02  0.18077007023E+02 -0.16368610173E+02  0.38004991499E+02  0.51100000000E-03 0. -1.
        -11    1    3    3    0    0 -0.23929505071E+01  0.58023929418E+01 -0.63750807552E+01  0.89462635148E+01  0.51100000000E-03 0.  1.
        -12    1    3    3    0    0 -0.27873771543E+02 -0.23998083482E+02  0.22382872351E+02  0.43056336648E+02  0.00000000000E+00 0.  1.
</event>
<event>
 7    1  0.1935465E-015  0.9000776E+02  0.7816164E-02  0.1186339E+00
        -11   -1    0    0    0    0  0.00000000000E+00  0.00000000000E+00  0.45593999997E+02  0.45594000000E+02  0.51100000000E-03 0. -1.
         11   -1    0    0    0    0 -0.00000000000E+00 -0.00000000000E+00 -0.45593999997E+02  0.45594000000E+02  0.51100000000E-03 0.  1.
    9900012    2    1    2    0    0  0.25271009608E+00 -0.91942922354E+00 -0.69552153691E+00  0.90007761593E+02  0.90000023246E+02 0.  0.
         12    1    1    2    0    0 -0.25271009608E+00  0.91942922354E+00  0.69552153691E+00  0.11802384073E+01  0.00000000000E+00 0. -1.
         11    1    3    3    0    0  0.68180143827E+01  0.10795828296E+02 -0.92087114164E+00  0.12801688663E+02  0.51100000000E-03 0. -1.
        -11    1    3    3    0    0  0.23921316418E+02 -0.14976222597E+02 -0.24845179213E+02  0.37600525964E+02  0.51100000000E-03 0.  1.
         12    1    3    3    0    0 -0.30486620704E+02  0.32609650775E+01  0.25070528818E+02  0.39605546965E+02  0.00000000000E+00 0. -1.
</event>
<event>
 7    1  0.1935465E-015  0.9000770E+02  0.7816164E-02  0.1186339E+00
        -11   -1    0    0    0    0  0.00000000000E+00  0.00000000000E+00  0.45593999997E+02  0.45594000000E+02  0.51100000000E-03 0. -1.
         11   -1    0    0    0    0 -0.00000000000E+00 -0.00000000000E+00 -0.45593999997E+02  0.45594000000E+02  0.51100000000E-03 0.  1.
    9900012    2    1    2    0    0  0.11484549231E+01 -0.53580474027E-01 -0.26700847572E+00  0.90007697876E+02  0.89999958688E+02 0.  0.
         12    1    1    2    0    0 -0.11484549231E+01  0.53580474027E-01  0.26700847572E+00  0.11803021239E+01  0.00000000000E+00 0. -1.
         11    1    3    3    0    0  0.26436861558E+02 -0.62032521336E+01  0.30327491485E+02  0.40708042523E+02  0.51100000000E-03 0. -1.
        -11    1    3    3    0    0 -0.12801837685E+01  0.99238408433E+01  0.27693399707E+00  0.10009904109E+02  0.51100000000E-03 0.  1.
        -12    1    3    3    0    0 -0.24008222866E+02 -0.37741691837E+01 -0.30871433958E+02  0.39289751244E+02  0.00000000000E+00 0.  1.
</event>
<event>
 7    1  0.1935465E-015  0.9000776E+02  0.7816164E-02  0.1186339E+00
        -11   -1    0    0    0    0  0.00000000000E+00  0.00000000000E+00  0.45593999997E+02  0.45594000000E+02  0.51100000000E-03 0.  1.
         11   -1    0    0    0    0 -0.00000000000E+00 -0.00000000000E+00 -0.45593999997E+02  0.45594000000E+02  0.51100000000E-03 0. -1.
    9900012    2    1    2    0    0 -0.62422497551E+00  0.97426195027E+00  0.23261908246E+00  0.90007764936E+02  0.90000026634E+02 0.  0.
         12    1    1    2    0    0  0.62422497551E+00 -0.97426195027E+00 -0.23261908246E+00  0.11802350636E+01  0.00000000000E+00 0. -1.
         11    1    3    3    0    0  0.18993824500E+02 -0.35211782525E+02 -0.12077464423E+02  0.41791149121E+02  0.51100000000E-03 0. -1.
        -11    1    3    3    0    0 -0.60523656987E+01  0.15727449123E+01 -0.42060345150E+01  0.75362712075E+01  0.51100000000E-03 0.  1.
        -12    1    3    3    0    0 -0.13565683777E+02  0.34613299563E+02  0.16516118020E+02  0.40680344608E+02  0.00000000000E+00 0.  1.
</event>
<event>
 7    1  0.1935465E-015  0.9000768E+02  0.7816164E-02  0.1186339E+00
        -11   -1    0    0    0    0  0.00000000000E+00  0.00000000000E+00  0.45593999997E+02  0.45594000000E+02  0.51100000000E-03 0.  1.
         11   -1    0    0    0    0 -0.00000000000E+00 -0.00000000000E+00 -0.45593999997E+02  0.45594000000E+02  0.51100000000E-03 0. -1.
    9900012    2    1    2    0    0 -0.57751121118E+00  0.90439067221E+00  0.49165450636E+00  0.90007675536E+02  0.89999936053E+02 0.  0.
         12    1    1    2    0    0  0.57751121118E+00 -0.90439067221E+00 -0.49165450636E+00  0.11803244641E+01  0.00000000000E+00 0. -1.
         11    1    3    3    0    0 -0.11268471134E+02  0.19798256764E+02  0.52563118046E+01  0.23379012525E+02  0.51100000000E-03 0. -1.
        -11    1    3    3    0    0 -0.15399486861E+02  0.16445492221E+02 -0.17995995566E+01  0.22601702785E+02  0.51100000000E-03 0.  1.
         12    1    3    3    0    0  0.26090446783E+02 -0.35339358313E+02 -0.29650577417E+01  0.44026960226E+02  0.00000000000E+00 0. -1.
</event>
<event>
 7    1  0.1935465E-015  0.9000773E+02  0.7816164E-02  0.1186339E+00
        -11   -1    0    0    0    0  0.00000000000E+00  0.00000000000E+00  0.45593999997E+02  0.45594000000E+02  0.51100000000E-03 0. -1.
         11   -1    0    0    0    0 -0.00000000000E+00 -0.00000000000E+00 -0.45593999997E+02  0.45594000000E+02  0.51100000000E-03 0.  1.
    9900012    2    1    2    0    0 -0.76389735549E+00  0.37842789736E+00 -0.81626183217E+00  0.90007732987E+02  0.89999994262E+02 0.  0.
         12    1    1    2    0    0  0.76389735549E+00 -0.37842789736E+00  0.81626183217E+00  0.11802670130E+01  0.00000000000E+00 0. -1.
         11    1    3    3    0    0 -0.78159140626E+01 -0.25857654067E+02  0.31844856465E+02  0.41758851397E+02  0.51100000000E-03 0. -1.
        -11    1    3    3    0    0 -0.44388733773E+01  0.73356821618E+01  0.27034948982E+00  0.85783983789E+01  0.51100000000E-03 0.  1.
        -12    1    3    3    0    0  0.11490890084E+02  0.18900399802E+02 -0.32931467787E+02  0.39670483211E+02  0.00000000000E+00 0.  1.
</event>
<event>
 7    1  0.1935465E-015  0.9000774E+02  0.7816164E-02  0.1186339E+00
        -11   -1    0    0    0    0  0.00000000000E+00  0.00000000000E+00  0.45593999997E+02  0.45594000000E+02  0.51100000000E-03 0.  1.
         11   -1    0    0    0    0 -0.00000000000E+00 -0.00000000000E+00 -0.45593999997E+02  0.45594000000E+02  0.51100000000E-03 0. -1.
    9900012    2    1    2    0    0  0.23244596544E+00 -0.84352338632E+00 -0.79211498693E+00  0.90007741985E+02  0.90000003379E+02 0.  0.
         12    1    1    2    0    0 -0.23244596544E+00  0.84352338632E+00  0.79211498693E+00  0.11802580153E+01  0.00000000000E+00 0. -1.
         11    1    3    3    0    0 -0.11776049788E+02  0.12695204098E+02 -0.33928225132E+02  0.38091574089E+02  0.51100000000E-03 0. -1.
        -11    1    3    3    0    0  0.52334332811E+01  0.10991650102E+02  0.31269783311E+01  0.12569136391E+02  0.51100000000E-03 0.  1.
        -12    1    3    3    0    0  0.67750624724E+01 -0.24530377587E+02  0.30009131813E+02  0.39347031505E+02  0.00000000000E+00 0.  1.
</event>
<event>
 7    1  0.1935465E-015  0.9000813E+02  0.7816164E-02  0.1186338E+00
        -11   -1    0    0    0    0  0.00000000000E+00  0.00000000000E+00  0.45593999997E+02  0.45594000000E+02  0.51100000000E-03 0. -1.
         11   -1    0    0    0    0 -0.00000000000E+00 -0.00000000000E+00 -0.45593999997E+02  0.45594000000E+02  0.51100000000E-03 0.  1.
    9900012    2    1    2    0    0 -0.67676862465E+00  0.44258122806E+00 -0.85918115010E+00  0.90008132989E+02  0.90000399544E+02 0.  0.
         12    1    1    2    0    0  0.67676862465E+00 -0.44258122806E+00  0.85918115010E+00  0.11798670109E+01  0.00000000000E+00 0. -1.
         11    1    3    3    0    0 -0.18771000143E+02  0.22718411293E+01 -0.11744606811E+01  0.18944420462E+02  0.51100000000E-03 0. -1.
        -11    1    3    3    0    0 -0.67940603636E+01  0.27428309029E+02 -0.12038307805E+02  0.30714691069E+02  0.51100000000E-03 0.  1.
         12    1    3    3    0    0  0.24888291882E+02 -0.29257568930E+02  0.12353587336E+02  0.40349021458E+02  0.00000000000E+00 0. -1.
</event>
<event>
 7    1  0.1935465E-015  0.9000774E+02  0.7816164E-02  0.1186339E+00
        -11   -1    0    0    0    0  0.00000000000E+00  0.00000000000E+00  0.45593999997E+02  0.45594000000E+02  0.51100000000E-03 0.  1.
         11   -1    0    0    0    0 -0.00000000000E+00 -0.00000000000E+00 -0.45593999997E+02  0.45594000000E+02  0.51100000000E-03 0. -1.
    9900012    2    1    2    0    0 -0.69310390100E+00 -0.72893989870E+00 -0.61747019602E+00  0.90007739081E+02  0.90000000437E+02 0.  0.
         12    1    1    2    0    0  0.69310390100E+00  0.72893989870E+00  0.61747019602E+00  0.11802609188E+01  0.00000000000E+00 0. -1.
         11    1    3    3    0    0  0.95879124899E+01 -0.11500705633E+02  0.93271292551E+01  0.17640567915E+02  0.51100000000E-03 0. -1.
        -11    1    3    3    0    0  0.15323324854E+02  0.11118564280E+02  0.23543209148E+02  0.30211081634E+02  0.51100000000E-03 0.  1.
         12    1    3    3    0    0 -0.25604341245E+02 -0.34679854615E+00 -0.33487808599E+02  0.42156089532E+02  0.00000000000E+00 0. -1.
</event>
<event>
 7    1  0.1935465E-015  0.9000774E+02  0.7816164E-02  0.1186339E+00
        -11   -1    0    0    0    0  0.00000000000E+00  0.00000000000E+00  0.45593999997E+02  0.45594000000E+02  0.51100000000E-03 0.  1.
         11   -1    0    0    0    0 -0.00000000000E+00 -0.00000000000E+00 -0.45593999997E+02  0.45594000000E+02  0.51100000000E-03 0. -1.
    9900012    2    1    2    0    0 -0.20094120862E+00  0.30491467584E+00  0.11223473716E+01  0.90007739880E+02  0.90000001246E+02 0.  0.
         12    1    1    2    0    0  0.20094120862E+00 -0.30491467584E+00 -0.11223473716E+01  0.11802601203E+01  0.00000000000E+00 0. -1.
         11    1    3    3    0    0 -0.52527981240E+01  0.38221799190E+02  0.86770542385E+01  0.39544773258E+02  0.51100000000E-03 0. -1.
        -11    1    3    3    0    0 -0.20628199823E+01 -0.12248351692E+01  0.91972729649E+01  0.95050132942E+01  0.51100000000E-03 0.  1.
        -12    1    3    3    0    0  0.71146768977E+01 -0.36692049345E+02 -0.16751979832E+02  0.40957953328E+02  0.00000000000E+00 0.  1.
</event>
<event>
 7    1  0.1935465E-015  0.9000737E+02  0.7816164E-02  0.1186340E+00
        -11   -1    0    0    0    0  0.00000000000E+00  0.00000000000E+00  0.45593999997E+02  0.45594000000E+02  0.51100000000E-03 0.  1.
         11   -1    0    0    0    0 -0.00000000000E+00 -0.00000000000E+00 -0.45593999997E+02  0.45594000000E+02  0.51100000000E-03 0. -1.
    9900012    2    1    2    0    0 -0.89684744052E+00  0.76522904059E+00 -0.63077288623E-01  0.90007368999E+02  0.89999625469E+02 0.  0.
         12    1    1    2    0    0  0.89684744052E+00 -0.76522904059E+00  0.63077288623E-01  0.11806310010E+01  0.00000000000E+00 0. -1.
         11    1    3    3    0    0  0.25453371371E+02 -0.29876394102E+02 -0.94301481470E+01  0.40365836211E+02  0.51100000000E-03 0. -1.
        -11    1    3    3    0    0 -0.10122523449E+02 -0.73837990418E-01 -0.58771652046E+01  0.11705212691E+02  0.51100000000E-03 0.  1.
        -12    1    3    3    0    0 -0.16227695363E+02  0.30715461133E+02  0.15244236063E+02  0.37936320097E+02  0.00000000000E+00 0.  1.
</event>
<event>
 7    1  0.1935465E-015  0.9000776E+02  0.7816164E-02  0.1186339E+00
        -11   -1    0    0    0    0  0.00000000000E+00  0.00000000000E+00  0.45593999997E+02  0.45594000000E+02  0.51100000000E-03 0. -1.
         11   -1    0    0    0    0 -0.00000000000E+00 -0.00000000000E+00 -0.45593999997E+02  0.45594000000E+02  0.51100000000E-03 0.  1.
    9900012    2    1    2    0    0  0.26358319810E+00  0.24656912294E+00 -0.11237015981E+01  0.90007755230E+02  0.90000016799E+02 0.  0.
         12    1    1    2    0    0 -0.26358319810E+00 -0.24656912294E+00  0.11237015981E+01  0.11802447697E+01  0.00000000000E+00 0. -1.
         11    1    3    3    0    0  0.18165562919E+01  0.66371127099E+01 -0.84697832952E+01  0.10912761851E+02  0.51100000000E-03 0. -1.
        -11    1    3    3    0    0 -0.35207899252E+02 -0.10856051346E+01  0.22509520484E+02  0.41802550411E+02  0.51100000000E-03 0.  1.
         12    1    3    3    0    0  0.33654926158E+02 -0.53049384524E+01 -0.15163438787E+02  0.37292442968E+02  0.00000000000E+00 0. -1.
</event>
<event>
 7    1  0.1935465E-015  0.9000771E+02  0.7816164E-02  0.1186339E+00
        -11   -1    0    0    0    0  0.00000000000E+00  0.00000000000E+00  0.45593999997E+02  0.45594000000E+02  0.51100000000E-03 0.  1.
         11   -1    0    0    0    0 -0.00000000000E+00 -0.00000000000E+00 -0.45593999997E+02  0.45594000000E+02  0.51100000000E-03 0. -1.
    9900012    2    1    2    0    0  0.99373370966E+00 -0.59724242591E+00 -0.22110164468E+00  0.90007707181E+02  0.89999968116E+02 0.  0.
         12    1    1    2    0    0 -0.99373370966E+00  0.59724242591E+00  0.22110164468E+00  0.11802928189E+01  0.00000000000E+00 0. -1.
         11    1    3    3    0    0 -0.51126314448E+01 -0.60441901709E+01 -0.61101258164E+01  0.10000243640E+02  0.51100000000E-03 0. -1.
        -11    1    3    3    0    0  0.23107752886E+02 -0.25063750591E+02 -0.17154272424E+02  0.38163187758E+02  0.51100000000E-03 0.  1.
         12    1    3    3    0    0 -0.17001387732E+02  0.30510698336E+02  0.23043296596E+02  0.41844275783E+02  0.00000000000E+00 0. -1.
</event>
<event>
 7    1  0.1935465E-015  0.9000773E+02  0.7816164E-02  0.1186339E+00
        -11   -1    0    0    0    0  0.00000000000E+00  0.00000000000E+00  0.45593999997E+02  0.45594000000E+02  0.51100000000E-03 0.  1.
         11   -1    0    0    0    0 -0.00000000000E+00 -0.00000000000E+00 -0.45593999997E+02  0.45594000000E+02  0.51100000000E-03 0. -1.
    9900012    2    1    2    0    0  0.51548180623E+00 -0.70882622566E+00  0.79050165192E+00  0.90007725044E+02  0.89999986214E+02 0.  0.
         12    1    1    2    0    0 -0.51548180623E+00  0.70882622566E+00 -0.79050165192E+00  0.11802749563E+01  0.00000000000E+00 0. -1.
         11    1    3    3    0    0 -0.24607581513E+02  0.26786035077E+02  0.67062494060E+01  0.36986464071E+02  0.51100000000E-03 0. -1.
        -11    1    3    3    0    0 -0.71389258916E+01  0.27518047243E+01  0.24091257196E+01  0.80212579513E+01  0.51100000000E-03 0.  1.
        -12    1    3    3    0    0  0.32261989211E+02 -0.30246666027E+02 -0.83248734738E+01  0.45000003022E+02  0.00000000000E+00 0.  1.
</event>
<event>
 7    1  0.1935465E-015  0.9000785E+02  0.7816164E-02  0.1186339E+00
        -11   -1    0    0    0    0  0.00000000000E+00  0.00000000000E+00  0.45593999997E+02  0.45594000000E+02  0.51100000000E-03 0.  1.
         11   -1    0    0    0    0 -0.00000000000E+00 -0.00000000000E+00 -0.45593999997E+02  0.45594000000E+02  0.51100000000E-03 0. -1.
    9900012    2    1    2    0    0 -0.55373445128E+00  0.51472089896E+00  0.90619698489E+00  0.90007850678E+02  0.90000113507E+02 0.  0.
         12    1    1    2    0    0  0.55373445128E+00 -0.51472089896E+00 -0.90619698489E+00  0.11801493218E+01  0.00000000000E+00 0. -1.
         11    1    3    3    0    0 -0.32389095410E+02  0.12887282355E+02  0.10279350575E+02  0.36342820426E+02  0.51100000000E-03 0. -1.
        -11    1    3    3    0    0 -0.48093070737E+01 -0.12859031246E+01  0.96918571954E+01  0.10895644888E+02  0.51100000000E-03 0.  1.
        -12    1    3    3    0    0  0.36644668033E+02 -0.11086658331E+02 -0.19065010785E+02  0.42769385364E+02  0.00000000000E+00 0.  1.
</event>
<event>
 7    1  0.1935465E-015  0.9000772E+02  0.7816164E-02  0.1186339E+00
        -11   -1    0    0    0    0  0.00000000000E+00  0.00000000000E+00  0.45593999997E+02  0.45594000000E+02  0.51100000000E-03 0.  1.
         11   -1    0    0    0    0 -0.00000000000E+00 -0.00000000000E+00 -0.45593999997E+02  0.45594000000E+02  0.51100000000E-03 0. -1.
    9900012    2    1    2    0    0  0.70158191053E+00 -0.32428580904E+00 -0.89201528816E+00  0.90007716247E+02  0.89999977302E+02 0.  0.
         12    1    1    2    0    0 -0.70158191053E+00  0.32428580904E+00  0.89201528816E+00  0.11802837529E+01  0.00000000000E+00 0. -1.
         11    1    3    3    0    0  0.26275100217E+02 -0.19651681570E+02  0.15434993838E+02  0.36260288402E+02  0.51100000000E-03 0. -1.
        -11    1    3    3    0    0 -0.86111099558E+00 -0.78852371959E+01  0.66901215647E+01  0.10376714538E+02  0.51100000000E-03 0.  1.
        -12    1    3    3    0    0 -0.24712407311E+02  0.27212632957E+02 -0.23017130691E+02  0.43370713307E+02  0.00000000000E+00 0.  1.
</event>
<event>
 7    1  0.1935465E-015  0.9000770E+02  0.7816164E-02  0.1186339E+00
        -11   -1    0    0    0    0  0.00000000000E+00  0.00000000000E+00  0.45593999997E+02  0.45594000000E+02  0.51100000000E-03 0.  1.
         11   -1    0    0    0    0 -0.00000000000E+00 -0.00000000000E+00 -0.45593999997E+02  0.45594000000E+02  0.51100000000E-03 0. -1.
    9900012    2    1    2    0    0  0.77964113172E+00 -0.84649429291E+00 -0.26215190557E+00  0.90007696436E+02  0.89999957229E+02 0.  0.
         12    1    1    2    0    0 -0.77964113172E+00  0.84649429291E+00  0.26215190557E+00  0.11803035643E+01  0.00000000000E+00 0. -1.
         11    1    3    3    0    0  0.20917289946E+02 -0.32718276040E+02 -0.20328621241E+00  0.38833747325E+02  0.51100000000E-03 0. -1.
        -11    1    3    3    0    0  0.75009879939E+01  0.10524695867E+01  0.55615714419E+01  0.93969990039E+01  0.51100000000E-03 0.  1.
        -12    1    3    3    0    0 -0.27638636808E+02  0.30819312160E+02 -0.56204371350E+01  0.41776950107E+02  0.00000000000E+00 0.  1.
</event>
<event>
 7    1  0.1935465E-015  0.9000772E+02  0.7816164E-02  0.1186339E+00
        -11   -1    0    0    0    0  0.00000000000E+00  0.00000000000E+00  0.45593999997E+02  0.45594000000E+02  0.51100000000E-03 0.  1.
         11   -1    0    0    0    0 -0.00000000000E+00 -0.00000000000E+00 -0.45593999997E+02  0.45594000000E+02  0.51100000000E-03 0. -1.
    9900012    2    1    2    0    0  0.10371656707E+00 -0.10106720009E+01  0.60069534832E+00  0.90007724642E+02  0.89999985807E+02 0.  0.
         12    1    1    2    0    0 -0.10371656707E+00  0.10106720009E+01 -0.60069534832E+00  0.11802753582E+01  0.00000000000E+00 0. -1.
         11    1    3    3    0    0 -0.29701790204E+01 -0.18252517735E+02  0.64018281308E+01  0.19569357954E+02  0.51100000000E-03 0. -1.
        -11    1    3    3    0    0 -0.23068964103E+02  0.27684231944E+02 -0.17368517702E+02  0.40003240001E+02  0.51100000000E-03 0.  1.
         12    1    3    3    0    0  0.26142859691E+02 -0.10442386210E+02  0.11567384919E+02  0.30435126687E+02  0.00000000000E+00 0. -1.
</event>
<event>
 7    1  0.1935465E-015  0.9000773E+02  0.7816164E-02  0.1186339E+00
        -11   -1    0    0    0    0  0.00000000000E+00  0.00000000000E+00  0.45593999997E+02  0.45594000000E+02  0.51100000000E-03 0.  1.
         11   -1    0    0    0    0 -0.00000000000E+00 -0.00000000000E+00 -0.45593999997E+02  0.45594000000E+02  0.51100000000E-03 0. -1.
    9900012    2    1    2    0    0 -0.88410311500E+00 -0.61308292103E+00  0.48530650250E+00  0.90007732493E+02  0.89999993762E+02 0.  0.
         12    1    1    2    0    0  0.88410311500E+00  0.61308292103E+00 -0.48530650250E+00  0.11802675067E+01  0.00000000000E+00 0. -1.
         11    1    3    3    0    0 -0.35642729023E+02  0.18286914539E+02 -0.15870552674E+02  0.43089323713E+02  0.51100000000E-03 0. -1.
        -11    1    3    3    0    0  0.91965906156E+01 -0.20765461632E+01 -0.39186739833E+01  0.10210060184E+02  0.51100000000E-03 0.  1.
        -12    1    3    3    0    0  0.25562035293E+02 -0.16823451297E+02  0.20274533160E+02  0.36708348596E+02  0.00000000000E+00 0.  1.
</event>
<event>
 7    1  0.1935465E-015  0.9000772E+02  0.7816164E-02  0.1186339E+00
        -11   -1    0    0    0    0  0.00000000000E+00  0.00000000000E+00  0.45593999997E+02  0.45594000000E+02  0.51100000000E-03 0. -1.
         11   -1    0    0    0    0 -0.00000000000E+00 -0.00000000000E+00 -0.45593999997E+02  0.45594000000E+02  0.51100000000E-03 0.  1.
    9900012    2    1    2    0    0  0.54093260118E+00  0.80885381996E+00 -0.66798526760E+00  0.90007721686E+02  0.89999982812E+02 0.  0.
         12    1    1    2    0    0 -0.54093260118E+00 -0.80885381996E+00  0.66798526760E+00  0.11802783141E+01  0.00000000000E+00 0. -1.
         11    1    3    3    0    0 -0.31490891237E+02  0.15712892580E+02  0.49239647048E+01  0.35536131652E+02  0.51100000000E-03 0. -1.
        -11    1    3    3    0    0 -0.84440695314E+01  0.31864399495E+01  0.25871346366E+01  0.93887685929E+01  0.51100000000E-03 0.  1.
        -12    1    3    3    0    0  0.40475893370E+02 -0.18090478710E+02 -0.81790846090E+01  0.45082821441E+02  0.00000000000E+00 0.  1.
</event>
<event>
 7    1  0.1935465E-015  0.9000775E+02  0.7816164E-02  0.1186339E+00
        -11   -1    0    0    0    0  0.00000000000E+00  0.00000000000E+00  0.45593999997E+02  0.45594000000E+02  0.51100000000E-03 0. -1.
         11   -1    0    0    0    0 -0.00000000000E+00 -0.00000000000E+00 -0.45593999997E+02  0.45594000000E+02  0.51100000000E-03 0.  1.
    9900012    2    1    2    0    0  0.55222620620E+00 -0.10362266653E+01  0.11946160710E+00  0.90007749789E+02  0.90000011286E+02 0.  0.
         12    1    1    2    0    0 -0.55222620620E+00  0.10362266653E+01 -0.11946160710E+00  0.11802502109E+01  0.00000000000E+00 0. -1.
         11    1    3    3    0    0  0.29216652942E+01  0.13644699432E+01 -0.82052883056E+01  0.88161591839E+01  0.51100000000E-03 0. -1.
        -11    1    3    3    0    0 -0.30775014543E+02  0.30889035087E+01 -0.23004943766E+02  0.38546987988E+02  0.51100000000E-03 0.  1.
         12    1    3    3    0    0  0.28405575455E+02 -0.54896001172E+01  0.31329693679E+02  0.42644602617E+02  0.00000000000E+00 0. -1.
</event>
<event>
 7    1  0.1935465E-015  0.9000712E+02  0.7816164E-02  0.1186340E+00
        -11   -1    0    0    0    0  0.00000000000E+00  0.00000000000E+00  0.45593999997E+02  0.45594000000E+02  0.51100000000E-03 0.  1.
         11   -1    0    0    0    0 -0.00000000000E+00 -0.00000000000E+00 -0.45593999997E+02  0.45594000000E+02  0.51100000000E-03 0. -1.
    9900012    2    1    2    0    0  0.55357431254E+00  0.75840896120E+00  0.71613976595E+00  0.90007116925E+02  0.89999370066E+02 0.  0.
         12    1    1    2    0    0 -0.55357431254E+00 -0.75840896120E+00 -0.71613976595E+00  0.11808830748E+01  0.00000000000E+00 0. -1.
         11    1    3    3    0    0 -0.95885683503E+00  0.86098838968E+01  0.46182835020E+00  0.86754131217E+01  0.51100000000E-03 0. -1.
        -11    1    3    3    0    0  0.30443929018E+02  0.17405402956E+02  0.17546814461E+02  0.39213155498E+02  0.51100000000E-03 0.  1.
         12    1    3    3    0    0 -0.28931497870E+02 -0.25256877891E+02 -0.17292503045E+02  0.42118548306E+02  0.00000000000E+00 0. -1.
</event>
<event>
 7    1  0.1935465E-015  0.9000770E+02  0.7816164E-02  0.1186339E+00
        -11   -1    0    0    0    0  0.00000000000E+00  0.00000000000E+00  0.45593999997E+02  0.45594000000E+02  0.51100000000E-03 0. -1.
         11   -1    0    0    0    0 -0.00000000000E+00 -0.00000000000E+00 -0.45593999997E+02  0.45594000000E+02  0.51100000000E-03 0.  1.
    9900012    2    1    2    0    0 -0.86233589714E+00  0.14100924144E+00 -0.79347697855E+00  0.90007698123E+02  0.89999958938E+02 0.  0.
         12    1    1    2    0    0  0.86233589714E+00 -0.14100924144E+00  0.79347697855E+00  0.11803018771E+01  0.00000000000E+00 0. -1.
         11    1    3    3    0    0 -0.30422773537E+02 -0.14126010534E+02  0.18524684664E+02  0.38317793066E+02  0.51100000000E-03 0. -1.
        -11    1    3    3    0    0 -0.64015638947E+01 -0.35190791660E+01 -0.35390899982E+00  0.73136304471E+01  0.51100000000E-03 0.  1.
        -12    1    3    3    0    0  0.35962001535E+02  0.17786098941E+02 -0.18964252643E+02  0.44376274610E+02  0.00000000000E+00 0.  1.
</event>
<event>
 7    1  0.1935465E-015  0.9000780E+02  0.7816164E-02  0.1186339E+00
        -11   -1    0    0    0    0  0.00000000000E+00  0.00000000000E+00  0.45593999997E+02  0.45594000000E+02  0.51100000000E-03 0.  1.
         11   -1    0    0    0    0 -0.00000000000E+00 -0.00000000000E+00 -0.45593999997E+02  0.45594000000E+02  0.51100000000E-03 0. -1.
    9900012    2    1    2    0    0  0.53483262462E+00  0.97311872354E+00 -0.39982521512E+00  0.90007802479E+02  0.90000064671E+02 0.  0.
         12    1    1    2    0    0 -0.53483262462E+00 -0.97311872354E+00  0.39982521512E+00  0.11801975212E+01  0.00000000000E+00 0. -1.
         11    1    3    3    0    0  0.25274747253E+02 -0.29849312507E+02  0.96817591087E+01  0.40293061010E+02  0.51100000000E-03 0. -1.
        -11    1    3    3    0    0  0.38318067350E+01  0.68904074348E+01 -0.96244819204E+01  0.12441507544E+02  0.51100000000E-03 0.  1.
        -12    1    3    3    0    0 -0.28571721363E+02  0.23932023796E+02 -0.45710240341E+00  0.37273233925E+02  0.00000000000E+00 0.  1.
</event>
<event>
 7    1  0.1935465E-015  0.9000776E+02  0.7816164E-02  0.1186339E+00
        -11   -1    0    0    0    0  0.00000000000E+00  0.00000000000E+00  0.45593999997E+02  0.45594000000E+02  0.51100000000E-03 0. -1.
         11   -1    0    0    0    0 -0.00000000000E+00 -0.00000000000E+00 -0.45593999997E+02  0.45594000000E+02  0.51100000000E-03 0.  1.
    9900012    2    1    2    0    0 -0.91014586509E+00 -0.52571953030E+00  0.53687191635E+00  0.90007755121E+02  0.90000016688E+02 0.  0.
         12    1    1    2    0    0  0.91014586509E+00  0.52571953030E+00 -0.53687191635E+00  0.11802448792E+01  0.00000000000E+00 0. -1.
         11    1    3    3    0    0 -0.50240517157E+01 -0.40428078943E+02  0.13929096576E+02  0.43054504925E+02  0.51100000000E-03 0. -1.
        -11    1    3    3    0    0 -0.67336752444E+01  0.48722077171E+01 -0.19335660249E+01  0.85334323791E+01  0.51100000000E-03 0.  1.
        -12    1    3    3    0    0  0.10847581095E+02  0.35030151695E+02 -0.11458658634E+02  0.38419817817E+02  0.00000000000E+00 0.  1.
</event>
<event>
 7    1  0.2062537E-015  0.9000772E+02  0.7816164E-02  0.1186339E+00
        -11   -1    0    0    0    0  0.00000000000E+00  0.00000000000E+00  0.45593999997E+02  0.45594000000E+02  0.51100000000E-03 0.  1.
         11   -1    0    0    0    0 -0.00000000000E+00 -0.00000000000E+00 -0.45593999997E+02  0.45594000000E+02  0.51100000000E-03 0. -1.
    9900012    2    1    2    0    0  0.32389025396E-01  0.34016864283E+00  0.11297342467E+01  0.90007719007E+02  0.89999980098E+02 0.  0.
         12    1    1    2    0    0 -0.32389025396E-01 -0.34016864283E+00 -0.11297342467E+01  0.11802809931E+01  0.00000000000E+00 0. -1.
         11    1    3    3    0    0 -0.16645548449E+01 -0.82917598001E+01 -0.52171423900E+01  0.99369310349E+01  0.51100000000E-03 0. -1.
        -11    1    3    3    0    0 -0.58281164166E+00 -0.19198007092E+02  0.35086765566E+02  0.39999803298E+02  0.51100000000E-03 0.  1.
         12    1    3    3    0    0  0.22797555120E+01  0.27829935535E+02 -0.28739888930E+02  0.40070984674E+02  0.00000000000E+00 0. -1.
</event>
<event>
 7    1  0.1935465E-015  0.9000770E+02  0.7816164E-02  0.1186339E+00
        -11   -1    0    0    0    0  0.00000000000E+00  0.00000000000E+00  0.45593999997E+02  0.45594000000E+02  0.51100000000E-03 0. -1.
         11   -1    0    0    0    0 -0.00000000000E+00 -0.00000000000E+00 -0.45593999997E+02  0.45594000000E+02  0.51100000000E-03 0.  1.
    9900012    2    1    2    0    0  0.23821062271E+00  0.10612353384E+01 -0.45841853951E+00  0.90007698216E+02  0.89999959032E+02 0.  0.
         12    1    1    2    0    0 -0.23821062271E+00 -0.10612353384E+01  0.45841853951E+00  0.11803017841E+01  0.00000000000E+00 0. -1.
         11    1    3    3    0    0  0.18440312332E+01  0.12308030277E+02  0.92372626828E+01  0.15498873592E+02  0.51100000000E-03 0. -1.
        -11    1    3    3    0    0  0.15605031529E+02 -0.14735828802E+02 -0.36571456794E+02  0.42404399675E+02  0.51100000000E-03 0.  1.
         12    1    3    3    0    0 -0.17210852140E+02  0.34890338633E+01  0.26875775572E+02  0.32104424948E+02  0.00000000000E+00 0. -1.
</event>
<event>
 7    1  0.1935465E-015  0.9000781E+02  0.7816164E-02  0.1186339E+00
        -11   -1    0    0    0    0  0.00000000000E+00  0.00000000000E+00  0.45593999997E+02  0.45594000000E+02  0.51100000000E-03 0.  1.
         11   -1    0    0    0    0 -0.00000000000E+00 -0.00000000000E+00 -0.45593999997E+02  0.45594000000E+02  0.51100000000E-03 0. -1.
    9900012    2    1    2    0    0 -0.99465268880E+00  0.25415796971E+00  0.58217486131E+00  0.90007806027E+02  0.90000068266E+02 0.  0.
         12    1    1    2    0    0  0.99465268880E+00 -0.25415796971E+00 -0.58217486131E+00  0.11801939731E+01  0.00000000000E+00 0. -1.
         11    1    3    3    0    0  0.85997483554E+01  0.12468800505E+01  0.96639834360E+01  0.12996267070E+02  0.51100000000E-03 0. -1.
        -11    1    3    3    0    0 -0.30232143450E+02 -0.14055786326E+02  0.20121011041E+02  0.38941015811E+02  0.51100000000E-03 0.  1.
         12    1    3    3    0    0  0.20637742406E+02  0.13063064246E+02 -0.29202819616E+02  0.38070523146E+02  0.00000000000E+00 0. -1.
</event>
<event>
 7    1  0.1935465E-015  0.9000777E+02  0.7816164E-02  0.1186339E+00
        -11   -1    0    0    0    0  0.00000000000E+00  0.00000000000E+00  0.45593999997E+02  0.45594000000E+02  0.51100000000E-03 0.  1.
         11   -1    0    0    0    0 -0.00000000000E+00 -0.00000000000E+00 -0.45593999997E+02  0.45594000000E+02  0.51100000000E-03 0. -1.
    9900012    2    1    2    0    0  0.47343370946E+00  0.56981820256E+00  0.91876000334E+00  0.90007766038E+02  0.90000027750E+02 0.  0.
         12    1    1    2    0    0 -0.47343370946E+00 -0.56981820256E+00 -0.91876000334E+00  0.11802339620E+01  0.00000000000E+00 0. -1.
         11    1    3    3    0    0  0.32899691724E+02  0.30528291000E+01  0.65427404516E+01  0.33682590962E+02  0.51100000000E-03 0. -1.
        -11    1    3    3    0    0  0.11684897553E+02 -0.24157743842E+01 -0.12933283903E+01  0.12001895488E+02  0.51100000000E-03 0.  1.
        -12    1    3    3    0    0 -0.44111155567E+02 -0.67236513220E-01 -0.43306520580E+01  0.44323279589E+02  0.00000000000E+00 0.  1.
</event>
<event>
 7    1  0.1935465E-015  0.9000793E+02  0.7816164E-02  0.1186339E+00
        -11   -1    0    0    0    0  0.00000000000E+00  0.00000000000E+00  0.45593999997E+02  0.45594000000E+02  0.51100000000E-03 0.  1.
         11   -1    0    0    0    0 -0.00000000000E+00 -0.00000000000E+00 -0.45593999997E+02  0.45594000000E+02  0.51100000000E-03 0. -1.
    9900012    2    1    2    0    0 -0.38669120060E+00  0.64385582079E+00  0.91020779730E+00  0.90007932783E+02  0.90000196695E+02 0.  0.
         12    1    1    2    0    0  0.38669120060E+00 -0.64385582079E+00 -0.91020779730E+00  0.11800672171E+01  0.00000000000E+00 0. -1.
         11    1    3    3    0    0  0.10524859619E+02 -0.26717178168E+02 -0.30711005243E+02  0.42044573045E+02  0.51100000000E-03 0. -1.
        -11    1    3    3    0    0 -0.82414837028E+01  0.33922812388E+00  0.37802960422E+01  0.90734650367E+01  0.51100000000E-03 0.  1.
        -12    1    3    3    0    0 -0.26700671166E+01  0.27021805865E+02  0.27840916998E+02  0.38889894701E+02  0.00000000000E+00 0.  1.
</event>
<event>
 7    1  0.1935465E-015  0.9000779E+02  0.7816164E-02  0.1186339E+00
        -11   -1    0    0    0    0  0.00000000000E+00  0.00000000000E+00  0.45593999997E+02  0.45594000000E+02  0.51100000000E-03 0.  1.
         11   -1    0    0    0    0 -0.00000000000E+00 -0.00000000000E+00 -0.45593999997E+02  0.45594000000E+02  0.51100000000E-03 0. -1.
    9900012    2    1    2    0    0 -0.72851129103E+00  0.24501390207E+00  0.89561987542E+00  0.90007790072E+02  0.90000052101E+02 0.  0.
         12    1    1    2    0    0  0.72851129103E+00 -0.24501390207E+00 -0.89561987542E+00  0.11802099282E+01  0.00000000000E+00 0. -1.
         11    1    3    3    0    0  0.61462257160E+01 -0.49074795645E+01  0.13308831102E+02  0.15459121314E+02  0.51100000000E-03 0. -1.
        -11    1    3    3    0    0  0.61991611080E+01 -0.14219072168E+02  0.25595985913E+02  0.29929351929E+02  0.51100000000E-03 0.  1.
         12    1    3    3    0    0 -0.13073898115E+02  0.19371565635E+02 -0.38009197140E+02  0.44619316829E+02  0.00000000000E+00 0. -1.
</event>
<event>
 7    1  0.1935465E-015  0.9000776E+02  0.7816164E-02  0.1186339E+00
        -11   -1    0    0    0    0  0.00000000000E+00  0.00000000000E+00  0.45593999997E+02  0.45594000000E+02  0.51100000000E-03 0. -1.
         11   -1    0    0    0    0 -0.00000000000E+00 -0.00000000000E+00 -0.45593999997E+02  0.45594000000E+02  0.51100000000E-03 0.  1.
    9900012    2    1    2    0    0  0.39238337766E+00 -0.10746421000E+01 -0.29009872402E+00  0.90007755268E+02  0.90000016837E+02 0.  0.
         12    1    1    2    0    0 -0.39238337766E+00  0.10746421000E+01  0.29009872402E+00  0.11802447321E+01  0.00000000000E+00 0. -1.
         11    1    3    3    0    0 -0.10584030498E+02  0.12174135103E+01 -0.67528724146E+00  0.10675196033E+02  0.51100000000E-03 0. -1.
        -11    1    3    3    0    0  0.30435397980E+02 -0.31766542337E+02  0.10906259693E+01  0.44007000892E+02  0.51100000000E-03 0.  1.
         12    1    3    3    0    0 -0.19458984104E+02  0.29474486727E+02 -0.70543745188E+00  0.35325558342E+02  0.00000000000E+00 0. -1.
</event>
<event>
 7    1  0.1935465E-015  0.9000837E+02  0.7816164E-02  0.1186338E+00
        -11   -1    0    0    0    0  0.00000000000E+00  0.00000000000E+00  0.45593999997E+02  0.45594000000E+02  0.51100000000E-03 0. -1.
         11   -1    0    0    0    0 -0.00000000000E+00 -0.00000000000E+00 -0.45593999997E+02  0.45594000000E+02  0.51100000000E-03 0.  1.
    9900012    2    1    2    0    0 -0.85845208860E+00 -0.69575126774E+00 -0.41293559629E+00  0.90008370557E+02  0.90000640247E+02 0.  0.
         12    1    1    2    0    0  0.85845208860E+00  0.69575126774E+00  0.41293559629E+00  0.11796294425E+01  0.00000000000E+00 0. -1.
         11    1    3    3    0    0 -0.16696023883E+02 -0.14419944938E+02  0.13615118256E+02  0.25924186986E+02  0.51100000000E-03 0. -1.
        -11    1    3    3    0    0 -0.16836131619E+02  0.63854221328E+01 -0.23195528555E+02  0.29364289348E+02  0.51100000000E-03 0.  1.
        -12    1    3    3    0    0  0.32673703414E+02  0.73387715371E+01  0.91674747023E+01  0.34719894223E+02  0.00000000000E+00 0.  1.
</event>
<event>
 7    1  0.1935465E-015  0.9000772E+02  0.7816164E-02  0.1186339E+00
        -11   -1    0    0    0    0  0.00000000000E+00  0.00000000000E+00  0.45593999997E+02  0.45594000000E+02  0.51100000000E-03 0.  1.
         11   -1    0    0    0    0 -0.00000000000E+00 -0.00000000000E+00 -0.45593999997E+02  0.45594000000E+02  0.51100000000E-03 0. -1.
    9900012    2    1    2    0    0  0.17541134210E-01  0.78321442430E+00  0.88280101245E+00  0.90007716071E+02  0.89999977123E+02 0.  0.
         12    1    1    2    0    0 -0.17541134210E-01 -0.78321442430E+00 -0.88280101245E+00  0.11802839291E+01  0.00000000000E+00 0. -1.
         11    1    3    3    0    0  0.10063819814E+02  0.84124861675E+00  0.16268948015E+01  0.10229122907E+02  0.51100000000E-03 0. -1.
        -11    1    3    3    0    0  0.11843280831E+02  0.14188777877E+01  0.35478486651E+02  0.37429928270E+02  0.51100000000E-03 0.  1.
         12    1    3    3    0    0 -0.21889559511E+02 -0.14769119801E+01 -0.36222580440E+02  0.42348664894E+02  0.00000000000E+00 0. -1.
</event>
<event>
 7    1  0.1935465E-015  0.9000774E+02  0.7816164E-02  0.1186339E+00
        -11   -1    0    0    0    0  0.00000000000E+00  0.00000000000E+00  0.45593999997E+02  0.45594000000E+02  0.51100000000E-03 0.  1.
         11   -1    0    0    0    0 -0.00000000000E+00 -0.00000000000E+00 -0.45593999997E+02  0.45594000000E+02  0.51100000000E-03 0. -1.
    9900012    2    1    2    0    0 -0.22814393979E+00 -0.11537331477E+01 -0.99357185208E-01  0.90007736604E+02  0.89999997927E+02 0.  0.
         12    1    1    2    0    0  0.22814393979E+00  0.11537331477E+01  0.99357185208E-01  0.11802633959E+01  0.00000000000E+00 0. -1.
         11    1    3    3    0    0 -0.17523168970E+01  0.79441356081E+01  0.33291094148E+01  0.87899303083E+01  0.51100000000E-03 0. -1.
        -11    1    3    3    0    0 -0.57707883113E+00  0.34528971081E+02 -0.12280635909E+02  0.36652378948E+02  0.51100000000E-03 0.  1.
         12    1    3    3    0    0  0.21012517883E+01 -0.43626839837E+02  0.88521693090E+01  0.44565427348E+02  0.00000000000E+00 0. -1.
</event>
<event>
 7    1  0.1935465E-015  0.9000776E+02  0.7816164E-02  0.1186339E+00
        -11   -1    0    0    0    0  0.00000000000E+00  0.00000000000E+00  0.45593999997E+02  0.45594000000E+02  0.51100000000E-03 0.  1.
         11   -1    0    0    0    0 -0.00000000000E+00 -0.00000000000E+00 -0.45593999997E+02  0.45594000000E+02  0.51100000000E-03 0. -1.
    9900012    2    1    2    0    0 -0.10545389303E+01  0.51901308448E+00  0.10742615316E+00  0.90007759636E+02  0.90000021264E+02 0.  0.
         12    1    1    2    0    0  0.10545389303E+01 -0.51901308448E+00 -0.10742615316E+00  0.11802403635E+01  0.00000000000E+00 0. -1.
         11    1    3    3    0    0 -0.10502059906E+02  0.29767226983E+01 -0.23586949260E+00  0.10918322901E+02  0.51100000000E-03 0. -1.
        -11    1    3    3    0    0  0.23938694832E+02  0.85462343867E+01  0.33030738811E+02  0.41678878814E+02  0.51100000000E-03 0.  1.
         12    1    3    3    0    0 -0.14491173856E+02 -0.11003944001E+02 -0.32687443166E+02  0.37410557922E+02  0.00000000000E+00 0. -1.
</event>
<event>
 7    1  0.2196977E-015  0.9000762E+02  0.7816164E-02  0.1186339E+00
        -11   -1    0    0    0    0  0.00000000000E+00  0.00000000000E+00  0.45593999997E+02  0.45594000000E+02  0.51100000000E-03 0. -1.
         11   -1    0    0    0    0 -0.00000000000E+00 -0.00000000000E+00 -0.45593999997E+02  0.45594000000E+02  0.51100000000E-03 0.  1.
    9900012    2    1    2    0    0  0.50533543215E+00  0.17988885085E+00 -0.10514574267E+01  0.90007624374E+02  0.89999884216E+02 0.  0.
         12    1    1    2    0    0 -0.50533543215E+00 -0.17988885085E+00  0.10514574267E+01  0.11803756258E+01  0.00000000000E+00 0. -1.
         11    1    3    3    0    0  0.15820671963E+01 -0.40609928838E+01 -0.80109767377E+01  0.91197778684E+01  0.51100000000E-03 0. -1.
        -11    1    3    3    0    0 -0.36831105686E+01 -0.12624581911E+01 -0.36649503510E+02  0.36855735130E+02  0.51100000000E-03 0.  1.
         12    1    3    3    0    0  0.26063788044E+01  0.55033399258E+01  0.43609022821E+02  0.44032111376E+02  0.00000000000E+00 0. -1.
</event>
<event>
 7    1  0.2370056E-015  0.9000768E+02  0.7816164E-02  0.1186339E+00
        -11   -1    0    0    0    0  0.00000000000E+00  0.00000000000E+00  0.45593999997E+02  0.45594000000E+02  0.51100000000E-03 0. -1.
         11   -1    0    0    0    0 -0.00000000000E+00 -0.00000000000E+00 -0.45593999997E+02  0.45594000000E+02  0.51100000000E-03 0.  1.
    9900012    2    1    2    0    0 -0.55204324950E+00  0.59098125398E+00 -0.85973558917E+00  0.90007679757E+02  0.89999940330E+02 0.  0.
         12    1    1    2    0    0  0.55204324950E+00 -0.59098125398E+00  0.85973558917E+00  0.11803202426E+01  0.00000000000E+00 0. -1.
         11    1    3    3    0    0 -0.83795263887E+01  0.51444654779E+01  0.11890916067E+01  0.99043387797E+01  0.51100000000E-03 0. -1.
        -11    1    3    3    0    0 -0.87698162209E+00 -0.53708532337E+01 -0.40401723147E+02  0.40766584290E+02  0.51100000000E-03 0.  1.
         12    1    3    3    0    0  0.87044647613E+01  0.81736900971E+00  0.38352895951E+02  0.39336756687E+02  0.00000000000E+00 0. -1.
</event>
<event>
 7    1  0.1935465E-015  0.9000778E+02  0.7816164E-02  0.1186339E+00
        -11   -1    0    0    0    0  0.00000000000E+00  0.00000000000E+00  0.45593999997E+02  0.45594000000E+02  0.51100000000E-03 0.  1.
         11   -1    0    0    0    0 -0.00000000000E+00 -0.00000000000E+00 -0.45593999997E+02  0.45594000000E+02  0.51100000000E-03 0. -1.
    9900012    2    1    2    0    0  0.47059401096E+00 -0.10684260318E+01 -0.17298021697E+00  0.90007781773E+02  0.90000043692E+02 0.  0.
         12    1    1    2    0    0 -0.47059401096E+00  0.10684260318E+01  0.17298021697E+00  0.11802182273E+01  0.00000000000E+00 0. -1.
         11    1    3    3    0    0 -0.43551455094E+01 -0.21730142602E+02 -0.23444098090E+02  0.32261310038E+02  0.51100000000E-03 0. -1.
        -11    1    3    3    0    0 -0.19970418410E+02  0.12686256380E+02  0.13418537753E+01  0.23697242123E+02  0.51100000000E-03 0.  1.
        -12    1    3    3    0    0  0.24796157930E+02  0.79754601894E+01  0.21929264097E+02  0.34049229612E+02  0.00000000000E+00 0.  1.
</event>
<event>
 7    1  0.1935465E-015  0.9000666E+02  0.7816164E-02  0.1186341E+00
        -11   -1    0    0    0    0  0.00000000000E+00  0.00000000000E+00  0.45593999997E+02  0.45594000000E+02  0.51100000000E-03 0.  1.
         11   -1    0    0    0    0 -0.00000000000E+00 -0.00000000000E+00 -0.45593999997E+02  0.45594000000E+02  0.51100000000E-03 0. -1.
    9900012    2    1    2    0    0  0.30295171355E+00 -0.84579254326E+00 -0.76708543019E+00  0.90006659734E+02  0.89998906836E+02 0.  0.
         12    1    1    2    0    0 -0.30295171355E+00  0.84579254326E+00  0.76708543019E+00  0.11813402660E+01  0.00000000000E+00 0. -1.
         11    1    3    3    0    0  0.19838443802E+02  0.39093174672E+01 -0.33853984216E+02  0.39432713109E+02  0.51100000000E-03 0. -1.
        -11    1    3    3    0    0  0.79545649349E+01 -0.64166661293E+01  0.55552979954E+01  0.11632284539E+02  0.51100000000E-03 0.  1.
        -12    1    3    3    0    0 -0.27490057024E+02  0.16615561188E+01  0.27531600791E+02  0.38941662086E+02  0.00000000000E+00 0.  1.
</event>
<event>
 7    1  0.1935465E-015  0.9000774E+02  0.7816164E-02  0.1186339E+00
        -11   -1    0    0    0    0  0.00000000000E+00  0.00000000000E+00  0.45593999997E+02  0.45594000000E+02  0.51100000000E-03 0. -1.
         11   -1    0    0    0    0 -0.00000000000E+00 -0.00000000000E+00 -0.45593999997E+02  0.45594000000E+02  0.51100000000E-03 0.  1.
    9900012    2    1    2    0    0  0.38212068338E+00  0.10644170149E+01 -0.33765473288E+00  0.90007741335E+02  0.90000002720E+02 0.  0.
         12    1    1    2    0    0 -0.38212068338E+00 -0.10644170149E+01  0.33765473288E+00  0.11802586652E+01  0.00000000000E+00 0. -1.
         11    1    3    3    0    0 -0.26745133254E+01  0.63768024690E+01  0.16169650464E+01  0.71014933274E+01  0.51100000000E-03 0. -1.
        -11    1    3    3    0    0 -0.30041855484E+02  0.24141488576E+02 -0.21461640218E+01  0.38599618805E+02  0.51100000000E-03 0.  1.
        -12    1    3    3    0    0  0.33098489493E+02 -0.29453874030E+02  0.19154424254E+00  0.44306629203E+02  0.00000000000E+00 0.  1.
</event>
<event>
 7    1  0.1935465E-015  0.9000768E+02  0.7816164E-02  0.1186339E+00
        -11   -1    0    0    0    0  0.00000000000E+00  0.00000000000E+00  0.45593999997E+02  0.45594000000E+02  0.51100000000E-03 0.  1.
         11   -1    0    0    0    0 -0.00000000000E+00 -0.00000000000E+00 -0.45593999997E+02  0.45594000000E+02  0.51100000000E-03 0. -1.
    9900012    2    1    2    0    0 -0.84256901245E+00 -0.11547370959E-01  0.82649730999E+00  0.90007680685E+02  0.89999941270E+02 0.  0.
         12    1    1    2    0    0  0.84256901245E+00  0.11547370959E-01 -0.82649730999E+00  0.11803193152E+01  0.00000000000E+00 0. -1.
         11    1    3    3    0    0  0.32240290489E+02 -0.20479307135E+02  0.76589319918E+01  0.38955071442E+02  0.51100000000E-03 0. -1.
        -11    1    3    3    0    0  0.44911027481E+01  0.57789120899E+01 -0.78024590553E+01  0.10697859431E+02  0.51100000000E-03 0.  1.
        -12    1    3    3    0    0 -0.37573962249E+02  0.14688847674E+02  0.97002437344E+00  0.40354749812E+02  0.00000000000E+00 0.  1.
</event>
<event>
 7    1  0.1935465E-015  0.9000772E+02  0.7816164E-02  0.1186339E+00
        -11   -1    0    0    0    0  0.00000000000E+00  0.00000000000E+00  0.45593999997E+02  0.45594000000E+02  0.51100000000E-03 0. -1.
         11   -1    0    0    0    0 -0.00000000000E+00 -0.00000000000E+00 -0.45593999997E+02  0.45594000000E+02  0.51100000000E-03 0.  1.
    9900012    2    1    2    0    0  0.51863016774E-01  0.92422359041E+00 -0.73223865202E+00  0.90007723566E+02  0.89999984717E+02 0.  0.
         12    1    1    2    0    0 -0.51863016774E-01 -0.92422359041E+00  0.73223865202E+00  0.11802764342E+01  0.00000000000E+00 0. -1.
         11    1    3    3    0    0  0.59333249805E+01  0.96367070208E+01  0.42966392593E+01  0.12105022789E+02  0.51100000000E-03 0. -1.
        -11    1    3    3    0    0  0.14874375975E+02  0.23349572023E+02 -0.22716580298E+02  0.35811905772E+02  0.51100000000E-03 0.  1.
         12    1    3    3    0    0 -0.20755837939E+02 -0.32062055454E+02  0.17687702386E+02  0.42090795005E+02  0.00000000000E+00 0. -1.
</event>
<event>
 7    1  0.1935465E-015  0.9000761E+02  0.7816164E-02  0.1186339E+00
        -11   -1    0    0    0    0  0.00000000000E+00  0.00000000000E+00  0.45593999997E+02  0.45594000000E+02  0.51100000000E-03 0.  1.
         11   -1    0    0    0    0 -0.00000000000E+00 -0.00000000000E+00 -0.45593999997E+02  0.45594000000E+02  0.51100000000E-03 0. -1.
    9900012    2    1    2    0    0 -0.70184499341E+00 -0.44397442282E+00  0.83882298861E+00  0.90007608671E+02  0.89999868306E+02 0.  0.
         12    1    1    2    0    0  0.70184499341E+00  0.44397442282E+00 -0.83882298861E+00  0.11803913288E+01  0.00000000000E+00 0. -1.
         11    1    3    3    0    0  0.13135360615E+02  0.33119320246E+02 -0.63578159391E+01  0.36191834657E+02  0.51100000000E-03 0. -1.
        -11    1    3    3    0    0 -0.13744333037E+01  0.88153325429E+01 -0.67257766194E+00  0.89471512629E+01  0.51100000000E-03 0.  1.
        -12    1    3    3    0    0 -0.12462772305E+02 -0.42378627212E+02  0.78692165897E+01  0.44868622751E+02  0.00000000000E+00 0.  1.
</event>
<event>
 7    1  0.1935465E-015  0.9000774E+02  0.7816164E-02  0.1186339E+00
        -11   -1    0    0    0    0  0.00000000000E+00  0.00000000000E+00  0.45593999997E+02  0.45594000000E+02  0.51100000000E-03 0. -1.
         11   -1    0    0    0    0 -0.00000000000E+00 -0.00000000000E+00 -0.45593999997E+02  0.45594000000E+02  0.51100000000E-03 0.  1.
    9900012    2    1    2    0    0 -0.10595045258E+00  0.22824988410E+00 -0.11531199669E+01  0.90007741907E+02  0.90000003300E+02 0.  0.
         12    1    1    2    0    0  0.10595045258E+00 -0.22824988410E+00  0.11531199669E+01  0.11802580930E+01  0.00000000000E+00 0. -1.
         11    1    3    3    0    0  0.29561228953E+01 -0.57910474388E+01  0.34809589761E+02  0.35411614375E+02  0.51100000000E-03 0. -1.
        -11    1    3    3    0    0  0.38175848396E+00 -0.38563313383E+01  0.82757613908E+01  0.91381211301E+01  0.51100000000E-03 0.  1.
        -12    1    3    3    0    0 -0.34438318318E+01  0.98756286611E+01 -0.44238471119E+02  0.45458006402E+02  0.00000000000E+00 0.  1.
</event>
<event>
 7    1  0.1935465E-015  0.9000790E+02  0.7816164E-02  0.1186339E+00
        -11   -1    0    0    0    0  0.00000000000E+00  0.00000000000E+00  0.45593999997E+02  0.45594000000E+02  0.51100000000E-03 0.  1.
         11   -1    0    0    0    0 -0.00000000000E+00 -0.00000000000E+00 -0.45593999997E+02  0.45594000000E+02  0.51100000000E-03 0. -1.
    9900012    2    1    2    0    0  0.98611458270E-01  0.66775698339E+00  0.96799814173E+00  0.90007896610E+02  0.90000160045E+02 0.  0.
         12    1    1    2    0    0 -0.98611458270E-01 -0.66775698339E+00 -0.96799814173E+00  0.11801033899E+01  0.00000000000E+00 0. -1.
         11    1    3    3    0    0  0.11844685980E+02  0.24487055519E+01 -0.34175408910E+02  0.36252604310E+02  0.51100000000E-03 0. -1.
        -11    1    3    3    0    0  0.55144287102E+01 -0.17525698663E+01 -0.64845291951E+01  0.86907735144E+01  0.51100000000E-03 0.  1.
        -12    1    3    3    0    0 -0.17260503231E+02 -0.28378702217E-01  0.41627936247E+02  0.45064518785E+02  0.00000000000E+00 0.  1.
</event>
<event>
 7    1  0.1935465E-015  0.9000782E+02  0.7816164E-02  0.1186339E+00
        -11   -1    0    0    0    0  0.00000000000E+00  0.00000000000E+00  0.45593999997E+02  0.45594000000E+02  0.51100000000E-03 0.  1.
         11   -1    0    0    0    0 -0.00000000000E+00 -0.00000000000E+00 -0.45593999997E+02  0.45594000000E+02  0.51100000000E-03 0. -1.
    9900012    2    1    2    0    0 -0.10094021008E+01  0.60219775540E+00  0.10620467227E+00  0.90007824517E+02  0.90000087001E+02 0.  0.
         12    1    1    2    0    0  0.10094021008E+01 -0.60219775540E+00 -0.10620467227E+00  0.11801754828E+01  0.00000000000E+00 0. -1.
         11    1    3    3    0    0  0.19162293210E+02 -0.19615041797E+02 -0.27873522089E+02  0.39100851394E+02  0.51100000000E-03 0. -1.
        -11    1    3    3    0    0 -0.71547895030E+01 -0.25410225208E+01 -0.47615363051E+01  0.89621446390E+01  0.51100000000E-03 0.  1.
        -12    1    3    3    0    0 -0.13016905808E+02  0.22758262073E+02  0.32741263067E+02  0.41944828485E+02  0.00000000000E+00 0.  1.
</event>
<event>
 7    1  0.2228422E-015  0.9000761E+02  0.7816164E-02  0.1186339E+00
        -11   -1    0    0    0    0  0.00000000000E+00  0.00000000000E+00  0.45593999997E+02  0.45594000000E+02  0.51100000000E-03 0. -1.
         11   -1    0    0    0    0 -0.00000000000E+00 -0.00000000000E+00 -0.45593999997E+02  0.45594000000E+02  0.51100000000E-03 0.  1.
    9900012    2    1    2    0    0 -0.80342127902E+00  0.42767507741E+00 -0.75161825632E+00  0.90007609502E+02  0.89999869148E+02 0.  0.
         12    1    1    2    0    0  0.80342127902E+00 -0.42767507741E+00  0.75161825632E+00  0.11803904975E+01  0.00000000000E+00 0. -1.
         11    1    3    3    0    0 -0.34293723475E+01  0.23391154467E+01 -0.84371894795E+01  0.94030964232E+01  0.51100000000E-03 0. -1.
        -11    1    3    3    0    0  0.26288031798E+02  0.38870830180E+01 -0.27218151381E+02  0.38039424221E+02  0.51100000000E-03 0.  1.
         12    1    3    3    0    0 -0.23662080729E+02 -0.57985233873E+01  0.34903722604E+02  0.42565088859E+02  0.00000000000E+00 0. -1.
</event>
<event>
 7    1  0.1935465E-015  0.9000776E+02  0.7816164E-02  0.1186339E+00
        -11   -1    0    0    0    0  0.00000000000E+00  0.00000000000E+00  0.45593999997E+02  0.45594000000E+02  0.51100000000E-03 0. -1.
         11   -1    0    0    0    0 -0.00000000000E+00 -0.00000000000E+00 -0.45593999997E+02  0.45594000000E+02  0.51100000000E-03 0.  1.
    9900012    2    1    2    0    0 -0.92388671863E+00  0.70619295231E+00 -0.20171549670E+00  0.90007760916E+02  0.90000022560E+02 0.  0.
         12    1    1    2    0    0  0.92388671863E+00 -0.70619295231E+00  0.20171549670E+00  0.11802390844E+01  0.00000000000E+00 0. -1.
         11    1    3    3    0    0  0.25519061025E+02  0.68942893060E+01  0.28513294896E+02  0.38881379692E+02  0.51100000000E-03 0. -1.
        -11    1    3    3    0    0 -0.86880335813E+01 -0.34721835855E+01  0.66383545061E+01  0.11471954375E+02  0.51100000000E-03 0.  1.
        -12    1    3    3    0    0 -0.17754914162E+02 -0.27159127681E+01 -0.35353364899E+02  0.39654426849E+02  0.00000000000E+00 0.  1.
</event>
<event>
 7    1  0.1935465E-015  0.9000774E+02  0.7816164E-02  0.1186339E+00
        -11   -1    0    0    0    0  0.00000000000E+00  0.00000000000E+00  0.45593999997E+02  0.45594000000E+02  0.51100000000E-03 0.  1.
         11   -1    0    0    0    0 -0.00000000000E+00 -0.00000000000E+00 -0.45593999997E+02  0.45594000000E+02  0.51100000000E-03 0. -1.
    9900012    2    1    2    0    0 -0.58487085291E+00  0.10207139426E+01 -0.95300043536E-01  0.90007740297E+02  0.90000001669E+02 0.  0.
         12    1    1    2    0    0  0.58487085291E+00 -0.10207139426E+01  0.95300043536E-01  0.11802597026E+01  0.00000000000E+00 0. -1.
         11    1    3    3    0    0  0.36875411016E+01  0.91190391178E+01 -0.38384293605E+02  0.39624598794E+02  0.51100000000E-03 0. -1.
        -11    1    3    3    0    0  0.57986509438E+01 -0.82353815122E+01 -0.71722108209E+00  0.10097537708E+02  0.51100000000E-03 0.  1.
        -12    1    3    3    0    0 -0.10071062898E+02  0.13705633698E+00  0.39006214643E+02  0.40285603795E+02  0.00000000000E+00 0.  1.
</event>
<event>
 7    1  0.1935465E-015  0.9000793E+02  0.7816164E-02  0.1186339E+00
        -11   -1    0    0    0    0  0.00000000000E+00  0.00000000000E+00  0.45593999997E+02  0.45594000000E+02  0.51100000000E-03 0.  1.
         11   -1    0    0    0    0 -0.00000000000E+00 -0.00000000000E+00 -0.45593999997E+02  0.45594000000E+02  0.51100000000E-03 0. -1.
    9900012    2    1    2    0    0  0.42960713030E+00 -0.87241047724E-01  0.10956271067E+01  0.90007927102E+02  0.90000190940E+02 0.  0.
         12    1    1    2    0    0 -0.42960713030E+00  0.87241047724E-01 -0.10956271067E+01  0.11800728977E+01  0.00000000000E+00 0. -1.
         11    1    3    3    0    0 -0.25566042239E+02  0.25530302389E+02 -0.76361598229E+01  0.36928712311E+02  0.51100000000E-03 0. -1.
        -11    1    3    3    0    0 -0.77372254612E+01  0.40995784512E+00  0.69926626173E+01  0.10436956166E+02  0.51100000000E-03 0.  1.
        -12    1    3    3    0    0  0.33732874831E+02 -0.26027501281E+02  0.17391243123E+01  0.42642258625E+02  0.00000000000E+00 0.  1.
</event>
<event>
 7    1  0.1935465E-015  0.9000789E+02  0.7816164E-02  0.1186339E+00
        -11   -1    0    0    0    0  0.00000000000E+00  0.00000000000E+00  0.45593999997E+02  0.45594000000E+02  0.51100000000E-03 0. -1.
         11   -1    0    0    0    0 -0.00000000000E+00 -0.00000000000E+00 -0.45593999997E+02  0.45594000000E+02  0.51100000000E-03 0.  1.
    9900012    2    1    2    0    0 -0.92616738983E+00 -0.99252697136E-01 -0.72458820346E+00  0.90007887634E+02  0.90000150951E+02 0.  0.
         12    1    1    2    0    0  0.92616738983E+00  0.99252697136E-01  0.72458820346E+00  0.11801123660E+01  0.00000000000E+00 0. -1.
         11    1    3    3    0    0  0.17820904049E+01 -0.48027072716E+01 -0.73557149713E+01  0.89637261419E+01  0.51100000000E-03 0. -1.
        -11    1    3    3    0    0 -0.10177340278E+02  0.41388148625E+02 -0.18384947900E+01  0.42660721573E+02  0.51100000000E-03 0.  1.
         12    1    3    3    0    0  0.74690824830E+01 -0.36684694051E+02  0.84696215578E+01  0.38383439920E+02  0.00000000000E+00 0. -1.
</event>
<event>
 7    1  0.1935465E-015  0.9000767E+02  0.7816164E-02  0.1186339E+00
        -11   -1    0    0    0    0  0.00000000000E+00  0.00000000000E+00  0.45593999997E+02  0.45594000000E+02  0.51100000000E-03 0. -1.
         11   -1    0    0    0    0 -0.00000000000E+00 -0.00000000000E+00 -0.45593999997E+02  0.45594000000E+02  0.51100000000E-03 0.  1.
    9900012    2    1    2    0    0  0.47287247563E+00  0.94604600021E+00 -0.52399562486E+00  0.90007668340E+02  0.89999928762E+02 0.  0.
         12    1    1    2    0    0 -0.47287247563E+00 -0.94604600021E+00  0.52399562486E+00  0.11803316600E+01  0.00000000000E+00 0. -1.
         11    1    3    3    0    0 -0.55753809041E+01 -0.74950480617E+01  0.29655940095E+02  0.31092368852E+02  0.51100000000E-03 0. -1.
        -11    1    3    3    0    0 -0.52020847664E+01  0.17384142109E+02  0.66928006570E+01  0.19340725521E+02  0.51100000000E-03 0.  1.
        -12    1    3    3    0    0  0.11250338146E+02 -0.89430480472E+01 -0.36872736376E+02  0.39574573967E+02  0.00000000000E+00 0.  1.
</event>
<event>
 7    1  0.1935465E-015  0.9000775E+02  0.7816164E-02  0.1186339E+00
        -11   -1    0    0    0    0  0.00000000000E+00  0.00000000000E+00  0.45593999997E+02  0.45594000000E+02  0.51100000000E-03 0.  1.
         11   -1    0    0    0    0 -0.00000000000E+00 -0.00000000000E+00 -0.45593999997E+02  0.45594000000E+02  0.51100000000E-03 0. -1.
    9900012    2    1    2    0    0 -0.59001895536E+00  0.74054373065E+00  0.70460831372E+00  0.90007745680E+02  0.90000007123E+02 0.  0.
         12    1    1    2    0    0  0.59001895536E+00 -0.74054373065E+00 -0.70460831372E+00  0.11802543202E+01  0.00000000000E+00 0. -1.
         11    1    3    3    0    0  0.61508578539E+01  0.63047490576E+01  0.34854970962E+01  0.94726766696E+01  0.51100000000E-03 0. -1.
        -11    1    3    3    0    0 -0.98345824852E+01 -0.29245880059E+02 -0.30882846064E+02  0.43655362721E+02  0.51100000000E-03 0.  1.
         12    1    3    3    0    0  0.30937056759E+01  0.23681674732E+02  0.28101957281E+02  0.36879706289E+02  0.00000000000E+00 0. -1.
</event>
<event>
 7    1  0.1935465E-015  0.9000766E+02  0.7816164E-02  0.1186339E+00
        -11   -1    0    0    0    0  0.00000000000E+00  0.00000000000E+00  0.45593999997E+02  0.45594000000E+02  0.51100000000E-03 0.  1.
         11   -1    0    0    0    0 -0.00000000000E+00 -0.00000000000E+00 -0.45593999997E+02  0.45594000000E+02  0.51100000000E-03 0. -1.
    9900012    2    1    2    0    0 -0.24515862516E+00 -0.10979723701E+01 -0.35716258801E+00  0.90007656325E+02  0.89999916588E+02 0.  0.
         12    1    1    2    0    0  0.24515862516E+00  0.10979723701E+01  0.35716258801E+00  0.11803436751E+01  0.00000000000E+00 0. -1.
         11    1    3    3    0    0 -0.27398812800E+02  0.22000325149E+02 -0.44629786242E+01  0.35420720319E+02  0.51100000000E-03 0. -1.
        -11    1    3    3    0    0 -0.73215675955E+01  0.58842525676E+01  0.73319621096E+00  0.94216430245E+01  0.51100000000E-03 0.  1.
        -12    1    3    3    0    0  0.34475221770E+02 -0.28982550086E+02  0.33726198252E+01  0.45165292981E+02  0.00000000000E+00 0.  1.
</event>
<event>
 7    1  0.1935465E-015  0.9000777E+02  0.7816164E-02  0.1186339E+00
        -11   -1    0    0    0    0  0.00000000000E+00  0.00000000000E+00  0.45593999997E+02  0.45594000000E+02  0.51100000000E-03 0.  1.
         11   -1    0    0    0    0 -0.00000000000E+00 -0.00000000000E+00 -0.45593999997E+02  0.45594000000E+02  0.51100000000E-03 0. -1.
    9900012    2    1    2    0    0 -0.85108710476E+00 -0.14717781288E+00  0.80432198754E+00  0.90007769333E+02  0.90000031088E+02 0.  0.
         12    1    1    2    0    0  0.85108710476E+00  0.14717781288E+00 -0.80432198754E+00  0.11802306673E+01  0.00000000000E+00 0. -1.
         11    1    3    3    0    0 -0.38102083342E+02 -0.41933199985E+01  0.11468850700E+02  0.40011088767E+02  0.51100000000E-03 0. -1.
        -11    1    3    3    0    0 -0.26155105672E+01  0.83249939424E+01 -0.25148811807E+01  0.90813571278E+01  0.51100000000E-03 0.  1.
        -12    1    3    3    0    0  0.39866506805E+02 -0.42788517568E+01 -0.81496475322E+01  0.40915323438E+02  0.00000000000E+00 0.  1.
</event>
<event>
 7    1  0.1935465E-015  0.9000775E+02  0.7816164E-02  0.1186339E+00
        -11   -1    0    0    0    0  0.00000000000E+00  0.00000000000E+00  0.45593999997E+02  0.45594000000E+02  0.51100000000E-03 0. -1.
         11   -1    0    0    0    0 -0.00000000000E+00 -0.00000000000E+00 -0.45593999997E+02  0.45594000000E+02  0.51100000000E-03 0.  1.
    9900012    2    1    2    0    0 -0.94995211852E-01 -0.69057855273E+00 -0.95240307494E+00  0.90007748143E+02  0.90000009619E+02 0.  0.
         12    1    1    2    0    0  0.94995211852E-01  0.69057855273E+00  0.95240307494E+00  0.11802518566E+01  0.00000000000E+00 0. -1.
         11    1    3    3    0    0 -0.80290454170E+01  0.31866152971E+02  0.16410789753E+02  0.36731883917E+02  0.51100000000E-03 0. -1.
        -11    1    3    3    0    0  0.23148813831E+01  0.78846564439E+01  0.14088479442E+01  0.83373458514E+01  0.51100000000E-03 0.  1.
        -12    1    3    3    0    0  0.56191688221E+01 -0.40441387968E+02 -0.18772040773E+02  0.44938518375E+02  0.00000000000E+00 0.  1.
</event>
<event>
 7    1  0.1935465E-015  0.9000774E+02  0.7816164E-02  0.1186339E+00
        -11   -1    0    0    0    0  0.00000000000E+00  0.00000000000E+00  0.45593999997E+02  0.45594000000E+02  0.51100000000E-03 0. -1.
         11   -1    0    0    0    0 -0.00000000000E+00 -0.00000000000E+00 -0.45593999997E+02  0.45594000000E+02  0.51100000000E-03 0.  1.
    9900012    2    1    2    0    0 -0.80626124299E+00  0.85235490471E+00 -0.12825755844E+00  0.90007738979E+02  0.90000000334E+02 0.  0.
         12    1    1    2    0    0  0.80626124299E+00 -0.85235490471E+00  0.12825755844E+00  0.11802610206E+01  0.00000000000E+00 0. -1.
         11    1    3    3    0    0  0.14951838575E+01  0.13997503367E+01  0.97168539208E+01  0.99303638479E+01  0.51100000000E-03 0. -1.
        -11    1    3    3    0    0  0.35274081273E+02 -0.96732386088E+00 -0.20766765587E+02  0.40944536612E+02  0.51100000000E-03 0.  1.
         12    1    3    3    0    0 -0.37575526374E+02  0.41992842891E+00  0.10921654108E+02  0.39132838520E+02  0.00000000000E+00 0. -1.
</event>
<event>
 7    1  0.1935465E-015  0.9000776E+02  0.7816164E-02  0.1186339E+00
        -11   -1    0    0    0    0  0.00000000000E+00  0.00000000000E+00  0.45593999997E+02  0.45594000000E+02  0.51100000000E-03 0.  1.
         11   -1    0    0    0    0 -0.00000000000E+00 -0.00000000000E+00 -0.45593999997E+02  0.45594000000E+02  0.51100000000E-03 0. -1.
    9900012    2    1    2    0    0 -0.20472703272E+00 -0.11498926027E+01 -0.16973637131E+00  0.90007755707E+02  0.90000017282E+02 0.  0.
         12    1    1    2    0    0  0.20472703272E+00  0.11498926027E+01  0.16973637131E+00  0.11802442931E+01  0.00000000000E+00 0. -1.
         11    1    3    3    0    0 -0.44089379890E+01  0.79517790823E+01 -0.12717691849E-01  0.90922872131E+01  0.51100000000E-03 0. -1.
        -11    1    3    3    0    0 -0.23559977919E+02  0.41572137247E+01  0.29635795128E+02  0.38087207021E+02  0.51100000000E-03 0.  1.
         12    1    3    3    0    0  0.27764188875E+02 -0.13258885410E+02 -0.29792813808E+02  0.42828261473E+02  0.00000000000E+00 0. -1.
</event>
<event>
 7    1  0.1935465E-015  0.9000736E+02  0.7816164E-02  0.1186340E+00
        -11   -1    0    0    0    0  0.00000000000E+00  0.00000000000E+00  0.45593999997E+02  0.45594000000E+02  0.51100000000E-03 0. -1.
         11   -1    0    0    0    0 -0.00000000000E+00 -0.00000000000E+00 -0.45593999997E+02  0.45594000000E+02  0.51100000000E-03 0.  1.
    9900012    2    1    2    0    0  0.28533406882E+00  0.11190393017E+01  0.24546093898E+00  0.90007357987E+02  0.89999614312E+02 0.  0.
         12    1    1    2    0    0 -0.28533406882E+00 -0.11190393017E+01 -0.24546093898E+00  0.11806420127E+01  0.00000000000E+00 0. -1.
         11    1    3    3    0    0  0.11362271356E+02 -0.61021398214E+01  0.41967774787E+02  0.43904799756E+02  0.51100000000E-03 0. -1.
        -11    1    3    3    0    0  0.52264224789E+00 -0.36058002255E+01 -0.60849141078E+01  0.70923289649E+01  0.51100000000E-03 0.  1.
        -12    1    3    3    0    0 -0.11599579535E+02  0.10826979348E+02 -0.35637399740E+02  0.39010229267E+02  0.00000000000E+00 0.  1.
</event>
<event>
 7    1  0.1935465E-015  0.9000775E+02  0.7816164E-02  0.1186339E+00
        -11   -1    0    0    0    0  0.00000000000E+00  0.00000000000E+00  0.45593999997E+02  0.45594000000E+02  0.51100000000E-03 0.  1.
         11   -1    0    0    0    0 -0.00000000000E+00 -0.00000000000E+00 -0.45593999997E+02  0.45594000000E+02  0.51100000000E-03 0. -1.
    9900012    2    1    2    0    0  0.11217423604E+01  0.30907572337E+00  0.19785774892E+00  0.90007753664E+02  0.90000015212E+02 0.  0.
         12    1    1    2    0    0 -0.11217423604E+01 -0.30907572337E+00 -0.19785774892E+00  0.11802463364E+01  0.00000000000E+00 0. -1.
         11    1    3    3    0    0 -0.19634060785E+01 -0.98336369407E+01  0.40601872559E-01  0.10027812707E+02  0.51100000000E-03 0. -1.
        -11    1    3    3    0    0  0.38634494707E+02  0.36999574924E+01  0.14044714327E+02  0.41274300327E+02  0.51100000000E-03 0.  1.
         12    1    3    3    0    0 -0.35549346268E+02  0.64427551717E+01 -0.13887458450E+02  0.38705640629E+02  0.00000000000E+00 0. -1.
</event>
<event>
 7    1  0.1935465E-015  0.9000773E+02  0.7816164E-02  0.1186339E+00
        -11   -1    0    0    0    0  0.00000000000E+00  0.00000000000E+00  0.45593999997E+02  0.45594000000E+02  0.51100000000E-03 0. -1.
         11   -1    0    0    0    0 -0.00000000000E+00 -0.00000000000E+00 -0.45593999997E+02  0.45594000000E+02  0.51100000000E-03 0.  1.
    9900012    2    1    2    0    0  0.65311193856E+00 -0.16162614791E+00 -0.96971508457E+00  0.90007734961E+02  0.89999996263E+02 0.  0.
         12    1    1    2    0    0 -0.65311193856E+00  0.16162614791E+00  0.96971508457E+00  0.11802650385E+01  0.00000000000E+00 0. -1.
         11    1    3    3    0    0  0.25257937392E+02  0.27771198005E+01  0.23842518501E+02  0.34844533063E+02  0.51100000000E-03 0. -1.
        -11    1    3    3    0    0  0.51433309248E+01  0.20339891380E+01  0.85535085240E+01  0.10185944882E+02  0.51100000000E-03 0.  1.
        -12    1    3    3    0    0 -0.29748156378E+02 -0.49727350864E+01 -0.33365742110E+02  0.44977257016E+02  0.00000000000E+00 0.  1.
</event>
<event>
 7    1  0.1935465E-015  0.9000776E+02  0.7816164E-02  0.1186339E+00
        -11   -1    0    0    0    0  0.00000000000E+00  0.00000000000E+00  0.45593999997E+02  0.45594000000E+02  0.51100000000E-03 0. -1.
         11   -1    0    0    0    0 -0.00000000000E+00 -0.00000000000E+00 -0.45593999997E+02  0.45594000000E+02  0.51100000000E-03 0.  1.
    9900012    2    1    2    0    0 -0.86409716886E+00 -0.64709619519E+00  0.47705322651E+00  0.90007755456E+02  0.90000017028E+02 0.  0.
         12    1    1    2    0    0  0.86409716886E+00  0.64709619519E+00 -0.47705322651E+00  0.11802445441E+01  0.00000000000E+00 0. -1.
         11    1    3    3    0    0  0.62013450072E+01 -0.55887676741E+01 -0.51095264872E+01  0.97876588211E+01  0.51100000000E-03 0. -1.
        -11    1    3    3    0    0 -0.22052285722E+02 -0.32737100883E+02  0.31384952535E+01  0.39596353778E+02  0.51100000000E-03 0.  1.
         12    1    3    3    0    0  0.14986843546E+02  0.37678772362E+02  0.24480844602E+01  0.40623742857E+02  0.00000000000E+00 0. -1.
</event>
<event>
 7    1  0.3157731E-015  0.9000776E+02  0.7816164E-02  0.1186339E+00
        -11   -1    0    0    0    0  0.00000000000E+00  0.00000000000E+00  0.45593999997E+02  0.45594000000E+02  0.51100000000E-03 0. -1.
         11   -1    0    0    0    0 -0.00000000000E+00 -0.00000000000E+00 -0.45593999997E+02  0.45594000000E+02  0.51100000000E-03 0.  1.
    9900012    2    1    2    0    0 -0.92687035705E+00 -0.44748185702E+00 -0.57761558009E+00  0.90007759165E+02  0.90000020786E+02 0.  0.
         12    1    1    2    0    0  0.92687035705E+00  0.44748185702E+00  0.57761558009E+00  0.11802408354E+01  0.00000000000E+00 0. -1.
         11    1    3    3    0    0 -0.58078105436E+01  0.84508034315E+00 -0.81012385335E+01  0.10003743806E+02  0.51100000000E-03 0. -1.
        -11    1    3    3    0    0 -0.25443611082E+01  0.33586274199E+01 -0.35676430673E+02  0.35924390842E+02  0.51100000000E-03 0.  1.
         12    1    3    3    0    0  0.74253012948E+01 -0.46511896201E+01  0.43200053626E+02  0.44079624516E+02  0.00000000000E+00 0. -1.
</event>
<event>
 7    1  0.1935465E-015  0.9000768E+02  0.7816164E-02  0.1186339E+00
        -11   -1    0    0    0    0  0.00000000000E+00  0.00000000000E+00  0.45593999997E+02  0.45594000000E+02  0.51100000000E-03 0. -1.
         11   -1    0    0    0    0 -0.00000000000E+00 -0.00000000000E+00 -0.45593999997E+02  0.45594000000E+02  0.51100000000E-03 0.  1.
    9900012    2    1    2    0    0 -0.11694482447E+01 -0.12679605134E+00  0.97256760017E-01  0.90007684232E+02  0.89999944864E+02 0.  0.
         12    1    1    2    0    0  0.11694482447E+01  0.12679605134E+00 -0.97256760017E-01  0.11803157683E+01  0.00000000000E+00 0. -1.
         11    1    3    3    0    0  0.16758508505E+02  0.20866207266E+02  0.30719314270E+02  0.40742146267E+02  0.51100000000E-03 0. -1.
        -11    1    3    3    0    0 -0.37104824724E+01  0.62488423616E+01 -0.27219179909E+01  0.77604477222E+01  0.51100000000E-03 0.  1.
        -12    1    3    3    0    0 -0.14217474277E+02 -0.27241845679E+02 -0.27900139519E+02  0.41505090242E+02  0.00000000000E+00 0.  1.
</event>
<event>
 7    1  0.1935465E-015  0.9000773E+02  0.7816164E-02  0.1186339E+00
        -11   -1    0    0    0    0  0.00000000000E+00  0.00000000000E+00  0.45593999997E+02  0.45594000000E+02  0.51100000000E-03 0. -1.
         11   -1    0    0    0    0 -0.00000000000E+00 -0.00000000000E+00 -0.45593999997E+02  0.45594000000E+02  0.51100000000E-03 0.  1.
    9900012    2    1    2    0    0  0.15710214169E+00 -0.40193971384E+00 -0.10985440540E+01  0.90007730685E+02  0.89999991930E+02 0.  0.
         12    1    1    2    0    0 -0.15710214169E+00  0.40193971384E+00  0.10985440540E+01  0.11802693147E+01  0.00000000000E+00 0. -1.
         11    1    3    3    0    0 -0.62608032236E+01  0.18184583785E+01 -0.61217019271E+01  0.89431360621E+01  0.51100000000E-03 0. -1.
        -11    1    3    3    0    0 -0.16810043941E+02  0.32623085095E+02 -0.72886706397E+01  0.37416145958E+02  0.51100000000E-03 0.  1.
         12    1    3    3    0    0  0.23227949306E+02 -0.34843483187E+02  0.12311828513E+02  0.43648448665E+02  0.00000000000E+00 0. -1.
</event>
<event>
 7    1  0.1935465E-015  0.9000729E+02  0.7816164E-02  0.1186340E+00
        -11   -1    0    0    0    0  0.00000000000E+00  0.00000000000E+00  0.45593999997E+02  0.45594000000E+02  0.51100000000E-03 0.  1.
         11   -1    0    0    0    0 -0.00000000000E+00 -0.00000000000E+00 -0.45593999997E+02  0.45594000000E+02  0.51100000000E-03 0. -1.
    9900012    2    1    2    0    0  0.10166343580E+01  0.39241085945E+00  0.45447813060E+00  0.90007287473E+02  0.89999542866E+02 0.  0.
         12    1    1    2    0    0 -0.10166343580E+01 -0.39241085945E+00 -0.45447813060E+00  0.11807125271E+01  0.00000000000E+00 0. -1.
         11    1    3    3    0    0  0.33267665451E+02  0.12456899629E+02  0.41139840960E+01  0.35760827428E+02  0.51100000000E-03 0. -1.
        -11    1    3    3    0    0  0.31130147549E+01  0.55546535120E+01 -0.12256506260E+02  0.13811842110E+02  0.51100000000E-03 0.  1.
        -12    1    3    3    0    0 -0.35364045848E+02 -0.17619142281E+02  0.85970002950E+01  0.40434617935E+02  0.00000000000E+00 0.  1.
</event>
<event>
 7    1  0.1935465E-015  0.9000773E+02  0.7816164E-02  0.1186339E+00
        -11   -1    0    0    0    0  0.00000000000E+00  0.00000000000E+00  0.45593999997E+02  0.45594000000E+02  0.51100000000E-03 0.  1.
         11   -1    0    0    0    0 -0.00000000000E+00 -0.00000000000E+00 -0.45593999997E+02  0.45594000000E+02  0.51100000000E-03 0. -1.
    9900012    2    1    2    0    0 -0.72132150314E+00  0.10595086214E+00  0.92817341719E+00  0.90007730459E+02  0.89999991701E+02 0.  0.
         12    1    1    2    0    0  0.72132150314E+00 -0.10595086214E+00 -0.92817341719E+00  0.11802695406E+01  0.00000000000E+00 0. -1.
         11    1    3    3    0    0  0.20328740778E+02  0.16294049956E+02 -0.24126820630E+02  0.35508551640E+02  0.51100000000E-03 0. -1.
        -11    1    3    3    0    0  0.83095701779E+01  0.75510738675E+00 -0.45409135644E+01  0.94994231386E+01  0.51100000000E-03 0.  1.
        -12    1    3    3    0    0 -0.29359632459E+02 -0.16943206481E+02  0.29595907611E+02  0.44999755681E+02  0.00000000000E+00 0.  1.
</event>
<event>
 7    1  0.1935465E-015  0.9000774E+02  0.7816164E-02  0.1186339E+00
        -11   -1    0    0    0    0  0.00000000000E+00  0.00000000000E+00  0.45593999997E+02  0.45594000000E+02  0.51100000000E-03 0.  1.
         11   -1    0    0    0    0 -0.00000000000E+00 -0.00000000000E+00 -0.45593999997E+02  0.45594000000E+02  0.51100000000E-03 0. -1.
    9900012    2    1    2    0    0  0.24968205467E+00  0.87777514403E+00  0.74845940904E+00  0.90007736547E+02  0.89999997869E+02 0.  0.
         12    1    1    2    0    0 -0.24968205467E+00 -0.87777514403E+00 -0.74845940904E+00  0.11802634532E+01  0.00000000000E+00 0. -1.
         11    1    3    3    0    0 -0.36245858362E+01 -0.37848957486E+01  0.10979344968E+02  0.12165898014E+02  0.51100000000E-03 0. -1.
        -11    1    3    3    0    0 -0.26285286235E+02 -0.23916510518E+02 -0.64778001894E+01  0.36123090169E+02  0.51100000000E-03 0.  1.
         12    1    3    3    0    0  0.30159554126E+02  0.28579181411E+02 -0.37530853692E+01  0.41718748363E+02  0.00000000000E+00 0. -1.
</event>
<event>
 7    1  0.1935465E-015  0.9000772E+02  0.7816164E-02  0.1186339E+00
        -11   -1    0    0    0    0  0.00000000000E+00  0.00000000000E+00  0.45593999997E+02  0.45594000000E+02  0.51100000000E-03 0.  1.
         11   -1    0    0    0    0 -0.00000000000E+00 -0.00000000000E+00 -0.45593999997E+02  0.45594000000E+02  0.51100000000E-03 0. -1.
    9900012    2    1    2    0    0 -0.15425855257E+00  0.27083766252E+00  0.11383795566E+01  0.90007721747E+02  0.89999982874E+02 0.  0.
         12    1    1    2    0    0  0.15425855257E+00 -0.27083766252E+00 -0.11383795566E+01  0.11802782534E+01  0.00000000000E+00 0. -1.
         11    1    3    3    0    0  0.26015594348E+02 -0.76628091627E+01  0.24461664003E+02  0.36522634073E+02  0.51100000000E-03 0. -1.
        -11    1    3    3    0    0  0.11466927332E+01 -0.98103928951E+01  0.43029872396E+01  0.10773783571E+02  0.51100000000E-03 0.  1.
        -12    1    3    3    0    0 -0.27316545633E+02  0.17744039720E+02 -0.27626271686E+02  0.42711304104E+02  0.00000000000E+00 0.  1.
</event>
<event>
 7    1  0.1935465E-015  0.9000787E+02  0.7816164E-02  0.1186339E+00
        -11   -1    0    0    0    0  0.00000000000E+00  0.00000000000E+00  0.45593999997E+02  0.45594000000E+02  0.51100000000E-03 0.  1.
         11   -1    0    0    0    0 -0.00000000000E+00 -0.00000000000E+00 -0.45593999997E+02  0.45594000000E+02  0.51100000000E-03 0. -1.
    9900012    2    1    2    0    0  0.92414697896E+00 -0.43554981219E+00  0.59072414289E+00  0.90007870223E+02  0.90000133310E+02 0.  0.
         12    1    1    2    0    0 -0.92414697896E+00  0.43554981219E+00 -0.59072414289E+00  0.11801297770E+01  0.00000000000E+00 0. -1.
         11    1    3    3    0    0  0.34902203332E+01  0.38728847796E+02 -0.12289196206E+02  0.40781486403E+02  0.51100000000E-03 0. -1.
        -11    1    3    3    0    0 -0.81890219702E+01 -0.11556131673E+01  0.59397841851E+01  0.10182168681E+02  0.51100000000E-03 0.  1.
        -12    1    3    3    0    0  0.56229486159E+01 -0.38008784441E+02  0.69401361643E+01  0.39044215139E+02  0.00000000000E+00 0.  1.
</event>
<event>
 7    1  0.1935465E-015  0.9000769E+02  0.7816164E-02  0.1186339E+00
        -11   -1    0    0    0    0  0.00000000000E+00  0.00000000000E+00  0.45593999997E+02  0.45594000000E+02  0.51100000000E-03 0.  1.
         11   -1    0    0    0    0 -0.00000000000E+00 -0.00000000000E+00 -0.45593999997E+02  0.45594000000E+02  0.51100000000E-03 0. -1.
    9900012    2    1    2    0    0  0.10741929490E+01 -0.54637804701E-01  0.48605310419E+00  0.90007693514E+02  0.89999954268E+02 0.  0.
         12    1    1    2    0    0 -0.10741929490E+01  0.54637804701E-01 -0.48605310419E+00  0.11803064862E+01  0.00000000000E+00 0. -1.
         11    1    3    3    0    0  0.12308762108E+02  0.19440266325E+02  0.11058785212E+02  0.25528930844E+02  0.51100000000E-03 0. -1.
        -11    1    3    3    0    0 -0.23682435012E+01 -0.16687753153E+02  0.23635003211E+02  0.29029348247E+02  0.51100000000E-03 0.  1.
         12    1    3    3    0    0 -0.88663256574E+01 -0.28071509762E+01 -0.34207735319E+02  0.35449414423E+02  0.00000000000E+00 0. -1.
</event>
<event>
 7    1  0.1935465E-015  0.9000776E+02  0.7816164E-02  0.1186339E+00
        -11   -1    0    0    0    0  0.00000000000E+00  0.00000000000E+00  0.45593999997E+02  0.45594000000E+02  0.51100000000E-03 0. -1.
         11   -1    0    0    0    0 -0.00000000000E+00 -0.00000000000E+00 -0.45593999997E+02  0.45594000000E+02  0.51100000000E-03 0.  1.
    9900012    2    1    2    0    0 -0.46339305085E-01 -0.43564417242E+00 -0.10959134962E+01  0.90007762919E+02  0.90000024590E+02 0.  0.
         12    1    1    2    0    0  0.46339305085E-01  0.43564417242E+00  0.10959134962E+01  0.11802370810E+01  0.00000000000E+00 0. -1.
         11    1    3    3    0    0 -0.18168365245E+02 -0.35503714635E+02  0.84471673290E+01  0.40767117689E+02  0.51100000000E-03 0. -1.
        -11    1    3    3    0    0  0.76068851540E+01  0.10442144873E+01  0.66149509735E+01  0.10134725565E+02  0.51100000000E-03 0.  1.
        -12    1    3    3    0    0  0.10515140786E+02  0.34023855975E+02 -0.16158031799E+02  0.39105919664E+02  0.00000000000E+00 0.  1.
</event>
<event>
 7    1  0.1935465E-015  0.9000772E+02  0.7816164E-02  0.1186339E+00
        -11   -1    0    0    0    0  0.00000000000E+00  0.00000000000E+00  0.45593999997E+02  0.45594000000E+02  0.51100000000E-03 0. -1.
         11   -1    0    0    0    0 -0.00000000000E+00 -0.00000000000E+00 -0.45593999997E+02  0.45594000000E+02  0.51100000000E-03 0.  1.
    9900012    2    1    2    0    0  0.60354571929E+00 -0.85534872123E+00  0.54514241174E+00  0.90007716509E+02  0.89999977567E+02 0.  0.
         12    1    1    2    0    0 -0.60354571929E+00  0.85534872123E+00 -0.54514241174E+00  0.11802834911E+01  0.00000000000E+00 0. -1.
         11    1    3    3    0    0 -0.96566571705E+01  0.23986757836E+01 -0.27703350185E+01  0.10328573454E+02  0.51100000000E-03 0. -1.
        -11    1    3    3    0    0  0.38446633186E+01  0.12481203530E+01 -0.37702759010E+02  0.37918824845E+02  0.51100000000E-03 0.  1.
         12    1    3    3    0    0  0.64155395711E+01 -0.45021448578E+01  0.41018236440E+02  0.41760318209E+02  0.00000000000E+00 0. -1.
</event>
<event>
 7    1  0.1935465E-015  0.9000734E+02  0.7816164E-02  0.1186340E+00
        -11   -1    0    0    0    0  0.00000000000E+00  0.00000000000E+00  0.45593999997E+02  0.45594000000E+02  0.51100000000E-03 0.  1.
         11   -1    0    0    0    0 -0.00000000000E+00 -0.00000000000E+00 -0.45593999997E+02  0.45594000000E+02  0.51100000000E-03 0. -1.
    9900012    2    1    2    0    0  0.43244905484E+00  0.97041637675E+00  0.51500615874E+00  0.90007342779E+02  0.89999598903E+02 0.  0.
         12    1    1    2    0    0 -0.43244905484E+00 -0.97041637675E+00 -0.51500615874E+00  0.11806572207E+01  0.00000000000E+00 0. -1.
         11    1    3    3    0    0 -0.12968507201E+02 -0.45176380437E+01 -0.38812830019E+02  0.41170705688E+02  0.51100000000E-03 0. -1.
        -11    1    3    3    0    0  0.19020979414E+01 -0.79908482654E+01  0.36229768468E+01  0.89776162801E+01  0.51100000000E-03 0.  1.
        -12    1    3    3    0    0  0.11498858314E+02  0.13478902686E+02  0.35704859331E+02  0.39859020811E+02  0.00000000000E+00 0.  1.
</event>
<event>
 7    1  0.1935465E-015  0.9000775E+02  0.7816164E-02  0.1186339E+00
        -11   -1    0    0    0    0  0.00000000000E+00  0.00000000000E+00  0.45593999997E+02  0.45594000000E+02  0.51100000000E-03 0.  1.
         11   -1    0    0    0    0 -0.00000000000E+00 -0.00000000000E+00 -0.45593999997E+02  0.45594000000E+02  0.51100000000E-03 0. -1.
    9900012    2    1    2    0    0  0.96363265443E+00  0.59216921614E+00 -0.33723687695E+00  0.90007753846E+02  0.90000015397E+02 0.  0.
         12    1    1    2    0    0 -0.96363265443E+00 -0.59216921614E+00  0.33723687695E+00  0.11802461542E+01  0.00000000000E+00 0. -1.
         11    1    3    3    0    0  0.32174851092E+02 -0.20533038498E+01 -0.13902528188E+02  0.35110075331E+02  0.51100000000E-03 0. -1.
        -11    1    3    3    0    0  0.72922145600E+01 -0.16706430777E+01 -0.76708478580E+01  0.10714912440E+02  0.51100000000E-03 0.  1.
        -12    1    3    3    0    0 -0.38503432998E+02  0.43161161437E+01  0.21236139169E+02  0.44182766074E+02  0.00000000000E+00 0.  1.
</event>
<event>
 7    1  0.1935465E-015  0.9000756E+02  0.7816164E-02  0.1186339E+00
        -11   -1    0    0    0    0  0.00000000000E+00  0.00000000000E+00  0.45593999997E+02  0.45594000000E+02  0.51100000000E-03 0.  1.
         11   -1    0    0    0    0 -0.00000000000E+00 -0.00000000000E+00 -0.45593999997E+02  0.45594000000E+02  0.51100000000E-03 0. -1.
    9900012    2    1    2    0    0  0.59864560961E+00  0.88450367706E+00 -0.50270029576E+00  0.90007563255E+02  0.89999822290E+02 0.  0.
         12    1    1    2    0    0 -0.59864560961E+00 -0.88450367706E+00  0.50270029576E+00  0.11804367446E+01  0.00000000000E+00 0. -1.
         11    1    3    3    0    0  0.23790338262E+01  0.86418133501E+01  0.47460353067E+01  0.10142267563E+02  0.51100000000E-03 0. -1.
        -11    1    3    3    0    0  0.35955542399E+02 -0.79277115531E+00  0.11834265655E+02  0.37861317451E+02  0.51100000000E-03 0.  1.
         12    1    3    3    0    0 -0.37735930615E+02 -0.69645385177E+01 -0.17083001257E+02  0.42003978241E+02  0.00000000000E+00 0. -1.
</event>
<event>
 7    1  0.1935465E-015  0.9000776E+02  0.7816164E-02  0.1186339E+00
        -11   -1    0    0    0    0  0.00000000000E+00  0.00000000000E+00  0.45593999997E+02  0.45594000000E+02  0.51100000000E-03 0. -1.
         11   -1    0    0    0    0 -0.00000000000E+00 -0.00000000000E+00 -0.45593999997E+02  0.45594000000E+02  0.51100000000E-03 0.  1.
    9900012    2    1    2    0    0  0.94394528584E+00 -0.99340222135E-01 -0.70147529910E+00  0.90007759017E+02  0.90000020636E+02 0.  0.
         12    1    1    2    0    0 -0.94394528584E+00  0.99340222135E-01  0.70147529910E+00  0.11802409829E+01  0.00000000000E+00 0. -1.
         11    1    3    3    0    0 -0.96321685094E+01  0.42230414455E+01 -0.24647979774E+01  0.10802221002E+02  0.51100000000E-03 0. -1.
        -11    1    3    3    0    0  0.11285088112E+02  0.80673294007E+01 -0.36464388225E+02  0.39013928619E+02  0.51100000000E-03 0.  1.
         12    1    3    3    0    0 -0.70897431683E+00 -0.12389711068E+02  0.38227710904E+02  0.40191609396E+02  0.00000000000E+00 0. -1.
</event>
<event>
 7    1  0.1935465E-015  0.9000777E+02  0.7816164E-02  0.1186339E+00
        -11   -1    0    0    0    0  0.00000000000E+00  0.00000000000E+00  0.45593999997E+02  0.45594000000E+02  0.51100000000E-03 0. -1.
         11   -1    0    0    0    0 -0.00000000000E+00 -0.00000000000E+00 -0.45593999997E+02  0.45594000000E+02  0.51100000000E-03 0.  1.
    9900012    2    1    2    0    0  0.10878608731E+01  0.30801731208E-01 -0.45666320383E+00  0.90007774891E+02  0.90000036720E+02 0.  0.
         12    1    1    2    0    0 -0.10878608731E+01 -0.30801731208E-01  0.45666320383E+00  0.11802251089E+01  0.00000000000E+00 0. -1.
         11    1    3    3    0    0  0.81482616567E+01 -0.18693321361E+01 -0.15373188554E+02  0.17499242762E+02  0.51100000000E-03 0. -1.
        -11    1    3    3    0    0 -0.30474120265E+02 -0.36416664988E+01 -0.14964323276E+02  0.34144761123E+02  0.51100000000E-03 0.  1.
         12    1    3    3    0    0  0.23413719481E+02  0.55418003661E+01  0.29880848625E+02  0.38363771006E+02  0.00000000000E+00 0. -1.
</event>
<event>
 7    1  0.1935465E-015  0.9000774E+02  0.7816164E-02  0.1186339E+00
        -11   -1    0    0    0    0  0.00000000000E+00  0.00000000000E+00  0.45593999997E+02  0.45594000000E+02  0.51100000000E-03 0. -1.
         11   -1    0    0    0    0 -0.00000000000E+00 -0.00000000000E+00 -0.45593999997E+02  0.45594000000E+02  0.51100000000E-03 0.  1.
    9900012    2    1    2    0    0 -0.98971374782E+00 -0.26764717866E+00 -0.58467154292E+00  0.90007741923E+02  0.90000003317E+02 0.  0.
         12    1    1    2    0    0  0.98971374782E+00  0.26764717866E+00  0.58467154292E+00  0.11802580768E+01  0.00000000000E+00 0. -1.
         11    1    3    3    0    0 -0.16811944923E+02  0.93693217859E+01 -0.65593636368E+01  0.20333492922E+02  0.51100000000E-03 0. -1.
        -11    1    3    3    0    0  0.21694849861E+02  0.25041706169E+02 -0.33091988228E+01  0.33297212428E+02  0.51100000000E-03 0.  1.
         12    1    3    3    0    0 -0.58726186862E+01 -0.34678675134E+02  0.92838909167E+01  0.36377036573E+02  0.00000000000E+00 0. -1.
</event>
<event>
 7    1  0.1935465E-015  0.9000779E+02  0.7816164E-02  0.1186339E+00
        -11   -1    0    0    0    0  0.00000000000E+00  0.00000000000E+00  0.45593999997E+02  0.45594000000E+02  0.51100000000E-03 0. -1.
         11   -1    0    0    0    0 -0.00000000000E+00 -0.00000000000E+00 -0.45593999997E+02  0.45594000000E+02  0.51100000000E-03 0.  1.
    9900012    2    1    2    0    0 -0.34784963667E+00  0.21816518837E+00 -0.11064850057E+01  0.90007786254E+02  0.90000048232E+02 0.  0.
         12    1    1    2    0    0  0.34784963667E+00 -0.21816518837E+00  0.11064850057E+01  0.11802137463E+01  0.00000000000E+00 0. -1.
         11    1    3    3    0    0 -0.49854203988E+01 -0.61402803841E+01  0.13274869217E+00  0.79104413420E+01  0.51100000000E-03 0. -1.
        -11    1    3    3    0    0  0.28961576157E+02  0.33266346247E+01 -0.31655163880E+02  0.43033577494E+02  0.51100000000E-03 0.  1.
         12    1    3    3    0    0 -0.24324005395E+02  0.30318109478E+01  0.30415930182E+02  0.39063767418E+02  0.00000000000E+00 0. -1.
</event>
<event>
 7    1  0.1935465E-015  0.9000774E+02  0.7816164E-02  0.1186339E+00
        -11   -1    0    0    0    0  0.00000000000E+00  0.00000000000E+00  0.45593999997E+02  0.45594000000E+02  0.51100000000E-03 0. -1.
         11   -1    0    0    0    0 -0.00000000000E+00 -0.00000000000E+00 -0.45593999997E+02  0.45594000000E+02  0.51100000000E-03 0.  1.
    9900012    2    1    2    0    0 -0.10179670475E+01  0.54603680747E+00 -0.24207872019E+00  0.90007739346E+02  0.90000000705E+02 0.  0.
         12    1    1    2    0    0  0.10179670475E+01 -0.54603680747E+00  0.24207872019E+00  0.11802606541E+01  0.00000000000E+00 0. -1.
         11    1    3    3    0    0  0.10434389453E+02 -0.37898260385E+00  0.71944718357E+00  0.10466026733E+02  0.51100000000E-03 0. -1.
        -11    1    3    3    0    0  0.30678829020E+02  0.15278977728E+02 -0.58361165376E+01  0.34766333815E+02  0.51100000000E-03 0.  1.
         12    1    3    3    0    0 -0.42131185520E+02 -0.14353958316E+02  0.48745906338E+01  0.44775378798E+02  0.00000000000E+00 0. -1.
</event>
<event>
 7    1  0.1935465E-015  0.9000776E+02  0.7816164E-02  0.1186339E+00
        -11   -1    0    0    0    0  0.00000000000E+00  0.00000000000E+00  0.45593999997E+02  0.45594000000E+02  0.51100000000E-03 0.  1.
         11   -1    0    0    0    0 -0.00000000000E+00 -0.00000000000E+00 -0.45593999997E+02  0.45594000000E+02  0.51100000000E-03 0. -1.
    9900012    2    1    2    0    0  0.22845484707E+00  0.11540360384E+01  0.94762741301E-01  0.90007758172E+02  0.90000019780E+02 0.  0.
         12    1    1    2    0    0 -0.22845484707E+00 -0.11540360384E+01 -0.94762741301E-01  0.11802418278E+01  0.00000000000E+00 0. -1.
         11    1    3    3    0    0  0.11343664741E+01  0.73015079726E+01  0.68732080927E+01  0.10091570528E+02  0.51100000000E-03 0. -1.
        -11    1    3    3    0    0  0.20047858918E+02  0.30115581782E+02 -0.11022455272E+02  0.37820092990E+02  0.51100000000E-03 0.  1.
         12    1    3    3    0    0 -0.20953770545E+02 -0.36263053717E+02  0.42440099204E+01  0.42096094654E+02  0.00000000000E+00 0. -1.
</event>
<event>
 7    1  0.1935465E-015  0.9000772E+02  0.7816164E-02  0.1186339E+00
        -11   -1    0    0    0    0  0.00000000000E+00  0.00000000000E+00  0.45593999997E+02  0.45594000000E+02  0.51100000000E-03 0.  1.
         11   -1    0    0    0    0 -0.00000000000E+00 -0.00000000000E+00 -0.45593999997E+02  0.45594000000E+02  0.51100000000E-03 0. -1.
    9900012    2    1    2    0    0  0.78453520369E+00  0.88145406108E+00 -0.24569085473E-01  0.90007720208E+02  0.89999981315E+02 0.  0.
         12    1    1    2    0    0 -0.78453520369E+00 -0.88145406108E+00  0.24569085473E-01  0.11802797921E+01  0.00000000000E+00 0. -1.
         11    1    3    3    0    0 -0.81284702573E+01  0.31051019926E+02 -0.20183631286E+02  0.37915918020E+02  0.51100000000E-03 0. -1.
        -11    1    3    3    0    0  0.16216036456E+00  0.88450816694E+00 -0.87350804043E+01  0.87812459601E+01  0.51100000000E-03 0.  1.
        -12    1    3    3    0    0  0.87508450965E+01 -0.31054074032E+02  0.28894142605E+02  0.43310556228E+02  0.00000000000E+00 0.  1.
</event>
<event>
 7    1  0.1935465E-015  0.9000779E+02  0.7816164E-02  0.1186339E+00
        -11   -1    0    0    0    0  0.00000000000E+00  0.00000000000E+00  0.45593999997E+02  0.45594000000E+02  0.51100000000E-03 0. -1.
         11   -1    0    0    0    0 -0.00000000000E+00 -0.00000000000E+00 -0.45593999997E+02  0.45594000000E+02  0.51100000000E-03 0.  1.
    9900012    2    1    2    0    0  0.60787126951E+00  0.99802919497E+00  0.16533596376E+00  0.90007785725E+02  0.90000047696E+02 0.  0.
         12    1    1    2    0    0 -0.60787126951E+00 -0.99802919497E+00 -0.16533596376E+00  0.11802142751E+01  0.00000000000E+00 0. -1.
         11    1    3    3    0    0  0.77264066009E+01  0.26488605153E+01  0.57367920731E+01  0.99812125788E+01  0.51100000000E-03 0. -1.
        -11    1    3    3    0    0 -0.74473519965E+01  0.35213671703E+02  0.13596761121E+02  0.38475156138E+02  0.51100000000E-03 0.  1.
         12    1    3    3    0    0  0.32881666502E+00 -0.36864503024E+02 -0.19168217230E+02  0.41551417008E+02  0.00000000000E+00 0. -1.
</event>
<event>
 7    1  0.1935465E-015  0.9000781E+02  0.7816164E-02  0.1186339E+00
        -11   -1    0    0    0    0  0.00000000000E+00  0.00000000000E+00  0.45593999997E+02  0.45594000000E+02  0.51100000000E-03 0. -1.
         11   -1    0    0    0    0 -0.00000000000E+00 -0.00000000000E+00 -0.45593999997E+02  0.45594000000E+02  0.51100000000E-03 0.  1.
    9900012    2    1    2    0    0  0.69471878340E+00  0.79516403986E+00 -0.52720013911E+00  0.90007805090E+02  0.90000067317E+02 0.  0.
         12    1    1    2    0    0 -0.69471878340E+00 -0.79516403986E+00  0.52720013911E+00  0.11801949097E+01  0.00000000000E+00 0. -1.
         11    1    3    3    0    0  0.36352921515E+01  0.33312549215E+02  0.26826304210E+02  0.42925422328E+02  0.51100000000E-03 0. -1.
        -11    1    3    3    0    0  0.55739721103E+01 -0.67861229451E+01 -0.29898784499E+00  0.87869234494E+01  0.51100000000E-03 0.  1.
        -12    1    3    3    0    0 -0.85145454784E+01 -0.25731262230E+02 -0.27054516505E+02  0.38295459312E+02  0.00000000000E+00 0.  1.
</event>
<event>
 7    1  0.1935465E-015  0.9000774E+02  0.7816164E-02  0.1186339E+00
        -11   -1    0    0    0    0  0.00000000000E+00  0.00000000000E+00  0.45593999997E+02  0.45594000000E+02  0.51100000000E-03 0.  1.
         11   -1    0    0    0    0 -0.00000000000E+00 -0.00000000000E+00 -0.45593999997E+02  0.45594000000E+02  0.51100000000E-03 0. -1.
    9900012    2    1    2    0    0 -0.91901612952E+00 -0.72107406663E+00  0.16877426766E+00  0.90007735958E+02  0.89999997272E+02 0.  0.
         12    1    1    2    0    0  0.91901612952E+00  0.72107406663E+00 -0.16877426766E+00  0.11802640422E+01  0.00000000000E+00 0. -1.
         11    1    3    3    0    0 -0.37925402799E+02  0.30811548856E+01  0.12860918866E+02  0.40165070985E+02  0.51100000000E-03 0. -1.
        -11    1    3    3    0    0  0.30529655128E+01 -0.52112547818E+01  0.80243097523E+01  0.10043272479E+02  0.51100000000E-03 0.  1.
        -12    1    3    3    0    0  0.33953421157E+02  0.14090258295E+01 -0.20716454351E+02  0.39799392494E+02  0.00000000000E+00 0.  1.
</event>
<event>
 7    1  0.1935465E-015  0.9000771E+02  0.7816164E-02  0.1186339E+00
        -11   -1    0    0    0    0  0.00000000000E+00  0.00000000000E+00  0.45593999997E+02  0.45594000000E+02  0.51100000000E-03 0. -1.
         11   -1    0    0    0    0 -0.00000000000E+00 -0.00000000000E+00 -0.45593999997E+02  0.45594000000E+02  0.51100000000E-03 0.  1.
    9900012    2    1    2    0    0 -0.45292507014E+00 -0.80233286107E+00 -0.73769561057E+00  0.90007714461E+02  0.89999975492E+02 0.  0.
         12    1    1    2    0    0  0.45292507014E+00  0.80233286107E+00  0.73769561057E+00  0.11802855387E+01  0.00000000000E+00 0. -1.
         11    1    3    3    0    0  0.87985372833E+01  0.28863255027E+02 -0.20980938738E+02  0.36751891648E+02  0.51100000000E-03 0. -1.
        -11    1    3    3    0    0  0.86761651459E+01  0.31900903474E+01 -0.23483627254E+01  0.95376792678E+01  0.51100000000E-03 0.  1.
        -12    1    3    3    0    0 -0.17927627499E+02 -0.32855678236E+02  0.22591605853E+02  0.43718143546E+02  0.00000000000E+00 0.  1.
</event>
<event>
 7    1  0.1935465E-015  0.9000775E+02  0.7816164E-02  0.1186339E+00
        -11   -1    0    0    0    0  0.00000000000E+00  0.00000000000E+00  0.45593999997E+02  0.45594000000E+02  0.51100000000E-03 0. -1.
         11   -1    0    0    0    0 -0.00000000000E+00 -0.00000000000E+00 -0.45593999997E+02  0.45594000000E+02  0.51100000000E-03 0.  1.
    9900012    2    1    2    0    0  0.28600560098E-01 -0.92069265536E+00 -0.73789778730E+00  0.90007751678E+02  0.90000013200E+02 0.  0.
         12    1    1    2    0    0 -0.28600560097E-01  0.92069265536E+00  0.73789778730E+00  0.11802483222E+01  0.00000000000E+00 0. -1.
         11    1    3    3    0    0 -0.38050935070E+02 -0.70303663728E+01 -0.18231261062E+02  0.42774742445E+02  0.51100000000E-03 0. -1.
        -11    1    3    3    0    0  0.67296448108E+01 -0.71604020379E+01  0.36255467031E+01  0.10473970870E+02  0.51100000000E-03 0.  1.
        -12    1    3    3    0    0  0.31349890819E+02  0.13270075755E+02  0.13867816571E+02  0.36759038363E+02  0.00000000000E+00 0.  1.
</event>
<event>
 7    1  0.1935465E-015  0.9000781E+02  0.7816164E-02  0.1186339E+00
        -11   -1    0    0    0    0  0.00000000000E+00  0.00000000000E+00  0.45593999997E+02  0.45594000000E+02  0.51100000000E-03 0. -1.
         11   -1    0    0    0    0 -0.00000000000E+00 -0.00000000000E+00 -0.45593999997E+02  0.45594000000E+02  0.51100000000E-03 0.  1.
    9900012    2    1    2    0    0 -0.34773797192E+00 -0.94886273591E+00 -0.60958688906E+00  0.90007805794E+02  0.90000068030E+02 0.  0.
         12    1    1    2    0    0  0.34773797192E+00  0.94886273591E+00  0.60958688906E+00  0.11801942061E+01  0.00000000000E+00 0. -1.
         11    1    3    3    0    0  0.70110809273E+00  0.41281731911E+00 -0.10835966382E+02  0.10866468533E+02  0.51100000000E-03 0. -1.
        -11    1    3    3    0    0  0.17000149504E+01  0.13152419944E+02 -0.31874906089E+02  0.34523699680E+02  0.51100000000E-03 0.  1.
         12    1    3    3    0    0 -0.27488610151E+01 -0.14514099999E+02  0.42101285581E+02  0.44617637580E+02  0.00000000000E+00 0. -1.
</event>
<event>
 7    1  0.2628060E-015  0.9000772E+02  0.7816164E-02  0.1186339E+00
        -11   -1    0    0    0    0  0.00000000000E+00  0.00000000000E+00  0.45593999997E+02  0.45594000000E+02  0.51100000000E-03 0.  1.
         11   -1    0    0    0    0 -0.00000000000E+00 -0.00000000000E+00 -0.45593999997E+02  0.45594000000E+02  0.51100000000E-03 0. -1.
    9900012    2    1    2    0    0  0.26180551533E+00 -0.11494384859E+01  0.57433819451E-01  0.90007724776E+02  0.89999985943E+02 0.  0.
         12    1    1    2    0    0 -0.26180551533E+00  0.11494384859E+01 -0.57433819451E-01  0.11802752240E+01  0.00000000000E+00 0. -1.
         11    1    3    3    0    0 -0.76423245447E+00 -0.90794604808E+01  0.28175506873E+01  0.95372556852E+01  0.51100000000E-03 0. -1.
        -11    1    3    3    0    0 -0.10145831013E+02  0.21410813807E+02  0.33017335590E+02  0.40638716571E+02  0.51100000000E-03 0.  1.
         12    1    3    3    0    0  0.11171868982E+02 -0.13480791812E+02 -0.35777452458E+02  0.39831752520E+02  0.00000000000E+00 0. -1.
</event>
<event>
 7    1  0.1935465E-015  0.9000769E+02  0.7816164E-02  0.1186339E+00
        -11   -1    0    0    0    0  0.00000000000E+00  0.00000000000E+00  0.45593999997E+02  0.45594000000E+02  0.51100000000E-03 0.  1.
         11   -1    0    0    0    0 -0.00000000000E+00 -0.00000000000E+00 -0.45593999997E+02  0.45594000000E+02  0.51100000000E-03 0. -1.
    9900012    2    1    2    0    0 -0.46808997088E+00 -0.80825803807E+00 -0.72162168570E+00  0.90007691932E+02  0.89999952666E+02 0.  0.
         12    1    1    2    0    0  0.46808997088E+00  0.80825803807E+00  0.72162168570E+00  0.11803080675E+01  0.00000000000E+00 0. -1.
         11    1    3    3    0    0  0.64865221108E+01  0.85960888206E+01 -0.13412627938E+02  0.17200764535E+02  0.51100000000E-03 0. -1.
        -11    1    3    3    0    0  0.12517510873E+02  0.27325000931E+02  0.37985946543E+01  0.30294769779E+02  0.51100000000E-03 0.  1.
         12    1    3    3    0    0 -0.19472122955E+02 -0.36729347789E+02  0.88924115982E+01  0.42512157619E+02  0.00000000000E+00 0. -1.
</event>
<event>
 7    1  0.1935465E-015  0.9000779E+02  0.7816164E-02  0.1186339E+00
        -11   -1    0    0    0    0  0.00000000000E+00  0.00000000000E+00  0.45593999997E+02  0.45594000000E+02  0.51100000000E-03 0.  1.
         11   -1    0    0    0    0 -0.00000000000E+00 -0.00000000000E+00 -0.45593999997E+02  0.45594000000E+02  0.51100000000E-03 0. -1.
    9900012    2    1    2    0    0  0.47053276795E+00  0.10599454727E+01 -0.21913681426E+00  0.90007785429E+02  0.90000047396E+02 0.  0.
         12    1    1    2    0    0 -0.47053276795E+00 -0.10599454727E+01  0.21913681426E+00  0.11802145712E+01  0.00000000000E+00 0. -1.
         11    1    3    3    0    0 -0.22433626804E+01 -0.24251538419E+01 -0.36259347759E+02  0.36409536491E+02  0.51100000000E-03 0. -1.
        -11    1    3    3    0    0 -0.25923384069E+01 -0.55011228881E+00 -0.83241681828E+01  0.87358238388E+01  0.51100000000E-03 0.  1.
        -12    1    3    3    0    0  0.53062338553E+01  0.40352116034E+01  0.44364379128E+02  0.44862425099E+02  0.00000000000E+00 0.  1.
</event>
<event>
 7    1  0.1935465E-015  0.9000783E+02  0.7816164E-02  0.1186339E+00
        -11   -1    0    0    0    0  0.00000000000E+00  0.00000000000E+00  0.45593999997E+02  0.45594000000E+02  0.51100000000E-03 0. -1.
         11   -1    0    0    0    0 -0.00000000000E+00 -0.00000000000E+00 -0.45593999997E+02  0.45594000000E+02  0.51100000000E-03 0.  1.
    9900012    2    1    2    0    0  0.20865910476E+00  0.79632178075E+00  0.84565527679E+00  0.90007830585E+02  0.90000093149E+02 0.  0.
         12    1    1    2    0    0 -0.20865910476E+00 -0.79632178075E+00 -0.84565527679E+00  0.11801694148E+01  0.00000000000E+00 0. -1.
         11    1    3    3    0    0  0.18908164344E+02 -0.52946969722E+01  0.13981592100E+01  0.19685206231E+02  0.51100000000E-03 0. -1.
        -11    1    3    3    0    0  0.23811715726E+02 -0.74842056734E+01  0.46654887744E+01  0.25392477748E+02  0.51100000000E-03 0.  1.
         12    1    3    3    0    0 -0.42511220966E+02  0.13575224426E+02 -0.52179927077E+01  0.44930146607E+02  0.00000000000E+00 0. -1.
</event>
<event>
 7    1  0.1935465E-015  0.9000773E+02  0.7816164E-02  0.1186339E+00
        -11   -1    0    0    0    0  0.00000000000E+00  0.00000000000E+00  0.45593999997E+02  0.45594000000E+02  0.51100000000E-03 0.  1.
         11   -1    0    0    0    0 -0.00000000000E+00 -0.00000000000E+00 -0.45593999997E+02  0.45594000000E+02  0.51100000000E-03 0. -1.
    9900012    2    1    2    0    0 -0.45428471706E+00  0.92443974125E+00  0.57625816574E+00  0.90007730152E+02  0.89999991391E+02 0.  0.
         12    1    1    2    0    0  0.45428471706E+00 -0.92443974125E+00 -0.57625816574E+00  0.11802698475E+01  0.00000000000E+00 0. -1.
         11    1    3    3    0    0 -0.12875657894E+01 -0.17851583677E+02 -0.36101995779E+02  0.40295048888E+02  0.51100000000E-03 0. -1.
        -11    1    3    3    0    0 -0.91977797055E+01  0.67508924565E+01  0.18933573982E+01  0.11565401116E+02  0.51100000000E-03 0.  1.
        -12    1    3    3    0    0  0.10031060778E+02  0.12025130961E+02  0.34784896547E+02  0.38147280148E+02  0.00000000000E+00 0.  1.
</event>
<event>
 7    1  0.1935465E-015  0.9000776E+02  0.7816164E-02  0.1186339E+00
        -11   -1    0    0    0    0  0.00000000000E+00  0.00000000000E+00  0.45593999997E+02  0.45594000000E+02  0.51100000000E-03 0. -1.
         11   -1    0    0    0    0 -0.00000000000E+00 -0.00000000000E+00 -0.45593999997E+02  0.45594000000E+02  0.51100000000E-03 0.  1.
    9900012    2    1    2    0    0 -0.59405404230E+00  0.53586657294E+00 -0.86771126583E+00  0.90007755945E+02  0.90000017523E+02 0.  0.
         12    1    1    2    0    0  0.59405404230E+00 -0.53586657294E+00  0.86771126583E+00  0.11802440553E+01  0.00000000000E+00 0. -1.
         11    1    3    3    0    0  0.42147898641E-01 -0.50939412725E+01  0.75651373081E+01  0.91203792073E+01  0.51100000000E-03 0. -1.
        -11    1    3    3    0    0  0.20670880659E+02  0.35605323481E+02 -0.14427346939E+02  0.43625367704E+02  0.51100000000E-03 0.  1.
         12    1    3    3    0    0 -0.21307082600E+02 -0.29975515635E+02  0.59944983653E+01  0.37262009033E+02  0.00000000000E+00 0. -1.
</event>
<event>
 7    1  0.1935465E-015  0.9000777E+02  0.7816164E-02  0.1186339E+00
        -11   -1    0    0    0    0  0.00000000000E+00  0.00000000000E+00  0.45593999997E+02  0.45594000000E+02  0.51100000000E-03 0.  1.
         11   -1    0    0    0    0 -0.00000000000E+00 -0.00000000000E+00 -0.45593999997E+02  0.45594000000E+02  0.51100000000E-03 0. -1.
    9900012    2    1    2    0    0 -0.84292600516E+00  0.82101064818E+00  0.91434512388E-01  0.90007769936E+02  0.90000031699E+02 0.  0.
         12    1    1    2    0    0  0.84292600516E+00 -0.82101064818E+00 -0.91434512388E-01  0.11802300643E+01  0.00000000000E+00 0. -1.
         11    1    3    3    0    0  0.15266902564E+02  0.20698375978E+02 -0.28401192720E+02  0.38316169305E+02  0.51100000000E-03 0. -1.
        -11    1    3    3    0    0  0.73984821470E+01  0.32989035554E+01  0.25301337753E-01  0.81006754759E+01  0.51100000000E-03 0.  1.
        -12    1    3    3    0    0 -0.23508310717E+02 -0.23176268885E+02  0.28467325895E+02  0.43590925154E+02  0.00000000000E+00 0.  1.
</event>
<event>
 7    1  0.1935465E-015  0.9000758E+02  0.7816164E-02  0.1186339E+00
        -11   -1    0    0    0    0  0.00000000000E+00  0.00000000000E+00  0.45593999997E+02  0.45594000000E+02  0.51100000000E-03 0.  1.
         11   -1    0    0    0    0 -0.00000000000E+00 -0.00000000000E+00 -0.45593999997E+02  0.45594000000E+02  0.51100000000E-03 0. -1.
    9900012    2    1    2    0    0  0.10730765052E+01  0.65856267202E-01  0.48740737664E+00  0.90007577963E+02  0.89999837192E+02 0.  0.
         12    1    1    2    0    0 -0.10730765052E+01 -0.65856267202E-01 -0.48740737664E+00  0.11804220367E+01  0.00000000000E+00 0. -1.
         11    1    3    3    0    0 -0.26194176570E+01 -0.56753934406E+01 -0.62175603429E+01  0.88164333177E+01  0.51100000000E-03 0. -1.
        -11    1    3    3    0    0  0.23275295392E+01 -0.33396739541E+02 -0.14698188189E+02  0.36562225616E+02  0.51100000000E-03 0.  1.
         12    1    3    3    0    0  0.13649646229E+01  0.39137989249E+02  0.21403155909E+02  0.44628919029E+02  0.00000000000E+00 0. -1.
</event>
<event>
 7    1  0.1935465E-015  0.9000776E+02  0.7816164E-02  0.1186339E+00
        -11   -1    0    0    0    0  0.00000000000E+00  0.00000000000E+00  0.45593999997E+02  0.45594000000E+02  0.51100000000E-03 0. -1.
         11   -1    0    0    0    0 -0.00000000000E+00 -0.00000000000E+00 -0.45593999997E+02  0.45594000000E+02  0.51100000000E-03 0.  1.
    9900012    2    1    2    0    0  0.79694671969E+00 -0.67447078370E+00  0.55039147896E+00  0.90007760324E+02  0.90000021961E+02 0.  0.
         12    1    1    2    0    0 -0.79694671969E+00  0.67447078370E+00 -0.55039147896E+00  0.11802396757E+01  0.00000000000E+00 0. -1.
         11    1    3    3    0    0 -0.12811350958E+02  0.16179839379E+01 -0.22835733047E+01  0.13113477521E+02  0.51100000000E-03 0. -1.
        -11    1    3    3    0    0  0.28615451113E+01 -0.28562965451E+01 -0.36189242649E+02  0.36414394875E+02  0.51100000000E-03 0.  1.
         12    1    3    3    0    0  0.10746752567E+02  0.56384182356E+00  0.39023207432E+02  0.40479887928E+02  0.00000000000E+00 0. -1.
</event>
<event>
 7    1  0.1935465E-015  0.9000775E+02  0.7816164E-02  0.1186339E+00
        -11   -1    0    0    0    0  0.00000000000E+00  0.00000000000E+00  0.45593999997E+02  0.45594000000E+02  0.51100000000E-03 0. -1.
         11   -1    0    0    0    0 -0.00000000000E+00 -0.00000000000E+00 -0.45593999997E+02  0.45594000000E+02  0.51100000000E-03 0.  1.
    9900012    2    1    2    0    0  0.11489576701E+01  0.50951267981E-01 -0.26512189413E+00  0.90007750290E+02  0.90000011794E+02 0.  0.
         12    1    1    2    0    0 -0.11489576701E+01 -0.50951267981E-01  0.26512189413E+00  0.11802497101E+01  0.00000000000E+00 0. -1.
         11    1    3    3    0    0  0.33984685643E+01 -0.36317653452E+02  0.86642723151E+01  0.37491214382E+02  0.51100000000E-03 0. -1.
        -11    1    3    3    0    0 -0.29882373372E+01 -0.62712670981E+01 -0.69466946313E+01  0.98242007289E+01  0.51100000000E-03 0.  1.
        -12    1    3    3    0    0  0.73872644305E+00  0.42639871818E+02 -0.19826995779E+01  0.42692335179E+02  0.00000000000E+00 0.  1.
</event>
<event>
 7    1  0.1935465E-015  0.9000768E+02  0.7816164E-02  0.1186339E+00
        -11   -1    0    0    0    0  0.00000000000E+00  0.00000000000E+00  0.45593999997E+02  0.45594000000E+02  0.51100000000E-03 0. -1.
         11   -1    0    0    0    0 -0.00000000000E+00 -0.00000000000E+00 -0.45593999997E+02  0.45594000000E+02  0.51100000000E-03 0.  1.
    9900012    2    1    2    0    0  0.82861511873E+00 -0.62245829882E+00 -0.56489156958E+00  0.90007678080E+02  0.89999938631E+02 0.  0.
         12    1    1    2    0    0 -0.82861511873E+00  0.62245829882E+00  0.56489156958E+00  0.11803219197E+01  0.00000000000E+00 0. -1.
         11    1    3    3    0    0 -0.17021675596E+02  0.12717931525E+02  0.25304255488E+01  0.21398277410E+02  0.51100000000E-03 0. -1.
        -11    1    3    3    0    0 -0.16610231151E+02 -0.24441394372E+02 -0.11035277933E+02  0.31544554158E+02  0.51100000000E-03 0.  1.
         12    1    3    3    0    0  0.34460521866E+02  0.11101004548E+02  0.79399608142E+01  0.37064846512E+02  0.00000000000E+00 0. -1.
</event>
<event>
 7    1  0.1935465E-015  0.9000779E+02  0.7816164E-02  0.1186339E+00
        -11   -1    0    0    0    0  0.00000000000E+00  0.00000000000E+00  0.45593999997E+02  0.45594000000E+02  0.51100000000E-03 0. -1.
         11   -1    0    0    0    0 -0.00000000000E+00 -0.00000000000E+00 -0.45593999997E+02  0.45594000000E+02  0.51100000000E-03 0.  1.
    9900012    2    1    2    0    0  0.82895423023E+00 -0.45997900507E+00 -0.70296121144E+00  0.90007788042E+02  0.90000050044E+02 0.  0.
         12    1    1    2    0    0 -0.82895423023E+00  0.45997900507E+00  0.70296121144E+00  0.11802119580E+01  0.00000000000E+00 0. -1.
         11    1    3    3    0    0 -0.31351392147E+02  0.17732444606E+02 -0.15307050031E+02  0.39136366236E+02  0.51100000000E-03 0. -1.
        -11    1    3    3    0    0  0.34482391675E+01  0.69958097349E+01 -0.35487532366E+01  0.85688597257E+01  0.51100000000E-03 0.  1.
        -12    1    3    3    0    0  0.28732107210E+02 -0.25188233346E+02  0.18152842056E+02  0.42302562080E+02  0.00000000000E+00 0.  1.
</event>
<event>
 7    1  0.1935465E-015  0.9000771E+02  0.7816164E-02  0.1186339E+00
        -11   -1    0    0    0    0  0.00000000000E+00  0.00000000000E+00  0.45593999997E+02  0.45594000000E+02  0.51100000000E-03 0. -1.
         11   -1    0    0    0    0 -0.00000000000E+00 -0.00000000000E+00 -0.45593999997E+02  0.45594000000E+02  0.51100000000E-03 0.  1.
    9900012    2    1    2    0    0  0.37355321692E+00 -0.70365577110E+00  0.87087024864E+00  0.90007708324E+02  0.89999969274E+02 0.  0.
         12    1    1    2    0    0 -0.37355321692E+00  0.70365577110E+00 -0.87087024864E+00  0.11802916758E+01  0.00000000000E+00 0. -1.
         11    1    3    3    0    0 -0.67591510601E+01 -0.60215218907E+00 -0.67632728604E+01  0.95807395517E+01  0.51100000000E-03 0. -1.
        -11    1    3    3    0    0 -0.27965406983E+02  0.11912628544E+02 -0.18007296095E+02  0.35330403613E+02  0.51100000000E-03 0.  1.
         12    1    3    3    0    0  0.35098111260E+02 -0.12014132126E+02  0.25641439204E+02  0.45096565160E+02  0.00000000000E+00 0. -1.
</event>
<event>
 7    1  0.1935465E-015  0.9000778E+02  0.7816164E-02  0.1186339E+00
        -11   -1    0    0    0    0  0.00000000000E+00  0.00000000000E+00  0.45593999997E+02  0.45594000000E+02  0.51100000000E-03 0.  1.
         11   -1    0    0    0    0 -0.00000000000E+00 -0.00000000000E+00 -0.45593999997E+02  0.45594000000E+02  0.51100000000E-03 0. -1.
    9900012    2    1    2    0    0  0.52306136638E+00 -0.10433171616E+01 -0.17557136026E+00  0.90007775786E+02  0.90000037626E+02 0.  0.
         12    1    1    2    0    0 -0.52306136638E+00  0.10433171616E+01  0.17557136026E+00  0.11802242139E+01  0.00000000000E+00 0. -1.
         11    1    3    3    0    0  0.57979335372E+01 -0.19768782779E+02 -0.34069296507E+00  0.20604292703E+02  0.51100000000E-03 0. -1.
        -11    1    3    3    0    0 -0.12653522286E+02 -0.21103125747E+02 -0.11628289763E+02  0.27215265305E+02  0.51100000000E-03 0.  1.
         12    1    3    3    0    0  0.73786501153E+01  0.39828591364E+02  0.11793411367E+02  0.42188217778E+02  0.00000000000E+00 0. -1.
</event>
<event>
 7    1  0.1935465E-015  0.9000770E+02  0.7816164E-02  0.1186339E+00
        -11   -1    0    0    0    0  0.00000000000E+00  0.00000000000E+00  0.45593999997E+02  0.45594000000E+02  0.51100000000E-03 0. -1.
         11   -1    0    0    0    0 -0.00000000000E+00 -0.00000000000E+00 -0.45593999997E+02  0.45594000000E+02  0.51100000000E-03 0.  1.
    9900012    2    1    2    0    0 -0.81559653697E+00 -0.84989608437E+00 -0.74703079483E-01  0.90007702743E+02  0.89999963619E+02 0.  0.
         12    1    1    2    0    0  0.81559653697E+00  0.84989608437E+00  0.74703079483E-01  0.11802972572E+01  0.00000000000E+00 0. -1.
         11    1    3    3    0    0 -0.67374414039E+01  0.64919476950E+01  0.20792618089E+01  0.95844578082E+01  0.51100000000E-03 0. -1.
        -11    1    3    3    0    0  0.20208693825E+02  0.17436761492E+02 -0.30241472342E+02  0.40335822876E+02  0.51100000000E-03 0.  1.
         12    1    3    3    0    0 -0.14286848958E+02 -0.24778605271E+02  0.28087507454E+02  0.40087422058E+02  0.00000000000E+00 0. -1.
</event>
<event>
 7    1  0.1935465E-015  0.9000774E+02  0.7816164E-02  0.1186339E+00
        -11   -1    0    0    0    0  0.00000000000E+00  0.00000000000E+00  0.45593999997E+02  0.45594000000E+02  0.51100000000E-03 0. -1.
         11   -1    0    0    0    0 -0.00000000000E+00 -0.00000000000E+00 -0.45593999997E+02  0.45594000000E+02  0.51100000000E-03 0.  1.
    9900012    2    1    2    0    0 -0.94995642818E+00 -0.29025248779E+00 -0.63744763229E+00  0.90007744432E+02  0.90000005858E+02 0.  0.
         12    1    1    2    0    0  0.94995642818E+00  0.29025248779E+00  0.63744763229E+00  0.11802555681E+01  0.00000000000E+00 0. -1.
         11    1    3    3    0    0 -0.89458797047E+01  0.47789775265E+01 -0.17273840355E+01  0.10288403460E+02  0.51100000000E-03 0. -1.
        -11    1    3    3    0    0  0.16354681392E+02  0.27513591700E+02  0.23142234333E+02  0.39497295374E+02  0.51100000000E-03 0.  1.
         12    1    3    3    0    0 -0.83587581157E+01 -0.32582821714E+02 -0.22052297930E+02  0.40222045598E+02  0.00000000000E+00 0. -1.
</event>
<event>
 7    1  0.1935465E-015  0.9000764E+02  0.7816164E-02  0.1186339E+00
        -11   -1    0    0    0    0  0.00000000000E+00  0.00000000000E+00  0.45593999997E+02  0.45594000000E+02  0.51100000000E-03 0.  1.
         11   -1    0    0    0    0 -0.00000000000E+00 -0.00000000000E+00 -0.45593999997E+02  0.45594000000E+02  0.51100000000E-03 0. -1.
    9900012    2    1    2    0    0 -0.90013575573E+00  0.49900441310E+00  0.57793688917E+00  0.90007635298E+02  0.89999895283E+02 0.  0.
         12    1    1    2    0    0  0.90013575573E+00 -0.49900441310E+00 -0.57793688917E+00  0.11803647025E+01  0.00000000000E+00 0. -1.
         11    1    3    3    0    0  0.17713197188E+02  0.18113362317E+02 -0.29626542907E+02  0.38981832870E+02  0.51100000000E-03 0. -1.
        -11    1    3    3    0    0 -0.31366986558E+01 -0.15299442958E+02 -0.14799144369E+01  0.15687637817E+02  0.51100000000E-03 0.  1.
        -12    1    3    3    0    0 -0.15476634288E+02 -0.23149149457E+01  0.31684394233E+02  0.35338164610E+02  0.00000000000E+00 0.  1.
</event>
<event>
 7    1  0.1935465E-015  0.9000774E+02  0.7816164E-02  0.1186339E+00
        -11   -1    0    0    0    0  0.00000000000E+00  0.00000000000E+00  0.45593999997E+02  0.45594000000E+02  0.51100000000E-03 0.  1.
         11   -1    0    0    0    0 -0.00000000000E+00 -0.00000000000E+00 -0.45593999997E+02  0.45594000000E+02  0.51100000000E-03 0. -1.
    9900012    2    1    2    0    0 -0.62870915360E+00 -0.18185913749E+00  0.98217170803E+00  0.90007741888E+02  0.90000003281E+02 0.  0.
         12    1    1    2    0    0  0.62870915360E+00  0.18185913749E+00 -0.98217170803E+00  0.11802581115E+01  0.00000000000E+00 0. -1.
         11    1    3    3    0    0  0.23964645237E+01 -0.64551387028E+01 -0.59754728060E+01  0.91169146865E+01  0.51100000000E-03 0. -1.
        -11    1    3    3    0    0  0.11447105729E+02  0.34055918786E+02 -0.18603921995E+02  0.40459210914E+02  0.51100000000E-03 0.  1.
         12    1    3    3    0    0 -0.14472279406E+02 -0.27782639220E+02  0.25561566509E+02  0.40431616288E+02  0.00000000000E+00 0. -1.
</event>
<event>
 7    1  0.1935465E-015  0.9000755E+02  0.7816164E-02  0.1186339E+00
        -11   -1    0    0    0    0  0.00000000000E+00  0.00000000000E+00  0.45593999997E+02  0.45594000000E+02  0.51100000000E-03 0. -1.
         11   -1    0    0    0    0 -0.00000000000E+00 -0.00000000000E+00 -0.45593999997E+02  0.45594000000E+02  0.51100000000E-03 0.  1.
    9900012    2    1    2    0    0  0.12812824728E+00  0.65399353572E+00 -0.97433837912E+00  0.90007551073E+02  0.89999809947E+02 0.  0.
         12    1    1    2    0    0 -0.12812824728E+00 -0.65399353572E+00  0.97433837912E+00  0.11804489271E+01  0.00000000000E+00 0. -1.
         11    1    3    3    0    0 -0.27299203794E+01  0.33602019567E+02 -0.12156199566E+02  0.35837429768E+02  0.51100000000E-03 0. -1.
        -11    1    3    3    0    0  0.14321987961E+00  0.77552913430E+01 -0.60988303953E+01  0.98671570476E+01  0.51100000000E-03 0.  1.
        -12    1    3    3    0    0  0.27148287471E+01 -0.40703317374E+02  0.17280691583E+02  0.44302964257E+02  0.00000000000E+00 0.  1.
</event>
<event>
 7    1  0.1935465E-015  0.9000771E+02  0.7816164E-02  0.1186339E+00
        -11   -1    0    0    0    0  0.00000000000E+00  0.00000000000E+00  0.45593999997E+02  0.45594000000E+02  0.51100000000E-03 0.  1.
         11   -1    0    0    0    0 -0.00000000000E+00 -0.00000000000E+00 -0.45593999997E+02  0.45594000000E+02  0.51100000000E-03 0. -1.
    9900012    2    1    2    0    0  0.62421662086E+00  0.23765218491E+00  0.97311450341E+00  0.90007713260E+02  0.89999974276E+02 0.  0.
         12    1    1    2    0    0 -0.62421662086E+00 -0.23765218491E+00 -0.97311450341E+00  0.11802867395E+01  0.00000000000E+00 0. -1.
         11    1    3    3    0    0 -0.31031699231E+02 -0.28420107204E+01  0.20724071764E+02  0.37423662739E+02  0.51100000000E-03 0. -1.
        -11    1    3    3    0    0  0.24114989614E+01 -0.94125519798E+01  0.62105096894E+01  0.11531777525E+02  0.51100000000E-03 0.  1.
        -12    1    3    3    0    0  0.29244416890E+02  0.12492214885E+02 -0.25961466950E+02  0.41052272997E+02  0.00000000000E+00 0.  1.
</event>
<event>
 7    1  0.1935465E-015  0.9000782E+02  0.7816164E-02  0.1186339E+00
        -11   -1    0    0    0    0  0.00000000000E+00  0.00000000000E+00  0.45593999997E+02  0.45594000000E+02  0.51100000000E-03 0.  1.
         11   -1    0    0    0    0 -0.00000000000E+00 -0.00000000000E+00 -0.45593999997E+02  0.45594000000E+02  0.51100000000E-03 0. -1.
    9900012    2    1    2    0    0  0.54884071684E+00  0.46771209635E-01  0.10437523791E+01  0.90007816664E+02  0.90000079044E+02 0.  0.
         12    1    1    2    0    0 -0.54884071684E+00 -0.46771209635E-01 -0.10437523791E+01  0.11801833363E+01  0.00000000000E+00 0. -1.
         11    1    3    3    0    0  0.51191755739E+01  0.47066981992E+01  0.77668256387E+01  0.10425092194E+02  0.51100000000E-03 0. -1.
        -11    1    3    3    0    0  0.30591828458E+02 -0.22518888815E+02  0.52974772043E+01  0.38353925312E+02  0.51100000000E-03 0.  1.
         12    1    3    3    0    0 -0.35162163315E+02  0.17858961826E+02 -0.12020550464E+02  0.41228799157E+02  0.00000000000E+00 0. -1.
</event>
<event>
 7    1  0.1935465E-015  0.9000772E+02  0.7816164E-02  0.1186339E+00
        -11   -1    0    0    0    0  0.00000000000E+00  0.00000000000E+00  0.45593999997E+02  0.45594000000E+02  0.51100000000E-03 0. -1.
         11   -1    0    0    0    0 -0.00000000000E+00 -0.00000000000E+00 -0.45593999997E+02  0.45594000000E+02  0.51100000000E-03 0.  1.
    9900012    2    1    2    0    0 -0.99785341587E+00 -0.62274626232E+00  0.97673226090E-01  0.90007718506E+02  0.89999979590E+02 0.  0.
         12    1    1    2    0    0  0.99785341587E+00  0.62274626232E+00 -0.97673226090E-01  0.11802814943E+01  0.00000000000E+00 0. -1.
         11    1    3    3    0    0 -0.25073488523E+02 -0.25277644510E+02  0.47322694677E+01  0.35917036532E+02  0.51100000000E-03 0. -1.
        -11    1    3    3    0    0  0.61483776510E+01 -0.10419623739E+02  0.56899552148E+01  0.13369618440E+02  0.51100000000E-03 0.  1.
        -12    1    3    3    0    0  0.17927257456E+02  0.35074521987E+02 -0.10324551456E+02  0.40721063534E+02  0.00000000000E+00 0.  1.
</event>
<event>
 7    1  0.1935465E-015  0.9000774E+02  0.7816164E-02  0.1186339E+00
        -11   -1    0    0    0    0  0.00000000000E+00  0.00000000000E+00  0.45593999997E+02  0.45594000000E+02  0.51100000000E-03 0.  1.
         11   -1    0    0    0    0 -0.00000000000E+00 -0.00000000000E+00 -0.45593999997E+02  0.45594000000E+02  0.51100000000E-03 0. -1.
    9900012    2    1    2    0    0 -0.36434224203E-01  0.48589195310E-02  0.11796879937E+01  0.90007739510E+02  0.90000000872E+02 0.  0.
         12    1    1    2    0    0  0.36434224203E-01 -0.48589195310E-02 -0.11796879937E+01  0.11802604900E+01  0.00000000000E+00 0. -1.
         11    1    3    3    0    0 -0.81487226823E+01  0.79989314681E+01 -0.34889683989E+01  0.11939743998E+02  0.51100000000E-03 0. -1.
        -11    1    3    3    0    0 -0.11442560475E+02  0.30635754696E+02  0.10573829241E+02  0.34369863560E+02  0.51100000000E-03 0.  1.
         12    1    3    3    0    0  0.19554848933E+02 -0.38629827245E+02 -0.59051728485E+01  0.43698131952E+02  0.00000000000E+00 0. -1.
</event>
<event>
 7    1  0.1935465E-015  0.9000783E+02  0.7816164E-02  0.1186339E+00
        -11   -1    0    0    0    0  0.00000000000E+00  0.00000000000E+00  0.45593999997E+02  0.45594000000E+02  0.51100000000E-03 0. -1.
         11   -1    0    0    0    0 -0.00000000000E+00 -0.00000000000E+00 -0.45593999997E+02  0.45594000000E+02  0.51100000000E-03 0.  1.
    9900012    2    1    2    0    0  0.44284722773E+00 -0.99046481102E+00 -0.46440822722E+00  0.90007826618E+02  0.90000089130E+02 0.  0.
         12    1    1    2    0    0 -0.44284722773E+00  0.99046481102E+00  0.46440822722E+00  0.11801733815E+01  0.00000000000E+00 0. -1.
         11    1    3    3    0    0  0.17926906582E+01  0.15535815670E+01 -0.74686987612E+01  0.78363777939E+01  0.51100000000E-03 0. -1.
        -11    1    3    3    0    0 -0.18324798437E+02  0.28634296430E+02 -0.18269419065E+02  0.38593948270E+02  0.51100000000E-03 0.  1.
         12    1    3    3    0    0  0.16974955006E+02 -0.31178342808E+02  0.25273709599E+02  0.43577500555E+02  0.00000000000E+00 0. -1.
</event>
<event>
 7    1  0.1935465E-015  0.9000774E+02  0.7816164E-02  0.1186339E+00
        -11   -1    0    0    0    0  0.00000000000E+00  0.00000000000E+00  0.45593999997E+02  0.45594000000E+02  0.51100000000E-03 0.  1.
         11   -1    0    0    0    0 -0.00000000000E+00 -0.00000000000E+00 -0.45593999997E+02  0.45594000000E+02  0.51100000000E-03 0. -1.
    9900012    2    1    2    0    0 -0.66355894251E+00  0.46303726381E+00 -0.85924273734E+00  0.90007740681E+02  0.90000002058E+02 0.  0.
         12    1    1    2    0    0  0.66355894251E+00 -0.46303726381E+00  0.85924273734E+00  0.11802593188E+01  0.00000000000E+00 0. -1.
         11    1    3    3    0    0 -0.51302875986E+01 -0.70838232803E+01  0.52121094110E+01  0.10181674120E+02  0.51100000000E-03 0. -1.
        -11    1    3    3    0    0 -0.95170246690E+01  0.24782555339E+02  0.28369363575E+02  0.38853180019E+02  0.51100000000E-03 0.  1.
         12    1    3    3    0    0  0.13983753325E+02 -0.17235694794E+02 -0.34440715723E+02  0.40972886543E+02  0.00000000000E+00 0. -1.
</event>
<event>
 7    1  0.1935465E-015  0.9000768E+02  0.7816164E-02  0.1186339E+00
        -11   -1    0    0    0    0  0.00000000000E+00  0.00000000000E+00  0.45593999997E+02  0.45594000000E+02  0.51100000000E-03 0.  1.
         11   -1    0    0    0    0 -0.00000000000E+00 -0.00000000000E+00 -0.45593999997E+02  0.45594000000E+02  0.51100000000E-03 0. -1.
    9900012    2    1    2    0    0 -0.28105809688E+00  0.37673543543E+00  0.10827001593E+01  0.90007676791E+02  0.89999937325E+02 0.  0.
         12    1    1    2    0    0  0.28105809688E+00 -0.37673543543E+00 -0.10827001593E+01  0.11803232087E+01  0.00000000000E+00 0. -1.
         11    1    3    3    0    0  0.27918622263E+01 -0.16850296483E+02 -0.29975413274E+02  0.34500034601E+02  0.51100000000E-03 0. -1.
        -11    1    3    3    0    0  0.41216269516E+01 -0.11756322142E+02  0.50430329648E-01  0.12457987900E+02  0.51100000000E-03 0.  1.
        -12    1    3    3    0    0 -0.71945472748E+01  0.28983354061E+02  0.31007683103E+02  0.43049654291E+02  0.00000000000E+00 0.  1.
</event>
<event>
 7    1  0.1935465E-015  0.9000780E+02  0.7816164E-02  0.1186339E+00
        -11   -1    0    0    0    0  0.00000000000E+00  0.00000000000E+00  0.45593999997E+02  0.45594000000E+02  0.51100000000E-03 0. -1.
         11   -1    0    0    0    0 -0.00000000000E+00 -0.00000000000E+00 -0.45593999997E+02  0.45594000000E+02  0.51100000000E-03 0.  1.
    9900012    2    1    2    0    0  0.58894808357E+00  0.86134039995E+00  0.55145910930E+00  0.90007799051E+02  0.90000061199E+02 0.  0.
         12    1    1    2    0    0 -0.58894808357E+00 -0.86134039995E+00 -0.55145910930E+00  0.11802009485E+01  0.00000000000E+00 0. -1.
         11    1    3    3    0    0  0.11187768185E+02 -0.35067618500E+02  0.15747546143E+02  0.40036099136E+02  0.51100000000E-03 0. -1.
        -11    1    3    3    0    0  0.54694281674E+01  0.68520155831E+01  0.59460818618E+01  0.10593424932E+02  0.51100000000E-03 0.  1.
        -12    1    3    3    0    0 -0.16068248268E+02  0.29076943317E+02 -0.21142168895E+02  0.39378274983E+02  0.00000000000E+00 0.  1.
</event>
<event>
 7    1  0.1935465E-015  0.9000775E+02  0.7816164E-02  0.1186339E+00
        -11   -1    0    0    0    0  0.00000000000E+00  0.00000000000E+00  0.45593999997E+02  0.45594000000E+02  0.51100000000E-03 0.  1.
         11   -1    0    0    0    0 -0.00000000000E+00 -0.00000000000E+00 -0.45593999997E+02  0.45594000000E+02  0.51100000000E-03 0. -1.
    9900012    2    1    2    0    0  0.96435855443E+00 -0.16921039412E+00  0.65906255885E+00  0.90007752977E+02  0.90000014516E+02 0.  0.
         12    1    1    2    0    0 -0.96435855443E+00  0.16921039412E+00 -0.65906255885E+00  0.11802470231E+01  0.00000000000E+00 0. -1.
         11    1    3    3    0    0 -0.10715963689E+02  0.20777093910E+02 -0.26230844176E+02  0.35136543592E+02  0.51100000000E-03 0. -1.
        -11    1    3    3    0    0  0.18999653981E+01  0.79364712062E+01 -0.59176820433E+01  0.10080496255E+02  0.51100000000E-03 0.  1.
        -12    1    3    3    0    0  0.97803568452E+01 -0.28882775511E+02  0.32807588778E+02  0.44790713130E+02  0.00000000000E+00 0.  1.
</event>
<event>
 7    1  0.1935465E-015  0.9000655E+02  0.7816164E-02  0.1186341E+00
        -11   -1    0    0    0    0  0.00000000000E+00  0.00000000000E+00  0.45593999997E+02  0.45594000000E+02  0.51100000000E-03 0.  1.
         11   -1    0    0    0    0 -0.00000000000E+00 -0.00000000000E+00 -0.45593999997E+02  0.45594000000E+02  0.51100000000E-03 0. -1.
    9900012    2    1    2    0    0  0.44226185141E+00 -0.67848460140E+00  0.86016369841E+00  0.90006552376E+02  0.89998798060E+02 0.  0.
         12    1    1    2    0    0 -0.44226185141E+00  0.67848460140E+00 -0.86016369841E+00  0.11814476237E+01  0.00000000000E+00 0. -1.
         11    1    3    3    0    0 -0.36119313790E+01 -0.70379207996E+01  0.54763304836E+01  0.96212563262E+01  0.51100000000E-03 0. -1.
        -11    1    3    3    0    0  0.84437785458E+01  0.31674391111E+02  0.24964712436E+02  0.41204384665E+02  0.51100000000E-03 0.  1.
         12    1    3    3    0    0 -0.43895853154E+01 -0.25314954912E+02 -0.29580879221E+02  0.39180911385E+02  0.00000000000E+00 0. -1.
</event>
<event>
 7    1  0.1935465E-015  0.9000771E+02  0.7816164E-02  0.1186339E+00
        -11   -1    0    0    0    0  0.00000000000E+00  0.00000000000E+00  0.45593999997E+02  0.45594000000E+02  0.51100000000E-03 0.  1.
         11   -1    0    0    0    0 -0.00000000000E+00 -0.00000000000E+00 -0.45593999997E+02  0.45594000000E+02  0.51100000000E-03 0. -1.
    9900012    2    1    2    0    0  0.11288803821E+01  0.18959677477E+00  0.28768674190E+00  0.90007711258E+02  0.89999972246E+02 0.  0.
         12    1    1    2    0    0 -0.11288803821E+01 -0.18959677477E+00 -0.28768674190E+00  0.11802887424E+01  0.00000000000E+00 0. -1.
         11    1    3    3    0    0 -0.61121254109E+01 -0.46743976566E+01 -0.39737136794E+01  0.86601657697E+01  0.51100000000E-03 0. -1.
        -11    1    3    3    0    0 -0.29071194824E+00  0.17432151559E+01  0.42354723997E+02  0.42391578853E+02  0.51100000000E-03 0.  1.
         12    1    3    3    0    0  0.75317177412E+01  0.31207792756E+01 -0.38093323576E+02  0.38955966635E+02  0.00000000000E+00 0. -1.
</event>
<event>
 7    1  0.1935465E-015  0.9000774E+02  0.7816164E-02  0.1186339E+00
        -11   -1    0    0    0    0  0.00000000000E+00  0.00000000000E+00  0.45593999997E+02  0.45594000000E+02  0.51100000000E-03 0. -1.
         11   -1    0    0    0    0 -0.00000000000E+00 -0.00000000000E+00 -0.45593999997E+02  0.45594000000E+02  0.51100000000E-03 0.  1.
    9900012    2    1    2    0    0  0.69258537946E+00 -0.19796076708E-02 -0.95568341533E+00  0.90007741885E+02  0.90000003278E+02 0.  0.
         12    1    1    2    0    0 -0.69258537946E+00  0.19796076708E-02  0.95568341533E+00  0.11802581146E+01  0.00000000000E+00 0. -1.
         11    1    3    3    0    0  0.25481211810E+02 -0.29181113507E+02 -0.29184215057E+01  0.38850311777E+02  0.51100000000E-03 0. -1.
        -11    1    3    3    0    0  0.66851768696E+01  0.23161908121E+01  0.64012756868E+01  0.95411037273E+01  0.51100000000E-03 0.  1.
        -12    1    3    3    0    0 -0.31473803300E+02  0.26862943088E+02 -0.44385375964E+01  0.41616326381E+02  0.00000000000E+00 0.  1.
</event>
<event>
 7    1  0.1935465E-015  0.9000797E+02  0.7816164E-02  0.1186339E+00
        -11   -1    0    0    0    0  0.00000000000E+00  0.00000000000E+00  0.45593999997E+02  0.45594000000E+02  0.51100000000E-03 0.  1.
         11   -1    0    0    0    0 -0.00000000000E+00 -0.00000000000E+00 -0.45593999997E+02  0.45594000000E+02  0.51100000000E-03 0. -1.
    9900012    2    1    2    0    0  0.49429337308E+00 -0.10239252057E+01  0.31577502053E+00  0.90007973462E+02  0.90000237912E+02 0.  0.
         12    1    1    2    0    0 -0.49429337308E+00  0.10239252057E+01 -0.31577502053E+00  0.11800265375E+01  0.00000000000E+00 0. -1.
         11    1    3    3    0    0  0.36866197995E+01  0.74976437923E+01 -0.47019611284E+01  0.95871928475E+01  0.51100000000E-03 0. -1.
        -11    1    3    3    0    0 -0.13163834772E+02  0.31338925750E+02  0.16462154865E+02  0.37767940851E+02  0.51100000000E-03 0.  1.
         12    1    3    3    0    0  0.99715083451E+01 -0.39860494748E+02 -0.11444418716E+02  0.42652839764E+02  0.00000000000E+00 0. -1.
</event>
<event>
 7    1  0.1935465E-015  0.9000772E+02  0.7816164E-02  0.1186339E+00
        -11   -1    0    0    0    0  0.00000000000E+00  0.00000000000E+00  0.45593999997E+02  0.45594000000E+02  0.51100000000E-03 0.  1.
         11   -1    0    0    0    0 -0.00000000000E+00 -0.00000000000E+00 -0.45593999997E+02  0.45594000000E+02  0.51100000000E-03 0. -1.
    9900012    2    1    2    0    0 -0.32828567661E+00 -0.11038364739E+01  0.25850429467E+00  0.90007724220E+02  0.89999985380E+02 0.  0.
         12    1    1    2    0    0  0.32828567661E+00  0.11038364739E+01 -0.25850429467E+00  0.11802757801E+01  0.00000000000E+00 0. -1.
         11    1    3    3    0    0  0.26934392857E+01  0.82078082688E+01 -0.79958965402E+00  0.86753717868E+01  0.51100000000E-03 0. -1.
        -11    1    3    3    0    0  0.11095341334E+02  0.33021223595E+02  0.90636811840E+01  0.35995251407E+02  0.51100000000E-03 0.  1.
         12    1    3    3    0    0 -0.14117066296E+02 -0.42332868337E+02 -0.80055872353E+01  0.45337101026E+02  0.00000000000E+00 0. -1.
</event>
<event>
 7    1  0.1935465E-015  0.9000782E+02  0.7816164E-02  0.1186339E+00
        -11   -1    0    0    0    0  0.00000000000E+00  0.00000000000E+00  0.45593999997E+02  0.45594000000E+02  0.51100000000E-03 0. -1.
         11   -1    0    0    0    0 -0.00000000000E+00 -0.00000000000E+00 -0.45593999997E+02  0.45594000000E+02  0.51100000000E-03 0.  1.
    9900012    2    1    2    0    0 -0.64517658049E+00 -0.30039464783E+00 -0.94145965387E+00  0.90007815250E+02  0.90000077611E+02 0.  0.
         12    1    1    2    0    0  0.64517658049E+00  0.30039464783E+00  0.94145965387E+00  0.11801847501E+01  0.00000000000E+00 0. -1.
         11    1    3    3    0    0 -0.70528686664E+01  0.65012146048E+01 -0.50136963702E+00  0.96052131438E+01  0.51100000000E-03 0. -1.
        -11    1    3    3    0    0 -0.31999338195E+02  0.11306620021E+02  0.12255983275E+02  0.36083326170E+02  0.51100000000E-03 0.  1.
         12    1    3    3    0    0  0.38407030281E+02 -0.18108229273E+02 -0.12696073292E+02  0.44319275936E+02  0.00000000000E+00 0. -1.
</event>
<event>
 7    1  0.1935465E-015  0.9000773E+02  0.7816164E-02  0.1186339E+00
        -11   -1    0    0    0    0  0.00000000000E+00  0.00000000000E+00  0.45593999997E+02  0.45594000000E+02  0.51100000000E-03 0. -1.
         11   -1    0    0    0    0 -0.00000000000E+00 -0.00000000000E+00 -0.45593999997E+02  0.45594000000E+02  0.51100000000E-03 0.  1.
    9900012    2    1    2    0    0 -0.24891565907E+00  0.11477637605E+01  0.11715230307E+00  0.90007726592E+02  0.89999987783E+02 0.  0.
         12    1    1    2    0    0  0.24891565907E+00 -0.11477637605E+01 -0.11715230307E+00  0.11802734079E+01  0.00000000000E+00 0. -1.
         11    1    3    3    0    0 -0.24750650867E+02 -0.11171755246E+02  0.46664217624E+01  0.27553190849E+02  0.51100000000E-03 0. -1.
        -11    1    3    3    0    0  0.21459584244E+02 -0.16234173179E+02 -0.16263886660E+02  0.31441630751E+02  0.51100000000E-03 0.  1.
        -12    1    3    3    0    0  0.30421509636E+01  0.28553692185E+02  0.11714617201E+02  0.31012904992E+02  0.00000000000E+00 0.  1.
</event>
<event>
 7    1  0.1935465E-015  0.9000766E+02  0.7816164E-02  0.1186339E+00
        -11   -1    0    0    0    0  0.00000000000E+00  0.00000000000E+00  0.45593999997E+02  0.45594000000E+02  0.51100000000E-03 0. -1.
         11   -1    0    0    0    0 -0.00000000000E+00 -0.00000000000E+00 -0.45593999997E+02  0.45594000000E+02  0.51100000000E-03 0.  1.
    9900012    2    1    2    0    0 -0.43502818891E+00  0.26631141509E+00 -0.10644350345E+01  0.90007663930E+02  0.89999924294E+02 0.  0.
         12    1    1    2    0    0  0.43502818891E+00 -0.26631141509E+00  0.10644350345E+01  0.11803360698E+01  0.00000000000E+00 0. -1.
         11    1    3    3    0    0  0.28920479737E+01 -0.72966798100E+01 -0.45367816455E+01  0.90657523511E+01  0.51100000000E-03 0. -1.
        -11    1    3    3    0    0 -0.17077003705E+02 -0.33364709131E+02  0.45266263621E+01  0.37753386834E+02  0.51100000000E-03 0.  1.
         12    1    3    3    0    0  0.13749927542E+02  0.40927700356E+02 -0.10542797512E+01  0.43188524745E+02  0.00000000000E+00 0. -1.
</event>
<event>
 7    1  0.1935465E-015  0.9000769E+02  0.7816164E-02  0.1186339E+00
        -11   -1    0    0    0    0  0.00000000000E+00  0.00000000000E+00  0.45593999997E+02  0.45594000000E+02  0.51100000000E-03 0. -1.
         11   -1    0    0    0    0 -0.00000000000E+00 -0.00000000000E+00 -0.45593999997E+02  0.45594000000E+02  0.51100000000E-03 0.  1.
    9900012    2    1    2    0    0 -0.56090967512E+00 -0.96902121987E+00  0.37349704540E+00  0.90007694179E+02  0.89999954942E+02 0.  0.
         12    1    1    2    0    0  0.56090967512E+00  0.96902121987E+00 -0.37349704540E+00  0.11803058210E+01  0.00000000000E+00 0. -1.
         11    1    3    3    0    0  0.21537786030E+02 -0.11648189008E+02  0.28549003398E+02  0.37611196864E+02  0.51100000000E-03 0. -1.
        -11    1    3    3    0    0  0.55147855871E+01  0.55214236009E+01  0.47346418668E+01  0.91277495869E+01  0.51100000000E-03 0.  1.
        -12    1    3    3    0    0 -0.27613481292E+02  0.51577441873E+01 -0.32910148220E+02  0.43268747728E+02  0.00000000000E+00 0.  1.
</event>
<event>
 7    1  0.1935465E-015  0.9000813E+02  0.7816164E-02  0.1186338E+00
        -11   -1    0    0    0    0  0.00000000000E+00  0.00000000000E+00  0.45593999997E+02  0.45594000000E+02  0.51100000000E-03 0.  1.
         11   -1    0    0    0    0 -0.00000000000E+00 -0.00000000000E+00 -0.45593999997E+02  0.45594000000E+02  0.51100000000E-03 0. -1.
    9900012    2    1    2    0    0  0.18562254386E+00 -0.64801801053E+00  0.96835522487E+00  0.90008129282E+02  0.90000395787E+02 0.  0.
         12    1    1    2    0    0 -0.18562254386E+00  0.64801801053E+00 -0.96835522487E+00  0.11798707185E+01  0.00000000000E+00 0. -1.
         11    1    3    3    0    0 -0.17735928817E+01 -0.15187144470E+01  0.62292706523E+01  0.66525136905E+01  0.51100000000E-03 0. -1.
        -11    1    3    3    0    0  0.35123630077E+02 -0.86484183333E+01  0.19303535032E+02  0.41001109673E+02  0.51100000000E-03 0.  1.
         12    1    3    3    0    0 -0.33164414651E+02  0.95191147698E+01 -0.24564450459E+02  0.42354505918E+02  0.00000000000E+00 0. -1.
</event>
<event>
 7    1  0.1935465E-015  0.9000765E+02  0.7816164E-02  0.1186339E+00
        -11   -1    0    0    0    0  0.00000000000E+00  0.00000000000E+00  0.45593999997E+02  0.45594000000E+02  0.51100000000E-03 0. -1.
         11   -1    0    0    0    0 -0.00000000000E+00 -0.00000000000E+00 -0.45593999997E+02  0.45594000000E+02  0.51100000000E-03 0.  1.
    9900012    2    1    2    0    0 -0.10896886637E+01  0.25396711649E+00 -0.37591126277E+00  0.90007648375E+02  0.89999908534E+02 0.  0.
         12    1    1    2    0    0  0.10896886637E+01 -0.25396711649E+00  0.37591126277E+00  0.11803516246E+01  0.00000000000E+00 0. -1.
         11    1    3    3    0    0 -0.69520560273E-01  0.60950815965E+01  0.87996383817E+01  0.10704601286E+02  0.51100000000E-03 0. -1.
        -11    1    3    3    0    0 -0.39194750320E+02 -0.95090053143E+01 -0.28265764116E+01  0.40430671144E+02  0.51100000000E-03 0.  1.
         12    1    3    3    0    0  0.38174582216E+02  0.36678908342E+01 -0.63489732329E+01  0.38872375946E+02  0.00000000000E+00 0. -1.
</event>
<event>
 7    1  0.1935465E-015  0.9000775E+02  0.7816164E-02  0.1186339E+00
        -11   -1    0    0    0    0  0.00000000000E+00  0.00000000000E+00  0.45593999997E+02  0.45594000000E+02  0.51100000000E-03 0.  1.
         11   -1    0    0    0    0 -0.00000000000E+00 -0.00000000000E+00 -0.45593999997E+02  0.45594000000E+02  0.51100000000E-03 0. -1.
    9900012    2    1    2    0    0 -0.37425740601E+00  0.83088342668E+00 -0.75003856605E+00  0.90007748448E+02  0.90000009928E+02 0.  0.
         12    1    1    2    0    0  0.37425740601E+00 -0.83088342668E+00  0.75003856605E+00  0.11802515517E+01  0.00000000000E+00 0. -1.
         11    1    3    3    0    0  0.54827471289E+01  0.51476396496E+01 -0.36444457850E+01  0.83570745708E+01  0.51100000000E-03 0. -1.
        -11    1    3    3    0    0 -0.31490736957E+02  0.22729100585E+02  0.16204208132E+02  0.42081526695E+02  0.51100000000E-03 0.  1.
         12    1    3    3    0    0  0.25633732422E+02 -0.27045856808E+02 -0.13309800913E+02  0.39569147182E+02  0.00000000000E+00 0. -1.
</event>
<event>
 7    1  0.1935465E-015  0.9000779E+02  0.7816164E-02  0.1186339E+00
        -11   -1    0    0    0    0  0.00000000000E+00  0.00000000000E+00  0.45593999997E+02  0.45594000000E+02  0.51100000000E-03 0.  1.
         11   -1    0    0    0    0 -0.00000000000E+00 -0.00000000000E+00 -0.45593999997E+02  0.45594000000E+02  0.51100000000E-03 0. -1.
    9900012    2    1    2    0    0  0.30320812500E+00 -0.15732729719E+00  0.11296937347E+01  0.90007790282E+02  0.90000052313E+02 0.  0.
         12    1    1    2    0    0 -0.30320812500E+00  0.15732729719E+00 -0.11296937347E+01  0.11802097185E+01  0.00000000000E+00 0. -1.
         11    1    3    3    0    0  0.33504863730E+02 -0.26548316516E+01 -0.19638273072E+01  0.33667204259E+02  0.51100000000E-03 0. -1.
        -11    1    3    3    0    0  0.10994700220E+02  0.18696074679E+01  0.47191602369E+01  0.12109885987E+02  0.51100000000E-03 0.  1.
        -12    1    3    3    0    0 -0.44196355826E+02  0.62789688650E+00 -0.16256391950E+01  0.44230700035E+02  0.00000000000E+00 0.  1.
</event>
<event>
 7    1  0.1935465E-015  0.9000775E+02  0.7816164E-02  0.1186339E+00
        -11   -1    0    0    0    0  0.00000000000E+00  0.00000000000E+00  0.45593999997E+02  0.45594000000E+02  0.51100000000E-03 0.  1.
         11   -1    0    0    0    0 -0.00000000000E+00 -0.00000000000E+00 -0.45593999997E+02  0.45594000000E+02  0.51100000000E-03 0. -1.
    9900012    2    1    2    0    0 -0.13251744094E+00 -0.25820668457E+00  0.11440116381E+01  0.90007748251E+02  0.90000009727E+02 0.  0.
         12    1    1    2    0    0  0.13251744094E+00  0.25820668457E+00 -0.11440116381E+01  0.11802517495E+01  0.00000000000E+00 0. -1.
         11    1    3    3    0    0  0.62695098169E+01 -0.18247366112E+01 -0.55833069959E+01  0.85912591810E+01  0.51100000000E-03 0. -1.
        -11    1    3    3    0    0 -0.42210700767E+02 -0.10226315463E+02  0.31189353817E+01  0.43543639552E+02  0.51100000000E-03 0.  1.
         12    1    3    3    0    0  0.35808673510E+02  0.11792845390E+02  0.36083832522E+01  0.37872849518E+02  0.00000000000E+00 0. -1.
</event>
<event>
 7    1  0.1935465E-015  0.9000775E+02  0.7816164E-02  0.1186339E+00
        -11   -1    0    0    0    0  0.00000000000E+00  0.00000000000E+00  0.45593999997E+02  0.45594000000E+02  0.51100000000E-03 0. -1.
         11   -1    0    0    0    0 -0.00000000000E+00 -0.00000000000E+00 -0.45593999997E+02  0.45594000000E+02  0.51100000000E-03 0.  1.
    9900012    2    1    2    0    0  0.19716124612E+00 -0.53092366993E+00 -0.10354944088E+01  0.90007745294E+02  0.90000006732E+02 0.  0.
         12    1    1    2    0    0 -0.19716124612E+00  0.53092366993E+00  0.10354944088E+01  0.11802547059E+01  0.00000000000E+00 0. -1.
         11    1    3    3    0    0 -0.15724780289E+02 -0.84098399022E+01  0.33092744726E+02  0.37591539953E+02  0.51100000000E-03 0. -1.
        -11    1    3    3    0    0  0.45767084643E+01 -0.56598526370E+01  0.54381745101E+01  0.90859195739E+01  0.51100000000E-03 0.  1.
        -12    1    3    3    0    0  0.11345233071E+02  0.13538768869E+02 -0.39566413645E+02  0.43330285767E+02  0.00000000000E+00 0.  1.
</event>
<event>
 8    1  0.1935465E-015  0.9000775E+02  0.7816164E-02  0.1186339E+00
        -11   -1    0    0    0    0  0.00000000000E+00  0.00000000000E+00  0.45593999997E+02  0.45594000000E+02  0.51100000000E-03 0.  1.
         11   -1    0    0    0    0 -0.00000000000E+00 -0.00000000000E+00 -0.45593999997E+02  0.45594000000E+02  0.51100000000E-03 0. -1.
    9900012    2    1    2    0    0 -0.17414885179E+00  0.31254282151E+00  0.11247081929E+01  0.90007754535E+02  0.90000016095E+02 0.  0.
         23    2    3    3    0    0  0.21124294907E+02  0.15930835007E+02  0.12048178345E+02  0.61426695116E+02  0.54111486138E+02 0.  0.
         12    1    1    2    0    0  0.17414885179E+00 -0.31254282151E+00 -0.11247081929E+01  0.11802454647E+01  0.00000000000E+00 0. -1.
         11    1    4    4    0    0  0.65975250759E+01 -0.20170679754E+02  0.59203827268E+01  0.22032580211E+02  0.51100000000E-03 0. -1.
        -11    1    4    4    0    0  0.14526769831E+02  0.36101514761E+02  0.61277956178E+01  0.39394114905E+02  0.51100000000E-03 0.  1.
         12    1    3    3    0    0 -0.21298443759E+02 -0.15618292186E+02 -0.10923470152E+02  0.28581059419E+02  0.00000000000E+00 0. -1.
</event>
<event>
 7    1  0.1935465E-015  0.9000770E+02  0.7816164E-02  0.1186339E+00
        -11   -1    0    0    0    0  0.00000000000E+00  0.00000000000E+00  0.45593999997E+02  0.45594000000E+02  0.51100000000E-03 0.  1.
         11   -1    0    0    0    0 -0.00000000000E+00 -0.00000000000E+00 -0.45593999997E+02  0.45594000000E+02  0.51100000000E-03 0. -1.
    9900012    2    1    2    0    0 -0.10692298601E+00 -0.11621916646E+01 -0.17602259603E+00  0.90007700909E+02  0.89999961761E+02 0.  0.
         12    1    1    2    0    0  0.10692298601E+00  0.11621916646E+01  0.17602259603E+00  0.11802990911E+01  0.00000000000E+00 0. -1.
         11    1    3    3    0    0  0.40055254959E+01  0.73468802049E+01 -0.63924210336E+01  0.10530143882E+02  0.51100000000E-03 0. -1.
        -11    1    3    3    0    0  0.23148115285E+02 -0.22567733519E+02  0.27254131075E+02  0.42283868063E+02  0.51100000000E-03 0.  1.
         12    1    3    3    0    0 -0.27260563767E+02  0.14058661649E+02 -0.21037732638E+02  0.37193688964E+02  0.00000000000E+00 0. -1.
</event>
<event>
 7    1  0.2173918E-015  0.9000726E+02  0.7816164E-02  0.1186340E+00
        -11   -1    0    0    0    0  0.00000000000E+00  0.00000000000E+00  0.45593999997E+02  0.45594000000E+02  0.51100000000E-03 0. -1.
         11   -1    0    0    0    0 -0.00000000000E+00 -0.00000000000E+00 -0.45593999997E+02  0.45594000000E+02  0.51100000000E-03 0.  1.
    9900012    2    1    2    0    0  0.79577648897E+00 -0.23719746939E+00 -0.83941516077E+00  0.90007262657E+02  0.89999517723E+02 0.  0.
         12    1    1    2    0    0 -0.79577648897E+00  0.23719746939E+00  0.83941516077E+00  0.11807373425E+01  0.00000000000E+00 0. -1.
         11    1    3    3    0    0 -0.15652513589E+01 -0.40015179419E+01 -0.82451532356E+01  0.92975647239E+01  0.51100000000E-03 0. -1.
        -11    1    3    3    0    0 -0.20913297848E+02 -0.19310779269E+02 -0.22544732207E+02  0.36311667180E+02  0.51100000000E-03 0.  1.
         12    1    3    3    0    0  0.23274325696E+02  0.23075099742E+02  0.29950470282E+02  0.44398030753E+02  0.00000000000E+00 0. -1.
</event>
<event>
 7    1  0.2414077E-015  0.9000776E+02  0.7816164E-02  0.1186339E+00
        -11   -1    0    0    0    0  0.00000000000E+00  0.00000000000E+00  0.45593999997E+02  0.45594000000E+02  0.51100000000E-03 0. -1.
         11   -1    0    0    0    0 -0.00000000000E+00 -0.00000000000E+00 -0.45593999997E+02  0.45594000000E+02  0.51100000000E-03 0.  1.
    9900012    2    1    2    0    0  0.70832876514E+00 -0.24843557716E+00 -0.91078351220E+00  0.90007755753E+02  0.90000017329E+02 0.  0.
         12    1    1    2    0    0 -0.70832876514E+00  0.24843557716E+00  0.91078351220E+00  0.11802442466E+01  0.00000000000E+00 0. -1.
         11    1    3    3    0    0 -0.79748315522E+01  0.24098368499E+01 -0.56161436648E+01  0.10047204679E+02  0.51100000000E-03 0. -1.
        -11    1    3    3    0    0 -0.84797007461E+00  0.90876316791E+00 -0.37005393785E+02  0.37026261939E+02  0.51100000000E-03 0.  1.
         12    1    3    3    0    0  0.95311303920E+01 -0.35670355949E+01  0.41710753938E+02  0.42934289135E+02  0.00000000000E+00 0. -1.
</event>
<event>
 7    1  0.1935465E-015  0.9000748E+02  0.7816164E-02  0.1186340E+00
        -11   -1    0    0    0    0  0.00000000000E+00  0.00000000000E+00  0.45593999997E+02  0.45594000000E+02  0.51100000000E-03 0.  1.
         11   -1    0    0    0    0 -0.00000000000E+00 -0.00000000000E+00 -0.45593999997E+02  0.45594000000E+02  0.51100000000E-03 0. -1.
    9900012    2    1    2    0    0 -0.10258528723E+01  0.55290633504E+00 -0.18851736199E+00  0.90007483873E+02  0.89999741860E+02 0.  0.
         12    1    1    2    0    0  0.10258528723E+01 -0.55290633504E+00  0.18851736199E+00  0.11805161272E+01  0.00000000000E+00 0. -1.
         11    1    3    3    0    0  0.17310027388E+02  0.34239304808E+02  0.10724506431E+00  0.38366372563E+02  0.51100000000E-03 0. -1.
        -11    1    3    3    0    0 -0.88444702702E+00  0.59058595024E+01  0.53359734757E+01  0.80083728809E+01  0.51100000000E-03 0.  1.
        -12    1    3    3    0    0 -0.17451433233E+02 -0.39592257975E+02 -0.56317359020E+01  0.43632738428E+02  0.00000000000E+00 0.  1.
</event>
<event>
 7    1  0.1935465E-015  0.9000776E+02  0.7816164E-02  0.1186339E+00
        -11   -1    0    0    0    0  0.00000000000E+00  0.00000000000E+00  0.45593999997E+02  0.45594000000E+02  0.51100000000E-03 0.  1.
         11   -1    0    0    0    0 -0.00000000000E+00 -0.00000000000E+00 -0.45593999997E+02  0.45594000000E+02  0.51100000000E-03 0. -1.
    9900012    2    1    2    0    0  0.91152993977E+00 -0.71552006270E-01  0.74629746664E+00  0.90007760012E+02  0.90000021644E+02 0.  0.
         12    1    1    2    0    0 -0.91152993977E+00  0.71552006270E-01 -0.74629746664E+00  0.11802399881E+01  0.00000000000E+00 0. -1.
         11    1    3    3    0    0 -0.76112171937E+01  0.14840844122E+01 -0.72467046727E+01  0.10613569738E+02  0.51100000000E-03 0. -1.
        -11    1    3    3    0    0  0.20881196037E+02 -0.18773575121E+02 -0.26694960077E+02  0.38743933261E+02  0.51100000000E-03 0.  1.
         12    1    3    3    0    0 -0.12358448904E+02  0.17217938702E+02  0.34687962217E+02  0.40650257013E+02  0.00000000000E+00 0. -1.
</event>
<event>
 7    1  0.1935465E-015  0.9000776E+02  0.7816164E-02  0.1186339E+00
        -11   -1    0    0    0    0  0.00000000000E+00  0.00000000000E+00  0.45593999997E+02  0.45594000000E+02  0.51100000000E-03 0.  1.
         11   -1    0    0    0    0 -0.00000000000E+00 -0.00000000000E+00 -0.45593999997E+02  0.45594000000E+02  0.51100000000E-03 0. -1.
    9900012    2    1    2    0    0 -0.35258277715E-01  0.55310785931E-01  0.11784129748E+01  0.90007762919E+02  0.90000024589E+02 0.  0.
         12    1    1    2    0    0  0.35258277715E-01 -0.55310785931E-01 -0.11784129748E+01  0.11802370814E+01  0.00000000000E+00 0. -1.
         11    1    3    3    0    0  0.21046894372E+02  0.26870793290E+02  0.14441680521E+02  0.37061751595E+02  0.51100000000E-03 0. -1.
        -11    1    3    3    0    0  0.82242122935E+01 -0.35170571513E+01  0.60700411410E+01  0.10809845446E+02  0.51100000000E-03 0.  1.
        -12    1    3    3    0    0 -0.29306364943E+02 -0.23298425353E+02 -0.19333308688E+02  0.42136165878E+02  0.00000000000E+00 0.  1.
</event>
<event>
 7    1  0.1935465E-015  0.9000877E+02  0.7816164E-02  0.1186337E+00
        -11   -1    0    0    0    0  0.00000000000E+00  0.00000000000E+00  0.45593999997E+02  0.45594000000E+02  0.51100000000E-03 0.  1.
         11   -1    0    0    0    0 -0.00000000000E+00 -0.00000000000E+00 -0.45593999997E+02  0.45594000000E+02  0.51100000000E-03 0. -1.
    9900012    2    1    2    0    0 -0.25501846713E+00  0.10872010968E+01  0.37886128758E+00  0.90008772915E+02  0.90001047911E+02 0.  0.
         12    1    1    2    0    0  0.25501846713E+00 -0.10872010968E+01 -0.37886128758E+00  0.11792270853E+01  0.00000000000E+00 0. -1.
         11    1    3    3    0    0  0.32064881107E+02 -0.27320908849E+02  0.24231618899E+01  0.42195501829E+02  0.51100000000E-03 0. -1.
        -11    1    3    3    0    0 -0.32318850009E+01  0.40471407850E+01 -0.78757187339E+01  0.94261007330E+01  0.51100000000E-03 0.  1.
        -12    1    3    3    0    0 -0.29088014573E+02  0.24360969161E+02  0.58314181316E+01  0.38387170353E+02  0.00000000000E+00 0.  1.
</event>
<event>
 7    1  0.1935465E-015  0.9000777E+02  0.7816164E-02  0.1186339E+00
        -11   -1    0    0    0    0  0.00000000000E+00  0.00000000000E+00  0.45593999997E+02  0.45594000000E+02  0.51100000000E-03 0. -1.
         11   -1    0    0    0    0 -0.00000000000E+00 -0.00000000000E+00 -0.45593999997E+02  0.45594000000E+02  0.51100000000E-03 0.  1.
    9900012    2    1    2    0    0 -0.10773327966E+01 -0.42640658203E+00  0.22468019387E+00  0.90007767092E+02  0.90000028818E+02 0.  0.
         12    1    1    2    0    0  0.10773327966E+01  0.42640658203E+00 -0.22468019387E+00  0.11802329081E+01  0.00000000000E+00 0. -1.
         11    1    3    3    0    0 -0.76799027291E+01 -0.46834760831E+01 -0.96465981747E+01  0.13189871522E+02  0.51100000000E-03 0. -1.
        -11    1    3    3    0    0  0.16462920604E+02 -0.87416582932E+01 -0.29106344269E+02  0.34563327697E+02  0.51100000000E-03 0.  1.
         12    1    3    3    0    0 -0.98603506715E+01  0.12998727794E+02  0.38977622638E+02  0.42254567873E+02  0.00000000000E+00 0. -1.
</event>
<event>
 7    1  0.1935465E-015  0.9000772E+02  0.7816164E-02  0.1186339E+00
        -11   -1    0    0    0    0  0.00000000000E+00  0.00000000000E+00  0.45593999997E+02  0.45594000000E+02  0.51100000000E-03 0.  1.
         11   -1    0    0    0    0 -0.00000000000E+00 -0.00000000000E+00 -0.45593999997E+02  0.45594000000E+02  0.51100000000E-03 0. -1.
    9900012    2    1    2    0    0 -0.88679131888E+00  0.66093640216E+00  0.41209169947E+00  0.90007722346E+02  0.89999983481E+02 0.  0.
         12    1    1    2    0    0  0.88679131888E+00 -0.66093640216E+00 -0.41209169947E+00  0.11802776537E+01  0.00000000000E+00 0. -1.
         11    1    3    3    0    0 -0.52673664160E+01  0.34826515936E+01 -0.75198635280E+01  0.98194887252E+01  0.51100000000E-03 0. -1.
        -11    1    3    3    0    0  0.99497231220E+01  0.37483908469E+02  0.26069272859E+00  0.38782835704E+02  0.51100000000E-03 0.  1.
         12    1    3    3    0    0 -0.55691480249E+01 -0.40305623660E+02  0.76712624989E+01  0.41405397917E+02  0.00000000000E+00 0. -1.
</event>
<event>
 7    1  0.1935465E-015  0.9000780E+02  0.7816164E-02  0.1186339E+00
        -11   -1    0    0    0    0  0.00000000000E+00  0.00000000000E+00  0.45593999997E+02  0.45594000000E+02  0.51100000000E-03 0.  1.
         11   -1    0    0    0    0 -0.00000000000E+00 -0.00000000000E+00 -0.45593999997E+02  0.45594000000E+02  0.51100000000E-03 0. -1.
    9900012    2    1    2    0    0  0.73757207835E+00  0.47888243144E+00  0.78709845217E+00  0.90007803013E+02  0.90000065213E+02 0.  0.
         12    1    1    2    0    0 -0.73757207835E+00 -0.47888243144E+00 -0.78709845217E+00  0.11801969867E+01  0.00000000000E+00 0. -1.
         11    1    3    3    0    0 -0.71157112663E+01 -0.22050010640E+00  0.54636726009E+01  0.89740562553E+01  0.51100000000E-03 0. -1.
        -11    1    3    3    0    0  0.17885213642E+02  0.41728701949E+01  0.35235144280E+02  0.39734230902E+02  0.51100000000E-03 0.  1.
         12    1    3    3    0    0 -0.10031930298E+02 -0.34734876570E+01 -0.39911718429E+02  0.41299515856E+02  0.00000000000E+00 0. -1.
</event>
<event>
 7    1  0.1935465E-015  0.9000777E+02  0.7816164E-02  0.1186339E+00
        -11   -1    0    0    0    0  0.00000000000E+00  0.00000000000E+00  0.45593999997E+02  0.45594000000E+02  0.51100000000E-03 0.  1.
         11   -1    0    0    0    0 -0.00000000000E+00 -0.00000000000E+00 -0.45593999997E+02  0.45594000000E+02  0.51100000000E-03 0. -1.
    9900012    2    1    2    0    0  0.84444636680E+00  0.38605572474E+00 -0.72857790521E+00  0.90007765086E+02  0.90000026785E+02 0.  0.
         12    1    1    2    0    0 -0.84444636680E+00 -0.38605572474E+00  0.72857790521E+00  0.11802349143E+01  0.00000000000E+00 0. -1.
         11    1    3    3    0    0 -0.20533576478E+02  0.29727082676E+00 -0.30316864489E+02  0.36617323846E+02  0.51100000000E-03 0. -1.
        -11    1    3    3    0    0  0.86841992163E+01  0.97844459903E+01 -0.59918611402E+01  0.14389339789E+02  0.51100000000E-03 0.  1.
        -12    1    3    3    0    0  0.12693823628E+02 -0.96956610923E+01  0.35580147724E+02  0.39001101451E+02  0.00000000000E+00 0.  1.
</event>
<event>
 7    1  0.1935465E-015  0.9000721E+02  0.7816164E-02  0.1186340E+00
        -11   -1    0    0    0    0  0.00000000000E+00  0.00000000000E+00  0.45593999997E+02  0.45594000000E+02  0.51100000000E-03 0. -1.
         11   -1    0    0    0    0 -0.00000000000E+00 -0.00000000000E+00 -0.45593999997E+02  0.45594000000E+02  0.51100000000E-03 0.  1.
    9900012    2    1    2    0    0 -0.86106556411E+00  0.79045741862E+00  0.16737027585E+00  0.90007208043E+02  0.89999462388E+02 0.  0.
         12    1    1    2    0    0  0.86106556411E+00 -0.79045741862E+00 -0.16737027585E+00  0.11807919569E+01  0.00000000000E+00 0. -1.
         11    1    3    3    0    0 -0.71734516755E+00 -0.87848964355E+01  0.30942892983E+01  0.93414996652E+01  0.51100000000E-03 0. -1.
        -11    1    3    3    0    0 -0.28898133654E+02  0.25757177395E+02  0.16826404069E+02  0.42209740466E+02  0.51100000000E-03 0.  1.
         12    1    3    3    0    0  0.28754413258E+02 -0.16181823540E+02 -0.19753323092E+02  0.38455967912E+02  0.00000000000E+00 0. -1.
</event>
<event>
 7    1  0.1935465E-015  0.9000778E+02  0.7816164E-02  0.1186339E+00
        -11   -1    0    0    0    0  0.00000000000E+00  0.00000000000E+00  0.45593999997E+02  0.45594000000E+02  0.51100000000E-03 0. -1.
         11   -1    0    0    0    0 -0.00000000000E+00 -0.00000000000E+00 -0.45593999997E+02  0.45594000000E+02  0.51100000000E-03 0.  1.
    9900012    2    1    2    0    0 -0.97387477664E-01 -0.25357381109E+00 -0.11485342632E+01  0.90007781820E+02  0.90000043740E+02 0.  0.
         12    1    1    2    0    0  0.97387477664E-01  0.25357381109E+00  0.11485342632E+01  0.11802181800E+01  0.00000000000E+00 0. -1.
         11    1    3    3    0    0  0.18083602342E+02 -0.34213118976E+02 -0.69765255018E+01  0.39322081482E+02  0.51100000000E-03 0. -1.
        -11    1    3    3    0    0 -0.48737990428E+01 -0.45025553793E+01  0.74218381224E+01  0.99554308510E+01  0.51100000000E-03 0.  1.
        -12    1    3    3    0    0 -0.13307190776E+02  0.38462100544E+02 -0.15938468838E+01  0.40730269487E+02  0.00000000000E+00 0.  1.
</event>
<event>
 7    1  0.1935465E-015  0.9000779E+02  0.7816164E-02  0.1186339E+00
        -11   -1    0    0    0    0  0.00000000000E+00  0.00000000000E+00  0.45593999997E+02  0.45594000000E+02  0.51100000000E-03 0.  1.
         11   -1    0    0    0    0 -0.00000000000E+00 -0.00000000000E+00 -0.45593999997E+02  0.45594000000E+02  0.51100000000E-03 0. -1.
    9900012    2    1    2    0    0 -0.10880594573E+01  0.14474994015E+00  0.43366878266E+00  0.90007790467E+02  0.90000052502E+02 0.  0.
         12    1    1    2    0    0  0.10880594573E+01 -0.14474994015E+00 -0.43366878266E+00  0.11802095326E+01  0.00000000000E+00 0. -1.
         11    1    3    3    0    0 -0.29076494936E+01  0.85382622842E+01  0.49562190701E+01  0.10291766425E+02  0.51100000000E-03 0. -1.
        -11    1    3    3    0    0 -0.15122492306E+02 -0.40107909376E+02  0.30453385150E+01  0.42972180012E+02  0.51100000000E-03 0.  1.
         12    1    3    3    0    0  0.16942082342E+02  0.31714397032E+02 -0.75678888024E+01  0.36743844030E+02  0.00000000000E+00 0. -1.
</event>
<event>
 7    1  0.1935465E-015  0.9000777E+02  0.7816164E-02  0.1186339E+00
        -11   -1    0    0    0    0  0.00000000000E+00  0.00000000000E+00  0.45593999997E+02  0.45594000000E+02  0.51100000000E-03 0.  1.
         11   -1    0    0    0    0 -0.00000000000E+00 -0.00000000000E+00 -0.45593999997E+02  0.45594000000E+02  0.51100000000E-03 0. -1.
    9900012    2    1    2    0    0 -0.10293271328E+01  0.47959930748E+00  0.32157192424E+00  0.90007771910E+02  0.90000033699E+02 0.  0.
         12    1    1    2    0    0  0.10293271328E+01 -0.47959930748E+00 -0.32157192424E+00  0.11802280901E+01  0.00000000000E+00 0. -1.
         11    1    3    3    0    0  0.19436699712E+02 -0.24639496983E+02 -0.17835558455E+02  0.36097053245E+02  0.51100000000E-03 0. -1.
        -11    1    3    3    0    0 -0.11188661894E+01 -0.10092525924E+02  0.65775111929E+01  0.12098536888E+02  0.51100000000E-03 0.  1.
        -12    1    3    3    0    0 -0.19347160656E+02  0.35211622215E+02  0.11579619187E+02  0.41812181777E+02  0.00000000000E+00 0.  1.
</event>
<event>
 7    1  0.1935465E-015  0.9000790E+02  0.7816164E-02  0.1186339E+00
        -11   -1    0    0    0    0  0.00000000000E+00  0.00000000000E+00  0.45593999997E+02  0.45594000000E+02  0.51100000000E-03 0. -1.
         11   -1    0    0    0    0 -0.00000000000E+00 -0.00000000000E+00 -0.45593999997E+02  0.45594000000E+02  0.51100000000E-03 0.  1.
    9900012    2    1    2    0    0  0.25481166183E+00  0.39652485022E+00 -0.10818825434E+01  0.90007902217E+02  0.90000165726E+02 0.  0.
         12    1    1    2    0    0 -0.25481166183E+00 -0.39652485022E+00  0.10818825434E+01  0.11800977831E+01  0.00000000000E+00 0. -1.
         11    1    3    3    0    0 -0.61203608769E+01 -0.32378126590E+02  0.24414703016E+02  0.41010725699E+02  0.51100000000E-03 0. -1.
        -11    1    3    3    0    0  0.10326672203E+02  0.54333290651E+01 -0.40222289867E+00  0.11675744389E+02  0.51100000000E-03 0.  1.
        -12    1    3    3    0    0 -0.39514996643E+01  0.27341322375E+02 -0.25094362660E+02  0.37321432129E+02  0.00000000000E+00 0.  1.
</event>
<event>
 7    1  0.1935465E-015  0.9000776E+02  0.7816164E-02  0.1186339E+00
        -11   -1    0    0    0    0  0.00000000000E+00  0.00000000000E+00  0.45593999997E+02  0.45594000000E+02  0.51100000000E-03 0. -1.
         11   -1    0    0    0    0 -0.00000000000E+00 -0.00000000000E+00 -0.45593999997E+02  0.45594000000E+02  0.51100000000E-03 0.  1.
    9900012    2    1    2    0    0 -0.35240981518E+00 -0.11191339587E+01  0.12775935425E+00  0.90007755979E+02  0.90000017558E+02 0.  0.
         12    1    1    2    0    0  0.35240981518E+00  0.11191339587E+01 -0.12775935425E+00  0.11802440205E+01  0.00000000000E+00 0. -1.
         11    1    3    3    0    0  0.62185535884E+01 -0.43498005940E+01  0.72640773376E+01  0.10505141302E+02  0.51100000000E-03 0. -1.
        -11    1    3    3    0    0  0.15751422621E+02  0.35627077254E+02 -0.94794747461E+01  0.40090602265E+02  0.51100000000E-03 0.  1.
         12    1    3    3    0    0 -0.22322386024E+02 -0.32396410619E+02  0.23431567628E+01  0.39412012413E+02  0.00000000000E+00 0. -1.
</event>
<event>
 7    1  0.1935465E-015  0.9000778E+02  0.7816164E-02  0.1186339E+00
        -11   -1    0    0    0    0  0.00000000000E+00  0.00000000000E+00  0.45593999997E+02  0.45594000000E+02  0.51100000000E-03 0.  1.
         11   -1    0    0    0    0 -0.00000000000E+00 -0.00000000000E+00 -0.45593999997E+02  0.45594000000E+02  0.51100000000E-03 0. -1.
    9900012    2    1    2    0    0  0.65723704841E+00 -0.26798972943E+00  0.94294693015E+00  0.90007776315E+02  0.90000038163E+02 0.  0.
         12    1    1    2    0    0 -0.65723704841E+00  0.26798972943E+00 -0.94294693015E+00  0.11802236847E+01  0.00000000000E+00 0. -1.
         11    1    3    3    0    0  0.46527674874E+01  0.18923295219E+02 -0.28187592376E+02  0.34267764903E+02  0.51100000000E-03 0. -1.
        -11    1    3    3    0    0 -0.97649635666E+00 -0.48450227561E+01 -0.11515243624E+02  0.12531106361E+02  0.51100000000E-03 0.  1.
        -12    1    3    3    0    0 -0.30190340824E+01 -0.14346262192E+02  0.40645782931E+02  0.43208905051E+02  0.00000000000E+00 0.  1.
</event>
<event>
 7    1  0.1935465E-015  0.9000779E+02  0.7816164E-02  0.1186339E+00
        -11   -1    0    0    0    0  0.00000000000E+00  0.00000000000E+00  0.45593999997E+02  0.45594000000E+02  0.51100000000E-03 0. -1.
         11   -1    0    0    0    0 -0.00000000000E+00 -0.00000000000E+00 -0.45593999997E+02  0.45594000000E+02  0.51100000000E-03 0.  1.
    9900012    2    1    2    0    0 -0.98015289337E+00  0.65204378589E+00 -0.83830568677E-01  0.90007793087E+02  0.90000055156E+02 0.  0.
         12    1    1    2    0    0  0.98015289337E+00 -0.65204378589E+00  0.83830568677E-01  0.11802069129E+01  0.00000000000E+00 0. -1.
         11    1    3    3    0    0  0.28824289585E+01  0.29950356173E+02  0.24052054883E+02  0.38520560432E+02  0.51100000000E-03 0. -1.
        -11    1    3    3    0    0 -0.11515694121E+01  0.79940240914E+01 -0.47495324292E+01  0.93695566513E+01  0.51100000000E-03 0.  1.
        -12    1    3    3    0    0 -0.27110124398E+01 -0.37292336479E+02 -0.19386353022E+02  0.42117676004E+02  0.00000000000E+00 0.  1.
</event>
<event>
 7    1  0.1935465E-015  0.9000774E+02  0.7816164E-02  0.1186339E+00
        -11   -1    0    0    0    0  0.00000000000E+00  0.00000000000E+00  0.45593999997E+02  0.45594000000E+02  0.51100000000E-03 0. -1.
         11   -1    0    0    0    0 -0.00000000000E+00 -0.00000000000E+00 -0.45593999997E+02  0.45594000000E+02  0.51100000000E-03 0.  1.
    9900012    2    1    2    0    0 -0.11393171082E+00  0.62159716493E+00 -0.99682139220E+00  0.90007738860E+02  0.90000000213E+02 0.  0.
         12    1    1    2    0    0  0.11393171082E+00 -0.62159716493E+00  0.99682139220E+00  0.11802611398E+01  0.00000000000E+00 0. -1.
         11    1    3    3    0    0 -0.73141450191E+01 -0.55266862117E+00  0.10137548793E+02  0.12512875599E+02  0.51100000000E-03 0. -1.
        -11    1    3    3    0    0 -0.11957868378E+02 -0.78568573562E+01 -0.39547485926E+02  0.42056206046E+02  0.51100000000E-03 0.  1.
         12    1    3    3    0    0  0.19158081686E+02  0.90311231423E+01  0.28413115741E+02  0.35438657215E+02  0.00000000000E+00 0. -1.
</event>
<event>
 7    1  0.1935465E-015  0.9000773E+02  0.7816164E-02  0.1186339E+00
        -11   -1    0    0    0    0  0.00000000000E+00  0.00000000000E+00  0.45593999997E+02  0.45594000000E+02  0.51100000000E-03 0. -1.
         11   -1    0    0    0    0 -0.00000000000E+00 -0.00000000000E+00 -0.45593999997E+02  0.45594000000E+02  0.51100000000E-03 0.  1.
    9900012    2    1    2    0    0  0.74069532622E+00 -0.79002986098E+00 -0.46931261645E+00  0.90007732624E+02  0.89999993894E+02 0.  0.
         12    1    1    2    0    0 -0.74069532622E+00  0.79002986098E+00  0.46931261645E+00  0.11802673763E+01  0.00000000000E+00 0. -1.
         11    1    3    3    0    0 -0.35625412053E+01 -0.83134573440E+01  0.35431233818E+01  0.97138558981E+01  0.51100000000E-03 0. -1.
        -11    1    3    3    0    0 -0.17705917987E+02 -0.12143823475E+01  0.32351228082E+02  0.36899542204E+02  0.51100000000E-03 0.  1.
         12    1    3    3    0    0  0.22009154518E+02  0.87378098305E+01 -0.36363664080E+02  0.43394334521E+02  0.00000000000E+00 0. -1.
</event>
<event>
 7    1  0.1935465E-015  0.9000749E+02  0.7816164E-02  0.1186340E+00
        -11   -1    0    0    0    0  0.00000000000E+00  0.00000000000E+00  0.45593999997E+02  0.45594000000E+02  0.51100000000E-03 0.  1.
         11   -1    0    0    0    0 -0.00000000000E+00 -0.00000000000E+00 -0.45593999997E+02  0.45594000000E+02  0.51100000000E-03 0. -1.
    9900012    2    1    2    0    0  0.26560224659E-01 -0.78530132964E+00  0.88102608160E+00  0.90007487154E+02  0.89999745184E+02 0.  0.
         12    1    1    2    0    0 -0.26560224659E-01  0.78530132964E+00 -0.88102608160E+00  0.11805128463E+01  0.00000000000E+00 0. -1.
         11    1    3    3    0    0 -0.46162257564E-01 -0.12111830497E+02 -0.19581833071E+01  0.12269191133E+02  0.51100000000E-03 0. -1.
        -11    1    3    3    0    0  0.16597746551E+02 -0.26797960258E+02  0.14331237438E+02  0.34626582727E+02  0.51100000000E-03 0.  1.
         12    1    3    3    0    0 -0.16525024069E+02  0.38124489425E+02 -0.11492028049E+02  0.43111713294E+02  0.00000000000E+00 0. -1.
</event>
<event>
 7    1  0.1935465E-015  0.9000775E+02  0.7816164E-02  0.1186339E+00
        -11   -1    0    0    0    0  0.00000000000E+00  0.00000000000E+00  0.45593999997E+02  0.45594000000E+02  0.51100000000E-03 0.  1.
         11   -1    0    0    0    0 -0.00000000000E+00 -0.00000000000E+00 -0.45593999997E+02  0.45594000000E+02  0.51100000000E-03 0. -1.
    9900012    2    1    2    0    0 -0.89588904152E+00  0.34629262861E+00  0.68589945710E+00  0.90007748406E+02  0.90000009885E+02 0.  0.
         12    1    1    2    0    0  0.89588904152E+00 -0.34629262861E+00 -0.68589945710E+00  0.11802515938E+01  0.00000000000E+00 0. -1.
         11    1    3    3    0    0 -0.31331078365E+02  0.18840616774E+02  0.85143192450E+01  0.37537966706E+02  0.51100000000E-03 0. -1.
        -11    1    3    3    0    0 -0.37246489484E+01  0.71194146882E+01 -0.54472960529E+01  0.97073224856E+01  0.51100000000E-03 0.  1.
        -12    1    3    3    0    0  0.34159838272E+02 -0.25613738834E+02 -0.23811237350E+01  0.42762459214E+02  0.00000000000E+00 0.  1.
</event>
<event>
 7    1  0.1935465E-015  0.9000769E+02  0.7816164E-02  0.1186339E+00
        -11   -1    0    0    0    0  0.00000000000E+00  0.00000000000E+00  0.45593999997E+02  0.45594000000E+02  0.51100000000E-03 0. -1.
         11   -1    0    0    0    0 -0.00000000000E+00 -0.00000000000E+00 -0.45593999997E+02  0.45594000000E+02  0.51100000000E-03 0.  1.
    9900012    2    1    2    0    0  0.29322893948E-01 -0.28107539831E+00 -0.11459754075E+01  0.90007693749E+02  0.89999954506E+02 0.  0.
         12    1    1    2    0    0 -0.29322893948E-01  0.28107539831E+00  0.11459754075E+01  0.11803062511E+01  0.00000000000E+00 0. -1.
         11    1    3    3    0    0 -0.26861555615E+01 -0.19968452436E+02  0.31381637200E+02  0.37292917263E+02  0.51100000000E-03 0. -1.
        -11    1    3    3    0    0 -0.11710942855E+02 -0.17852999946E+01 -0.93612086710E+00  0.11883173026E+02  0.51100000000E-03 0.  1.
        -12    1    3    3    0    0  0.14426421310E+02  0.21472677032E+02 -0.31591491740E+02  0.40831603460E+02  0.00000000000E+00 0.  1.
</event>
<event>
 7    1  0.1935465E-015  0.9000774E+02  0.7816164E-02  0.1186339E+00
        -11   -1    0    0    0    0  0.00000000000E+00  0.00000000000E+00  0.45593999997E+02  0.45594000000E+02  0.51100000000E-03 0.  1.
         11   -1    0    0    0    0 -0.00000000000E+00 -0.00000000000E+00 -0.45593999997E+02  0.45594000000E+02  0.51100000000E-03 0. -1.
    9900012    2    1    2    0    0 -0.25418306964E+00  0.43001242676E+00  0.10693476121E+01  0.90007735608E+02  0.89999996918E+02 0.  0.
         12    1    1    2    0    0  0.25418306964E+00 -0.43001242676E+00 -0.10693476121E+01  0.11802643922E+01  0.00000000000E+00 0. -1.
         11    1    3    3    0    0 -0.27504653175E+02 -0.23000908981E+02  0.41409857987E+00  0.35856927338E+02  0.51100000000E-03 0. -1.
        -11    1    3    3    0    0 -0.38598936858E+01 -0.84371056944E+01  0.23912535434E+01  0.95813164823E+01  0.51100000000E-03 0.  1.
        -12    1    3    3    0    0  0.31110363791E+02  0.31868027102E+02 -0.17360045112E+01  0.44569491788E+02  0.00000000000E+00 0.  1.
</event>
<event>
 7    1  0.1935465E-015  0.9000783E+02  0.7816164E-02  0.1186339E+00
        -11   -1    0    0    0    0  0.00000000000E+00  0.00000000000E+00  0.45593999997E+02  0.45594000000E+02  0.51100000000E-03 0.  1.
         11   -1    0    0    0    0 -0.00000000000E+00 -0.00000000000E+00 -0.45593999997E+02  0.45594000000E+02  0.51100000000E-03 0. -1.
    9900012    2    1    2    0    0 -0.56593677563E+00 -0.81933138597E+00  0.63340976740E+00  0.90007832094E+02  0.90000094677E+02 0.  0.
         12    1    1    2    0    0  0.56593677563E+00  0.81933138597E+00 -0.63340976740E+00  0.11801679065E+01  0.00000000000E+00 0. -1.
         11    1    3    3    0    0 -0.10695379108E+02  0.12534423521E+01  0.47996499682E+01  0.11789779136E+02  0.51100000000E-03 0. -1.
        -11    1    3    3    0    0  0.14774045052E+02 -0.54139643865E+01  0.35137680277E+02  0.38499870040E+02  0.51100000000E-03 0.  1.
         12    1    3    3    0    0 -0.46446027191E+01  0.33411906484E+01 -0.39303920478E+02  0.39718182918E+02  0.00000000000E+00 0. -1.
</event>
<event>
 7    1  0.1935465E-015  0.9000762E+02  0.7816164E-02  0.1186339E+00
        -11   -1    0    0    0    0  0.00000000000E+00  0.00000000000E+00  0.45593999997E+02  0.45594000000E+02  0.51100000000E-03 0.  1.
         11   -1    0    0    0    0 -0.00000000000E+00 -0.00000000000E+00 -0.45593999997E+02  0.45594000000E+02  0.51100000000E-03 0. -1.
    9900012    2    1    2    0    0  0.30068286304E+00 -0.10441062914E+01  0.46121359111E+00  0.90007624590E+02  0.89999884435E+02 0.  0.
         12    1    1    2    0    0 -0.30068286304E+00  0.10441062914E+01 -0.46121359111E+00  0.11803754100E+01  0.00000000000E+00 0. -1.
         11    1    3    3    0    0  0.10229194482E+01  0.15414392660E+02 -0.28806544448E+02  0.32687411470E+02  0.51100000000E-03 0. -1.
        -11    1    3    3    0    0  0.34544662202E+01  0.28917416415E+01 -0.11308362096E+02  0.12172697324E+02  0.51100000000E-03 0.  1.
        -12    1    3    3    0    0 -0.41767028054E+01 -0.19350240593E+02  0.40576120136E+02  0.45147515796E+02  0.00000000000E+00 0.  1.
</event>
<event>
 7    1  0.1935465E-015  0.9000804E+02  0.7816164E-02  0.1186338E+00
        -11   -1    0    0    0    0  0.00000000000E+00  0.00000000000E+00  0.45593999997E+02  0.45594000000E+02  0.51100000000E-03 0.  1.
         11   -1    0    0    0    0 -0.00000000000E+00 -0.00000000000E+00 -0.45593999997E+02  0.45594000000E+02  0.51100000000E-03 0. -1.
    9900012    2    1    2    0    0 -0.47899935522E+00  0.10440498275E+01  0.26985022893E+00  0.90008042556E+02  0.90000307917E+02 0.  0.
         12    1    1    2    0    0  0.47899935522E+00 -0.10440498275E+01 -0.26985022893E+00  0.11799574444E+01  0.00000000000E+00 0. -1.
         11    1    3    3    0    0  0.11724141220E+02 -0.92283659781E+01 -0.59568204980E+00  0.14932282590E+02  0.51100000000E-03 0. -1.
        -11    1    3    3    0    0  0.11278809127E+01 -0.16173378810E+02  0.29639363848E+02  0.33783756261E+02  0.51100000000E-03 0.  1.
         12    1    3    3    0    0 -0.13331021488E+02  0.26445794616E+02 -0.28773831569E+02  0.41292003705E+02  0.00000000000E+00 0. -1.
</event>
<event>
 7    1  0.1935465E-015  0.9000773E+02  0.7816164E-02  0.1186339E+00
        -11   -1    0    0    0    0  0.00000000000E+00  0.00000000000E+00  0.45593999997E+02  0.45594000000E+02  0.51100000000E-03 0. -1.
         11   -1    0    0    0    0 -0.00000000000E+00 -0.00000000000E+00 -0.45593999997E+02  0.45594000000E+02  0.51100000000E-03 0.  1.
    9900012    2    1    2    0    0  0.16849250683E-01 -0.10270679914E+01 -0.58128685721E+00  0.90007725893E+02  0.89999987075E+02 0.  0.
         12    1    1    2    0    0 -0.16849250683E-01  0.10270679914E+01  0.58128685721E+00  0.11802741065E+01  0.00000000000E+00 0. -1.
         11    1    3    3    0    0 -0.53457504510E+01 -0.80393048277E+01  0.52470187512E+01  0.10988115218E+02  0.51100000000E-03 0. -1.
        -11    1    3    3    0    0  0.29817116610E+02  0.31922873390E+02 -0.34404485618E+00  0.43683505532E+02  0.51100000000E-03 0.  1.
         12    1    3    3    0    0 -0.24454516908E+02 -0.24910636554E+02 -0.54842607522E+01  0.35336105144E+02  0.00000000000E+00 0. -1.
</event>
<event>
 7    1  0.1935465E-015  0.9000775E+02  0.7816164E-02  0.1186339E+00
        -11   -1    0    0    0    0  0.00000000000E+00  0.00000000000E+00  0.45593999997E+02  0.45594000000E+02  0.51100000000E-03 0.  1.
         11   -1    0    0    0    0 -0.00000000000E+00 -0.00000000000E+00 -0.45593999997E+02  0.45594000000E+02  0.51100000000E-03 0. -1.
    9900012    2    1    2    0    0 -0.77353370836E+00 -0.43600919668E+00  0.77751371956E+00  0.90007751720E+02  0.90000013243E+02 0.  0.
         12    1    1    2    0    0  0.77353370836E+00  0.43600919668E+00 -0.77751371956E+00  0.11802482797E+01  0.00000000000E+00 0. -1.
         11    1    3    3    0    0 -0.28968947650E+02 -0.14145242384E+02  0.25843906301E+02  0.41318219991E+02  0.51100000000E-03 0. -1.
        -11    1    3    3    0    0  0.71823825501E+01 -0.49960191114E+01  0.27060123144E+01  0.91580199260E+01  0.51100000000E-03 0.  1.
        -12    1    3    3    0    0  0.21013031391E+02  0.18705252298E+02 -0.27772404896E+02  0.39531511804E+02  0.00000000000E+00 0.  1.
</event>
<event>
 7    1  0.1935465E-015  0.9000779E+02  0.7816164E-02  0.1186339E+00
        -11   -1    0    0    0    0  0.00000000000E+00  0.00000000000E+00  0.45593999997E+02  0.45594000000E+02  0.51100000000E-03 0.  1.
         11   -1    0    0    0    0 -0.00000000000E+00 -0.00000000000E+00 -0.45593999997E+02  0.45594000000E+02  0.51100000000E-03 0. -1.
    9900012    2    1    2    0    0 -0.93068450317E+00  0.54830290686E+00  0.47548403076E+00  0.90007790364E+02  0.90000052396E+02 0.  0.
         12    1    1    2    0    0  0.93068450317E+00 -0.54830290686E+00 -0.47548403076E+00  0.11802096363E+01  0.00000000000E+00 0. -1.
         11    1    3    3    0    0  0.36543611705E+02  0.71993133428E+01  0.17433993556E+02  0.41124321278E+02  0.51100000000E-03 0. -1.
        -11    1    3    3    0    0 -0.87147241849E+00 -0.90929300787E+01 -0.40798901576E+01  0.10004316346E+02  0.51100000000E-03 0.  1.
        -12    1    3    3    0    0 -0.36602823789E+02  0.24419196427E+01 -0.12878619368E+02  0.38879152739E+02  0.00000000000E+00 0.  1.
</event>
<event>
 7    1  0.1935465E-015  0.9000775E+02  0.7816164E-02  0.1186339E+00
        -11   -1    0    0    0    0  0.00000000000E+00  0.00000000000E+00  0.45593999997E+02  0.45594000000E+02  0.51100000000E-03 0. -1.
         11   -1    0    0    0    0 -0.00000000000E+00 -0.00000000000E+00 -0.45593999997E+02  0.45594000000E+02  0.51100000000E-03 0.  1.
    9900012    2    1    2    0    0 -0.10516582072E+01 -0.53079650013E+00 -0.72487942683E-01  0.90007752394E+02  0.90000013926E+02 0.  0.
         12    1    1    2    0    0  0.10516582072E+01  0.53079650013E+00  0.72487942683E-01  0.11802476059E+01  0.00000000000E+00 0. -1.
         11    1    3    3    0    0  0.32741762271E+00 -0.77854897362E+01 -0.58568300438E+01  0.97480003670E+01  0.51100000000E-03 0. -1.
        -11    1    3    3    0    0  0.19055989473E+02 -0.12063576083E+02 -0.28225674996E+02  0.36129618486E+02  0.51100000000E-03 0.  1.
         12    1    3    3    0    0 -0.20435065303E+02  0.19318269319E+02  0.34010017097E+02  0.44130133541E+02  0.00000000000E+00 0. -1.
</event>
<event>
 7    1  0.1935465E-015  0.9000769E+02  0.7816164E-02  0.1186339E+00
        -11   -1    0    0    0    0  0.00000000000E+00  0.00000000000E+00  0.45593999997E+02  0.45594000000E+02  0.51100000000E-03 0.  1.
         11   -1    0    0    0    0 -0.00000000000E+00 -0.00000000000E+00 -0.45593999997E+02  0.45594000000E+02  0.51100000000E-03 0. -1.
    9900012    2    1    2    0    0  0.92061127210E+00 -0.71259438240E+00 -0.19444717728E+00  0.90007692594E+02  0.89999953336E+02 0.  0.
         12    1    1    2    0    0 -0.92061127210E+00  0.71259438240E+00  0.19444717728E+00  0.11803074061E+01  0.00000000000E+00 0. -1.
         11    1    3    3    0    0 -0.42874032753E+01 -0.61234428856E+01 -0.34010215778E+01  0.82125104355E+01  0.51100000000E-03 0. -1.
        -11    1    3    3    0    0 -0.26699669382E+02 -0.25330778835E+02  0.64681634789E+01  0.37367871769E+02  0.51100000000E-03 0.  1.
         12    1    3    3    0    0  0.31907683930E+02  0.30741627338E+02 -0.32615890783E+01  0.44427310390E+02  0.00000000000E+00 0. -1.
</event>
<event>
 7    1  0.1935465E-015  0.9000770E+02  0.7816164E-02  0.1186339E+00
        -11   -1    0    0    0    0  0.00000000000E+00  0.00000000000E+00  0.45593999997E+02  0.45594000000E+02  0.51100000000E-03 0.  1.
         11   -1    0    0    0    0 -0.00000000000E+00 -0.00000000000E+00 -0.45593999997E+02  0.45594000000E+02  0.51100000000E-03 0. -1.
    9900012    2    1    2    0    0 -0.33882377236E+00  0.40231202121E+00  0.10566180844E+01  0.90007704153E+02  0.89999965047E+02 0.  0.
         12    1    1    2    0    0  0.33882377236E+00 -0.40231202121E+00 -0.10566180844E+01  0.11802958474E+01  0.00000000000E+00 0. -1.
         11    1    3    3    0    0 -0.35678949563E+02 -0.77309312920E+01 -0.11430668044E+02  0.38254606426E+02  0.51100000000E-03 0. -1.
        -11    1    3    3    0    0 -0.38561881873E+01  0.81272560638E+01 -0.31804657946E+01  0.95413752360E+01  0.51100000000E-03 0.  1.
        -12    1    3    3    0    0  0.39196313978E+02  0.59872494601E-02  0.15667751923E+02  0.42211722491E+02  0.00000000000E+00 0.  1.
</event>
<event>
 7    1  0.1935465E-015  0.9000779E+02  0.7816164E-02  0.1186339E+00
        -11   -1    0    0    0    0  0.00000000000E+00  0.00000000000E+00  0.45593999997E+02  0.45594000000E+02  0.51100000000E-03 0.  1.
         11   -1    0    0    0    0 -0.00000000000E+00 -0.00000000000E+00 -0.45593999997E+02  0.45594000000E+02  0.51100000000E-03 0. -1.
    9900012    2    1    2    0    0 -0.30574723089E+00  0.11336613300E+01  0.11924779286E+00  0.90007792638E+02  0.90000054701E+02 0.  0.
         12    1    1    2    0    0  0.30574723089E+00 -0.11336613300E+01 -0.11924779286E+00  0.11802073616E+01  0.00000000000E+00 0. -1.
         11    1    3    3    0    0  0.20778466328E+02  0.58010926515E+01 -0.31508850660E+02  0.38186450595E+02  0.51100000000E-03 0. -1.
        -11    1    3    3    0    0  0.73131057933E+01  0.60688479245E+01  0.26823894235E+01  0.98745959287E+01  0.51100000000E-03 0.  1.
        -12    1    3    3    0    0 -0.28397319352E+02 -0.10736279246E+02  0.28945709029E+02  0.41946746115E+02  0.00000000000E+00 0.  1.
</event>
<event>
 7    1  0.1935465E-015  0.9000746E+02  0.7816164E-02  0.1186340E+00
        -11   -1    0    0    0    0  0.00000000000E+00  0.00000000000E+00  0.45593999997E+02  0.45594000000E+02  0.51100000000E-03 0.  1.
         11   -1    0    0    0    0 -0.00000000000E+00 -0.00000000000E+00 -0.45593999997E+02  0.45594000000E+02  0.51100000000E-03 0. -1.
    9900012    2    1    2    0    0  0.64801927963E+00 -0.92058343759E+00 -0.35534511608E+00  0.90007460715E+02  0.89999718396E+02 0.  0.
         12    1    1    2    0    0 -0.64801927963E+00  0.92058343759E+00  0.35534511608E+00  0.11805392852E+01  0.00000000000E+00 0. -1.
         11    1    3    3    0    0 -0.21000396798E+02 -0.22763294277E+02 -0.20526766270E+01  0.31038648707E+02  0.51100000000E-03 0. -1.
        -11    1    3    3    0    0 -0.10249555364E+02 -0.59899682922E+01 -0.94711492435E+01  0.15186697256E+02  0.51100000000E-03 0.  1.
        -12    1    3    3    0    0  0.31897971441E+02  0.27832679131E+02  0.11168480755E+02  0.43782114751E+02  0.00000000000E+00 0.  1.
</event>
<event>
 7    1  0.1935465E-015  0.9000768E+02  0.7816164E-02  0.1186339E+00
        -11   -1    0    0    0    0  0.00000000000E+00  0.00000000000E+00  0.45593999997E+02  0.45594000000E+02  0.51100000000E-03 0.  1.
         11   -1    0    0    0    0 -0.00000000000E+00 -0.00000000000E+00 -0.45593999997E+02  0.45594000000E+02  0.51100000000E-03 0. -1.
    9900012    2    1    2    0    0 -0.77929064770E+00  0.54308214103E+00 -0.70065588089E+00  0.90007681912E+02  0.89999942513E+02 0.  0.
         12    1    1    2    0    0  0.77929064770E+00 -0.54308214103E+00  0.70065588089E+00  0.11803180880E+01  0.00000000000E+00 0. -1.
         11    1    3    3    0    0 -0.20060948147E+02  0.23309093107E+02 -0.29415869837E+02  0.42556419734E+02  0.51100000000E-03 0. -1.
        -11    1    3    3    0    0 -0.40010947336E+01 -0.10955666527E+02  0.92629381369E+01  0.14894207307E+02  0.51100000000E-03 0.  1.
        -12    1    3    3    0    0  0.23282752233E+02 -0.11810344440E+02  0.19452275819E+02  0.32557054871E+02  0.00000000000E+00 0.  1.
</event>
<event>
 7    1  0.1935465E-015  0.9000775E+02  0.7816164E-02  0.1186339E+00
        -11   -1    0    0    0    0  0.00000000000E+00  0.00000000000E+00  0.45593999997E+02  0.45594000000E+02  0.51100000000E-03 0.  1.
         11   -1    0    0    0    0 -0.00000000000E+00 -0.00000000000E+00 -0.45593999997E+02  0.45594000000E+02  0.51100000000E-03 0. -1.
    9900012    2    1    2    0    0 -0.89412644028E+00  0.23733963753E+00  0.73293705329E+00  0.90007750485E+02  0.90000011991E+02 0.  0.
         12    1    1    2    0    0  0.89412644028E+00 -0.23733963753E+00 -0.73293705329E+00  0.11802495155E+01  0.00000000000E+00 0. -1.
         11    1    3    3    0    0 -0.36463734590E+02 -0.23573229222E+02  0.90430050980E+01  0.44351741991E+02  0.51100000000E-03 0. -1.
        -11    1    3    3    0    0  0.11448432783E+02  0.68327599120E+00 -0.24868428353E+01  0.11735325594E+02  0.51100000000E-03 0.  1.
        -12    1    3    3    0    0  0.24121175367E+02  0.23127292868E+02 -0.58232252094E+01  0.33920682899E+02  0.00000000000E+00 0.  1.
</event>
<event>
 7    1  0.1935465E-015  0.9000773E+02  0.7816164E-02  0.1186339E+00
        -11   -1    0    0    0    0  0.00000000000E+00  0.00000000000E+00  0.45593999997E+02  0.45594000000E+02  0.51100000000E-03 0.  1.
         11   -1    0    0    0    0 -0.00000000000E+00 -0.00000000000E+00 -0.45593999997E+02  0.45594000000E+02  0.51100000000E-03 0. -1.
    9900012    2    1    2    0    0  0.10921033563E+01  0.42763985144E-01  0.44556069603E+00  0.90007727644E+02  0.89999988849E+02 0.  0.
         12    1    1    2    0    0 -0.10921033563E+01 -0.42763985144E-01 -0.44556069603E+00  0.11802723555E+01  0.00000000000E+00 0. -1.
         11    1    3    3    0    0 -0.22508641567E+02  0.29155733467E+02  0.51422689019E+00  0.36836940273E+02  0.51100000000E-03 0. -1.
        -11    1    3    3    0    0 -0.55368246542E+01  0.42695668994E-01 -0.93987729737E+01  0.10908491364E+02  0.51100000000E-03 0.  1.
        -12    1    3    3    0    0  0.29137569577E+02 -0.29155665150E+02  0.93301067796E+01  0.42262296007E+02  0.00000000000E+00 0.  1.
</event>
<event>
 7    1  0.1935465E-015  0.9000771E+02  0.7816164E-02  0.1186339E+00
        -11   -1    0    0    0    0  0.00000000000E+00  0.00000000000E+00  0.45593999997E+02  0.45594000000E+02  0.51100000000E-03 0.  1.
         11   -1    0    0    0    0 -0.00000000000E+00 -0.00000000000E+00 -0.45593999997E+02  0.45594000000E+02  0.51100000000E-03 0. -1.
    9900012    2    1    2    0    0 -0.80212027333E+00 -0.20798039326E+00  0.84049320775E+00  0.90007711218E+02  0.89999972206E+02 0.  0.
         12    1    1    2    0    0  0.80212027333E+00  0.20798039326E+00 -0.84049320775E+00  0.11802887821E+01  0.00000000000E+00 0. -1.
         11    1    3    3    0    0  0.49704188730E+01  0.69222678637E+00 -0.75434650965E+01  0.90602487615E+01  0.51100000000E-03 0. -1.
        -11    1    3    3    0    0  0.36125754026E+02 -0.97659855251E+01  0.64665730731E+00  0.37428100982E+02  0.51100000000E-03 0.  1.
         12    1    3    3    0    0 -0.41898293172E+02  0.88657783455E+01  0.77373009970E+01  0.43519361474E+02  0.00000000000E+00 0. -1.
</event>
<event>
 7    1  0.1935465E-015  0.9000775E+02  0.7816164E-02  0.1186339E+00
        -11   -1    0    0    0    0  0.00000000000E+00  0.00000000000E+00  0.45593999997E+02  0.45594000000E+02  0.51100000000E-03 0. -1.
         11   -1    0    0    0    0 -0.00000000000E+00 -0.00000000000E+00 -0.45593999997E+02  0.45594000000E+02  0.51100000000E-03 0.  1.
    9900012    2    1    2    0    0  0.91406468837E+00 -0.47787944303E+00  0.57366955055E+00  0.90007754360E+02  0.90000015918E+02 0.  0.
         12    1    1    2    0    0 -0.91406468837E+00  0.47787944303E+00 -0.57366955055E+00  0.11802456396E+01  0.00000000000E+00 0. -1.
         11    1    3    3    0    0  0.56914020144E+01  0.10219161509E+01  0.63913422088E+01  0.86189108941E+01  0.51100000000E-03 0. -1.
        -11    1    3    3    0    0  0.24842474578E+02  0.62515085199E+01 -0.32078676871E+02  0.41052057341E+02  0.51100000000E-03 0.  1.
         12    1    3    3    0    0 -0.29619811904E+02 -0.77513041138E+01  0.26261004212E+02  0.40336786125E+02  0.00000000000E+00 0. -1.
</event>
<event>
 7    1  0.1935465E-015  0.9000775E+02  0.7816164E-02  0.1186339E+00
        -11   -1    0    0    0    0  0.00000000000E+00  0.00000000000E+00  0.45593999997E+02  0.45594000000E+02  0.51100000000E-03 0.  1.
         11   -1    0    0    0    0 -0.00000000000E+00 -0.00000000000E+00 -0.45593999997E+02  0.45594000000E+02  0.51100000000E-03 0. -1.
    9900012    2    1    2    0    0 -0.90828866158E-01  0.11070233686E+01  0.39904130221E+00  0.90007752322E+02  0.90000013852E+02 0.  0.
         12    1    1    2    0    0  0.90828866158E-01 -0.11070233686E+01 -0.39904130221E+00  0.11802476784E+01  0.00000000000E+00 0. -1.
         11    1    3    3    0    0 -0.18114513987E+01 -0.48649293798E+01 -0.32117748301E+02  0.32534576227E+02  0.51100000000E-03 0. -1.
        -11    1    3    3    0    0  0.18508920470E+02  0.70122669473E+01 -0.11628227179E+01  0.19826855061E+02  0.51100000000E-03 0.  1.
        -12    1    3    3    0    0 -0.16788297937E+02 -0.10403141989E+01  0.33679612321E+02  0.37646321034E+02  0.00000000000E+00 0.  1.
</event>
<event>
 7    1  0.1935465E-015  0.9000774E+02  0.7816164E-02  0.1186339E+00
        -11   -1    0    0    0    0  0.00000000000E+00  0.00000000000E+00  0.45593999997E+02  0.45594000000E+02  0.51100000000E-03 0. -1.
         11   -1    0    0    0    0 -0.00000000000E+00 -0.00000000000E+00 -0.45593999997E+02  0.45594000000E+02  0.51100000000E-03 0.  1.
    9900012    2    1    2    0    0  0.10979753580E+01 -0.37757972481E+00 -0.21189161920E+00  0.90007739692E+02  0.90000001056E+02 0.  0.
         12    1    1    2    0    0 -0.10979753580E+01  0.37757972481E+00  0.21189161920E+00  0.11802603076E+01  0.00000000000E+00 0. -1.
         11    1    3    3    0    0 -0.17157872719E+01 -0.40201676582E+01  0.64018127362E+01  0.77517017830E+01  0.51100000000E-03 0. -1.
        -11    1    3    3    0    0  0.22857860421E+02  0.20215167207E+02 -0.33180044586E+02  0.45078266684E+02  0.51100000000E-03 0.  1.
         12    1    3    3    0    0 -0.20044097791E+02 -0.16572579273E+02  0.26566340231E+02  0.37177771225E+02  0.00000000000E+00 0. -1.
</event>
<event>
 7    1  0.1935465E-015  0.9000796E+02  0.7816164E-02  0.1186339E+00
        -11   -1    0    0    0    0  0.00000000000E+00  0.00000000000E+00  0.45593999997E+02  0.45594000000E+02  0.51100000000E-03 0. -1.
         11   -1    0    0    0    0 -0.00000000000E+00 -0.00000000000E+00 -0.45593999997E+02  0.45594000000E+02  0.51100000000E-03 0.  1.
    9900012    2    1    2    0    0  0.98638798256E+00 -0.56691474587E-01  0.64522856749E+00  0.90007959713E+02  0.90000223981E+02 0.  0.
         12    1    1    2    0    0 -0.98638798256E+00  0.56691474587E-01 -0.64522856749E+00  0.11800402873E+01  0.00000000000E+00 0. -1.
         11    1    3    3    0    0 -0.47092310920E+01 -0.88412254034E+01 -0.22283346918E+01  0.10262046573E+02  0.51100000000E-03 0. -1.
        -11    1    3    3    0    0  0.16222346801E+02 -0.26959008398E+02 -0.18787450516E+02  0.36645886081E+02  0.51100000000E-03 0.  1.
         12    1    3    3    0    0 -0.10526727727E+02  0.35743542326E+02  0.21661013775E+02  0.43100027058E+02  0.00000000000E+00 0. -1.
</event>
<event>
 7    1  0.1935465E-015  0.9000778E+02  0.7816164E-02  0.1186339E+00
        -11   -1    0    0    0    0  0.00000000000E+00  0.00000000000E+00  0.45593999997E+02  0.45594000000E+02  0.51100000000E-03 0. -1.
         11   -1    0    0    0    0 -0.00000000000E+00 -0.00000000000E+00 -0.45593999997E+02  0.45594000000E+02  0.51100000000E-03 0.  1.
    9900012    2    1    2    0    0  0.84108764786E+00 -0.75165469421E+00 -0.34715159615E+00  0.90007776529E+02  0.90000038379E+02 0.  0.
         12    1    1    2    0    0 -0.84108764786E+00  0.75165469421E+00  0.34715159615E+00  0.11802234710E+01  0.00000000000E+00 0. -1.
         11    1    3    3    0    0  0.38503903036E+02  0.10342680785E+02 -0.14704803334E+00  0.39869075964E+02  0.51100000000E-03 0. -1.
        -11    1    3    3    0    0  0.21639242912E+01 -0.85441245744E+01 -0.46807029550E+01  0.99796599889E+01  0.51100000000E-03 0.  1.
        -12    1    3    3    0    0 -0.39826739679E+02 -0.25502109049E+01  0.44805993921E+01  0.40159040577E+02  0.00000000000E+00 0.  1.
</event>
<event>
 7    1  0.1935465E-015  0.9000771E+02  0.7816164E-02  0.1186339E+00
        -11   -1    0    0    0    0  0.00000000000E+00  0.00000000000E+00  0.45593999997E+02  0.45594000000E+02  0.51100000000E-03 0. -1.
         11   -1    0    0    0    0 -0.00000000000E+00 -0.00000000000E+00 -0.45593999997E+02  0.45594000000E+02  0.51100000000E-03 0.  1.
    9900012    2    1    2    0    0 -0.72638405525E+00  0.62394367981E+00 -0.69003715054E+00  0.90007707333E+02  0.89999968270E+02 0.  0.
         12    1    1    2    0    0  0.72638405525E+00 -0.62394367981E+00  0.69003715054E+00  0.11802926673E+01  0.00000000000E+00 0. -1.
         11    1    3    3    0    0 -0.91054690778E+01 -0.30663506544E+02  0.96423560978E+01  0.33408610149E+02  0.51100000000E-03 0. -1.
        -11    1    3    3    0    0  0.10502819264E+02 -0.37427387148E+01  0.10890968272E+02  0.15586227759E+02  0.51100000000E-03 0.  1.
        -12    1    3    3    0    0 -0.21237342417E+01  0.35030188939E+02 -0.21223361520E+02  0.41012869425E+02  0.00000000000E+00 0.  1.
</event>
<event>
 7    1  0.1935465E-015  0.9000860E+02  0.7816164E-02  0.1186337E+00
        -11   -1    0    0    0    0  0.00000000000E+00  0.00000000000E+00  0.45593999997E+02  0.45594000000E+02  0.51100000000E-03 0.  1.
         11   -1    0    0    0    0 -0.00000000000E+00 -0.00000000000E+00 -0.45593999997E+02  0.45594000000E+02  0.51100000000E-03 0. -1.
    9900012    2    1    2    0    0  0.11744305298E+01  0.90330242014E-01  0.59430813521E-01  0.90008602423E+02  0.90000875171E+02 0.  0.
         12    1    1    2    0    0 -0.11744305298E+01 -0.90330242014E-01 -0.59430813521E-01  0.11793975765E+01  0.00000000000E+00 0. -1.
         11    1    3    3    0    0 -0.31888373058E+01  0.63455051718E+01 -0.32204079050E+01  0.77977654866E+01  0.51100000000E-03 0. -1.
        -11    1    3    3    0    0 -0.95118742570E+01  0.23366440038E+02  0.30552760315E+02  0.39622436006E+02  0.51100000000E-03 0.  1.
         12    1    3    3    0    0  0.13875142093E+02 -0.29621614968E+02 -0.27272921596E+02  0.42588400931E+02  0.00000000000E+00 0. -1.
</event>
<event>
 7    1  0.1935465E-015  0.9000771E+02  0.7816164E-02  0.1186339E+00
        -11   -1    0    0    0    0  0.00000000000E+00  0.00000000000E+00  0.45593999997E+02  0.45594000000E+02  0.51100000000E-03 0. -1.
         11   -1    0    0    0    0 -0.00000000000E+00 -0.00000000000E+00 -0.45593999997E+02  0.45594000000E+02  0.51100000000E-03 0.  1.
    9900012    2    1    2    0    0 -0.68912520301E+00  0.25561584268E+00  0.92350242038E+00  0.90007707780E+02  0.89999968723E+02 0.  0.
         12    1    1    2    0    0  0.68912520301E+00 -0.25561584268E+00 -0.92350242038E+00  0.11802922201E+01  0.00000000000E+00 0. -1.
         11    1    3    3    0    0 -0.25559465144E+02 -0.13703729653E+02 -0.28633466938E+02  0.40754802097E+02  0.51100000000E-03 0. -1.
        -11    1    3    3    0    0  0.48347437115E+00  0.11196922846E+02  0.50076640468E+00  0.11218538048E+02  0.51100000000E-03 0.  1.
        -12    1    3    3    0    0  0.24386865570E+02  0.27624226493E+01  0.29056202954E+02  0.38034367634E+02  0.00000000000E+00 0.  1.
</event>
<event>
 7    1  0.1935465E-015  0.9000775E+02  0.7816164E-02  0.1186339E+00
        -11   -1    0    0    0    0  0.00000000000E+00  0.00000000000E+00  0.45593999997E+02  0.45594000000E+02  0.51100000000E-03 0.  1.
         11   -1    0    0    0    0 -0.00000000000E+00 -0.00000000000E+00 -0.45593999997E+02  0.45594000000E+02  0.51100000000E-03 0. -1.
    9900012    2    1    2    0    0  0.25483469048E+00 -0.57498905785E+00  0.99871305699E+00  0.90007753879E+02  0.90000015430E+02 0.  0.
         12    1    1    2    0    0 -0.25483469048E+00  0.57498905785E+00 -0.99871305699E+00  0.11802461211E+01  0.00000000000E+00 0. -1.
         11    1    3    3    0    0  0.16919073406E+01 -0.52094511587E+01 -0.10949374222E+02  0.12242946048E+02  0.51100000000E-03 0. -1.
        -11    1    3    3    0    0  0.22061155776E+02 -0.18529588942E+02  0.28780851294E+02  0.40723183348E+02  0.51100000000E-03 0.  1.
         12    1    3    3    0    0 -0.23498228426E+02  0.23164051043E+02 -0.16832764015E+02  0.37041624482E+02  0.00000000000E+00 0. -1.
</event>
<event>
 7    1  0.1935465E-015  0.9000772E+02  0.7816164E-02  0.1186339E+00
        -11   -1    0    0    0    0  0.00000000000E+00  0.00000000000E+00  0.45593999997E+02  0.45594000000E+02  0.51100000000E-03 0.  1.
         11   -1    0    0    0    0 -0.00000000000E+00 -0.00000000000E+00 -0.45593999997E+02  0.45594000000E+02  0.51100000000E-03 0. -1.
    9900012    2    1    2    0    0  0.49729341332E+00 -0.85845120047E+00  0.63939191277E+00  0.90007719855E+02  0.89999980957E+02 0.  0.
         12    1    1    2    0    0 -0.49729341332E+00  0.85845120047E+00 -0.63939191277E+00  0.11802801450E+01  0.00000000000E+00 0. -1.
         11    1    3    3    0    0 -0.29223827631E+02 -0.23675048187E+02 -0.17524073729E+02  0.41492567628E+02  0.51100000000E-03 0. -1.
        -11    1    3    3    0    0 -0.20592025190E+01  0.19927118386E+01  0.89798885929E+01  0.94260073673E+01  0.51100000000E-03 0.  1.
        -12    1    3    3    0    0  0.31780323563E+02  0.20823885148E+02  0.91835770486E+01  0.39089144860E+02  0.00000000000E+00 0.  1.
</event>
<event>
 7    1  0.1935465E-015  0.9000771E+02  0.7816164E-02  0.1186339E+00
        -11   -1    0    0    0    0  0.00000000000E+00  0.00000000000E+00  0.45593999997E+02  0.45594000000E+02  0.51100000000E-03 0.  1.
         11   -1    0    0    0    0 -0.00000000000E+00 -0.00000000000E+00 -0.45593999997E+02  0.45594000000E+02  0.51100000000E-03 0. -1.
    9900012    2    1    2    0    0  0.24815280746E-01 -0.10561381264E+01  0.52634071429E+00  0.90007712710E+02  0.89999973717E+02 0.  0.
         12    1    1    2    0    0 -0.24815280746E-01  0.10561381264E+01 -0.52634071429E+00  0.11802872903E+01  0.00000000000E+00 0. -1.
         11    1    3    3    0    0 -0.18848037530E+02 -0.33426636849E+01 -0.28946194418E+02  0.34703084745E+02  0.51100000000E-03 0. -1.
        -11    1    3    3    0    0 -0.73260026885E+01  0.64777975149E-01 -0.71394331386E+01  0.10229663601E+02  0.51100000000E-03 0.  1.
        -12    1    3    3    0    0  0.26198855499E+02  0.22217475834E+01  0.36611968271E+02  0.45074964365E+02  0.00000000000E+00 0.  1.
</event>
<event>
 7    1  0.1935465E-015  0.9000774E+02  0.7816164E-02  0.1186339E+00
        -11   -1    0    0    0    0  0.00000000000E+00  0.00000000000E+00  0.45593999997E+02  0.45594000000E+02  0.51100000000E-03 0.  1.
         11   -1    0    0    0    0 -0.00000000000E+00 -0.00000000000E+00 -0.45593999997E+02  0.45594000000E+02  0.51100000000E-03 0. -1.
    9900012    2    1    2    0    0  0.98048081526E+00 -0.60673282355E+00 -0.25209675956E+00  0.90007737265E+02  0.89999998597E+02 0.  0.
         12    1    1    2    0    0 -0.98048081526E+00  0.60673282355E+00  0.25209675956E+00  0.11802627353E+01  0.00000000000E+00 0. -1.
         11    1    3    3    0    0  0.38590048686E+01 -0.70514217011E+00  0.91791413402E+01  0.99822732912E+01  0.51100000000E-03 0. -1.
        -11    1    3    3    0    0 -0.39759005047E+02  0.10523306140E+02 -0.56362008079E+01  0.41512470587E+02  0.51100000000E-03 0.  1.
         12    1    3    3    0    0  0.36880480994E+02 -0.10424896793E+02 -0.37950372919E+01  0.38512993386E+02  0.00000000000E+00 0. -1.
</event>
<event>
 7    1  0.1935465E-015  0.9000747E+02  0.7816164E-02  0.1186340E+00
        -11   -1    0    0    0    0  0.00000000000E+00  0.00000000000E+00  0.45593999997E+02  0.45594000000E+02  0.51100000000E-03 0. -1.
         11   -1    0    0    0    0 -0.00000000000E+00 -0.00000000000E+00 -0.45593999997E+02  0.45594000000E+02  0.51100000000E-03 0.  1.
    9900012    2    1    2    0    0 -0.77832537367E+00  0.88678502515E+00  0.38523169213E-01  0.90007465332E+02  0.89999723074E+02 0.  0.
         12    1    1    2    0    0  0.77832537367E+00 -0.88678502515E+00 -0.38523169213E-01  0.11805346682E+01  0.00000000000E+00 0. -1.
         11    1    3    3    0    0 -0.23234151649E+02 -0.17416341637E+02  0.22658191015E+02  0.36831350494E+02  0.51100000000E-03 0. -1.
        -11    1    3    3    0    0  0.22996132465E+01 -0.55793760987E+01  0.75992576830E+01  0.97039361255E+01  0.51100000000E-03 0.  1.
        -12    1    3    3    0    0  0.20156213029E+02  0.23882502761E+02 -0.30218925529E+02  0.43472178712E+02  0.00000000000E+00 0.  1.
</event>
<event>
 7    1  0.1935465E-015  0.9000782E+02  0.7816164E-02  0.1186339E+00
        -11   -1    0    0    0    0  0.00000000000E+00  0.00000000000E+00  0.45593999997E+02  0.45594000000E+02  0.51100000000E-03 0.  1.
         11   -1    0    0    0    0 -0.00000000000E+00 -0.00000000000E+00 -0.45593999997E+02  0.45594000000E+02  0.51100000000E-03 0. -1.
    9900012    2    1    2    0    0  0.16516061533E+00 -0.99230972707E+00  0.61713615799E+00  0.90007824733E+02  0.90000087219E+02 0.  0.
         12    1    1    2    0    0 -0.16516061533E+00  0.99230972707E+00 -0.61713615799E+00  0.11801752670E+01  0.00000000000E+00 0. -1.
         11    1    3    3    0    0 -0.14080955293E+02  0.31121939122E+02 -0.82370278333E+01  0.35138255854E+02  0.51100000000E-03 0. -1.
        -11    1    3    3    0    0 -0.35643320039E+01  0.73724833432E+01 -0.47489452214E+01  0.94662798531E+01  0.51100000000E-03 0.  1.
        -12    1    3    3    0    0  0.17810447912E+02 -0.39486732193E+02  0.13603109213E+02  0.45403289026E+02  0.00000000000E+00 0.  1.
</event>
<event>
 7    1  0.1935465E-015  0.9000784E+02  0.7816164E-02  0.1186339E+00
        -11   -1    0    0    0    0  0.00000000000E+00  0.00000000000E+00  0.45593999997E+02  0.45594000000E+02  0.51100000000E-03 0. -1.
         11   -1    0    0    0    0 -0.00000000000E+00 -0.00000000000E+00 -0.45593999997E+02  0.45594000000E+02  0.51100000000E-03 0.  1.
    9900012    2    1    2    0    0 -0.11298767314E+01  0.14835664156E+00  0.30684745531E+00  0.90007836248E+02  0.90000098886E+02 0.  0.
         12    1    1    2    0    0  0.11298767314E+01 -0.14835664156E+00 -0.30684745531E+00  0.11801637522E+01  0.00000000000E+00 0. -1.
         11    1    3    3    0    0 -0.15418913716E+02 -0.32645004959E+02  0.11419164762E+02  0.37866034557E+02  0.51100000000E-03 0. -1.
        -11    1    3    3    0    0  0.66221524605E+01 -0.74376491517E+01 -0.14629295433E+01  0.10065370893E+02  0.51100000000E-03 0.  1.
        -12    1    3    3    0    0  0.76668845244E+01  0.40231010752E+02 -0.96493877636E+01  0.42076430797E+02  0.00000000000E+00 0.  1.
</event>
<event>
 7    1  0.1935465E-015  0.9000780E+02  0.7816164E-02  0.1186339E+00
        -11   -1    0    0    0    0  0.00000000000E+00  0.00000000000E+00  0.45593999997E+02  0.45594000000E+02  0.51100000000E-03 0. -1.
         11   -1    0    0    0    0 -0.00000000000E+00 -0.00000000000E+00 -0.45593999997E+02  0.45594000000E+02  0.51100000000E-03 0.  1.
    9900012    2    1    2    0    0  0.14611585379E-01 -0.11446080752E+01 -0.28727695362E+00  0.90007801206E+02  0.90000063382E+02 0.  0.
         12    1    1    2    0    0 -0.14611585379E-01  0.11446080752E+01  0.28727695362E+00  0.11801987935E+01  0.00000000000E+00 0. -1.
         11    1    3    3    0    0 -0.33681301423E+02  0.49062344813E+01 -0.19086604767E+01  0.34090235954E+02  0.51100000000E-03 0. -1.
        -11    1    3    3    0    0 -0.96700433023E+01  0.50571394946E+01  0.22732189625E+01  0.11146834620E+02  0.51100000000E-03 0.  1.
        -12    1    3    3    0    0  0.43365956310E+02 -0.11107982051E+02 -0.65183543938E+00  0.44770730633E+02  0.00000000000E+00 0.  1.
</event>
<event>
 7    1  0.1935465E-015  0.9000777E+02  0.7816164E-02  0.1186339E+00
        -11   -1    0    0    0    0  0.00000000000E+00  0.00000000000E+00  0.45593999997E+02  0.45594000000E+02  0.51100000000E-03 0. -1.
         11   -1    0    0    0    0 -0.00000000000E+00 -0.00000000000E+00 -0.45593999997E+02  0.45594000000E+02  0.51100000000E-03 0.  1.
    9900012    2    1    2    0    0 -0.10362090800E+01 -0.26726429364E+00 -0.49778728204E+00  0.90007766278E+02  0.90000027993E+02 0.  0.
         12    1    1    2    0    0  0.10362090800E+01  0.26726429364E+00  0.49778728204E+00  0.11802337219E+01  0.00000000000E+00 0. -1.
         11    1    3    3    0    0  0.32543593977E+02 -0.11761279054E+02 -0.14456454546E+02  0.37502030241E+02  0.51100000000E-03 0. -1.
        -11    1    3    3    0    0  0.40848631488E+01 -0.66613475372E+01  0.62114054745E+01  0.99820446896E+01  0.51100000000E-03 0.  1.
        -12    1    3    3    0    0 -0.37664666206E+02  0.18155362298E+02  0.77472617892E+01  0.42523691347E+02  0.00000000000E+00 0.  1.
</event>
<event>
 7    1  0.1935465E-015  0.9000755E+02  0.7816164E-02  0.1186339E+00
        -11   -1    0    0    0    0  0.00000000000E+00  0.00000000000E+00  0.45593999997E+02  0.45594000000E+02  0.51100000000E-03 0.  1.
         11   -1    0    0    0    0 -0.00000000000E+00 -0.00000000000E+00 -0.45593999997E+02  0.45594000000E+02  0.51100000000E-03 0. -1.
    9900012    2    1    2    0    0  0.80378633834E+00  0.83908663396E+00 -0.20814069319E+00  0.90007550338E+02  0.89999809202E+02 0.  0.
         12    1    1    2    0    0 -0.80378633834E+00 -0.83908663396E+00  0.20814069319E+00  0.11804496623E+01  0.00000000000E+00 0. -1.
         11    1    3    3    0    0  0.15499431210E+02 -0.39960356677E+02  0.81722774658E+00  0.42868757097E+02  0.51100000000E-03 0. -1.
        -11    1    3    3    0    0 -0.20955724377E+01  0.85621280877E+01  0.74075846788E+01  0.11514068450E+02  0.51100000000E-03 0.  1.
        -12    1    3    3    0    0 -0.12600072434E+02  0.32237315223E+02 -0.84329531186E+01  0.35624724791E+02  0.00000000000E+00 0.  1.
</event>
<event>
 7    1  0.1935465E-015  0.9000771E+02  0.7816164E-02  0.1186339E+00
        -11   -1    0    0    0    0  0.00000000000E+00  0.00000000000E+00  0.45593999997E+02  0.45594000000E+02  0.51100000000E-03 0. -1.
         11   -1    0    0    0    0 -0.00000000000E+00 -0.00000000000E+00 -0.45593999997E+02  0.45594000000E+02  0.51100000000E-03 0.  1.
    9900012    2    1    2    0    0  0.48044952719E+00  0.63309094923E+00 -0.87260616212E+00  0.90007712996E+02  0.89999974007E+02 0.  0.
         12    1    1    2    0    0 -0.48044952719E+00 -0.63309094923E+00  0.87260616212E+00  0.11802870042E+01  0.00000000000E+00 0. -1.
         11    1    3    3    0    0 -0.80543748468E+01  0.31288483496E+01  0.16861730510E+01  0.88037393184E+01  0.51100000000E-03 0. -1.
        -11    1    3    3    0    0 -0.30623668559E+02 -0.20827140788E+02 -0.71679466052E+01  0.37722119879E+02  0.51100000000E-03 0.  1.
         12    1    3    3    0    0  0.39158492933E+02  0.18331383388E+02  0.46091673921E+01  0.43481853798E+02  0.00000000000E+00 0. -1.
</event>
<event>
 7    1  0.1935465E-015  0.9000777E+02  0.7816164E-02  0.1186339E+00
        -11   -1    0    0    0    0  0.00000000000E+00  0.00000000000E+00  0.45593999997E+02  0.45594000000E+02  0.51100000000E-03 0. -1.
         11   -1    0    0    0    0 -0.00000000000E+00 -0.00000000000E+00 -0.45593999997E+02  0.45594000000E+02  0.51100000000E-03 0.  1.
    9900012    2    1    2    0    0  0.52186896884E+00 -0.91308760705E+00 -0.53560896414E+00  0.90007765633E+02  0.90000027339E+02 0.  0.
         12    1    1    2    0    0 -0.52186896884E+00  0.91308760705E+00  0.53560896414E+00  0.11802343671E+01  0.00000000000E+00 0. -1.
         11    1    3    3    0    0 -0.89875280699E+01 -0.35816438738E+01  0.43196780584E+01  0.10595444891E+02  0.51100000000E-03 0. -1.
        -11    1    3    3    0    0 -0.13632449742E+02 -0.33504819566E+02 -0.46469831141E+01  0.36469316863E+02  0.51100000000E-03 0.  1.
         12    1    3    3    0    0  0.23141846781E+02  0.36173375833E+02 -0.20830390847E+00  0.42943003879E+02  0.00000000000E+00 0. -1.
</event>
<event>
 7    1  0.1935465E-015  0.9000771E+02  0.7816164E-02  0.1186339E+00
        -11   -1    0    0    0    0  0.00000000000E+00  0.00000000000E+00  0.45593999997E+02  0.45594000000E+02  0.51100000000E-03 0. -1.
         11   -1    0    0    0    0 -0.00000000000E+00 -0.00000000000E+00 -0.45593999997E+02  0.45594000000E+02  0.51100000000E-03 0.  1.
    9900012    2    1    2    0    0 -0.74220819214E-01 -0.11690720986E+01  0.14440604305E+00  0.90007707067E+02  0.89999968001E+02 0.  0.
         12    1    1    2    0    0  0.74220819214E-01  0.11690720986E+01 -0.14440604305E+00  0.11802929327E+01  0.00000000000E+00 0. -1.
         11    1    3    3    0    0 -0.29128884680E+02  0.16828622764E+02  0.14457439084E+02  0.36615734486E+02  0.51100000000E-03 0. -1.
        -11    1    3    3    0    0 -0.16168242971E+01  0.82393803982E+01  0.37208190230E+01  0.91840080911E+01  0.51100000000E-03 0.  1.
        -12    1    3    3    0    0  0.30671488158E+02 -0.26237075261E+02 -0.18033852063E+02  0.44207964490E+02  0.00000000000E+00 0.  1.
</event>
<event>
 7    1  0.1935465E-015  0.9000772E+02  0.7816164E-02  0.1186339E+00
        -11   -1    0    0    0    0  0.00000000000E+00  0.00000000000E+00  0.45593999997E+02  0.45594000000E+02  0.51100000000E-03 0.  1.
         11   -1    0    0    0    0 -0.00000000000E+00 -0.00000000000E+00 -0.45593999997E+02  0.45594000000E+02  0.51100000000E-03 0. -1.
    9900012    2    1    2    0    0 -0.59527292249E+00 -0.46468239033E+00  0.90707211580E+00  0.90007720627E+02  0.89999981739E+02 0.  0.
         12    1    1    2    0    0  0.59527292249E+00  0.46468239033E+00 -0.90707211580E+00  0.11802793735E+01  0.00000000000E+00 0. -1.
         11    1    3    3    0    0  0.29356734804E+01 -0.36296044954E+02 -0.17584193037E+02  0.40437914178E+02  0.51100000000E-03 0. -1.
        -11    1    3    3    0    0 -0.41028418351E+01  0.64874588888E+01 -0.72297517919E+01  0.10544654816E+02  0.51100000000E-03 0.  1.
        -12    1    3    3    0    0  0.57189543220E+00  0.29343903674E+02  0.25721016945E+02  0.39025151632E+02  0.00000000000E+00 0.  1.
</event>
<event>
 7    1  0.1935465E-015  0.9000773E+02  0.7816164E-02  0.1186339E+00
        -11   -1    0    0    0    0  0.00000000000E+00  0.00000000000E+00  0.45593999997E+02  0.45594000000E+02  0.51100000000E-03 0. -1.
         11   -1    0    0    0    0 -0.00000000000E+00 -0.00000000000E+00 -0.45593999997E+02  0.45594000000E+02  0.51100000000E-03 0.  1.
    9900012    2    1    2    0    0 -0.17815878424E+00  0.32377763804E+00 -0.11209266370E+01  0.90007725016E+02  0.89999986187E+02 0.  0.
         12    1    1    2    0    0  0.17815878424E+00 -0.32377763804E+00  0.11209266370E+01  0.11802749836E+01  0.00000000000E+00 0. -1.
         11    1    3    3    0    0 -0.12281345448E+00 -0.16122095460E+02  0.13625226483E+00  0.16123138965E+02  0.51100000000E-03 0. -1.
        -11    1    3    3    0    0  0.23787819161E+02 -0.18146242359E+02 -0.88289706503E+01  0.31194505529E+02  0.51100000000E-03 0.  1.
         12    1    3    3    0    0 -0.23843164491E+02  0.34592115457E+02  0.75717917485E+01  0.42690080522E+02  0.00000000000E+00 0. -1.
</event>
<event>
 7    1  0.1935465E-015  0.9000767E+02  0.7816164E-02  0.1186339E+00
        -11   -1    0    0    0    0  0.00000000000E+00  0.00000000000E+00  0.45593999997E+02  0.45594000000E+02  0.51100000000E-03 0.  1.
         11   -1    0    0    0    0 -0.00000000000E+00 -0.00000000000E+00 -0.45593999997E+02  0.45594000000E+02  0.51100000000E-03 0. -1.
    9900012    2    1    2    0    0 -0.86558526228E+00 -0.68102333543E+00  0.42443470014E+00  0.90007671468E+02  0.89999931931E+02 0.  0.
         12    1    1    2    0    0  0.86558526228E+00  0.68102333543E+00 -0.42443470014E+00  0.11803285324E+01  0.00000000000E+00 0. -1.
         11    1    3    3    0    0  0.46939142258E+01  0.58117898591E+01 -0.53992226836E+01  0.92174474761E+01  0.51100000000E-03 0. -1.
        -11    1    3    3    0    0 -0.16921279525E+02 -0.15596468065E+02  0.38592405558E+02  0.44932764035E+02  0.51100000000E-03 0.  1.
         12    1    3    3    0    0  0.11361780037E+02  0.91036548707E+01 -0.32768748174E+02  0.35857459956E+02  0.00000000000E+00 0. -1.
</event>
<event>
 7    1  0.1935465E-015  0.9000788E+02  0.7816164E-02  0.1186339E+00
        -11   -1    0    0    0    0  0.00000000000E+00  0.00000000000E+00  0.45593999997E+02  0.45594000000E+02  0.51100000000E-03 0.  1.
         11   -1    0    0    0    0 -0.00000000000E+00 -0.00000000000E+00 -0.45593999997E+02  0.45594000000E+02  0.51100000000E-03 0. -1.
    9900012    2    1    2    0    0  0.11060051865E+01  0.18269542190E+00  0.36887135816E+00  0.90007876630E+02  0.90000139801E+02 0.  0.
         12    1    1    2    0    0 -0.11060051865E+01 -0.18269542190E+00 -0.36887135816E+00  0.11801233701E+01  0.00000000000E+00 0. -1.
         11    1    3    3    0    0  0.30605901244E+02 -0.24053002475E+02 -0.12611130086E+02  0.40918317675E+02  0.51100000000E-03 0. -1.
        -11    1    3    3    0    0 -0.26677034715E+01 -0.40775466689E+01  0.85368028164E+01  0.98295488827E+01  0.51100000000E-03 0.  1.
        -12    1    3    3    0    0 -0.26832192586E+02  0.28313244566E+02  0.44431986279E+01  0.39260010072E+02  0.00000000000E+00 0.  1.
</event>
<event>
 7    1  0.1935465E-015  0.9000773E+02  0.7816164E-02  0.1186339E+00
        -11   -1    0    0    0    0  0.00000000000E+00  0.00000000000E+00  0.45593999997E+02  0.45594000000E+02  0.51100000000E-03 0.  1.
         11   -1    0    0    0    0 -0.00000000000E+00 -0.00000000000E+00 -0.45593999997E+02  0.45594000000E+02  0.51100000000E-03 0. -1.
    9900012    2    1    2    0    0  0.54844683625E+00  0.99347652102E-01  0.10403756584E+01  0.90007726558E+02  0.89999987748E+02 0.  0.
         12    1    1    2    0    0 -0.54844683625E+00 -0.99347652102E-01 -0.10403756584E+01  0.11802734424E+01  0.00000000000E+00 0. -1.
         11    1    3    3    0    0  0.20116686553E+01 -0.21312918031E+01  0.95433986222E+01  0.99832696574E+01  0.51100000000E-03 0. -1.
        -11    1    3    3    0    0  0.14616560219E+02 -0.10847041614E+02  0.30693935578E+02  0.35685008420E+02  0.51100000000E-03 0.  1.
         12    1    3    3    0    0 -0.16079782038E+02  0.13077681069E+02 -0.39196958542E+02  0.44339448480E+02  0.00000000000E+00 0. -1.
</event>
<event>
 7    1  0.1935465E-015  0.9000798E+02  0.7816164E-02  0.1186339E+00
        -11   -1    0    0    0    0  0.00000000000E+00  0.00000000000E+00  0.45593999997E+02  0.45594000000E+02  0.51100000000E-03 0.  1.
         11   -1    0    0    0    0 -0.00000000000E+00 -0.00000000000E+00 -0.45593999997E+02  0.45594000000E+02  0.51100000000E-03 0. -1.
    9900012    2    1    2    0    0 -0.70385661277E+00  0.94493200259E+00  0.64241415404E-01  0.90007984076E+02  0.90000248666E+02 0.  0.
         12    1    1    2    0    0  0.70385661277E+00 -0.94493200259E+00 -0.64241415404E-01  0.11800159237E+01  0.00000000000E+00 0. -1.
         11    1    3    3    0    0 -0.51911769580E+01 -0.73519652405E+01  0.25634523672E+01  0.93579377753E+01  0.51100000000E-03 0. -1.
        -11    1    3    3    0    0 -0.30754816194E+02 -0.18729041542E+02  0.16371181153E+01  0.36046024361E+02  0.51100000000E-03 0.  1.
         12    1    3    3    0    0  0.35242136539E+02  0.27025938786E+02 -0.41363290671E+01  0.44604021940E+02  0.00000000000E+00 0. -1.
</event>
<event>
 7    1  0.1935465E-015  0.9000778E+02  0.7816164E-02  0.1186339E+00
        -11   -1    0    0    0    0  0.00000000000E+00  0.00000000000E+00  0.45593999997E+02  0.45594000000E+02  0.51100000000E-03 0. -1.
         11   -1    0    0    0    0 -0.00000000000E+00 -0.00000000000E+00 -0.45593999997E+02  0.45594000000E+02  0.51100000000E-03 0.  1.
    9900012    2    1    2    0    0 -0.44216530577E+00  0.71748188673E+00 -0.82620677981E+00  0.90007784741E+02  0.90000046699E+02 0.  0.
         12    1    1    2    0    0  0.44216530577E+00 -0.71748188673E+00  0.82620677981E+00  0.11802152594E+01  0.00000000000E+00 0. -1.
         11    1    3    3    0    0 -0.38851801722E+02  0.62170527971E+01 -0.26956824660E+01  0.39438318255E+02  0.51100000000E-03 0. -1.
        -11    1    3    3    0    0  0.94030066560E+00  0.74954483164E+01 -0.65828229662E+01  0.10019953556E+02  0.51100000000E-03 0.  1.
        -12    1    3    3    0    0  0.37469335751E+02 -0.12995019227E+02  0.84522986524E+01  0.40549512930E+02  0.00000000000E+00 0.  1.
</event>
<event>
 7    1  0.1935465E-015  0.9000770E+02  0.7816164E-02  0.1186339E+00
        -11   -1    0    0    0    0  0.00000000000E+00  0.00000000000E+00  0.45593999997E+02  0.45594000000E+02  0.51100000000E-03 0. -1.
         11   -1    0    0    0    0 -0.00000000000E+00 -0.00000000000E+00 -0.45593999997E+02  0.45594000000E+02  0.51100000000E-03 0.  1.
    9900012    2    1    2    0    0  0.79884466099E+00  0.61663158182E+00  0.61214622959E+00  0.90007699061E+02  0.89999959889E+02 0.  0.
         12    1    1    2    0    0 -0.79884466099E+00 -0.61663158182E+00 -0.61214622959E+00  0.11803009390E+01  0.00000000000E+00 0. -1.
         11    1    3    3    0    0 -0.32732648751E+02 -0.81012073158E+01  0.19808552612E+02  0.39107986538E+02  0.51100000000E-03 0. -1.
        -11    1    3    3    0    0  0.48526043082E+01  0.35007184551E+01  0.86956271110E+01  0.10555412327E+02  0.51100000000E-03 0.  1.
        -12    1    3    3    0    0  0.28678889104E+02  0.52171204425E+01 -0.27892033493E+02  0.40344300196E+02  0.00000000000E+00 0.  1.
</event>
<event>
 7    1  0.1935465E-015  0.9000721E+02  0.7816164E-02  0.1186340E+00
        -11   -1    0    0    0    0  0.00000000000E+00  0.00000000000E+00  0.45593999997E+02  0.45594000000E+02  0.51100000000E-03 0.  1.
         11   -1    0    0    0    0 -0.00000000000E+00 -0.00000000000E+00 -0.45593999997E+02  0.45594000000E+02  0.51100000000E-03 0. -1.
    9900012    2    1    2    0    0 -0.58226330847E+00  0.10271781767E+01 -0.11649210346E-01  0.90007211589E+02  0.89999465981E+02 0.  0.
         12    1    1    2    0    0  0.58226330847E+00 -0.10271781767E+01  0.11649210346E-01  0.11807884108E+01  0.00000000000E+00 0. -1.
         11    1    3    3    0    0  0.11348620700E+02 -0.27467635612E+02 -0.23991945296E+02  0.38195230556E+02  0.51100000000E-03 0. -1.
        -11    1    3    3    0    0  0.20749497189E+00 -0.77247576277E+01  0.41924204456E+01  0.87915484429E+01  0.51100000000E-03 0.  1.
        -12    1    3    3    0    0 -0.12138378980E+02  0.36219571417E+02  0.19787875640E+02  0.43020432590E+02  0.00000000000E+00 0.  1.
</event>
<event>
 7    1  0.1940123E-015  0.9000772E+02  0.7816164E-02  0.1186339E+00
        -11   -1    0    0    0    0  0.00000000000E+00  0.00000000000E+00  0.45593999997E+02  0.45594000000E+02  0.51100000000E-03 0.  1.
         11   -1    0    0    0    0 -0.00000000000E+00 -0.00000000000E+00 -0.45593999997E+02  0.45594000000E+02  0.51100000000E-03 0. -1.
    9900012    2    1    2    0    0 -0.39400343867E+00  0.74786383123E+00  0.82372631276E+00  0.90007718653E+02  0.89999979739E+02 0.  0.
         12    1    1    2    0    0  0.39400343867E+00 -0.74786383123E+00 -0.82372631276E+00  0.11802813470E+01  0.00000000000E+00 0. -1.
         11    1    3    3    0    0  0.46164379866E+01 -0.49216414331E+01  0.68401577713E+01  0.96084240476E+01  0.51100000000E-03 0. -1.
        -11    1    3    3    0    0  0.13290037826E+02 -0.28856470670E+02  0.15974746081E+02  0.35559998841E+02  0.51100000000E-03 0.  1.
         12    1    3    3    0    0 -0.18300479251E+02  0.34525975935E+02 -0.21991177540E+02  0.44839295764E+02  0.00000000000E+00 0. -1.
</event>
<event>
 7    1  0.1935465E-015  0.9000772E+02  0.7816164E-02  0.1186339E+00
        -11   -1    0    0    0    0  0.00000000000E+00  0.00000000000E+00  0.45593999997E+02  0.45594000000E+02  0.51100000000E-03 0.  1.
         11   -1    0    0    0    0 -0.00000000000E+00 -0.00000000000E+00 -0.45593999997E+02  0.45594000000E+02  0.51100000000E-03 0. -1.
    9900012    2    1    2    0    0 -0.50442427725E+00  0.72591237540E+00  0.78208816163E+00  0.90007722693E+02  0.89999983833E+02 0.  0.
         12    1    1    2    0    0  0.50442427725E+00 -0.72591237540E+00 -0.78208816163E+00  0.11802773067E+01  0.00000000000E+00 0. -1.
         11    1    3    3    0    0  0.12175554559E+02 -0.28865592607E+02 -0.12492020643E+01  0.31353262532E+02  0.51100000000E-03 0. -1.
        -11    1    3    3    0    0  0.53051609163E+01 -0.11289243407E+02 -0.50072968471E+01  0.13441159587E+02  0.51100000000E-03 0.  1.
        -12    1    3    3    0    0 -0.17985139753E+02  0.40880748390E+02  0.70385870730E+01  0.45213300574E+02  0.00000000000E+00 0.  1.
</event>
<event>
 7    1  0.1935465E-015  0.9000778E+02  0.7816164E-02  0.1186339E+00
        -11   -1    0    0    0    0  0.00000000000E+00  0.00000000000E+00  0.45593999997E+02  0.45594000000E+02  0.51100000000E-03 0. -1.
         11   -1    0    0    0    0 -0.00000000000E+00 -0.00000000000E+00 -0.45593999997E+02  0.45594000000E+02  0.51100000000E-03 0.  1.
    9900012    2    1    2    0    0 -0.95475562708E+00  0.68020441047E+00 -0.13664472318E+00  0.90007784711E+02  0.90000046669E+02 0.  0.
         12    1    1    2    0    0  0.95475562708E+00 -0.68020441047E+00  0.13664472318E+00  0.11802152888E+01  0.00000000000E+00 0. -1.
         11    1    3    3    0    0 -0.80340570567E+01 -0.22014789524E+02  0.36023174491E+02  0.42975180409E+02  0.51100000000E-03 0. -1.
        -11    1    3    3    0    0  0.39264034075E+01  0.91224465704E+01 -0.19872551944E+01  0.10128418367E+02  0.51100000000E-03 0.  1.
        -12    1    3    3    0    0  0.31528980221E+01  0.13572547364E+02 -0.34172564019E+02  0.36904185935E+02  0.00000000000E+00 0.  1.
</event>
<event>
 7    1  0.1935465E-015  0.9000775E+02  0.7816164E-02  0.1186339E+00
        -11   -1    0    0    0    0  0.00000000000E+00  0.00000000000E+00  0.45593999997E+02  0.45594000000E+02  0.51100000000E-03 0.  1.
         11   -1    0    0    0    0 -0.00000000000E+00 -0.00000000000E+00 -0.45593999997E+02  0.45594000000E+02  0.51100000000E-03 0. -1.
    9900012    2    1    2    0    0  0.99577351340E+00  0.28727892248E+00  0.56470702268E+00  0.90007750835E+02  0.90000012346E+02 0.  0.
         12    1    1    2    0    0 -0.99577351340E+00 -0.28727892248E+00 -0.56470702268E+00  0.11802491647E+01  0.00000000000E+00 0. -1.
         11    1    3    3    0    0 -0.32709688879E+02  0.81875962856E+00  0.20978836676E+02  0.38867797756E+02  0.51100000000E-03 0. -1.
        -11    1    3    3    0    0  0.30372710633E+01 -0.12779495376E-02  0.84760041778E+01  0.90037583391E+01  0.51100000000E-03 0.  1.
        -12    1    3    3    0    0  0.30668191329E+02 -0.53020275654E+00 -0.28890133832E+02  0.42136194740E+02  0.00000000000E+00 0.  1.
</event>
<event>
 7    1  0.1935465E-015  0.9000774E+02  0.7816164E-02  0.1186339E+00
        -11   -1    0    0    0    0  0.00000000000E+00  0.00000000000E+00  0.45593999997E+02  0.45594000000E+02  0.51100000000E-03 0.  1.
         11   -1    0    0    0    0 -0.00000000000E+00 -0.00000000000E+00 -0.45593999997E+02  0.45594000000E+02  0.51100000000E-03 0. -1.
    9900012    2    1    2    0    0 -0.73634044610E+00  0.45105916955E+00  0.80459401502E+00  0.90007735980E+02  0.89999997295E+02 0.  0.
         12    1    1    2    0    0  0.73634044610E+00 -0.45105916955E+00 -0.80459401502E+00  0.11802640196E+01  0.00000000000E+00 0. -1.
         11    1    3    3    0    0 -0.65317095215E+00  0.70488365299E+01  0.70022042132E+01  0.99570875673E+01  0.51100000000E-03 0. -1.
        -11    1    3    3    0    0  0.10394000352E+02 -0.41745999428E+02 -0.54702894837E+01  0.43366897270E+02  0.51100000000E-03 0.  1.
         12    1    3    3    0    0 -0.10477169846E+02  0.35148222068E+02 -0.72732071453E+00  0.36683751143E+02  0.00000000000E+00 0. -1.
</event>
<event>
 7    1  0.1935465E-015  0.9000772E+02  0.7816164E-02  0.1186339E+00
        -11   -1    0    0    0    0  0.00000000000E+00  0.00000000000E+00  0.45593999997E+02  0.45594000000E+02  0.51100000000E-03 0. -1.
         11   -1    0    0    0    0 -0.00000000000E+00 -0.00000000000E+00 -0.45593999997E+02  0.45594000000E+02  0.51100000000E-03 0.  1.
    9900012    2    1    2    0    0 -0.86491921379E+00 -0.34216924553E+00 -0.72656273184E+00  0.90007721032E+02  0.89999982150E+02 0.  0.
         12    1    1    2    0    0  0.86491921379E+00  0.34216924553E+00  0.72656273184E+00  0.11802789680E+01  0.00000000000E+00 0. -1.
         11    1    3    3    0    0 -0.23064822355E+02  0.15332582602E+02 -0.21839000906E+02  0.35270612134E+02  0.51100000000E-03 0. -1.
        -11    1    3    3    0    0 -0.37136824806E+01  0.73435998697E+01 -0.64481196697E+01  0.10454575273E+02  0.51100000000E-03 0.  1.
        -12    1    3    3    0    0  0.25913585621E+02 -0.23018351717E+02  0.27560557844E+02  0.44282533624E+02  0.00000000000E+00 0.  1.
</event>
<event>
 7    1  0.1935465E-015  0.9000760E+02  0.7816164E-02  0.1186339E+00
        -11   -1    0    0    0    0  0.00000000000E+00  0.00000000000E+00  0.45593999997E+02  0.45594000000E+02  0.51100000000E-03 0.  1.
         11   -1    0    0    0    0 -0.00000000000E+00 -0.00000000000E+00 -0.45593999997E+02  0.45594000000E+02  0.51100000000E-03 0. -1.
    9900012    2    1    2    0    0  0.40283975280E+00 -0.35341968065E+00 -0.10517382091E+01  0.90007602356E+02  0.89999861907E+02 0.  0.
         12    1    1    2    0    0 -0.40283975280E+00  0.35341968065E+00  0.10517382091E+01  0.11803976439E+01  0.00000000000E+00 0. -1.
         11    1    3    3    0    0  0.29477780607E+02  0.11862319261E+02 -0.10457198591E+02  0.33451564543E+02  0.51100000000E-03 0. -1.
        -11    1    3    3    0    0  0.10322879492E+02  0.13284133350E+01 -0.61459919372E+01  0.12087172546E+02  0.51100000000E-03 0.  1.
        -12    1    3    3    0    0 -0.39397820346E+02 -0.13544152277E+02  0.15551452319E+02  0.44468865267E+02  0.00000000000E+00 0.  1.
</event>
<event>
 7    1  0.1935465E-015  0.9000775E+02  0.7816164E-02  0.1186339E+00
        -11   -1    0    0    0    0  0.00000000000E+00  0.00000000000E+00  0.45593999997E+02  0.45594000000E+02  0.51100000000E-03 0. -1.
         11   -1    0    0    0    0 -0.00000000000E+00 -0.00000000000E+00 -0.45593999997E+02  0.45594000000E+02  0.51100000000E-03 0.  1.
    9900012    2    1    2    0    0 -0.11281959394E+01  0.20426532383E+00  0.28007172609E+00  0.90007749784E+02  0.90000011281E+02 0.  0.
         12    1    1    2    0    0  0.11281959394E+01 -0.20426532383E+00 -0.28007172609E+00  0.11802502158E+01  0.00000000000E+00 0. -1.
         11    1    3    3    0    0 -0.25163626903E+02 -0.17847092622E+02  0.18519195326E+02  0.35981765240E+02  0.51100000000E-03 0. -1.
        -11    1    3    3    0    0 -0.32535712253E+01 -0.69955088134E+01  0.59873988302E+01  0.97658493890E+01  0.51100000000E-03 0.  1.
        -12    1    3    3    0    0  0.27289002189E+02  0.25046866759E+02 -0.24226522431E+02  0.44260135155E+02  0.00000000000E+00 0.  1.
</event>
<event>
 7    1  0.1935465E-015  0.9000774E+02  0.7816164E-02  0.1186339E+00
        -11   -1    0    0    0    0  0.00000000000E+00  0.00000000000E+00  0.45593999997E+02  0.45594000000E+02  0.51100000000E-03 0. -1.
         11   -1    0    0    0    0 -0.00000000000E+00 -0.00000000000E+00 -0.45593999997E+02  0.45594000000E+02  0.51100000000E-03 0.  1.
    9900012    2    1    2    0    0  0.73898254178E+00 -0.30222980140E+00 -0.86923721897E+00  0.90007740964E+02  0.90000002344E+02 0.  0.
         12    1    1    2    0    0 -0.73898254178E+00  0.30222980140E+00  0.86923721897E+00  0.11802590363E+01  0.00000000000E+00 0. -1.
         11    1    3    3    0    0 -0.34488574487E+02 -0.11486203605E+02  0.12310407630E+02  0.38378910611E+02  0.51100000000E-03 0. -1.
        -11    1    3    3    0    0  0.15776886025E+01 -0.92578565496E+01  0.16899579401E+01  0.95421678522E+01  0.51100000000E-03 0.  1.
        -12    1    3    3    0    0  0.33649868427E+02  0.20441830353E+02 -0.14869602789E+02  0.42086662500E+02  0.00000000000E+00 0.  1.
</event>
<event>
 7    1  0.1935465E-015  0.9000770E+02  0.7816164E-02  0.1186339E+00
        -11   -1    0    0    0    0  0.00000000000E+00  0.00000000000E+00  0.45593999997E+02  0.45594000000E+02  0.51100000000E-03 0. -1.
         11   -1    0    0    0    0 -0.00000000000E+00 -0.00000000000E+00 -0.45593999997E+02  0.45594000000E+02  0.51100000000E-03 0.  1.
    9900012    2    1    2    0    0 -0.10772179277E+01  0.23999800479E+00 -0.41845801977E+00  0.90007701470E+02  0.89999962329E+02 0.  0.
         12    1    1    2    0    0  0.10772179277E+01 -0.23999800479E+00  0.41845801977E+00  0.11802985302E+01  0.00000000000E+00 0. -1.
         11    1    3    3    0    0  0.14148214730E+02 -0.39827469431E+02  0.28414128913E+01  0.42361219633E+02  0.51100000000E-03 0. -1.
        -11    1    3    3    0    0  0.51465494197E+01  0.81867084224E+01 -0.13574733461E+01  0.97648297409E+01  0.51100000000E-03 0.  1.
        -12    1    3    3    0    0 -0.20371982078E+02  0.31880759013E+02 -0.19023975650E+01  0.37881652096E+02  0.00000000000E+00 0.  1.
</event>
<event>
 7    1  0.1935465E-015  0.9000780E+02  0.7816164E-02  0.1186339E+00
        -11   -1    0    0    0    0  0.00000000000E+00  0.00000000000E+00  0.45593999997E+02  0.45594000000E+02  0.51100000000E-03 0. -1.
         11   -1    0    0    0    0 -0.00000000000E+00 -0.00000000000E+00 -0.45593999997E+02  0.45594000000E+02  0.51100000000E-03 0.  1.
    9900012    2    1    2    0    0 -0.28920764333E+00 -0.56628010270E+00 -0.99425840449E+00  0.90007803410E+02  0.90000065615E+02 0.  0.
         12    1    1    2    0    0  0.28920764333E+00  0.56628010270E+00  0.99425840449E+00  0.11801965898E+01  0.00000000000E+00 0. -1.
         11    1    3    3    0    0  0.24643837435E+02 -0.56044641999E+01  0.24629090030E+02  0.35289103396E+02  0.51100000000E-03 0. -1.
        -11    1    3    3    0    0  0.36546815124E+00 -0.44724517747E+01  0.94374099002E+01  0.10449932906E+02  0.51100000000E-03 0.  1.
        -12    1    3    3    0    0 -0.25298513230E+02  0.95106358719E+01 -0.35060758335E+02  0.44268767109E+02  0.00000000000E+00 0.  1.
</event>
<event>
 7    1  0.1935465E-015  0.9000778E+02  0.7816164E-02  0.1186339E+00
        -11   -1    0    0    0    0  0.00000000000E+00  0.00000000000E+00  0.45593999997E+02  0.45594000000E+02  0.51100000000E-03 0. -1.
         11   -1    0    0    0    0 -0.00000000000E+00 -0.00000000000E+00 -0.45593999997E+02  0.45594000000E+02  0.51100000000E-03 0.  1.
    9900012    2    1    2    0    0  0.46194300925E+00 -0.83350663612E+00 -0.69626878273E+00  0.90007781853E+02  0.90000043774E+02 0.  0.
         12    1    1    2    0    0 -0.46194300925E+00  0.83350663612E+00  0.69626878273E+00  0.11802181468E+01  0.00000000000E+00 0. -1.
         11    1    3    3    0    0 -0.27908096102E+02 -0.23283720868E+02 -0.14420195958E+01  0.36374069146E+02  0.51100000000E-03 0. -1.
        -11    1    3    3    0    0  0.86476468829E+00 -0.83521000903E+01 -0.78029358849E+01  0.11462600166E+02  0.51100000000E-03 0.  1.
        -12    1    3    3    0    0  0.27505274422E+02  0.30802314322E+02  0.85486866979E+01  0.42171112541E+02  0.00000000000E+00 0.  1.
</event>
<event>
 7    1  0.1935465E-015  0.9000804E+02  0.7816164E-02  0.1186338E+00
        -11   -1    0    0    0    0  0.00000000000E+00  0.00000000000E+00  0.45593999997E+02  0.45594000000E+02  0.51100000000E-03 0.  1.
         11   -1    0    0    0    0 -0.00000000000E+00 -0.00000000000E+00 -0.45593999997E+02  0.45594000000E+02  0.51100000000E-03 0. -1.
    9900012    2    1    2    0    0  0.62576248749E+00 -0.15264978079E+00  0.98864929808E+00  0.90008038949E+02  0.90000304263E+02 0.  0.
         12    1    1    2    0    0 -0.62576248749E+00  0.15264978079E+00 -0.98864929808E+00  0.11799610506E+01  0.00000000000E+00 0. -1.
         11    1    3    3    0    0  0.10549613724E+02  0.13558610848E+01  0.37582031193E+01  0.11280815571E+02  0.51100000000E-03 0. -1.
        -11    1    3    3    0    0 -0.95443499926E+01  0.21478217944E+02  0.30364821767E+02  0.38398318506E+02  0.51100000000E-03 0.  1.
         12    1    3    3    0    0 -0.37950124385E+00 -0.22986728810E+02 -0.33134375589E+02  0.40328904872E+02  0.00000000000E+00 0. -1.
</event>
<event>
 7    1  0.1935465E-015  0.9000763E+02  0.7816164E-02  0.1186339E+00
        -11   -1    0    0    0    0  0.00000000000E+00  0.00000000000E+00  0.45593999997E+02  0.45594000000E+02  0.51100000000E-03 0. -1.
         11   -1    0    0    0    0 -0.00000000000E+00 -0.00000000000E+00 -0.45593999997E+02  0.45594000000E+02  0.51100000000E-03 0.  1.
    9900012    2    1    2    0    0 -0.10916005600E+01 -0.81157579086E-01 -0.44170201255E+00  0.90007627600E+02  0.89999887484E+02 0.  0.
         12    1    1    2    0    0  0.10916005600E+01  0.81157579086E-01  0.44170201255E+00  0.11803724002E+01  0.00000000000E+00 0. -1.
         11    1    3    3    0    0  0.32993020450E+01 -0.89792304589E+01 -0.28238764688E+01  0.99742795324E+01  0.51100000000E-03 0. -1.
        -11    1    3    3    0    0  0.21449271814E+02 -0.24249311603E+02 -0.13536490183E+02  0.35090410959E+02  0.51100000000E-03 0.  1.
         12    1    3    3    0    0 -0.25840174419E+02  0.33147384483E+02  0.15918664639E+02  0.44942937108E+02  0.00000000000E+00 0. -1.
</event>
<event>
 7    1  0.1935465E-015  0.9000771E+02  0.7816164E-02  0.1186339E+00
        -11   -1    0    0    0    0  0.00000000000E+00  0.00000000000E+00  0.45593999997E+02  0.45594000000E+02  0.51100000000E-03 0. -1.
         11   -1    0    0    0    0 -0.00000000000E+00 -0.00000000000E+00 -0.45593999997E+02  0.45594000000E+02  0.51100000000E-03 0.  1.
    9900012    2    1    2    0    0 -0.28272079729E+00  0.11447612965E+01  0.51778566114E-01  0.90007707454E+02  0.89999968392E+02 0.  0.
         12    1    1    2    0    0  0.28272079729E+00 -0.11447612965E+01 -0.51778566114E-01  0.11802925464E+01  0.00000000000E+00 0. -1.
         11    1    3    3    0    0 -0.43699424312E+01 -0.33775475839E+02  0.10948937623E+02  0.35773711023E+02  0.51100000000E-03 0. -1.
        -11    1    3    3    0    0 -0.35760346382E+01 -0.76236780009E-01  0.11459584010E+02  0.12004828267E+02  0.51100000000E-03 0.  1.
        -12    1    3    3    0    0  0.76632562721E+01  0.34996473916E+02 -0.22356743067E+02  0.42229168164E+02  0.00000000000E+00 0.  1.
</event>
<event>
 7    1  0.1935465E-015  0.9000768E+02  0.7816164E-02  0.1186339E+00
        -11   -1    0    0    0    0  0.00000000000E+00  0.00000000000E+00  0.45593999997E+02  0.45594000000E+02  0.51100000000E-03 0.  1.
         11   -1    0    0    0    0 -0.00000000000E+00 -0.00000000000E+00 -0.45593999997E+02  0.45594000000E+02  0.51100000000E-03 0. -1.
    9900012    2    1    2    0    0  0.95078571409E+00 -0.61392311887E+00  0.33504193966E+00  0.90007683021E+02  0.89999943637E+02 0.  0.
         12    1    1    2    0    0 -0.95078571409E+00  0.61392311887E+00 -0.33504193966E+00  0.11803169792E+01  0.00000000000E+00 0. -1.
         11    1    3    3    0    0  0.24570514254E+02  0.32156261548E+02  0.32451309582E+01  0.40598844844E+02  0.51100000000E-03 0. -1.
        -11    1    3    3    0    0  0.19055756187E+01 -0.20804269893E+01 -0.86338624300E+01  0.90831148631E+01  0.51100000000E-03 0.  1.
        -12    1    3    3    0    0 -0.25525304159E+02 -0.30689757678E+02  0.57237734115E+01  0.40325723314E+02  0.00000000000E+00 0.  1.
</event>
<event>
 7    1  0.1935465E-015  0.9000791E+02  0.7816164E-02  0.1186339E+00
        -11   -1    0    0    0    0  0.00000000000E+00  0.00000000000E+00  0.45593999997E+02  0.45594000000E+02  0.51100000000E-03 0.  1.
         11   -1    0    0    0    0 -0.00000000000E+00 -0.00000000000E+00 -0.45593999997E+02  0.45594000000E+02  0.51100000000E-03 0. -1.
    9900012    2    1    2    0    0 -0.46049757597E+00  0.73680817668E+00 -0.79853693170E+00  0.90007912911E+02  0.90000176561E+02 0.  0.
         12    1    1    2    0    0  0.46049757597E+00 -0.73680817668E+00  0.79853693170E+00  0.11800870892E+01  0.00000000000E+00 0. -1.
         11    1    3    3    0    0  0.36646753117E+02 -0.10777459394E+02 -0.11936570624E+02  0.40020243172E+02  0.51100000000E-03 0. -1.
        -11    1    3    3    0    0  0.32474273199E+01  0.74903045802E+01  0.22866499399E+01  0.84781610690E+01  0.51100000000E-03 0.  1.
        -12    1    3    3    0    0 -0.40354678013E+02  0.40239629902E+01  0.88513837526E+01  0.41509508670E+02  0.00000000000E+00 0.  1.
</event>
<event>
 7    1  0.1935465E-015  0.9000779E+02  0.7816164E-02  0.1186339E+00
        -11   -1    0    0    0    0  0.00000000000E+00  0.00000000000E+00  0.45593999997E+02  0.45594000000E+02  0.51100000000E-03 0.  1.
         11   -1    0    0    0    0 -0.00000000000E+00 -0.00000000000E+00 -0.45593999997E+02  0.45594000000E+02  0.51100000000E-03 0. -1.
    9900012    2    1    2    0    0 -0.11362157686E+01  0.94960669663E-01  0.30477607381E+00  0.90007791435E+02  0.90000053482E+02 0.  0.
         12    1    1    2    0    0  0.11362157686E+01 -0.94960669663E-01 -0.30477607381E+00  0.11802085650E+01  0.00000000000E+00 0. -1.
         11    1    3    3    0    0  0.18355125630E+02  0.77865304179E+01 -0.34386415885E+02  0.39748789799E+02  0.51100000000E-03 0. -1.
        -11    1    3    3    0    0  0.60307146585E+01  0.46739222356E+01  0.10522858386E+02  0.12997908187E+02  0.51100000000E-03 0.  1.
        -12    1    3    3    0    0 -0.25522056057E+02 -0.12365491984E+02  0.24168333572E+02  0.37261093449E+02  0.00000000000E+00 0.  1.
</event>
<event>
 7    1  0.1935465E-015  0.9000773E+02  0.7816164E-02  0.1186339E+00
        -11   -1    0    0    0    0  0.00000000000E+00  0.00000000000E+00  0.45593999997E+02  0.45594000000E+02  0.51100000000E-03 0.  1.
         11   -1    0    0    0    0 -0.00000000000E+00 -0.00000000000E+00 -0.45593999997E+02  0.45594000000E+02  0.51100000000E-03 0. -1.
    9900012    2    1    2    0    0 -0.96876827768E+00  0.51460722406E+00  0.43556057483E+00  0.90007726479E+02  0.89999987668E+02 0.  0.
         12    1    1    2    0    0  0.96876827768E+00 -0.51460722406E+00 -0.43556057483E+00  0.11802735214E+01  0.00000000000E+00 0. -1.
         11    1    3    3    0    0 -0.16243456546E+01  0.34466537548E+01  0.76058534280E+01  0.85068753100E+01  0.51100000000E-03 0. -1.
        -11    1    3    3    0    0 -0.13004335668E+02  0.89180907408E+00  0.34819714244E+02  0.37179571944E+02  0.51100000000E-03 0.  1.
         12    1    3    3    0    0  0.13659913045E+02 -0.38238556048E+01 -0.41990007098E+02  0.44321279225E+02  0.00000000000E+00 0. -1.
</event>
<event>
 7    1  0.1935465E-015  0.9000773E+02  0.7816164E-02  0.1186339E+00
        -11   -1    0    0    0    0  0.00000000000E+00  0.00000000000E+00  0.45593999997E+02  0.45594000000E+02  0.51100000000E-03 0. -1.
         11   -1    0    0    0    0 -0.00000000000E+00 -0.00000000000E+00 -0.45593999997E+02  0.45594000000E+02  0.51100000000E-03 0.  1.
    9900012    2    1    2    0    0  0.72900602276E+00  0.91826062611E+00  0.13562948505E+00  0.90007725576E+02  0.89999986754E+02 0.  0.
         12    1    1    2    0    0 -0.72900602276E+00 -0.91826062611E+00 -0.13562948505E+00  0.11802744240E+01  0.00000000000E+00 0. -1.
         11    1    3    3    0    0 -0.11597538935E+01 -0.89337106590E+01  0.35631147619E+02  0.36752345451E+02  0.51100000000E-03 0. -1.
        -11    1    3    3    0    0  0.94221956574E+01 -0.75657366717E+01  0.99558128310E+00  0.12124740193E+02  0.51100000000E-03 0.  1.
        -12    1    3    3    0    0 -0.75334357411E+01  0.17417707957E+02 -0.36491099417E+02  0.41130639932E+02  0.00000000000E+00 0.  1.
</event>
<event>
 7    1  0.1935465E-015  0.9000788E+02  0.7816164E-02  0.1186339E+00
        -11   -1    0    0    0    0  0.00000000000E+00  0.00000000000E+00  0.45593999997E+02  0.45594000000E+02  0.51100000000E-03 0. -1.
         11   -1    0    0    0    0 -0.00000000000E+00 -0.00000000000E+00 -0.45593999997E+02  0.45594000000E+02  0.51100000000E-03 0.  1.
    9900012    2    1    2    0    0  0.26325173464E+00  0.15381556282E+00 -0.11400554935E+01  0.90007878298E+02  0.90000141491E+02 0.  0.
         12    1    1    2    0    0 -0.26325173464E+00 -0.15381556282E+00  0.11400554935E+01  0.11801217020E+01  0.00000000000E+00 0. -1.
         11    1    3    3    0    0 -0.34960400352E+02  0.38991473842E+01 -0.14595550573E+02  0.38084945055E+02  0.51100000000E-03 0. -1.
        -11    1    3    3    0    0 -0.30126583349E+01  0.86429115717E+01 -0.10045083764E+01  0.92078807561E+01  0.51100000000E-03 0.  1.
        -12    1    3    3    0    0  0.38236310421E+02 -0.12388243393E+02  0.14460003456E+02  0.42715052487E+02  0.00000000000E+00 0.  1.
</event>
<event>
 7    1  0.1935465E-015  0.9000773E+02  0.7816164E-02  0.1186339E+00
        -11   -1    0    0    0    0  0.00000000000E+00  0.00000000000E+00  0.45593999997E+02  0.45594000000E+02  0.51100000000E-03 0. -1.
         11   -1    0    0    0    0 -0.00000000000E+00 -0.00000000000E+00 -0.45593999997E+02  0.45594000000E+02  0.51100000000E-03 0.  1.
    9900012    2    1    2    0    0 -0.57358966989E+00 -0.38880630413E+00 -0.95544259537E+00  0.90007726301E+02  0.89999987488E+02 0.  0.
         12    1    1    2    0    0  0.57358966989E+00  0.38880630413E+00  0.95544259537E+00  0.11802736990E+01  0.00000000000E+00 0. -1.
         11    1    3    3    0    0  0.36553578584E+02 -0.42337346650E+01  0.13788029181E+02  0.39296289462E+02  0.51100000000E-03 0. -1.
        -11    1    3    3    0    0 -0.33734304677E+01  0.50176386857E+01  0.79746533225E+01  0.10007588470E+02  0.51100000000E-03 0.  1.
        -12    1    3    3    0    0 -0.33753737786E+02 -0.11727103248E+01 -0.22718125099E+02  0.40703848369E+02  0.00000000000E+00 0.  1.
</event>
<event>
 7    1  0.1935465E-015  0.9000769E+02  0.7816164E-02  0.1186339E+00
        -11   -1    0    0    0    0  0.00000000000E+00  0.00000000000E+00  0.45593999997E+02  0.45594000000E+02  0.51100000000E-03 0.  1.
         11   -1    0    0    0    0 -0.00000000000E+00 -0.00000000000E+00 -0.45593999997E+02  0.45594000000E+02  0.51100000000E-03 0. -1.
    9900012    2    1    2    0    0 -0.16095003803E+00 -0.48589415905E-01  0.11682768965E+01  0.90007687858E+02  0.89999948537E+02 0.  0.
         12    1    1    2    0    0  0.16095003803E+00  0.48589415905E-01 -0.11682768965E+01  0.11803121422E+01  0.00000000000E+00 0. -1.
         11    1    3    3    0    0 -0.77673514416E+01 -0.10694210220E+01  0.71405164977E+01  0.10604828422E+02  0.51100000000E-03 0. -1.
        -11    1    3    3    0    0 -0.12770717880E+02  0.27868254149E+02  0.20215223471E+02  0.36720376968E+02  0.51100000000E-03 0.  1.
         12    1    3    3    0    0  0.20377119283E+02 -0.26847422543E+02 -0.26187463072E+02  0.42682482468E+02  0.00000000000E+00 0. -1.
</event>
<event>
 7    1  0.1935465E-015  0.9000770E+02  0.7816164E-02  0.1186339E+00
        -11   -1    0    0    0    0  0.00000000000E+00  0.00000000000E+00  0.45593999997E+02  0.45594000000E+02  0.51100000000E-03 0.  1.
         11   -1    0    0    0    0 -0.00000000000E+00 -0.00000000000E+00 -0.45593999997E+02  0.45594000000E+02  0.51100000000E-03 0. -1.
    9900012    2    1    2    0    0 -0.10166944624E+01  0.59887785144E+00 -0.28201926078E-01  0.90007695946E+02  0.89999956733E+02 0.  0.
         12    1    1    2    0    0  0.10166944624E+01 -0.59887785144E+00  0.28201926078E-01  0.11803040538E+01  0.00000000000E+00 0. -1.
         11    1    3    3    0    0 -0.16098140669E+02  0.15149484388E+02 -0.28214962625E+02  0.35843285653E+02  0.51100000000E-03 0. -1.
        -11    1    3    3    0    0 -0.15487373684E+00  0.52523654099E+01 -0.83711333038E+01  0.98836835909E+01  0.51100000000E-03 0.  1.
        -12    1    3    3    0    0  0.15236319943E+02 -0.19802971947E+02  0.36557894003E+02  0.44280726702E+02  0.00000000000E+00 0.  1.
</event>
<event>
 7    1  0.1935465E-015  0.9000782E+02  0.7816164E-02  0.1186339E+00
        -11   -1    0    0    0    0  0.00000000000E+00  0.00000000000E+00  0.45593999997E+02  0.45594000000E+02  0.51100000000E-03 0.  1.
         11   -1    0    0    0    0 -0.00000000000E+00 -0.00000000000E+00 -0.45593999997E+02  0.45594000000E+02  0.51100000000E-03 0. -1.
    9900012    2    1    2    0    0  0.89142648202E+00  0.62585442135E-01  0.77088572923E+00  0.90007820811E+02  0.90000083246E+02 0.  0.
         12    1    1    2    0    0 -0.89142648202E+00 -0.62585442135E-01 -0.77088572923E+00  0.11801791889E+01  0.00000000000E+00 0. -1.
         11    1    3    3    0    0  0.85298514011E+01 -0.80029054986E+01  0.22633587875E+01  0.11913339356E+02  0.51100000000E-03 0. -1.
        -11    1    3    3    0    0  0.22837973559E+02 -0.17814492367E+02  0.17489452607E+02  0.33835042889E+02  0.51100000000E-03 0.  1.
         12    1    3    3    0    0 -0.30476398478E+02  0.25879983308E+02 -0.18981925665E+02  0.44259438566E+02  0.00000000000E+00 0. -1.
</event>
<event>
 7    1  0.1935465E-015  0.9000745E+02  0.7816164E-02  0.1186340E+00
        -11   -1    0    0    0    0  0.00000000000E+00  0.00000000000E+00  0.45593999997E+02  0.45594000000E+02  0.51100000000E-03 0. -1.
         11   -1    0    0    0    0 -0.00000000000E+00 -0.00000000000E+00 -0.45593999997E+02  0.45594000000E+02  0.51100000000E-03 0.  1.
    9900012    2    1    2    0    0 -0.29007668694E-01  0.82286495854E+00 -0.84601413733E+00  0.90007454319E+02  0.89999711915E+02 0.  0.
         12    1    1    2    0    0  0.29007668694E-01 -0.82286495854E+00  0.84601413733E+00  0.11805456812E+01  0.00000000000E+00 0. -1.
         11    1    3    3    0    0 -0.34094716745E+01 -0.45973036300E+01  0.78308683227E+01  0.96995977604E+01  0.51100000000E-03 0. -1.
        -11    1    3    3    0    0  0.38288659324E+02 -0.12166611234E+02  0.41066788149E+00  0.40177313376E+02  0.51100000000E-03 0.  1.
         12    1    3    3    0    0 -0.34908195318E+02  0.17586779822E+02 -0.90875503416E+01  0.40130543182E+02  0.00000000000E+00 0. -1.
</event>
<event>
 7    1  0.1935465E-015  0.9000774E+02  0.7816164E-02  0.1186339E+00
        -11   -1    0    0    0    0  0.00000000000E+00  0.00000000000E+00  0.45593999997E+02  0.45594000000E+02  0.51100000000E-03 0. -1.
         11   -1    0    0    0    0 -0.00000000000E+00 -0.00000000000E+00 -0.45593999997E+02  0.45594000000E+02  0.51100000000E-03 0.  1.
    9900012    2    1    2    0    0  0.10342453660E+01 -0.40779676524E-01  0.56717597698E+00  0.90007739415E+02  0.90000000775E+02 0.  0.
         12    1    1    2    0    0 -0.10342453660E+01  0.40779676524E-01 -0.56717597698E+00  0.11802605848E+01  0.00000000000E+00 0. -1.
         11    1    3    3    0    0  0.24412486127E+02 -0.90818225575E+01  0.17316395929E+02  0.31277892322E+02  0.51100000000E-03 0. -1.
        -11    1    3    3    0    0  0.93016174032E+01 -0.91352779994E+01  0.66320545389E+01  0.14627287449E+02  0.51100000000E-03 0.  1.
        -12    1    3    3    0    0 -0.32679858164E+02  0.18176320880E+02 -0.23381274491E+02  0.44102559645E+02  0.00000000000E+00 0.  1.
</event>
<event>
 7    1  0.1935465E-015  0.9000775E+02  0.7816164E-02  0.1186339E+00
        -11   -1    0    0    0    0  0.00000000000E+00  0.00000000000E+00  0.45593999997E+02  0.45594000000E+02  0.51100000000E-03 0. -1.
         11   -1    0    0    0    0 -0.00000000000E+00 -0.00000000000E+00 -0.45593999997E+02  0.45594000000E+02  0.51100000000E-03 0.  1.
    9900012    2    1    2    0    0  0.76068118765E+00  0.67623109725E+00 -0.59754626089E+00  0.90007751763E+02  0.90000013287E+02 0.  0.
         12    1    1    2    0    0 -0.76068118765E+00 -0.67623109725E+00  0.59754626089E+00  0.11802482366E+01  0.00000000000E+00 0. -1.
         11    1    3    3    0    0  0.30228723053E+02  0.23713404293E+02  0.12583788804E+02  0.40428368524E+02  0.51100000000E-03 0. -1.
        -11    1    3    3    0    0 -0.20169652029E+01  0.67943076524E+01 -0.34765081333E+01  0.78941037596E+01  0.51100000000E-03 0.  1.
        -12    1    3    3    0    0 -0.27451076662E+02 -0.29831480849E+02 -0.97048269314E+01  0.41685279480E+02  0.00000000000E+00 0.  1.
</event>
<event>
 7    1  0.1935465E-015  0.9000746E+02  0.7816164E-02  0.1186340E+00
        -11   -1    0    0    0    0  0.00000000000E+00  0.00000000000E+00  0.45593999997E+02  0.45594000000E+02  0.51100000000E-03 0.  1.
         11   -1    0    0    0    0 -0.00000000000E+00 -0.00000000000E+00 -0.45593999997E+02  0.45594000000E+02  0.51100000000E-03 0. -1.
    9900012    2    1    2    0    0  0.83534384530E+00  0.23095058068E+00  0.80159052333E+00  0.90007455686E+02  0.89999713300E+02 0.  0.
         12    1    1    2    0    0 -0.83534384530E+00 -0.23095058068E+00 -0.80159052333E+00  0.11805443142E+01  0.00000000000E+00 0. -1.
         11    1    3    3    0    0  0.49295837956E+00  0.17005710738E+01  0.91546413146E+01  0.93242912761E+01  0.51100000000E-03 0. -1.
        -11    1    3    3    0    0  0.85896851103E+01  0.31306261416E+02  0.18635647219E+02  0.37431965506E+02  0.51100000000E-03 0.  1.
         12    1    3    3    0    0 -0.82472996445E+01 -0.32775881909E+02 -0.26988698010E+02  0.43251198904E+02  0.00000000000E+00 0. -1.
</event>
<event>
 7    1  0.1935465E-015  0.9000758E+02  0.7816164E-02  0.1186339E+00
        -11   -1    0    0    0    0  0.00000000000E+00  0.00000000000E+00  0.45593999997E+02  0.45594000000E+02  0.51100000000E-03 0.  1.
         11   -1    0    0    0    0 -0.00000000000E+00 -0.00000000000E+00 -0.45593999997E+02  0.45594000000E+02  0.51100000000E-03 0. -1.
    9900012    2    1    2    0    0  0.57131645229E+00 -0.90653356744E+00  0.49515718540E+00  0.90007582177E+02  0.89999841462E+02 0.  0.
         12    1    1    2    0    0 -0.57131645229E+00  0.90653356744E+00 -0.49515718540E+00  0.11804178226E+01  0.00000000000E+00 0. -1.
         11    1    3    3    0    0  0.30700790679E+02  0.72073024355E-01  0.35611907948E+01  0.30906727795E+02  0.51100000000E-03 0. -1.
        -11    1    3    3    0    0  0.93459108101E+01 -0.14052360126E+02  0.27933644218E+01  0.17106073747E+02  0.51100000000E-03 0.  1.
        -12    1    3    3    0    0 -0.39475385037E+02  0.13073753535E+02 -0.58593980311E+01  0.41994780635E+02  0.00000000000E+00 0.  1.
</event>
<event>
 8    1  0.1935465E-015  0.9000773E+02  0.7816164E-02  0.1186339E+00
        -11   -1    0    0    0    0  0.00000000000E+00  0.00000000000E+00  0.45593999997E+02  0.45594000000E+02  0.51100000000E-03 0.  1.
         11   -1    0    0    0    0 -0.00000000000E+00 -0.00000000000E+00 -0.45593999997E+02  0.45594000000E+02  0.51100000000E-03 0. -1.
    9900012    2    1    2    0    0  0.82702382342E+00  0.35615981186E+00  0.76303176204E+00  0.90007730672E+02  0.89999991917E+02 0.  0.
         23    2    3    3    0    0  0.22950597167E+02 -0.16539447084E+02  0.73592678356E+01  0.61399613639E+02  0.53995097108E+02 0.  0.
         12    1    1    2    0    0 -0.82702382342E+00 -0.35615981186E+00 -0.76303176204E+00  0.11802693277E+01  0.00000000000E+00 0. -1.
         11    1    4    4    0    0  0.20379710742E+02  0.26974794115E+01 -0.19451549999E+02  0.28301445241E+02  0.51100000000E-03 0. -1.
        -11    1    4    4    0    0  0.25708864254E+01 -0.19236926496E+02  0.26810817835E+02  0.33098168397E+02  0.51100000000E-03 0.  1.
         12    1    3    3    0    0 -0.22123573344E+02  0.16895606896E+02 -0.65962360736E+01  0.28608117034E+02  0.00000000000E+00 0. -1.
</event>
<event>
 7    1  0.1935465E-015  0.9000771E+02  0.7816164E-02  0.1186339E+00
        -11   -1    0    0    0    0  0.00000000000E+00  0.00000000000E+00  0.45593999997E+02  0.45594000000E+02  0.51100000000E-03 0. -1.
         11   -1    0    0    0    0 -0.00000000000E+00 -0.00000000000E+00 -0.45593999997E+02  0.45594000000E+02  0.51100000000E-03 0.  1.
    9900012    2    1    2    0    0  0.10980204925E+01  0.24216238171E+00  0.35886808590E+00  0.90007712779E+02  0.89999973788E+02 0.  0.
         12    1    1    2    0    0 -0.10980204925E+01 -0.24216238171E+00 -0.35886808590E+00  0.11802872210E+01  0.00000000000E+00 0. -1.
         11    1    3    3    0    0 -0.16870384159E+02  0.17574587981E+02  0.32142064800E+02  0.40330984791E+02  0.51100000000E-03 0. -1.
        -11    1    3    3    0    0  0.91276989406E+01 -0.63795396295E+00  0.33849663465E+01  0.97560171503E+01  0.51100000000E-03 0.  1.
        -12    1    3    3    0    0  0.88407057104E+01 -0.16694471636E+02 -0.35168163061E+02  0.39920710837E+02  0.00000000000E+00 0.  1.
</event>
<event>
 7    1  0.1935465E-015  0.9000771E+02  0.7816164E-02  0.1186339E+00
        -11   -1    0    0    0    0  0.00000000000E+00  0.00000000000E+00  0.45593999997E+02  0.45594000000E+02  0.51100000000E-03 0.  1.
         11   -1    0    0    0    0 -0.00000000000E+00 -0.00000000000E+00 -0.45593999997E+02  0.45594000000E+02  0.51100000000E-03 0. -1.
    9900012    2    1    2    0    0 -0.84628833350E+00 -0.66340293759E+00  0.48660441522E+00  0.90007707130E+02  0.89999968065E+02 0.  0.
         12    1    1    2    0    0  0.84628833350E+00  0.66340293759E+00 -0.48660441522E+00  0.11802928696E+01  0.00000000000E+00 0. -1.
         11    1    3    3    0    0 -0.60170291795E+01 -0.31096359892E+02  0.18177698719E+02  0.36518720811E+02  0.51100000000E-03 0. -1.
        -11    1    3    3    0    0 -0.33043978766E+01 -0.44279806593E+01  0.77426745810E+01  0.95118383068E+01  0.51100000000E-03 0.  1.
        -12    1    3    3    0    0  0.84751387225E+01  0.34860937614E+02 -0.25433768884E+02  0.43977148013E+02  0.00000000000E+00 0.  1.
</event>
<event>
 7    1  0.1935465E-015  0.9000774E+02  0.7816164E-02  0.1186339E+00
        -11   -1    0    0    0    0  0.00000000000E+00  0.00000000000E+00  0.45593999997E+02  0.45594000000E+02  0.51100000000E-03 0. -1.
         11   -1    0    0    0    0 -0.00000000000E+00 -0.00000000000E+00 -0.45593999997E+02  0.45594000000E+02  0.51100000000E-03 0.  1.
    9900012    2    1    2    0    0  0.18846770903E+00  0.83100457738E+00 -0.81665294397E+00  0.90007741250E+02  0.90000002635E+02 0.  0.
         12    1    1    2    0    0 -0.18846770903E+00 -0.83100457738E+00  0.81665294397E+00  0.11802587495E+01  0.00000000000E+00 0. -1.
         11    1    3    3    0    0 -0.49104881431E+01 -0.26375840337E+01 -0.90121742910E+01  0.10596651785E+02  0.51100000000E-03 0. -1.
        -11    1    3    3    0    0  0.14093261909E+02  0.38239717243E+02 -0.51878986520E+01  0.41082968475E+02  0.51100000000E-03 0.  1.
         12    1    3    3    0    0 -0.89943060565E+01 -0.34771128632E+02  0.13383419999E+02  0.38328120990E+02  0.00000000000E+00 0. -1.
</event>
<event>
 7    1  0.1935465E-015  0.9000774E+02  0.7816164E-02  0.1186339E+00
        -11   -1    0    0    0    0  0.00000000000E+00  0.00000000000E+00  0.45593999997E+02  0.45594000000E+02  0.51100000000E-03 0.  1.
         11   -1    0    0    0    0 -0.00000000000E+00 -0.00000000000E+00 -0.45593999997E+02  0.45594000000E+02  0.51100000000E-03 0. -1.
    9900012    2    1    2    0    0  0.24697275721E+00  0.56252375804E+00  0.10077670106E+01  0.90007736102E+02  0.89999997419E+02 0.  0.
         12    1    1    2    0    0 -0.24697275721E+00 -0.56252375804E+00 -0.10077670106E+01  0.11802638979E+01  0.00000000000E+00 0. -1.
         11    1    3    3    0    0  0.52073941427E+01  0.10024348133E+02  0.30431321225E+01  0.11698938526E+02  0.51100000000E-03 0. -1.
        -11    1    3    3    0    0  0.24004296198E+02  0.19711208504E+02 -0.15939332461E+02  0.34911320459E+02  0.51100000000E-03 0.  1.
         12    1    3    3    0    0 -0.28964717583E+02 -0.29173032880E+02  0.13903967349E+02  0.43397477117E+02  0.00000000000E+00 0. -1.
</event>
<event>
 7    1  0.1935465E-015  0.9000752E+02  0.7816164E-02  0.1186339E+00
        -11   -1    0    0    0    0  0.00000000000E+00  0.00000000000E+00  0.45593999997E+02  0.45594000000E+02  0.51100000000E-03 0.  1.
         11   -1    0    0    0    0 -0.00000000000E+00 -0.00000000000E+00 -0.45593999997E+02  0.45594000000E+02  0.51100000000E-03 0. -1.
    9900012    2    1    2    0    0 -0.48223014835E+00  0.92891552619E+00 -0.54599148888E+00  0.90007518456E+02  0.89999776899E+02 0.  0.
         12    1    1    2    0    0  0.48223014835E+00 -0.92891552619E+00  0.54599148888E+00  0.11804815444E+01  0.00000000000E+00 0. -1.
         11    1    3    3    0    0 -0.89157810308E+01  0.93987299504E+01  0.22077537809E+01  0.13141592487E+02  0.51100000000E-03 0. -1.
        -11    1    3    3    0    0 -0.10973674595E+01 -0.15639114571E+02  0.34421953796E+02  0.37824027064E+02  0.51100000000E-03 0.  1.
         12    1    3    3    0    0  0.95309183420E+01  0.71693001469E+01 -0.37175699066E+02  0.39041898905E+02  0.00000000000E+00 0. -1.
</event>
<event>
 7    1  0.1935465E-015  0.9000764E+02  0.7816164E-02  0.1186339E+00
        -11   -1    0    0    0    0  0.00000000000E+00  0.00000000000E+00  0.45593999997E+02  0.45594000000E+02  0.51100000000E-03 0.  1.
         11   -1    0    0    0    0 -0.00000000000E+00 -0.00000000000E+00 -0.45593999997E+02  0.45594000000E+02  0.51100000000E-03 0. -1.
    9900012    2    1    2    0    0 -0.53287322190E+00 -0.94950771121E+00 -0.45576599290E+00  0.90007643526E+02  0.89999903621E+02 0.  0.
         12    1    1    2    0    0  0.53287322190E+00  0.94950771121E+00  0.45576599290E+00  0.11803564735E+01  0.00000000000E+00 0. -1.
         11    1    3    3    0    0 -0.92679684338E+01 -0.25253077011E+01 -0.26514752616E+02  0.28201144026E+02  0.51100000000E-03 0. -1.
        -11    1    3    3    0    0 -0.13737855788E+02 -0.67459018840E+01 -0.10165140652E+02  0.18372968150E+02  0.51100000000E-03 0.  1.
        -12    1    3    3    0    0  0.22472951000E+02  0.83217018739E+01  0.36224127275E+02  0.43433531350E+02  0.00000000000E+00 0.  1.
</event>
<event>
 7    1  0.1935465E-015  0.9000788E+02  0.7816164E-02  0.1186339E+00
        -11   -1    0    0    0    0  0.00000000000E+00  0.00000000000E+00  0.45593999997E+02  0.45594000000E+02  0.51100000000E-03 0.  1.
         11   -1    0    0    0    0 -0.00000000000E+00 -0.00000000000E+00 -0.45593999997E+02  0.45594000000E+02  0.51100000000E-03 0. -1.
    9900012    2    1    2    0    0 -0.37732721435E+00 -0.10011016295E+01  0.49808807808E+00  0.90007884737E+02  0.90000148016E+02 0.  0.
         12    1    1    2    0    0  0.37732721435E+00  0.10011016295E+01 -0.49808807808E+00  0.11801152625E+01  0.00000000000E+00 0. -1.
         11    1    3    3    0    0 -0.89256433918E+01 -0.17081235668E+02 -0.19495187706E+02  0.27413465047E+02  0.51100000000E-03 0. -1.
        -11    1    3    3    0    0 -0.12148751342E+02  0.55768968406E+01 -0.15322869060E+02  0.20334312234E+02  0.51100000000E-03 0.  1.
        -12    1    3    3    0    0  0.20697067520E+02  0.10503237198E+02  0.35316144844E+02  0.42260107456E+02  0.00000000000E+00 0.  1.
</event>
<event>
 7    1  0.1935465E-015  0.9000792E+02  0.7816164E-02  0.1186339E+00
        -11   -1    0    0    0    0  0.00000000000E+00  0.00000000000E+00  0.45593999997E+02  0.45594000000E+02  0.51100000000E-03 0.  1.
         11   -1    0    0    0    0 -0.00000000000E+00 -0.00000000000E+00 -0.45593999997E+02  0.45594000000E+02  0.51100000000E-03 0. -1.
    9900012    2    1    2    0    0  0.89756388768E+00 -0.73011183495E+00 -0.23219459407E+00  0.90007915870E+02  0.90000179559E+02 0.  0.
         12    1    1    2    0    0 -0.89756388768E+00  0.73011183495E+00  0.23219459407E+00  0.11800841298E+01  0.00000000000E+00 0. -1.
         11    1    3    3    0    0 -0.12084577184E+02  0.33326891410E+02  0.90552715261E+01  0.36588476867E+02  0.51100000000E-03 0. -1.
        -11    1    3    3    0    0  0.15245966509E+02  0.14964302830E+01  0.32353043810E+01  0.15657138726E+02  0.51100000000E-03 0.  1.
        -12    1    3    3    0    0 -0.22638254371E+01 -0.35553433528E+02 -0.12522770501E+02  0.37762300277E+02  0.00000000000E+00 0.  1.
</event>
<event>
 7    1  0.1935465E-015  0.9000776E+02  0.7816164E-02  0.1186339E+00
        -11   -1    0    0    0    0  0.00000000000E+00  0.00000000000E+00  0.45593999997E+02  0.45594000000E+02  0.51100000000E-03 0.  1.
         11   -1    0    0    0    0 -0.00000000000E+00 -0.00000000000E+00 -0.45593999997E+02  0.45594000000E+02  0.51100000000E-03 0. -1.
    9900012    2    1    2    0    0 -0.34729536789E-01  0.11790948840E+01 -0.38558180719E-01  0.90007763744E+02  0.90000025426E+02 0.  0.
         12    1    1    2    0    0  0.34729536789E-01 -0.11790948840E+01  0.38558180719E-01  0.11802362558E+01  0.00000000000E+00 0. -1.
         11    1    3    3    0    0 -0.77502014900E+01 -0.41491392642E+01 -0.18130761352E+01  0.89759804535E+01  0.51100000000E-03 0. -1.
        -11    1    3    3    0    0  0.42901972679E+02 -0.12309025604E+01 -0.85856408307E+01  0.43769939566E+02  0.51100000000E-03 0.  1.
         12    1    3    3    0    0 -0.35186500726E+02  0.65591367087E+01  0.10360158785E+02  0.37261843725E+02  0.00000000000E+00 0. -1.
</event>
<event>
 7    1  0.1935465E-015  0.9000775E+02  0.7816164E-02  0.1186339E+00
        -11   -1    0    0    0    0  0.00000000000E+00  0.00000000000E+00  0.45593999997E+02  0.45594000000E+02  0.51100000000E-03 0. -1.
         11   -1    0    0    0    0 -0.00000000000E+00 -0.00000000000E+00 -0.45593999997E+02  0.45594000000E+02  0.51100000000E-03 0.  1.
    9900012    2    1    2    0    0 -0.19310602377E+00 -0.17130534601E+00 -0.11516784402E+01  0.90007746346E+02  0.90000007798E+02 0.  0.
         12    1    1    2    0    0  0.19310602377E+00  0.17130534601E+00  0.11516784402E+01  0.11802536540E+01  0.00000000000E+00 0. -1.
         11    1    3    3    0    0  0.41872132804E+01 -0.22586064115E+01  0.41679270163E+02  0.41949917992E+02  0.51100000000E-03 0. -1.
        -11    1    3    3    0    0  0.56020000753E+01  0.65141014730E+01 -0.87194593414E+01  0.12241114913E+02  0.51100000000E-03 0.  1.
        -12    1    3    3    0    0 -0.99823193795E+01 -0.44268004075E+01 -0.34111489262E+02  0.35816713441E+02  0.00000000000E+00 0.  1.
</event>
<event>
 7    1  0.1935465E-015  0.9000770E+02  0.7816164E-02  0.1186339E+00
        -11   -1    0    0    0    0  0.00000000000E+00  0.00000000000E+00  0.45593999997E+02  0.45594000000E+02  0.51100000000E-03 0. -1.
         11   -1    0    0    0    0 -0.00000000000E+00 -0.00000000000E+00 -0.45593999997E+02  0.45594000000E+02  0.51100000000E-03 0.  1.
    9900012    2    1    2    0    0 -0.14444806602E+00  0.45335886013E+00  0.10801441036E+01  0.90007698859E+02  0.89999959683E+02 0.  0.
         12    1    1    2    0    0  0.14444806602E+00 -0.45335886013E+00 -0.10801441036E+01  0.11803011414E+01  0.00000000000E+00 0. -1.
         11    1    3    3    0    0  0.34471176520E+00 -0.29166567559E+02  0.32929632447E+02  0.43990546515E+02  0.51100000000E-03 0. -1.
        -11    1    3    3    0    0  0.17174964124E+01  0.66856963854E+00 -0.86714377063E+01  0.88651345982E+01  0.51100000000E-03 0.  1.
        -12    1    3    3    0    0 -0.22066562436E+01  0.28951356781E+02 -0.23178050637E+02  0.37152017745E+02  0.00000000000E+00 0.  1.
</event>
<event>
 7    1  0.1935465E-015  0.9000812E+02  0.7816164E-02  0.1186338E+00
        -11   -1    0    0    0    0  0.00000000000E+00  0.00000000000E+00  0.45593999997E+02  0.45594000000E+02  0.51100000000E-03 0. -1.
         11   -1    0    0    0    0 -0.00000000000E+00 -0.00000000000E+00 -0.45593999997E+02  0.45594000000E+02  0.51100000000E-03 0.  1.
    9900012    2    1    2    0    0 -0.72778582336E+00 -0.87853670117E+00 -0.30101315930E+00  0.90008123794E+02  0.90000390227E+02 0.  0.
         12    1    1    2    0    0  0.72778582336E+00  0.87853670117E+00  0.30101315930E+00  0.11798762062E+01  0.00000000000E+00 0. -1.
         11    1    3    3    0    0 -0.31718340279E+02  0.13390787563E+01  0.16617945007E+02  0.35832978365E+02  0.51100000000E-03 0. -1.
        -11    1    3    3    0    0 -0.44074608069E+01 -0.38171035803E+01  0.86835178383E+01  0.10459420291E+02  0.51100000000E-03 0.  1.
        -12    1    3    3    0    0  0.35398015263E+02  0.15994881228E+01 -0.25602476005E+02  0.43715725138E+02  0.00000000000E+00 0.  1.
</event>
<event>
 7    1  0.1935465E-015  0.9000766E+02  0.7816164E-02  0.1186339E+00
        -11   -1    0    0    0    0  0.00000000000E+00  0.00000000000E+00  0.45593999997E+02  0.45594000000E+02  0.51100000000E-03 0. -1.
         11   -1    0    0    0    0 -0.00000000000E+00 -0.00000000000E+00 -0.45593999997E+02  0.45594000000E+02  0.51100000000E-03 0.  1.
    9900012    2    1    2    0    0 -0.10516952725E+01 -0.97061637817E-01 -0.52698385520E+00  0.90007662806E+02  0.89999923155E+02 0.  0.
         12    1    1    2    0    0  0.10516952725E+01  0.97061637817E-01  0.52698385520E+00  0.11803371940E+01  0.00000000000E+00 0. -1.
         11    1    3    3    0    0  0.76190464216E+01 -0.23769131853E+02  0.12878663880E+02  0.28087034037E+02  0.51100000000E-03 0. -1.
        -11    1    3    3    0    0  0.64416321922E+01 -0.15271996059E+01  0.17840261946E+02  0.19028975550E+02  0.51100000000E-03 0.  1.
        -12    1    3    3    0    0 -0.15112373886E+02  0.25199269821E+02 -0.31245909681E+02  0.42891653218E+02  0.00000000000E+00 0.  1.
</event>
<event>
 7    1  0.1935465E-015  0.9000752E+02  0.7816164E-02  0.1186339E+00
        -11   -1    0    0    0    0  0.00000000000E+00  0.00000000000E+00  0.45593999997E+02  0.45594000000E+02  0.51100000000E-03 0. -1.
         11   -1    0    0    0    0 -0.00000000000E+00 -0.00000000000E+00 -0.45593999997E+02  0.45594000000E+02  0.51100000000E-03 0.  1.
    9900012    2    1    2    0    0  0.88131892355E+00 -0.78274371228E+00  0.64286019173E-01  0.90007515584E+02  0.89999773989E+02 0.  0.
         12    1    1    2    0    0 -0.88131892355E+00  0.78274371228E+00 -0.64286019173E-01  0.11804844160E+01  0.00000000000E+00 0. -1.
         11    1    3    3    0    0 -0.97251822165E+01 -0.10918401383E+02  0.11939700385E+02  0.18877158246E+02  0.51100000000E-03 0. -1.
        -11    1    3    3    0    0 -0.87228879096E+01 -0.11587815958E+02  0.22085052205E+02  0.26421880768E+02  0.51100000000E-03 0.  1.
        -12    1    3    3    0    0  0.19329389050E+02  0.21723473628E+02 -0.33960466571E+02  0.44708476570E+02  0.00000000000E+00 0.  1.
</event>
<event>
 7    1  0.1935465E-015  0.9000771E+02  0.7816164E-02  0.1186339E+00
        -11   -1    0    0    0    0  0.00000000000E+00  0.00000000000E+00  0.45593999997E+02  0.45594000000E+02  0.51100000000E-03 0. -1.
         11   -1    0    0    0    0 -0.00000000000E+00 -0.00000000000E+00 -0.45593999997E+02  0.45594000000E+02  0.51100000000E-03 0.  1.
    9900012    2    1    2    0    0  0.28918544369E+00 -0.11397980259E+01  0.10157516058E+00  0.90007709665E+02  0.89999970633E+02 0.  0.
         12    1    1    2    0    0 -0.28918544369E+00  0.11397980259E+01 -0.10157516058E+00  0.11802903346E+01  0.00000000000E+00 0. -1.
         11    1    3    3    0    0 -0.12212324757E+02 -0.44437040096E+01 -0.38863152392E+01  0.13564321867E+02  0.51100000000E-03 0. -1.
        -11    1    3    3    0    0 -0.30443820059E+02 -0.62649870796E+01 -0.51513483872E+01  0.31505755560E+02  0.51100000000E-03 0.  1.
         12    1    3    3    0    0  0.42945330261E+02  0.95688930633E+01  0.91392387870E+01  0.44937632239E+02  0.00000000000E+00 0. -1.
</event>
<event>
 7    1  0.1935465E-015  0.9000772E+02  0.7816164E-02  0.1186339E+00
        -11   -1    0    0    0    0  0.00000000000E+00  0.00000000000E+00  0.45593999997E+02  0.45594000000E+02  0.51100000000E-03 0.  1.
         11   -1    0    0    0    0 -0.00000000000E+00 -0.00000000000E+00 -0.45593999997E+02  0.45594000000E+02  0.51100000000E-03 0. -1.
    9900012    2    1    2    0    0 -0.11055516422E+01 -0.31233165221E+00  0.27067430559E+00  0.90007720341E+02  0.89999981449E+02 0.  0.
         12    1    1    2    0    0  0.11055516422E+01  0.31233165221E+00 -0.27067430559E+00  0.11802796594E+01  0.00000000000E+00 0. -1.
         11    1    3    3    0    0 -0.39832604562E+02  0.23256461688E+01 -0.79107237361E+01  0.40677076672E+02  0.51100000000E-03 0. -1.
        -11    1    3    3    0    0 -0.95980477904E+00 -0.84018990312E+01  0.31004957112E+00  0.84622256849E+01  0.51100000000E-03 0.  1.
        -12    1    3    3    0    0  0.39686857699E+02  0.57639212101E+01  0.78713484706E+01  0.40868417984E+02  0.00000000000E+00 0.  1.
</event>
<event>
 7    1  0.1935465E-015  0.9000667E+02  0.7816164E-02  0.1186341E+00
        -11   -1    0    0    0    0  0.00000000000E+00  0.00000000000E+00  0.45593999997E+02  0.45594000000E+02  0.51100000000E-03 0. -1.
         11   -1    0    0    0    0 -0.00000000000E+00 -0.00000000000E+00 -0.45593999997E+02  0.45594000000E+02  0.51100000000E-03 0.  1.
    9900012    2    1    2    0    0  0.24762083363E+00 -0.11473064073E+01 -0.13386687517E+00  0.90006666681E+02  0.89998913875E+02 0.  0.
         12    1    1    2    0    0 -0.24762083363E+00  0.11473064073E+01  0.13386687517E+00  0.11813333186E+01  0.00000000000E+00 0. -1.
         11    1    3    3    0    0  0.47407694323E+01 -0.85574826056E+01  0.15268564448E+01  0.99013481011E+01  0.51100000000E-03 0. -1.
        -11    1    3    3    0    0  0.11260088738E+02 -0.32406185876E+02 -0.11476077358E+02  0.36175279310E+02  0.51100000000E-03 0.  1.
         12    1    3    3    0    0 -0.15753237336E+02  0.39816362074E+02  0.98153540376E+01  0.43930039270E+02  0.00000000000E+00 0. -1.
</event>
<event>
 7    1  0.2386517E-015  0.9000787E+02  0.7816164E-02  0.1186339E+00
        -11   -1    0    0    0    0  0.00000000000E+00  0.00000000000E+00  0.45593999997E+02  0.45594000000E+02  0.51100000000E-03 0.  1.
         11   -1    0    0    0    0 -0.00000000000E+00 -0.00000000000E+00 -0.45593999997E+02  0.45594000000E+02  0.51100000000E-03 0. -1.
    9900012    2    1    2    0    0  0.19334330730E+00  0.98313045977E+00  0.62351351838E+00  0.90007874480E+02  0.90000137623E+02 0.  0.
         12    1    1    2    0    0 -0.19334330730E+00 -0.98313045977E+00 -0.62351351838E+00  0.11801255200E+01  0.00000000000E+00 0. -1.
         11    1    3    3    0    0 -0.49648090358E+01  0.52481167797E+01  0.58102910247E+01  0.92710053688E+01  0.51100000000E-03 0. -1.
        -11    1    3    3    0    0 -0.39500971415E+01  0.26773938008E+02  0.24740933197E+02  0.36668253294E+02  0.51100000000E-03 0.  1.
         12    1    3    3    0    0  0.91082494846E+01 -0.31038924328E+02 -0.29927710704E+02  0.44068615817E+02  0.00000000000E+00 0. -1.
</event>
<event>
 7    1  0.2547027E-015  0.9000770E+02  0.7816164E-02  0.1186339E+00
        -11   -1    0    0    0    0  0.00000000000E+00  0.00000000000E+00  0.45593999997E+02  0.45594000000E+02  0.51100000000E-03 0. -1.
         11   -1    0    0    0    0 -0.00000000000E+00 -0.00000000000E+00 -0.45593999997E+02  0.45594000000E+02  0.51100000000E-03 0.  1.
    9900012    2    1    2    0    0  0.65161528363E+00  0.53895877745E+00 -0.82343088797E+00  0.90007696027E+02  0.89999956814E+02 0.  0.
         12    1    1    2    0    0 -0.65161528363E+00 -0.53895877745E+00  0.82343088797E+00  0.11803039731E+01  0.00000000000E+00 0. -1.
         11    1    3    3    0    0 -0.44990478490E+01 -0.84304793810E+01  0.16270971507E+01  0.96933925712E+01  0.51100000000E-03 0. -1.
        -11    1    3    3    0    0  0.19537830037E+02 -0.10666799509E+02 -0.33893439602E+02  0.40549632090E+02  0.51100000000E-03 0.  1.
         12    1    3    3    0    0 -0.14387166904E+02  0.19636237667E+02  0.31442911563E+02  0.39764671366E+02  0.00000000000E+00 0. -1.
</event>
<event>
 7    1  0.1935465E-015  0.9000787E+02  0.7816164E-02  0.1186339E+00
        -11   -1    0    0    0    0  0.00000000000E+00  0.00000000000E+00  0.45593999997E+02  0.45594000000E+02  0.51100000000E-03 0. -1.
         11   -1    0    0    0    0 -0.00000000000E+00 -0.00000000000E+00 -0.45593999997E+02  0.45594000000E+02  0.51100000000E-03 0.  1.
    9900012    2    1    2    0    0 -0.10211729133E+01  0.39866262036E+00  0.43700919564E+00  0.90007871600E+02  0.90000134705E+02 0.  0.
         12    1    1    2    0    0  0.10211729133E+01 -0.39866262036E+00 -0.43700919564E+00  0.11801284001E+01  0.00000000000E+00 0. -1.
         11    1    3    3    0    0 -0.55693415920E+01 -0.32426971780E+01 -0.54091601841E+01  0.84137782782E+01  0.51100000000E-03 0. -1.
        -11    1    3    3    0    0 -0.16723226669E+01  0.38758724842E+02 -0.13430535345E+02  0.41053802435E+02  0.51100000000E-03 0.  1.
         12    1    3    3    0    0  0.62204913456E+01 -0.35117365043E+02  0.19276704725E+02  0.40540290887E+02  0.00000000000E+00 0. -1.
</event>
<event>
 7    1  0.1935465E-015  0.9000771E+02  0.7816164E-02  0.1186339E+00
        -11   -1    0    0    0    0  0.00000000000E+00  0.00000000000E+00  0.45593999997E+02  0.45594000000E+02  0.51100000000E-03 0. -1.
         11   -1    0    0    0    0 -0.00000000000E+00 -0.00000000000E+00 -0.45593999997E+02  0.45594000000E+02  0.51100000000E-03 0.  1.
    9900012    2    1    2    0    0  0.10206273985E+01 -0.44190584327E+00 -0.39513937675E+00  0.90007705042E+02  0.89999965949E+02 0.  0.
         12    1    1    2    0    0 -0.10206273985E+01  0.44190584327E+00  0.39513937675E+00  0.11802949580E+01  0.00000000000E+00 0. -1.
         11    1    3    3    0    0 -0.27169031911E+02 -0.85065683524E+01 -0.31484804886E+02  0.42447743628E+02  0.51100000000E-03 0. -1.
        -11    1    3    3    0    0 -0.26309520187E+01  0.17625346268E+01  0.78012005953E+01  0.84194517532E+01  0.51100000000E-03 0.  1.
        -12    1    3    3    0    0  0.30820611328E+02  0.63021278823E+01  0.23288464914E+02  0.39140509661E+02  0.00000000000E+00 0.  1.
</event>
<event>
 7    1  0.1997338E-015  0.9000778E+02  0.7816164E-02  0.1186339E+00
        -11   -1    0    0    0    0  0.00000000000E+00  0.00000000000E+00  0.45593999997E+02  0.45594000000E+02  0.51100000000E-03 0. -1.
         11   -1    0    0    0    0 -0.00000000000E+00 -0.00000000000E+00 -0.45593999997E+02  0.45594000000E+02  0.51100000000E-03 0.  1.
    9900012    2    1    2    0    0 -0.17009008262E+00 -0.82170083277E-01 -0.11650022386E+01  0.90007782743E+02  0.90000044675E+02 0.  0.
         12    1    1    2    0    0  0.17009008262E+00  0.82170083277E-01  0.11650022386E+01  0.11802172575E+01  0.00000000000E+00 0. -1.
         11    1    3    3    0    0  0.94873584689E+01 -0.32178471680E-01 -0.18901296558E+01  0.96738615118E+01  0.51100000000E-03 0. -1.
        -11    1    3    3    0    0  0.12149763937E+02  0.35037161047E+02 -0.84067356118E+01  0.38024894764E+02  0.51100000000E-03 0.  1.
         12    1    3    3    0    0 -0.21807212488E+02 -0.35087152658E+02  0.91318630289E+01  0.42309026467E+02  0.00000000000E+00 0. -1.
</event>
<event>
 7    1  0.1935465E-015  0.9000776E+02  0.7816164E-02  0.1186339E+00
        -11   -1    0    0    0    0  0.00000000000E+00  0.00000000000E+00  0.45593999997E+02  0.45594000000E+02  0.51100000000E-03 0.  1.
         11   -1    0    0    0    0 -0.00000000000E+00 -0.00000000000E+00 -0.45593999997E+02  0.45594000000E+02  0.51100000000E-03 0. -1.
    9900012    2    1    2    0    0 -0.69490825018E+00  0.37687820596E+00 -0.87636943220E+00  0.90007763566E+02  0.90000025245E+02 0.  0.
         12    1    1    2    0    0  0.69490825018E+00 -0.37687820596E+00  0.87636943220E+00  0.11802364339E+01  0.00000000000E+00 0. -1.
         11    1    3    3    0    0 -0.31948894904E+02 -0.14398553219E+02  0.25697210205E+02  0.43455688154E+02  0.51100000000E-03 0. -1.
        -11    1    3    3    0    0  0.98182306478E+01 -0.69739260047E+00 -0.12120788622E+01  0.99173154091E+01  0.51100000000E-03 0.  1.
        -12    1    3    3    0    0  0.21435756006E+02  0.15472824025E+02 -0.25361500775E+02  0.36634760003E+02  0.00000000000E+00 0.  1.
</event>
<event>
 7    1  0.1935465E-015  0.9000681E+02  0.7816164E-02  0.1186341E+00
        -11   -1    0    0    0    0  0.00000000000E+00  0.00000000000E+00  0.45593999997E+02  0.45594000000E+02  0.51100000000E-03 0.  1.
         11   -1    0    0    0    0 -0.00000000000E+00 -0.00000000000E+00 -0.45593999997E+02  0.45594000000E+02  0.51100000000E-03 0. -1.
    9900012    2    1    2    0    0 -0.48782625815E+00 -0.25233591359E+00  0.10457377475E+01  0.90006807675E+02  0.89999056732E+02 0.  0.
         12    1    1    2    0    0  0.48782625815E+00  0.25233591359E+00 -0.10457377475E+01  0.11811923247E+01  0.00000000000E+00 0. -1.
         11    1    3    3    0    0  0.20659804603E+02  0.80424905635E+01 -0.33317959229E+02  0.40019939882E+02  0.51100000000E-03 0. -1.
        -11    1    3    3    0    0 -0.64045227656E+00 -0.60396710586E+01 -0.33961381943E+01  0.69585602326E+01  0.51100000000E-03 0.  1.
        -12    1    3    3    0    0 -0.20507178585E+02 -0.22551554185E+01  0.37759835170E+02  0.43028307561E+02  0.00000000000E+00 0.  1.
</event>
<event>
 7    1  0.1935465E-015  0.9000775E+02  0.7816164E-02  0.1186339E+00
        -11   -1    0    0    0    0  0.00000000000E+00  0.00000000000E+00  0.45593999997E+02  0.45594000000E+02  0.51100000000E-03 0.  1.
         11   -1    0    0    0    0 -0.00000000000E+00 -0.00000000000E+00 -0.45593999997E+02  0.45594000000E+02  0.51100000000E-03 0. -1.
    9900012    2    1    2    0    0  0.11141801592E+01 -0.57798554472E-01  0.38502149118E+00  0.90007754412E+02  0.90000015970E+02 0.  0.
         12    1    1    2    0    0 -0.11141801592E+01  0.57798554472E-01 -0.38502149118E+00  0.11802455883E+01  0.00000000000E+00 0. -1.
         11    1    3    3    0    0 -0.77301866604E+01 -0.35690540067E+02  0.92595099648E+01  0.37673717113E+02  0.51100000000E-03 0. -1.
        -11    1    3    3    0    0 -0.87763845647E+01 -0.52949149959E-01  0.51026153752E+01  0.10152064498E+02  0.51100000000E-03 0.  1.
        -12    1    3    3    0    0  0.17620751384E+02  0.35685690662E+02 -0.13977103849E+02  0.42181972801E+02  0.00000000000E+00 0.  1.
</event>
<event>
 7    1  0.1935465E-015  0.9000771E+02  0.7816164E-02  0.1186339E+00
        -11   -1    0    0    0    0  0.00000000000E+00  0.00000000000E+00  0.45593999997E+02  0.45594000000E+02  0.51100000000E-03 0. -1.
         11   -1    0    0    0    0 -0.00000000000E+00 -0.00000000000E+00 -0.45593999997E+02  0.45594000000E+02  0.51100000000E-03 0.  1.
    9900012    2    1    2    0    0  0.11345839174E+01 -0.28364217239E+00 -0.15924010609E+00  0.90007707257E+02  0.89999968193E+02 0.  0.
         12    1    1    2    0    0 -0.11345839174E+01  0.28364217239E+00  0.15924010609E+00  0.11802927429E+01  0.00000000000E+00 0. -1.
         11    1    3    3    0    0 -0.31486832817E+02  0.14359616314E+02  0.11255428634E+02  0.36390986460E+02  0.51100000000E-03 0. -1.
        -11    1    3    3    0    0 -0.38598480906E+01  0.56319034173E+01  0.53142474902E+01  0.86520512037E+01  0.51100000000E-03 0.  1.
        -12    1    3    3    0    0  0.36481264825E+02 -0.20275161904E+02 -0.16728916230E+02  0.44964669594E+02  0.00000000000E+00 0.  1.
</event>
<event>
 7    1  0.1935465E-015  0.9000781E+02  0.7816164E-02  0.1186339E+00
        -11   -1    0    0    0    0  0.00000000000E+00  0.00000000000E+00  0.45593999997E+02  0.45594000000E+02  0.51100000000E-03 0. -1.
         11   -1    0    0    0    0 -0.00000000000E+00 -0.00000000000E+00 -0.45593999997E+02  0.45594000000E+02  0.51100000000E-03 0.  1.
    9900012    2    1    2    0    0 -0.98073860488E+00  0.46694900648E+00 -0.46148547154E+00  0.90007805768E+02  0.90000068004E+02 0.  0.
         12    1    1    2    0    0  0.98073860488E+00 -0.46694900648E+00  0.46148547154E+00  0.11801942324E+01  0.00000000000E+00 0. -1.
         11    1    3    3    0    0  0.10752686266E+02 -0.28970383183E+02  0.29497408197E+02  0.42720024043E+02  0.51100000000E-03 0. -1.
        -11    1    3    3    0    0 -0.87844870963E+01  0.57734642154E+01 -0.22862397982E+01  0.10757648222E+02  0.51100000000E-03 0.  1.
        -12    1    3    3    0    0 -0.29489377742E+01  0.23663867974E+02 -0.27672653870E+02  0.36530133502E+02  0.00000000000E+00 0.  1.
</event>
<event>
 7    1  0.1935465E-015  0.9000771E+02  0.7816164E-02  0.1186339E+00
        -11   -1    0    0    0    0  0.00000000000E+00  0.00000000000E+00  0.45593999997E+02  0.45594000000E+02  0.51100000000E-03 0.  1.
         11   -1    0    0    0    0 -0.00000000000E+00 -0.00000000000E+00 -0.45593999997E+02  0.45594000000E+02  0.51100000000E-03 0. -1.
    9900012    2    1    2    0    0 -0.10097333907E+01  0.51204802316E+00 -0.33364359704E+00  0.90007714972E+02  0.89999976009E+02 0.  0.
         12    1    1    2    0    0  0.10097333907E+01 -0.51204802316E+00  0.33364359704E+00  0.11802850283E+01  0.00000000000E+00 0. -1.
         11    1    3    3    0    0  0.22648782249E+01  0.67179073886E+01  0.46157525008E+01  0.84596172765E+01  0.51100000000E-03 0. -1.
        -11    1    3    3    0    0  0.13709661515E+02  0.23462982911E+02  0.24377227164E+02  0.36506377393E+02  0.51100000000E-03 0.  1.
         12    1    3    3    0    0 -0.16984273130E+02 -0.29668842277E+02 -0.29326623261E+02  0.45041720302E+02  0.00000000000E+00 0. -1.
</event>
<event>
 7    1  0.1935465E-015  0.9000779E+02  0.7816164E-02  0.1186339E+00
        -11   -1    0    0    0    0  0.00000000000E+00  0.00000000000E+00  0.45593999997E+02  0.45594000000E+02  0.51100000000E-03 0.  1.
         11   -1    0    0    0    0 -0.00000000000E+00 -0.00000000000E+00 -0.45593999997E+02  0.45594000000E+02  0.51100000000E-03 0. -1.
    9900012    2    1    2    0    0  0.74502171358E+00  0.54958329833E+00 -0.73198722659E+00  0.90007786267E+02  0.90000048246E+02 0.  0.
         12    1    1    2    0    0 -0.74502171358E+00 -0.54958329833E+00  0.73198722659E+00  0.11802137329E+01  0.00000000000E+00 0. -1.
         11    1    3    3    0    0 -0.19761517032E+02 -0.15146000423E+02 -0.17917150472E+02  0.30674796911E+02  0.51100000000E-03 0. -1.
        -11    1    3    3    0    0 -0.50360003182E+01 -0.15397955333E+02  0.79551100263E+01  0.18048326888E+02  0.51100000000E-03 0.  1.
        -12    1    3    3    0    0  0.25542539064E+02  0.31093539054E+02  0.92300532194E+01  0.41284662469E+02  0.00000000000E+00 0.  1.
</event>
<event>
 7    1  0.1935465E-015  0.9000768E+02  0.7816164E-02  0.1186339E+00
        -11   -1    0    0    0    0  0.00000000000E+00  0.00000000000E+00  0.45593999997E+02  0.45594000000E+02  0.51100000000E-03 0.  1.
         11   -1    0    0    0    0 -0.00000000000E+00 -0.00000000000E+00 -0.45593999997E+02  0.45594000000E+02  0.51100000000E-03 0. -1.
    9900012    2    1    2    0    0 -0.82297297450E+00 -0.56885499297E+00 -0.62630941376E+00  0.90007684787E+02  0.89999945426E+02 0.  0.
         12    1    1    2    0    0  0.82297297450E+00  0.56885499297E+00  0.62630941376E+00  0.11803152128E+01  0.00000000000E+00 0. -1.
         11    1    3    3    0    0  0.81198499037E+01 -0.90815660404E-01 -0.35264812807E+01  0.88530379208E+01  0.51100000000E-03 0. -1.
        -11    1    3    3    0    0  0.93089524089E+01 -0.36440107509E+02  0.12620118079E+02  0.39671216402E+02  0.51100000000E-03 0.  1.
         12    1    3    3    0    0 -0.18251775287E+02  0.35962068177E+02 -0.97199462125E+01  0.41483430464E+02  0.00000000000E+00 0. -1.
</event>
<event>
 7    1  0.1935465E-015  0.9000767E+02  0.7816164E-02  0.1186339E+00
        -11   -1    0    0    0    0  0.00000000000E+00  0.00000000000E+00  0.45593999997E+02  0.45594000000E+02  0.51100000000E-03 0. -1.
         11   -1    0    0    0    0 -0.00000000000E+00 -0.00000000000E+00 -0.45593999997E+02  0.45594000000E+02  0.51100000000E-03 0.  1.
    9900012    2    1    2    0    0  0.47174142324E+00 -0.10725543072E+01 -0.14233757951E+00  0.90007672631E+02  0.89999933109E+02 0.  0.
         12    1    1    2    0    0 -0.47174142324E+00  0.10725543072E+01  0.14233757951E+00  0.11803273693E+01  0.00000000000E+00 0. -1.
         11    1    3    3    0    0 -0.13089486832E+02 -0.13227845662E+02  0.60189008235E+01  0.19558571874E+02  0.51100000000E-03 0. -1.
        -11    1    3    3    0    0 -0.20675778460E+02  0.22040412893E+02  0.92784613425E+01  0.31612615528E+02  0.51100000000E-03 0.  1.
        -12    1    3    3    0    0  0.34237006715E+02 -0.98851215378E+01 -0.15439699745E+02  0.38836485228E+02  0.00000000000E+00 0.  1.
</event>
<event>
 7    1  0.1935465E-015  0.9000777E+02  0.7816164E-02  0.1186339E+00
        -11   -1    0    0    0    0  0.00000000000E+00  0.00000000000E+00  0.45593999997E+02  0.45594000000E+02  0.51100000000E-03 0.  1.
         11   -1    0    0    0    0 -0.00000000000E+00 -0.00000000000E+00 -0.45593999997E+02  0.45594000000E+02  0.51100000000E-03 0. -1.
    9900012    2    1    2    0    0  0.94857487137E+00 -0.62783113396E+00 -0.31460241918E+00  0.90007770827E+02  0.90000032602E+02 0.  0.
         12    1    1    2    0    0 -0.94857487137E+00  0.62783113396E+00  0.31460241918E+00  0.11802291733E+01  0.00000000000E+00 0. -1.
         11    1    3    3    0    0 -0.28828691014E+01 -0.12978600504E+01  0.92432153228E+01  0.97689510559E+01  0.51100000000E-03 0. -1.
        -11    1    3    3    0    0  0.12495621039E+00  0.19801118232E+02  0.30113076286E+02  0.36040217271E+02  0.51100000000E-03 0.  1.
         12    1    3    3    0    0  0.37064877624E+01 -0.19131089315E+02 -0.39670894028E+02  0.44198602500E+02  0.00000000000E+00 0. -1.
</event>
<event>
 7    1  0.1935465E-015  0.9000775E+02  0.7816164E-02  0.1186339E+00
        -11   -1    0    0    0    0  0.00000000000E+00  0.00000000000E+00  0.45593999997E+02  0.45594000000E+02  0.51100000000E-03 0. -1.
         11   -1    0    0    0    0 -0.00000000000E+00 -0.00000000000E+00 -0.45593999997E+02  0.45594000000E+02  0.51100000000E-03 0.  1.
    9900012    2    1    2    0    0 -0.15982671016E+00  0.22650315975E+00 -0.11472368811E+01  0.90007745485E+02  0.90000006925E+02 0.  0.
         12    1    1    2    0    0  0.15982671016E+00 -0.22650315975E+00  0.11472368811E+01  0.11802545149E+01  0.00000000000E+00 0. -1.
         11    1    3    3    0    0 -0.50412488378E+01  0.76834807794E+01 -0.14394418957E+01  0.93017234943E+01  0.51100000000E-03 0. -1.
        -11    1    3    3    0    0 -0.29411235220E+02  0.62487307742E+01 -0.22281037073E+02  0.37423415220E+02  0.51100000000E-03 0.  1.
         12    1    3    3    0    0  0.34292657348E+02 -0.13705708394E+02  0.22573242087E+02  0.43282606771E+02  0.00000000000E+00 0. -1.
</event>
<event>
 7    1  0.1935465E-015  0.9000751E+02  0.7816164E-02  0.1186340E+00
        -11   -1    0    0    0    0  0.00000000000E+00  0.00000000000E+00  0.45593999997E+02  0.45594000000E+02  0.51100000000E-03 0.  1.
         11   -1    0    0    0    0 -0.00000000000E+00 -0.00000000000E+00 -0.45593999997E+02  0.45594000000E+02  0.51100000000E-03 0. -1.
    9900012    2    1    2    0    0 -0.91072532044E+00  0.74921740653E+00 -0.53026662740E-01  0.90007508933E+02  0.89999767251E+02 0.  0.
         12    1    1    2    0    0  0.91072532044E+00 -0.74921740653E+00  0.53026662740E-01  0.11804910667E+01  0.00000000000E+00 0. -1.
         11    1    3    3    0    0  0.59441566858E+01  0.86315329604E+01  0.42420087096E+01  0.11306237133E+02  0.51100000000E-03 0. -1.
        -11    1    3    3    0    0  0.55926866627E+01 -0.25106921807E+02  0.29274978381E+02  0.38969988789E+02  0.51100000000E-03 0.  1.
         12    1    3    3    0    0 -0.12447568669E+02  0.17224606253E+02 -0.33570013753E+02  0.39731283012E+02  0.00000000000E+00 0. -1.
</event>
<event>
 7    1  0.1935465E-015  0.9000813E+02  0.7816164E-02  0.1186338E+00
        -11   -1    0    0    0    0  0.00000000000E+00  0.00000000000E+00  0.45593999997E+02  0.45594000000E+02  0.51100000000E-03 0. -1.
         11   -1    0    0    0    0 -0.00000000000E+00 -0.00000000000E+00 -0.45593999997E+02  0.45594000000E+02  0.51100000000E-03 0.  1.
    9900012    2    1    2    0    0  0.84545258199E+00  0.71271482890E+00  0.41152317285E+00  0.90008125508E+02  0.90000391964E+02 0.  0.
         12    1    1    2    0    0 -0.84545258199E+00 -0.71271482890E+00 -0.41152317285E+00  0.11798744923E+01  0.00000000000E+00 0. -1.
         11    1    3    3    0    0 -0.51242965000E+01  0.17540906801E+01 -0.70553113706E+01  0.88945302030E+01  0.51100000000E-03 0. -1.
        -11    1    3    3    0    0  0.29049867356E+00 -0.24227776459E+02  0.36323245809E+02  0.43662887307E+02  0.51100000000E-03 0.  1.
         12    1    3    3    0    0  0.56792504085E+01  0.23186400608E+02 -0.28856411266E+02  0.37450707997E+02  0.00000000000E+00 0. -1.
</event>
<event>
 7    1  0.1935465E-015  0.9000768E+02  0.7816164E-02  0.1186339E+00
        -11   -1    0    0    0    0  0.00000000000E+00  0.00000000000E+00  0.45593999997E+02  0.45594000000E+02  0.51100000000E-03 0. -1.
         11   -1    0    0    0    0 -0.00000000000E+00 -0.00000000000E+00 -0.45593999997E+02  0.45594000000E+02  0.51100000000E-03 0.  1.
    9900012    2    1    2    0    0  0.11446030754E+01 -0.23722949432E+00  0.16358512824E+00  0.90007680498E+02  0.89999941080E+02 0.  0.
         12    1    1    2    0    0 -0.11446030754E+01  0.23722949432E+00 -0.16358512824E+00  0.11803195023E+01  0.00000000000E+00 0. -1.
         11    1    3    3    0    0  0.33732227497E+01  0.60052238851E+01 -0.71124543734E+01  0.99009268811E+01  0.51100000000E-03 0. -1.
        -11    1    3    3    0    0  0.30011473529E+02 -0.11871885117E+02 -0.19598389757E+02  0.37758801371E+02  0.51100000000E-03 0.  1.
         12    1    3    3    0    0 -0.32240093203E+02  0.56294317377E+01  0.26874429259E+02  0.42347952246E+02  0.00000000000E+00 0. -1.
</event>
<event>
 7    1  0.1935465E-015  0.9000777E+02  0.7816164E-02  0.1186339E+00
        -11   -1    0    0    0    0  0.00000000000E+00  0.00000000000E+00  0.45593999997E+02  0.45594000000E+02  0.51100000000E-03 0.  1.
         11   -1    0    0    0    0 -0.00000000000E+00 -0.00000000000E+00 -0.45593999997E+02  0.45594000000E+02  0.51100000000E-03 0. -1.
    9900012    2    1    2    0    0  0.63564104313E+00  0.98072646258E+00  0.16455350283E+00  0.90007770452E+02  0.90000032222E+02 0.  0.
         12    1    1    2    0    0 -0.63564104313E+00 -0.98072646258E+00 -0.16455350283E+00  0.11802295478E+01  0.00000000000E+00 0. -1.
         11    1    3    3    0    0  0.79238384849E+01  0.27432901427E+01  0.78075108114E+01  0.11457315675E+02  0.51100000000E-03 0. -1.
        -11    1    3    3    0    0  0.34148394999E+02  0.18757239982E+01 -0.13048720899E+02  0.36604649143E+02  0.51100000000E-03 0.  1.
         12    1    3    3    0    0 -0.41436592441E+02 -0.36382876784E+01  0.54057635908E+01  0.41945805634E+02  0.00000000000E+00 0. -1.
</event>
<event>
 7    1  0.1935465E-015  0.9000781E+02  0.7816164E-02  0.1186339E+00
        -11   -1    0    0    0    0  0.00000000000E+00  0.00000000000E+00  0.45593999997E+02  0.45594000000E+02  0.51100000000E-03 0.  1.
         11   -1    0    0    0    0 -0.00000000000E+00 -0.00000000000E+00 -0.45593999997E+02  0.45594000000E+02  0.51100000000E-03 0. -1.
    9900012    2    1    2    0    0  0.99965745601E+00  0.48687097319E+00  0.39558783248E+00  0.90007810139E+02  0.90000072433E+02 0.  0.
         12    1    1    2    0    0 -0.99965745601E+00 -0.48687097319E+00 -0.39558783248E+00  0.11801898606E+01  0.00000000000E+00 0. -1.
         11    1    3    3    0    0  0.22278748205E+02 -0.83669547601E-01 -0.28100070713E+02  0.35860334585E+02  0.51100000000E-03 0. -1.
        -11    1    3    3    0    0 -0.65418640859E-01  0.17310199504E+01 -0.10015821614E+02  0.10164516345E+02  0.51100000000E-03 0.  1.
        -12    1    3    3    0    0 -0.21213672108E+02 -0.11604794296E+01  0.38511480159E+02  0.43982959210E+02  0.00000000000E+00 0.  1.
</event>
<event>
 7    1  0.1935465E-015  0.9000776E+02  0.7816164E-02  0.1186339E+00
        -11   -1    0    0    0    0  0.00000000000E+00  0.00000000000E+00  0.45593999997E+02  0.45594000000E+02  0.51100000000E-03 0.  1.
         11   -1    0    0    0    0 -0.00000000000E+00 -0.00000000000E+00 -0.45593999997E+02  0.45594000000E+02  0.51100000000E-03 0. -1.
    9900012    2    1    2    0    0 -0.11418689668E+00 -0.11637179539E+01 -0.16030506304E+00  0.90007756027E+02  0.90000017606E+02 0.  0.
         12    1    1    2    0    0  0.11418689668E+00  0.11637179539E+01  0.16030506304E+00  0.11802439735E+01  0.00000000000E+00 0. -1.
         11    1    3    3    0    0  0.23329898673E+02 -0.11807439875E+02 -0.20869931475E+02  0.33455251435E+02  0.51100000000E-03 0. -1.
        -11    1    3    3    0    0  0.99215485354E+01 -0.79660992000E+01  0.11732371024E+02  0.17307350805E+02  0.51100000000E-03 0.  1.
        -12    1    3    3    0    0 -0.33365634105E+02  0.18609821122E+02  0.89772553887E+01  0.39245153786E+02  0.00000000000E+00 0.  1.
</event>
<event>
 7    1  0.1935465E-015  0.9000768E+02  0.7816164E-02  0.1186339E+00
        -11   -1    0    0    0    0  0.00000000000E+00  0.00000000000E+00  0.45593999997E+02  0.45594000000E+02  0.51100000000E-03 0.  1.
         11   -1    0    0    0    0 -0.00000000000E+00 -0.00000000000E+00 -0.45593999997E+02  0.45594000000E+02  0.51100000000E-03 0. -1.
    9900012    2    1    2    0    0 -0.40420316965E+00 -0.81622394836E+00  0.75070095115E+00  0.90007680698E+02  0.89999941283E+02 0.  0.
         12    1    1    2    0    0  0.40420316965E+00  0.81622394836E+00 -0.75070095115E+00  0.11803193018E+01  0.00000000000E+00 0. -1.
         11    1    3    3    0    0  0.27406052415E+02 -0.11980988381E+01 -0.24033728388E+02  0.36471183835E+02  0.51100000000E-03 0. -1.
        -11    1    3    3    0    0  0.19767679117E+01  0.10289232067E+02 -0.37362310652E+01  0.11123638377E+02  0.51100000000E-03 0.  1.
        -12    1    3    3    0    0 -0.29787023497E+02 -0.99073571777E+01  0.28520660405E+02  0.42412858486E+02  0.00000000000E+00 0.  1.
</event>
<event>
 7    1  0.1935465E-015  0.9000734E+02  0.7816164E-02  0.1186340E+00
        -11   -1    0    0    0    0  0.00000000000E+00  0.00000000000E+00  0.45593999997E+02  0.45594000000E+02  0.51100000000E-03 0.  1.
         11   -1    0    0    0    0 -0.00000000000E+00 -0.00000000000E+00 -0.45593999997E+02  0.45594000000E+02  0.51100000000E-03 0. -1.
    9900012    2    1    2    0    0 -0.81947538502E+00  0.73295554364E+00  0.43034235523E+00  0.90007339897E+02  0.89999595983E+02 0.  0.
         12    1    1    2    0    0  0.81947538502E+00 -0.73295554364E+00 -0.43034235523E+00  0.11806601028E+01  0.00000000000E+00 0. -1.
         11    1    3    3    0    0 -0.35584983661E+01 -0.29815738026E+02 -0.19294765524E+02  0.35692143695E+02  0.51100000000E-03 0. -1.
        -11    1    3    3    0    0  0.33196486859E+01 -0.74571331604E+01 -0.44219202004E+01  0.92834412203E+01  0.51100000000E-03 0.  1.
        -12    1    3    3    0    0 -0.58062570481E+00  0.38005826731E+02  0.24147028079E+02  0.45031754982E+02  0.00000000000E+00 0.  1.
</event>
<event>
 7    1  0.1935465E-015  0.9000773E+02  0.7816164E-02  0.1186339E+00
        -11   -1    0    0    0    0  0.00000000000E+00  0.00000000000E+00  0.45593999997E+02  0.45594000000E+02  0.51100000000E-03 0. -1.
         11   -1    0    0    0    0 -0.00000000000E+00 -0.00000000000E+00 -0.45593999997E+02  0.45594000000E+02  0.51100000000E-03 0.  1.
    9900012    2    1    2    0    0 -0.10422566491E+01  0.54762287786E+00 -0.82778091050E-01  0.90007728018E+02  0.89999989228E+02 0.  0.
         12    1    1    2    0    0  0.10422566491E+01 -0.54762287786E+00  0.82778091050E-01  0.11802719819E+01  0.00000000000E+00 0. -1.
         11    1    3    3    0    0 -0.24877821103E+01 -0.72913878921E+01 -0.66912335283E+01  0.10204214992E+02  0.51100000000E-03 0. -1.
        -11    1    3    3    0    0 -0.31935511016E+02 -0.14994419123E+02 -0.90698413108E+01  0.36427619883E+02  0.51100000000E-03 0.  1.
         12    1    3    3    0    0  0.33381036477E+02  0.22833429893E+02  0.15678296748E+02  0.43375893142E+02  0.00000000000E+00 0. -1.
</event>
<event>
 7    1  0.1935465E-015  0.9000767E+02  0.7816164E-02  0.1186339E+00
        -11   -1    0    0    0    0  0.00000000000E+00  0.00000000000E+00  0.45593999997E+02  0.45594000000E+02  0.51100000000E-03 0.  1.
         11   -1    0    0    0    0 -0.00000000000E+00 -0.00000000000E+00 -0.45593999997E+02  0.45594000000E+02  0.51100000000E-03 0. -1.
    9900012    2    1    2    0    0  0.39963447515E+00 -0.49753544361E+00  0.99293836075E+00  0.90007671309E+02  0.89999931770E+02 0.  0.
         12    1    1    2    0    0 -0.39963447515E+00  0.49753544361E+00 -0.99293836075E+00  0.11803286914E+01  0.00000000000E+00 0. -1.
         11    1    3    3    0    0  0.15399002161E+02  0.12852005904E+02 -0.33421186622E+02  0.38977930150E+02  0.51100000000E-03 0. -1.
        -11    1    3    3    0    0  0.88473921648E+01 -0.23694541489E+01  0.21029289834E+01  0.93974981592E+01  0.51100000000E-03 0.  1.
        -12    1    3    3    0    0 -0.23846759851E+02 -0.10980087198E+02  0.32311195999E+02  0.41632242999E+02  0.00000000000E+00 0.  1.
</event>
<event>
 7    1  0.1935465E-015  0.9000770E+02  0.7816164E-02  0.1186339E+00
        -11   -1    0    0    0    0  0.00000000000E+00  0.00000000000E+00  0.45593999997E+02  0.45594000000E+02  0.51100000000E-03 0.  1.
         11   -1    0    0    0    0 -0.00000000000E+00 -0.00000000000E+00 -0.45593999997E+02  0.45594000000E+02  0.51100000000E-03 0. -1.
    9900012    2    1    2    0    0  0.15465900647E+00 -0.43300000888E+00  0.10870546832E+01  0.90007704994E+02  0.89999965900E+02 0.  0.
         12    1    1    2    0    0 -0.15465900647E+00  0.43300000888E+00 -0.10870546832E+01  0.11802950056E+01  0.00000000000E+00 0. -1.
         11    1    3    3    0    0 -0.22523804013E+02  0.70046543111E+01 -0.17937947099E+02  0.29633711810E+02  0.51100000000E-03 0. -1.
        -11    1    3    3    0    0 -0.62979242738E+01  0.16964846497E+02  0.25940631571E+00  0.18097987698E+02  0.51100000000E-03 0.  1.
        -12    1    3    3    0    0  0.28976387293E+02 -0.24402500817E+02  0.18765595466E+02  0.42276005487E+02  0.00000000000E+00 0.  1.
</event>
<event>
 7    1  0.1935465E-015  0.9000771E+02  0.7816164E-02  0.1186339E+00
        -11   -1    0    0    0    0  0.00000000000E+00  0.00000000000E+00  0.45593999997E+02  0.45594000000E+02  0.51100000000E-03 0. -1.
         11   -1    0    0    0    0 -0.00000000000E+00 -0.00000000000E+00 -0.45593999997E+02  0.45594000000E+02  0.51100000000E-03 0.  1.
    9900012    2    1    2    0    0  0.36134125375E+00  0.39722839858E+00 -0.10510548012E+01  0.90007714400E+02  0.89999975430E+02 0.  0.
         12    1    1    2    0    0 -0.36134125375E+00 -0.39722839858E+00  0.10510548012E+01  0.11802856000E+01  0.00000000000E+00 0. -1.
         11    1    3    3    0    0  0.94414087653E+01 -0.18208575603E+02  0.31788870174E+02  0.37831530397E+02  0.51100000000E-03 0. -1.
        -11    1    3    3    0    0 -0.66473546839E+01  0.28414323682E+01  0.65023749578E+01  0.97232681003E+01  0.51100000000E-03 0.  1.
        -12    1    3    3    0    0 -0.24327128276E+01  0.15764371633E+02 -0.39342299933E+02  0.42452915903E+02  0.00000000000E+00 0.  1.
</event>
<event>
 7    1  0.1935465E-015  0.9000797E+02  0.7816164E-02  0.1186339E+00
        -11   -1    0    0    0    0  0.00000000000E+00  0.00000000000E+00  0.45593999997E+02  0.45594000000E+02  0.51100000000E-03 0.  1.
         11   -1    0    0    0    0 -0.00000000000E+00 -0.00000000000E+00 -0.45593999997E+02  0.45594000000E+02  0.51100000000E-03 0. -1.
    9900012    2    1    2    0    0  0.92430092554E+00  0.54122917780E+00  0.49519281084E+00  0.90007967312E+02  0.90000231681E+02 0.  0.
         12    1    1    2    0    0 -0.92430092554E+00 -0.54122917780E+00 -0.49519281084E+00  0.11800326876E+01  0.00000000000E+00 0. -1.
         11    1    3    3    0    0 -0.47055628455E+01 -0.66361845925E+01  0.79200311430E+01  0.11353772994E+02  0.51100000000E-03 0. -1.
        -11    1    3    3    0    0 -0.23146261859E+02 -0.54972089826E+01  0.24285993822E+02  0.33996738679E+02  0.51100000000E-03 0.  1.
         12    1    3    3    0    0  0.28776125630E+02  0.12674622753E+02 -0.31710832154E+02  0.44657455639E+02  0.00000000000E+00 0. -1.
</event>
<event>
 7    1  0.1935465E-015  0.9000751E+02  0.7816164E-02  0.1186339E+00
        -11   -1    0    0    0    0  0.00000000000E+00  0.00000000000E+00  0.45593999997E+02  0.45594000000E+02  0.51100000000E-03 0. -1.
         11   -1    0    0    0    0 -0.00000000000E+00 -0.00000000000E+00 -0.45593999997E+02  0.45594000000E+02  0.51100000000E-03 0.  1.
    9900012    2    1    2    0    0  0.54807480437E+00  0.67883200326E+00 -0.79520359790E+00  0.90007513811E+02  0.89999772193E+02 0.  0.
         12    1    1    2    0    0 -0.54807480437E+00 -0.67883200326E+00  0.79520359790E+00  0.11804861888E+01  0.00000000000E+00 0. -1.
         11    1    3    3    0    0 -0.14039972940E+02 -0.19651224725E+02 -0.30394147782E+02  0.38821330387E+02  0.51100000000E-03 0. -1.
        -11    1    3    3    0    0 -0.89752035104E+01  0.28719435171E+01  0.16643221166E+02  0.19125876416E+02  0.51100000000E-03 0.  1.
        -12    1    3    3    0    0  0.23563251255E+02  0.17458113211E+02  0.12955723017E+02  0.32060307009E+02  0.00000000000E+00 0.  1.
</event>
<event>
 7    1  0.1935465E-015  0.9000774E+02  0.7816164E-02  0.1186339E+00
        -11   -1    0    0    0    0  0.00000000000E+00  0.00000000000E+00  0.45593999997E+02  0.45594000000E+02  0.51100000000E-03 0.  1.
         11   -1    0    0    0    0 -0.00000000000E+00 -0.00000000000E+00 -0.45593999997E+02  0.45594000000E+02  0.51100000000E-03 0. -1.
    9900012    2    1    2    0    0 -0.93107342489E+00 -0.70344119963E+00 -0.17686870828E+00  0.90007741645E+02  0.90000003035E+02 0.  0.
         12    1    1    2    0    0  0.93107342489E+00  0.70344119963E+00  0.17686870828E+00  0.11802583547E+01  0.00000000000E+00 0. -1.
         11    1    3    3    0    0  0.91537060173E+01 -0.38804300010E+01 -0.15951780755E+01  0.10069392444E+02  0.51100000000E-03 0. -1.
        -11    1    3    3    0    0  0.87969912679E+01  0.38651657290E+02 -0.12837185438E+01  0.39660882494E+02  0.51100000000E-03 0.  1.
         12    1    3    3    0    0 -0.18881770710E+02 -0.35474668489E+02  0.27020279110E+01  0.40277466707E+02  0.00000000000E+00 0. -1.
</event>
<event>
 7    1  0.1935465E-015  0.9000781E+02  0.7816164E-02  0.1186339E+00
        -11   -1    0    0    0    0  0.00000000000E+00  0.00000000000E+00  0.45593999997E+02  0.45594000000E+02  0.51100000000E-03 0.  1.
         11   -1    0    0    0    0 -0.00000000000E+00 -0.00000000000E+00 -0.45593999997E+02  0.45594000000E+02  0.51100000000E-03 0. -1.
    9900012    2    1    2    0    0  0.95892006460E+00 -0.67136461624E+00  0.15029938401E+00  0.90007810167E+02  0.90000072461E+02 0.  0.
         12    1    1    2    0    0 -0.95892006460E+00  0.67136461624E+00 -0.15029938401E+00  0.11801898335E+01  0.00000000000E+00 0. -1.
         11    1    3    3    0    0 -0.34345063931E+02 -0.35274669825E+01  0.22392050492E+02  0.41151310614E+02  0.51100000000E-03 0. -1.
        -11    1    3    3    0    0  0.11458909788E+02 -0.21032088243E+01  0.46778110195E+01  0.12554362472E+02  0.51100000000E-03 0.  1.
        -12    1    3    3    0    0  0.23845074208E+02  0.49593111906E+01 -0.26919562127E+02  0.36302137080E+02  0.00000000000E+00 0.  1.
</event>
<event>
 7    1  0.1935465E-015  0.9000774E+02  0.7816164E-02  0.1186339E+00
        -11   -1    0    0    0    0  0.00000000000E+00  0.00000000000E+00  0.45593999997E+02  0.45594000000E+02  0.51100000000E-03 0.  1.
         11   -1    0    0    0    0 -0.00000000000E+00 -0.00000000000E+00 -0.45593999997E+02  0.45594000000E+02  0.51100000000E-03 0. -1.
    9900012    2    1    2    0    0  0.30201243677E+00 -0.26899723250E-01  0.11406501298E+01  0.90007738239E+02  0.89999999583E+02 0.  0.
         12    1    1    2    0    0 -0.30201243677E+00  0.26899723250E-01 -0.11406501298E+01  0.11802617615E+01  0.00000000000E+00 0. -1.
         11    1    3    3    0    0 -0.32020564365E+02 -0.24816886431E+02  0.48825040473E+01  0.40804818838E+02  0.51100000000E-03 0. -1.
        -11    1    3    3    0    0 -0.10060912613E+01  0.21747136306E+01 -0.83276498424E+01  0.86655265945E+01  0.51100000000E-03 0.  1.
        -12    1    3    3    0    0  0.33328668063E+02  0.22615273077E+02  0.45857959248E+01  0.40537392806E+02  0.00000000000E+00 0.  1.
</event>
<event>
 7    1  0.1935465E-015  0.9000764E+02  0.7816164E-02  0.1186339E+00
        -11   -1    0    0    0    0  0.00000000000E+00  0.00000000000E+00  0.45593999997E+02  0.45594000000E+02  0.51100000000E-03 0. -1.
         11   -1    0    0    0    0 -0.00000000000E+00 -0.00000000000E+00 -0.45593999997E+02  0.45594000000E+02  0.51100000000E-03 0.  1.
    9900012    2    1    2    0    0 -0.72284822274E+00  0.40607887669E+00 -0.84013651236E+00  0.90007644559E+02  0.89999904667E+02 0.  0.
         12    1    1    2    0    0  0.72284822274E+00 -0.40607887669E+00  0.84013651236E+00  0.11803554408E+01  0.00000000000E+00 0. -1.
         11    1    3    3    0    0  0.54641927658E+01 -0.62238211058E+01 -0.40619047838E+01  0.92245554079E+01  0.51100000000E-03 0. -1.
        -11    1    3    3    0    0 -0.22275664826E+02  0.37791755028E+02 -0.66041892936E+01  0.44362566517E+02  0.51100000000E-03 0.  1.
         12    1    3    3    0    0  0.16088623837E+02 -0.31161855046E+02  0.98259575650E+01  0.36420522634E+02  0.00000000000E+00 0. -1.
</event>
<event>
 7    1  0.1935465E-015  0.9000865E+02  0.7816164E-02  0.1186337E+00
        -11   -1    0    0    0    0  0.00000000000E+00  0.00000000000E+00  0.45593999997E+02  0.45594000000E+02  0.51100000000E-03 0.  1.
         11   -1    0    0    0    0 -0.00000000000E+00 -0.00000000000E+00 -0.45593999997E+02  0.45594000000E+02  0.51100000000E-03 0. -1.
    9900012    2    1    2    0    0 -0.12744165070E+00  0.89271945473E+00 -0.76004337980E+00  0.90008654699E+02  0.90000928137E+02 0.  0.
         12    1    1    2    0    0  0.12744165070E+00 -0.89271945473E+00  0.76004337980E+00  0.11793453007E+01  0.00000000000E+00 0. -1.
         11    1    3    3    0    0 -0.47126818451E+01 -0.10756503060E+01  0.38092089928E+01  0.61543860105E+01  0.51100000000E-03 0. -1.
        -11    1    3    3    0    0  0.27965848967E+02 -0.10221452056E+01  0.30631801001E+02  0.41490248519E+02  0.51100000000E-03 0.  1.
         12    1    3    3    0    0 -0.23380608773E+02  0.29905149664E+01 -0.35201053374E+02  0.42364020170E+02  0.00000000000E+00 0. -1.
</event>
<event>
 7    1  0.1935465E-015  0.9000778E+02  0.7816164E-02  0.1186339E+00
        -11   -1    0    0    0    0  0.00000000000E+00  0.00000000000E+00  0.45593999997E+02  0.45594000000E+02  0.51100000000E-03 0.  1.
         11   -1    0    0    0    0 -0.00000000000E+00 -0.00000000000E+00 -0.45593999997E+02  0.45594000000E+02  0.51100000000E-03 0. -1.
    9900012    2    1    2    0    0 -0.11498220826E+01  0.15934432875E+00 -0.21318130726E+00  0.90007776417E+02  0.90000038265E+02 0.  0.
         12    1    1    2    0    0  0.11498220826E+01 -0.15934432875E+00  0.21318130726E+00  0.11802235833E+01  0.00000000000E+00 0. -1.
         11    1    3    3    0    0 -0.40815214367E+01 -0.67392620020E+01  0.44467341364E+01  0.90470942468E+01  0.51100000000E-03 0. -1.
        -11    1    3    3    0    0  0.16165980261E+02 -0.33498827763E+02  0.45248330772E+01  0.37469781077E+02  0.51100000000E-03 0.  1.
         12    1    3    3    0    0 -0.13234280907E+02  0.40397434094E+02 -0.91847485208E+01  0.43490901093E+02  0.00000000000E+00 0. -1.
</event>
<event>
 7    1  0.1935465E-015  0.9000779E+02  0.7816164E-02  0.1186339E+00
        -11   -1    0    0    0    0  0.00000000000E+00  0.00000000000E+00  0.45593999997E+02  0.45594000000E+02  0.51100000000E-03 0. -1.
         11   -1    0    0    0    0 -0.00000000000E+00 -0.00000000000E+00 -0.45593999997E+02  0.45594000000E+02  0.51100000000E-03 0.  1.
    9900012    2    1    2    0    0 -0.42742678876E+00 -0.10509679722E+01 -0.32505425579E+00  0.90007793405E+02  0.90000055478E+02 0.  0.
         12    1    1    2    0    0  0.42742678876E+00  0.10509679722E+01  0.32505425579E+00  0.11802065953E+01  0.00000000000E+00 0. -1.
         11    1    3    3    0    0  0.19776407944E+02 -0.24344673509E+02  0.25155107780E+02  0.40206328943E+02  0.51100000000E-03 0. -1.
        -11    1    3    3    0    0 -0.76026737037E+01  0.20549585914E+01  0.59207532730E+01  0.98528585618E+01  0.51100000000E-03 0.  1.
        -12    1    3    3    0    0 -0.12601161029E+02  0.21238746946E+02 -0.31400915309E+02  0.39948605900E+02  0.00000000000E+00 0.  1.
</event>
<event>
 7    1  0.1935465E-015  0.9000770E+02  0.7816164E-02  0.1186339E+00
        -11   -1    0    0    0    0  0.00000000000E+00  0.00000000000E+00  0.45593999997E+02  0.45594000000E+02  0.51100000000E-03 0. -1.
         11   -1    0    0    0    0 -0.00000000000E+00 -0.00000000000E+00 -0.45593999997E+02  0.45594000000E+02  0.51100000000E-03 0.  1.
    9900012    2    1    2    0    0 -0.42141640406E+00  0.56783703359E+00 -0.94502545981E+00  0.90007701816E+02  0.89999962680E+02 0.  0.
         12    1    1    2    0    0  0.42141640406E+00 -0.56783703359E+00  0.94502545981E+00  0.11802981835E+01  0.00000000000E+00 0. -1.
         11    1    3    3    0    0  0.36403378084E+01  0.84878735182E+01  0.82040815829E+01  0.12353259129E+02  0.51100000000E-03 0. -1.
        -11    1    3    3    0    0 -0.22722788640E+02  0.24912658748E+02 -0.18894623872E+02  0.38651940455E+02  0.51100000000E-03 0.  1.
         12    1    3    3    0    0  0.18661034428E+02 -0.32832695232E+02  0.97455168289E+01  0.39002502232E+02  0.00000000000E+00 0. -1.
</event>
<event>
 7    1  0.1935465E-015  0.9000772E+02  0.7816164E-02  0.1186339E+00
        -11   -1    0    0    0    0  0.00000000000E+00  0.00000000000E+00  0.45593999997E+02  0.45594000000E+02  0.51100000000E-03 0.  1.
         11   -1    0    0    0    0 -0.00000000000E+00 -0.00000000000E+00 -0.45593999997E+02  0.45594000000E+02  0.51100000000E-03 0. -1.
    9900012    2    1    2    0    0  0.24528162716E+00 -0.16570875922E+00  0.11425554429E+01  0.90007722317E+02  0.89999983451E+02 0.  0.
         12    1    1    2    0    0 -0.24528162716E+00  0.16570875922E+00 -0.11425554429E+01  0.11802776832E+01  0.00000000000E+00 0. -1.
         11    1    3    3    0    0  0.17533006501E+02  0.96691176732E+01 -0.13488093166E+01  0.20067821017E+02  0.51100000000E-03 0. -1.
        -11    1    3    3    0    0 -0.20843796941E-01  0.21763510455E+02  0.20306242506E+02  0.29765656498E+02  0.51100000000E-03 0.  1.
         12    1    3    3    0    0 -0.17266881077E+02 -0.31598336888E+02 -0.17814877747E+02  0.40174244801E+02  0.00000000000E+00 0. -1.
</event>
<event>
 7    1  0.1935465E-015  0.9000779E+02  0.7816164E-02  0.1186339E+00
        -11   -1    0    0    0    0  0.00000000000E+00  0.00000000000E+00  0.45593999997E+02  0.45594000000E+02  0.51100000000E-03 0. -1.
         11   -1    0    0    0    0 -0.00000000000E+00 -0.00000000000E+00 -0.45593999997E+02  0.45594000000E+02  0.51100000000E-03 0.  1.
    9900012    2    1    2    0    0  0.82005755429E-01 -0.62120339163E+00 -0.10001436321E+01  0.90007785662E+02  0.90000047633E+02 0.  0.
         12    1    1    2    0    0 -0.82005755429E-01  0.62120339163E+00  0.10001436321E+01  0.11802143376E+01  0.00000000000E+00 0. -1.
         11    1    3    3    0    0 -0.13516184596E+02  0.57289105884E+01  0.39884936932E+02  0.42500774780E+02  0.51100000000E-03 0. -1.
        -11    1    3    3    0    0 -0.46809854841E+01  0.34420774129E+00 -0.69884499194E+01  0.84183452417E+01  0.51100000000E-03 0.  1.
        -12    1    3    3    0    0  0.18279175835E+02 -0.66943217214E+01 -0.33896630645E+02  0.39088665641E+02  0.00000000000E+00 0.  1.
</event>
<event>
 7    1  0.1935465E-015  0.9000768E+02  0.7816164E-02  0.1186339E+00
        -11   -1    0    0    0    0  0.00000000000E+00  0.00000000000E+00  0.45593999997E+02  0.45594000000E+02  0.51100000000E-03 0.  1.
         11   -1    0    0    0    0 -0.00000000000E+00 -0.00000000000E+00 -0.45593999997E+02  0.45594000000E+02  0.51100000000E-03 0. -1.
    9900012    2    1    2    0    0 -0.25923341139E+00 -0.72110584983E+00  0.89774940111E+00  0.90007682418E+02  0.89999943025E+02 0.  0.
         12    1    1    2    0    0  0.25923341139E+00  0.72110584983E+00 -0.89774940111E+00  0.11803175824E+01  0.00000000000E+00 0. -1.
         11    1    3    3    0    0 -0.38565238215E+01  0.54200618029E+01 -0.39261798168E+02  0.39821334000E+02  0.51100000000E-03 0. -1.
        -11    1    3    3    0    0 -0.34035012644E+01  0.79080452033E+01  0.18782613072E+01  0.88118593720E+01  0.51100000000E-03 0.  1.
        -12    1    3    3    0    0  0.70007916745E+01 -0.14049212856E+02  0.38281286261E+02  0.41374489045E+02  0.00000000000E+00 0.  1.
</event>
<event>
 7    1  0.1935465E-015  0.9000770E+02  0.7816164E-02  0.1186339E+00
        -11   -1    0    0    0    0  0.00000000000E+00  0.00000000000E+00  0.45593999997E+02  0.45594000000E+02  0.51100000000E-03 0. -1.
         11   -1    0    0    0    0 -0.00000000000E+00 -0.00000000000E+00 -0.45593999997E+02  0.45594000000E+02  0.51100000000E-03 0.  1.
    9900012    2    1    2    0    0 -0.44413864528E+00 -0.43847925720E+00 -0.10017923703E+01  0.90007698704E+02  0.89999959527E+02 0.  0.
         12    1    1    2    0    0  0.44413864528E+00  0.43847925720E+00  0.10017923703E+01  0.11803012956E+01  0.00000000000E+00 0. -1.
         11    1    3    3    0    0  0.52407908983E+01 -0.59777481249E+01  0.41234700805E+01  0.89555774605E+01  0.51100000000E-03 0. -1.
        -11    1    3    3    0    0 -0.32738190397E+02  0.47687012981E+01  0.24318183172E+02  0.41059757131E+02  0.51100000000E-03 0.  1.
         12    1    3    3    0    0  0.27053260854E+02  0.77056756957E+00 -0.29443445623E+02  0.39992364113E+02  0.00000000000E+00 0. -1.
</event>
<event>
 7    1  0.1935465E-015  0.9000782E+02  0.7816164E-02  0.1186339E+00
        -11   -1    0    0    0    0  0.00000000000E+00  0.00000000000E+00  0.45593999997E+02  0.45594000000E+02  0.51100000000E-03 0.  1.
         11   -1    0    0    0    0 -0.00000000000E+00 -0.00000000000E+00 -0.45593999997E+02  0.45594000000E+02  0.51100000000E-03 0. -1.
    9900012    2    1    2    0    0 -0.32969769580E+00 -0.89640717075E+00 -0.69324024973E+00  0.90007818476E+02  0.90000080880E+02 0.  0.
         12    1    1    2    0    0  0.32969769580E+00  0.89640717075E+00  0.69324024973E+00  0.11801815243E+01  0.00000000000E+00 0. -1.
         11    1    3    3    0    0  0.11151606621E+01  0.87520126553E+01  0.14460253928E+01  0.89404864811E+01  0.51100000000E-03 0. -1.
        -11    1    3    3    0    0 -0.23867010723E+02  0.14313737715E+02  0.25814103890E+02  0.37958994298E+02  0.51100000000E-03 0.  1.
         12    1    3    3    0    0  0.22422152365E+02 -0.23962157541E+02 -0.27953369533E+02  0.43108337696E+02  0.00000000000E+00 0. -1.
</event>
<event>
 7    1  0.1935465E-015  0.9000811E+02  0.7816164E-02  0.1186338E+00
        -11   -1    0    0    0    0  0.00000000000E+00  0.00000000000E+00  0.45593999997E+02  0.45594000000E+02  0.51100000000E-03 0. -1.
         11   -1    0    0    0    0 -0.00000000000E+00 -0.00000000000E+00 -0.45593999997E+02  0.45594000000E+02  0.51100000000E-03 0.  1.
    9900012    2    1    2    0    0 -0.78950166816E+00 -0.68923164247E+00  0.54201475532E+00  0.90008113083E+02  0.90000379375E+02 0.  0.
         12    1    1    2    0    0  0.78950166816E+00  0.68923164247E+00 -0.54201475532E+00  0.11798869166E+01  0.00000000000E+00 0. -1.
         11    1    3    3    0    0  0.14658245068E+02  0.21903802640E+02  0.29293321946E+02  0.39404814800E+02  0.51100000000E-03 0. -1.
        -11    1    3    3    0    0  0.88978184376E+01 -0.37980058465E+01 -0.20855134226E+01  0.98967362224E+01  0.51100000000E-03 0.  1.
        -12    1    3    3    0    0 -0.24345565174E+02 -0.18795028436E+02 -0.26665793768E+02  0.40706562061E+02  0.00000000000E+00 0.  1.
</event>
<event>
 7    1  0.1935465E-015  0.9000775E+02  0.7816164E-02  0.1186339E+00
        -11   -1    0    0    0    0  0.00000000000E+00  0.00000000000E+00  0.45593999997E+02  0.45594000000E+02  0.51100000000E-03 0.  1.
         11   -1    0    0    0    0 -0.00000000000E+00 -0.00000000000E+00 -0.45593999997E+02  0.45594000000E+02  0.51100000000E-03 0. -1.
    9900012    2    1    2    0    0  0.93986933751E+00 -0.37764878918E+00  0.60581384109E+00  0.90007752827E+02  0.90000014364E+02 0.  0.
         12    1    1    2    0    0 -0.93986933751E+00  0.37764878918E+00 -0.60581384109E+00  0.11802471731E+01  0.00000000000E+00 0. -1.
         11    1    3    3    0    0  0.78866807043E+01  0.57093241871E+01  0.42356174924E+01  0.10617747925E+02  0.51100000000E-03 0. -1.
        -11    1    3    3    0    0  0.28068356342E+02  0.66305610150E+01  0.20160311951E+02  0.35188565548E+02  0.51100000000E-03 0.  1.
         12    1    3    3    0    0 -0.35015167709E+02 -0.12717533991E+02 -0.23790115602E+02  0.44201439353E+02  0.00000000000E+00 0. -1.
</event>
<event>
 7    1  0.1935465E-015  0.9000806E+02  0.7816164E-02  0.1186338E+00
        -11   -1    0    0    0    0  0.00000000000E+00  0.00000000000E+00  0.45593999997E+02  0.45594000000E+02  0.51100000000E-03 0. -1.
         11   -1    0    0    0    0 -0.00000000000E+00 -0.00000000000E+00 -0.45593999997E+02  0.45594000000E+02  0.51100000000E-03 0.  1.
    9900012    2    1    2    0    0 -0.25714448170E+00 -0.59710675888E+00 -0.98468419350E+00  0.90008058168E+02  0.90000323735E+02 0.  0.
         12    1    1    2    0    0  0.25714448170E+00  0.59710675888E+00  0.98468419350E+00  0.11799418320E+01  0.00000000000E+00 0. -1.
         11    1    3    3    0    0  0.45671335020E+01  0.50105664890E+01  0.41547204986E+01  0.79514896497E+01  0.51100000000E-03 0. -1.
        -11    1    3    3    0    0 -0.25162063919E+02  0.31027310785E+02 -0.11329398596E+01  0.39963821491E+02  0.51100000000E-03 0.  1.
         12    1    3    3    0    0  0.20337785935E+02 -0.36634984033E+02 -0.40064648325E+01  0.42092747027E+02  0.00000000000E+00 0. -1.
</event>
<event>
 7    1  0.1935465E-015  0.9000770E+02  0.7816164E-02  0.1186339E+00
        -11   -1    0    0    0    0  0.00000000000E+00  0.00000000000E+00  0.45593999997E+02  0.45594000000E+02  0.51100000000E-03 0.  1.
         11   -1    0    0    0    0 -0.00000000000E+00 -0.00000000000E+00 -0.45593999997E+02  0.45594000000E+02  0.51100000000E-03 0. -1.
    9900012    2    1    2    0    0 -0.11074928748E+01  0.17531684487E+00  0.36854842093E+00  0.90007701562E+02  0.89999962423E+02 0.  0.
         12    1    1    2    0    0  0.11074928748E+01 -0.17531684487E+00 -0.36854842093E+00  0.11802984379E+01  0.00000000000E+00 0. -1.
         11    1    3    3    0    0 -0.21488033954E+02 -0.30843484274E+02 -0.53758626759E+01  0.37973096070E+02  0.51100000000E-03 0. -1.
        -11    1    3    3    0    0  0.29868959385E+01 -0.74262647237E+01 -0.36617477761E+01  0.88022356326E+01  0.51100000000E-03 0.  1.
        -12    1    3    3    0    0  0.17393645140E+02  0.38445065843E+02  0.94061588729E+01  0.43232369860E+02  0.00000000000E+00 0.  1.
</event>
<event>
 7    1  0.1935465E-015  0.9000779E+02  0.7816164E-02  0.1186339E+00
        -11   -1    0    0    0    0  0.00000000000E+00  0.00000000000E+00  0.45593999997E+02  0.45594000000E+02  0.51100000000E-03 0.  1.
         11   -1    0    0    0    0 -0.00000000000E+00 -0.00000000000E+00 -0.45593999997E+02  0.45594000000E+02  0.51100000000E-03 0. -1.
    9900012    2    1    2    0    0  0.25572535989E+00 -0.47923168670E+00  0.10477825927E+01  0.90007785261E+02  0.90000047226E+02 0.  0.
         12    1    1    2    0    0 -0.25572535989E+00  0.47923168670E+00 -0.10477825927E+01  0.11802147393E+01  0.00000000000E+00 0. -1.
         11    1    3    3    0    0  0.10289835152E+02 -0.32612728511E+02 -0.22823235953E+02  0.41114120057E+02  0.51100000000E-03 0. -1.
        -11    1    3    3    0    0  0.68234544537E+01  0.56105624469E+01 -0.89784225377E+00  0.88794179215E+01  0.51100000000E-03 0.  1.
        -12    1    3    3    0    0 -0.16857564245E+02  0.26522934377E+02  0.24768860800E+02  0.40014247283E+02  0.00000000000E+00 0.  1.
</event>
<event>
 7    1  0.1935465E-015  0.9000772E+02  0.7816164E-02  0.1186339E+00
        -11   -1    0    0    0    0  0.00000000000E+00  0.00000000000E+00  0.45593999997E+02  0.45594000000E+02  0.51100000000E-03 0.  1.
         11   -1    0    0    0    0 -0.00000000000E+00 -0.00000000000E+00 -0.45593999997E+02  0.45594000000E+02  0.51100000000E-03 0. -1.
    9900012    2    1    2    0    0 -0.10761414004E+01 -0.45754646910E+00  0.16009255350E+00  0.90007720918E+02  0.89999982034E+02 0.  0.
         12    1    1    2    0    0  0.10761414004E+01  0.45754646910E+00 -0.16009255350E+00  0.11802790817E+01  0.00000000000E+00 0. -1.
         11    1    3    3    0    0 -0.82861696158E+01 -0.47633727289E+01 -0.57053832573E+01  0.11131115175E+02  0.51100000000E-03 0. -1.
        -11    1    3    3    0    0  0.34923531683E+02 -0.19416226407E+02 -0.62366287429E+01  0.40441790903E+02  0.51100000000E-03 0.  1.
         12    1    3    3    0    0 -0.27713503468E+02  0.23722052667E+02  0.12102104554E+02  0.38434814840E+02  0.00000000000E+00 0. -1.
</event>
<event>
 7    1  0.1935465E-015  0.9000692E+02  0.7816164E-02  0.1186341E+00
        -11   -1    0    0    0    0  0.00000000000E+00  0.00000000000E+00  0.45593999997E+02  0.45594000000E+02  0.51100000000E-03 0.  1.
         11   -1    0    0    0    0 -0.00000000000E+00 -0.00000000000E+00 -0.45593999997E+02  0.45594000000E+02  0.51100000000E-03 0. -1.
    9900012    2    1    2    0    0  0.10087247828E+01  0.12571338143E+00  0.60135083746E+00  0.90006918982E+02  0.89999169509E+02 0.  0.
         12    1    1    2    0    0 -0.10087247828E+01 -0.12571338143E+00 -0.60135083746E+00  0.11810810182E+01  0.00000000000E+00 0. -1.
         11    1    3    3    0    0 -0.13579892172E+02  0.35903334394E+02  0.42692762874E+01  0.38622397806E+02  0.51100000000E-03 0. -1.
        -11    1    3    3    0    0 -0.16926016357E+01  0.78382841181E-01  0.96626321659E+01  0.98100716002E+01  0.51100000000E-03 0.  1.
        -12    1    3    3    0    0  0.16281218590E+02 -0.35856003854E+02 -0.13330557616E+02  0.41574449575E+02  0.00000000000E+00 0.  1.
</event>
<event>
 7    1  0.1935465E-015  0.9000773E+02  0.7816164E-02  0.1186339E+00
        -11   -1    0    0    0    0  0.00000000000E+00  0.00000000000E+00  0.45593999997E+02  0.45594000000E+02  0.51100000000E-03 0.  1.
         11   -1    0    0    0    0 -0.00000000000E+00 -0.00000000000E+00 -0.45593999997E+02  0.45594000000E+02  0.51100000000E-03 0. -1.
    9900012    2    1    2    0    0 -0.75366561114E+00  0.62736961986E+00  0.65684363083E+00  0.90007725435E+02  0.89999986611E+02 0.  0.
         12    1    1    2    0    0  0.75366561114E+00 -0.62736961986E+00 -0.65684363083E+00  0.11802745650E+01  0.00000000000E+00 0. -1.
         11    1    3    3    0    0 -0.85052282434E+01  0.36323068237E+01  0.45830896747E+01  0.10321689375E+02  0.51100000000E-03 0. -1.
        -11    1    3    3    0    0 -0.71328213960E+01 -0.33105159823E+02 -0.23123637119E+02  0.41006479267E+02  0.51100000000E-03 0.  1.
         12    1    3    3    0    0  0.14884384028E+02  0.30100222619E+02  0.19197391075E+02  0.38679556793E+02  0.00000000000E+00 0. -1.
</event>
<event>
 7    1  0.1935465E-015  0.9000769E+02  0.7816164E-02  0.1186339E+00
        -11   -1    0    0    0    0  0.00000000000E+00  0.00000000000E+00  0.45593999997E+02  0.45594000000E+02  0.51100000000E-03 0. -1.
         11   -1    0    0    0    0 -0.00000000000E+00 -0.00000000000E+00 -0.45593999997E+02  0.45594000000E+02  0.51100000000E-03 0.  1.
    9900012    2    1    2    0    0 -0.28072771526E+00 -0.10136182473E+01 -0.53563311399E+00  0.90007689518E+02  0.89999950220E+02 0.  0.
         12    1    1    2    0    0  0.28072771526E+00  0.10136182473E+01  0.53563311399E+00  0.11803104821E+01  0.00000000000E+00 0. -1.
         11    1    3    3    0    0  0.16013221288E+01  0.31583360090E+02  0.13781974707E+02  0.34496604097E+02  0.51100000000E-03 0. -1.
        -11    1    3    3    0    0  0.82648443737E+01  0.72408806336E+01  0.22015988743E+01  0.11206473251E+02  0.51100000000E-03 0.  1.
        -12    1    3    3    0    0 -0.10146894218E+02 -0.39837858971E+02 -0.16519206695E+02  0.44304612170E+02  0.00000000000E+00 0.  1.
</event>
<event>
 7    1  0.1935465E-015  0.9000774E+02  0.7816164E-02  0.1186339E+00
        -11   -1    0    0    0    0  0.00000000000E+00  0.00000000000E+00  0.45593999997E+02  0.45594000000E+02  0.51100000000E-03 0.  1.
         11   -1    0    0    0    0 -0.00000000000E+00 -0.00000000000E+00 -0.45593999997E+02  0.45594000000E+02  0.51100000000E-03 0. -1.
    9900012    2    1    2    0    0  0.21033036336E+00 -0.97591051817E+00  0.62959079422E+00  0.90007735297E+02  0.89999996603E+02 0.  0.
         12    1    1    2    0    0 -0.21033036336E+00  0.97591051817E+00 -0.62959079422E+00  0.11802647031E+01  0.00000000000E+00 0. -1.
         11    1    3    3    0    0 -0.17654585499E+02 -0.63737205155E+01 -0.32853094666E+02  0.37836946649E+02  0.51100000000E-03 0. -1.
        -11    1    3    3    0    0  0.75544242680E+01  0.54524125683E+00 -0.68787783188E+01  0.10231529967E+02  0.51100000000E-03 0.  1.
        -12    1    3    3    0    0  0.10310491594E+02  0.48525687405E+01  0.40361463779E+02  0.41939258681E+02  0.00000000000E+00 0.  1.
</event>
<event>
 7    1  0.1935465E-015  0.9000769E+02  0.7816164E-02  0.1186339E+00
        -11   -1    0    0    0    0  0.00000000000E+00  0.00000000000E+00  0.45593999997E+02  0.45594000000E+02  0.51100000000E-03 0.  1.
         11   -1    0    0    0    0 -0.00000000000E+00 -0.00000000000E+00 -0.45593999997E+02  0.45594000000E+02  0.51100000000E-03 0. -1.
    9900012    2    1    2    0    0  0.67006253029E+00 -0.95951963094E+00  0.15316645342E+00  0.90007694243E+02  0.89999955007E+02 0.  0.
         12    1    1    2    0    0 -0.67006253029E+00  0.95951963094E+00 -0.15316645342E+00  0.11803057566E+01  0.00000000000E+00 0. -1.
         11    1    3    3    0    0 -0.35256466111E+02  0.86368947664E+01  0.24724900838E+00  0.36299800085E+02  0.51100000000E-03 0. -1.
        -11    1    3    3    0    0 -0.84525579030E+01 -0.11708462787E+01 -0.21271719882E+00  0.85359161769E+01  0.51100000000E-03 0.  1.
        -12    1    3    3    0    0  0.44379086544E+02 -0.84255681187E+01  0.11863464386E+00  0.45171977982E+02  0.00000000000E+00 0.  1.
</event>
<event>
 7    1  0.1935465E-015  0.9000781E+02  0.7816164E-02  0.1186339E+00
        -11   -1    0    0    0    0  0.00000000000E+00  0.00000000000E+00  0.45593999997E+02  0.45594000000E+02  0.51100000000E-03 0. -1.
         11   -1    0    0    0    0 -0.00000000000E+00 -0.00000000000E+00 -0.45593999997E+02  0.45594000000E+02  0.51100000000E-03 0.  1.
    9900012    2    1    2    0    0 -0.10400125903E+01 -0.39214166771E+00 -0.39680082675E+00  0.90007808417E+02  0.90000070688E+02 0.  0.
         12    1    1    2    0    0  0.10400125903E+01  0.39214166771E+00  0.39680082675E+00  0.11801915826E+01  0.00000000000E+00 0. -1.
         11    1    3    3    0    0  0.12247170902E+01  0.67966069322E+01  0.70851333952E+01  0.98940847596E+01  0.51100000000E-03 0. -1.
        -11    1    3    3    0    0  0.36493572971E+00  0.33961048412E+01 -0.42909544774E+02  0.43045275457E+02  0.51100000000E-03 0.  1.
         12    1    3    3    0    0 -0.26296654102E+01 -0.10584853441E+02  0.35427610552E+02  0.37068448201E+02  0.00000000000E+00 0. -1.
</event>
<event>
 7    1  0.1935465E-015  0.9000820E+02  0.7816164E-02  0.1186338E+00
        -11   -1    0    0    0    0  0.00000000000E+00  0.00000000000E+00  0.45593999997E+02  0.45594000000E+02  0.51100000000E-03 0. -1.
         11   -1    0    0    0    0 -0.00000000000E+00 -0.00000000000E+00 -0.45593999997E+02  0.45594000000E+02  0.51100000000E-03 0.  1.
    9900012    2    1    2    0    0 -0.92317395618E+00 -0.44822681860E+00  0.58204439848E+00  0.90008197849E+02  0.90000465259E+02 0.  0.
         12    1    1    2    0    0  0.92317395618E+00  0.44822681860E+00 -0.58204439848E+00  0.11798021512E+01  0.00000000000E+00 0. -1.
         11    1    3    3    0    0 -0.29637916774E+01  0.12948699512E+02  0.34288265754E+02  0.36771429791E+02  0.51100000000E-03 0. -1.
        -11    1    3    3    0    0  0.97981576670E+01  0.65238245974E+00  0.52278348223E+01  0.11124736120E+02  0.51100000000E-03 0.  1.
        -12    1    3    3    0    0 -0.77575399457E+01 -0.14049308790E+02 -0.38934056178E+02  0.42112031938E+02  0.00000000000E+00 0.  1.
</event>
<event>
 7    1  0.2162465E-015  0.9000774E+02  0.7816164E-02  0.1186339E+00
        -11   -1    0    0    0    0  0.00000000000E+00  0.00000000000E+00  0.45593999997E+02  0.45594000000E+02  0.51100000000E-03 0.  1.
         11   -1    0    0    0    0 -0.00000000000E+00 -0.00000000000E+00 -0.45593999997E+02  0.45594000000E+02  0.51100000000E-03 0. -1.
    9900012    2    1    2    0    0 -0.88590473430E+00 -0.47931187190E+00  0.61518022059E+00  0.90007739956E+02  0.90000001323E+02 0.  0.
         12    1    1    2    0    0  0.88590473430E+00  0.47931187190E+00 -0.61518022059E+00  0.11802600445E+01  0.00000000000E+00 0. -1.
         11    1    3    3    0    0  0.22897916111E-01 -0.63779755680E+01  0.69732268460E+01  0.94501317222E+01  0.51100000000E-03 0. -1.
        -11    1    3    3    0    0  0.58272946504E+00 -0.88787209487E+01  0.35261763409E+02  0.36367062272E+02  0.51100000000E-03 0.  1.
         12    1    3    3    0    0 -0.14915321155E+01  0.14777384645E+02 -0.41619810035E+02  0.44190545961E+02  0.00000000000E+00 0. -1.
</event>
<event>
 7    1  0.1935465E-015  0.9000774E+02  0.7816164E-02  0.1186339E+00
        -11   -1    0    0    0    0  0.00000000000E+00  0.00000000000E+00  0.45593999997E+02  0.45594000000E+02  0.51100000000E-03 0.  1.
         11   -1    0    0    0    0 -0.00000000000E+00 -0.00000000000E+00 -0.45593999997E+02  0.45594000000E+02  0.51100000000E-03 0. -1.
    9900012    2    1    2    0    0 -0.73231106489E+00  0.16595124740E+00  0.91060216242E+00  0.90007739177E+02  0.90000000534E+02 0.  0.
         12    1    1    2    0    0  0.73231106489E+00 -0.16595124740E+00 -0.91060216242E+00  0.11802608231E+01  0.00000000000E+00 0. -1.
         11    1    3    3    0    0 -0.62671053144E-01  0.25239695470E+01 -0.79602675832E+01  0.83510604232E+01  0.51100000000E-03 0. -1.
        -11    1    3    3    0    0  0.68895769438E+01  0.34138043627E+02  0.23068339651E+02  0.41773443569E+02  0.51100000000E-03 0.  1.
         12    1    3    3    0    0 -0.75592169555E+01 -0.36496061926E+02 -0.14197469905E+02  0.39883235185E+02  0.00000000000E+00 0. -1.
</event>
<event>
 7    1  0.1935465E-015  0.9000782E+02  0.7816164E-02  0.1186339E+00
        -11   -1    0    0    0    0  0.00000000000E+00  0.00000000000E+00  0.45593999997E+02  0.45594000000E+02  0.51100000000E-03 0.  1.
         11   -1    0    0    0    0 -0.00000000000E+00 -0.00000000000E+00 -0.45593999997E+02  0.45594000000E+02  0.51100000000E-03 0. -1.
    9900012    2    1    2    0    0 -0.11344883020E+01 -0.18095213249E+00  0.27023418643E+00  0.90007816160E+02  0.90000078533E+02 0.  0.
         12    1    1    2    0    0  0.11344883020E+01  0.18095213249E+00 -0.27023418643E+00  0.11801838404E+01  0.00000000000E+00 0. -1.
         11    1    3    3    0    0  0.12979341408E+02 -0.20683357909E+02 -0.33148423886E+02  0.41171380887E+02  0.51100000000E-03 0. -1.
        -11    1    3    3    0    0 -0.72406713950E+01  0.87511245629E+01 -0.14064466446E+01  0.11444981249E+02  0.51100000000E-03 0.  1.
        -12    1    3    3    0    0 -0.68731583153E+01  0.11751281214E+02  0.34825104717E+02  0.37391454023E+02  0.00000000000E+00 0.  1.
</event>
<event>
 7    1  0.1935465E-015  0.9000773E+02  0.7816164E-02  0.1186339E+00
        -11   -1    0    0    0    0  0.00000000000E+00  0.00000000000E+00  0.45593999997E+02  0.45594000000E+02  0.51100000000E-03 0.  1.
         11   -1    0    0    0    0 -0.00000000000E+00 -0.00000000000E+00 -0.45593999997E+02  0.45594000000E+02  0.51100000000E-03 0. -1.
    9900012    2    1    2    0    0 -0.63558308423E+00  0.70088150588E-01  0.99204340650E+00  0.90007733790E+02  0.89999995076E+02 0.  0.
         12    1    1    2    0    0  0.63558308423E+00 -0.70088150588E-01 -0.99204340650E+00  0.11802662099E+01  0.00000000000E+00 0. -1.
         11    1    3    3    0    0  0.74875713727E+01 -0.32583922848E+01  0.52482014277E+01  0.97069286507E+01  0.51100000000E-03 0. -1.
        -11    1    3    3    0    0 -0.11633041073E+02  0.11263498149E+02  0.35812728168E+02  0.39303250937E+02  0.51100000000E-03 0.  1.
         12    1    3    3    0    0  0.35098866157E+01 -0.79350177138E+01 -0.40068886189E+02  0.40997554202E+02  0.00000000000E+00 0. -1.
</event>
<event>
 7    1  0.1935465E-015  0.9000775E+02  0.7816164E-02  0.1186339E+00
        -11   -1    0    0    0    0  0.00000000000E+00  0.00000000000E+00  0.45593999997E+02  0.45594000000E+02  0.51100000000E-03 0.  1.
         11   -1    0    0    0    0 -0.00000000000E+00 -0.00000000000E+00 -0.45593999997E+02  0.45594000000E+02  0.51100000000E-03 0. -1.
    9900012    2    1    2    0    0 -0.13805087618E+00  0.56260096006E+00  0.10283028873E+01  0.90007752266E+02  0.90000013796E+02 0.  0.
         12    1    1    2    0    0  0.13805087618E+00 -0.56260096006E+00 -0.10283028873E+01  0.11802477336E+01  0.00000000000E+00 0. -1.
         11    1    3    3    0    0 -0.25704157993E+02  0.20919745742E+02 -0.22022123152E+02  0.39790870918E+02  0.51100000000E-03 0. -1.
        -11    1    3    3    0    0 -0.57547478682E+01 -0.99957872646E+01  0.73899981879E+01  0.13698356089E+02  0.51100000000E-03 0.  1.
        -12    1    3    3    0    0  0.31320854985E+02 -0.10361357517E+02  0.15660427852E+02  0.36518525259E+02  0.00000000000E+00 0.  1.
</event>
<event>
 7    1  0.1935465E-015  0.9000844E+02  0.7816164E-02  0.1186338E+00
        -11   -1    0    0    0    0  0.00000000000E+00  0.00000000000E+00  0.45593999997E+02  0.45594000000E+02  0.51100000000E-03 0. -1.
         11   -1    0    0    0    0 -0.00000000000E+00 -0.00000000000E+00 -0.45593999997E+02  0.45594000000E+02  0.51100000000E-03 0.  1.
    9900012    2    1    2    0    0 -0.58122390356E+00 -0.48800801807E+00 -0.90299066480E+00  0.90008438559E+02  0.90000709145E+02 0.  0.
         12    1    1    2    0    0  0.58122390356E+00  0.48800801807E+00  0.90299066480E+00  0.11795614407E+01  0.00000000000E+00 0. -1.
         11    1    3    3    0    0  0.28319945357E+01  0.62477076764E+01  0.10776087780E+02  0.12774118849E+02  0.51100000000E-03 0. -1.
        -11    1    3    3    0    0  0.32368580957E+02 -0.11320939090E+02  0.92649981324E+01  0.35520823269E+02  0.51100000000E-03 0.  1.
         12    1    3    3    0    0 -0.35781799396E+02  0.45852233956E+01 -0.20944076578E+02  0.41713496441E+02  0.00000000000E+00 0. -1.
</event>
<event>
 7    1  0.1935465E-015  0.9000767E+02  0.7816164E-02  0.1186339E+00
        -11   -1    0    0    0    0  0.00000000000E+00  0.00000000000E+00  0.45593999997E+02  0.45594000000E+02  0.51100000000E-03 0. -1.
         11   -1    0    0    0    0 -0.00000000000E+00 -0.00000000000E+00 -0.45593999997E+02  0.45594000000E+02  0.51100000000E-03 0.  1.
    9900012    2    1    2    0    0  0.70078162899E+00  0.64643867030E+00 -0.69583827001E+00  0.90007674306E+02  0.89999934807E+02 0.  0.
         12    1    1    2    0    0 -0.70078162899E+00 -0.64643867030E+00  0.69583827001E+00  0.11803256940E+01  0.00000000000E+00 0. -1.
         11    1    3    3    0    0 -0.10730986552E+02  0.45511479902E+01  0.23241031671E+01  0.11885641599E+02  0.51100000000E-03 0. -1.
        -11    1    3    3    0    0  0.12516488260E+02 -0.32147325966E+01 -0.39530345105E+02  0.41589002974E+02  0.51100000000E-03 0.  1.
         12    1    3    3    0    0 -0.10847200787E+01 -0.68997672327E+00  0.36510403668E+02  0.36533029733E+02  0.00000000000E+00 0. -1.
</event>
<event>
 7    1  0.1935465E-015  0.9000739E+02  0.7816164E-02  0.1186340E+00
        -11   -1    0    0    0    0  0.00000000000E+00  0.00000000000E+00  0.45593999997E+02  0.45594000000E+02  0.51100000000E-03 0. -1.
         11   -1    0    0    0    0 -0.00000000000E+00 -0.00000000000E+00 -0.45593999997E+02  0.45594000000E+02  0.51100000000E-03 0.  1.
    9900012    2    1    2    0    0  0.29667473801E+00 -0.61416263389E+00  0.96365331175E+00  0.90007390265E+02  0.89999647016E+02 0.  0.
         12    1    1    2    0    0 -0.29667473801E+00  0.61416263389E+00 -0.96365331175E+00  0.11806097350E+01  0.00000000000E+00 0. -1.
         11    1    3    3    0    0  0.31949404773E+01  0.16794653943E+02  0.36180251696E+02  0.40015980043E+02  0.51100000000E-03 0. -1.
        -11    1    3    3    0    0 -0.47083192891E+01  0.77151241199E+01 -0.40117662177E+01  0.98886641747E+01  0.51100000000E-03 0.  1.
        -12    1    3    3    0    0  0.18100535498E+01 -0.25123940697E+02 -0.31204832167E+02  0.40102746047E+02  0.00000000000E+00 0.  1.
</event>
<event>
 7    1  0.1935465E-015  0.9000775E+02  0.7816164E-02  0.1186339E+00
        -11   -1    0    0    0    0  0.00000000000E+00  0.00000000000E+00  0.45593999997E+02  0.45594000000E+02  0.51100000000E-03 0. -1.
         11   -1    0    0    0    0 -0.00000000000E+00 -0.00000000000E+00 -0.45593999997E+02  0.45594000000E+02  0.51100000000E-03 0.  1.
    9900012    2    1    2    0    0  0.85468185581E+00  0.70479429966E+00 -0.40715629712E+00  0.90007749039E+02  0.90000010527E+02 0.  0.
         12    1    1    2    0    0 -0.85468185581E+00 -0.70479429966E+00  0.40715629712E+00  0.11802509605E+01  0.00000000000E+00 0. -1.
         11    1    3    3    0    0  0.33829215786E+01  0.10748191347E+02 -0.40387468471E-01  0.11268070245E+02  0.51100000000E-03 0. -1.
        -11    1    3    3    0    0 -0.30415792065E+02 -0.65808099543E+01  0.25737897469E+02  0.40383992286E+02  0.51100000000E-03 0.  1.
         12    1    3    3    0    0  0.27887552342E+02 -0.34625870929E+01 -0.26104666298E+02  0.38355686508E+02  0.00000000000E+00 0. -1.
</event>
<event>
 7    1  0.1935465E-015  0.9000771E+02  0.7816164E-02  0.1186339E+00
        -11   -1    0    0    0    0  0.00000000000E+00  0.00000000000E+00  0.45593999997E+02  0.45594000000E+02  0.51100000000E-03 0. -1.
         11   -1    0    0    0    0 -0.00000000000E+00 -0.00000000000E+00 -0.45593999997E+02  0.45594000000E+02  0.51100000000E-03 0.  1.
    9900012    2    1    2    0    0 -0.40475683856E+00 -0.33560276128E+00 -0.10567009528E+01  0.90007714350E+02  0.89999975379E+02 0.  0.
         12    1    1    2    0    0  0.40475683856E+00  0.33560276128E+00  0.10567009528E+01  0.11802856499E+01  0.00000000000E+00 0. -1.
         11    1    3    3    0    0 -0.61214958240E+01  0.58220036718E+01 -0.60173620503E+01  0.10371937340E+02  0.51100000000E-03 0. -1.
        -11    1    3    3    0    0 -0.24221769105E+02 -0.22432373582E+02  0.23800360335E+02  0.40698435295E+02  0.51100000000E-03 0.  1.
         12    1    3    3    0    0  0.29938508091E+02  0.16274767149E+02 -0.18839699238E+02  0.38937341715E+02  0.00000000000E+00 0. -1.
</event>
<event>
 7    1  0.1935465E-015  0.9000772E+02  0.7816164E-02  0.1186339E+00
        -11   -1    0    0    0    0  0.00000000000E+00  0.00000000000E+00  0.45593999997E+02  0.45594000000E+02  0.51100000000E-03 0.  1.
         11   -1    0    0    0    0 -0.00000000000E+00 -0.00000000000E+00 -0.45593999997E+02  0.45594000000E+02  0.51100000000E-03 0. -1.
    9900012    2    1    2    0    0 -0.13183918481E+00 -0.62602257081E+00  0.99186028554E+00  0.90007715011E+02  0.89999976049E+02 0.  0.
         12    1    1    2    0    0  0.13183918481E+00  0.62602257081E+00 -0.99186028554E+00  0.11802849893E+01  0.00000000000E+00 0. -1.
         11    1    3    3    0    0 -0.10310098215E+02 -0.23099426924E+02 -0.33243788907E+02  0.41773570000E+02  0.51100000000E-03 0. -1.
        -11    1    3    3    0    0  0.58705356838E+01  0.13448783353E+02  0.24054637652E+01  0.14870077978E+02  0.51100000000E-03 0.  1.
        -12    1    3    3    0    0  0.43077233460E+01  0.90246210007E+01  0.31830185427E+02  0.33364067033E+02  0.00000000000E+00 0.  1.
</event>
<event>
 7    1  0.1935465E-015  0.9000787E+02  0.7816164E-02  0.1186339E+00
        -11   -1    0    0    0    0  0.00000000000E+00  0.00000000000E+00  0.45593999997E+02  0.45594000000E+02  0.51100000000E-03 0.  1.
         11   -1    0    0    0    0 -0.00000000000E+00 -0.00000000000E+00 -0.45593999997E+02  0.45594000000E+02  0.51100000000E-03 0. -1.
    9900012    2    1    2    0    0  0.10063470675E+01 -0.60106979591E+00 -0.13671717588E+00  0.90007868268E+02  0.90000131329E+02 0.  0.
         12    1    1    2    0    0 -0.10063470675E+01  0.60106979591E+00  0.13671717588E+00  0.11801317325E+01  0.00000000000E+00 0. -1.
         11    1    3    3    0    0 -0.40020687935E+01  0.34266842654E+01  0.73611885889E+01  0.90523929093E+01  0.51100000000E-03 0. -1.
        -11    1    3    3    0    0  0.16137921465E+02 -0.35239436964E+02  0.14276967640E+02  0.41304748298E+02  0.51100000000E-03 0.  1.
         12    1    3    3    0    0 -0.11129505604E+02  0.31211682903E+02 -0.21774873405E+02  0.39650727060E+02  0.00000000000E+00 0. -1.
</event>
<event>
 7    1  0.1935465E-015  0.9000744E+02  0.7816164E-02  0.1186340E+00
        -11   -1    0    0    0    0  0.00000000000E+00  0.00000000000E+00  0.45593999997E+02  0.45594000000E+02  0.51100000000E-03 0. -1.
         11   -1    0    0    0    0 -0.00000000000E+00 -0.00000000000E+00 -0.45593999997E+02  0.45594000000E+02  0.51100000000E-03 0.  1.
    9900012    2    1    2    0    0 -0.86512965373E+00 -0.79921173474E+00  0.80778982880E-01  0.90007443369E+02  0.89999700821E+02 0.  0.
         12    1    1    2    0    0  0.86512965373E+00  0.79921173474E+00 -0.80778982880E-01  0.11805566309E+01  0.00000000000E+00 0. -1.
         11    1    3    3    0    0 -0.11722406687E+02 -0.20968259151E+01  0.33861389242E+02  0.35894361383E+02  0.51100000000E-03 0. -1.
        -11    1    3    3    0    0 -0.55459501436E+01 -0.32026224286E+01  0.72637607584E+01  0.96838305454E+01  0.51100000000E-03 0.  1.
        -12    1    3    3    0    0  0.16403227177E+02  0.45002366090E+01 -0.41044371017E+02  0.44429251441E+02  0.00000000000E+00 0.  1.
</event>
<event>
 7    1  0.1935465E-015  0.9000783E+02  0.7816164E-02  0.1186339E+00
        -11   -1    0    0    0    0  0.00000000000E+00  0.00000000000E+00  0.45593999997E+02  0.45594000000E+02  0.51100000000E-03 0.  1.
         11   -1    0    0    0    0 -0.00000000000E+00 -0.00000000000E+00 -0.45593999997E+02  0.45594000000E+02  0.51100000000E-03 0. -1.
    9900012    2    1    2    0    0  0.97365758067E+00 -0.55773906738E+00  0.36566218826E+00  0.90007834424E+02  0.90000097038E+02 0.  0.
         12    1    1    2    0    0 -0.97365758067E+00  0.55773906738E+00 -0.36566218826E+00  0.11801655763E+01  0.00000000000E+00 0. -1.
         11    1    3    3    0    0  0.10349556743E+02 -0.48692162550E+01 -0.36518450324E+02  0.38267738449E+02  0.51100000000E-03 0. -1.
        -11    1    3    3    0    0  0.75092493571E+01 -0.78606511137E+01  0.19056601992E+01  0.11036765962E+02  0.51100000000E-03 0.  1.
        -12    1    3    3    0    0 -0.16885148520E+02  0.12172128301E+02  0.34978452313E+02  0.40703330013E+02  0.00000000000E+00 0.  1.
</event>
<event>
 7    1  0.1935465E-015  0.9000763E+02  0.7816164E-02  0.1186339E+00
        -11   -1    0    0    0    0  0.00000000000E+00  0.00000000000E+00  0.45593999997E+02  0.45594000000E+02  0.51100000000E-03 0. -1.
         11   -1    0    0    0    0 -0.00000000000E+00 -0.00000000000E+00 -0.45593999997E+02  0.45594000000E+02  0.51100000000E-03 0.  1.
    9900012    2    1    2    0    0  0.10589987847E+01  0.49308034778E+00 -0.16934292094E+00  0.90007625619E+02  0.89999885477E+02 0.  0.
         12    1    1    2    0    0 -0.10589987847E+01 -0.49308034778E+00  0.16934292094E+00  0.11803743814E+01  0.00000000000E+00 0. -1.
         11    1    3    3    0    0 -0.62217310883E+00 -0.44044686268E+01 -0.54587271131E+01  0.70416010409E+01  0.51100000000E-03 0. -1.
        -11    1    3    3    0    0  0.57946079275E+01 -0.69181807211E+01 -0.37403971861E+02  0.38477211655E+02  0.51100000000E-03 0.  1.
         12    1    3    3    0    0 -0.41134360340E+01  0.11815729696E+02  0.42693356053E+02  0.44488812923E+02  0.00000000000E+00 0. -1.
</event>
<event>
 7    1  0.1935465E-015  0.9000775E+02  0.7816164E-02  0.1186339E+00
        -11   -1    0    0    0    0  0.00000000000E+00  0.00000000000E+00  0.45593999997E+02  0.45594000000E+02  0.51100000000E-03 0.  1.
         11   -1    0    0    0    0 -0.00000000000E+00 -0.00000000000E+00 -0.45593999997E+02  0.45594000000E+02  0.51100000000E-03 0. -1.
    9900012    2    1    2    0    0 -0.10372038909E+01  0.95706179826E-01  0.55500775315E+00  0.90007752064E+02  0.90000013591E+02 0.  0.
         12    1    1    2    0    0  0.10372038909E+01 -0.95706179826E-01 -0.55500775315E+00  0.11802479359E+01  0.00000000000E+00 0. -1.
         11    1    3    3    0    0  0.16078486167E+02 -0.17874036002E+01  0.86216582164E+01  0.18331544390E+02  0.51100000000E-03 0. -1.
        -11    1    3    3    0    0  0.17643579163E+02  0.16079619114E+02  0.14441462566E+02  0.27899926126E+02  0.51100000000E-03 0.  1.
         12    1    3    3    0    0 -0.34759269222E+02 -0.14196509334E+02 -0.22508113029E+02  0.43776281548E+02  0.00000000000E+00 0. -1.
</event>
<event>
 7    1  0.1935465E-015  0.9000773E+02  0.7816164E-02  0.1186339E+00
        -11   -1    0    0    0    0  0.00000000000E+00  0.00000000000E+00  0.45593999997E+02  0.45594000000E+02  0.51100000000E-03 0.  1.
         11   -1    0    0    0    0 -0.00000000000E+00 -0.00000000000E+00 -0.45593999997E+02  0.45594000000E+02  0.51100000000E-03 0. -1.
    9900012    2    1    2    0    0 -0.99163674512E+00  0.16784326089E+00  0.61767652016E+00  0.90007729235E+02  0.89999990461E+02 0.  0.
         12    1    1    2    0    0  0.99163674512E+00 -0.16784326089E+00 -0.61767652016E+00  0.11802707647E+01  0.00000000000E+00 0. -1.
         11    1    3    3    0    0 -0.61677439926E+01  0.53411323335E+01 -0.18795522137E+01  0.83726625005E+01  0.51100000000E-03 0. -1.
        -11    1    3    3    0    0 -0.35465442616E+01  0.26630120285E+02  0.28849697798E+02  0.39421394520E+02  0.51100000000E-03 0.  1.
         12    1    3    3    0    0  0.87226515090E+01 -0.31803409357E+02 -0.26352469064E+02  0.42213672215E+02  0.00000000000E+00 0. -1.
</event>
<event>
 7    1  0.1935465E-015  0.9000771E+02  0.7816164E-02  0.1186339E+00
        -11   -1    0    0    0    0  0.00000000000E+00  0.00000000000E+00  0.45593999997E+02  0.45594000000E+02  0.51100000000E-03 0. -1.
         11   -1    0    0    0    0 -0.00000000000E+00 -0.00000000000E+00 -0.45593999997E+02  0.45594000000E+02  0.51100000000E-03 0.  1.
    9900012    2    1    2    0    0 -0.10543069826E+01 -0.49133584931E+00  0.20027535087E+00  0.90007710058E+02  0.89999971031E+02 0.  0.
         12    1    1    2    0    0  0.10543069826E+01  0.49133584931E+00 -0.20027535087E+00  0.11802899417E+01  0.00000000000E+00 0. -1.
         11    1    3    3    0    0 -0.93889670415E+01 -0.40886378646E+02 -0.77543869482E+01  0.42661213978E+02  0.51100000000E-03 0. -1.
        -11    1    3    3    0    0  0.44084297078E+01  0.71927335163E+01 -0.67672913639E+01  0.10815077466E+02  0.51100000000E-03 0.  1.
        -12    1    3    3    0    0  0.39262303511E+01  0.33202309280E+02  0.14721953663E+02  0.36531418614E+02  0.00000000000E+00 0.  1.
</event>
<event>
 7    1  0.1935465E-015  0.9000764E+02  0.7816164E-02  0.1186339E+00
        -11   -1    0    0    0    0  0.00000000000E+00  0.00000000000E+00  0.45593999997E+02  0.45594000000E+02  0.51100000000E-03 0.  1.
         11   -1    0    0    0    0 -0.00000000000E+00 -0.00000000000E+00 -0.45593999997E+02  0.45594000000E+02  0.51100000000E-03 0. -1.
    9900012    2    1    2    0    0  0.37110594944E+00  0.95641520956E+00  0.58378956350E+00  0.90007635678E+02  0.89999895669E+02 0.  0.
         12    1    1    2    0    0 -0.37110594944E+00 -0.95641520956E+00 -0.58378956350E+00  0.11803643222E+01  0.00000000000E+00 0. -1.
         11    1    3    3    0    0 -0.38392998892E+01 -0.72168789778E+01 -0.39335634938E+01  0.90717411692E+01  0.51100000000E-03 0. -1.
        -11    1    3    3    0    0  0.36661971752E+02  0.10742540968E+01 -0.17947993297E+02  0.40833621665E+02  0.51100000000E-03 0.  1.
         12    1    3    3    0    0 -0.32451565913E+02  0.70990400906E+01  0.22465346354E+02  0.40102272844E+02  0.00000000000E+00 0. -1.
</event>
<event>
 7    1  0.2415100E-015  0.9000772E+02  0.7816164E-02  0.1186339E+00
        -11   -1    0    0    0    0  0.00000000000E+00  0.00000000000E+00  0.45593999997E+02  0.45594000000E+02  0.51100000000E-03 0. -1.
         11   -1    0    0    0    0 -0.00000000000E+00 -0.00000000000E+00 -0.45593999997E+02  0.45594000000E+02  0.51100000000E-03 0.  1.
    9900012    2    1    2    0    0 -0.11228927099E+01  0.36254814719E+00  0.26979786623E-01  0.90007721598E+02  0.89999982723E+02 0.  0.
         12    1    1    2    0    0  0.11228927099E+01 -0.36254814719E+00 -0.26979786623E-01  0.11802784019E+01  0.00000000000E+00 0. -1.
         11    1    3    3    0    0 -0.25257337286E+01  0.10059038442E+01 -0.95836107430E+01  0.99617653328E+01  0.51100000000E-03 0. -1.
        -11    1    3    3    0    0 -0.25689920247E+02 -0.19750892445E+02 -0.17851168443E+02  0.36996404822E+02  0.51100000000E-03 0.  1.
         12    1    3    3    0    0  0.27092761266E+02  0.19107536748E+02  0.27461758973E+02  0.43049551443E+02  0.00000000000E+00 0. -1.
</event>
<event>
 7    1  0.1935465E-015  0.9000764E+02  0.7816164E-02  0.1186339E+00
        -11   -1    0    0    0    0  0.00000000000E+00  0.00000000000E+00  0.45593999997E+02  0.45594000000E+02  0.51100000000E-03 0.  1.
         11   -1    0    0    0    0 -0.00000000000E+00 -0.00000000000E+00 -0.45593999997E+02  0.45594000000E+02  0.51100000000E-03 0. -1.
    9900012    2    1    2    0    0  0.77243848361E+00  0.89126668312E+00 -0.47281972898E-01  0.90007638574E+02  0.89999898603E+02 0.  0.
         12    1    1    2    0    0 -0.77243848361E+00 -0.89126668312E+00  0.47281972898E-01  0.11803614262E+01  0.00000000000E+00 0. -1.
         11    1    3    3    0    0  0.18726422946E+02  0.31920960262E+02 -0.49870658188E+01  0.37342970505E+02  0.51100000000E-03 0. -1.
        -11    1    3    3    0    0  0.96836595374E+01  0.13963607101E+01  0.17513390126E+01  0.99393296488E+01  0.51100000000E-03 0.  1.
        -12    1    3    3    0    0 -0.27637643999E+02 -0.32426054289E+02  0.31884448333E+01  0.42725338420E+02  0.00000000000E+00 0.  1.
</event>
<event>
 7    1  0.1935465E-015  0.9000749E+02  0.7816164E-02  0.1186340E+00
        -11   -1    0    0    0    0  0.00000000000E+00  0.00000000000E+00  0.45593999997E+02  0.45594000000E+02  0.51100000000E-03 0.  1.
         11   -1    0    0    0    0 -0.00000000000E+00 -0.00000000000E+00 -0.45593999997E+02  0.45594000000E+02  0.51100000000E-03 0. -1.
    9900012    2    1    2    0    0 -0.46068807768E+00 -0.90957600130E+00  0.59500572274E+00  0.90007494254E+02  0.89999752377E+02 0.  0.
         12    1    1    2    0    0  0.46068807768E+00  0.90957600130E+00 -0.59500572274E+00  0.11805057463E+01  0.00000000000E+00 0. -1.
         11    1    3    3    0    0 -0.16150900644E+01 -0.33470271945E+02 -0.19198781072E+02  0.38619435714E+02  0.51100000000E-03 0. -1.
        -11    1    3    3    0    0  0.31488744625E+00  0.54057440089E+01 -0.98113800005E+01  0.11206444582E+02  0.51100000000E-03 0.  1.
        -12    1    3    3    0    0  0.83951454045E+00  0.27154951935E+02  0.29605166795E+02  0.40181613957E+02  0.00000000000E+00 0.  1.
</event>
<event>
 7    1  0.1935465E-015  0.9000769E+02  0.7816164E-02  0.1186339E+00
        -11   -1    0    0    0    0  0.00000000000E+00  0.00000000000E+00  0.45593999997E+02  0.45594000000E+02  0.51100000000E-03 0. -1.
         11   -1    0    0    0    0 -0.00000000000E+00 -0.00000000000E+00 -0.45593999997E+02  0.45594000000E+02  0.51100000000E-03 0.  1.
    9900012    2    1    2    0    0  0.90049095011E+00  0.67662087691E+00  0.35273251817E+00  0.90007694958E+02  0.89999955732E+02 0.  0.
         12    1    1    2    0    0 -0.90049095011E+00 -0.67662087691E+00 -0.35273251817E+00  0.11803050418E+01  0.00000000000E+00 0. -1.
         11    1    3    3    0    0 -0.70235899411E+01  0.51720624872E+00 -0.55527279146E+01  0.89683390613E+01  0.51100000000E-03 0. -1.
        -11    1    3    3    0    0  0.26904289840E+00  0.35944728368E+02 -0.14936511677E+02  0.38925509153E+02  0.51100000000E-03 0.  1.
         12    1    3    3    0    0  0.76550379928E+01 -0.35785313739E+02  0.20841972110E+02  0.42113846744E+02  0.00000000000E+00 0. -1.
</event>
<event>
 7    1  0.1935465E-015  0.9000775E+02  0.7816164E-02  0.1186339E+00
        -11   -1    0    0    0    0  0.00000000000E+00  0.00000000000E+00  0.45593999997E+02  0.45594000000E+02  0.51100000000E-03 0. -1.
         11   -1    0    0    0    0 -0.00000000000E+00 -0.00000000000E+00 -0.45593999997E+02  0.45594000000E+02  0.51100000000E-03 0.  1.
    9900012    2    1    2    0    0  0.50996100702E+00 -0.24303613271E+00 -0.10362725963E+01  0.90007751007E+02  0.90000012521E+02 0.  0.
         12    1    1    2    0    0 -0.50996100702E+00  0.24303613271E+00  0.10362725963E+01  0.11802489926E+01  0.00000000000E+00 0. -1.
         11    1    3    3    0    0  0.16524796154E+02  0.17074939822E+02 -0.73940315060E+01  0.24885621552E+02  0.51100000000E-03 0. -1.
        -11    1    3    3    0    0  0.23033400791E+02 -0.38478525410E+01  0.15768738529E+00  0.23353123704E+02  0.51100000000E-03 0.  1.
         12    1    3    3    0    0 -0.39048235937E+02 -0.13470123414E+02  0.62000715244E+01  0.41769005752E+02  0.00000000000E+00 0. -1.
</event>
<event>
 7    1  0.1935465E-015  0.9000779E+02  0.7816164E-02  0.1186339E+00
        -11   -1    0    0    0    0  0.00000000000E+00  0.00000000000E+00  0.45593999997E+02  0.45594000000E+02  0.51100000000E-03 0.  1.
         11   -1    0    0    0    0 -0.00000000000E+00 -0.00000000000E+00 -0.45593999997E+02  0.45594000000E+02  0.51100000000E-03 0. -1.
    9900012    2    1    2    0    0  0.74950361409E+00  0.59029293462E+00  0.69475436553E+00  0.90007794491E+02  0.90000056578E+02 0.  0.
         12    1    1    2    0    0 -0.74950361409E+00 -0.59029293462E+00 -0.69475436553E+00  0.11802055095E+01  0.00000000000E+00 0. -1.
         11    1    3    3    0    0 -0.24824143954E+02 -0.13794655483E+02 -0.14613629037E+02  0.31938828983E+02  0.51100000000E-03 0. -1.
        -11    1    3    3    0    0  0.26004318371E+01 -0.15085003877E+02 -0.42593992526E+01  0.15889055037E+02  0.51100000000E-03 0.  1.
        -12    1    3    3    0    0  0.22973215731E+02  0.29469952294E+02  0.19567782655E+02  0.42179910470E+02  0.00000000000E+00 0.  1.
</event>
<event>
 7    1  0.1935465E-015  0.9000772E+02  0.7816164E-02  0.1186339E+00
        -11   -1    0    0    0    0  0.00000000000E+00  0.00000000000E+00  0.45593999997E+02  0.45594000000E+02  0.51100000000E-03 0. -1.
         11   -1    0    0    0    0 -0.00000000000E+00 -0.00000000000E+00 -0.45593999997E+02  0.45594000000E+02  0.51100000000E-03 0.  1.
    9900012    2    1    2    0    0  0.36558970428E+00  0.28773920401E+00 -0.10847159411E+01  0.90007721069E+02  0.89999982187E+02 0.  0.
         12    1    1    2    0    0 -0.36558970428E+00 -0.28773920401E+00  0.10847159411E+01  0.11802789307E+01  0.00000000000E+00 0. -1.
         11    1    3    3    0    0  0.13752959998E+02 -0.22778636538E+02  0.27578234943E+02  0.38321915845E+02  0.51100000000E-03 0. -1.
        -11    1    3    3    0    0  0.10247618882E+02  0.17633080206E+01 -0.30420318497E+01  0.10834062302E+02  0.51100000000E-03 0.  1.
        -12    1    3    3    0    0 -0.23634989175E+02  0.21303067721E+02 -0.25620919034E+02  0.40851742922E+02  0.00000000000E+00 0.  1.
</event>
<event>
 7    1  0.1935465E-015  0.9000771E+02  0.7816164E-02  0.1186339E+00
        -11   -1    0    0    0    0  0.00000000000E+00  0.00000000000E+00  0.45593999997E+02  0.45594000000E+02  0.51100000000E-03 0.  1.
         11   -1    0    0    0    0 -0.00000000000E+00 -0.00000000000E+00 -0.45593999997E+02  0.45594000000E+02  0.51100000000E-03 0. -1.
    9900012    2    1    2    0    0  0.83569642101E+00  0.66708304808E+00  0.49968542150E+00  0.90007714517E+02  0.89999975549E+02 0.  0.
         12    1    1    2    0    0 -0.83569642101E+00 -0.66708304808E+00 -0.49968542150E+00  0.11802854831E+01  0.00000000000E+00 0. -1.
         11    1    3    3    0    0  0.20413750351E+02  0.23421605620E+02  0.20744169147E+02  0.37357909030E+02  0.51100000000E-03 0. -1.
        -11    1    3    3    0    0  0.23319972163E+01  0.76142150987E+01  0.30735173482E+01  0.85358650257E+01  0.51100000000E-03 0.  1.
        -12    1    3    3    0    0 -0.21910051147E+02 -0.30368737671E+02 -0.23318001073E+02  0.44113940461E+02  0.00000000000E+00 0.  1.
</event>
<event>
 7    1  0.1935465E-015  0.9000773E+02  0.7816164E-02  0.1186339E+00
        -11   -1    0    0    0    0  0.00000000000E+00  0.00000000000E+00  0.45593999997E+02  0.45594000000E+02  0.51100000000E-03 0. -1.
         11   -1    0    0    0    0 -0.00000000000E+00 -0.00000000000E+00 -0.45593999997E+02  0.45594000000E+02  0.51100000000E-03 0.  1.
    9900012    2    1    2    0    0 -0.13350626440E+00  0.85121699975E+00  0.80663002854E+00  0.90007726173E+02  0.89999987359E+02 0.  0.
         12    1    1    2    0    0  0.13350626440E+00 -0.85121699975E+00 -0.80663002854E+00  0.11802738268E+01  0.00000000000E+00 0. -1.
         11    1    3    3    0    0 -0.84579678486E+01 -0.94644682273E+01  0.33341473047E+02  0.35675863047E+02  0.51100000000E-03 0. -1.
        -11    1    3    3    0    0 -0.33139503363E+01  0.63845083060E+01  0.87100572399E+01  0.11296429105E+02  0.51100000000E-03 0.  1.
        -12    1    3    3    0    0  0.11638411920E+02  0.39311769211E+01 -0.41244900259E+02  0.43035434021E+02  0.00000000000E+00 0.  1.
</event>
<event>
 7    1  0.1935465E-015  0.9000806E+02  0.7816164E-02  0.1186338E+00
        -11   -1    0    0    0    0  0.00000000000E+00  0.00000000000E+00  0.45593999997E+02  0.45594000000E+02  0.51100000000E-03 0. -1.
         11   -1    0    0    0    0 -0.00000000000E+00 -0.00000000000E+00 -0.45593999997E+02  0.45594000000E+02  0.51100000000E-03 0.  1.
    9900012    2    1    2    0    0  0.11612330585E+01 -0.20913170761E+00  0.74872365449E-02  0.90008061719E+02  0.90000327334E+02 0.  0.
         12    1    1    2    0    0 -0.11612330585E+01  0.20913170761E+00 -0.74872365449E-02  0.11799382806E+01  0.00000000000E+00 0. -1.
         11    1    3    3    0    0  0.18812182670E+01  0.35109015680E+01 -0.31488995270E+00  0.39955685367E+01  0.51100000000E-03 0. -1.
        -11    1    3    3    0    0 -0.29181666002E+02  0.72350175787E+01 -0.30377058847E+02  0.42739686644E+02  0.51100000000E-03 0.  1.
         12    1    3    3    0    0  0.28461680793E+02 -0.10955050854E+02  0.30699436036E+02  0.43272806539E+02  0.00000000000E+00 0. -1.
</event>
<event>
 7    1  0.1935465E-015  0.9000766E+02  0.7816164E-02  0.1186339E+00
        -11   -1    0    0    0    0  0.00000000000E+00  0.00000000000E+00  0.45593999997E+02  0.45594000000E+02  0.51100000000E-03 0.  1.
         11   -1    0    0    0    0 -0.00000000000E+00 -0.00000000000E+00 -0.45593999997E+02  0.45594000000E+02  0.51100000000E-03 0. -1.
    9900012    2    1    2    0    0  0.74453335981E+00  0.66640896250E+00  0.62830938965E+00  0.90007659575E+02  0.89999919882E+02 0.  0.
         12    1    1    2    0    0 -0.74453335981E+00 -0.66640896250E+00 -0.62830938965E+00  0.11803404248E+01  0.00000000000E+00 0. -1.
         11    1    3    3    0    0  0.20448220480E+02 -0.53656207885E+01 -0.33747068073E+02  0.39821906170E+02  0.51100000000E-03 0. -1.
        -11    1    3    3    0    0  0.74107936589E+01 -0.26778874436E+01  0.97532771809E+01  0.12538634688E+02  0.51100000000E-03 0.  1.
        -12    1    3    3    0    0 -0.27114480779E+02  0.87099171945E+01  0.24622100281E+02  0.37647118717E+02  0.00000000000E+00 0.  1.
</event>
<event>
 7    1  0.1935465E-015  0.9000775E+02  0.7816164E-02  0.1186339E+00
        -11   -1    0    0    0    0  0.00000000000E+00  0.00000000000E+00  0.45593999997E+02  0.45594000000E+02  0.51100000000E-03 0.  1.
         11   -1    0    0    0    0 -0.00000000000E+00 -0.00000000000E+00 -0.45593999997E+02  0.45594000000E+02  0.51100000000E-03 0. -1.
    9900012    2    1    2    0    0 -0.83194694314E+00 -0.74043533393E+00  0.39066311142E+00  0.90007746694E+02  0.90000008150E+02 0.  0.
         12    1    1    2    0    0  0.83194694314E+00  0.74043533393E+00 -0.39066311142E+00  0.11802533061E+01  0.00000000000E+00 0. -1.
         11    1    3    3    0    0  0.35938547415E+01 -0.90201644745E+01 -0.10319720620E+02  0.14169537501E+02  0.51100000000E-03 0. -1.
        -11    1    3    3    0    0 -0.33031055057E+02  0.28591141839E+01 -0.15559472255E+02  0.36624067349E+02  0.51100000000E-03 0.  1.
         12    1    3    3    0    0  0.28605253372E+02  0.54206149567E+01  0.26269855986E+02  0.39214141844E+02  0.00000000000E+00 0. -1.
</event>
<event>
 7    1  0.1935465E-015  0.9000790E+02  0.7816164E-02  0.1186339E+00
        -11   -1    0    0    0    0  0.00000000000E+00  0.00000000000E+00  0.45593999997E+02  0.45594000000E+02  0.51100000000E-03 0. -1.
         11   -1    0    0    0    0 -0.00000000000E+00 -0.00000000000E+00 -0.45593999997E+02  0.45594000000E+02  0.51100000000E-03 0.  1.
    9900012    2    1    2    0    0  0.11454949747E+01 -0.25368651521E+00  0.12695388074E+00  0.90007901329E+02  0.90000164827E+02 0.  0.
         12    1    1    2    0    0 -0.11454949747E+01  0.25368651521E+00 -0.12695388074E+00  0.11800986708E+01  0.00000000000E+00 0. -1.
         11    1    3    3    0    0  0.50212996828E+01  0.71124186703E+00 -0.74426255364E+01  0.90062195529E+01  0.51100000000E-03 0. -1.
        -11    1    3    3    0    0  0.33018388242E+02 -0.16682305043E+02  0.15522533672E+02  0.40118104585E+02  0.51100000000E-03 0.  1.
         12    1    3    3    0    0 -0.36894192951E+02  0.15717376661E+02 -0.79529542546E+01  0.40883577191E+02  0.00000000000E+00 0. -1.
</event>
<event>
 7    1  0.1963220E-015  0.9000774E+02  0.7816164E-02  0.1186339E+00
        -11   -1    0    0    0    0  0.00000000000E+00  0.00000000000E+00  0.45593999997E+02  0.45594000000E+02  0.51100000000E-03 0. -1.
         11   -1    0    0    0    0 -0.00000000000E+00 -0.00000000000E+00 -0.45593999997E+02  0.45594000000E+02  0.51100000000E-03 0.  1.
    9900012    2    1    2    0    0  0.79574525915E+00 -0.72115057724E-02  0.87164116810E+00  0.90007736958E+02  0.89999998285E+02 0.  0.
         12    1    1    2    0    0 -0.79574525915E+00  0.72115057724E-02 -0.87164116810E+00  0.11802630424E+01  0.00000000000E+00 0. -1.
         11    1    3    3    0    0  0.47263862645E+01  0.71646592362E+01 -0.32567797105E+01  0.91802877643E+01  0.51100000000E-03 0. -1.
        -11    1    3    3    0    0  0.22493062627E+02 -0.32722230978E+01  0.33909828410E+02  0.40823054435E+02  0.51100000000E-03 0.  1.
         12    1    3    3    0    0 -0.26423703632E+02 -0.38996476441E+01 -0.29781407532E+02  0.40004394758E+02  0.00000000000E+00 0. -1.
</event>
<event>
 7    1  0.1935465E-015  0.9000802E+02  0.7816164E-02  0.1186338E+00
        -11   -1    0    0    0    0  0.00000000000E+00  0.00000000000E+00  0.45593999997E+02  0.45594000000E+02  0.51100000000E-03 0.  1.
         11   -1    0    0    0    0 -0.00000000000E+00 -0.00000000000E+00 -0.45593999997E+02  0.45594000000E+02  0.51100000000E-03 0. -1.
    9900012    2    1    2    0    0 -0.95909631761E+00 -0.30783762325E+00  0.61460000968E+00  0.90008015712E+02  0.90000280719E+02 0.  0.
         12    1    1    2    0    0  0.95909631761E+00  0.30783762325E+00 -0.61460000968E+00  0.11799842883E+01  0.00000000000E+00 0. -1.
         11    1    3    3    0    0  0.43052016284E+01 -0.59974437948E+01 -0.61163001230E+01  0.95871382899E+01  0.51100000000E-03 0. -1.
        -11    1    3    3    0    0  0.32584017359E+02 -0.12599021956E+02  0.14229829733E+02  0.37721898097E+02  0.51100000000E-03 0.  1.
         12    1    3    3    0    0 -0.37848315306E+02  0.18288628127E+02 -0.74989296005E+01  0.42698979325E+02  0.00000000000E+00 0. -1.
</event>
<event>
 7    1  0.1935465E-015  0.9000758E+02  0.7816164E-02  0.1186339E+00
        -11   -1    0    0    0    0  0.00000000000E+00  0.00000000000E+00  0.45593999997E+02  0.45594000000E+02  0.51100000000E-03 0. -1.
         11   -1    0    0    0    0 -0.00000000000E+00 -0.00000000000E+00 -0.45593999997E+02  0.45594000000E+02  0.51100000000E-03 0.  1.
    9900012    2    1    2    0    0 -0.80551307056E+00  0.76554824338E+00 -0.39809089869E+00  0.90007579828E+02  0.89999839081E+02 0.  0.
         12    1    1    2    0    0  0.80551307056E+00 -0.76554824338E+00  0.39809089869E+00  0.11804201724E+01  0.00000000000E+00 0. -1.
         11    1    3    3    0    0  0.85390882881E+01  0.45182947185E+01  0.85143710978E+01  0.12877326252E+02  0.51100000000E-03 0. -1.
        -11    1    3    3    0    0 -0.47276602383E+01  0.32799266091E+02 -0.19937463887E+02  0.38673571001E+02  0.51100000000E-03 0.  1.
         12    1    3    3    0    0 -0.46169411205E+01 -0.36552012566E+02  0.11025001890E+02  0.38456682575E+02  0.00000000000E+00 0. -1.
</event>
<event>
 7    1  0.1935465E-015  0.9000774E+02  0.7816164E-02  0.1186339E+00
        -11   -1    0    0    0    0  0.00000000000E+00  0.00000000000E+00  0.45593999997E+02  0.45594000000E+02  0.51100000000E-03 0.  1.
         11   -1    0    0    0    0 -0.00000000000E+00 -0.00000000000E+00 -0.45593999997E+02  0.45594000000E+02  0.51100000000E-03 0. -1.
    9900012    2    1    2    0    0  0.79718413760E+00  0.48090990986E+00  0.72542082889E+00  0.90007740592E+02  0.90000001968E+02 0.  0.
         12    1    1    2    0    0 -0.79718413760E+00 -0.48090990986E+00 -0.72542082889E+00  0.11802594078E+01  0.00000000000E+00 0. -1.
         11    1    3    3    0    0  0.16154346244E+02  0.30956271735E+02  0.12729405592E+02  0.37165729231E+02  0.51100000000E-03 0. -1.
        -11    1    3    3    0    0  0.61148918335E+01  0.61008642885E+01  0.41591300391E+00  0.86478570230E+01  0.51100000000E-03 0.  1.
        -12    1    3    3    0    0 -0.21472053940E+02 -0.36576226114E+02 -0.12419897767E+02  0.44194154338E+02  0.00000000000E+00 0.  1.
</event>
<event>
 7    1  0.1935465E-015  0.9000767E+02  0.7816164E-02  0.1186339E+00
        -11   -1    0    0    0    0  0.00000000000E+00  0.00000000000E+00  0.45593999997E+02  0.45594000000E+02  0.51100000000E-03 0.  1.
         11   -1    0    0    0    0 -0.00000000000E+00 -0.00000000000E+00 -0.45593999997E+02  0.45594000000E+02  0.51100000000E-03 0. -1.
    9900012    2    1    2    0    0  0.91879584491E+00  0.11631737104E+00  0.73174586724E+00  0.90007674812E+02  0.89999935319E+02 0.  0.
         12    1    1    2    0    0 -0.91879584491E+00 -0.11631737104E+00 -0.73174586724E+00  0.11803251881E+01  0.00000000000E+00 0. -1.
         11    1    3    3    0    0 -0.16875584563E+02 -0.26700833452E+02 -0.15973521766E+02  0.35395949757E+02  0.51100000000E-03 0. -1.
        -11    1    3    3    0    0  0.40467986354E+00 -0.17443917396E+01 -0.11025690225E+02  0.11170161750E+02  0.51100000000E-03 0.  1.
        -12    1    3    3    0    0  0.17389700545E+02  0.28561542562E+02  0.27730957858E+02  0.43441563304E+02  0.00000000000E+00 0.  1.
</event>
<event>
 7    1  0.1935465E-015  0.9000771E+02  0.7816164E-02  0.1186339E+00
        -11   -1    0    0    0    0  0.00000000000E+00  0.00000000000E+00  0.45593999997E+02  0.45594000000E+02  0.51100000000E-03 0.  1.
         11   -1    0    0    0    0 -0.00000000000E+00 -0.00000000000E+00 -0.45593999997E+02  0.45594000000E+02  0.51100000000E-03 0. -1.
    9900012    2    1    2    0    0 -0.15588357402E+00 -0.10268229053E+01  0.56073983504E+00  0.90007705914E+02  0.89999966832E+02 0.  0.
         12    1    1    2    0    0  0.15588357402E+00  0.10268229053E+01 -0.56073983504E+00  0.11802940862E+01  0.00000000000E+00 0. -1.
         11    1    3    3    0    0 -0.87567877730E+01 -0.30886996014E+02  0.61563013969E+00  0.32110229766E+02  0.51100000000E-03 0. -1.
        -11    1    3    3    0    0  0.14185934894E+01 -0.13642898838E+02  0.13530018990E+01  0.13783022549E+02  0.51100000000E-03 0.  1.
        -12    1    3    3    0    0  0.71823107095E+01  0.43503071946E+02 -0.14078922037E+01  0.44114453599E+02  0.00000000000E+00 0.  1.
</event>
<event>
 7    1  0.1935465E-015  0.9000772E+02  0.7816164E-02  0.1186339E+00
        -11   -1    0    0    0    0  0.00000000000E+00  0.00000000000E+00  0.45593999997E+02  0.45594000000E+02  0.51100000000E-03 0. -1.
         11   -1    0    0    0    0 -0.00000000000E+00 -0.00000000000E+00 -0.45593999997E+02  0.45594000000E+02  0.51100000000E-03 0.  1.
    9900012    2    1    2    0    0  0.98158569429E+00  0.65435352207E+00  0.36998791124E-01  0.90007721254E+02  0.89999982375E+02 0.  0.
         12    1    1    2    0    0 -0.98158569429E+00 -0.65435352207E+00 -0.36998791124E-01  0.11802787457E+01  0.00000000000E+00 0. -1.
         11    1    3    3    0    0  0.38548833226E+02 -0.35891736950E+01  0.60254872501E+01  0.39181643760E+02  0.51100000000E-03 0. -1.
        -11    1    3    3    0    0  0.13025405613E+01  0.14485943908E+01  0.88984966926E+01  0.91092415312E+01  0.51100000000E-03 0.  1.
        -12    1    3    3    0    0 -0.38869788093E+02  0.27949328263E+01 -0.14886985152E+02  0.41716835963E+02  0.00000000000E+00 0.  1.
</event>
<event>
 7    1  0.1935465E-015  0.9000787E+02  0.7816164E-02  0.1186339E+00
        -11   -1    0    0    0    0  0.00000000000E+00  0.00000000000E+00  0.45593999997E+02  0.45594000000E+02  0.51100000000E-03 0. -1.
         11   -1    0    0    0    0 -0.00000000000E+00 -0.00000000000E+00 -0.45593999997E+02  0.45594000000E+02  0.51100000000E-03 0.  1.
    9900012    2    1    2    0    0 -0.79310312093E+00  0.60274706987E+00 -0.63276676943E+00  0.90007868492E+02  0.90000131556E+02 0.  0.
         12    1    1    2    0    0  0.79310312093E+00 -0.60274706987E+00  0.63276676943E+00  0.11801315076E+01  0.00000000000E+00 0. -1.
         11    1    3    3    0    0 -0.14562488759E+02 -0.54947741695E+01  0.34185882080E+02  0.37562390178E+02  0.51100000000E-03 0. -1.
        -11    1    3    3    0    0 -0.33141919835E+01 -0.93320097426E+01  0.90817145053E+00  0.99445990359E+01  0.51100000000E-03 0.  1.
        -12    1    3    3    0    0  0.17083577622E+02  0.15429530982E+02 -0.35726820300E+02  0.42500879278E+02  0.00000000000E+00 0.  1.
</event>
<event>
 7    1  0.1935465E-015  0.9000773E+02  0.7816164E-02  0.1186339E+00
        -11   -1    0    0    0    0  0.00000000000E+00  0.00000000000E+00  0.45593999997E+02  0.45594000000E+02  0.51100000000E-03 0. -1.
         11   -1    0    0    0    0 -0.00000000000E+00 -0.00000000000E+00 -0.45593999997E+02  0.45594000000E+02  0.51100000000E-03 0.  1.
    9900012    2    1    2    0    0 -0.71548614099E+00 -0.82723834896E+00 -0.44362051323E+00  0.90007727632E+02  0.89999988836E+02 0.  0.
         12    1    1    2    0    0  0.71548614099E+00  0.82723834896E+00  0.44362051323E+00  0.11802723684E+01  0.00000000000E+00 0. -1.
         11    1    3    3    0    0 -0.78067342922E+01 -0.74564968320E+01 -0.83294285870E+01  0.13635388743E+02  0.51100000000E-03 0. -1.
        -11    1    3    3    0    0 -0.20514298036E+02  0.25011619986E+02 -0.15421041661E+02  0.35836100296E+02  0.51100000000E-03 0.  1.
         12    1    3    3    0    0  0.27605546187E+02 -0.18382361503E+02  0.23306849735E+02  0.40536238593E+02  0.00000000000E+00 0. -1.
</event>
<event>
 7    1  0.1935465E-015  0.9000774E+02  0.7816164E-02  0.1186339E+00
        -11   -1    0    0    0    0  0.00000000000E+00  0.00000000000E+00  0.45593999997E+02  0.45594000000E+02  0.51100000000E-03 0. -1.
         11   -1    0    0    0    0 -0.00000000000E+00 -0.00000000000E+00 -0.45593999997E+02  0.45594000000E+02  0.51100000000E-03 0.  1.
    9900012    2    1    2    0    0 -0.21052420187E+00 -0.54179013588E+00 -0.10272089751E+01  0.90007739321E+02  0.90000000680E+02 0.  0.
         12    1    1    2    0    0  0.21052420187E+00  0.54179013588E+00  0.10272089751E+01  0.11802606786E+01  0.00000000000E+00 0. -1.
         11    1    3    3    0    0 -0.32897829826E+00  0.87755070234E+01  0.97702248177E+00  0.88358544256E+01  0.51100000000E-03 0. -1.
        -11    1    3    3    0    0 -0.39662682266E+02  0.10080670807E+01 -0.48675997630E+01  0.39972967009E+02  0.51100000000E-03 0.  1.
         12    1    3    3    0    0  0.39781136363E+02 -0.10325364240E+02  0.28633683061E+01  0.41198917887E+02  0.00000000000E+00 0. -1.
</event>
<event>
 7    1  0.1935465E-015  0.9000774E+02  0.7816164E-02  0.1186339E+00
        -11   -1    0    0    0    0  0.00000000000E+00  0.00000000000E+00  0.45593999997E+02  0.45594000000E+02  0.51100000000E-03 0.  1.
         11   -1    0    0    0    0 -0.00000000000E+00 -0.00000000000E+00 -0.45593999997E+02  0.45594000000E+02  0.51100000000E-03 0. -1.
    9900012    2    1    2    0    0 -0.54333977792E+00  0.51876088361E+00  0.91032154616E+00  0.90007738891E+02  0.90000000244E+02 0.  0.
         12    1    1    2    0    0  0.54333977792E+00 -0.51876088361E+00 -0.91032154616E+00  0.11802611093E+01  0.00000000000E+00 0. -1.
         11    1    3    3    0    0  0.34643978635E+02  0.11695012138E+02 -0.14929061917E+01  0.36595181837E+02  0.51100000000E-03 0. -1.
        -11    1    3    3    0    0 -0.29611045662E+01  0.12717636303E+02 -0.13090181116E+01  0.13123259582E+02  0.51100000000E-03 0.  1.
        -12    1    3    3    0    0 -0.32226213847E+02 -0.23893887557E+02  0.37122458495E+01  0.40289297471E+02  0.00000000000E+00 0.  1.
</event>
<event>
 7    1  0.1935465E-015  0.9000773E+02  0.7816164E-02  0.1186339E+00
        -11   -1    0    0    0    0  0.00000000000E+00  0.00000000000E+00  0.45593999997E+02  0.45594000000E+02  0.51100000000E-03 0. -1.
         11   -1    0    0    0    0 -0.00000000000E+00 -0.00000000000E+00 -0.45593999997E+02  0.45594000000E+02  0.51100000000E-03 0.  1.
    9900012    2    1    2    0    0  0.64796605986E+00  0.77631281016E+00 -0.60869094151E+00  0.90007734667E+02  0.89999995965E+02 0.  0.
         12    1    1    2    0    0 -0.64796605986E+00 -0.77631281016E+00  0.60869094151E+00  0.11802653330E+01  0.00000000000E+00 0. -1.
         11    1    3    3    0    0 -0.37796739206E-01  0.10610892198E+02  0.66556517183E+01  0.12525580301E+02  0.51100000000E-03 0. -1.
        -11    1    3    3    0    0  0.36423899002E+02  0.77297019109E+01 -0.16961506863E+01  0.37273658763E+02  0.51100000000E-03 0.  1.
         12    1    3    3    0    0 -0.35738136203E+02 -0.17564281298E+02 -0.55681919735E+01  0.40208495603E+02  0.00000000000E+00 0. -1.
</event>
<event>
 7    1  0.1935465E-015  0.9000775E+02  0.7816164E-02  0.1186339E+00
        -11   -1    0    0    0    0  0.00000000000E+00  0.00000000000E+00  0.45593999997E+02  0.45594000000E+02  0.51100000000E-03 0. -1.
         11   -1    0    0    0    0 -0.00000000000E+00 -0.00000000000E+00 -0.45593999997E+02  0.45594000000E+02  0.51100000000E-03 0.  1.
    9900012    2    1    2    0    0  0.11177437169E+01 -0.33881724925E+00  0.16984150770E+00  0.90007748212E+02  0.90000009689E+02 0.  0.
         12    1    1    2    0    0 -0.11177437169E+01  0.33881724925E+00 -0.16984150770E+00  0.11802517879E+01  0.00000000000E+00 0. -1.
         11    1    3    3    0    0  0.12527489841E+01  0.13905942446E+02  0.69424847249E+00  0.13979506305E+02  0.51100000000E-03 0. -1.
        -11    1    3    3    0    0  0.30039362565E+02  0.43882779641E+01  0.18733431282E+02  0.35672983260E+02  0.51100000000E-03 0.  1.
         12    1    3    3    0    0 -0.30174367833E+02 -0.18633037659E+02 -0.19257838247E+02  0.40355258647E+02  0.00000000000E+00 0. -1.
</event>
<event>
 7    1  0.1935465E-015  0.9000774E+02  0.7816164E-02  0.1186339E+00
        -11   -1    0    0    0    0  0.00000000000E+00  0.00000000000E+00  0.45593999997E+02  0.45594000000E+02  0.51100000000E-03 0.  1.
         11   -1    0    0    0    0 -0.00000000000E+00 -0.00000000000E+00 -0.45593999997E+02  0.45594000000E+02  0.51100000000E-03 0. -1.
    9900012    2    1    2    0    0 -0.28589231926E+00 -0.10709637287E+01 -0.40535119938E+00  0.90007742689E+02  0.90000004092E+02 0.  0.
         12    1    1    2    0    0  0.28589231926E+00  0.10709637287E+01  0.40535119938E+00  0.11802573114E+01  0.00000000000E+00 0. -1.
         11    1    3    3    0    0  0.65734660899E+01 -0.12996638075E+02 -0.35060085799E+02  0.37964887386E+02  0.51100000000E-03 0. -1.
        -11    1    3    3    0    0 -0.65296022867E+01  0.39231591470E+01 -0.65625818102E+01  0.10054569309E+02  0.51100000000E-03 0.  1.
        -12    1    3    3    0    0 -0.32975612245E+00  0.80025151998E+01  0.41217316410E+02  0.41988285994E+02  0.00000000000E+00 0.  1.
</event>
<event>
 7    1  0.1935465E-015  0.9000767E+02  0.7816164E-02  0.1186339E+00
        -11   -1    0    0    0    0  0.00000000000E+00  0.00000000000E+00  0.45593999997E+02  0.45594000000E+02  0.51100000000E-03 0.  1.
         11   -1    0    0    0    0 -0.00000000000E+00 -0.00000000000E+00 -0.45593999997E+02  0.45594000000E+02  0.51100000000E-03 0. -1.
    9900012    2    1    2    0    0 -0.11497224823E+01  0.17811976408E-01  0.26646606230E+00  0.90007668176E+02  0.89999928596E+02 0.  0.
         12    1    1    2    0    0  0.11497224823E+01 -0.17811976408E-01 -0.26646606230E+00  0.11803318242E+01  0.00000000000E+00 0. -1.
         11    1    3    3    0    0 -0.78736930587E+01  0.78725567604E+01  0.10877303565E+02  0.15565600709E+02  0.51100000000E-03 0. -1.
        -11    1    3    3    0    0  0.30769521035E+02 -0.36464881787E+00  0.18534687744E+02  0.35922570113E+02  0.51100000000E-03 0.  1.
         12    1    3    3    0    0 -0.24045550458E+02 -0.74900959661E+01 -0.29145525247E+02  0.38519497354E+02  0.00000000000E+00 0. -1.
</event>
<event>
 7    1  0.1935465E-015  0.9000773E+02  0.7816164E-02  0.1186339E+00
        -11   -1    0    0    0    0  0.00000000000E+00  0.00000000000E+00  0.45593999997E+02  0.45594000000E+02  0.51100000000E-03 0.  1.
         11   -1    0    0    0    0 -0.00000000000E+00 -0.00000000000E+00 -0.45593999997E+02  0.45594000000E+02  0.51100000000E-03 0. -1.
    9900012    2    1    2    0    0 -0.33454166122E+00 -0.71416207749E+00  0.87811895629E+00  0.90007729481E+02  0.89999990710E+02 0.  0.
         12    1    1    2    0    0  0.33454166122E+00  0.71416207749E+00 -0.87811895629E+00  0.11802705187E+01  0.00000000000E+00 0. -1.
         11    1    3    3    0    0 -0.38976067901E+01  0.58783487198E+01 -0.24281960385E+01  0.74593872821E+01  0.51100000000E-03 0. -1.
        -11    1    3    3    0    0 -0.37174468073E+02 -0.67208481877E+01  0.14235071673E+02  0.40370139245E+02  0.51100000000E-03 0.  1.
         12    1    3    3    0    0  0.40737533202E+02  0.12833739040E+00 -0.10928756678E+02  0.42178202954E+02  0.00000000000E+00 0. -1.
</event>
<event>
 7    1  0.1935465E-015  0.9000773E+02  0.7816164E-02  0.1186339E+00
        -11   -1    0    0    0    0  0.00000000000E+00  0.00000000000E+00  0.45593999997E+02  0.45594000000E+02  0.51100000000E-03 0. -1.
         11   -1    0    0    0    0 -0.00000000000E+00 -0.00000000000E+00 -0.45593999997E+02  0.45594000000E+02  0.51100000000E-03 0.  1.
    9900012    2    1    2    0    0 -0.73303127182E+00 -0.89465486475E+00 -0.23516430137E+00  0.90007726972E+02  0.89999988168E+02 0.  0.
         12    1    1    2    0    0  0.73303127182E+00  0.89465486475E+00  0.23516430137E+00  0.11802730282E+01  0.00000000000E+00 0. -1.
         11    1    3    3    0    0 -0.24572278874E+02 -0.32825207815E+02  0.79603014497E+01  0.41769098106E+02  0.51100000000E-03 0. -1.
        -11    1    3    3    0    0  0.36476927274E+01  0.44471715367E+01  0.85037435820E+01  0.10266287161E+02  0.51100000000E-03 0.  1.
        -12    1    3    3    0    0  0.20191554875E+02  0.27483381413E+02 -0.16699209333E+02  0.37972341704E+02  0.00000000000E+00 0.  1.
</event>
<event>
 7    1  0.1935465E-015  0.9000749E+02  0.7816164E-02  0.1186340E+00
        -11   -1    0    0    0    0  0.00000000000E+00  0.00000000000E+00  0.45593999997E+02  0.45594000000E+02  0.51100000000E-03 0.  1.
         11   -1    0    0    0    0 -0.00000000000E+00 -0.00000000000E+00 -0.45593999997E+02  0.45594000000E+02  0.51100000000E-03 0. -1.
    9900012    2    1    2    0    0 -0.11272527939E+00  0.94743248305E+00  0.69518163156E+00  0.90007486214E+02  0.89999744231E+02 0.  0.
         12    1    1    2    0    0  0.11272527939E+00 -0.94743248305E+00 -0.69518163156E+00  0.11805137862E+01  0.00000000000E+00 0. -1.
         11    1    3    3    0    0 -0.72655935567E+01 -0.40870624372E+01  0.42330550197E+01  0.93494215948E+01  0.51100000000E-03 0. -1.
        -11    1    3    3    0    0  0.42663537846E+02  0.77678076515E+01  0.60235035161E+01  0.43781261883E+02  0.51100000000E-03 0.  1.
         12    1    3    3    0    0 -0.35510669569E+02 -0.27333127312E+01 -0.95613769042E+01  0.36876802736E+02  0.00000000000E+00 0. -1.
</event>
<event>
 7    1  0.1935465E-015  0.9000762E+02  0.7816164E-02  0.1186339E+00
        -11   -1    0    0    0    0  0.00000000000E+00  0.00000000000E+00  0.45593999997E+02  0.45594000000E+02  0.51100000000E-03 0.  1.
         11   -1    0    0    0    0 -0.00000000000E+00 -0.00000000000E+00 -0.45593999997E+02  0.45594000000E+02  0.51100000000E-03 0. -1.
    9900012    2    1    2    0    0 -0.14849366145E+00 -0.11459337082E+01 -0.24100549556E+00  0.90007619519E+02  0.89999879297E+02 0.  0.
         12    1    1    2    0    0  0.14849366145E+00  0.11459337082E+01  0.24100549556E+00  0.11803804810E+01  0.00000000000E+00 0. -1.
         11    1    3    3    0    0 -0.24133981123E+00  0.83143561582E+01  0.24725708259E+01  0.86775785782E+01  0.51100000000E-03 0. -1.
        -11    1    3    3    0    0  0.27417960356E+02  0.24441577606E+02  0.51270855709E+01  0.37086685921E+02  0.51100000000E-03 0.  1.
         12    1    3    3    0    0 -0.27325114206E+02 -0.33901867472E+02 -0.78406618924E+01  0.44243355019E+02  0.00000000000E+00 0. -1.
</event>
<event>
 7    1  0.1935465E-015  0.9000775E+02  0.7816164E-02  0.1186339E+00
        -11   -1    0    0    0    0  0.00000000000E+00  0.00000000000E+00  0.45593999997E+02  0.45594000000E+02  0.51100000000E-03 0. -1.
         11   -1    0    0    0    0 -0.00000000000E+00 -0.00000000000E+00 -0.45593999997E+02  0.45594000000E+02  0.51100000000E-03 0.  1.
    9900012    2    1    2    0    0 -0.35965631246E+00 -0.55831677672E+00 -0.97566069415E+00  0.90007752536E+02  0.90000014069E+02 0.  0.
         12    1    1    2    0    0  0.35965631246E+00  0.55831677672E+00  0.97566069415E+00  0.11802474640E+01  0.00000000000E+00 0. -1.
         11    1    3    3    0    0 -0.56024860146E+01  0.30298218400E+01  0.41945659589E+02  0.42426477919E+02  0.51100000000E-03 0. -1.
        -11    1    3    3    0    0 -0.24422794197E+01  0.67548510753E+01 -0.10786227202E+02  0.12958990676E+02  0.51100000000E-03 0.  1.
        -12    1    3    3    0    0  0.76851091218E+01 -0.10342989692E+02 -0.32135093081E+02  0.34622283941E+02  0.00000000000E+00 0.  1.
</event>
<event>
 7    1  0.1935465E-015  0.9000759E+02  0.7816164E-02  0.1186339E+00
        -11   -1    0    0    0    0  0.00000000000E+00  0.00000000000E+00  0.45593999997E+02  0.45594000000E+02  0.51100000000E-03 0. -1.
         11   -1    0    0    0    0 -0.00000000000E+00 -0.00000000000E+00 -0.45593999997E+02  0.45594000000E+02  0.51100000000E-03 0.  1.
    9900012    2    1    2    0    0  0.40107916393E+00 -0.98953757340E+00  0.50330450399E+00  0.90007591372E+02  0.89999850778E+02 0.  0.
         12    1    1    2    0    0 -0.40107916393E+00  0.98953757340E+00 -0.50330450399E+00  0.11804086278E+01  0.00000000000E+00 0. -1.
         11    1    3    3    0    0  0.34176589088E+02  0.43256636294E+01 -0.10030437935E+02  0.35879803413E+02  0.51100000000E-03 0. -1.
        -11    1    3    3    0    0  0.59765571131E+01 -0.11184935327E+02  0.40603806777E+00  0.12688060544E+02  0.51100000000E-03 0.  1.
        -12    1    3    3    0    0 -0.39752067037E+02  0.58697341239E+01  0.10127704371E+02  0.41439727415E+02  0.00000000000E+00 0.  1.
</event>
<event>
 7    1  0.1935465E-015  0.9000774E+02  0.7816164E-02  0.1186339E+00
        -11   -1    0    0    0    0  0.00000000000E+00  0.00000000000E+00  0.45593999997E+02  0.45594000000E+02  0.51100000000E-03 0. -1.
         11   -1    0    0    0    0 -0.00000000000E+00 -0.00000000000E+00 -0.45593999997E+02  0.45594000000E+02  0.51100000000E-03 0.  1.
    9900012    2    1    2    0    0  0.58718846954E+00 -0.99809830573E+00  0.22806614424E+00  0.90007743802E+02  0.90000005220E+02 0.  0.
         12    1    1    2    0    0 -0.58718846954E+00  0.99809830573E+00 -0.22806614424E+00  0.11802561980E+01  0.00000000000E+00 0. -1.
         11    1    3    3    0    0  0.33978795125E+02  0.22146512395E+02 -0.50498514728E+01  0.40872087414E+02  0.51100000000E-03 0. -1.
        -11    1    3    3    0    0  0.46985267436E+00 -0.58253360627E+01  0.92010849822E+01  0.10900241598E+02  0.51100000000E-03 0.  1.
        -12    1    3    3    0    0 -0.33861459330E+02 -0.17319274638E+02 -0.39231673652E+01  0.38235414790E+02  0.00000000000E+00 0.  1.
</event>
<event>
 7    1  0.1935465E-015  0.9000772E+02  0.7816164E-02  0.1186339E+00
        -11   -1    0    0    0    0  0.00000000000E+00  0.00000000000E+00  0.45593999997E+02  0.45594000000E+02  0.51100000000E-03 0. -1.
         11   -1    0    0    0    0 -0.00000000000E+00 -0.00000000000E+00 -0.45593999997E+02  0.45594000000E+02  0.51100000000E-03 0.  1.
    9900012    2    1    2    0    0  0.28859235752E+00  0.11069056508E+01  0.29076639419E+00  0.90007715812E+02  0.89999976861E+02 0.  0.
         12    1    1    2    0    0 -0.28859235752E+00 -0.11069056508E+01 -0.29076639419E+00  0.11802841880E+01  0.00000000000E+00 0. -1.
         11    1    3    3    0    0 -0.12116808576E+02 -0.33042919357E+02  0.76810410649E+01  0.36022908847E+02  0.51100000000E-03 0. -1.
        -11    1    3    3    0    0 -0.33666945838E+01 -0.78601287570E+01 -0.20667675380E+01  0.87970327278E+01  0.51100000000E-03 0.  1.
        -12    1    3    3    0    0  0.15772095518E+02  0.42009953765E+02 -0.53235071327E+01  0.45187774237E+02  0.00000000000E+00 0.  1.
</event>
<event>
 7    1  0.1935465E-015  0.9000782E+02  0.7816164E-02  0.1186339E+00
        -11   -1    0    0    0    0  0.00000000000E+00  0.00000000000E+00  0.45593999997E+02  0.45594000000E+02  0.51100000000E-03 0. -1.
         11   -1    0    0    0    0 -0.00000000000E+00 -0.00000000000E+00 -0.45593999997E+02  0.45594000000E+02  0.51100000000E-03 0.  1.
    9900012    2    1    2    0    0  0.30331263924E+00 -0.73716810286E+00  0.87028704926E+00  0.90007824201E+02  0.90000086680E+02 0.  0.
         12    1    1    2    0    0 -0.30331263924E+00  0.73716810286E+00 -0.87028704926E+00  0.11801757992E+01  0.00000000000E+00 0. -1.
         11    1    3    3    0    0 -0.79151025454E+01 -0.53776762243E+01 -0.26352978227E+00  0.95727581232E+01  0.51100000000E-03 0. -1.
        -11    1    3    3    0    0  0.16293652148E+02  0.15268608069E-01 -0.37399108629E+02  0.40794321418E+02  0.51100000000E-03 0.  1.
         12    1    3    3    0    0 -0.80752369630E+01  0.46252395133E+01  0.38532925461E+02  0.39640744659E+02  0.00000000000E+00 0. -1.
</event>
<event>
 7    1  0.1935465E-015  0.9000775E+02  0.7816164E-02  0.1186339E+00
        -11   -1    0    0    0    0  0.00000000000E+00  0.00000000000E+00  0.45593999997E+02  0.45594000000E+02  0.51100000000E-03 0.  1.
         11   -1    0    0    0    0 -0.00000000000E+00 -0.00000000000E+00 -0.45593999997E+02  0.45594000000E+02  0.51100000000E-03 0. -1.
    9900012    2    1    2    0    0 -0.26343740853E+00  0.70717356805E+00  0.90746612341E+00  0.90007750667E+02  0.90000012176E+02 0.  0.
         12    1    1    2    0    0  0.26343740853E+00 -0.70717356805E+00 -0.90746612341E+00  0.11802493333E+01  0.00000000000E+00 0. -1.
         11    1    3    3    0    0 -0.79357009203E+01 -0.28811690169E+01  0.66857456805E+01  0.10769200507E+02  0.51100000000E-03 0. -1.
        -11    1    3    3    0    0 -0.25463350014E+02 -0.21793281049E+02  0.94253638853E+01  0.34816185567E+02  0.51100000000E-03 0.  1.
         12    1    3    3    0    0  0.33135613526E+02  0.25381623634E+02 -0.15203643442E+02  0.44422364592E+02  0.00000000000E+00 0. -1.
</event>
<event>
 7    1  0.1935465E-015  0.9000772E+02  0.7816164E-02  0.1186339E+00
        -11   -1    0    0    0    0  0.00000000000E+00  0.00000000000E+00  0.45593999997E+02  0.45594000000E+02  0.51100000000E-03 0.  1.
         11   -1    0    0    0    0 -0.00000000000E+00 -0.00000000000E+00 -0.45593999997E+02  0.45594000000E+02  0.51100000000E-03 0. -1.
    9900012    2    1    2    0    0  0.11011665449E+01 -0.55165212981E-01  0.42124812940E+00  0.90007719971E+02  0.89999981075E+02 0.  0.
         12    1    1    2    0    0 -0.11011665449E+01  0.55165212981E-01 -0.42124812940E+00  0.11802800290E+01  0.00000000000E+00 0. -1.
         11    1    3    3    0    0  0.21745329747E+01 -0.33594739900E+02 -0.12558165547E+02  0.35931082155E+02  0.51100000000E-03 0. -1.
        -11    1    3    3    0    0  0.46370629770E+01 -0.77853510997E+01 -0.27847485196E+01  0.94799192706E+01  0.51100000000E-03 0.  1.
        -12    1    3    3    0    0 -0.57104294068E+01  0.41324925787E+02  0.15764162196E+02  0.44596718546E+02  0.00000000000E+00 0.  1.
</event>
<event>
 7    1  0.1935465E-015  0.9000770E+02  0.7816164E-02  0.1186339E+00
        -11   -1    0    0    0    0  0.00000000000E+00  0.00000000000E+00  0.45593999997E+02  0.45594000000E+02  0.51100000000E-03 0.  1.
         11   -1    0    0    0    0 -0.00000000000E+00 -0.00000000000E+00 -0.45593999997E+02  0.45594000000E+02  0.51100000000E-03 0. -1.
    9900012    2    1    2    0    0 -0.10442587773E+01  0.53988890686E+00 -0.10559481356E+00  0.90007700593E+02  0.89999961441E+02 0.  0.
         12    1    1    2    0    0  0.10442587773E+01 -0.53988890686E+00  0.10559481356E+00  0.11802994071E+01  0.00000000000E+00 0. -1.
         11    1    3    3    0    0  0.21302247886E+02 -0.28170493289E+02 -0.25137296326E+02  0.43350272479E+02  0.51100000000E-03 0. -1.
        -11    1    3    3    0    0 -0.49209787114E+00  0.41763156633E+01  0.93469746027E+01  0.10249375948E+02  0.51100000000E-03 0.  1.
        -12    1    3    3    0    0 -0.21854408792E+02  0.24534066533E+02  0.15684726910E+02  0.36408052166E+02  0.00000000000E+00 0.  1.
</event>
<event>
 7    1  0.1935465E-015  0.9000769E+02  0.7816164E-02  0.1186339E+00
        -11   -1    0    0    0    0  0.00000000000E+00  0.00000000000E+00  0.45593999997E+02  0.45594000000E+02  0.51100000000E-03 0.  1.
         11   -1    0    0    0    0 -0.00000000000E+00 -0.00000000000E+00 -0.45593999997E+02  0.45594000000E+02  0.51100000000E-03 0. -1.
    9900012    2    1    2    0    0  0.73459892206E+00  0.37954541440E-03  0.92385065717E+00  0.90007688280E+02  0.89999948965E+02 0.  0.
         12    1    1    2    0    0 -0.73459892206E+00 -0.37954541440E-03 -0.92385065717E+00  0.11803117203E+01  0.00000000000E+00 0. -1.
         11    1    3    3    0    0 -0.13468597392E+02  0.33086509906E+02 -0.21019774458E+01  0.35784613494E+02  0.51100000000E-03 0. -1.
        -11    1    3    3    0    0 -0.26316776781E+01  0.81781208258E+01 -0.33139741052E+01  0.92081383717E+01  0.51100000000E-03 0.  1.
        -12    1    3    3    0    0  0.16834873992E+02 -0.41264251186E+02  0.63398022082E+01  0.45014936414E+02  0.00000000000E+00 0.  1.
</event>
<event>
 7    1  0.1935465E-015  0.9000802E+02  0.7816164E-02  0.1186338E+00
        -11   -1    0    0    0    0  0.00000000000E+00  0.00000000000E+00  0.45593999997E+02  0.45594000000E+02  0.51100000000E-03 0.  1.
         11   -1    0    0    0    0 -0.00000000000E+00 -0.00000000000E+00 -0.45593999997E+02  0.45594000000E+02  0.51100000000E-03 0. -1.
    9900012    2    1    2    0    0  0.76074077089E+00 -0.22389660819E+00  0.87378857674E+00  0.90008015810E+02  0.90000280818E+02 0.  0.
         12    1    1    2    0    0 -0.76074077089E+00  0.22389660819E+00 -0.87378857674E+00  0.11799841899E+01  0.00000000000E+00 0. -1.
         11    1    3    3    0    0 -0.63841713178E+01  0.35833798900E+01  0.18647271035E+01  0.75548303941E+01  0.51100000000E-03 0. -1.
        -11    1    3    3    0    0 -0.23481276146E+01  0.34807322842E+02 -0.17938128870E+02  0.39228049841E+02  0.51100000000E-03 0.  1.
         12    1    3    3    0    0  0.94930397033E+01 -0.38614599340E+02  0.16947190343E+02  0.43225135575E+02  0.00000000000E+00 0. -1.
</event>
<event>
 7    1  0.1935465E-015  0.9000773E+02  0.7816164E-02  0.1186339E+00
        -11   -1    0    0    0    0  0.00000000000E+00  0.00000000000E+00  0.45593999997E+02  0.45594000000E+02  0.51100000000E-03 0.  1.
         11   -1    0    0    0    0 -0.00000000000E+00 -0.00000000000E+00 -0.45593999997E+02  0.45594000000E+02  0.51100000000E-03 0. -1.
    9900012    2    1    2    0    0  0.74644830543E+00  0.78604768776E+00 -0.46688266668E+00  0.90007730766E+02  0.89999992012E+02 0.  0.
         12    1    1    2    0    0 -0.74644830543E+00 -0.78604768776E+00  0.46688266668E+00  0.11802692339E+01  0.00000000000E+00 0. -1.
         11    1    3    3    0    0  0.34664645540E+00 -0.37352183435E+01 -0.96134807041E+01  0.10319449179E+02  0.51100000000E-03 0. -1.
        -11    1    3    3    0    0 -0.38303016369E+02  0.11121810095E+02  0.53839016594E+01  0.40246765338E+02  0.51100000000E-03 0.  1.
         12    1    3    3    0    0  0.38702818219E+02 -0.66005440639E+01  0.37626963780E+01  0.39441516250E+02  0.00000000000E+00 0. -1.
</event>
<event>
 7    1  0.1935465E-015  0.9000791E+02  0.7816164E-02  0.1186339E+00
        -11   -1    0    0    0    0  0.00000000000E+00  0.00000000000E+00  0.45593999997E+02  0.45594000000E+02  0.51100000000E-03 0.  1.
         11   -1    0    0    0    0 -0.00000000000E+00 -0.00000000000E+00 -0.45593999997E+02  0.45594000000E+02  0.51100000000E-03 0. -1.
    9900012    2    1    2    0    0 -0.10133207026E+01  0.54726277374E+00  0.25747429273E+00  0.90007911698E+02  0.90000175332E+02 0.  0.
         12    1    1    2    0    0  0.10133207026E+01 -0.54726277374E+00 -0.25747429273E+00  0.11800883023E+01  0.00000000000E+00 0. -1.
         11    1    3    3    0    0  0.74425938022E+01 -0.61498804736E+00 -0.10086137497E+02  0.12549923612E+02  0.51100000000E-03 0. -1.
        -11    1    3    3    0    0  0.27760507800E+02  0.31954827162E+01  0.25796197808E+02  0.38030260645E+02  0.51100000000E-03 0.  1.
         12    1    3    3    0    0 -0.36216422304E+02 -0.20332318951E+01 -0.15452586019E+02  0.39427727441E+02  0.00000000000E+00 0. -1.
</event>
<event>
 7    1  0.1935465E-015  0.9000818E+02  0.7816164E-02  0.1186338E+00
        -11   -1    0    0    0    0  0.00000000000E+00  0.00000000000E+00  0.45593999997E+02  0.45594000000E+02  0.51100000000E-03 0. -1.
         11   -1    0    0    0    0 -0.00000000000E+00 -0.00000000000E+00 -0.45593999997E+02  0.45594000000E+02  0.51100000000E-03 0.  1.
    9900012    2    1    2    0    0  0.44390268845E+00 -0.99985746391E+00 -0.44183806331E+00  0.90008175683E+02  0.90000442801E+02 0.  0.
         12    1    1    2    0    0 -0.44390268845E+00  0.99985746391E+00  0.44183806331E+00  0.11798243171E+01  0.00000000000E+00 0. -1.
         11    1    3    3    0    0  0.52242410029E+01  0.59700715701E-01 -0.61750622452E+01  0.80887361328E+01  0.51100000000E-03 0. -1.
        -11    1    3    3    0    0 -0.10095006348E+02  0.35486157824E+02  0.20429258246E+02  0.42172635002E+02  0.51100000000E-03 0.  1.
         12    1    3    3    0    0  0.53146680334E+01 -0.36545716004E+02 -0.14696034064E+02  0.39746804548E+02  0.00000000000E+00 0. -1.
</event>
<event>
 7    1  0.1935465E-015  0.9000770E+02  0.7816164E-02  0.1186339E+00
        -11   -1    0    0    0    0  0.00000000000E+00  0.00000000000E+00  0.45593999997E+02  0.45594000000E+02  0.51100000000E-03 0.  1.
         11   -1    0    0    0    0 -0.00000000000E+00 -0.00000000000E+00 -0.45593999997E+02  0.45594000000E+02  0.51100000000E-03 0. -1.
    9900012    2    1    2    0    0  0.28749288438E+00 -0.11401694524E+01  0.10236036116E+00  0.90007696572E+02  0.89999957367E+02 0.  0.
         12    1    1    2    0    0 -0.28749288438E+00  0.11401694524E+01 -0.10236036116E+00  0.11803034280E+01  0.00000000000E+00 0. -1.
         11    1    3    3    0    0  0.13351003181E+00 -0.36700512775E+02 -0.24958465818E+01  0.36785523148E+02  0.51100000000E-03 0. -1.
        -11    1    3    3    0    0  0.32745724758E+01 -0.84333260324E+01  0.78410858282E+00  0.90806739508E+01  0.51100000000E-03 0.  1.
        -12    1    3    3    0    0 -0.31205896233E+01  0.43993669355E+02  0.18140983602E+01  0.44141499473E+02  0.00000000000E+00 0.  1.
</event>
<event>
 7    1  0.1935465E-015  0.9000774E+02  0.7816164E-02  0.1186339E+00
        -11   -1    0    0    0    0  0.00000000000E+00  0.00000000000E+00  0.45593999997E+02  0.45594000000E+02  0.51100000000E-03 0.  1.
         11   -1    0    0    0    0 -0.00000000000E+00 -0.00000000000E+00 -0.45593999997E+02  0.45594000000E+02  0.51100000000E-03 0. -1.
    9900012    2    1    2    0    0 -0.57756533882E+00  0.10118223364E+01 -0.18878024267E+00  0.90007744036E+02  0.90000005457E+02 0.  0.
         12    1    1    2    0    0  0.57756533882E+00 -0.10118223364E+01  0.18878024267E+00  0.11802559642E+01  0.00000000000E+00 0. -1.
         11    1    3    3    0    0  0.95413412998E+01  0.52824172378E+01 -0.12125625354E+02  0.16308645442E+02  0.51100000000E-03 0. -1.
        -11    1    3    3    0    0  0.22376734937E+02  0.10043724285E+02 -0.15334442925E+02  0.28926455090E+02  0.51100000000E-03 0.  1.
        -12    1    3    3    0    0 -0.32495641576E+02 -0.14314319187E+02  0.27271288036E+02  0.44772643504E+02  0.00000000000E+00 0.  1.
</event>
<event>
 7    1  0.1935465E-015  0.9000769E+02  0.7816164E-02  0.1186339E+00
        -11   -1    0    0    0    0  0.00000000000E+00  0.00000000000E+00  0.45593999997E+02  0.45594000000E+02  0.51100000000E-03 0.  1.
         11   -1    0    0    0    0 -0.00000000000E+00 -0.00000000000E+00 -0.45593999997E+02  0.45594000000E+02  0.51100000000E-03 0. -1.
    9900012    2    1    2    0    0  0.52858429609E+00  0.57728843484E+00  0.88344005466E+00  0.90007690877E+02  0.89999951597E+02 0.  0.
         12    1    1    2    0    0 -0.52858429609E+00 -0.57728843484E+00 -0.88344005466E+00  0.11803091228E+01  0.00000000000E+00 0. -1.
         11    1    3    3    0    0  0.47278736542E+01 -0.13460540864E+02 -0.31802134995E+02  0.34855627095E+02  0.51100000000E-03 0. -1.
        -11    1    3    3    0    0  0.28591177941E+01 -0.74235236603E+01 -0.62634954990E+01  0.10124951073E+02  0.51100000000E-03 0.  1.
        -12    1    3    3    0    0 -0.70584071522E+01  0.21461352959E+02  0.38949070549E+02  0.45027112710E+02  0.00000000000E+00 0.  1.
</event>
<event>
 7    1  0.1935465E-015  0.9000783E+02  0.7816164E-02  0.1186339E+00
        -11   -1    0    0    0    0  0.00000000000E+00  0.00000000000E+00  0.45593999997E+02  0.45594000000E+02  0.51100000000E-03 0.  1.
         11   -1    0    0    0    0 -0.00000000000E+00 -0.00000000000E+00 -0.45593999997E+02  0.45594000000E+02  0.51100000000E-03 0. -1.
    9900012    2    1    2    0    0  0.10189678098E+01 -0.20303055483E+00  0.55971402641E+00  0.90007831963E+02  0.90000094545E+02 0.  0.
         12    1    1    2    0    0 -0.10189678098E+01  0.20303055483E+00 -0.55971402641E+00  0.11801680367E+01  0.00000000000E+00 0. -1.
         11    1    3    3    0    0  0.32223591316E+02 -0.15127415263E+02 -0.17945249455E+02  0.39865154059E+02  0.51100000000E-03 0. -1.
        -11    1    3    3    0    0  0.54457789505E+01  0.73956670773E+01  0.34171765777E+01  0.97994640629E+01  0.51100000000E-03 0.  1.
        -12    1    3    3    0    0 -0.36650402457E+02  0.75287176309E+01  0.15087786904E+02  0.40343213842E+02  0.00000000000E+00 0.  1.
</event>
<event>
 7    1  0.1935465E-015  0.9000775E+02  0.7816164E-02  0.1186339E+00
        -11   -1    0    0    0    0  0.00000000000E+00  0.00000000000E+00  0.45593999997E+02  0.45594000000E+02  0.51100000000E-03 0. -1.
         11   -1    0    0    0    0 -0.00000000000E+00 -0.00000000000E+00 -0.45593999997E+02  0.45594000000E+02  0.51100000000E-03 0.  1.
    9900012    2    1    2    0    0  0.10090401155E+01 -0.29201185532E+00 -0.53809768457E+00  0.90007753417E+02  0.90000014962E+02 0.  0.
         12    1    1    2    0    0 -0.10090401155E+01  0.29201185532E+00  0.53809768457E+00  0.11802465829E+01  0.00000000000E+00 0. -1.
         11    1    3    3    0    0 -0.23123766820E+02  0.24378402243E+02  0.22756820480E+02  0.40581867459E+02  0.51100000000E-03 0. -1.
        -11    1    3    3    0    0  0.94785286545E+01  0.46100732224E+01 -0.32294060317E+01  0.11023808060E+02  0.51100000000E-03 0.  1.
        -12    1    3    3    0    0  0.14654278281E+02 -0.29280487321E+02 -0.20065512133E+02  0.38402077897E+02  0.00000000000E+00 0.  1.
</event>
<event>
 7    1  0.1935465E-015  0.9000791E+02  0.7816164E-02  0.1186339E+00
        -11   -1    0    0    0    0  0.00000000000E+00  0.00000000000E+00  0.45593999997E+02  0.45594000000E+02  0.51100000000E-03 0. -1.
         11   -1    0    0    0    0 -0.00000000000E+00 -0.00000000000E+00 -0.45593999997E+02  0.45594000000E+02  0.51100000000E-03 0.  1.
    9900012    2    1    2    0    0 -0.10469098823E+01 -0.71595937246E-03  0.54460149275E+00  0.90007910342E+02  0.90000173959E+02 0.  0.
         12    1    1    2    0    0  0.10469098823E+01  0.71595937246E-03 -0.54460149275E+00  0.11800896577E+01  0.00000000000E+00 0. -1.
         11    1    3    3    0    0  0.70044307863E+01 -0.13041639690E+01 -0.59459029611E+01  0.92799060654E+01  0.51100000000E-03 0. -1.
        -11    1    3    3    0    0  0.41052412980E+01  0.39720564036E+02  0.63450959920E+01  0.40433110897E+02  0.51100000000E-03 0.  1.
         12    1    3    3    0    0 -0.12156581967E+02 -0.38417116026E+02  0.14540846190E+00  0.40294893380E+02  0.00000000000E+00 0. -1.
</event>
<event>
 7    1  0.1935465E-015  0.9000764E+02  0.7816164E-02  0.1186339E+00
        -11   -1    0    0    0    0  0.00000000000E+00  0.00000000000E+00  0.45593999997E+02  0.45594000000E+02  0.51100000000E-03 0.  1.
         11   -1    0    0    0    0 -0.00000000000E+00 -0.00000000000E+00 -0.45593999997E+02  0.45594000000E+02  0.51100000000E-03 0. -1.
    9900012    2    1    2    0    0 -0.95349242670E+00  0.35929456750E+00  0.59582788526E+00  0.90007639351E+02  0.89999899390E+02 0.  0.
         12    1    1    2    0    0  0.95349242670E+00 -0.35929456750E+00 -0.59582788526E+00  0.11803606495E+01  0.00000000000E+00 0. -1.
         11    1    3    3    0    0  0.28762092193E+01 -0.37361349643E+01 -0.91190752918E+01  0.10265905629E+02  0.51100000000E-03 0. -1.
        -11    1    3    3    0    0  0.35865693838E+02 -0.76475889031E+01  0.11123422077E+02  0.38321849244E+02  0.51100000000E-03 0.  1.
         12    1    3    3    0    0 -0.39695395484E+02  0.11743018435E+02 -0.14085189001E+01  0.41419884477E+02  0.00000000000E+00 0. -1.
</event>
<event>
 7    1  0.1935465E-015  0.9000779E+02  0.7816164E-02  0.1186339E+00
        -11   -1    0    0    0    0  0.00000000000E+00  0.00000000000E+00  0.45593999997E+02  0.45594000000E+02  0.51100000000E-03 0.  1.
         11   -1    0    0    0    0 -0.00000000000E+00 -0.00000000000E+00 -0.45593999997E+02  0.45594000000E+02  0.51100000000E-03 0. -1.
    9900012    2    1    2    0    0  0.50770609386E+00  0.37751435723E+00  0.99630467407E+00  0.90007785794E+02  0.90000047767E+02 0.  0.
         12    1    1    2    0    0 -0.50770609386E+00 -0.37751435723E+00 -0.99630467407E+00  0.11802142057E+01  0.00000000000E+00 0. -1.
         11    1    3    3    0    0 -0.34510514905E+00 -0.68674695890E+01  0.64828267912E+01  0.94503057932E+01  0.51100000000E-03 0. -1.
        -11    1    3    3    0    0 -0.31477156525E+01 -0.35889899949E+02 -0.88764512417E+01  0.37105045736E+02  0.51100000000E-03 0.  1.
         12    1    3    3    0    0  0.40005268955E+01  0.43134883895E+02  0.33899291246E+01  0.43452434265E+02  0.00000000000E+00 0. -1.
</event>
<event>
 7    1  0.1935465E-015  0.9000757E+02  0.7816164E-02  0.1186339E+00
        -11   -1    0    0    0    0  0.00000000000E+00  0.00000000000E+00  0.45593999997E+02  0.45594000000E+02  0.51100000000E-03 0.  1.
         11   -1    0    0    0    0 -0.00000000000E+00 -0.00000000000E+00 -0.45593999997E+02  0.45594000000E+02  0.51100000000E-03 0. -1.
    9900012    2    1    2    0    0  0.24666160885E+00  0.10792386042E+01 -0.40964553648E+00  0.90007573221E+02  0.89999832388E+02 0.  0.
         12    1    1    2    0    0 -0.24666160885E+00 -0.10792386042E+01  0.40964553648E+00  0.11804267786E+01  0.00000000000E+00 0. -1.
         11    1    3    3    0    0 -0.21032453292E+01  0.88421338980E+01 -0.11256144200E+01  0.91582739023E+01  0.51100000000E-03 0. -1.
        -11    1    3    3    0    0  0.35103554730E+01  0.11662513608E+01  0.40190743940E+02  0.40360607484E+02  0.51100000000E-03 0.  1.
         12    1    3    3    0    0 -0.11604485349E+01 -0.89291466546E+01 -0.39474775056E+02  0.40488691835E+02  0.00000000000E+00 0. -1.
</event>
<event>
 7    1  0.1935465E-015  0.9000782E+02  0.7816164E-02  0.1186339E+00
        -11   -1    0    0    0    0  0.00000000000E+00  0.00000000000E+00  0.45593999997E+02  0.45594000000E+02  0.51100000000E-03 0.  1.
         11   -1    0    0    0    0 -0.00000000000E+00 -0.00000000000E+00 -0.45593999997E+02  0.45594000000E+02  0.51100000000E-03 0. -1.
    9900012    2    1    2    0    0 -0.91475418225E-02  0.11620061690E+01 -0.20612403000E+00  0.90007818179E+02  0.90000080579E+02 0.  0.
         12    1    1    2    0    0  0.91475418225E-02 -0.11620061690E+01  0.20612403000E+00  0.11801818208E+01  0.00000000000E+00 0. -1.
         11    1    3    3    0    0 -0.48874486417E+01 -0.47081769507E+01  0.95511856922E+01  0.11716622074E+02  0.51100000000E-03 0. -1.
        -11    1    3    3    0    0  0.15576251601E+01  0.40452427510E+02  0.45131095441E+01  0.40733195868E+02  0.51100000000E-03 0.  1.
         12    1    3    3    0    0  0.33206759398E+01 -0.34582244391E+02 -0.14270419266E+02  0.37558000237E+02  0.00000000000E+00 0. -1.
</event>
<event>
 7    1  0.1935465E-015  0.9000790E+02  0.7816164E-02  0.1186339E+00
        -11   -1    0    0    0    0  0.00000000000E+00  0.00000000000E+00  0.45593999997E+02  0.45594000000E+02  0.51100000000E-03 0.  1.
         11   -1    0    0    0    0 -0.00000000000E+00 -0.00000000000E+00 -0.45593999997E+02  0.45594000000E+02  0.51100000000E-03 0. -1.
    9900012    2    1    2    0    0 -0.51355467556E-01  0.12787481163E+00  0.11720231092E+01  0.90007903597E+02  0.90000167124E+02 0.  0.
         12    1    1    2    0    0  0.51355467556E-01 -0.12787481163E+00 -0.11720231092E+01  0.11800964028E+01  0.00000000000E+00 0. -1.
         11    1    3    3    0    0 -0.33711074308E+02 -0.26336002514E+02 -0.25014529361E+01  0.42851824074E+02  0.51100000000E-03 0. -1.
        -11    1    3    3    0    0  0.11665505654E+02  0.46674686880E-01 -0.32096766727E+01  0.12099100185E+02  0.51100000000E-03 0.  1.
        -12    1    3    3    0    0  0.21994213187E+02  0.26417202639E+02  0.68831527180E+01  0.35056979338E+02  0.00000000000E+00 0.  1.
</event>
<event>
 7    1  0.1935465E-015  0.9000778E+02  0.7816164E-02  0.1186339E+00
        -11   -1    0    0    0    0  0.00000000000E+00  0.00000000000E+00  0.45593999997E+02  0.45594000000E+02  0.51100000000E-03 0.  1.
         11   -1    0    0    0    0 -0.00000000000E+00 -0.00000000000E+00 -0.45593999997E+02  0.45594000000E+02  0.51100000000E-03 0. -1.
    9900012    2    1    2    0    0 -0.56285567762E+00  0.98334588117E+00  0.33037329806E+00  0.90007778770E+02  0.90000040650E+02 0.  0.
         12    1    1    2    0    0  0.56285567762E+00 -0.98334588117E+00 -0.33037329806E+00  0.11802212301E+01  0.00000000000E+00 0. -1.
         11    1    3    3    0    0  0.14421386312E+01 -0.18741354962E+02 -0.32830654772E+02  0.37830808116E+02  0.51100000000E-03 0. -1.
        -11    1    3    3    0    0  0.46947036830E+01 -0.60544752860E+01 -0.21399880035E+01  0.79546503743E+01  0.51100000000E-03 0.  1.
        -12    1    3    3    0    0 -0.66996979918E+01  0.25779176130E+02  0.35301016074E+02  0.44222320280E+02  0.00000000000E+00 0.  1.
</event>
<event>
 7    1  0.1935465E-015  0.9000784E+02  0.7816164E-02  0.1186339E+00
        -11   -1    0    0    0    0  0.00000000000E+00  0.00000000000E+00  0.45593999997E+02  0.45594000000E+02  0.51100000000E-03 0. -1.
         11   -1    0    0    0    0 -0.00000000000E+00 -0.00000000000E+00 -0.45593999997E+02  0.45594000000E+02  0.51100000000E-03 0.  1.
    9900012    2    1    2    0    0 -0.45096215299E-02  0.97718499202E-01 -0.11761026072E+01  0.90007836204E+02  0.90000098842E+02 0.  0.
         12    1    1    2    0    0  0.45096215299E-02 -0.97718499202E-01  0.11761026072E+01  0.11801637956E+01  0.00000000000E+00 0. -1.
         11    1    3    3    0    0  0.14730132714E+02  0.23327698113E+02  0.24184442073E+02  0.36688493396E+02  0.51100000000E-03 0. -1.
        -11    1    3    3    0    0  0.58412339235E+01  0.77541622512E+01 -0.52322762004E+01  0.11028316302E+02  0.51100000000E-03 0.  1.
        -12    1    3    3    0    0 -0.20575876259E+02 -0.30984141865E+02 -0.20128268480E+02  0.42291026506E+02  0.00000000000E+00 0.  1.
</event>
<event>
 7    1  0.1935465E-015  0.9000789E+02  0.7816164E-02  0.1186339E+00
        -11   -1    0    0    0    0  0.00000000000E+00  0.00000000000E+00  0.45593999997E+02  0.45594000000E+02  0.51100000000E-03 0. -1.
         11   -1    0    0    0    0 -0.00000000000E+00 -0.00000000000E+00 -0.45593999997E+02  0.45594000000E+02  0.51100000000E-03 0.  1.
    9900012    2    1    2    0    0  0.59536701889E+00 -0.96060007161E+00  0.33977270728E+00  0.90007889888E+02  0.90000153234E+02 0.  0.
         12    1    1    2    0    0 -0.59536701889E+00  0.96060007161E+00 -0.33977270728E+00  0.11801101124E+01  0.00000000000E+00 0. -1.
         11    1    3    3    0    0 -0.17040030027E+02 -0.27322594763E+02  0.22029909325E+02  0.39015429166E+02  0.51100000000E-03 0. -1.
        -11    1    3    3    0    0 -0.89430620457E+01  0.24763741678E+01 -0.17530181700E+00  0.92812455393E+01  0.51100000000E-03 0.  1.
        -12    1    3    3    0    0  0.26578459092E+02  0.23885620524E+02 -0.21514834800E+02  0.41711215182E+02  0.00000000000E+00 0.  1.
</event>
<event>
 7    1  0.1935465E-015  0.9000774E+02  0.7816164E-02  0.1186339E+00
        -11   -1    0    0    0    0  0.00000000000E+00  0.00000000000E+00  0.45593999997E+02  0.45594000000E+02  0.51100000000E-03 0.  1.
         11   -1    0    0    0    0 -0.00000000000E+00 -0.00000000000E+00 -0.45593999997E+02  0.45594000000E+02  0.51100000000E-03 0. -1.
    9900012    2    1    2    0    0  0.98244696684E+00  0.16154986624E+00  0.63380249967E+00  0.90007743244E+02  0.90000004655E+02 0.  0.
         12    1    1    2    0    0 -0.98244696684E+00 -0.16154986624E+00 -0.63380249967E+00  0.11802567562E+01  0.00000000000E+00 0. -1.
         11    1    3    3    0    0  0.45099609183E+00 -0.68526453470E+01  0.77168649280E+01  0.10330157322E+02  0.51100000000E-03 0. -1.
        -11    1    3    3    0    0 -0.11569224300E+01 -0.10019542008E+02  0.33844118638E+02  0.35315068430E+02  0.51100000000E-03 0.  1.
         12    1    3    3    0    0  0.16883733050E+01  0.17033737221E+02 -0.40927181067E+02  0.44362517492E+02  0.00000000000E+00 0. -1.
</event>
<event>
 7    1  0.1935465E-015  0.9000776E+02  0.7816164E-02  0.1186339E+00
        -11   -1    0    0    0    0  0.00000000000E+00  0.00000000000E+00  0.45593999997E+02  0.45594000000E+02  0.51100000000E-03 0.  1.
         11   -1    0    0    0    0 -0.00000000000E+00 -0.00000000000E+00 -0.45593999997E+02  0.45594000000E+02  0.51100000000E-03 0. -1.
    9900012    2    1    2    0    0  0.15421609485E+00 -0.84634730330E-01  0.11670531514E+01  0.90007763287E+02  0.90000024962E+02 0.  0.
         12    1    1    2    0    0 -0.15421609485E+00  0.84634730330E-01 -0.11670531514E+01  0.11802367134E+01  0.00000000000E+00 0. -1.
         11    1    3    3    0    0 -0.50609228264E+01  0.31608326235E+02  0.15069284180E+02  0.35380539188E+02  0.51100000000E-03 0. -1.
        -11    1    3    3    0    0  0.22727410422E+01  0.80916148909E+01  0.57228304058E+01  0.10168105600E+02  0.51100000000E-03 0.  1.
        -12    1    3    3    0    0  0.29423978791E+01 -0.39784575857E+02 -0.19625061434E+02  0.44459118499E+02  0.00000000000E+00 0.  1.
</event>
<event>
 7    1  0.1935465E-015  0.9000781E+02  0.7816164E-02  0.1186339E+00
        -11   -1    0    0    0    0  0.00000000000E+00  0.00000000000E+00  0.45593999997E+02  0.45594000000E+02  0.51100000000E-03 0.  1.
         11   -1    0    0    0    0 -0.00000000000E+00 -0.00000000000E+00 -0.45593999997E+02  0.45594000000E+02  0.51100000000E-03 0. -1.
    9900012    2    1    2    0    0 -0.11265540403E+01 -0.33204329898E+00  0.11604150871E+00  0.90007812562E+02  0.90000074887E+02 0.  0.
         12    1    1    2    0    0  0.11265540403E+01  0.33204329898E+00 -0.11604150871E+00  0.11801874384E+01  0.00000000000E+00 0. -1.
         11    1    3    3    0    0  0.55129384066E+01  0.17619109211E+01 -0.12513457502E+02  0.13787075066E+02  0.51100000000E-03 0. -1.
        -11    1    3    3    0    0 -0.12723753717E+02 -0.27712421383E+02 -0.18329430357E+02  0.35578648443E+02  0.51100000000E-03 0.  1.
         12    1    3    3    0    0  0.60842612697E+01  0.25618467163E+02  0.30958929368E+02  0.40642089053E+02  0.00000000000E+00 0. -1.
</event>
<event>
 7    1  0.1935465E-015  0.9000759E+02  0.7816164E-02  0.1186339E+00
        -11   -1    0    0    0    0  0.00000000000E+00  0.00000000000E+00  0.45593999997E+02  0.45594000000E+02  0.51100000000E-03 0.  1.
         11   -1    0    0    0    0 -0.00000000000E+00 -0.00000000000E+00 -0.45593999997E+02  0.45594000000E+02  0.51100000000E-03 0. -1.
    9900012    2    1    2    0    0 -0.47915483255E-01 -0.10365226231E+01 -0.56276098299E+00  0.90007586951E+02  0.89999846299E+02 0.  0.
         12    1    1    2    0    0  0.47915483255E-01  0.10365226231E+01  0.56276098299E+00  0.11804130488E+01  0.00000000000E+00 0. -1.
         11    1    3    3    0    0 -0.24424287059E+01  0.15637738193E+02  0.30963986712E+01  0.16127368005E+02  0.51100000000E-03 0. -1.
        -11    1    3    3    0    0 -0.12362085712E+00 -0.24249330961E+02  0.30406272010E+02  0.38891987761E+02  0.51100000000E-03 0.  1.
         12    1    3    3    0    0  0.25181340798E+01  0.75750701446E+01 -0.34065431665E+02  0.34988231185E+02  0.00000000000E+00 0. -1.
</event>
<event>
 7    1  0.1935465E-015  0.9000768E+02  0.7816164E-02  0.1186339E+00
        -11   -1    0    0    0    0  0.00000000000E+00  0.00000000000E+00  0.45593999997E+02  0.45594000000E+02  0.51100000000E-03 0. -1.
         11   -1    0    0    0    0 -0.00000000000E+00 -0.00000000000E+00 -0.45593999997E+02  0.45594000000E+02  0.51100000000E-03 0.  1.
    9900012    2    1    2    0    0  0.61031276602E+00 -0.10022839436E+01 -0.12690220160E+00  0.90007678457E+02  0.89999939013E+02 0.  0.
         12    1    1    2    0    0 -0.61031276602E+00  0.10022839436E+01  0.12690220160E+00  0.11803215429E+01  0.00000000000E+00 0. -1.
         11    1    3    3    0    0 -0.87928528903E+01 -0.69944496274E+00  0.25704983178E+01  0.91875430376E+01  0.51100000000E-03 0. -1.
        -11    1    3    3    0    0 -0.35645633647E+02  0.13867929120E+01 -0.25425429831E+00  0.35673506110E+02  0.51100000000E-03 0.  1.
         12    1    3    3    0    0  0.45048799303E+02 -0.16896318928E+01 -0.24431462211E+01  0.45146629310E+02  0.00000000000E+00 0. -1.
</event>
<event>
 7    1  0.1935465E-015  0.9000763E+02  0.7816164E-02  0.1186339E+00
        -11   -1    0    0    0    0  0.00000000000E+00  0.00000000000E+00  0.45593999997E+02  0.45594000000E+02  0.51100000000E-03 0.  1.
         11   -1    0    0    0    0 -0.00000000000E+00 -0.00000000000E+00 -0.45593999997E+02  0.45594000000E+02  0.51100000000E-03 0. -1.
    9900012    2    1    2    0    0 -0.10153721676E+01  0.58296065736E+00 -0.14979836604E+00  0.90007634244E+02  0.89999894216E+02 0.  0.
         12    1    1    2    0    0  0.10153721676E+01 -0.58296065736E+00  0.14979836604E+00  0.11803657557E+01  0.00000000000E+00 0. -1.
         11    1    3    3    0    0 -0.16610909222E+02 -0.67332599841E+01 -0.14144737184E+02  0.22832710865E+02  0.51100000000E-03 0. -1.
        -11    1    3    3    0    0 -0.22792936166E+02  0.88194470782E+01 -0.39769722897E+01  0.24761197360E+02  0.51100000000E-03 0.  1.
         12    1    3    3    0    0  0.38388473220E+02 -0.15032264367E+01  0.17971911108E+02  0.42413726019E+02  0.00000000000E+00 0. -1.
</event>
<event>
 7    1  0.1935465E-015  0.9000769E+02  0.7816164E-02  0.1186339E+00
        -11   -1    0    0    0    0  0.00000000000E+00  0.00000000000E+00  0.45593999997E+02  0.45594000000E+02  0.51100000000E-03 0.  1.
         11   -1    0    0    0    0 -0.00000000000E+00 -0.00000000000E+00 -0.45593999997E+02  0.45594000000E+02  0.51100000000E-03 0. -1.
    9900012    2    1    2    0    0  0.99834703467E+00 -0.27756469060E+00 -0.56514923244E+00  0.90007689611E+02  0.89999950314E+02 0.  0.
         12    1    1    2    0    0 -0.99834703467E+00  0.27756469060E+00  0.56514923244E+00  0.11803103889E+01  0.00000000000E+00 0. -1.
         11    1    3    3    0    0  0.21537949960E+01 -0.35418007912E+02 -0.20100823358E+01  0.35540322854E+02  0.51100000000E-03 0. -1.
        -11    1    3    3    0    0 -0.16798051020E+01 -0.95706783389E+01 -0.26344286619E+00  0.97205468700E+01  0.51100000000E-03 0.  1.
        -12    1    3    3    0    0  0.52435714067E+00  0.44711121560E+02  0.17083759696E+01  0.44746819887E+02  0.00000000000E+00 0.  1.
</event>
<event>
 7    1  0.1935465E-015  0.9000773E+02  0.7816164E-02  0.1186339E+00
        -11   -1    0    0    0    0  0.00000000000E+00  0.00000000000E+00  0.45593999997E+02  0.45594000000E+02  0.51100000000E-03 0.  1.
         11   -1    0    0    0    0 -0.00000000000E+00 -0.00000000000E+00 -0.45593999997E+02  0.45594000000E+02  0.51100000000E-03 0. -1.
    9900012    2    1    2    0    0  0.69889281051E+00 -0.90403350934E+00  0.29549007913E+00  0.90007727941E+02  0.89999989150E+02 0.  0.
         12    1    1    2    0    0 -0.69889281051E+00  0.90403350934E+00 -0.29549007913E+00  0.11802720591E+01  0.00000000000E+00 0. -1.
         11    1    3    3    0    0  0.80966223593E+01 -0.23522970105E+02 -0.32828160241E+02  0.41189483139E+02  0.51100000000E-03 0. -1.
        -11    1    3    3    0    0  0.71868085991E+01 -0.17915659032E+01  0.75014356101E+01  0.10541890850E+02  0.51100000000E-03 0.  1.
        -12    1    3    3    0    0 -0.14584538148E+02  0.24410502499E+02  0.25622214710E+02  0.38276353952E+02  0.00000000000E+00 0.  1.
</event>
<event>
 7    1  0.1935465E-015  0.9000773E+02  0.7816164E-02  0.1186339E+00
        -11   -1    0    0    0    0  0.00000000000E+00  0.00000000000E+00  0.45593999997E+02  0.45594000000E+02  0.51100000000E-03 0. -1.
         11   -1    0    0    0    0 -0.00000000000E+00 -0.00000000000E+00 -0.45593999997E+02  0.45594000000E+02  0.51100000000E-03 0.  1.
    9900012    2    1    2    0    0 -0.38141130693E+00 -0.10238495548E+01 -0.44642711800E+00  0.90007728986E+02  0.89999990208E+02 0.  0.
         12    1    1    2    0    0  0.38141130693E+00  0.10238495548E+01  0.44642711800E+00  0.11802710145E+01  0.00000000000E+00 0. -1.
         11    1    3    3    0    0  0.87911036709E+01  0.71070560256E+01 -0.64064067137E+01  0.12993682940E+02  0.51100000000E-03 0. -1.
        -11    1    3    3    0    0  0.15310465369E+02  0.21923557645E+02  0.22423867141E+02  0.34898173984E+02  0.51100000000E-03 0.  1.
         12    1    3    3    0    0 -0.24482980347E+02 -0.30054463225E+02 -0.16463887545E+02  0.42115872062E+02  0.00000000000E+00 0. -1.
</event>
<event>
 7    1  0.1935465E-015  0.9000824E+02  0.7816164E-02  0.1186338E+00
        -11   -1    0    0    0    0  0.00000000000E+00  0.00000000000E+00  0.45593999997E+02  0.45594000000E+02  0.51100000000E-03 0.  1.
         11   -1    0    0    0    0 -0.00000000000E+00 -0.00000000000E+00 -0.45593999997E+02  0.45594000000E+02  0.51100000000E-03 0. -1.
    9900012    2    1    2    0    0 -0.72864801893E+00 -0.49964014987E+00 -0.78184027466E+00  0.90008236282E+02  0.90000504200E+02 0.  0.
         12    1    1    2    0    0  0.72864801893E+00  0.49964014987E+00  0.78184027466E+00  0.11797637178E+01  0.00000000000E+00 0. -1.
         11    1    3    3    0    0  0.93887213302E+01 -0.19906181809E+01  0.20092048932E+01  0.98054858892E+01  0.51100000000E-03 0. -1.
        -11    1    3    3    0    0  0.92299667305E+01 -0.62603936951E+01  0.35170200615E+02  0.36896176315E+02  0.51100000000E-03 0.  1.
         12    1    3    3    0    0 -0.19347336080E+02  0.77513717261E+01 -0.37961245783E+02  0.43306574078E+02  0.00000000000E+00 0. -1.
</event>
<event>
 7    1  0.1935465E-015  0.9000834E+02  0.7816164E-02  0.1186338E+00
        -11   -1    0    0    0    0  0.00000000000E+00  0.00000000000E+00  0.45593999997E+02  0.45594000000E+02  0.51100000000E-03 0. -1.
         11   -1    0    0    0    0 -0.00000000000E+00 -0.00000000000E+00 -0.45593999997E+02  0.45594000000E+02  0.51100000000E-03 0.  1.
    9900012    2    1    2    0    0 -0.55677259105E-01  0.11750327564E+01  0.88349135767E-01  0.90008335851E+02  0.90000605082E+02 0.  0.
         12    1    1    2    0    0  0.55677259105E-01 -0.11750327564E+01 -0.88349135767E-01  0.11796641495E+01  0.00000000000E+00 0. -1.
         11    1    3    3    0    0  0.63380509922E+01  0.13839963885E+02  0.10915935591E+02  0.18731608068E+02  0.51100000000E-03 0. -1.
        -11    1    3    3    0    0 -0.13488898998E+02  0.18233395681E+02  0.17589859987E+02  0.28702095548E+02  0.51100000000E-03 0.  1.
        -12    1    3    3    0    0  0.70951707466E+01 -0.30898326810E+02 -0.28417446442E+02  0.42574632234E+02  0.00000000000E+00 0.  1.
</event>
<event>
 7    1  0.1935465E-015  0.9000779E+02  0.7816164E-02  0.1186339E+00
        -11   -1    0    0    0    0  0.00000000000E+00  0.00000000000E+00  0.45593999997E+02  0.45594000000E+02  0.51100000000E-03 0.  1.
         11   -1    0    0    0    0 -0.00000000000E+00 -0.00000000000E+00 -0.45593999997E+02  0.45594000000E+02  0.51100000000E-03 0. -1.
    9900012    2    1    2    0    0 -0.17472273548E+00  0.25367474181E+00  0.11393084302E+01  0.90007787050E+02  0.90000049039E+02 0.  0.
         12    1    1    2    0    0  0.17472273548E+00 -0.25367474181E+00 -0.11393084302E+01  0.11802129503E+01  0.00000000000E+00 0. -1.
         11    1    3    3    0    0  0.33880477895E+02  0.73237621974E+01  0.37954724005E+00  0.34665088078E+02  0.51100000000E-03 0. -1.
        -11    1    3    3    0    0 -0.98603477818E+00  0.12919260670E+02 -0.86416210598E+01  0.15574247193E+02  0.51100000000E-03 0.  1.
        -12    1    3    3    0    0 -0.33069165852E+02 -0.19989348125E+02  0.94013822499E+01  0.39768451778E+02  0.00000000000E+00 0.  1.
</event>
<event>
 7    1  0.1935465E-015  0.9000760E+02  0.7816164E-02  0.1186339E+00
        -11   -1    0    0    0    0  0.00000000000E+00  0.00000000000E+00  0.45593999997E+02  0.45594000000E+02  0.51100000000E-03 0.  1.
         11   -1    0    0    0    0 -0.00000000000E+00 -0.00000000000E+00 -0.45593999997E+02  0.45594000000E+02  0.51100000000E-03 0. -1.
    9900012    2    1    2    0    0  0.22902639101E+00  0.10834370115E-01  0.11579217573E+01  0.90007596142E+02  0.89999855611E+02 0.  0.
         12    1    1    2    0    0 -0.22902639101E+00 -0.10834370115E-01 -0.11579217573E+01  0.11804038577E+01  0.00000000000E+00 0. -1.
         11    1    3    3    0    0  0.60395757039E+01  0.48273984819E+01  0.83872722881E+01  0.11407304129E+02  0.51100000000E-03 0. -1.
        -11    1    3    3    0    0  0.12800759142E+02 -0.25331779970E+02  0.23775232732E+02  0.37024589164E+02  0.51100000000E-03 0.  1.
         12    1    3    3    0    0 -0.18611308454E+02  0.20515215858E+02 -0.31004583263E+02  0.41575702849E+02  0.00000000000E+00 0. -1.
</event>
<event>
 7    1  0.1935465E-015  0.9000765E+02  0.7816164E-02  0.1186339E+00
        -11   -1    0    0    0    0  0.00000000000E+00  0.00000000000E+00  0.45593999997E+02  0.45594000000E+02  0.51100000000E-03 0.  1.
         11   -1    0    0    0    0 -0.00000000000E+00 -0.00000000000E+00 -0.45593999997E+02  0.45594000000E+02  0.51100000000E-03 0. -1.
    9900012    2    1    2    0    0  0.49477981230E+00  0.61058768761E+00  0.88067668033E+00  0.90007654372E+02  0.89999914609E+02 0.  0.
         12    1    1    2    0    0 -0.49477981230E+00 -0.61058768761E+00 -0.88067668033E+00  0.11803456283E+01  0.00000000000E+00 0. -1.
         11    1    3    3    0    0  0.31668155137E+02  0.11318453818E+02 -0.14996695778E+01  0.33663458760E+02  0.51100000000E-03 0. -1.
        -11    1    3    3    0    0  0.11060181877E+02  0.18429924645E+00 -0.49469176410E+01  0.12117490820E+02  0.51100000000E-03 0.  1.
        -12    1    3    3    0    0 -0.42233557201E+02 -0.10892165377E+02  0.73272638992E+01  0.44226704792E+02  0.00000000000E+00 0.  1.
</event>
<event>
 7    1  0.2270957E-015  0.9000766E+02  0.7816164E-02  0.1186339E+00
        -11   -1    0    0    0    0  0.00000000000E+00  0.00000000000E+00  0.45593999997E+02  0.45594000000E+02  0.51100000000E-03 0.  1.
         11   -1    0    0    0    0 -0.00000000000E+00 -0.00000000000E+00 -0.45593999997E+02  0.45594000000E+02  0.51100000000E-03 0. -1.
    9900012    2    1    2    0    0  0.47468007720E+00 -0.87882501190E-01  0.10771061732E+01  0.90007660126E+02  0.89999920440E+02 0.  0.
         12    1    1    2    0    0 -0.47468007720E+00  0.87882501190E-01 -0.10771061732E+01  0.11803398740E+01  0.00000000000E+00 0. -1.
         11    1    3    3    0    0  0.57906355298E+01 -0.42896231876E+01 -0.60817228889E+01  0.94297232456E+01  0.51100000000E-03 0. -1.
        -11    1    3    3    0    0  0.16216901248E+02 -0.35410783807E+01  0.38410952669E+02  0.41844096446E+02  0.51100000000E-03 0.  1.
         12    1    3    3    0    0 -0.21532856701E+02  0.77428190671E+01 -0.31252123607E+02  0.38733840434E+02  0.00000000000E+00 0. -1.
</event>
<event>
 7    1  0.1935465E-015  0.9000775E+02  0.7816164E-02  0.1186339E+00
        -11   -1    0    0    0    0  0.00000000000E+00  0.00000000000E+00  0.45593999997E+02  0.45594000000E+02  0.51100000000E-03 0. -1.
         11   -1    0    0    0    0 -0.00000000000E+00 -0.00000000000E+00 -0.45593999997E+02  0.45594000000E+02  0.51100000000E-03 0.  1.
    9900012    2    1    2    0    0 -0.89896931964E+00  0.69122352831E+00  0.32719966081E+00  0.90007747730E+02  0.90000009200E+02 0.  0.
         12    1    1    2    0    0  0.89896931964E+00 -0.69122352831E+00 -0.32719966081E+00  0.11802522704E+01  0.00000000000E+00 0. -1.
         11    1    3    3    0    0  0.45097646589E+00  0.30964608897E+02 -0.11452261305E+02  0.33017641848E+02  0.51100000000E-03 0. -1.
        -11    1    3    3    0    0  0.64893820230E+01  0.11035220407E+02  0.72206066562E+01  0.14697800149E+02  0.51100000000E-03 0.  1.
        -12    1    3    3    0    0 -0.78393278085E+01 -0.41308605776E+02  0.45588543093E+01  0.42292305733E+02  0.00000000000E+00 0.  1.
</event>
<event>
 7    1  0.1935465E-015  0.9000752E+02  0.7816164E-02  0.1186339E+00
        -11   -1    0    0    0    0  0.00000000000E+00  0.00000000000E+00  0.45593999997E+02  0.45594000000E+02  0.51100000000E-03 0. -1.
         11   -1    0    0    0    0 -0.00000000000E+00 -0.00000000000E+00 -0.45593999997E+02  0.45594000000E+02  0.51100000000E-03 0.  1.
    9900012    2    1    2    0    0  0.10296342262E+01 -0.48962675021E+00 -0.30601556611E+00  0.90007522757E+02  0.89999781257E+02 0.  0.
         12    1    1    2    0    0 -0.10296342262E+01  0.48962675021E+00  0.30601556611E+00  0.11804772429E+01  0.00000000000E+00 0. -1.
         11    1    3    3    0    0  0.37509429282E+02  0.83660944455E+01  0.16082610160E+02  0.41660522934E+02  0.51100000000E-03 0. -1.
        -11    1    3    3    0    0 -0.73072613392E+01 -0.34708503379E+01  0.68997892546E+01  0.10632495585E+02  0.51100000000E-03 0.  1.
        -12    1    3    3    0    0 -0.29172533716E+02 -0.53848708579E+01 -0.23288414981E+02  0.37714504238E+02  0.00000000000E+00 0.  1.
</event>
<event>
 7    1  0.1935465E-015  0.9000775E+02  0.7816164E-02  0.1186339E+00
        -11   -1    0    0    0    0  0.00000000000E+00  0.00000000000E+00  0.45593999997E+02  0.45594000000E+02  0.51100000000E-03 0.  1.
         11   -1    0    0    0    0 -0.00000000000E+00 -0.00000000000E+00 -0.45593999997E+02  0.45594000000E+02  0.51100000000E-03 0. -1.
    9900012    2    1    2    0    0 -0.93187868977E+00  0.70090089693E+00  0.18253325238E+00  0.90007754963E+02  0.90000016528E+02 0.  0.
         12    1    1    2    0    0  0.93187868977E+00 -0.70090089693E+00 -0.18253325238E+00  0.11802450373E+01  0.00000000000E+00 0. -1.
         11    1    3    3    0    0 -0.92226611025E+01 -0.17435009422E+02 -0.37519285247E+02  0.42387896823E+02  0.51100000000E-03 0. -1.
        -11    1    3    3    0    0  0.55332901149E+01 -0.37794522495E+01  0.60839581214E+01  0.90507516531E+01  0.51100000000E-03 0.  1.
        -12    1    3    3    0    0  0.27574922978E+01  0.21915362569E+02  0.31617860378E+02  0.38569106487E+02  0.00000000000E+00 0.  1.
</event>
<event>
 7    1  0.1935465E-015  0.9000793E+02  0.7816164E-02  0.1186339E+00
        -11   -1    0    0    0    0  0.00000000000E+00  0.00000000000E+00  0.45593999997E+02  0.45594000000E+02  0.51100000000E-03 0.  1.
         11   -1    0    0    0    0 -0.00000000000E+00 -0.00000000000E+00 -0.45593999997E+02  0.45594000000E+02  0.51100000000E-03 0. -1.
    9900012    2    1    2    0    0  0.42697871747E+00 -0.10571074812E+01 -0.30460450742E+00  0.90007927562E+02  0.90000191406E+02 0.  0.
         12    1    1    2    0    0 -0.42697871747E+00  0.10571074812E+01  0.30460450742E+00  0.11800724375E+01  0.00000000000E+00 0. -1.
         11    1    3    3    0    0 -0.72781595461E+01  0.96431999689E+00  0.55054801565E+01  0.91767004664E+01  0.51100000000E-03 0. -1.
        -11    1    3    3    0    0 -0.22257974360E+02 -0.62498603616E+01  0.27434861583E+02  0.35876870091E+02  0.51100000000E-03 0.  1.
         12    1    3    3    0    0  0.29963112624E+02  0.42284328835E+01 -0.33244946247E+02  0.44954357005E+02  0.00000000000E+00 0. -1.
</event>
<event>
 7    1  0.1935465E-015  0.9000775E+02  0.7816164E-02  0.1186339E+00
        -11   -1    0    0    0    0  0.00000000000E+00  0.00000000000E+00  0.45593999997E+02  0.45594000000E+02  0.51100000000E-03 0. -1.
         11   -1    0    0    0    0 -0.00000000000E+00 -0.00000000000E+00 -0.45593999997E+02  0.45594000000E+02  0.51100000000E-03 0.  1.
    9900012    2    1    2    0    0  0.22261572741E+00 -0.10447317852E+01 -0.50195754014E+00  0.90007752722E+02  0.90000014258E+02 0.  0.
         12    1    1    2    0    0 -0.22261572741E+00  0.10447317852E+01  0.50195754014E+00  0.11802472780E+01  0.00000000000E+00 0. -1.
         11    1    3    3    0    0 -0.89108660880E+01  0.27579561971E+02 -0.24006374646E+02  0.37634316745E+02  0.51100000000E-03 0. -1.
        -11    1    3    3    0    0  0.29526518756E+01 -0.39352685440E+01 -0.94983673923E+01  0.10696890903E+02  0.51100000000E-03 0.  1.
        -12    1    3    3    0    0  0.61808299398E+01 -0.24689025212E+02  0.33002784499E+02  0.41676545074E+02  0.00000000000E+00 0.  1.
</event>
<event>
 7    1  0.1935465E-015  0.9000773E+02  0.7816164E-02  0.1186339E+00
        -11   -1    0    0    0    0  0.00000000000E+00  0.00000000000E+00  0.45593999997E+02  0.45594000000E+02  0.51100000000E-03 0. -1.
         11   -1    0    0    0    0 -0.00000000000E+00 -0.00000000000E+00 -0.45593999997E+02  0.45594000000E+02  0.51100000000E-03 0.  1.
    9900012    2    1    2    0    0  0.73357405402E+00 -0.57509466644E+00 -0.72399615713E+00  0.90007730877E+02  0.89999992124E+02 0.  0.
         12    1    1    2    0    0 -0.73357405402E+00  0.57509466644E+00  0.72399615713E+00  0.11802691234E+01  0.00000000000E+00 0. -1.
         11    1    3    3    0    0 -0.37056046147E+02 -0.12453241183E+02 -0.68089312624E+01  0.39681170815E+02  0.51100000000E-03 0. -1.
        -11    1    3    3    0    0 -0.52830532949E+01  0.22807877453E+01  0.15856607231E+01  0.59688328043E+01  0.51100000000E-03 0.  1.
        -12    1    3    3    0    0  0.43072673496E+02  0.95973587713E+01  0.44992743822E+01  0.44357727258E+02  0.00000000000E+00 0.  1.
</event>
<event>
 7    1  0.1935465E-015  0.9000800E+02  0.7816164E-02  0.1186339E+00
        -11   -1    0    0    0    0  0.00000000000E+00  0.00000000000E+00  0.45593999997E+02  0.45594000000E+02  0.51100000000E-03 0.  1.
         11   -1    0    0    0    0 -0.00000000000E+00 -0.00000000000E+00 -0.45593999997E+02  0.45594000000E+02  0.51100000000E-03 0. -1.
    9900012    2    1    2    0    0  0.68431074321E+00  0.74699842043E+00  0.60507235963E+00  0.90007999833E+02  0.90000264631E+02 0.  0.
         12    1    1    2    0    0 -0.68431074321E+00 -0.74699842043E+00 -0.60507235963E+00  0.11800001669E+01  0.00000000000E+00 0. -1.
         11    1    3    3    0    0 -0.41004506433E+01 -0.10136582087E+02  0.13317213008E+02  0.17231139094E+02  0.51100000000E-03 0.  1.
        -11    1    3    3    0    0  0.16861626958E+02 -0.20082807970E+02 -0.26049904278E+02  0.36962564208E+02  0.51100000000E-03 0. -1.
         12    1    3    3    0    0 -0.12076865572E+02  0.30966388478E+02  0.13337763630E+02  0.35814296532E+02  0.00000000000E+00 0. -1.
</event>
<event>
 7    1  0.1935465E-015  0.9000774E+02  0.7816164E-02  0.1186339E+00
        -11   -1    0    0    0    0  0.00000000000E+00  0.00000000000E+00  0.45593999997E+02  0.45594000000E+02  0.51100000000E-03 0.  1.
         11   -1    0    0    0    0 -0.00000000000E+00 -0.00000000000E+00 -0.45593999997E+02  0.45594000000E+02  0.51100000000E-03 0. -1.
    9900012    2    1    2    0    0 -0.16055524206E+00 -0.28686538276E+00  0.11335519810E+01  0.90007741627E+02  0.90000003016E+02 0.  0.
         12    1    1    2    0    0  0.16055524206E+00  0.28686538276E+00 -0.11335519810E+01  0.11802583730E+01  0.00000000000E+00 0. -1.
         11    1    3    3    0    0  0.74528375990E+01  0.70211059695E+01 -0.56831319647E+00  0.10254935273E+02  0.51100000000E-03 0. -1.
        -11    1    3    3    0    0  0.33308110352E+02 -0.76914504172E+01  0.14121296298E+02  0.36986479072E+02  0.51100000000E-03 0.  1.
         12    1    3    3    0    0 -0.40921503193E+02  0.38347906498E+00 -0.12419431121E+02  0.42766327281E+02  0.00000000000E+00 0. -1.
</event>
<event>
 7    1  0.1935465E-015  0.9000805E+02  0.7816164E-02  0.1186338E+00
        -11   -1    0    0    0    0  0.00000000000E+00  0.00000000000E+00  0.45593999997E+02  0.45594000000E+02  0.51100000000E-03 0.  1.
         11   -1    0    0    0    0 -0.00000000000E+00 -0.00000000000E+00 -0.45593999997E+02  0.45594000000E+02  0.51100000000E-03 0. -1.
    9900012    2    1    2    0    0  0.72141253452E+00 -0.28531056873E+00  0.88906437896E+00  0.90008053545E+02  0.90000319052E+02 0.  0.
         12    1    1    2    0    0 -0.72141253452E+00  0.28531056873E+00 -0.88906437896E+00  0.11799464545E+01  0.00000000000E+00 0. -1.
         11    1    3    3    0    0  0.35223105404E+01 -0.12937454086E+00  0.61316969511E+01  0.70725608570E+01  0.51100000000E-03 0. -1.
        -11    1    3    3    0    0  0.75814926296E+01 -0.19141043718E+02  0.33058150099E+02  0.38944831151E+02  0.51100000000E-03 0.  1.
         12    1    3    3    0    0 -0.10382390636E+02  0.18985107690E+02 -0.38300782671E+02  0.43990661538E+02  0.00000000000E+00 0. -1.
</event>
<event>
 7    1  0.1935465E-015  0.9000773E+02  0.7816164E-02  0.1186339E+00
        -11   -1    0    0    0    0  0.00000000000E+00  0.00000000000E+00  0.45593999997E+02  0.45594000000E+02  0.51100000000E-03 0.  1.
         11   -1    0    0    0    0 -0.00000000000E+00 -0.00000000000E+00 -0.45593999997E+02  0.45594000000E+02  0.51100000000E-03 0. -1.
    9900012    2    1    2    0    0  0.99655376524E+00 -0.10917431087E+00  0.62289454013E+00  0.90007730520E+02  0.89999991763E+02 0.  0.
         12    1    1    2    0    0 -0.99655376524E+00  0.10917431087E+00 -0.62289454013E+00  0.11802694799E+01  0.00000000000E+00 0. -1.
         11    1    3    3    0    0  0.79863043276E+00 -0.63958327565E+01 -0.67009162445E+01  0.92976753006E+01  0.51100000000E-03 0. -1.
        -11    1    3    3    0    0 -0.39481538948E+02 -0.16011852338E+01 -0.43751082875E+00  0.39516415929E+02  0.51100000000E-03 0.  1.
         12    1    3    3    0    0  0.39679462281E+02  0.78878436794E+01  0.77613216134E+01  0.41193639291E+02  0.00000000000E+00 0. -1.
</event>
<event>
 7    1  0.1935465E-015  0.9000784E+02  0.7816164E-02  0.1186339E+00
        -11   -1    0    0    0    0  0.00000000000E+00  0.00000000000E+00  0.45593999997E+02  0.45594000000E+02  0.51100000000E-03 0. -1.
         11   -1    0    0    0    0 -0.00000000000E+00 -0.00000000000E+00 -0.45593999997E+02  0.45594000000E+02  0.51100000000E-03 0.  1.
    9900012    2    1    2    0    0  0.41489311094E+00  0.75644997370E+00 -0.80524506824E+00  0.90007842182E+02  0.90000104898E+02 0.  0.
         12    1    1    2    0    0 -0.41489311094E+00 -0.75644997370E+00  0.80524506824E+00  0.11801578183E+01  0.00000000000E+00 0. -1.
         11    1    3    3    0    0  0.36359300719E+01  0.10720715788E+02  0.86848443347E+00  0.11353765894E+02  0.51100000000E-03 0. -1.
        -11    1    3    3    0    0  0.18232115162E+02  0.26904085139E+02  0.10740412344E+02  0.34228588606E+02  0.51100000000E-03 0.  1.
         12    1    3    3    0    0 -0.21453152123E+02 -0.36868350953E+02 -0.12414141845E+02  0.44425487682E+02  0.00000000000E+00 0. -1.
</event>
<event>
 7    1  0.1935465E-015  0.9000741E+02  0.7816164E-02  0.1186340E+00
        -11   -1    0    0    0    0  0.00000000000E+00  0.00000000000E+00  0.45593999997E+02  0.45594000000E+02  0.51100000000E-03 0. -1.
         11   -1    0    0    0    0 -0.00000000000E+00 -0.00000000000E+00 -0.45593999997E+02  0.45594000000E+02  0.51100000000E-03 0.  1.
    9900012    2    1    2    0    0 -0.66513607323E+00 -0.87782389605E+00 -0.42522536967E+00  0.90007408028E+02  0.89999665014E+02 0.  0.
         12    1    1    2    0    0  0.66513607323E+00  0.87782389605E+00  0.42522536967E+00  0.11805919716E+01  0.00000000000E+00 0. -1.
         11    1    3    3    0    0 -0.56107565431E+01  0.37422095455E+02 -0.58845110630E+01  0.38295186224E+02  0.51100000000E-03 0. -1.
        -11    1    3    3    0    0 -0.56687363558E+01  0.10676067940E+01 -0.70067673558E+01  0.90757448828E+01  0.51100000000E-03 0.  1.
        -12    1    3    3    0    0  0.10614356826E+02 -0.39367526145E+02  0.12466053049E+02  0.42636476921E+02  0.00000000000E+00 0.  1.
</event>
<event>
 7    1  0.1935465E-015  0.9000784E+02  0.7816164E-02  0.1186339E+00
        -11   -1    0    0    0    0  0.00000000000E+00  0.00000000000E+00  0.45593999997E+02  0.45594000000E+02  0.51100000000E-03 0.  1.
         11   -1    0    0    0    0 -0.00000000000E+00 -0.00000000000E+00 -0.45593999997E+02  0.45594000000E+02  0.51100000000E-03 0. -1.
    9900012    2    1    2    0    0  0.10240277514E+01 -0.20476667961E-01  0.58627238440E+00  0.90007844316E+02  0.90000107061E+02 0.  0.
         12    1    1    2    0    0 -0.10240277514E+01  0.20476667961E-01 -0.58627238440E+00  0.11801556839E+01  0.00000000000E+00 0. -1.
         11    1    3    3    0    0 -0.68226845474E+01 -0.32805888412E+02 -0.26673292566E+02  0.42828026752E+02  0.51100000000E-03 0. -1.
        -11    1    3    3    0    0 -0.45587461113E+01  0.38030875891E+01  0.88979188689E+01  0.10696663114E+02  0.51100000000E-03 0.  1.
        -12    1    3    3    0    0  0.12405458410E+02  0.28982324155E+02  0.18361646081E+02  0.36483154450E+02  0.00000000000E+00 0.  1.
</event>
<event>
 7    1  0.1935465E-015  0.9000855E+02  0.7816164E-02  0.1186337E+00
        -11   -1    0    0    0    0  0.00000000000E+00  0.00000000000E+00  0.45593999997E+02  0.45594000000E+02  0.51100000000E-03 0.  1.
         11   -1    0    0    0    0 -0.00000000000E+00 -0.00000000000E+00 -0.45593999997E+02  0.45594000000E+02  0.51100000000E-03 0. -1.
    9900012    2    1    2    0    0 -0.14707709142E+00  0.11669451569E+01 -0.87853290351E-01  0.90008546368E+02  0.90000818376E+02 0.  0.
         12    1    1    2    0    0  0.14707709142E+00 -0.11669451569E+01  0.87853290351E-01  0.11794536323E+01  0.00000000000E+00 0. -1.
         11    1    3    3    0    0 -0.19445733683E+01 -0.50404906909E+01 -0.25661617673E+01  0.59810616505E+01  0.51100000000E-03 0. -1.
        -11    1    3    3    0    0 -0.84271979022E+01  0.17919237180E+02  0.39328249999E+02  0.44032124340E+02  0.51100000000E-03 0.  1.
         12    1    3    3    0    0  0.10224694179E+02 -0.11711801332E+02 -0.36849941523E+02  0.39995360377E+02  0.00000000000E+00 0. -1.
</event>
<event>
 7    1  0.1935465E-015  0.9000777E+02  0.7816164E-02  0.1186339E+00
        -11   -1    0    0    0    0  0.00000000000E+00  0.00000000000E+00  0.45593999997E+02  0.45594000000E+02  0.51100000000E-03 0.  1.
         11   -1    0    0    0    0 -0.00000000000E+00 -0.00000000000E+00 -0.45593999997E+02  0.45594000000E+02  0.51100000000E-03 0. -1.
    9900012    2    1    2    0    0  0.69381088080E-01 -0.89320510246E+00  0.76832485432E+00  0.90007766052E+02  0.90000027764E+02 0.  0.
         12    1    1    2    0    0 -0.69381088080E-01  0.89320510246E+00 -0.76832485432E+00  0.11802339481E+01  0.00000000000E+00 0. -1.
         11    1    3    3    0    0  0.18503618565E+02  0.30873343125E+02 -0.13786508791E+02  0.38543677051E+02  0.51100000000E-03 0. -1.
        -11    1    3    3    0    0  0.57042808458E+01 -0.45300210603E+01 -0.62023713913E+01  0.95670957929E+01  0.51100000000E-03 0.  1.
        -12    1    3    3    0    0 -0.24138518323E+02 -0.27236527167E+02  0.20757205037E+02  0.41896993208E+02  0.00000000000E+00 0.  1.
</event>
<event>
 7    1  0.1935465E-015  0.9000774E+02  0.7816164E-02  0.1186339E+00
        -11   -1    0    0    0    0  0.00000000000E+00  0.00000000000E+00  0.45593999997E+02  0.45594000000E+02  0.51100000000E-03 0.  1.
         11   -1    0    0    0    0 -0.00000000000E+00 -0.00000000000E+00 -0.45593999997E+02  0.45594000000E+02  0.51100000000E-03 0. -1.
    9900012    2    1    2    0    0  0.11693909576E+01  0.12417188588E+00  0.10058553771E+00  0.90007740995E+02  0.90000002376E+02 0.  0.
         12    1    1    2    0    0 -0.11693909576E+01 -0.12417188588E+00 -0.10058553771E+00  0.11802590052E+01  0.00000000000E+00 0. -1.
         11    1    3    3    0    0 -0.55893464120E+01  0.36095247601E+01  0.43363833007E+01  0.79418941506E+01  0.51100000000E-03 0. -1.
        -11    1    3    3    0    0 -0.31784481799E+02 -0.20232472097E+02 -0.11553250452E+02  0.39409184293E+02  0.51100000000E-03 0.  1.
         12    1    3    3    0    0  0.38543219168E+02  0.16747119223E+02  0.73174526894E+01  0.42656662551E+02  0.00000000000E+00 0. -1.
</event>
<event>
 7    1  0.1935465E-015  0.9000759E+02  0.7816164E-02  0.1186339E+00
        -11   -1    0    0    0    0  0.00000000000E+00  0.00000000000E+00  0.45593999997E+02  0.45594000000E+02  0.51100000000E-03 0.  1.
         11   -1    0    0    0    0 -0.00000000000E+00 -0.00000000000E+00 -0.45593999997E+02  0.45594000000E+02  0.51100000000E-03 0. -1.
    9900012    2    1    2    0    0 -0.68514758821E-03 -0.78298356737E+00  0.88334838989E+00  0.90007589853E+02  0.89999849239E+02 0.  0.
         12    1    1    2    0    0  0.68514758821E-03  0.78298356737E+00 -0.88334838989E+00  0.11804101466E+01  0.00000000000E+00 0. -1.
         11    1    3    3    0    0  0.10537911015E+02 -0.57827770392E+01 -0.35702867558E+02  0.37672043095E+02  0.51100000000E-03 0. -1.
        -11    1    3    3    0    0  0.11018807612E+01 -0.95996927466E+01 -0.16323441185E+01  0.97996321167E+01  0.51100000000E-03 0.  1.
        -12    1    3    3    0    0 -0.11640476924E+02  0.14599486218E+02  0.38218560066E+02  0.42535914642E+02  0.00000000000E+00 0.  1.
</event>
<event>
 7    1  0.1935465E-015  0.9000773E+02  0.7816164E-02  0.1186339E+00
        -11   -1    0    0    0    0  0.00000000000E+00  0.00000000000E+00  0.45593999997E+02  0.45594000000E+02  0.51100000000E-03 0.  1.
         11   -1    0    0    0    0 -0.00000000000E+00 -0.00000000000E+00 -0.45593999997E+02  0.45594000000E+02  0.51100000000E-03 0. -1.
    9900012    2    1    2    0    0 -0.76480738113E+00  0.14627641914E+00  0.88697044805E+00  0.90007727279E+02  0.89999988479E+02 0.  0.
         12    1    1    2    0    0  0.76480738113E+00 -0.14627641914E+00 -0.88697044805E+00  0.11802727213E+01  0.00000000000E+00 0. -1.
         11    1    3    3    0    0 -0.34122941613E+02 -0.12828132958E+02 -0.10003413509E+02  0.37802174827E+02  0.51100000000E-03 0. -1.
        -11    1    3    3    0    0 -0.56607813363E+01 -0.54566047012E+01  0.92365361399E+00  0.79165722672E+01  0.51100000000E-03 0.  1.
        -12    1    3    3    0    0  0.39018915568E+02  0.18431014078E+02  0.99667303435E+01  0.44288980185E+02  0.00000000000E+00 0.  1.
</event>
<event>
 7    1  0.1935465E-015  0.9000802E+02  0.7816164E-02  0.1186338E+00
        -11   -1    0    0    0    0  0.00000000000E+00  0.00000000000E+00  0.45593999997E+02  0.45594000000E+02  0.51100000000E-03 0.  1.
         11   -1    0    0    0    0 -0.00000000000E+00 -0.00000000000E+00 -0.45593999997E+02  0.45594000000E+02  0.51100000000E-03 0. -1.
    9900012    2    1    2    0    0  0.10017125845E+01  0.15783617332E-01 -0.62343089378E+00  0.90008024024E+02  0.90000289141E+02 0.  0.
         12    1    1    2    0    0 -0.10017125845E+01 -0.15783617332E-01  0.62343089378E+00  0.11799759759E+01  0.00000000000E+00 0. -1.
         11    1    3    3    0    0  0.21518139566E+01 -0.10036321380E+02  0.15727710133E+01  0.10384202380E+02  0.51100000000E-03 0. -1.
        -11    1    3    3    0    0  0.17168826538E+01  0.42008846786E+02 -0.15609204956E+02  0.44847945035E+02  0.51100000000E-03 0.  1.
         12    1    3    3    0    0 -0.28669840259E+01 -0.31956741788E+02  0.13413003048E+02  0.34775876608E+02  0.00000000000E+00 0. -1.
</event>
<event>
 7    1  0.1935465E-015  0.9000763E+02  0.7816164E-02  0.1186339E+00
        -11   -1    0    0    0    0  0.00000000000E+00  0.00000000000E+00  0.45593999997E+02  0.45594000000E+02  0.51100000000E-03 0.  1.
         11   -1    0    0    0    0 -0.00000000000E+00 -0.00000000000E+00 -0.45593999997E+02  0.45594000000E+02  0.51100000000E-03 0. -1.
    9900012    2    1    2    0    0 -0.43589761530E+00 -0.10845642828E+01  0.16427910929E+00  0.90007629702E+02  0.89999889614E+02 0.  0.
         12    1    1    2    0    0  0.43589761530E+00  0.10845642828E+01 -0.16427910929E+00  0.11803702980E+01  0.00000000000E+00 0. -1.
         11    1    3    3    0    0  0.60764421765E+01  0.56433649555E+01 -0.37484150909E+01  0.91006226985E+01  0.51100000000E-03 0. -1.
        -11    1    3    3    0    0  0.32836203030E+02  0.11125743209E+02  0.12496323459E+02  0.36853174783E+02  0.51100000000E-03 0.  1.
         12    1    3    3    0    0 -0.39348542821E+02 -0.17853672447E+02 -0.85836292589E+01  0.44053832220E+02  0.00000000000E+00 0. -1.
</event>
<event>
 7    1  0.1935465E-015  0.9000774E+02  0.7816164E-02  0.1186339E+00
        -11   -1    0    0    0    0  0.00000000000E+00  0.00000000000E+00  0.45593999997E+02  0.45594000000E+02  0.51100000000E-03 0.  1.
         11   -1    0    0    0    0 -0.00000000000E+00 -0.00000000000E+00 -0.45593999997E+02  0.45594000000E+02  0.51100000000E-03 0. -1.
    9900012    2    1    2    0    0 -0.10725770936E+01  0.28330525866E+00  0.40291319689E+00  0.90007736243E+02  0.89999997562E+02 0.  0.
         12    1    1    2    0    0  0.10725770936E+01 -0.28330525866E+00 -0.40291319689E+00  0.11802637568E+01  0.00000000000E+00 0. -1.
         11    1    3    3    0    0  0.26529225204E+02  0.17062357369E+02 -0.13091383987E+02  0.34151254207E+02  0.51100000000E-03 0. -1.
        -11    1    3    3    0    0 -0.96786031093E+01  0.52441680371E+01  0.23337981758E+02  0.25803837880E+02  0.51100000000E-03 0.  1.
        -12    1    3    3    0    0 -0.17923199189E+02 -0.22023220147E+02 -0.98436845741E+01  0.30052644157E+02  0.00000000000E+00 0.  1.
</event>
<event>
 7    1  0.1935465E-015  0.9000771E+02  0.7816164E-02  0.1186339E+00
        -11   -1    0    0    0    0  0.00000000000E+00  0.00000000000E+00  0.45593999997E+02  0.45594000000E+02  0.51100000000E-03 0. -1.
         11   -1    0    0    0    0 -0.00000000000E+00 -0.00000000000E+00 -0.45593999997E+02  0.45594000000E+02  0.51100000000E-03 0.  1.
    9900012    2    1    2    0    0  0.31643191556E+00 -0.74666451011E+00 -0.85757916386E+00  0.90007712293E+02  0.89999973296E+02 0.  0.
         12    1    1    2    0    0 -0.31643191556E+00  0.74666451011E+00  0.85757916386E+00  0.11802877065E+01  0.00000000000E+00 0. -1.
         11    1    3    3    0    0  0.26520716332E+02 -0.12231946754E+02  0.23617234921E+02  0.37559854921E+02  0.51100000000E-03 0. -1.
        -11    1    3    3    0    0 -0.85292084393E+01 -0.95187298006E+01  0.35023915932E+01  0.13252183245E+02  0.51100000000E-03 0.  1.
        -12    1    3    3    0    0 -0.17675075977E+02  0.21004012044E+02 -0.27977205678E+02  0.39195674127E+02  0.00000000000E+00 0.  1.
</event>
<event>
 7    1  0.1935465E-015  0.9000773E+02  0.7816164E-02  0.1186339E+00
        -11   -1    0    0    0    0  0.00000000000E+00  0.00000000000E+00  0.45593999997E+02  0.45594000000E+02  0.51100000000E-03 0.  1.
         11   -1    0    0    0    0 -0.00000000000E+00 -0.00000000000E+00 -0.45593999997E+02  0.45594000000E+02  0.51100000000E-03 0. -1.
    9900012    2    1    2    0    0 -0.10395928610E+01 -0.15675478263E+00  0.53639787796E+00  0.90007725429E+02  0.89999986605E+02 0.  0.
         12    1    1    2    0    0  0.10395928610E+01  0.15675478263E+00 -0.53639787796E+00  0.11802745706E+01  0.00000000000E+00 0. -1.
         11    1    3    3    0    0 -0.14717645411E+02  0.54184128387E+01 -0.19225463667E+02  0.24811020487E+02  0.51100000000E-03 0. -1.
        -11    1    3    3    0    0 -0.18995768439E+02  0.11475000660E+02 -0.21883934165E+01  0.22300312212E+02  0.51100000000E-03 0.  1.
        -12    1    3    3    0    0  0.32673820989E+02 -0.17050168282E+02  0.21950254961E+02  0.42896392731E+02  0.00000000000E+00 0.  1.
</event>
<event>
 7    1  0.1935465E-015  0.9000773E+02  0.7816164E-02  0.1186339E+00
        -11   -1    0    0    0    0  0.00000000000E+00  0.00000000000E+00  0.45593999997E+02  0.45594000000E+02  0.51100000000E-03 0. -1.
         11   -1    0    0    0    0 -0.00000000000E+00 -0.00000000000E+00 -0.45593999997E+02  0.45594000000E+02  0.51100000000E-03 0.  1.
    9900012    2    1    2    0    0  0.86431712204E+00  0.72599663116E+00  0.34486202894E+00  0.90007726720E+02  0.89999987913E+02 0.  0.
         12    1    1    2    0    0 -0.86431712204E+00 -0.72599663116E+00 -0.34486202894E+00  0.11802732798E+01  0.00000000000E+00 0. -1.
         11    1    3    3    0    0 -0.25488398195E+01 -0.89070440367E+01 -0.28014404141E+01  0.96788473773E+01  0.51100000000E-03 0. -1.
        -11    1    3    3    0    0 -0.34412806040E+02  0.11107756828E+02 -0.13994077762E+02  0.38774446405E+02  0.51100000000E-03 0.  1.
         12    1    3    3    0    0  0.37825962982E+02 -0.14747161602E+01  0.17140380205E+02  0.41554432938E+02  0.00000000000E+00 0. -1.
</event>
<event>
 7    1  0.1935465E-015  0.9000772E+02  0.7816164E-02  0.1186339E+00
        -11   -1    0    0    0    0  0.00000000000E+00  0.00000000000E+00  0.45593999997E+02  0.45594000000E+02  0.51100000000E-03 0. -1.
         11   -1    0    0    0    0 -0.00000000000E+00 -0.00000000000E+00 -0.45593999997E+02  0.45594000000E+02  0.51100000000E-03 0.  1.
    9900012    2    1    2    0    0 -0.88669716191E+00  0.48700598814E+00 -0.60799683283E+00  0.90007717475E+02  0.89999978546E+02 0.  0.
         12    1    1    2    0    0  0.88669716191E+00 -0.48700598814E+00  0.60799683283E+00  0.11802825247E+01  0.00000000000E+00 0. -1.
         11    1    3    3    0    0 -0.15673406793E+02 -0.23112793895E+02  0.15011307646E+02  0.31704830541E+02  0.51100000000E-03 0. -1.
        -11    1    3    3    0    0 -0.98744894109E+01 -0.71266724049E+01  0.57663702104E+01  0.13473901675E+02  0.51100000000E-03 0.  1.
        -12    1    3    3    0    0  0.24661199042E+02  0.30726472288E+02 -0.21385674689E+02  0.44828985259E+02  0.00000000000E+00 0.  1.
</event>
<event>
 7    1  0.1935465E-015  0.9000779E+02  0.7816164E-02  0.1186339E+00
        -11   -1    0    0    0    0  0.00000000000E+00  0.00000000000E+00  0.45593999997E+02  0.45594000000E+02  0.51100000000E-03 0.  1.
         11   -1    0    0    0    0 -0.00000000000E+00 -0.00000000000E+00 -0.45593999997E+02  0.45594000000E+02  0.51100000000E-03 0. -1.
    9900012    2    1    2    0    0 -0.20703151728E+00  0.25019603947E-01  0.11616438281E+01  0.90007786285E+02  0.90000048264E+02 0.  0.
         12    1    1    2    0    0  0.20703151728E+00 -0.25019603947E-01 -0.11616438281E+01  0.11802137150E+01  0.00000000000E+00 0. -1.
         11    1    3    3    0    0  0.17104506734E+02  0.38401824337E+02  0.88461660599E+01  0.42959503224E+02  0.51100000000E-03 0. -1.
        -11    1    3    3    0    0  0.42138610948E+01 -0.74103617377E+01 -0.30397505092E+01  0.90504237375E+01  0.51100000000E-03 0.  1.
        -12    1    3    3    0    0 -0.21525399347E+02 -0.30966442995E+02 -0.46447717226E+01  0.37997859323E+02  0.00000000000E+00 0.  1.
</event>
<event>
 7    1  0.1935465E-015  0.9000773E+02  0.7816164E-02  0.1186339E+00
        -11   -1    0    0    0    0  0.00000000000E+00  0.00000000000E+00  0.45593999997E+02  0.45594000000E+02  0.51100000000E-03 0. -1.
         11   -1    0    0    0    0 -0.00000000000E+00 -0.00000000000E+00 -0.45593999997E+02  0.45594000000E+02  0.51100000000E-03 0.  1.
    9900012    2    1    2    0    0 -0.29218412571E+00  0.96291153065E+00 -0.61681824725E+00  0.90007730993E+02  0.89999992242E+02 0.  0.
         12    1    1    2    0    0  0.29218412571E+00 -0.96291153065E+00  0.61681824725E+00  0.11802690072E+01  0.00000000000E+00 0. -1.
         11    1    3    3    0    0  0.81079757630E+01  0.76893315191E+01  0.26806646733E+01  0.11491346898E+02  0.51100000000E-03 0. -1.
        -11    1    3    3    0    0  0.41725052285E+01  0.27137861911E+02 -0.24356631632E+02  0.36703117765E+02  0.51100000000E-03 0.  1.
         12    1    3    3    0    0 -0.12572665117E+02 -0.33864281899E+02  0.21059148711E+02  0.41813266330E+02  0.00000000000E+00 0. -1.
</event>
<event>
 7    1  0.1935465E-015  0.9000781E+02  0.7816164E-02  0.1186339E+00
        -11   -1    0    0    0    0  0.00000000000E+00  0.00000000000E+00  0.45593999997E+02  0.45594000000E+02  0.51100000000E-03 0. -1.
         11   -1    0    0    0    0 -0.00000000000E+00 -0.00000000000E+00 -0.45593999997E+02  0.45594000000E+02  0.51100000000E-03 0.  1.
    9900012    2    1    2    0    0  0.56429120598E-01  0.57104181512E-01 -0.11774556994E+01  0.90007810584E+02  0.90000072884E+02 0.  0.
         12    1    1    2    0    0 -0.56429120598E-01 -0.57104181512E-01  0.11774556994E+01  0.11801894158E+01  0.00000000000E+00 0. -1.
         11    1    3    3    0    0  0.16034011582E+02 -0.92292703579E+01  0.16281488448E+01  0.18572017329E+02  0.51100000000E-03 0. -1.
        -11    1    3    3    0    0 -0.78138469017E+01  0.12906745959E+01 -0.35723531742E+02  0.36590883628E+02  0.51100000000E-03 0.  1.
         12    1    3    3    0    0 -0.81637355599E+01  0.79956999434E+01  0.32917927198E+02  0.34844909627E+02  0.00000000000E+00 0. -1.
</event>
<event>
 7    1  0.1935465E-015  0.9000771E+02  0.7816164E-02  0.1186339E+00
        -11   -1    0    0    0    0  0.00000000000E+00  0.00000000000E+00  0.45593999997E+02  0.45594000000E+02  0.51100000000E-03 0.  1.
         11   -1    0    0    0    0 -0.00000000000E+00 -0.00000000000E+00 -0.45593999997E+02  0.45594000000E+02  0.51100000000E-03 0. -1.
    9900012    2    1    2    0    0 -0.33182090995E+00  0.11324782978E+01 -0.21831730341E-01  0.90007708157E+02  0.89999969104E+02 0.  0.
         12    1    1    2    0    0  0.33182090995E+00 -0.11324782978E+01  0.21831730341E-01  0.11802918434E+01  0.00000000000E+00 0. -1.
         11    1    3    3    0    0 -0.34202738451E+01  0.41031640986E+01  0.67105685849E+01  0.85770600901E+01  0.51100000000E-03 0. -1.
        -11    1    3    3    0    0 -0.36829743358E+02 -0.33975470503E+00  0.98492716852E+01  0.38125497795E+02  0.51100000000E-03 0.  1.
         12    1    3    3    0    0  0.39918196293E+02 -0.26309310958E+01 -0.16581672000E+02  0.43305150272E+02  0.00000000000E+00 0. -1.
</event>
<event>
 7    1  0.1935465E-015  0.9000779E+02  0.7816164E-02  0.1186339E+00
        -11   -1    0    0    0    0  0.00000000000E+00  0.00000000000E+00  0.45593999997E+02  0.45594000000E+02  0.51100000000E-03 0. -1.
         11   -1    0    0    0    0 -0.00000000000E+00 -0.00000000000E+00 -0.45593999997E+02  0.45594000000E+02  0.51100000000E-03 0.  1.
    9900012    2    1    2    0    0 -0.10467972184E+01  0.38571283566E-01 -0.54371315823E+00  0.90007789782E+02  0.90000051807E+02 0.  0.
         12    1    1    2    0    0  0.10467972184E+01 -0.38571283566E-01  0.54371315823E+00  0.11802102180E+01  0.00000000000E+00 0. -1.
         11    1    3    3    0    0 -0.38003604434E+02 -0.10563302524E+02  0.64547471144E+01  0.39969001373E+02  0.51100000000E-03 0. -1.
        -11    1    3    3    0    0 -0.23187748601E+01  0.10001031497E+02 -0.15382956982E+01  0.10380929716E+02  0.51100000000E-03 0.  1.
        -12    1    3    3    0    0  0.39275582076E+02  0.60084230982E+00 -0.54601645744E+01  0.39657858692E+02  0.00000000000E+00 0.  1.
</event>
<event>
 7    1  0.1935465E-015  0.9000775E+02  0.7816164E-02  0.1186339E+00
        -11   -1    0    0    0    0  0.00000000000E+00  0.00000000000E+00  0.45593999997E+02  0.45594000000E+02  0.51100000000E-03 0. -1.
         11   -1    0    0    0    0 -0.00000000000E+00 -0.00000000000E+00 -0.45593999997E+02  0.45594000000E+02  0.51100000000E-03 0.  1.
    9900012    2    1    2    0    0 -0.65995666580E+00  0.69635509906E+00  0.68741314858E+00  0.90007750000E+02  0.90000011500E+02 0.  0.
         12    1    1    2    0    0  0.65995666580E+00 -0.69635509906E+00 -0.68741314858E+00  0.11802499996E+01  0.00000000000E+00 0. -1.
         11    1    3    3    0    0 -0.40252278256E+01  0.73375819339E+01  0.54992931391E+01  0.10014229525E+02  0.51100000000E-03 0. -1.
        -11    1    3    3    0    0  0.40483465897E+02  0.52742949280E+01 -0.12082009275E+01  0.40843468851E+02  0.51100000000E-03 0.  1.
         12    1    3    3    0    0 -0.37118194737E+02 -0.11915521763E+02 -0.36036790630E+01  0.39150051625E+02  0.00000000000E+00 0. -1.
</event>
<event>
 7    1  0.1935465E-015  0.9000772E+02  0.7816164E-02  0.1186339E+00
        -11   -1    0    0    0    0  0.00000000000E+00  0.00000000000E+00  0.45593999997E+02  0.45594000000E+02  0.51100000000E-03 0.  1.
         11   -1    0    0    0    0 -0.00000000000E+00 -0.00000000000E+00 -0.45593999997E+02  0.45594000000E+02  0.51100000000E-03 0. -1.
    9900012    2    1    2    0    0 -0.64774267615E+00 -0.71690490158E+00  0.67788365064E+00  0.90007724839E+02  0.89999986007E+02 0.  0.
         12    1    1    2    0    0  0.64774267615E+00  0.71690490158E+00 -0.67788365064E+00  0.11802751612E+01  0.00000000000E+00 0. -1.
         11    1    3    3    0    0 -0.10819528012E+02  0.21232682799E+01  0.44088763409E+01  0.11874706120E+02  0.51100000000E-03 0. -1.
        -11    1    3    3    0    0 -0.61413686171E+01  0.35273171363E+02  0.37713839454E+01  0.36001893889E+02  0.51100000000E-03 0.  1.
         12    1    3    3    0    0  0.16313153953E+02 -0.38113344544E+02 -0.75023766357E+01  0.42131124830E+02  0.00000000000E+00 0. -1.
</event>
<event>
 7    1  0.1935465E-015  0.9000779E+02  0.7816164E-02  0.1186339E+00
        -11   -1    0    0    0    0  0.00000000000E+00  0.00000000000E+00  0.45593999997E+02  0.45594000000E+02  0.51100000000E-03 0.  1.
         11   -1    0    0    0    0 -0.00000000000E+00 -0.00000000000E+00 -0.45593999997E+02  0.45594000000E+02  0.51100000000E-03 0. -1.
    9900012    2    1    2    0    0 -0.67432141327E+00 -0.36210528335E+00 -0.89837440735E+00  0.90007785536E+02  0.90000047505E+02 0.  0.
         12    1    1    2    0    0  0.67432141327E+00  0.36210528335E+00  0.89837440735E+00  0.11802144637E+01  0.00000000000E+00 0. -1.
         11    1    3    3    0    0  0.34045199521E+02 -0.23954095789E+02  0.17709977521E+01  0.41665462301E+02  0.51100000000E-03 0. -1.
        -11    1    3    3    0    0  0.13974666955E+01  0.93233209463E+01 -0.17907762787E+00  0.94291725878E+01  0.51100000000E-03 0.  1.
        -12    1    3    3    0    0 -0.36116987630E+02  0.14268669559E+02 -0.24902945316E+01  0.38913150647E+02  0.00000000000E+00 0.  1.
</event>
<event>
 7    1  0.1935465E-015  0.9000777E+02  0.7816164E-02  0.1186339E+00
        -11   -1    0    0    0    0  0.00000000000E+00  0.00000000000E+00  0.45593999997E+02  0.45594000000E+02  0.51100000000E-03 0.  1.
         11   -1    0    0    0    0 -0.00000000000E+00 -0.00000000000E+00 -0.45593999997E+02  0.45594000000E+02  0.51100000000E-03 0. -1.
    9900012    2    1    2    0    0 -0.60692639708E+00 -0.10102658502E+01  0.62812098307E-01  0.90007770319E+02  0.90000032087E+02 0.  0.
         12    1    1    2    0    0  0.60692639708E+00  0.10102658502E+01 -0.62812098307E-01  0.11802296808E+01  0.00000000000E+00 0. -1.
         11    1    3    3    0    0  0.68199350743E+00 -0.87904961670E+01  0.13739777743E+01  0.89233263524E+01  0.51100000000E-03 0. -1.
        -11    1    3    3    0    0  0.45125564203E+01 -0.36295253982E+02  0.72951749460E+00  0.36581974018E+02  0.51100000000E-03 0.  1.
         12    1    3    3    0    0 -0.58014763248E+01  0.44075484299E+02 -0.20406831706E+01  0.44502469948E+02  0.00000000000E+00 0. -1.
</event>
<event>
 7    1  0.1935465E-015  0.9000773E+02  0.7816164E-02  0.1186339E+00
        -11   -1    0    0    0    0  0.00000000000E+00  0.00000000000E+00  0.45593999997E+02  0.45594000000E+02  0.51100000000E-03 0. -1.
         11   -1    0    0    0    0 -0.00000000000E+00 -0.00000000000E+00 -0.45593999997E+02  0.45594000000E+02  0.51100000000E-03 0.  1.
    9900012    2    1    2    0    0 -0.11761532208E+01  0.93752509055E-01  0.30299878266E-01  0.90007727144E+02  0.89999988342E+02 0.  0.
         12    1    1    2    0    0  0.11761532208E+01 -0.93752509055E-01 -0.30299878266E-01  0.11802728559E+01  0.00000000000E+00 0. -1.
         11    1    3    3    0    0  0.74705671720E+01 -0.12065522207E+01  0.56254914108E+01  0.94292786579E+01  0.51100000000E-03 0. -1.
        -11    1    3    3    0    0  0.19163611266E+02  0.20010024552E+02 -0.28682089040E+02  0.39878657340E+02  0.51100000000E-03 0.  1.
         12    1    3    3    0    0 -0.27810331659E+02 -0.18709719822E+02  0.23086897507E+02  0.40699791146E+02  0.00000000000E+00 0. -1.
</event>
<event>
 7    1  0.1935465E-015  0.9000777E+02  0.7816164E-02  0.1186339E+00
        -11   -1    0    0    0    0  0.00000000000E+00  0.00000000000E+00  0.45593999997E+02  0.45594000000E+02  0.51100000000E-03 0. -1.
         11   -1    0    0    0    0 -0.00000000000E+00 -0.00000000000E+00 -0.45593999997E+02  0.45594000000E+02  0.51100000000E-03 0.  1.
    9900012    2    1    2    0    0  0.83796170240E+00  0.26507887644E+00 -0.78772116158E+00  0.90007766441E+02  0.90000028158E+02 0.  0.
         12    1    1    2    0    0 -0.83796170240E+00 -0.26507887644E+00  0.78772116158E+00  0.11802335590E+01  0.00000000000E+00 0. -1.
         11    1    3    3    0    0  0.43239809245E+01 -0.10500486978E+02 -0.37335781605E+02  0.39024577206E+02  0.51100000000E-03 0. -1.
        -11    1    3    3    0    0  0.87482879828E+01 -0.86074745195E+01  0.94038996465E+01  0.15461387035E+02  0.51100000000E-03 0.  1.
        -12    1    3    3    0    0 -0.12234307205E+02  0.19373040374E+02  0.27144160797E+02  0.35521802199E+02  0.00000000000E+00 0.  1.
</event>
<event>
 7    1  0.1935465E-015  0.9000776E+02  0.7816164E-02  0.1186339E+00
        -11   -1    0    0    0    0  0.00000000000E+00  0.00000000000E+00  0.45593999997E+02  0.45594000000E+02  0.51100000000E-03 0. -1.
         11   -1    0    0    0    0 -0.00000000000E+00 -0.00000000000E+00 -0.45593999997E+02  0.45594000000E+02  0.51100000000E-03 0.  1.
    9900012    2    1    2    0    0 -0.82874311671E+00 -0.30976594512E+00  0.78115310245E+00  0.90007758388E+02  0.90000019998E+02 0.  0.
         12    1    1    2    0    0  0.82874311671E+00  0.30976594512E+00 -0.78115310245E+00  0.11802416124E+01  0.00000000000E+00 0. -1.
         11    1    3    3    0    0  0.29833580915E+02 -0.17867481063E+02 -0.11671985864E+02  0.36681394249E+02  0.51100000000E-03 0. -1.
        -11    1    3    3    0    0  0.10416836947E+01  0.27802403390E+01 -0.10880991867E+02  0.11278777662E+02  0.51100000000E-03 0.  1.
        -12    1    3    3    0    0 -0.31704007726E+02  0.14777474779E+02  0.23334130834E+02  0.42047586477E+02  0.00000000000E+00 0.  1.
</event>
<event>
 7    1  0.1935465E-015  0.9000766E+02  0.7816164E-02  0.1186339E+00
        -11   -1    0    0    0    0  0.00000000000E+00  0.00000000000E+00  0.45593999997E+02  0.45594000000E+02  0.51100000000E-03 0.  1.
         11   -1    0    0    0    0 -0.00000000000E+00 -0.00000000000E+00 -0.45593999997E+02  0.45594000000E+02  0.51100000000E-03 0. -1.
    9900012    2    1    2    0    0  0.59813063672E+00 -0.92613049901E+00  0.42156812153E+00  0.90007662065E+02  0.89999922404E+02 0.  0.
         12    1    1    2    0    0 -0.59813063672E+00  0.92613049901E+00 -0.42156812153E+00  0.11803379350E+01  0.00000000000E+00 0. -1.
         11    1    3    3    0    0 -0.20969215129E+01 -0.41700284521E+01 -0.36428751589E+02  0.36726559323E+02  0.51100000000E-03 0. -1.
        -11    1    3    3    0    0 -0.86657912757E+00  0.72963700474E+01 -0.63705466602E+01  0.97248054101E+01  0.51100000000E-03 0.  1.
        -12    1    3    3    0    0  0.35616312772E+01 -0.40524720943E+01  0.43220866371E+02  0.43556297332E+02  0.00000000000E+00 0.  1.
</event>
<event>
 7    1  0.1935465E-015  0.9000755E+02  0.7816164E-02  0.1186339E+00
        -11   -1    0    0    0    0  0.00000000000E+00  0.00000000000E+00  0.45593999997E+02  0.45594000000E+02  0.51100000000E-03 0.  1.
         11   -1    0    0    0    0 -0.00000000000E+00 -0.00000000000E+00 -0.45593999997E+02  0.45594000000E+02  0.51100000000E-03 0. -1.
    9900012    2    1    2    0    0 -0.56061375244E+00  0.76828852650E+00 -0.69921759162E+00  0.90007550814E+02  0.89999809685E+02 0.  0.
         12    1    1    2    0    0  0.56061375244E+00 -0.76828852650E+00  0.69921759162E+00  0.11804491856E+01  0.00000000000E+00 0. -1.
         11    1    3    3    0    0 -0.23208072230E+01  0.10075458765E+02  0.31226218196E+00  0.10344009060E+02  0.51100000000E-03 0. -1.
        -11    1    3    3    0    0 -0.28145789341E+01  0.31402216962E+02 -0.16843208071E+02  0.35745135936E+02  0.51100000000E-03 0.  1.
         12    1    3    3    0    0  0.45747724046E+01 -0.40709387201E+02  0.15831728297E+02  0.43918405819E+02  0.00000000000E+00 0. -1.
</event>
<event>
 7    1  0.1935465E-015  0.9000739E+02  0.7816164E-02  0.1186340E+00
        -11   -1    0    0    0    0  0.00000000000E+00  0.00000000000E+00  0.45593999997E+02  0.45594000000E+02  0.51100000000E-03 0.  1.
         11   -1    0    0    0    0 -0.00000000000E+00 -0.00000000000E+00 -0.45593999997E+02  0.45594000000E+02  0.51100000000E-03 0. -1.
    9900012    2    1    2    0    0 -0.11125267717E+01 -0.56772827924E-01  0.39103328031E+00  0.90007387448E+02  0.89999644162E+02 0.  0.
         12    1    1    2    0    0  0.11125267717E+01  0.56772827924E-01 -0.39103328031E+00  0.11806125520E+01  0.00000000000E+00 0. -1.
         11    1    3    3    0    0 -0.71622759349E+01 -0.26294781132E+01 -0.35928481421E+01  0.84333213948E+01  0.51100000000E-03 0. -1.
        -11    1    3    3    0    0 -0.20827005378E+02  0.16149358875E+02  0.31300740568E+02  0.40918239276E+02  0.51100000000E-03 0.  1.
         12    1    3    3    0    0  0.26876754541E+02 -0.13576653590E+02 -0.27316859145E+02  0.40655826777E+02  0.00000000000E+00 0. -1.
</event>
<event>
 7    1  0.1935465E-015  0.9000773E+02  0.7816164E-02  0.1186339E+00
        -11   -1    0    0    0    0  0.00000000000E+00  0.00000000000E+00  0.45593999997E+02  0.45594000000E+02  0.51100000000E-03 0.  1.
         11   -1    0    0    0    0 -0.00000000000E+00 -0.00000000000E+00 -0.45593999997E+02  0.45594000000E+02  0.51100000000E-03 0. -1.
    9900012    2    1    2    0    0  0.39127576545E+00  0.11135191044E+01 -0.39254202811E-02  0.90007730145E+02  0.89999991383E+02 0.  0.
         12    1    1    2    0    0 -0.39127576545E+00 -0.11135191044E+01  0.39254202811E-02  0.11802698545E+01  0.00000000000E+00 0. -1.
         11    1    3    3    0    0  0.13396420428E+02 -0.33852686572E+02  0.57283364554E+01  0.36854881728E+02  0.51100000000E-03 0. -1.
        -11    1    3    3    0    0 -0.40070093408E+01 -0.69361446070E+01  0.43641362482E+01  0.91220563099E+01  0.51100000000E-03 0.  1.
        -12    1    3    3    0    0 -0.89981353216E+01  0.41902350283E+02 -0.10096398124E+02  0.44030792107E+02  0.00000000000E+00 0.  1.
</event>
<event>
 7    1  0.1935465E-015  0.9000772E+02  0.7816164E-02  0.1186339E+00
        -11   -1    0    0    0    0  0.00000000000E+00  0.00000000000E+00  0.45593999997E+02  0.45594000000E+02  0.51100000000E-03 0.  1.
         11   -1    0    0    0    0 -0.00000000000E+00 -0.00000000000E+00 -0.45593999997E+02  0.45594000000E+02  0.51100000000E-03 0. -1.
    9900012    2    1    2    0    0  0.58789539305E+00  0.94105574846E+00  0.40231858418E+00  0.90007717340E+02  0.89999978409E+02 0.  0.
         12    1    1    2    0    0 -0.58789539305E+00 -0.94105574846E+00 -0.40231858418E+00  0.11802826602E+01  0.00000000000E+00 0. -1.
         11    1    3    3    0    0 -0.39681328637E+02  0.27093945624E+01  0.13654981461E+02  0.42052433702E+02  0.51100000000E-03 0. -1.
        -11    1    3    3    0    0  0.99342763032E+00  0.54645996094E+01 -0.43094134590E+01  0.70299211923E+01  0.51100000000E-03 0.  1.
        -12    1    3    3    0    0  0.39275796400E+02 -0.72329384234E+01 -0.89432494181E+01  0.40925362445E+02  0.00000000000E+00 0.  1.
</event>
<event>
 7    1  0.1935465E-015  0.9000775E+02  0.7816164E-02  0.1186339E+00
        -11   -1    0    0    0    0  0.00000000000E+00  0.00000000000E+00  0.45593999997E+02  0.45594000000E+02  0.51100000000E-03 0.  1.
         11   -1    0    0    0    0 -0.00000000000E+00 -0.00000000000E+00 -0.45593999997E+02  0.45594000000E+02  0.51100000000E-03 0. -1.
    9900012    2    1    2    0    0 -0.76815864418E+00  0.79761054044E+00  0.40832998116E+00  0.90007752716E+02  0.90000014252E+02 0.  0.
         12    1    1    2    0    0  0.76815864418E+00 -0.79761054044E+00 -0.40832998116E+00  0.11802472836E+01  0.00000000000E+00 0. -1.
         11    1    3    3    0    0 -0.10052846307E+01 -0.86772964653E+01  0.31982088740E+01  0.93023981531E+01  0.51100000000E-03 0. -1.
        -11    1    3    3    0    0  0.21439021113E+02  0.23168780803E+02  0.27086665459E+02  0.41594608739E+02  0.51100000000E-03 0.  1.
         12    1    3    3    0    0 -0.21201895127E+02 -0.13693873797E+02 -0.29876544352E+02  0.39110745825E+02  0.00000000000E+00 0. -1.
</event>
<event>
 7    1  0.1935465E-015  0.9000794E+02  0.7816164E-02  0.1186339E+00
        -11   -1    0    0    0    0  0.00000000000E+00  0.00000000000E+00  0.45593999997E+02  0.45594000000E+02  0.51100000000E-03 0.  1.
         11   -1    0    0    0    0 -0.00000000000E+00 -0.00000000000E+00 -0.45593999997E+02  0.45594000000E+02  0.51100000000E-03 0. -1.
    9900012    2    1    2    0    0  0.45846603227E+00  0.64748448169E+00  0.87356880648E+00  0.90007936563E+02  0.90000200525E+02 0.  0.
         12    1    1    2    0    0 -0.45846603227E+00 -0.64748448169E+00 -0.87356880648E+00  0.11800634375E+01  0.00000000000E+00 0. -1.
         11    1    3    3    0    0 -0.67857457767E+01  0.34158817247E+01 -0.99293832259E+00  0.76616264903E+01  0.51100000000E-03 0. -1.
        -11    1    3    3    0    0 -0.24310465034E+02  0.67052287955E+01  0.29880663493E+02  0.39100036501E+02  0.51100000000E-03 0.  1.
         12    1    3    3    0    0  0.31554676843E+02 -0.94736260386E+01 -0.28014156364E+02  0.43246273571E+02  0.00000000000E+00 0. -1.
</event>
<event>
 7    1  0.1935465E-015  0.9000770E+02  0.7816164E-02  0.1186339E+00
        -11   -1    0    0    0    0  0.00000000000E+00  0.00000000000E+00  0.45593999997E+02  0.45594000000E+02  0.51100000000E-03 0. -1.
         11   -1    0    0    0    0 -0.00000000000E+00 -0.00000000000E+00 -0.45593999997E+02  0.45594000000E+02  0.51100000000E-03 0.  1.
    9900012    2    1    2    0    0  0.29696560163E+00 -0.90304122908E+00 -0.69960169855E+00  0.90007697256E+02  0.89999958060E+02 0.  0.
         12    1    1    2    0    0 -0.29696560163E+00  0.90304122908E+00  0.69960169855E+00  0.11803027436E+01  0.00000000000E+00 0. -1.
         11    1    3    3    0    0 -0.14660641897E+02 -0.27585205524E+02  0.30031978601E+02  0.43333563477E+02  0.51100000000E-03 0. -1.
        -11    1    3    3    0    0 -0.30411096671E+01  0.78654306117E+01 -0.39207707963E+01  0.92997736861E+01  0.51100000000E-03 0.  1.
        -12    1    3    3    0    0  0.17998717166E+02  0.18816733684E+02 -0.26810809503E+02  0.37374360093E+02  0.00000000000E+00 0.  1.
</event>
<event>
 7    1  0.1935465E-015  0.9000772E+02  0.7816164E-02  0.1186339E+00
        -11   -1    0    0    0    0  0.00000000000E+00  0.00000000000E+00  0.45593999997E+02  0.45594000000E+02  0.51100000000E-03 0. -1.
         11   -1    0    0    0    0 -0.00000000000E+00 -0.00000000000E+00 -0.45593999997E+02  0.45594000000E+02  0.51100000000E-03 0.  1.
    9900012    2    1    2    0    0  0.88005868559E+00 -0.31015168928E+00 -0.72274308167E+00  0.90007722523E+02  0.89999983660E+02 0.  0.
         12    1    1    2    0    0 -0.88005868559E+00  0.31015168928E+00  0.72274308167E+00  0.11802774769E+01  0.00000000000E+00 0. -1.
         11    1    3    3    0    0 -0.12572142692E+01  0.52000894421E+01  0.82780534082E+01  0.98563525919E+01  0.51100000000E-03 0. -1.
        -11    1    3    3    0    0 -0.37200158695E+02 -0.39048445531E+01 -0.15050798583E+02  0.40319054504E+02  0.51100000000E-03 0.  1.
         12    1    3    3    0    0  0.39337431649E+02 -0.16053965783E+01  0.60500020926E+01  0.39832315427E+02  0.00000000000E+00 0. -1.
</event>
<event>
 7    1  0.1935465E-015  0.9000774E+02  0.7816164E-02  0.1186339E+00
        -11   -1    0    0    0    0  0.00000000000E+00  0.00000000000E+00  0.45593999997E+02  0.45594000000E+02  0.51100000000E-03 0. -1.
         11   -1    0    0    0    0 -0.00000000000E+00 -0.00000000000E+00 -0.45593999997E+02  0.45594000000E+02  0.51100000000E-03 0.  1.
    9900012    2    1    2    0    0 -0.39180445375E+00 -0.81881518918E+00  0.75434478631E+00  0.90007743629E+02  0.90000005045E+02 0.  0.
         12    1    1    2    0    0  0.39180445375E+00  0.81881518918E+00 -0.75434478631E+00  0.11802563707E+01  0.00000000000E+00 0. -1.
         11    1    3    3    0    0  0.70020569419E+01  0.12938397577E+01 -0.58907324911E+01  0.92414042374E+01  0.51100000000E-03 0. -1.
        -11    1    3    3    0    0 -0.90551650678E+01  0.38034243273E+02 -0.37079416556E+01  0.39272745096E+02  0.51100000000E-03 0.  1.
         12    1    3    3    0    0  0.16613036722E+01 -0.40146898220E+02  0.10353018933E+02  0.41493594296E+02  0.00000000000E+00 0. -1.
</event>
<event>
 7    1  0.1935465E-015  0.9000778E+02  0.7816164E-02  0.1186339E+00
        -11   -1    0    0    0    0  0.00000000000E+00  0.00000000000E+00  0.45593999997E+02  0.45594000000E+02  0.51100000000E-03 0. -1.
         11   -1    0    0    0    0 -0.00000000000E+00 -0.00000000000E+00 -0.45593999997E+02  0.45594000000E+02  0.51100000000E-03 0.  1.
    9900012    2    1    2    0    0 -0.79125036754E+00  0.34909037521E+00 -0.80310376278E+00  0.90007781000E+02  0.90000042909E+02 0.  0.
         12    1    1    2    0    0  0.79125036754E+00 -0.34909037521E+00  0.80310376278E+00  0.11802190000E+01  0.00000000000E+00 0. -1.
         11    1    3    3    0    0  0.16031656571E+02 -0.66823192114E+01 -0.10111319028E+02  0.20097417127E+02  0.51100000000E-03 0. -1.
        -11    1    3    3    0    0  0.74239668045E+01  0.51214090394E+01 -0.25725992183E+02  0.27261158958E+02  0.51100000000E-03 0.  1.
         12    1    3    3    0    0 -0.24246873743E+02  0.19100005472E+01  0.35034207447E+02  0.42649204915E+02  0.00000000000E+00 0. -1.
</event>
<event>
 7    1  0.1935465E-015  0.9000774E+02  0.7816164E-02  0.1186339E+00
        -11   -1    0    0    0    0  0.00000000000E+00  0.00000000000E+00  0.45593999997E+02  0.45594000000E+02  0.51100000000E-03 0.  1.
         11   -1    0    0    0    0 -0.00000000000E+00 -0.00000000000E+00 -0.45593999997E+02  0.45594000000E+02  0.51100000000E-03 0. -1.
    9900012    2    1    2    0    0 -0.49842185408E+00  0.48142142273E+00  0.95542162904E+00  0.90007736716E+02  0.89999998040E+02 0.  0.
         12    1    1    2    0    0  0.49842185408E+00 -0.48142142273E+00 -0.95542162904E+00  0.11802632842E+01  0.00000000000E+00 0. -1.
         11    1    3    3    0    0  0.31858907782E+02  0.13384221441E+02 -0.21983293843E+02  0.40955983654E+02  0.51100000000E-03 0. -1.
        -11    1    3    3    0    0  0.25523628645E+01 -0.22270342107E+01  0.96091386218E+01  0.10188708597E+02  0.51100000000E-03 0.  1.
        -12    1    3    3    0    0 -0.34909692500E+02 -0.10675765807E+02  0.13329576850E+02  0.38863044464E+02  0.00000000000E+00 0.  1.
</event>
<event>
 7    1  0.1935465E-015  0.9000774E+02  0.7816164E-02  0.1186339E+00
        -11   -1    0    0    0    0  0.00000000000E+00  0.00000000000E+00  0.45593999997E+02  0.45594000000E+02  0.51100000000E-03 0.  1.
         11   -1    0    0    0    0 -0.00000000000E+00 -0.00000000000E+00 -0.45593999997E+02  0.45594000000E+02  0.51100000000E-03 0. -1.
    9900012    2    1    2    0    0 -0.11268674012E+00 -0.75668027762E+00  0.89874894256E+00  0.90007740280E+02  0.90000001652E+02 0.  0.
         12    1    1    2    0    0  0.11268674012E+00  0.75668027762E+00 -0.89874894256E+00  0.11802597196E+01  0.00000000000E+00 0. -1.
         11    1    3    3    0    0 -0.28345097079E+02  0.15119238746E+02 -0.28479839819E+02  0.42931773607E+02  0.51100000000E-03 0. -1.
        -11    1    3    3    0    0  0.25431886763E+01  0.27308869812E+01 -0.15603226979E+00  0.37349563154E+01  0.51100000000E-03 0.  1.
        -12    1    3    3    0    0  0.25689221663E+02 -0.18606806004E+02  0.29534621032E+02  0.43341010358E+02  0.00000000000E+00 0.  1.
</event>
<event>
 7    1  0.1935465E-015  0.9000779E+02  0.7816164E-02  0.1186339E+00
        -11   -1    0    0    0    0  0.00000000000E+00  0.00000000000E+00  0.45593999997E+02  0.45594000000E+02  0.51100000000E-03 0. -1.
         11   -1    0    0    0    0 -0.00000000000E+00 -0.00000000000E+00 -0.45593999997E+02  0.45594000000E+02  0.51100000000E-03 0.  1.
    9900012    2    1    2    0    0 -0.36223232358E+00 -0.25910518748E+00 -0.10929533610E+01  0.90007790356E+02  0.90000052389E+02 0.  0.
         12    1    1    2    0    0  0.36223232358E+00  0.25910518748E+00  0.10929533610E+01  0.11802096440E+01  0.00000000000E+00 0. -1.
         11    1    3    3    0    0  0.12195767398E+02 -0.39958491810E+01 -0.32387488326E+01  0.13236051048E+02  0.51100000000E-03 0. -1.
        -11    1    3    3    0    0 -0.96332070948E+01 -0.10255547312E+02 -0.34595650893E+02  0.37347476362E+02  0.51100000000E-03 0.  1.
         12    1    3    3    0    0 -0.29247926263E+01  0.13992291305E+02  0.36741446365E+02  0.39424262946E+02  0.00000000000E+00 0. -1.
</event>
<event>
 7    1  0.1935465E-015  0.9000733E+02  0.7816164E-02  0.1186340E+00
        -11   -1    0    0    0    0  0.00000000000E+00  0.00000000000E+00  0.45593999997E+02  0.45594000000E+02  0.51100000000E-03 0. -1.
         11   -1    0    0    0    0 -0.00000000000E+00 -0.00000000000E+00 -0.45593999997E+02  0.45594000000E+02  0.51100000000E-03 0.  1.
    9900012    2    1    2    0    0  0.20741164922E+00  0.12021765167E+00 -0.11560792092E+01  0.90007326034E+02  0.89999581937E+02 0.  0.
         12    1    1    2    0    0 -0.20741164922E+00 -0.12021765167E+00  0.11560792092E+01  0.11806739659E+01  0.00000000000E+00 0. -1.
         11    1    3    3    0    0  0.36519384829E+02 -0.17885464284E+01  0.14847020229E+02  0.39462619991E+02  0.51100000000E-03 0. -1.
        -11    1    3    3    0    0  0.16768017539E+01 -0.84036461124E+01 -0.24387108555E+01  0.89095590801E+01  0.51100000000E-03 0.  1.
        -12    1    3    3    0    0 -0.37988774934E+02  0.10312410192E+02 -0.13564388583E+02  0.41635146963E+02  0.00000000000E+00 0.  1.
</event>
<event>
 7    1  0.1935465E-015  0.9000776E+02  0.7816164E-02  0.1186339E+00
        -11   -1    0    0    0    0  0.00000000000E+00  0.00000000000E+00  0.45593999997E+02  0.45594000000E+02  0.51100000000E-03 0.  1.
         11   -1    0    0    0    0 -0.00000000000E+00 -0.00000000000E+00 -0.45593999997E+02  0.45594000000E+02  0.51100000000E-03 0. -1.
    9900012    2    1    2    0    0 -0.55306729838E+00  0.99824870062E+00  0.30098659276E+00  0.90007755604E+02  0.90000017178E+02 0.  0.
         12    1    1    2    0    0  0.55306729838E+00 -0.99824870062E+00 -0.30098659276E+00  0.11802443958E+01  0.00000000000E+00 0. -1.
         11    1    3    3    0    0 -0.32057725872E+02  0.45981318299E+01 -0.72986472521E+01  0.33198055009E+02  0.51100000000E-03 0. -1.
        -11    1    3    3    0    0 -0.79605866142E+01  0.82057501422E+01 -0.66445516638E+01  0.13223287856E+02  0.51100000000E-03 0.  1.
        -12    1    3    3    0    0  0.39465245188E+02 -0.11805633271E+02  0.14244185509E+02  0.43586412739E+02  0.00000000000E+00 0.  1.
</event>
<event>
 7    1  0.1935465E-015  0.9000773E+02  0.7816164E-02  0.1186339E+00
        -11   -1    0    0    0    0  0.00000000000E+00  0.00000000000E+00  0.45593999997E+02  0.45594000000E+02  0.51100000000E-03 0.  1.
         11   -1    0    0    0    0 -0.00000000000E+00 -0.00000000000E+00 -0.45593999997E+02  0.45594000000E+02  0.51100000000E-03 0. -1.
    9900012    2    1    2    0    0  0.93424955650E+00  0.71087611138E+00  0.12196419934E+00  0.90007727851E+02  0.89999989059E+02 0.  0.
         12    1    1    2    0    0 -0.93424955650E+00 -0.71087611138E+00 -0.12196419934E+00  0.11802721489E+01  0.00000000000E+00 0. -1.
         11    1    3    3    0    0  0.11347700382E+02  0.36436818946E+02  0.46115204754E+00  0.38165753501E+02  0.51100000000E-03 0. -1.
        -11    1    3    3    0    0  0.65298457076E+01  0.18554590936E+01 -0.73728577751E+01  0.10022008055E+02  0.51100000000E-03 0.  1.
        -12    1    3    3    0    0 -0.16943296533E+02 -0.37581401928E+02  0.70336699268E+01  0.41819966295E+02  0.00000000000E+00 0.  1.
</event>
<event>
 7    1  0.1935465E-015  0.9000770E+02  0.7816164E-02  0.1186339E+00
        -11   -1    0    0    0    0  0.00000000000E+00  0.00000000000E+00  0.45593999997E+02  0.45594000000E+02  0.51100000000E-03 0.  1.
         11   -1    0    0    0    0 -0.00000000000E+00 -0.00000000000E+00 -0.45593999997E+02  0.45594000000E+02  0.51100000000E-03 0. -1.
    9900012    2    1    2    0    0  0.10687019547E+01  0.42633121651E+00  0.26309586511E+00  0.90007702746E+02  0.89999963622E+02 0.  0.
         12    1    1    2    0    0 -0.10687019547E+01 -0.42633121651E+00 -0.26309586511E+00  0.11802972542E+01  0.00000000000E+00 0. -1.
         11    1    3    3    0    0  0.26603506305E+02 -0.30207597840E+02  0.14810728885E+02  0.42890595768E+02  0.51100000000E-03 0. -1.
        -11    1    3    3    0    0 -0.65071736075E+01 -0.21493261235E+01 -0.30970710193E+01  0.75202899082E+01  0.51100000000E-03 0.  1.
        -12    1    3    3    0    0 -0.19027630743E+02  0.32783255180E+02 -0.11450562000E+02  0.39596817069E+02  0.00000000000E+00 0.  1.
</event>
<event>
 7    1  0.1935465E-015  0.9000771E+02  0.7816164E-02  0.1186339E+00
        -11   -1    0    0    0    0  0.00000000000E+00  0.00000000000E+00  0.45593999997E+02  0.45594000000E+02  0.51100000000E-03 0.  1.
         11   -1    0    0    0    0 -0.00000000000E+00 -0.00000000000E+00 -0.45593999997E+02  0.45594000000E+02  0.51100000000E-03 0. -1.
    9900012    2    1    2    0    0  0.31108207118E+00 -0.10382696124E+01  0.46722363084E+00  0.90007714541E+02  0.89999975573E+02 0.  0.
         12    1    1    2    0    0 -0.31108207118E+00  0.10382696124E+01 -0.46722363084E+00  0.11802854588E+01  0.00000000000E+00 0. -1.
         11    1    3    3    0    0 -0.30227702969E+01  0.71148937041E+01  0.84368979254E+01  0.11442906080E+02  0.51100000000E-03 0. -1.
        -11    1    3    3    0    0  0.76989174246E+01 -0.40943599694E+02  0.70181107154E+01  0.42248142724E+02  0.51100000000E-03 0.  1.
         12    1    3    3    0    0 -0.43650650566E+01  0.32790436377E+02 -0.14987785010E+02  0.36316665737E+02  0.00000000000E+00 0. -1.
</event>
<event>
 7    1  0.1935465E-015  0.9000775E+02  0.7816164E-02  0.1186339E+00
        -11   -1    0    0    0    0  0.00000000000E+00  0.00000000000E+00  0.45593999997E+02  0.45594000000E+02  0.51100000000E-03 0.  1.
         11   -1    0    0    0    0 -0.00000000000E+00 -0.00000000000E+00 -0.45593999997E+02  0.45594000000E+02  0.51100000000E-03 0. -1.
    9900012    2    1    2    0    0  0.14355343401E-01  0.46023801714E+00  0.10867180083E+01  0.90007753781E+02  0.90000015331E+02 0.  0.
         12    1    1    2    0    0 -0.14355343401E-01 -0.46023801714E+00 -0.10867180083E+01  0.11802462192E+01  0.00000000000E+00 0. -1.
         11    1    3    3    0    0  0.31906718945E+02  0.12189042849E+02 -0.13142780760E+02  0.36597051326E+02  0.51100000000E-03 0. -1.
        -11    1    3    3    0    0  0.61482888643E+01  0.45837313183E+01 -0.34414309583E+01  0.84056823673E+01  0.51100000000E-03 0.  1.
        -12    1    3    3    0    0 -0.38040652465E+02 -0.16312536150E+02  0.17670929727E+02  0.45005020087E+02  0.00000000000E+00 0.  1.
</event>
<event>
 7    1  0.1935465E-015  0.9000769E+02  0.7816164E-02  0.1186339E+00
        -11   -1    0    0    0    0  0.00000000000E+00  0.00000000000E+00  0.45593999997E+02  0.45594000000E+02  0.51100000000E-03 0.  1.
         11   -1    0    0    0    0 -0.00000000000E+00 -0.00000000000E+00 -0.45593999997E+02  0.45594000000E+02  0.51100000000E-03 0. -1.
    9900012    2    1    2    0    0  0.82596008074E+00 -0.83923060459E+00 -0.81347044748E-01  0.90007688429E+02  0.89999949116E+02 0.  0.
         12    1    1    2    0    0 -0.82596008074E+00  0.83923060459E+00  0.81347044748E-01  0.11803115709E+01  0.00000000000E+00 0. -1.
         11    1    3    3    0    0  0.13173998597E+02 -0.31431611142E+02 -0.61651217422E+01  0.34633930536E+02  0.51100000000E-03 0. -1.
        -11    1    3    3    0    0 -0.25324982451E-01  0.97563986715E+00  0.20273820816E+02  0.20297298472E+02  0.51100000000E-03 0.  1.
        -12    1    3    3    0    0 -0.12322713534E+02  0.29616740670E+02 -0.14190046118E+02  0.35076459422E+02  0.00000000000E+00 0.  1.
</event>
<event>
 7    1  0.1935465E-015  0.9000774E+02  0.7816164E-02  0.1186339E+00
        -11   -1    0    0    0    0  0.00000000000E+00  0.00000000000E+00  0.45593999997E+02  0.45594000000E+02  0.51100000000E-03 0.  1.
         11   -1    0    0    0    0 -0.00000000000E+00 -0.00000000000E+00 -0.45593999997E+02  0.45594000000E+02  0.51100000000E-03 0. -1.
    9900012    2    1    2    0    0 -0.28427687535E+00 -0.10254606415E+01 -0.51052999218E+00  0.90007735732E+02  0.89999997044E+02 0.  0.
         12    1    1    2    0    0  0.28427687535E+00  0.10254606415E+01  0.51052999218E+00  0.11802642679E+01  0.00000000000E+00 0. -1.
         11    1    3    3    0    0 -0.10036144768E+02 -0.74536605283E+01 -0.32933777249E+02  0.35226622620E+02  0.51100000000E-03 0. -1.
        -11    1    3    3    0    0  0.10435761665E+01  0.13634574125E+00 -0.10490413611E+02  0.10543074475E+02  0.51100000000E-03 0.  1.
        -12    1    3    3    0    0  0.87082917266E+01  0.62918541455E+01  0.42913660868E+02  0.44238038637E+02  0.00000000000E+00 0.  1.
</event>
<event>
 7    1  0.1935465E-015  0.9000757E+02  0.7816164E-02  0.1186339E+00
        -11   -1    0    0    0    0  0.00000000000E+00  0.00000000000E+00  0.45593999997E+02  0.45594000000E+02  0.51100000000E-03 0.  1.
         11   -1    0    0    0    0 -0.00000000000E+00 -0.00000000000E+00 -0.45593999997E+02  0.45594000000E+02  0.51100000000E-03 0. -1.
    9900012    2    1    2    0    0 -0.52790637515E+00  0.91372854767E+00  0.52898492130E+00  0.90007572092E+02  0.89999831243E+02 0.  0.
         12    1    1    2    0    0  0.52790637515E+00 -0.91372854767E+00 -0.52898492130E+00  0.11804279083E+01  0.00000000000E+00 0. -1.
         11    1    3    3    0    0 -0.20290438301E+02 -0.17823300881E+02 -0.20673900099E+02  0.34011499324E+02  0.51100000000E-03 0. -1.
        -11    1    3    3    0    0  0.12827223477E+01 -0.72801154416E+01 -0.92800273462E+01  0.11864415926E+02  0.51100000000E-03 0.  1.
        -12    1    3    3    0    0  0.18479809578E+02  0.26017144870E+02  0.30482912366E+02  0.44131656841E+02  0.00000000000E+00 0.  1.
</event>
<event>
 7    1  0.1935465E-015  0.9000775E+02  0.7816164E-02  0.1186339E+00
        -11   -1    0    0    0    0  0.00000000000E+00  0.00000000000E+00  0.45593999997E+02  0.45594000000E+02  0.51100000000E-03 0. -1.
         11   -1    0    0    0    0 -0.00000000000E+00 -0.00000000000E+00 -0.45593999997E+02  0.45594000000E+02  0.51100000000E-03 0.  1.
    9900012    2    1    2    0    0 -0.11729640728E+01  0.45760516062E-01  0.12266661351E+00  0.90007751789E+02  0.90000013313E+02 0.  0.
         12    1    1    2    0    0  0.11729640728E+01 -0.45760516062E-01 -0.12266661351E+00  0.11802482108E+01  0.00000000000E+00 0. -1.
         11    1    3    3    0    0  0.40162012862E+01 -0.49086518241E+01  0.74276702981E+01  0.97670375151E+01  0.51100000000E-03 0. -1.
        -11    1    3    3    0    0 -0.12383779044E+02  0.22715608399E+02  0.29199293990E+02  0.39012249590E+02  0.51100000000E-03 0.  1.
         12    1    3    3    0    0  0.71946136852E+01 -0.17761196059E+02 -0.36504297674E+02  0.41228464684E+02  0.00000000000E+00 0. -1.
</event>
<event>
 7    1  0.1935465E-015  0.9000775E+02  0.7816164E-02  0.1186339E+00
        -11   -1    0    0    0    0  0.00000000000E+00  0.00000000000E+00  0.45593999997E+02  0.45594000000E+02  0.51100000000E-03 0.  1.
         11   -1    0    0    0    0 -0.00000000000E+00 -0.00000000000E+00 -0.45593999997E+02  0.45594000000E+02  0.51100000000E-03 0. -1.
    9900012    2    1    2    0    0  0.24787425190E+00  0.11521311704E+01 -0.64413324685E-01  0.90007747080E+02  0.90000008542E+02 0.  0.
         12    1    1    2    0    0 -0.24787425190E+00 -0.11521311704E+01  0.64413324685E-01  0.11802529199E+01  0.00000000000E+00 0. -1.
         11    1    3    3    0    0  0.29260171687E+02  0.15502178979E+02 -0.11844708214E+02  0.35167773788E+02  0.51100000000E-03 0. -1.
        -11    1    3    3    0    0  0.99820435876E+01  0.31824709495E+01 -0.56282938259E-01  0.10477236447E+02  0.51100000000E-03 0.  1.
        -12    1    3    3    0    0 -0.38994341023E+02 -0.17532518758E+02  0.11836577828E+02  0.44362736846E+02  0.00000000000E+00 0.  1.
</event>
<event>
 7    1  0.1935465E-015  0.9000776E+02  0.7816164E-02  0.1186339E+00
        -11   -1    0    0    0    0  0.00000000000E+00  0.00000000000E+00  0.45593999997E+02  0.45594000000E+02  0.51100000000E-03 0. -1.
         11   -1    0    0    0    0 -0.00000000000E+00 -0.00000000000E+00 -0.45593999997E+02  0.45594000000E+02  0.51100000000E-03 0.  1.
    9900012    2    1    2    0    0  0.38544068710E+00  0.10167657577E+01 -0.45888832797E+00  0.90007764588E+02  0.90000026281E+02 0.  0.
         12    1    1    2    0    0 -0.38544068710E+00 -0.10167657577E+01  0.45888832797E+00  0.11802354116E+01  0.00000000000E+00 0. -1.
         11    1    3    3    0    0  0.25366149412E+02 -0.16114755191E+02  0.26747091724E+02  0.40231005292E+02  0.51100000000E-03 0. -1.
        -11    1    3    3    0    0  0.43977156481E+01  0.72320038135E+01  0.99538247360E-01  0.84647321401E+01  0.51100000000E-03 0.  1.
        -12    1    3    3    0    0 -0.29378424373E+02  0.98995171349E+01 -0.27305518299E+02  0.41312027156E+02  0.00000000000E+00 0.  1.
</event>
<event>
 7    1  0.1935465E-015  0.9000768E+02  0.7816164E-02  0.1186339E+00
        -11   -1    0    0    0    0  0.00000000000E+00  0.00000000000E+00  0.45593999997E+02  0.45594000000E+02  0.51100000000E-03 0.  1.
         11   -1    0    0    0    0 -0.00000000000E+00 -0.00000000000E+00 -0.45593999997E+02  0.45594000000E+02  0.51100000000E-03 0. -1.
    9900012    2    1    2    0    0 -0.91030883047E+00  0.57021022322E-01  0.74915519981E+00  0.90007683484E+02  0.89999944106E+02 0.  0.
         12    1    1    2    0    0  0.91030883047E+00 -0.57021022322E-01 -0.74915519981E+00  0.11803165157E+01  0.00000000000E+00 0. -1.
         11    1    3    3    0    0 -0.14805306196E+02  0.30772387086E+02  0.16272830723E+02  0.37827792938E+02  0.51100000000E-03 0. -1.
        -11    1    3    3    0    0 -0.10120771557E+01  0.60782620755E+01  0.45832327532E+01  0.76795568075E+01  0.51100000000E-03 0.  1.
        -12    1    3    3    0    0  0.14907074521E+02 -0.36793628139E+02 -0.20106908276E+02  0.44500333739E+02  0.00000000000E+00 0.  1.
</event>
<event>
 7    1  0.1935465E-015  0.9000779E+02  0.7816164E-02  0.1186339E+00
        -11   -1    0    0    0    0  0.00000000000E+00  0.00000000000E+00  0.45593999997E+02  0.45594000000E+02  0.51100000000E-03 0.  1.
         11   -1    0    0    0    0 -0.00000000000E+00 -0.00000000000E+00 -0.45593999997E+02  0.45594000000E+02  0.51100000000E-03 0. -1.
    9900012    2    1    2    0    0 -0.21057577942E+00  0.11603630821E+01  0.45919766699E-01  0.90007791007E+02  0.90000053049E+02 0.  0.
         12    1    1    2    0    0  0.21057577942E+00 -0.11603630821E+01 -0.45919766699E-01  0.11802089926E+01  0.00000000000E+00 0. -1.
         11    1    3    3    0    0  0.59441710023E+01  0.81614484767E+01  0.71053055015E+01  0.12346164452E+02  0.51100000000E-03 0. -1.
        -11    1    3    3    0    0 -0.15964259417E+02 -0.31624812265E+02  0.19247746430E+02  0.40317019637E+02  0.51100000000E-03 0.  1.
         12    1    3    3    0    0  0.98095126354E+01  0.24623726870E+02 -0.26307132165E+02  0.37344606918E+02  0.00000000000E+00 0. -1.
</event>
<event>
 7    1  0.1935465E-015  0.9000775E+02  0.7816164E-02  0.1186339E+00
        -11   -1    0    0    0    0  0.00000000000E+00  0.00000000000E+00  0.45593999997E+02  0.45594000000E+02  0.51100000000E-03 0.  1.
         11   -1    0    0    0    0 -0.00000000000E+00 -0.00000000000E+00 -0.45593999997E+02  0.45594000000E+02  0.51100000000E-03 0. -1.
    9900012    2    1    2    0    0  0.11171970794E+00 -0.66814094281E+00  0.96648418797E+00  0.90007752018E+02  0.90000013545E+02 0.  0.
         12    1    1    2    0    0 -0.11171970794E+00  0.66814094281E+00 -0.96648418797E+00  0.11802479817E+01  0.00000000000E+00 0. -1.
         11    1    3    3    0    0 -0.12407463556E+02  0.16177224811E+02 -0.30894281710E+02  0.37014921277E+02  0.51100000000E-03 0. -1.
        -11    1    3    3    0    0  0.46249492485E+01 -0.27815674413E+01 -0.81947806220E+01  0.98123240206E+01  0.51100000000E-03 0.  1.
        -12    1    3    3    0    0  0.78942340150E+01 -0.14063798312E+02  0.40055546520E+02  0.43180506721E+02  0.00000000000E+00 0.  1.
</event>
<event>
 7    1  0.1935465E-015  0.9000815E+02  0.7816164E-02  0.1186338E+00
        -11   -1    0    0    0    0  0.00000000000E+00  0.00000000000E+00  0.45593999997E+02  0.45594000000E+02  0.51100000000E-03 0. -1.
         11   -1    0    0    0    0 -0.00000000000E+00 -0.00000000000E+00 -0.45593999997E+02  0.45594000000E+02  0.51100000000E-03 0.  1.
    9900012    2    1    2    0    0  0.11026012175E+01  0.41988745611E+00 -0.34418215934E-02  0.90008149685E+02  0.90000416459E+02 0.  0.
         12    1    1    2    0    0 -0.11026012175E+01 -0.41988745611E+00  0.34418215934E-02  0.11798503154E+01  0.00000000000E+00 0. -1.
         11    1    3    3    0    0  0.33156956975E+02  0.71299102498E+01  0.60917730331E+01  0.34457642330E+02  0.51100000000E-03 0. -1.
        -11    1    3    3    0    0  0.30191511899E+01  0.13088340860E+02  0.40263608051E+01  0.14022536218E+02  0.51100000000E-03 0.  1.
        -12    1    3    3    0    0 -0.35073506947E+02 -0.19798363654E+02 -0.10121575660E+02  0.41527971137E+02  0.00000000000E+00 0.  1.
</event>
<event>
 7    1  0.1935465E-015  0.9000782E+02  0.7816164E-02  0.1186339E+00
        -11   -1    0    0    0    0  0.00000000000E+00  0.00000000000E+00  0.45593999997E+02  0.45594000000E+02  0.51100000000E-03 0.  1.
         11   -1    0    0    0    0 -0.00000000000E+00 -0.00000000000E+00 -0.45593999997E+02  0.45594000000E+02  0.51100000000E-03 0. -1.
    9900012    2    1    2    0    0 -0.39457721984E+00  0.84184485347E+00  0.72693040888E+00  0.90007821302E+02  0.90000083743E+02 0.  0.
         12    1    1    2    0    0  0.39457721984E+00 -0.84184485347E+00 -0.72693040888E+00  0.11801786979E+01  0.00000000000E+00 0. -1.
         11    1    3    3    0    0 -0.87094294410E+01  0.22303108930E+02 -0.34273263505E+02  0.41808365439E+02  0.51100000000E-03 0. -1.
        -11    1    3    3    0    0  0.53589689775E+01  0.44760834749E+01  0.63247859186E+01  0.94210821540E+01  0.51100000000E-03 0.  1.
        -12    1    3    3    0    0  0.29558832437E+01 -0.25937347552E+02  0.28675407996E+02  0.38778373709E+02  0.00000000000E+00 0.  1.
</event>
<event>
 7    1  0.1935465E-015  0.9000789E+02  0.7816164E-02  0.1186339E+00
        -11   -1    0    0    0    0  0.00000000000E+00  0.00000000000E+00  0.45593999997E+02  0.45594000000E+02  0.51100000000E-03 0. -1.
         11   -1    0    0    0    0 -0.00000000000E+00 -0.00000000000E+00 -0.45593999997E+02  0.45594000000E+02  0.51100000000E-03 0.  1.
    9900012    2    1    2    0    0  0.48672860390E+00  0.10254962744E+01 -0.32268070054E+00  0.90007885524E+02  0.90000148812E+02 0.  0.
         12    1    1    2    0    0 -0.48672860390E+00 -0.10254962744E+01  0.32268070054E+00  0.11801144763E+01  0.00000000000E+00 0. -1.
         11    1    3    3    0    0  0.19735449252E+02  0.22593659732E+02  0.20922071566E+02  0.36574506096E+02  0.51100000000E-03 0. -1.
        -11    1    3    3    0    0  0.31373432447E+01  0.96004349620E+01 -0.12947452064E+01  0.10182712777E+02  0.51100000000E-03 0.  1.
        -12    1    3    3    0    0 -0.22386063893E+02 -0.31168598419E+02 -0.19950007060E+02  0.43250666651E+02  0.00000000000E+00 0.  1.
</event>
<event>
 7    1  0.1935465E-015  0.9000772E+02  0.7816164E-02  0.1186339E+00
        -11   -1    0    0    0    0  0.00000000000E+00  0.00000000000E+00  0.45593999997E+02  0.45594000000E+02  0.51100000000E-03 0.  1.
         11   -1    0    0    0    0 -0.00000000000E+00 -0.00000000000E+00 -0.45593999997E+02  0.45594000000E+02  0.51100000000E-03 0. -1.
    9900012    2    1    2    0    0  0.23042143134E-01  0.99979097149E+00  0.62685986054E+00  0.90007717741E+02  0.89999978815E+02 0.  0.
         12    1    1    2    0    0 -0.23042143134E-01 -0.99979097149E+00 -0.62685986054E+00  0.11802822594E+01  0.00000000000E+00 0. -1.
         11    1    3    3    0    0 -0.21531340735E+02  0.24760690133E+01  0.92328610392E+01  0.23557913211E+02  0.51100000000E-03 0. -1.
        -11    1    3    3    0    0 -0.15439166746E+02  0.65356831751E+01  0.14446672442E+02  0.22131185447E+02  0.51100000000E-03 0.  1.
        -12    1    3    3    0    0  0.36993549624E+02 -0.80119612169E+01 -0.23052673621E+02  0.44318619083E+02  0.00000000000E+00 0.  1.
</event>
<event>
 7    1  0.1935465E-015  0.9000775E+02  0.7816164E-02  0.1186339E+00
        -11   -1    0    0    0    0  0.00000000000E+00  0.00000000000E+00  0.45593999997E+02  0.45594000000E+02  0.51100000000E-03 0.  1.
         11   -1    0    0    0    0 -0.00000000000E+00 -0.00000000000E+00 -0.45593999997E+02  0.45594000000E+02  0.51100000000E-03 0. -1.
    9900012    2    1    2    0    0  0.57020367692E-01  0.43899399980E+00  0.10940816543E+01  0.90007753534E+02  0.90000015081E+02 0.  0.
         12    1    1    2    0    0 -0.57020367692E-01 -0.43899399980E+00 -0.10940816543E+01  0.11802464660E+01  0.00000000000E+00 0. -1.
         11    1    3    3    0    0  0.37550065930E+02  0.71096237883E+00 -0.10041447936E+02  0.38876002826E+02  0.51100000000E-03 0. -1.
        -11    1    3    3    0    0  0.51466778339E+01  0.20697567596E+01 -0.27968871191E+01  0.62124683973E+01  0.51100000000E-03 0.  1.
        -12    1    3    3    0    0 -0.42639723396E+02 -0.23417251386E+01  0.13932416709E+02  0.44919282310E+02  0.00000000000E+00 0.  1.
</event>
<event>
 7    1  0.1935465E-015  0.9000770E+02  0.7816164E-02  0.1186339E+00
        -11   -1    0    0    0    0  0.00000000000E+00  0.00000000000E+00  0.45593999997E+02  0.45594000000E+02  0.51100000000E-03 0.  1.
         11   -1    0    0    0    0 -0.00000000000E+00 -0.00000000000E+00 -0.45593999997E+02  0.45594000000E+02  0.51100000000E-03 0. -1.
    9900012    2    1    2    0    0  0.10917300738E+01 -0.38641854836E+00 -0.22784133815E+00  0.90007701087E+02  0.89999961941E+02 0.  0.
         12    1    1    2    0    0 -0.10917300738E+01  0.38641854836E+00  0.22784133815E+00  0.11802989129E+01  0.00000000000E+00 0. -1.
         11    1    3    3    0    0  0.26405582522E+02 -0.17278132328E+02  0.25970907543E+02  0.40869018632E+02  0.51100000000E-03 0. -1.
        -11    1    3    3    0    0 -0.33235930767E+01  0.58015655186E+01  0.57364913574E+01  0.88097540693E+01  0.51100000000E-03 0.  1.
        -12    1    3    3    0    0 -0.21990259371E+02  0.11090148261E+02 -0.31935240239E+02  0.40328928386E+02  0.00000000000E+00 0.  1.
</event>
<event>
 7    1  0.1935465E-015  0.9000774E+02  0.7816164E-02  0.1186339E+00
        -11   -1    0    0    0    0  0.00000000000E+00  0.00000000000E+00  0.45593999997E+02  0.45594000000E+02  0.51100000000E-03 0. -1.
         11   -1    0    0    0    0 -0.00000000000E+00 -0.00000000000E+00 -0.45593999997E+02  0.45594000000E+02  0.51100000000E-03 0.  1.
    9900012    2    1    2    0    0  0.71670409328E+00  0.50301305718E+00 -0.79140859261E+00  0.90007739667E+02  0.90000001031E+02 0.  0.
         12    1    1    2    0    0 -0.71670409328E+00 -0.50301305718E+00  0.79140859261E+00  0.11802603329E+01  0.00000000000E+00 0. -1.
         11    1    3    3    0    0  0.59324619634E+01  0.74938753134E+01 -0.35466542360E+01  0.10194656870E+02  0.51100000000E-03 0. -1.
        -11    1    3    3    0    0 -0.32685905462E+02  0.18271570958E+02  0.15285020435E+02  0.40445649595E+02  0.51100000000E-03 0.  1.
         12    1    3    3    0    0  0.27470147592E+02 -0.25262433215E+02 -0.12529774791E+02  0.39367433203E+02  0.00000000000E+00 0. -1.
</event>
<event>
 7    1  0.1935465E-015  0.9000776E+02  0.7816164E-02  0.1186339E+00
        -11   -1    0    0    0    0  0.00000000000E+00  0.00000000000E+00  0.45593999997E+02  0.45594000000E+02  0.51100000000E-03 0. -1.
         11   -1    0    0    0    0 -0.00000000000E+00 -0.00000000000E+00 -0.45593999997E+02  0.45594000000E+02  0.51100000000E-03 0.  1.
    9900012    2    1    2    0    0 -0.53063077312E+00 -0.19851525419E+00 -0.10353698221E+01  0.90007759350E+02  0.90000020973E+02 0.  0.
         12    1    1    2    0    0  0.53063077312E+00  0.19851525419E+00  0.10353698221E+01  0.11802406501E+01  0.00000000000E+00 0. -1.
         11    1    3    3    0    0 -0.51654255556E+01  0.11703741663E+01  0.15121973800E+01  0.55080067208E+01  0.51100000000E-03 0. -1.
        -11    1    3    3    0    0 -0.14296938473E+02 -0.16732870588E+02 -0.36546612315E+02  0.42662000419E+02  0.51100000000E-03 0.  1.
         12    1    3    3    0    0  0.18931733255E+02  0.15363981167E+02  0.33999045113E+02  0.41837752210E+02  0.00000000000E+00 0. -1.
</event>
<event>
 7    1  0.1935465E-015  0.9000769E+02  0.7816164E-02  0.1186339E+00
        -11   -1    0    0    0    0  0.00000000000E+00  0.00000000000E+00  0.45593999997E+02  0.45594000000E+02  0.51100000000E-03 0.  1.
         11   -1    0    0    0    0 -0.00000000000E+00 -0.00000000000E+00 -0.45593999997E+02  0.45594000000E+02  0.51100000000E-03 0. -1.
    9900012    2    1    2    0    0  0.39185426084E+00 -0.82150788555E+00  0.75146322148E+00  0.90007694132E+02  0.89999954895E+02 0.  0.
         12    1    1    2    0    0 -0.39185426084E+00  0.82150788555E+00 -0.75146322148E+00  0.11803058676E+01  0.00000000000E+00 0. -1.
         11    1    3    3    0    0  0.11154613871E+01  0.23460393033E+02 -0.32566151790E+02  0.40152067668E+02  0.51100000000E-03 0. -1.
        -11    1    3    3    0    0  0.85556984385E+01  0.13827810947E+01  0.32664106723E+01  0.92618301792E+01  0.51100000000E-03 0.  1.
        -12    1    3    3    0    0 -0.92793055647E+01 -0.25664682013E+02  0.30051204339E+02  0.40593796285E+02  0.00000000000E+00 0.  1.
</event>
<event>
 7    1  0.1935465E-015  0.9000785E+02  0.7816164E-02  0.1186339E+00
        -11   -1    0    0    0    0  0.00000000000E+00  0.00000000000E+00  0.45593999997E+02  0.45594000000E+02  0.51100000000E-03 0.  1.
         11   -1    0    0    0    0 -0.00000000000E+00 -0.00000000000E+00 -0.45593999997E+02  0.45594000000E+02  0.51100000000E-03 0. -1.
    9900012    2    1    2    0    0 -0.98810564881E+00  0.64391436291E+00 -0.42095741025E-01  0.90007851479E+02  0.90000114319E+02 0.  0.
         12    1    1    2    0    0  0.98810564881E+00 -0.64391436291E+00  0.42095741025E-01  0.11801485209E+01  0.00000000000E+00 0. -1.
         11    1    3    3    0    0 -0.42251822640E+01  0.70520639921E+01  0.60200081840E+01  0.10189419537E+02  0.51100000000E-03 0. -1.
        -11    1    3    3    0    0 -0.23574177978E+02  0.16052199414E+02  0.21147254892E+02  0.35505230080E+02  0.51100000000E-03 0.  1.
         12    1    3    3    0    0  0.26811254593E+02 -0.22460349043E+02 -0.27209358817E+02  0.44313201861E+02  0.00000000000E+00 0. -1.
</event>
<event>
 7    1  0.1935465E-015  0.9000783E+02  0.7816164E-02  0.1186339E+00
        -11   -1    0    0    0    0  0.00000000000E+00  0.00000000000E+00  0.45593999997E+02  0.45594000000E+02  0.51100000000E-03 0.  1.
         11   -1    0    0    0    0 -0.00000000000E+00 -0.00000000000E+00 -0.45593999997E+02  0.45594000000E+02  0.51100000000E-03 0. -1.
    9900012    2    1    2    0    0 -0.94126787136E-03 -0.73369520208E+00  0.92439049795E+00  0.90007827416E+02  0.90000089938E+02 0.  0.
         12    1    1    2    0    0  0.94126787136E-03  0.73369520208E+00 -0.92439049795E+00  0.11801725841E+01  0.00000000000E+00 0. -1.
         11    1    3    3    0    0  0.23449257635E+02 -0.13972730154E+02 -0.23138426737E+02  0.35783958190E+02  0.51100000000E-03 0. -1.
        -11    1    3    3    0    0  0.47445404183E+01 -0.24372891519E+01 -0.74262826053E+01  0.91433427031E+01  0.51100000000E-03 0.  1.
        -12    1    3    3    0    0 -0.28194739322E+02  0.15676324103E+02  0.31489099841E+02  0.45080526523E+02  0.00000000000E+00 0.  1.
</event>
<event>
 7    1  0.1935465E-015  0.9000784E+02  0.7816164E-02  0.1186339E+00
        -11   -1    0    0    0    0  0.00000000000E+00  0.00000000000E+00  0.45593999997E+02  0.45594000000E+02  0.51100000000E-03 0.  1.
         11   -1    0    0    0    0 -0.00000000000E+00 -0.00000000000E+00 -0.45593999997E+02  0.45594000000E+02  0.51100000000E-03 0. -1.
    9900012    2    1    2    0    0  0.10593234277E+01  0.51606516186E+00 -0.65562966211E-01  0.90007835656E+02  0.90000098287E+02 0.  0.
         12    1    1    2    0    0 -0.10593234277E+01 -0.51606516186E+00  0.65562966211E-01  0.11801643438E+01  0.00000000000E+00 0. -1.
         11    1    3    3    0    0 -0.31259368308E+02 -0.25004965034E+02  0.14452630126E+02  0.42559075427E+02  0.51100000000E-03 0. -1.
        -11    1    3    3    0    0 -0.14629371706E+01  0.27243615532E+01 -0.45365210491E+01  0.54902053265E+01  0.51100000000E-03 0.  1.
        -12    1    3    3    0    0  0.33781628906E+02  0.22796668643E+02 -0.99816720430E+01  0.41958554903E+02  0.00000000000E+00 0.  1.
</event>
<event>
 7    1  0.1935465E-015  0.9000778E+02  0.7816164E-02  0.1186339E+00
        -11   -1    0    0    0    0  0.00000000000E+00  0.00000000000E+00  0.45593999997E+02  0.45594000000E+02  0.51100000000E-03 0. -1.
         11   -1    0    0    0    0 -0.00000000000E+00 -0.00000000000E+00 -0.45593999997E+02  0.45594000000E+02  0.51100000000E-03 0.  1.
    9900012    2    1    2    0    0  0.65644798351E+00  0.36747772407E+00 -0.90937680181E+00  0.90007775445E+02  0.90000037281E+02 0.  0.
         12    1    1    2    0    0 -0.65644798351E+00 -0.36747772407E+00  0.90937680181E+00  0.11802245551E+01  0.00000000000E+00 0. -1.
         11    1    3    3    0    0 -0.36993262580E+00  0.13751814484E+02  0.63451569302E+01  0.15149596314E+02  0.51100000000E-03 0. -1.
        -11    1    3    3    0    0 -0.35672945043E+02 -0.97566567503E+01 -0.85448738356E+01  0.37957426521E+02  0.51100000000E-03 0.  1.
         12    1    3    3    0    0  0.36699325652E+02 -0.36276800101E+01  0.12903401036E+01  0.36900752610E+02  0.00000000000E+00 0. -1.
</event>
<event>
 7    1  0.1935465E-015  0.9000785E+02  0.7816164E-02  0.1186339E+00
        -11   -1    0    0    0    0  0.00000000000E+00  0.00000000000E+00  0.45593999997E+02  0.45594000000E+02  0.51100000000E-03 0.  1.
         11   -1    0    0    0    0 -0.00000000000E+00 -0.00000000000E+00 -0.45593999997E+02  0.45594000000E+02  0.51100000000E-03 0. -1.
    9900012    2    1    2    0    0  0.12234267061E+00  0.11729491321E+01  0.44545499074E-01  0.90007846749E+02  0.90000109526E+02 0.  0.
         12    1    1    2    0    0 -0.12234267061E+00 -0.11729491321E+01 -0.44545499074E-01  0.11801532515E+01  0.00000000000E+00 0. -1.
         11    1    3    3    0    0 -0.47178455438E+01 -0.82924502989E+01  0.16972031071E+01  0.96903713646E+01  0.51100000000E-03 0. -1.
        -11    1    3    3    0    0 -0.25668553089E+02  0.34712741530E+01  0.27441919981E+02  0.37735703710E+02  0.51100000000E-03 0.  1.
         12    1    3    3    0    0  0.30508741304E+02  0.59941252780E+01 -0.29094577589E+02  0.42581771674E+02  0.00000000000E+00 0. -1.
</event>
<event>
 7    1  0.1935465E-015  0.9000773E+02  0.7816164E-02  0.1186339E+00
        -11   -1    0    0    0    0  0.00000000000E+00  0.00000000000E+00  0.45593999997E+02  0.45594000000E+02  0.51100000000E-03 0.  1.
         11   -1    0    0    0    0 -0.00000000000E+00 -0.00000000000E+00 -0.45593999997E+02  0.45594000000E+02  0.51100000000E-03 0. -1.
    9900012    2    1    2    0    0 -0.50752504480E+00 -0.24252892496E+00  0.10376154150E+01  0.90007725583E+02  0.89999986760E+02 0.  0.
         12    1    1    2    0    0  0.50752504480E+00  0.24252892496E+00 -0.10376154150E+01  0.11802744173E+01  0.00000000000E+00 0. -1.
         11    1    3    3    0    0 -0.11123187579E+01 -0.86009494820E+01 -0.55452326511E+01  0.10293842355E+02  0.51100000000E-03 0. -1.
        -11    1    3    3    0    0 -0.45932389649E+01 -0.18385187561E+02  0.35340215941E+02  0.40100421804E+02  0.51100000000E-03 0.  1.
         12    1    3    3    0    0  0.51980326780E+01  0.26743608118E+02 -0.28757367875E+02  0.39613461424E+02  0.00000000000E+00 0. -1.
</event>
<event>
 7    1  0.1935465E-015  0.9000770E+02  0.7816164E-02  0.1186339E+00
        -11   -1    0    0    0    0  0.00000000000E+00  0.00000000000E+00  0.45593999997E+02  0.45594000000E+02  0.51100000000E-03 0.  1.
         11   -1    0    0    0    0 -0.00000000000E+00 -0.00000000000E+00 -0.45593999997E+02  0.45594000000E+02  0.51100000000E-03 0. -1.
    9900012    2    1    2    0    0 -0.58619452027E+00 -0.10243927601E+01 -0.98513838250E-02  0.90007702753E+02  0.89999963629E+02 0.  0.
         12    1    1    2    0    0  0.58619452027E+00  0.10243927601E+01  0.98513838250E-02  0.11802972474E+01  0.00000000000E+00 0. -1.
         11    1    3    3    0    0  0.48948862100E+01  0.95949009886E+01  0.73517272002E-01  0.10771603457E+02  0.51100000000E-03 0. -1.
        -11    1    3    3    0    0  0.24289654347E+02  0.22391798305E+02 -0.82240080442E+01  0.34044298321E+02  0.51100000000E-03 0.  1.
         12    1    3    3    0    0 -0.29770735077E+02 -0.33011092053E+02  0.81406393884E+01  0.45191800974E+02  0.00000000000E+00 0. -1.
</event>
<event>
 7    1  0.1935465E-015  0.9000772E+02  0.7816164E-02  0.1186339E+00
        -11   -1    0    0    0    0  0.00000000000E+00  0.00000000000E+00  0.45593999997E+02  0.45594000000E+02  0.51100000000E-03 0.  1.
         11   -1    0    0    0    0 -0.00000000000E+00 -0.00000000000E+00 -0.45593999997E+02  0.45594000000E+02  0.51100000000E-03 0. -1.
    9900012    2    1    2    0    0 -0.46502982127E+00 -0.19520059884E+00  0.10670971713E+01  0.90007723600E+02  0.89999984751E+02 0.  0.
         12    1    1    2    0    0  0.46502982127E+00  0.19520059884E+00 -0.10670971713E+01  0.11802764005E+01  0.00000000000E+00 0. -1.
         11    1    3    3    0    0  0.34618840720E+02  0.10926866720E+02  0.15069750729E+02  0.39305952939E+02  0.51100000000E-03 0. -1.
        -11    1    3    3    0    0 -0.28815702067E+01  0.20337532606E+00  0.90573745267E+01  0.95068839247E+01  0.51100000000E-03 0.  1.
        -12    1    3    3    0    0 -0.32202300335E+02 -0.11325442645E+02 -0.23060028085E+02  0.41194886736E+02  0.00000000000E+00 0.  1.
</event>
<event>
 7    1  0.1935465E-015  0.9000772E+02  0.7816164E-02  0.1186339E+00
        -11   -1    0    0    0    0  0.00000000000E+00  0.00000000000E+00  0.45593999997E+02  0.45594000000E+02  0.51100000000E-03 0.  1.
         11   -1    0    0    0    0 -0.00000000000E+00 -0.00000000000E+00 -0.45593999997E+02  0.45594000000E+02  0.51100000000E-03 0. -1.
    9900012    2    1    2    0    0 -0.99851013577E+00  0.56118600041E+00  0.28479972715E+00  0.90007719058E+02  0.89999980149E+02 0.  0.
         12    1    1    2    0    0  0.99851013577E+00 -0.56118600041E+00 -0.28479972715E+00  0.11802809423E+01  0.00000000000E+00 0. -1.
         11    1    3    3    0    0 -0.75141446460E+01 -0.39376545739E+01  0.43680967228E+01  0.95418951234E+01  0.51100000000E-03 0. -1.
        -11    1    3    3    0    0  0.21737582496E+02  0.37418098379E+02  0.34929542639E+01  0.43414713046E+02  0.51100000000E-03 0.  1.
         12    1    3    3    0    0 -0.15221947986E+02 -0.32919257805E+02 -0.75762512596E+01  0.37051110888E+02  0.00000000000E+00 0. -1.
</event>
<event>
 7    1  0.1935465E-015  0.9000777E+02  0.7816164E-02  0.1186339E+00
        -11   -1    0    0    0    0  0.00000000000E+00  0.00000000000E+00  0.45593999997E+02  0.45594000000E+02  0.51100000000E-03 0.  1.
         11   -1    0    0    0    0 -0.00000000000E+00 -0.00000000000E+00 -0.45593999997E+02  0.45594000000E+02  0.51100000000E-03 0. -1.
    9900012    2    1    2    0    0 -0.15746447326E+00 -0.60569991816E+00  0.10006320648E+01  0.90007774606E+02  0.90000036431E+02 0.  0.
         12    1    1    2    0    0  0.15746447326E+00  0.60569991816E+00 -0.10006320648E+01  0.11802253939E+01  0.00000000000E+00 0. -1.
         11    1    3    3    0    0 -0.28559965754E+02  0.46757943503E+01 -0.26047661266E+02  0.38936041842E+02  0.51100000000E-03 0. -1.
        -11    1    3    3    0    0 -0.46020851373E+01  0.67653414542E+01  0.53942601700E+01  0.98003609957E+01  0.51100000000E-03 0.  1.
        -12    1    3    3    0    0  0.33004586418E+02 -0.12046835723E+02  0.21654033161E+02  0.41271371768E+02  0.00000000000E+00 0.  1.
</event>
<event>
 7    1  0.1935465E-015  0.9000773E+02  0.7816164E-02  0.1186339E+00
        -11   -1    0    0    0    0  0.00000000000E+00  0.00000000000E+00  0.45593999997E+02  0.45594000000E+02  0.51100000000E-03 0. -1.
         11   -1    0    0    0    0 -0.00000000000E+00 -0.00000000000E+00 -0.45593999997E+02  0.45594000000E+02  0.51100000000E-03 0.  1.
    9900012    2    1    2    0    0 -0.98750336765E+00  0.34973327571E+00 -0.54364829616E+00  0.90007733193E+02  0.89999994471E+02 0.  0.
         12    1    1    2    0    0  0.98750336765E+00 -0.34973327571E+00  0.54364829616E+00  0.11802668068E+01  0.00000000000E+00 0. -1.
         11    1    3    3    0    0 -0.29498218361E+01  0.12231027207E+02  0.46089273331E+00  0.12590150824E+02  0.51100000000E-03 0. -1.
        -11    1    3    3    0    0  0.33046633097E+01  0.33378614320E+01 -0.37531413296E+02  0.37824186743E+02  0.51100000000E-03 0.  1.
         12    1    3    3    0    0 -0.13423448412E+01 -0.15219155363E+02  0.36526872266E+02  0.39593395626E+02  0.00000000000E+00 0. -1.
</event>
<event>
 7    1  0.1935465E-015  0.9000776E+02  0.7816164E-02  0.1186339E+00
        -11   -1    0    0    0    0  0.00000000000E+00  0.00000000000E+00  0.45593999997E+02  0.45594000000E+02  0.51100000000E-03 0.  1.
         11   -1    0    0    0    0 -0.00000000000E+00 -0.00000000000E+00 -0.45593999997E+02  0.45594000000E+02  0.51100000000E-03 0. -1.
    9900012    2    1    2    0    0 -0.32101634204E+00 -0.92537759899E+00  0.65846922742E+00  0.90007764042E+02  0.90000025728E+02 0.  0.
         12    1    1    2    0    0  0.32101634204E+00  0.92537759899E+00 -0.65846922742E+00  0.11802359578E+01  0.00000000000E+00 0. -1.
         11    1    3    3    0    0  0.10043167510E+02  0.21548354678E+02 -0.68052142884E+01  0.24728682632E+02  0.51100000000E-03 0. -1.
        -11    1    3    3    0    0 -0.21538886897E+02  0.14040690944E+02 -0.24484534946E+01  0.25827496506E+02  0.51100000000E-03 0.  1.
        -12    1    3    3    0    0  0.11174703046E+02 -0.36514423221E+02  0.99121370104E+01  0.39451584904E+02  0.00000000000E+00 0.  1.
</event>
<event>
 7    1  0.1935465E-015  0.9000890E+02  0.7816164E-02  0.1186337E+00
        -11   -1    0    0    0    0  0.00000000000E+00  0.00000000000E+00  0.45593999997E+02  0.45594000000E+02  0.51100000000E-03 0.  1.
         11   -1    0    0    0    0 -0.00000000000E+00 -0.00000000000E+00 -0.45593999997E+02  0.45594000000E+02  0.51100000000E-03 0. -1.
    9900012    2    1    2    0    0 -0.51037206669E+00  0.77079069458E+00  0.73190085282E+00  0.90008900004E+02  0.90001176677E+02 0.  0.
         12    1    1    2    0    0  0.51037206669E+00 -0.77079069458E+00 -0.73190085282E+00  0.11790999956E+01  0.00000000000E+00 0. -1.
         11    1    3    3    0    0  0.28102028099E+02 -0.24051664677E+02 -0.99662095137E+01  0.38308378840E+02  0.51100000000E-03 0. -1.
        -11    1    3    3    0    0  0.18327956951E+01  0.57335329015E+01  0.14369033461E+02  0.15578885148E+02  0.51100000000E-03 0.  1.
        -12    1    3    3    0    0 -0.30445195861E+02  0.19088922470E+02 -0.36709230949E+01  0.36121636016E+02  0.00000000000E+00 0.  1.
</event>
<event>
 7    1  0.1935465E-015  0.9000773E+02  0.7816164E-02  0.1186339E+00
        -11   -1    0    0    0    0  0.00000000000E+00  0.00000000000E+00  0.45593999997E+02  0.45594000000E+02  0.51100000000E-03 0.  1.
         11   -1    0    0    0    0 -0.00000000000E+00 -0.00000000000E+00 -0.45593999997E+02  0.45594000000E+02  0.51100000000E-03 0. -1.
    9900012    2    1    2    0    0 -0.74161591881E+00 -0.90208513530E+00  0.17111275751E+00  0.90007732514E+02  0.89999993783E+02 0.  0.
         12    1    1    2    0    0  0.74161591881E+00  0.90208513530E+00 -0.17111275751E+00  0.11802674858E+01  0.00000000000E+00 0. -1.
         11    1    3    3    0    0 -0.58959020434E+01 -0.84041687357E+01 -0.40089548595E+01  0.11021044976E+02  0.51100000000E-03 0. -1.
        -11    1    3    3    0    0 -0.36155799194E+02  0.16456697984E+00  0.74034856846E+01  0.36906374763E+02  0.51100000000E-03 0.  1.
         12    1    3    3    0    0  0.41310085318E+02  0.73375166206E+01 -0.32234180676E+01  0.42080312774E+02  0.00000000000E+00 0. -1.
</event>
<event>
 7    1  0.1935465E-015  0.9000774E+02  0.7816164E-02  0.1186339E+00
        -11   -1    0    0    0    0  0.00000000000E+00  0.00000000000E+00  0.45593999997E+02  0.45594000000E+02  0.51100000000E-03 0.  1.
         11   -1    0    0    0    0 -0.00000000000E+00 -0.00000000000E+00 -0.45593999997E+02  0.45594000000E+02  0.51100000000E-03 0. -1.
    9900012    2    1    2    0    0  0.66756016408E+00 -0.93002681418E+00 -0.28709624827E+00  0.90007741256E+02  0.90000002640E+02 0.  0.
         12    1    1    2    0    0 -0.66756016408E+00  0.93002681418E+00  0.28709624827E+00  0.11802587443E+01  0.00000000000E+00 0. -1.
         11    1    3    3    0    0 -0.14085241406E+02  0.49154017180E+01 -0.37718814684E+02  0.40561856231E+02  0.51100000000E-03 0. -1.
        -11    1    3    3    0    0 -0.11735101887E+00 -0.46969681281E+01 -0.35148477509E+01  0.58676601666E+01  0.51100000000E-03 0.  1.
        -12    1    3    3    0    0  0.14870152589E+02 -0.11484604041E+01  0.40946566186E+02  0.43578224858E+02  0.00000000000E+00 0.  1.
</event>
<event>
 7    1  0.1935465E-015  0.9000767E+02  0.7816164E-02  0.1186339E+00
        -11   -1    0    0    0    0  0.00000000000E+00  0.00000000000E+00  0.45593999997E+02  0.45594000000E+02  0.51100000000E-03 0.  1.
         11   -1    0    0    0    0 -0.00000000000E+00 -0.00000000000E+00 -0.45593999997E+02  0.45594000000E+02  0.51100000000E-03 0. -1.
    9900012    2    1    2    0    0  0.11494394129E+01  0.24562842947E+00  0.10781149233E+00  0.90007674788E+02  0.89999935295E+02 0.  0.
         12    1    1    2    0    0 -0.11494394129E+01 -0.24562842947E+00 -0.10781149233E+00  0.11803252125E+01  0.00000000000E+00 0. -1.
         11    1    3    3    0    0  0.92664743147E+01  0.64022555938E+01  0.15138980627E+01  0.11364343823E+02  0.51100000000E-03 0. -1.
        -11    1    3    3    0    0 -0.32553706258E+02 -0.12295361193E+02 -0.25996400602E+02  0.43436534652E+02  0.51100000000E-03 0.  1.
         12    1    3    3    0    0  0.24436671356E+02  0.61387340284E+01  0.24590314032E+02  0.35206796313E+02  0.00000000000E+00 0. -1.
</event>
<event>
 7    1  0.1935465E-015  0.9000772E+02  0.7816164E-02  0.1186339E+00
        -11   -1    0    0    0    0  0.00000000000E+00  0.00000000000E+00  0.45593999997E+02  0.45594000000E+02  0.51100000000E-03 0.  1.
         11   -1    0    0    0    0 -0.00000000000E+00 -0.00000000000E+00 -0.45593999997E+02  0.45594000000E+02  0.51100000000E-03 0. -1.
    9900012    2    1    2    0    0  0.82092322820E+00  0.75379592117E+00 -0.38849289332E+00  0.90007724623E+02  0.89999985788E+02 0.  0.
         12    1    1    2    0    0 -0.82092322820E+00 -0.75379592117E+00  0.38849289332E+00  0.11802753770E+01  0.00000000000E+00 0. -1.
         11    1    3    3    0    0  0.35539810668E+02 -0.20579695096E+02  0.88079298732E+01  0.42002162105E+02  0.51100000000E-03 0. -1.
        -11    1    3    3    0    0 -0.39106702718E+01  0.14245663196E+01  0.68123536708E+01  0.79831631557E+01  0.51100000000E-03 0.  1.
        -12    1    3    3    0    0 -0.30808217168E+02  0.19908924698E+02 -0.16008776437E+02  0.40022399362E+02  0.00000000000E+00 0.  1.
</event>
<event>
 7    1  0.1935465E-015  0.9000771E+02  0.7816164E-02  0.1186339E+00
        -11   -1    0    0    0    0  0.00000000000E+00  0.00000000000E+00  0.45593999997E+02  0.45594000000E+02  0.51100000000E-03 0. -1.
         11   -1    0    0    0    0 -0.00000000000E+00 -0.00000000000E+00 -0.45593999997E+02  0.45594000000E+02  0.51100000000E-03 0.  1.
    9900012    2    1    2    0    0  0.88836775573E+00  0.29150200496E+00 -0.72036271670E+00  0.90007706337E+02  0.89999967260E+02 0.  0.
         12    1    1    2    0    0 -0.88836775573E+00 -0.29150200496E+00  0.72036271670E+00  0.11802936634E+01  0.00000000000E+00 0. -1.
         11    1    3    3    0    0 -0.31987012978E+02  0.34019220500E+01  0.20432125647E+02  0.38107923475E+02  0.51100000000E-03 0. -1.
        -11    1    3    3    0    0 -0.50265570589E+00  0.82252623003E+01  0.34283081046E+01  0.89252954790E+01  0.51100000000E-03 0.  1.
        -12    1    3    3    0    0  0.33378036439E+02 -0.11335682345E+02 -0.24580796468E+02  0.42974487382E+02  0.00000000000E+00 0.  1.
</event>
<event>
 7    1  0.1935465E-015  0.9000772E+02  0.7816164E-02  0.1186339E+00
        -11   -1    0    0    0    0  0.00000000000E+00  0.00000000000E+00  0.45593999997E+02  0.45594000000E+02  0.51100000000E-03 0.  1.
         11   -1    0    0    0    0 -0.00000000000E+00 -0.00000000000E+00 -0.45593999997E+02  0.45594000000E+02  0.51100000000E-03 0. -1.
    9900012    2    1    2    0    0  0.39162567169E+00  0.82833156401E+00  0.74400750731E+00  0.90007724177E+02  0.89999985336E+02 0.  0.
         12    1    1    2    0    0 -0.39162567169E+00 -0.82833156401E+00 -0.74400750731E+00  0.11802758227E+01  0.00000000000E+00 0. -1.
         11    1    3    3    0    0 -0.97900095523E+01  0.14582028172E+02 -0.33835385969E+02  0.38122344846E+02  0.51100000000E-03 0. -1.
        -11    1    3    3    0    0  0.60897369813E+01 -0.44863255385E+01 -0.62537379974E+01  0.98143391291E+01  0.51100000000E-03 0.  1.
        -12    1    3    3    0    0  0.40918982426E+01 -0.92673710694E+01  0.40833131474E+02  0.42071040202E+02  0.00000000000E+00 0.  1.
</event>
<event>
 7    1  0.1935465E-015  0.9000769E+02  0.7816164E-02  0.1186339E+00
        -11   -1    0    0    0    0  0.00000000000E+00  0.00000000000E+00  0.45593999997E+02  0.45594000000E+02  0.51100000000E-03 0. -1.
         11   -1    0    0    0    0 -0.00000000000E+00 -0.00000000000E+00 -0.45593999997E+02  0.45594000000E+02  0.51100000000E-03 0.  1.
    9900012    2    1    2    0    0 -0.97500852557E+00 -0.48373965988E+00  0.45659426694E+00  0.90007693257E+02  0.89999954008E+02 0.  0.
         12    1    1    2    0    0  0.97500852557E+00  0.48373965988E+00 -0.45659426694E+00  0.11803067432E+01  0.00000000000E+00 0. -1.
         11    1    3    3    0    0  0.21807488014E+02 -0.11893097510E+02  0.43166015471E+01  0.25212008073E+02  0.51100000000E-03 0. -1.
        -11    1    3    3    0    0 -0.20695536096E+02  0.74088703814E+01  0.26313326185E+02  0.34286844559E+02  0.51100000000E-03 0.  1.
        -12    1    3    3    0    0 -0.20869604437E+01  0.40004874686E+01 -0.30173333465E+02  0.30508840625E+02  0.00000000000E+00 0.  1.
</event>
<event>
 7    1  0.1935465E-015  0.9000759E+02  0.7816164E-02  0.1186339E+00
        -11   -1    0    0    0    0  0.00000000000E+00  0.00000000000E+00  0.45593999997E+02  0.45594000000E+02  0.51100000000E-03 0.  1.
         11   -1    0    0    0    0 -0.00000000000E+00 -0.00000000000E+00 -0.45593999997E+02  0.45594000000E+02  0.51100000000E-03 0. -1.
    9900012    2    1    2    0    0  0.70635813102E+00  0.93701297147E+00  0.12818472840E+00  0.90007590561E+02  0.89999849957E+02 0.  0.
         12    1    1    2    0    0 -0.70635813102E+00 -0.93701297147E+00 -0.12818472840E+00  0.11804094385E+01  0.00000000000E+00 0. -1.
         11    1    3    3    0    0  0.86815499847E+01  0.63893706545E+01 -0.37735720429E+00  0.10785905906E+02  0.51100000000E-03 0. -1.
        -11    1    3    3    0    0  0.32601245259E+02 -0.17251426755E+02 -0.15245915557E+01  0.36915813647E+02  0.51100000000E-03 0.  1.
         12    1    3    3    0    0 -0.40576437113E+02  0.11799069072E+02  0.20301334884E+01  0.42305871008E+02  0.00000000000E+00 0. -1.
</event>
<event>
 7    1  0.1935465E-015  0.9000773E+02  0.7816164E-02  0.1186339E+00
        -11   -1    0    0    0    0  0.00000000000E+00  0.00000000000E+00  0.45593999997E+02  0.45594000000E+02  0.51100000000E-03 0.  1.
         11   -1    0    0    0    0 -0.00000000000E+00 -0.00000000000E+00 -0.45593999997E+02  0.45594000000E+02  0.51100000000E-03 0. -1.
    9900012    2    1    2    0    0  0.91416112967E+00  0.64396630910E+00  0.37769294632E+00  0.90007730904E+02  0.89999992152E+02 0.  0.
         12    1    1    2    0    0 -0.91416112967E+00 -0.64396630910E+00 -0.37769294632E+00  0.11802690964E+01  0.00000000000E+00 0. -1.
         11    1    3    3    0    0 -0.65147468771E+01  0.76452547465E+00  0.88064162522E+01  0.10980864881E+02  0.51100000000E-03 0. -1.
        -11    1    3    3    0    0  0.50504675068E+01  0.19058957180E+02  0.30065241179E+02  0.35953717447E+02  0.51100000000E-03 0.  1.
         12    1    3    3    0    0  0.23784404999E+01 -0.19179516346E+02 -0.38493964485E+02  0.43073148576E+02  0.00000000000E+00 0. -1.
</event>
<event>
 7    1  0.1935465E-015  0.9000770E+02  0.7816164E-02  0.1186339E+00
        -11   -1    0    0    0    0  0.00000000000E+00  0.00000000000E+00  0.45593999997E+02  0.45594000000E+02  0.51100000000E-03 0. -1.
         11   -1    0    0    0    0 -0.00000000000E+00 -0.00000000000E+00 -0.45593999997E+02  0.45594000000E+02  0.51100000000E-03 0.  1.
    9900012    2    1    2    0    0  0.28364788451E+00  0.55165234748E+00 -0.10041629013E+01  0.90007695138E+02  0.89999955914E+02 0.  0.
         12    1    1    2    0    0 -0.28364788451E+00 -0.55165234748E+00  0.10041629013E+01  0.11803048620E+01  0.00000000000E+00 0. -1.
         11    1    3    3    0    0 -0.49213207089E+01  0.32840220454E+01  0.73895906517E+01  0.94662689892E+01  0.51100000000E-03 0. -1.
        -11    1    3    3    0    0  0.17500511304E+02  0.17733390054E+02  0.27705978544E+02  0.37260733568E+02  0.51100000000E-03 0.  1.
         12    1    3    3    0    0 -0.12295542711E+02 -0.20465759752E+02 -0.36099732097E+02  0.43280692580E+02  0.00000000000E+00 0. -1.
</event>
<event>
 7    1  0.1935465E-015  0.9000771E+02  0.7816164E-02  0.1186339E+00
        -11   -1    0    0    0    0  0.00000000000E+00  0.00000000000E+00  0.45593999997E+02  0.45594000000E+02  0.51100000000E-03 0.  1.
         11   -1    0    0    0    0 -0.00000000000E+00 -0.00000000000E+00 -0.45593999997E+02  0.45594000000E+02  0.51100000000E-03 0. -1.
    9900012    2    1    2    0    0 -0.35124113196E+00 -0.69596642645E+00 -0.88619388817E+00  0.90007712236E+02  0.89999973237E+02 0.  0.
         12    1    1    2    0    0  0.35124113196E+00  0.69596642645E+00  0.88619388817E+00  0.11802877645E+01  0.00000000000E+00 0. -1.
         11    1    3    3    0    0 -0.87423387660E+01  0.47068234803E+01 -0.34170247813E+02  0.35583542688E+02  0.51100000000E-03 0. -1.
        -11    1    3    3    0    0 -0.83970873768E+01  0.21251558593E+01 -0.63417958705E+01  0.10735256819E+02  0.51100000000E-03 0.  1.
        -12    1    3    3    0    0  0.16788185011E+02 -0.75279457661E+01  0.39625849795E+02  0.43688912729E+02  0.00000000000E+00 0.  1.
</event>
<event>
 7    1  0.1935465E-015  0.9000782E+02  0.7816164E-02  0.1186339E+00
        -11   -1    0    0    0    0  0.00000000000E+00  0.00000000000E+00  0.45593999997E+02  0.45594000000E+02  0.51100000000E-03 0.  1.
         11   -1    0    0    0    0 -0.00000000000E+00 -0.00000000000E+00 -0.45593999997E+02  0.45594000000E+02  0.51100000000E-03 0. -1.
    9900012    2    1    2    0    0  0.55980591410E+00  0.17854407445E+00 -0.10235026890E+01  0.90007822724E+02  0.90000085184E+02 0.  0.
         12    1    1    2    0    0 -0.55980591410E+00 -0.17854407445E+00  0.10235026890E+01  0.11801772759E+01  0.00000000000E+00 0. -1.
         11    1    3    3    0    0 -0.96391025271E+00 -0.97167707273E+01  0.49550749178E+01  0.10949772785E+02  0.51100000000E-03 0. -1.
        -11    1    3    3    0    0  0.16497828042E+02 -0.20200712872E+02  0.22925316363E+02  0.34724879572E+02  0.51100000000E-03 0.  1.
         12    1    3    3    0    0 -0.14974111875E+02  0.30096027674E+02 -0.28903893970E+02  0.44333170367E+02  0.00000000000E+00 0. -1.
</event>
<event>
 7    1  0.1935465E-015  0.9000780E+02  0.7816164E-02  0.1186339E+00
        -11   -1    0    0    0    0  0.00000000000E+00  0.00000000000E+00  0.45593999997E+02  0.45594000000E+02  0.51100000000E-03 0. -1.
         11   -1    0    0    0    0 -0.00000000000E+00 -0.00000000000E+00 -0.45593999997E+02  0.45594000000E+02  0.51100000000E-03 0.  1.
    9900012    2    1    2    0    0  0.91068055779E+00 -0.43664804117E+00 -0.61062623929E+00  0.90007802985E+02  0.90000065184E+02 0.  0.
         12    1    1    2    0    0 -0.91068055779E+00  0.43664804117E+00  0.61062623929E+00  0.11801970150E+01  0.00000000000E+00 0. -1.
         11    1    3    3    0    0  0.78072024685E+00 -0.27217172820E+01  0.92278004123E+01  0.96524385405E+01  0.51100000000E-03 0. -1.
        -11    1    3    3    0    0 -0.26066991853E+02  0.16283829155E+02  0.21244188501E+02  0.37362637775E+02  0.51100000000E-03 0.  1.
         12    1    3    3    0    0  0.26196952164E+02 -0.13998759914E+02 -0.31082615152E+02  0.42992726670E+02  0.00000000000E+00 0. -1.
</event>
<event>
 7    1  0.1935465E-015  0.9000775E+02  0.7816164E-02  0.1186339E+00
        -11   -1    0    0    0    0  0.00000000000E+00  0.00000000000E+00  0.45593999997E+02  0.45594000000E+02  0.51100000000E-03 0.  1.
         11   -1    0    0    0    0 -0.00000000000E+00 -0.00000000000E+00 -0.45593999997E+02  0.45594000000E+02  0.51100000000E-03 0. -1.
    9900012    2    1    2    0    0  0.10550231569E+01  0.46986796434E+00  0.24317599751E+00  0.90007752428E+02  0.90000013960E+02 0.  0.
         12    1    1    2    0    0 -0.10550231569E+01 -0.46986796434E+00 -0.24317599751E+00  0.11802475721E+01  0.00000000000E+00 0. -1.
         11    1    3    3    0    0  0.18360966085E+02 -0.33106590622E+02  0.46954422846E+01  0.38147327517E+02  0.51100000000E-03 0. -1.
        -11    1    3    3    0    0  0.24466039018E+01  0.66068984541E+01  0.12522413385E+02  0.14368292003E+02  0.51100000000E-03 0.  1.
        -12    1    3    3    0    0 -0.19752546830E+02  0.26969560132E+02 -0.16974679672E+02  0.37492132908E+02  0.00000000000E+00 0.  1.
</event>
<event>
 7    1  0.1935465E-015  0.9000764E+02  0.7816164E-02  0.1186339E+00
        -11   -1    0    0    0    0  0.00000000000E+00  0.00000000000E+00  0.45593999997E+02  0.45594000000E+02  0.51100000000E-03 0. -1.
         11   -1    0    0    0    0 -0.00000000000E+00 -0.00000000000E+00 -0.45593999997E+02  0.45594000000E+02  0.51100000000E-03 0.  1.
    9900012    2    1    2    0    0  0.53503086154E+00 -0.10156787513E+01 -0.27458981845E+00  0.90007635261E+02  0.89999895246E+02 0.  0.
         12    1    1    2    0    0 -0.53503086154E+00  0.10156787513E+01  0.27458981845E+00  0.11803647389E+01  0.00000000000E+00 0. -1.
         11    1    3    3    0    0 -0.35900975244E+02 -0.76650518043E+01 -0.85725475797E+01  0.37697766710E+02  0.51100000000E-03 0. -1.
        -11    1    3    3    0    0 -0.50668359874E+01  0.83046834282E+01 -0.89320832556E+00  0.97692586791E+01  0.51100000000E-03 0.  1.
        -12    1    3    3    0    0  0.41502842093E+02 -0.16553103752E+01  0.91911660868E+01  0.42540609872E+02  0.00000000000E+00 0.  1.
</event>
<event>
 7    1  0.2485468E-015  0.9000768E+02  0.7816164E-02  0.1186339E+00
        -11   -1    0    0    0    0  0.00000000000E+00  0.00000000000E+00  0.45593999997E+02  0.45594000000E+02  0.51100000000E-03 0.  1.
         11   -1    0    0    0    0 -0.00000000000E+00 -0.00000000000E+00 -0.45593999997E+02  0.45594000000E+02  0.51100000000E-03 0. -1.
    9900012    2    1    2    0    0  0.21892084342E-01 -0.43680847519E+00  0.10963028622E+01  0.90007677640E+02  0.89999938185E+02 0.  0.
         12    1    1    2    0    0 -0.21892084342E-01  0.43680847519E+00 -0.10963028622E+01  0.11803223598E+01  0.00000000000E+00 0. -1.
         11    1    3    3    0    0 -0.61584318487E+01  0.64043708150E+01  0.20996006944E+01  0.91296534276E+01  0.51100000000E-03 0. -1.
        -11    1    3    3    0    0  0.16672628607E+02  0.18701770036E+02  0.30180658829E+02  0.39225054682E+02  0.51100000000E-03 0.  1.
         12    1    3    3    0    0 -0.10492304674E+02 -0.25542949326E+02 -0.31183956662E+02  0.41652969531E+02  0.00000000000E+00 0. -1.
</event>
<event>
 7    1  0.1935465E-015  0.9000779E+02  0.7816164E-02  0.1186339E+00
        -11   -1    0    0    0    0  0.00000000000E+00  0.00000000000E+00  0.45593999997E+02  0.45594000000E+02  0.51100000000E-03 0. -1.
         11   -1    0    0    0    0 -0.00000000000E+00 -0.00000000000E+00 -0.45593999997E+02  0.45594000000E+02  0.51100000000E-03 0.  1.
    9900012    2    1    2    0    0 -0.20365669220E+00 -0.55598150230E+00 -0.10209387142E+01  0.90007785046E+02  0.90000047009E+02 0.  0.
         12    1    1    2    0    0  0.20365669220E+00  0.55598150230E+00  0.10209387142E+01  0.11802149538E+01  0.00000000000E+00 0. -1.
         11    1    3    3    0    0  0.63106437043E+01  0.47981086146E+01 -0.38827281905E+01  0.88273239831E+01  0.51100000000E-03 0. -1.
        -11    1    3    3    0    0 -0.83357061175E+01  0.12822939405E+02 -0.35520136771E+02  0.38672883109E+02  0.51100000000E-03 0.  1.
         12    1    3    3    0    0  0.18214057210E+01 -0.18177029522E+02  0.38381926248E+02  0.42507577954E+02  0.00000000000E+00 0. -1.
</event>
<event>
 7    1  0.1935465E-015  0.9000647E+02  0.7816164E-02  0.1186342E+00
        -11   -1    0    0    0    0  0.00000000000E+00  0.00000000000E+00  0.45593999997E+02  0.45594000000E+02  0.51100000000E-03 0. -1.
         11   -1    0    0    0    0 -0.00000000000E+00 -0.00000000000E+00 -0.45593999997E+02  0.45594000000E+02  0.51100000000E-03 0.  1.
    9900012    2    1    2    0    0  0.22120931319E+00  0.10863238001E+01 -0.40862791039E+00  0.90006471444E+02  0.89998716058E+02 0.  0.
         12    1    1    2    0    0 -0.22120931319E+00 -0.10863238001E+01  0.40862791039E+00  0.11815285557E+01  0.00000000000E+00 0. -1.
         11    1    3    3    0    0 -0.86097336523E+01  0.66438250629E+01  0.36548260673E+02  0.38131919484E+02  0.51100000000E-03 0. -1.
        -11    1    3    3    0    0 -0.38226828654E+01  0.70653713323E+01  0.26194330427E+01  0.84494855511E+01  0.51100000000E-03 0.  1.
        -12    1    3    3    0    0  0.12653625831E+02 -0.12622872595E+02 -0.39576321626E+02  0.43425066409E+02  0.00000000000E+00 0.  1.
</event>
<event>
 7    1  0.2616564E-015  0.9000772E+02  0.7816164E-02  0.1186339E+00
        -11   -1    0    0    0    0  0.00000000000E+00  0.00000000000E+00  0.45593999997E+02  0.45594000000E+02  0.51100000000E-03 0. -1.
         11   -1    0    0    0    0 -0.00000000000E+00 -0.00000000000E+00 -0.45593999997E+02  0.45594000000E+02  0.51100000000E-03 0.  1.
    9900012    2    1    2    0    0 -0.50995100996E+00  0.10134684271E+01 -0.32542351564E+00  0.90007716665E+02  0.89999977725E+02 0.  0.
         12    1    1    2    0    0  0.50995100996E+00 -0.10134684271E+01  0.32542351564E+00  0.11802833346E+01  0.00000000000E+00 0. -1.
         11    1    3    3    0    0  0.73171415498E+00  0.75558367446E+01 -0.52105467193E+01  0.92073813808E+01  0.51100000000E-03 0. -1.
        -11    1    3    3    0    0 -0.98478707530E-01 -0.13123900376E+02 -0.36547562269E+02  0.38832599284E+02  0.51100000000E-03 0.  1.
         12    1    3    3    0    0 -0.11431864574E+01  0.65815320583E+01  0.41432685473E+02  0.41967736000E+02  0.00000000000E+00 0. -1.
</event>
<event>
 7    1  0.1935465E-015  0.9000773E+02  0.7816164E-02  0.1186339E+00
        -11   -1    0    0    0    0  0.00000000000E+00  0.00000000000E+00  0.45593999997E+02  0.45594000000E+02  0.51100000000E-03 0. -1.
         11   -1    0    0    0    0 -0.00000000000E+00 -0.00000000000E+00 -0.45593999997E+02  0.45594000000E+02  0.51100000000E-03 0.  1.
    9900012    2    1    2    0    0 -0.78885755051E+00 -0.35081009794E-01  0.87721215703E+00  0.90007733894E+02  0.89999995182E+02 0.  0.
         12    1    1    2    0    0  0.78885755051E+00  0.35081009794E-01 -0.87721215703E+00  0.11802661059E+01  0.00000000000E+00 0. -1.
         11    1    3    3    0    0  0.46251948517E+01 -0.83457226967E+01  0.95529575552E+00  0.95893745880E+01  0.51100000000E-03 0. -1.
        -11    1    3    3    0    0  0.17143886326E+02 -0.14469274192E+02 -0.29393728892E+02  0.36976533538E+02  0.51100000000E-03 0.  1.
         12    1    3    3    0    0 -0.22557938728E+02  0.22779915879E+02  0.29315645293E+02  0.43441825769E+02  0.00000000000E+00 0. -1.
</event>
<event>
 7    1  0.1935465E-015  0.9000775E+02  0.7816164E-02  0.1186339E+00
        -11   -1    0    0    0    0  0.00000000000E+00  0.00000000000E+00  0.45593999997E+02  0.45594000000E+02  0.51100000000E-03 0.  1.
         11   -1    0    0    0    0 -0.00000000000E+00 -0.00000000000E+00 -0.45593999997E+02  0.45594000000E+02  0.51100000000E-03 0. -1.
    9900012    2    1    2    0    0 -0.10042363594E+01  0.32683070732E+00  0.52694742738E+00  0.90007753175E+02  0.90000014717E+02 0.  0.
         12    1    1    2    0    0  0.10042363594E+01 -0.32683070732E+00 -0.52694742738E+00  0.11802468250E+01  0.00000000000E+00 0. -1.
         11    1    3    3    0    0  0.35265533568E+01 -0.33765373358E+01 -0.25093722240E+01  0.54894928890E+01  0.51100000000E-03 0. -1.
        -11    1    3    3    0    0 -0.41183141001E+02  0.15202910727E+02 -0.78399906215E+01  0.44594226650E+02  0.51100000000E-03 0.  1.
         12    1    3    3    0    0  0.36652351285E+02 -0.11499542684E+02  0.10876310273E+02  0.39924033636E+02  0.00000000000E+00 0. -1.
</event>
<event>
 7    1  0.1935465E-015  0.9000775E+02  0.7816164E-02  0.1186339E+00
        -11   -1    0    0    0    0  0.00000000000E+00  0.00000000000E+00  0.45593999997E+02  0.45594000000E+02  0.51100000000E-03 0.  1.
         11   -1    0    0    0    0 -0.00000000000E+00 -0.00000000000E+00 -0.45593999997E+02  0.45594000000E+02  0.51100000000E-03 0. -1.
    9900012    2    1    2    0    0 -0.24020167931E+00  0.50123816415E+00  0.10411760706E+01  0.90007752503E+02  0.90000014036E+02 0.  0.
         12    1    1    2    0    0  0.24020167931E+00 -0.50123816415E+00 -0.10411760706E+01  0.11802474969E+01  0.00000000000E+00 0. -1.
         11    1    3    3    0    0 -0.22131856646E+02 -0.13251598328E+02 -0.26178836837E+02  0.36752624876E+02  0.51100000000E-03 0. -1.
        -11    1    3    3    0    0 -0.52790652054E+01 -0.74031025820E+01 -0.41468963223E+00  0.91020011555E+01  0.51100000000E-03 0.  1.
        -12    1    3    3    0    0  0.27170720172E+02  0.21155939074E+02  0.27634702540E+02  0.44153126472E+02  0.00000000000E+00 0.  1.
</event>
<event>
 7    1  0.1935465E-015  0.9000790E+02  0.7816164E-02  0.1186339E+00
        -11   -1    0    0    0    0  0.00000000000E+00  0.00000000000E+00  0.45593999997E+02  0.45594000000E+02  0.51100000000E-03 0. -1.
         11   -1    0    0    0    0 -0.00000000000E+00 -0.00000000000E+00 -0.45593999997E+02  0.45594000000E+02  0.51100000000E-03 0.  1.
    9900012    2    1    2    0    0  0.92753824839E+00  0.48258787822E+00  0.54718083352E+00  0.90007904611E+02  0.90000168152E+02 0.  0.
         12    1    1    2    0    0 -0.92753824839E+00 -0.48258787822E+00 -0.54718083352E+00  0.11800953889E+01  0.00000000000E+00 0. -1.
         11    1    3    3    0    0  0.94611755269E+01  0.10239392504E+02  0.33449205560E+02  0.36238216761E+02  0.51100000000E-03 0. -1.
        -11    1    3    3    0    0  0.78908376717E+01 -0.17538579759E+01  0.64772766924E+01  0.10358400001E+02  0.51100000000E-03 0.  1.
        -12    1    3    3    0    0 -0.16424474950E+02 -0.80029466494E+01 -0.39379301419E+02  0.43411287849E+02  0.00000000000E+00 0.  1.
</event>
<event>
 7    1  0.1935465E-015  0.9000775E+02  0.7816164E-02  0.1186339E+00
        -11   -1    0    0    0    0  0.00000000000E+00  0.00000000000E+00  0.45593999997E+02  0.45594000000E+02  0.51100000000E-03 0.  1.
         11   -1    0    0    0    0 -0.00000000000E+00 -0.00000000000E+00 -0.45593999997E+02  0.45594000000E+02  0.51100000000E-03 0. -1.
    9900012    2    1    2    0    0 -0.74497672906E-01  0.44998076433E+00  0.10885594505E+01  0.90007748218E+02  0.90000009695E+02 0.  0.
         12    1    1    2    0    0  0.74497672906E-01 -0.44998076433E+00 -0.10885594505E+01  0.11802517820E+01  0.00000000000E+00 0. -1.
         11    1    3    3    0    0  0.59134901295E+01  0.68051727018E+01  0.26544842026E+01  0.93981927867E+01  0.51100000000E-03 0. -1.
        -11    1    3    3    0    0 -0.72256540695E+01  0.29458412582E+02  0.22219312851E+02  0.37599282073E+02  0.51100000000E-03 0.  1.
         12    1    3    3    0    0  0.12376662671E+01 -0.35813604520E+02 -0.23785237603E+02  0.43010273358E+02  0.00000000000E+00 0. -1.
</event>
<event>
 7    1  0.1984954E-015  0.9000773E+02  0.7816164E-02  0.1186339E+00
        -11   -1    0    0    0    0  0.00000000000E+00  0.00000000000E+00  0.45593999997E+02  0.45594000000E+02  0.51100000000E-03 0.  1.
         11   -1    0    0    0    0 -0.00000000000E+00 -0.00000000000E+00 -0.45593999997E+02  0.45594000000E+02  0.51100000000E-03 0. -1.
    9900012    2    1    2    0    0  0.21824524474E+00 -0.10480271690E+01  0.49704044267E+00  0.90007728364E+02  0.89999989578E+02 0.  0.
         12    1    1    2    0    0 -0.21824524474E+00  0.10480271690E+01 -0.49704044267E+00  0.11802716363E+01  0.00000000000E+00 0. -1.
         11    1    3    3    0    0 -0.90650280973E+01 -0.79942976622E+00 -0.18191478877E+01  0.92802543960E+01  0.51100000000E-03 0. -1.
        -11    1    3    3    0    0 -0.81963875818E+00  0.39478468449E+02  0.40853260394E+01  0.39697747642E+02  0.51100000000E-03 0.  1.
         12    1    3    3    0    0  0.10102912100E+02 -0.39727065852E+02 -0.17691377090E+01  0.41029726325E+02  0.00000000000E+00 0. -1.
</event>
<event>
 7    1  0.1935465E-015  0.9000748E+02  0.7816164E-02  0.1186340E+00
        -11   -1    0    0    0    0  0.00000000000E+00  0.00000000000E+00  0.45593999997E+02  0.45594000000E+02  0.51100000000E-03 0. -1.
         11   -1    0    0    0    0 -0.00000000000E+00 -0.00000000000E+00 -0.45593999997E+02  0.45594000000E+02  0.51100000000E-03 0.  1.
    9900012    2    1    2    0    0 -0.66790651734E+00 -0.94902844419E+00  0.21650851796E+00  0.90007478911E+02  0.89999736832E+02 0.  0.
         12    1    1    2    0    0  0.66790651734E+00  0.94902844419E+00 -0.21650851796E+00  0.11805210892E+01  0.00000000000E+00 0. -1.
         11    1    3    3    0    0 -0.10687925218E+02  0.11691712620E+02  0.35755466855E+02  0.39107304941E+02  0.51100000000E-03 0. -1.
        -11    1    3    3    0    0 -0.68264794753E+01  0.74673285572E+01 -0.83330098995E+01  0.13107283168E+02  0.51100000000E-03 0.  1.
        -12    1    3    3    0    0  0.16846498176E+02 -0.20108069622E+02 -0.27205948438E+02  0.37792890801E+02  0.00000000000E+00 0.  1.
</event>
<event>
 7    1  0.1935465E-015  0.9000778E+02  0.7816164E-02  0.1186339E+00
        -11   -1    0    0    0    0  0.00000000000E+00  0.00000000000E+00  0.45593999997E+02  0.45594000000E+02  0.51100000000E-03 0.  1.
         11   -1    0    0    0    0 -0.00000000000E+00 -0.00000000000E+00 -0.45593999997E+02  0.45594000000E+02  0.51100000000E-03 0. -1.
    9900012    2    1    2    0    0  0.10868310652E+01 -0.24286762765E+00  0.39081878183E+00  0.90007777237E+02  0.90000039097E+02 0.  0.
         12    1    1    2    0    0 -0.10868310652E+01  0.24286762765E+00 -0.39081878183E+00  0.11802227625E+01  0.00000000000E+00 0. -1.
         11    1    3    3    0    0  0.83059599898E+01 -0.25596321192E+01 -0.29710397483E+01  0.91851927244E+01  0.51100000000E-03 0. -1.
        -11    1    3    3    0    0  0.19346828677E+02  0.31511207663E+02  0.14642312902E+02  0.39770005225E+02  0.51100000000E-03 0.  1.
         12    1    3    3    0    0 -0.26565957602E+02 -0.29194443171E+02 -0.11280454371E+02  0.41052579288E+02  0.00000000000E+00 0. -1.
</event>
<event>
 7    1  0.1935465E-015  0.9000726E+02  0.7816164E-02  0.1186340E+00
        -11   -1    0    0    0    0  0.00000000000E+00  0.00000000000E+00  0.45593999997E+02  0.45594000000E+02  0.51100000000E-03 0.  1.
         11   -1    0    0    0    0 -0.00000000000E+00 -0.00000000000E+00 -0.45593999997E+02  0.45594000000E+02  0.51100000000E-03 0. -1.
    9900012    2    1    2    0    0 -0.25296690022E+00  0.22147001536E+00  0.11318602656E+01  0.90007259181E+02  0.89999514201E+02 0.  0.
         12    1    1    2    0    0  0.25296690022E+00 -0.22147001536E+00 -0.11318602656E+01  0.11807408188E+01  0.00000000000E+00 0. -1.
         11    1    3    3    0    0  0.53041092322E+01  0.21767219575E+02 -0.36932746026E+02  0.43196911372E+02  0.51100000000E-03 0. -1.
        -11    1    3    3    0    0  0.50205647301E+01 -0.28742410176E+01  0.81927477581E+01  0.10029379229E+02  0.51100000000E-03 0.  1.
        -12    1    3    3    0    0 -0.10577640862E+02 -0.18671508542E+02  0.29871858534E+02  0.36780968580E+02  0.00000000000E+00 0.  1.
</event>
<event>
 7    1  0.1935465E-015  0.9000765E+02  0.7816164E-02  0.1186339E+00
        -11   -1    0    0    0    0  0.00000000000E+00  0.00000000000E+00  0.45593999997E+02  0.45594000000E+02  0.51100000000E-03 0.  1.
         11   -1    0    0    0    0 -0.00000000000E+00 -0.00000000000E+00 -0.45593999997E+02  0.45594000000E+02  0.51100000000E-03 0. -1.
    9900012    2    1    2    0    0 -0.11586343795E+01 -0.19770645135E-01  0.22451398863E+00  0.90007647919E+02  0.89999908072E+02 0.  0.
         12    1    1    2    0    0  0.11586343795E+01  0.19770645135E-01 -0.22451398863E+00  0.11803520809E+01  0.00000000000E+00 0. -1.
         11    1    3    3    0    0 -0.68580628630E+01 -0.22896945891E+01  0.64861324245E+01  0.97131684653E+01  0.51100000000E-03 0. -1.
        -11    1    3    3    0    0 -0.36010311824E+01 -0.34295904674E+02 -0.20325155090E+02  0.40028595188E+02  0.51100000000E-03 0.  1.
         12    1    3    3    0    0  0.93004596660E+01  0.36565828618E+02  0.14063536654E+02  0.40265884266E+02  0.00000000000E+00 0. -1.
</event>
<event>
 7    1  0.1935465E-015  0.9000774E+02  0.7816164E-02  0.1186339E+00
        -11   -1    0    0    0    0  0.00000000000E+00  0.00000000000E+00  0.45593999997E+02  0.45594000000E+02  0.51100000000E-03 0.  1.
         11   -1    0    0    0    0 -0.00000000000E+00 -0.00000000000E+00 -0.45593999997E+02  0.45594000000E+02  0.51100000000E-03 0. -1.
    9900012    2    1    2    0    0 -0.79054702205E+00 -0.71196171806E-01  0.87348127393E+00  0.90007744509E+02  0.90000005936E+02 0.  0.
         12    1    1    2    0    0  0.79054702205E+00  0.71196171806E-01 -0.87348127393E+00  0.11802554914E+01  0.00000000000E+00 0. -1.
         11    1    3    3    0    0  0.38677490293E+02  0.10039256297E+02 -0.56427074858E+01  0.40355607670E+02  0.51100000000E-03 0. -1.
        -11    1    3    3    0    0 -0.24769429138E+01 -0.56779299758E+01 -0.76061655754E+01  0.98095815420E+01  0.51100000000E-03 0.  1.
        -12    1    3    3    0    0 -0.36991094401E+02 -0.44325224935E+01  0.14122354335E+02  0.39842555297E+02  0.00000000000E+00 0.  1.
</event>
<event>
 7    1  0.1935465E-015  0.9000775E+02  0.7816164E-02  0.1186339E+00
        -11   -1    0    0    0    0  0.00000000000E+00  0.00000000000E+00  0.45593999997E+02  0.45594000000E+02  0.51100000000E-03 0.  1.
         11   -1    0    0    0    0 -0.00000000000E+00 -0.00000000000E+00 -0.45593999997E+02  0.45594000000E+02  0.51100000000E-03 0. -1.
    9900012    2    1    2    0    0  0.32231823152E+00  0.20936998210E+00  0.11159126042E+01  0.90007751818E+02  0.90000013342E+02 0.  0.
         12    1    1    2    0    0 -0.32231823152E+00 -0.20936998210E+00 -0.11159126042E+01  0.11802481824E+01  0.00000000000E+00 0. -1.
         11    1    3    3    0    0  0.60249556611E+01 -0.58230503972E+01  0.40017931399E+01  0.92855993475E+01  0.51100000000E-03 0. -1.
        -11    1    3    3    0    0  0.20902579034E+02 -0.24789181821E+02  0.15627026887E+02  0.35994795668E+02  0.51100000000E-03 0.  1.
         12    1    3    3    0    0 -0.26605216464E+02  0.30821602200E+02 -0.18512907422E+02  0.44727356802E+02  0.00000000000E+00 0. -1.
</event>
<event>
 7    1  0.2678529E-015  0.9000772E+02  0.7816164E-02  0.1186339E+00
        -11   -1    0    0    0    0  0.00000000000E+00  0.00000000000E+00  0.45593999997E+02  0.45594000000E+02  0.51100000000E-03 0.  1.
         11   -1    0    0    0    0 -0.00000000000E+00 -0.00000000000E+00 -0.45593999997E+02  0.45594000000E+02  0.51100000000E-03 0. -1.
    9900012    2    1    2    0    0 -0.11193043429E+01  0.19146099310E+00  0.32180695603E+00  0.90007720694E+02  0.89999981807E+02 0.  0.
         12    1    1    2    0    0  0.11193043429E+01 -0.19146099310E+00 -0.32180695603E+00  0.11802793063E+01  0.00000000000E+00 0. -1.
         11    1    3    3    0    0  0.55612926933E+01  0.80906041166E+01  0.34646166755E+00  0.98237410053E+01  0.51100000000E-03 0. -1.
        -11    1    3    3    0    0 -0.27727480186E+01 -0.25943776159E+02  0.33168878936E+02  0.42201210683E+02  0.51100000000E-03 0.  1.
         12    1    3    3    0    0 -0.39078490176E+01  0.18044633035E+02 -0.33193533648E+02  0.37982769006E+02  0.00000000000E+00 0. -1.
</event>
<event>
 7    1  0.1935465E-015  0.9000785E+02  0.7816164E-02  0.1186339E+00
        -11   -1    0    0    0    0  0.00000000000E+00  0.00000000000E+00  0.45593999997E+02  0.45594000000E+02  0.51100000000E-03 0. -1.
         11   -1    0    0    0    0 -0.00000000000E+00 -0.00000000000E+00 -0.45593999997E+02  0.45594000000E+02  0.51100000000E-03 0.  1.
    9900012    2    1    2    0    0  0.49579463982E+00 -0.12228380279E+00  0.10639545005E+01  0.90007845420E+02  0.90000108180E+02 0.  0.
         12    1    1    2    0    0 -0.49579463982E+00  0.12228380279E+00 -0.10639545005E+01  0.11801545798E+01  0.00000000000E+00 0. -1.
         11    1    3    3    0    0 -0.21671740853E+02  0.13608750379E+01  0.28225352214E+02  0.35611611032E+02  0.51100000000E-03 0. -1.
        -11    1    3    3    0    0 -0.58138242952E+01  0.38017234506E+01  0.70412797034E+01  0.98910704301E+01  0.51100000000E-03 0.  1.
        -12    1    3    3    0    0  0.27981359788E+02 -0.52848822913E+01 -0.34202677417E+02  0.44505163958E+02  0.00000000000E+00 0.  1.
</event>
<event>
 7    1  0.1935465E-015  0.9000808E+02  0.7816164E-02  0.1186338E+00
        -11   -1    0    0    0    0  0.00000000000E+00  0.00000000000E+00  0.45593999997E+02  0.45594000000E+02  0.51100000000E-03 0.  1.
         11   -1    0    0    0    0 -0.00000000000E+00 -0.00000000000E+00 -0.45593999997E+02  0.45594000000E+02  0.51100000000E-03 0. -1.
    9900012    2    1    2    0    0  0.10930369748E-01  0.11795078140E+01  0.29042529662E-01  0.90008084060E+02  0.90000349969E+02 0.  0.
         12    1    1    2    0    0 -0.10930369748E-01 -0.11795078140E+01 -0.29042529662E-01  0.11799159397E+01  0.00000000000E+00 0. -1.
         11    1    3    3    0    0 -0.40173047486E+01 -0.13022348692E+02 -0.62421249962E+01  0.14989477230E+02  0.51100000000E-03 0. -1.
        -11    1    3    3    0    0  0.15512577599E+02  0.26305556840E+02 -0.25071154046E+02  0.39511835567E+02  0.51100000000E-03 0.  1.
         12    1    3    3    0    0 -0.11484342481E+02 -0.12103700335E+02  0.31342321572E+02  0.35506771263E+02  0.00000000000E+00 0. -1.
</event>
<event>
 7    1  0.1935465E-015  0.9000775E+02  0.7816164E-02  0.1186339E+00
        -11   -1    0    0    0    0  0.00000000000E+00  0.00000000000E+00  0.45593999997E+02  0.45594000000E+02  0.51100000000E-03 0.  1.
         11   -1    0    0    0    0 -0.00000000000E+00 -0.00000000000E+00 -0.45593999997E+02  0.45594000000E+02  0.51100000000E-03 0. -1.
    9900012    2    1    2    0    0 -0.73197958035E+00 -0.74236445303E+00  0.55325674649E+00  0.90007749131E+02  0.90000010619E+02 0.  0.
         12    1    1    2    0    0  0.73197958035E+00  0.74236445303E+00 -0.55325674649E+00  0.11802508694E+01  0.00000000000E+00 0. -1.
         11    1    3    3    0    0 -0.83592485619E+01  0.16616714996E+01  0.51634205759E+01  0.99648934263E+01  0.51100000000E-03 0. -1.
        -11    1    3    3    0    0 -0.18037746926E+02  0.51521474798E+01  0.30556872859E+02  0.35855646933E+02  0.51100000000E-03 0.  1.
         12    1    3    3    0    0  0.25665015907E+02 -0.75561834325E+01 -0.35167036688E+02  0.44187208771E+02  0.00000000000E+00 0. -1.
</event>
<event>
 7    1  0.1935465E-015  0.9000844E+02  0.7816164E-02  0.1186338E+00
        -11   -1    0    0    0    0  0.00000000000E+00  0.00000000000E+00  0.45593999997E+02  0.45594000000E+02  0.51100000000E-03 0.  1.
         11   -1    0    0    0    0 -0.00000000000E+00 -0.00000000000E+00 -0.45593999997E+02  0.45594000000E+02  0.51100000000E-03 0. -1.
    9900012    2    1    2    0    0  0.31012411062E+00 -0.10357938123E+01  0.47150085365E+00  0.90008441252E+02  0.90000711873E+02 0.  0.
         12    1    1    2    0    0 -0.31012411062E+00  0.10357938123E+01 -0.47150085365E+00  0.11795587483E+01  0.00000000000E+00 0. -1.
         11    1    3    3    0    0  0.56161474533E+01 -0.31631425127E+01  0.57292943516E+01  0.86238852497E+01  0.51100000000E-03 0. -1.
        -11    1    3    3    0    0  0.17846709568E+02 -0.31819154261E+02  0.95430525925E+01  0.37709859100E+02  0.51100000000E-03 0.  1.
         12    1    3    3    0    0 -0.23152732910E+02  0.33946502961E+02 -0.14800846090E+02  0.43674696902E+02  0.00000000000E+00 0. -1.
</event>
<event>
 7    1  0.1935465E-015  0.9000773E+02  0.7816164E-02  0.1186339E+00
        -11   -1    0    0    0    0  0.00000000000E+00  0.00000000000E+00  0.45593999997E+02  0.45594000000E+02  0.51100000000E-03 0.  1.
         11   -1    0    0    0    0 -0.00000000000E+00 -0.00000000000E+00 -0.45593999997E+02  0.45594000000E+02  0.51100000000E-03 0. -1.
    9900012    2    1    2    0    0 -0.25912309891E+00  0.11412739354E+01  0.15293166534E+00  0.90007729239E+02  0.89999990465E+02 0.  0.
         12    1    1    2    0    0  0.25912309891E+00 -0.11412739354E+01 -0.15293166534E+00  0.11802707614E+01  0.00000000000E+00 0. -1.
         11    1    3    3    0    0 -0.10272244689E+02  0.40961164680E+02 -0.32564918299E+00  0.42230818966E+02  0.51100000000E-03 0. -1.
        -11    1    3    3    0    0  0.39744075775E+01 -0.32058090563E+01  0.84018061897E+01  0.98317584799E+01  0.51100000000E-03 0.  1.
        -12    1    3    3    0    0  0.60387140126E+01 -0.36614081688E+02 -0.79232253413E+01  0.37945151793E+02  0.00000000000E+00 0.  1.
</event>
<event>
 7    1  0.1935465E-015  0.9000784E+02  0.7816164E-02  0.1186339E+00
        -11   -1    0    0    0    0  0.00000000000E+00  0.00000000000E+00  0.45593999997E+02  0.45594000000E+02  0.51100000000E-03 0.  1.
         11   -1    0    0    0    0 -0.00000000000E+00 -0.00000000000E+00 -0.45593999997E+02  0.45594000000E+02  0.51100000000E-03 0. -1.
    9900012    2    1    2    0    0  0.34206165092E-02  0.74253990673E+00  0.91728430181E+00  0.90007835730E+02  0.90000098362E+02 0.  0.
         12    1    1    2    0    0 -0.34206165092E-02 -0.74253990673E+00 -0.91728430181E+00  0.11801642699E+01  0.00000000000E+00 0. -1.
         11    1    3    3    0    0  0.60540695622E+01  0.14025997675E+02  0.91127161456E+01  0.17788253564E+02  0.51100000000E-03 0. -1.
        -11    1    3    3    0    0  0.31088267696E+02 -0.63433287829E+01  0.51621909491E+01  0.32146017235E+02  0.51100000000E-03 0.  1.
         12    1    3    3    0    0 -0.37138916642E+02 -0.69401289849E+01 -0.13357622793E+02  0.40073564932E+02  0.00000000000E+00 0. -1.
</event>
<event>
 7    1  0.1935465E-015  0.9000768E+02  0.7816164E-02  0.1186339E+00
        -11   -1    0    0    0    0  0.00000000000E+00  0.00000000000E+00  0.45593999997E+02  0.45594000000E+02  0.51100000000E-03 0.  1.
         11   -1    0    0    0    0 -0.00000000000E+00 -0.00000000000E+00 -0.45593999997E+02  0.45594000000E+02  0.51100000000E-03 0. -1.
    9900012    2    1    2    0    0  0.10093809721E+01  0.48755710400E+00  0.36959182269E+00  0.90007678013E+02  0.89999938563E+02 0.  0.
         12    1    1    2    0    0 -0.10093809721E+01 -0.48755710400E+00 -0.36959182269E+00  0.11803219865E+01  0.00000000000E+00 0. -1.
         11    1    3    3    0    0  0.28583600032E+02  0.28076095070E+02  0.20607756013E+00  0.40066591736E+02  0.51100000000E-03 0. -1.
        -11    1    3    3    0    0  0.21796956512E+01 -0.23781105443E+01  0.93369113092E+01  0.98784814597E+01  0.51100000000E-03 0.  1.
        -12    1    3    3    0    0 -0.29753914711E+02 -0.25210427421E+02 -0.91733970467E+01  0.40062604818E+02  0.00000000000E+00 0.  1.
</event>
<event>
 7    1  0.1935465E-015  0.9000762E+02  0.7816164E-02  0.1186339E+00
        -11   -1    0    0    0    0  0.00000000000E+00  0.00000000000E+00  0.45593999997E+02  0.45594000000E+02  0.51100000000E-03 0.  1.
         11   -1    0    0    0    0 -0.00000000000E+00 -0.00000000000E+00 -0.45593999997E+02  0.45594000000E+02  0.51100000000E-03 0. -1.
    9900012    2    1    2    0    0  0.30027350707E+00  0.11379539697E+01  0.90559523423E-01  0.90007616823E+02  0.89999876565E+02 0.  0.
         12    1    1    2    0    0 -0.30027350707E+00 -0.11379539697E+01 -0.90559523423E-01  0.11803831766E+01  0.00000000000E+00 0. -1.
         11    1    3    3    0    0  0.10163248117E+02 -0.12719226419E+02  0.18990301782E+02  0.25014033961E+02  0.51100000000E-03 0. -1.
        -11    1    3    3    0    0 -0.13809471926E+02  0.23688161553E+02  0.13745903432E+02  0.30672143291E+02  0.51100000000E-03 0.  1.
         12    1    3    3    0    0  0.39464973162E+01 -0.98309811647E+01 -0.32645645690E+02  0.34321439571E+02  0.00000000000E+00 0. -1.
</event>
<event>
 7    1  0.1935465E-015  0.9000772E+02  0.7816164E-02  0.1186339E+00
        -11   -1    0    0    0    0  0.00000000000E+00  0.00000000000E+00  0.45593999997E+02  0.45594000000E+02  0.51100000000E-03 0.  1.
         11   -1    0    0    0    0 -0.00000000000E+00 -0.00000000000E+00 -0.45593999997E+02  0.45594000000E+02  0.51100000000E-03 0. -1.
    9900012    2    1    2    0    0 -0.36425754659E+00  0.64009687535E+00  0.92230493984E+00  0.90007722926E+02  0.89999984068E+02 0.  0.
         12    1    1    2    0    0  0.36425754659E+00 -0.64009687535E+00 -0.92230493984E+00  0.11802770743E+01  0.00000000000E+00 0. -1.
         11    1    3    3    0    0 -0.28284140113E+01  0.67083601248E+01 -0.36614478171E+02  0.37331247413E+02  0.51100000000E-03 0. -1.
        -11    1    3    3    0    0  0.15924832769E+02 -0.33292788122E+01  0.44730847983E+01  0.16872844574E+02  0.51100000000E-03 0.  1.
        -12    1    3    3    0    0 -0.13460676304E+02 -0.27389844373E+01  0.33063698313E+02  0.35803630939E+02  0.00000000000E+00 0.  1.
</event>
<event>
 7    1  0.1935465E-015  0.9000776E+02  0.7816164E-02  0.1186339E+00
        -11   -1    0    0    0    0  0.00000000000E+00  0.00000000000E+00  0.45593999997E+02  0.45594000000E+02  0.51100000000E-03 0. -1.
         11   -1    0    0    0    0 -0.00000000000E+00 -0.00000000000E+00 -0.45593999997E+02  0.45594000000E+02  0.51100000000E-03 0.  1.
    9900012    2    1    2    0    0  0.10681193618E+01 -0.35935547574E+00  0.35063048560E+00  0.90007763978E+02  0.90000025663E+02 0.  0.
         12    1    1    2    0    0 -0.10681193618E+01  0.35935547574E+00 -0.35063048560E+00  0.11802360215E+01  0.00000000000E+00 0. -1.
         11    1    3    3    0    0 -0.79733857496E+01  0.37027145701E+02  0.69479269235E+01  0.38507896435E+02  0.51100000000E-03 0. -1.
        -11    1    3    3    0    0  0.90568558290E+01  0.38005726699E+01 -0.23124115454E+01  0.10090502343E+02  0.51100000000E-03 0.  1.
        -12    1    3    3    0    0 -0.15350717630E-01 -0.41187073847E+02 -0.42848848925E+01  0.41409365200E+02  0.00000000000E+00 0.  1.
</event>
<event>
 7    1  0.1935465E-015  0.9000775E+02  0.7816164E-02  0.1186339E+00
        -11   -1    0    0    0    0  0.00000000000E+00  0.00000000000E+00  0.45593999997E+02  0.45594000000E+02  0.51100000000E-03 0.  1.
         11   -1    0    0    0    0 -0.00000000000E+00 -0.00000000000E+00 -0.45593999997E+02  0.45594000000E+02  0.51100000000E-03 0. -1.
    9900012    2    1    2    0    0 -0.64814080553E+00  0.95799454275E+00  0.23485360156E+00  0.90007747374E+02  0.90000008839E+02 0.  0.
         12    1    1    2    0    0  0.64814080553E+00 -0.95799454275E+00 -0.23485360156E+00  0.11802526263E+01  0.00000000000E+00 0. -1.
         11    1    3    3    0    0  0.23893526655E+02  0.20964782438E+02  0.40595971623E+01  0.32045328023E+02  0.51100000000E-03 0. -1.
        -11    1    3    3    0    0  0.91594610579E+01 -0.24143227269E+01  0.13249799545E+02  0.16287475843E+02  0.51100000000E-03 0.  1.
         12    1    3    3    0    0 -0.33701128519E+02 -0.17592465168E+02 -0.17074543105E+02  0.41674943508E+02  0.00000000000E+00 0. -1.
</event>
<event>
 7    1  0.1935465E-015  0.9000789E+02  0.7816164E-02  0.1186339E+00
        -11   -1    0    0    0    0  0.00000000000E+00  0.00000000000E+00  0.45593999997E+02  0.45594000000E+02  0.51100000000E-03 0.  1.
         11   -1    0    0    0    0 -0.00000000000E+00 -0.00000000000E+00 -0.45593999997E+02  0.45594000000E+02  0.51100000000E-03 0. -1.
    9900012    2    1    2    0    0  0.27277731499E+00 -0.40110445893E+00  0.10758145490E+01  0.90007885940E+02  0.90000149234E+02 0.  0.
         12    1    1    2    0    0 -0.27277731499E+00  0.40110445893E+00 -0.10758145490E+01  0.11801140599E+01  0.00000000000E+00 0. -1.
         11    1    3    3    0    0  0.16668393006E+02 -0.32056337063E+02 -0.79094340669E+01  0.36986527531E+02  0.51100000000E-03 0. -1.
        -11    1    3    3    0    0  0.94305198972E+01  0.12181172274E+00  0.78093067697E+01  0.12244787304E+02  0.51100000000E-03 0.  1.
        -12    1    3    3    0    0 -0.25826135589E+02  0.31533420881E+02  0.11759418462E+01  0.40776571105E+02  0.00000000000E+00 0.  1.
</event>
<event>
 7    1  0.1935465E-015  0.9000771E+02  0.7816164E-02  0.1186339E+00
        -11   -1    0    0    0    0  0.00000000000E+00  0.00000000000E+00  0.45593999997E+02  0.45594000000E+02  0.51100000000E-03 0.  1.
         11   -1    0    0    0    0 -0.00000000000E+00 -0.00000000000E+00 -0.45593999997E+02  0.45594000000E+02  0.51100000000E-03 0. -1.
    9900012    2    1    2    0    0 -0.74314837660E+00 -0.81966558486E+00  0.41105489182E+00  0.90007708805E+02  0.89999969761E+02 0.  0.
         12    1    1    2    0    0  0.74314837660E+00  0.81966558486E+00 -0.41105489182E+00  0.11802911949E+01  0.00000000000E+00 0. -1.
         11    1    3    3    0    0 -0.15905153242E+02 -0.22723133878E+02  0.94546733012E+01  0.29303678274E+02  0.51100000000E-03 0. -1.
        -11    1    3    3    0    0  0.11460857337E+02 -0.80123046210E+01  0.16189658481E+02  0.21392833338E+02  0.51100000000E-03 0.  1.
        -12    1    3    3    0    0  0.37011475279E+01  0.29915772914E+02 -0.25233276891E+02  0.39311197193E+02  0.00000000000E+00 0.  1.
</event>
<event>
 7    1  0.1935465E-015  0.9000791E+02  0.7816164E-02  0.1186339E+00
        -11   -1    0    0    0    0  0.00000000000E+00  0.00000000000E+00  0.45593999997E+02  0.45594000000E+02  0.51100000000E-03 0. -1.
         11   -1    0    0    0    0 -0.00000000000E+00 -0.00000000000E+00 -0.45593999997E+02  0.45594000000E+02  0.51100000000E-03 0.  1.
    9900012    2    1    2    0    0  0.71737202071E+00  0.70900462677E+00 -0.61261745090E+00  0.90007910886E+02  0.90000174509E+02 0.  0.
         12    1    1    2    0    0 -0.71737202071E+00 -0.70900462677E+00  0.61261745090E+00  0.11800891144E+01  0.00000000000E+00 0. -1.
         11    1    3    3    0    0 -0.58028394191E+01 -0.63391529860E+01 -0.42790493811E+01  0.96004202913E+01  0.51100000000E-03 0. -1.
        -11    1    3    3    0    0  0.74010218927E+01 -0.35765677240E+02  0.79251822764E+01  0.37373350236E+02  0.51100000000E-03 0.  1.
         12    1    3    3    0    0 -0.88081045294E+00  0.42813834853E+02 -0.42587503462E+01  0.43034140358E+02  0.00000000000E+00 0. -1.
</event>
<event>
 7    1  0.1935465E-015  0.9000771E+02  0.7816164E-02  0.1186339E+00
        -11   -1    0    0    0    0  0.00000000000E+00  0.00000000000E+00  0.45593999997E+02  0.45594000000E+02  0.51100000000E-03 0. -1.
         11   -1    0    0    0    0 -0.00000000000E+00 -0.00000000000E+00 -0.45593999997E+02  0.45594000000E+02  0.51100000000E-03 0.  1.
    9900012    2    1    2    0    0  0.36044363409E+00  0.11149139168E+01 -0.14188906035E+00  0.90007709713E+02  0.89999970682E+02 0.  0.
         12    1    1    2    0    0 -0.36044363409E+00 -0.11149139168E+01  0.14188906035E+00  0.11802902866E+01  0.00000000000E+00 0. -1.
         11    1    3    3    0    0 -0.10517093336E+02  0.26152626100E+02  0.28050042372E+02  0.39766493201E+02  0.51100000000E-03 0. -1.
        -11    1    3    3    0    0  0.71595068130E+01  0.12717631835E+01  0.41592094302E+01  0.83770485701E+01  0.51100000000E-03 0.  1.
        -12    1    3    3    0    0  0.37180301566E+01 -0.26309475367E+02 -0.32351140863E+02  0.41864167942E+02  0.00000000000E+00 0.  1.
</event>
<event>
 7    1  0.1935465E-015  0.9000788E+02  0.7816164E-02  0.1186339E+00
        -11   -1    0    0    0    0  0.00000000000E+00  0.00000000000E+00  0.45593999997E+02  0.45594000000E+02  0.51100000000E-03 0.  1.
         11   -1    0    0    0    0 -0.00000000000E+00 -0.00000000000E+00 -0.45593999997E+02  0.45594000000E+02  0.51100000000E-03 0. -1.
    9900012    2    1    2    0    0 -0.39589116940E+00 -0.10961606748E+01  0.18545020002E+00  0.90007877201E+02  0.90000140380E+02 0.  0.
         12    1    1    2    0    0  0.39589116940E+00  0.10961606748E+01 -0.18545020002E+00  0.11801227985E+01  0.00000000000E+00 0. -1.
         11    1    3    3    0    0 -0.69497401511E+00 -0.30370061325E+01 -0.25125322726E+02  0.25317745506E+02  0.51100000000E-03 0. -1.
        -11    1    3    3    0    0  0.25614829598E+02 -0.11923487828E+02  0.34116766157E+01  0.28459244454E+02  0.51100000000E-03 0.  1.
         12    1    3    3    0    0 -0.25315746752E+02  0.13864333286E+02  0.21899096311E+02  0.36230887241E+02  0.00000000000E+00 0. -1.
</event>
<event>
 7    1  0.1935465E-015  0.9000765E+02  0.7816164E-02  0.1186339E+00
        -11   -1    0    0    0    0  0.00000000000E+00  0.00000000000E+00  0.45593999997E+02  0.45594000000E+02  0.51100000000E-03 0.  1.
         11   -1    0    0    0    0 -0.00000000000E+00 -0.00000000000E+00 -0.45593999997E+02  0.45594000000E+02  0.51100000000E-03 0. -1.
    9900012    2    1    2    0    0 -0.87828413062E+00 -0.77552789883E+00  0.14281236052E+00  0.90007651786E+02  0.89999911990E+02 0.  0.
         12    1    1    2    0    0  0.87828413062E+00  0.77552789883E+00 -0.14281236052E+00  0.11803482140E+01  0.00000000000E+00 0. -1.
         11    1    3    3    0    0 -0.59086431465E+01 -0.26465732631E+01  0.81320114192E+01  0.10394518933E+02  0.51100000000E-03 0. -1.
        -11    1    3    3    0    0 -0.12034636857E+02 -0.14635301277E+02  0.29605172421E+02  0.35149548533E+02  0.51100000000E-03 0.  1.
         12    1    3    3    0    0  0.17064995873E+02  0.16506346642E+02 -0.37594371479E+02  0.44463584320E+02  0.00000000000E+00 0. -1.
</event>
<event>
 7    1  0.1935465E-015  0.9000762E+02  0.7816164E-02  0.1186339E+00
        -11   -1    0    0    0    0  0.00000000000E+00  0.00000000000E+00  0.45593999997E+02  0.45594000000E+02  0.51100000000E-03 0.  1.
         11   -1    0    0    0    0 -0.00000000000E+00 -0.00000000000E+00 -0.45593999997E+02  0.45594000000E+02  0.51100000000E-03 0. -1.
    9900012    2    1    2    0    0 -0.51016689319E+00  0.91089369174E+00  0.55071746583E+00  0.90007624084E+02  0.89999883922E+02 0.  0.
         12    1    1    2    0    0  0.51016689319E+00 -0.91089369174E+00 -0.55071746583E+00  0.11803759163E+01  0.00000000000E+00 0. -1.
         11    1    3    3    0    0 -0.38733544148E+01 -0.89129159984E+01 -0.35540501916E+02  0.36845219808E+02  0.51100000000E-03 0. -1.
        -11    1    3    3    0    0 -0.57032548177E+01 -0.65637537125E+01 -0.34934079196E+01  0.93709059043E+01  0.51100000000E-03 0.  1.
        -12    1    3    3    0    0  0.90664423393E+01  0.16387563403E+02  0.39584627302E+02  0.43791498371E+02  0.00000000000E+00 0.  1.
</event>
<event>
 7    1  0.1935465E-015  0.9000780E+02  0.7816164E-02  0.1186339E+00
        -11   -1    0    0    0    0  0.00000000000E+00  0.00000000000E+00  0.45593999997E+02  0.45594000000E+02  0.51100000000E-03 0. -1.
         11   -1    0    0    0    0 -0.00000000000E+00 -0.00000000000E+00 -0.45593999997E+02  0.45594000000E+02  0.51100000000E-03 0.  1.
    9900012    2    1    2    0    0 -0.11049690349E+01 -0.47216867043E-01  0.41192689424E+00  0.90007800963E+02  0.90000063136E+02 0.  0.
         12    1    1    2    0    0  0.11049690349E+01  0.47216867043E-01 -0.41192689424E+00  0.11801990369E+01  0.00000000000E+00 0. -1.
         11    1    3    3    0    0  0.14094889437E+01  0.58396651920E+01  0.24317204331E+02  0.25048248949E+02  0.51100000000E-03 0. -1.
        -11    1    3    3    0    0  0.17971244608E+01  0.10110468693E+02  0.17540208638E+02  0.20325111386E+02  0.51100000000E-03 0.  1.
        -12    1    3    3    0    0 -0.43115824394E+01 -0.15997350752E+02 -0.41445486075E+02  0.44634440629E+02  0.00000000000E+00 0.  1.
</event>
<event>
 7    1  0.1935465E-015  0.9000778E+02  0.7816164E-02  0.1186339E+00
        -11   -1    0    0    0    0  0.00000000000E+00  0.00000000000E+00  0.45593999997E+02  0.45594000000E+02  0.51100000000E-03 0. -1.
         11   -1    0    0    0    0 -0.00000000000E+00 -0.00000000000E+00 -0.45593999997E+02  0.45594000000E+02  0.51100000000E-03 0.  1.
    9900012    2    1    2    0    0 -0.99689186087E+00 -0.34414090479E+00  0.52981026330E+00  0.90007777453E+02  0.90000039316E+02 0.  0.
         12    1    1    2    0    0  0.99689186087E+00  0.34414090479E+00 -0.52981026330E+00  0.11802225467E+01  0.00000000000E+00 0. -1.
         11    1    3    3    0    0 -0.36100099861E+02  0.34240111652E+01  0.21594036435E+02  0.42204780206E+02  0.51100000000E-03 0. -1.
        -11    1    3    3    0    0 -0.81922519167E+00  0.39075726249E+01 -0.77741055307E+01  0.87393919009E+01  0.51100000000E-03 0.  1.
        -12    1    3    3    0    0  0.35922433192E+02 -0.76757246949E+01 -0.13290120641E+02  0.39063605346E+02  0.00000000000E+00 0.  1.
</event>
<event>
 7    1  0.1935465E-015  0.9000766E+02  0.7816164E-02  0.1186339E+00
        -11   -1    0    0    0    0  0.00000000000E+00  0.00000000000E+00  0.45593999997E+02  0.45594000000E+02  0.51100000000E-03 0. -1.
         11   -1    0    0    0    0 -0.00000000000E+00 -0.00000000000E+00 -0.45593999997E+02  0.45594000000E+02  0.51100000000E-03 0.  1.
    9900012    2    1    2    0    0  0.34397927243E+00  0.11073661711E+01 -0.22047952546E+00  0.90007664116E+02  0.89999924483E+02 0.  0.
         12    1    1    2    0    0 -0.34397927243E+00 -0.11073661711E+01  0.22047952546E+00  0.11803358835E+01  0.00000000000E+00 0. -1.
         11    1    3    3    0    0 -0.75002852692E+01  0.17562265724E+02  0.29026772199E+02  0.34745373232E+02  0.51100000000E-03 0. -1.
        -11    1    3    3    0    0  0.21229310624E+01  0.61551100350E+01  0.86117320733E+01  0.10796024518E+02  0.51100000000E-03 0.  1.
        -12    1    3    3    0    0  0.57213334792E+01 -0.22610009588E+02 -0.37858983798E+02  0.44466266366E+02  0.00000000000E+00 0.  1.
</event>
<event>
 7    1  0.1935465E-015  0.9000773E+02  0.7816164E-02  0.1186339E+00
        -11   -1    0    0    0    0  0.00000000000E+00  0.00000000000E+00  0.45593999997E+02  0.45594000000E+02  0.51100000000E-03 0.  1.
         11   -1    0    0    0    0 -0.00000000000E+00 -0.00000000000E+00 -0.45593999997E+02  0.45594000000E+02  0.51100000000E-03 0. -1.
    9900012    2    1    2    0    0 -0.89124954831E+00  0.77078373492E+00  0.67832567526E-01  0.90007731141E+02  0.89999992392E+02 0.  0.
         12    1    1    2    0    0  0.89124954831E+00 -0.77078373492E+00 -0.67832567526E-01  0.11802688595E+01  0.00000000000E+00 0. -1.
         11    1    3    3    0    0  0.34027505170E+02  0.44097414501E+01  0.19051463728E+02  0.39246339934E+02  0.51100000000E-03 0. -1.
        -11    1    3    3    0    0 -0.11284597938E+01  0.93920585568E+01  0.80141006883E+00  0.94934948149E+01  0.51100000000E-03 0.  1.
        -12    1    3    3    0    0 -0.33790294925E+02 -0.13031016272E+02 -0.19785041229E+02  0.41267896392E+02  0.00000000000E+00 0.  1.
</event>
<event>
 7    1  0.1935465E-015  0.9000779E+02  0.7816164E-02  0.1186339E+00
        -11   -1    0    0    0    0  0.00000000000E+00  0.00000000000E+00  0.45593999997E+02  0.45594000000E+02  0.51100000000E-03 0. -1.
         11   -1    0    0    0    0 -0.00000000000E+00 -0.00000000000E+00 -0.45593999997E+02  0.45594000000E+02  0.51100000000E-03 0.  1.
    9900012    2    1    2    0    0 -0.11570922659E+01 -0.11324386621E+00  0.20299073056E+00  0.90007791577E+02  0.90000053626E+02 0.  0.
         12    1    1    2    0    0  0.11570922659E+01  0.11324386621E+00 -0.20299073056E+00  0.11802084230E+01  0.00000000000E+00 0. -1.
         11    1    3    3    0    0  0.44374189371E+01 -0.12131540384E+02 -0.15440402045E+02  0.20131343087E+02  0.51100000000E-03 0. -1.
        -11    1    3    3    0    0  0.56758130791E+01 -0.26215153423E+02 -0.61149275867E+00  0.26829518199E+02  0.51100000000E-03 0.  1.
         12    1    3    3    0    0 -0.11270324282E+02  0.38233449941E+02  0.16254885534E+02  0.43046930292E+02  0.00000000000E+00 0. -1.
</event>
<event>
 7    1  0.1935465E-015  0.9000785E+02  0.7816164E-02  0.1186339E+00
        -11   -1    0    0    0    0  0.00000000000E+00  0.00000000000E+00  0.45593999997E+02  0.45594000000E+02  0.51100000000E-03 0.  1.
         11   -1    0    0    0    0 -0.00000000000E+00 -0.00000000000E+00 -0.45593999997E+02  0.45594000000E+02  0.51100000000E-03 0. -1.
    9900012    2    1    2    0    0 -0.10981081769E+01  0.43196097181E+00  0.18258517268E-01  0.90007845255E+02  0.90000108012E+02 0.  0.
         12    1    1    2    0    0  0.10981081769E+01 -0.43196097181E+00 -0.18258517268E-01  0.11801547453E+01  0.00000000000E+00 0. -1.
         11    1    3    3    0    0 -0.28738279862E+02  0.12200965117E+01 -0.21747750262E+02  0.36060255222E+02  0.51100000000E-03 0. -1.
        -11    1    3    3    0    0 -0.63780121692E+01 -0.81627020105E+01 -0.35019408556E+01  0.10934913505E+02  0.51100000000E-03 0.  1.
        -12    1    3    3    0    0  0.34018183854E+02  0.73745664706E+01  0.25267949635E+02  0.43012676528E+02  0.00000000000E+00 0.  1.
</event>
<event>
 7    1  0.1935465E-015  0.9000774E+02  0.7816164E-02  0.1186339E+00
        -11   -1    0    0    0    0  0.00000000000E+00  0.00000000000E+00  0.45593999997E+02  0.45594000000E+02  0.51100000000E-03 0.  1.
         11   -1    0    0    0    0 -0.00000000000E+00 -0.00000000000E+00 -0.45593999997E+02  0.45594000000E+02  0.51100000000E-03 0. -1.
    9900012    2    1    2    0    0  0.86391383872E+00  0.27926467551E+00  0.75410028845E+00  0.90007744466E+02  0.90000005893E+02 0.  0.
         12    1    1    2    0    0 -0.86391383872E+00 -0.27926467551E+00 -0.75410028845E+00  0.11802555337E+01  0.00000000000E+00 0. -1.
         11    1    3    3    0    0  0.69571678191E+01 -0.45627769317E+01  0.25950355408E+01  0.87152353445E+01  0.51100000000E-03 0. -1.
        -11    1    3    3    0    0  0.17923128055E+02 -0.26487846043E+02  0.18434169847E+02  0.36914267235E+02  0.51100000000E-03 0.  1.
         12    1    3    3    0    0 -0.24016382035E+02  0.31329887650E+02 -0.20275105099E+02  0.44378241887E+02  0.00000000000E+00 0. -1.
</event>
<event>
 7    1  0.1935465E-015  0.9000694E+02  0.7816164E-02  0.1186341E+00
        -11   -1    0    0    0    0  0.00000000000E+00  0.00000000000E+00  0.45593999997E+02  0.45594000000E+02  0.51100000000E-03 0.  1.
         11   -1    0    0    0    0 -0.00000000000E+00 -0.00000000000E+00 -0.45593999997E+02  0.45594000000E+02  0.51100000000E-03 0. -1.
    9900012    2    1    2    0    0 -0.64345881642E-01  0.11380325585E+01  0.30925837208E+00  0.90006941476E+02  0.89999192300E+02 0.  0.
         12    1    1    2    0    0  0.64345881642E-01 -0.11380325585E+01 -0.30925837208E+00  0.11810585241E+01  0.00000000000E+00 0. -1.
         11    1    3    3    0    0  0.10504615614E+02  0.18475656578E+02  0.15732489786E+02  0.26442542811E+02  0.51100000000E-03 0. -1.
        -11    1    3    3    0    0  0.22874745754E+02  0.55654570517E+00 -0.74585176594E+00  0.22893667936E+02  0.51100000000E-03 0.  1.
        -12    1    3    3    0    0 -0.33443707250E+02 -0.17894169725E+02 -0.14677379648E+02  0.40670730729E+02  0.00000000000E+00 0.  1.
</event>
<event>
 7    1  0.1935465E-015  0.9000776E+02  0.7816164E-02  0.1186339E+00
        -11   -1    0    0    0    0  0.00000000000E+00  0.00000000000E+00  0.45593999997E+02  0.45594000000E+02  0.51100000000E-03 0.  1.
         11   -1    0    0    0    0 -0.00000000000E+00 -0.00000000000E+00 -0.45593999997E+02  0.45594000000E+02  0.51100000000E-03 0. -1.
    9900012    2    1    2    0    0  0.90703566613E-01 -0.36444072963E+00  0.11188967816E+01  0.90007756724E+02  0.90000018313E+02 0.  0.
         12    1    1    2    0    0 -0.90703566613E-01  0.36444072963E+00 -0.11188967816E+01  0.11802432759E+01  0.00000000000E+00 0. -1.
         11    1    3    3    0    0 -0.16174044958E+02  0.17014699086E+02 -0.28007439245E+02  0.36544717383E+02  0.51100000000E-03 0. -1.
        -11    1    3    3    0    0 -0.81016212192E+01  0.54309012569E+01  0.98004091726E+00  0.98026238989E+01  0.51100000000E-03 0.  1.
        -12    1    3    3    0    0  0.24366369744E+02 -0.22810041073E+02  0.28146295109E+02  0.43660415442E+02  0.00000000000E+00 0.  1.
</event>
<event>
 7    1  0.1935465E-015  0.9000768E+02  0.7816164E-02  0.1186339E+00
        -11   -1    0    0    0    0  0.00000000000E+00  0.00000000000E+00  0.45593999997E+02  0.45594000000E+02  0.51100000000E-03 0.  1.
         11   -1    0    0    0    0 -0.00000000000E+00 -0.00000000000E+00 -0.45593999997E+02  0.45594000000E+02  0.51100000000E-03 0. -1.
    9900012    2    1    2    0    0  0.41309494766E+00 -0.10286808907E+01  0.40537387904E+00  0.90007678098E+02  0.89999938649E+02 0.  0.
         12    1    1    2    0    0 -0.41309494766E+00  0.10286808907E+01 -0.40537387904E+00  0.11803219020E+01  0.00000000000E+00 0. -1.
         11    1    3    3    0    0  0.19049972246E+02  0.21819802924E+02 -0.25096841226E+02  0.38325666100E+02  0.51100000000E-03 0. -1.
        -11    1    3    3    0    0  0.42058537219E+01  0.64697660063E+01  0.33315986196E+01  0.84051548070E+01  0.51100000000E-03 0.  1.
        -12    1    3    3    0    0 -0.22842731020E+02 -0.29318249821E+02  0.22170616486E+02  0.43276857191E+02  0.00000000000E+00 0.  1.
</event>
<event>
 7    1  0.1935465E-015  0.9000738E+02  0.7816164E-02  0.1186340E+00
        -11   -1    0    0    0    0  0.00000000000E+00  0.00000000000E+00  0.45593999997E+02  0.45594000000E+02  0.51100000000E-03 0.  1.
         11   -1    0    0    0    0 -0.00000000000E+00 -0.00000000000E+00 -0.45593999997E+02  0.45594000000E+02  0.51100000000E-03 0. -1.
    9900012    2    1    2    0    0  0.10702304780E+01 -0.46073967389E+00 -0.19023041482E+00  0.90007380699E+02  0.89999637324E+02 0.  0.
         12    1    1    2    0    0 -0.10702304780E+01  0.46073967389E+00  0.19023041482E+00  0.11806193010E+01  0.00000000000E+00 0. -1.
         11    1    3    3    0    0  0.70689066368E+01  0.64887250844E+01  0.49945737392E+01  0.10817521036E+02  0.51100000000E-03 0. -1.
        -11    1    3    3    0    0  0.11121613566E+01  0.16311565109E+02  0.31316023160E+02  0.35327006185E+02  0.51100000000E-03 0.  1.
         12    1    3    3    0    0 -0.71108375153E+01 -0.23261029867E+02 -0.36500827314E+02  0.43862853478E+02  0.00000000000E+00 0. -1.
</event>
<event>
 7    1  0.1935465E-015  0.9000783E+02  0.7816164E-02  0.1186339E+00
        -11   -1    0    0    0    0  0.00000000000E+00  0.00000000000E+00  0.45593999997E+02  0.45594000000E+02  0.51100000000E-03 0.  1.
         11   -1    0    0    0    0 -0.00000000000E+00 -0.00000000000E+00 -0.45593999997E+02  0.45594000000E+02  0.51100000000E-03 0. -1.
    9900012    2    1    2    0    0 -0.17215093632E+00  0.11629898576E+01 -0.10307286689E+00  0.90007828246E+02  0.90000090778E+02 0.  0.
         12    1    1    2    0    0  0.17215093632E+00 -0.11629898576E+01  0.10307286689E+00  0.11801717543E+01  0.00000000000E+00 0. -1.
         11    1    3    3    0    0  0.52967672349E+01 -0.54478051996E+01  0.68148222273E+01  0.10206670705E+02  0.51100000000E-03 0. -1.
        -11    1    3    3    0    0 -0.31222737485E+02 -0.20532125774E+02  0.10080255037E+02  0.38704509643E+02  0.51100000000E-03 0.  1.
         12    1    3    3    0    0  0.25753819314E+02  0.27142920831E+02 -0.16998150131E+02  0.41096647897E+02  0.00000000000E+00 0. -1.
</event>
<event>
 7    1  0.1935465E-015  0.9000773E+02  0.7816164E-02  0.1186339E+00
        -11   -1    0    0    0    0  0.00000000000E+00  0.00000000000E+00  0.45593999997E+02  0.45594000000E+02  0.51100000000E-03 0. -1.
         11   -1    0    0    0    0 -0.00000000000E+00 -0.00000000000E+00 -0.45593999997E+02  0.45594000000E+02  0.51100000000E-03 0.  1.
    9900012    2    1    2    0    0  0.38874808797E+00 -0.95502092463E+00 -0.57432300543E+00  0.90007730134E+02  0.89999991372E+02 0.  0.
         12    1    1    2    0    0 -0.38874808797E+00  0.95502092463E+00  0.57432300543E+00  0.11802698662E+01  0.00000000000E+00 0. -1.
         11    1    3    3    0    0 -0.10012889200E+01  0.77347107098E+01  0.63926252225E+01  0.10084343646E+02  0.51100000000E-03 0. -1.
        -11    1    3    3    0    0 -0.12918713815E+02  0.31073050954E+02  0.88591703493E+01  0.34798168943E+02  0.51100000000E-03 0.  1.
         12    1    3    3    0    0  0.14308750823E+02 -0.39762782589E+02 -0.15826118577E+02  0.45125217545E+02  0.00000000000E+00 0. -1.
</event>
<event>
 7    1  0.1935465E-015  0.9000775E+02  0.7816164E-02  0.1186339E+00
        -11   -1    0    0    0    0  0.00000000000E+00  0.00000000000E+00  0.45593999997E+02  0.45594000000E+02  0.51100000000E-03 0. -1.
         11   -1    0    0    0    0 -0.00000000000E+00 -0.00000000000E+00 -0.45593999997E+02  0.45594000000E+02  0.51100000000E-03 0.  1.
    9900012    2    1    2    0    0  0.57953866634E+00 -0.98856041823E+00 -0.28261862652E+00  0.90007750003E+02  0.90000011504E+02 0.  0.
         12    1    1    2    0    0 -0.57953866634E+00  0.98856041823E+00  0.28261862652E+00  0.11802499965E+01  0.00000000000E+00 0. -1.
         11    1    3    3    0    0 -0.47647346972E+01  0.15655474631E+02  0.27557985636E+02  0.32050571839E+02  0.51100000000E-03 0. -1.
        -11    1    3    3    0    0  0.13325788670E+02 -0.21812675747E+02  0.29508893012E+01  0.25730861137E+02  0.51100000000E-03 0.  1.
        -12    1    3    3    0    0 -0.79815153062E+01  0.51686406980E+01 -0.30791493564E+02  0.32226317027E+02  0.00000000000E+00 0.  1.
</event>
<event>
 7    1  0.1935465E-015  0.9000767E+02  0.7816164E-02  0.1186339E+00
        -11   -1    0    0    0    0  0.00000000000E+00  0.00000000000E+00  0.45593999997E+02  0.45594000000E+02  0.51100000000E-03 0.  1.
         11   -1    0    0    0    0 -0.00000000000E+00 -0.00000000000E+00 -0.45593999997E+02  0.45594000000E+02  0.51100000000E-03 0. -1.
    9900012    2    1    2    0    0  0.10747555765E+01  0.33793919876E+00 -0.35195947047E+00  0.90007670419E+02  0.89999930868E+02 0.  0.
         12    1    1    2    0    0 -0.10747555765E+01 -0.33793919876E+00  0.35195947047E+00  0.11803295812E+01  0.00000000000E+00 0. -1.
         11    1    3    3    0    0  0.28382966231E+02  0.13565208566E+02 -0.23065596107E+02  0.39008068134E+02  0.51100000000E-03 0. -1.
        -11    1    3    3    0    0 -0.51035412578E+01  0.48971039128E+01 -0.68331769201E+01  0.98346360983E+01  0.51100000000E-03 0.  1.
        -12    1    3    3    0    0 -0.22204669396E+02 -0.18124373280E+02  0.29546813557E+02  0.41164966187E+02  0.00000000000E+00 0.  1.
</event>
<event>
 7    1  0.1935465E-015  0.9000776E+02  0.7816164E-02  0.1186339E+00
        -11   -1    0    0    0    0  0.00000000000E+00  0.00000000000E+00  0.45593999997E+02  0.45594000000E+02  0.51100000000E-03 0. -1.
         11   -1    0    0    0    0 -0.00000000000E+00 -0.00000000000E+00 -0.45593999997E+02  0.45594000000E+02  0.51100000000E-03 0.  1.
    9900012    2    1    2    0    0  0.14532357711E+00 -0.84034442977E+00  0.81589029699E+00  0.90007756517E+02  0.90000018103E+02 0.  0.
         12    1    1    2    0    0 -0.14532357711E+00  0.84034442977E+00 -0.81589029699E+00  0.11802434831E+01  0.00000000000E+00 0. -1.
         11    1    3    3    0    0  0.35668350704E+01 -0.84908039267E+01 -0.39380071120E+01  0.10016185103E+02  0.51100000000E-03 0. -1.
        -11    1    3    3    0    0  0.70215823076E+01 -0.32829995487E+02 -0.10980916730E+02  0.35322680451E+02  0.51100000000E-03 0.  1.
         12    1    3    3    0    0 -0.10443093801E+02  0.40480454984E+02  0.15734814139E+02  0.44668890963E+02  0.00000000000E+00 0. -1.
</event>
<event>
 7    1  0.1935465E-015  0.9000773E+02  0.7816164E-02  0.1186339E+00
        -11   -1    0    0    0    0  0.00000000000E+00  0.00000000000E+00  0.45593999997E+02  0.45594000000E+02  0.51100000000E-03 0. -1.
         11   -1    0    0    0    0 -0.00000000000E+00 -0.00000000000E+00 -0.45593999997E+02  0.45594000000E+02  0.51100000000E-03 0.  1.
    9900012    2    1    2    0    0 -0.60745115423E-01 -0.99211690883E+00  0.63644272396E+00  0.90007726612E+02  0.89999987803E+02 0.  0.
         12    1    1    2    0    0  0.60745115423E-01  0.99211690883E+00 -0.63644272396E+00  0.11802733881E+01  0.00000000000E+00 0. -1.
         11    1    3    3    0    0 -0.69284587617E+01 -0.71429209113E+01  0.27261658631E+01  0.10317792425E+02  0.51100000000E-03 0. -1.
        -11    1    3    3    0    0  0.17709877710E+02 -0.13898657568E+02 -0.33816258114E+02  0.40624521705E+02  0.51100000000E-03 0.  1.
         12    1    3    3    0    0 -0.10842164064E+02  0.20049461570E+02  0.31726534975E+02  0.39065412481E+02  0.00000000000E+00 0. -1.
</event>
<event>
 7    1  0.1935465E-015  0.9000772E+02  0.7816164E-02  0.1186339E+00
        -11   -1    0    0    0    0  0.00000000000E+00  0.00000000000E+00  0.45593999997E+02  0.45594000000E+02  0.51100000000E-03 0.  1.
         11   -1    0    0    0    0 -0.00000000000E+00 -0.00000000000E+00 -0.45593999997E+02  0.45594000000E+02  0.51100000000E-03 0. -1.
    9900012    2    1    2    0    0  0.49636133755E+00  0.99194273914E+00 -0.40341165584E+00  0.90007717856E+02  0.89999978932E+02 0.  0.
         12    1    1    2    0    0 -0.49636133755E+00 -0.99194273914E+00  0.40341165584E+00  0.11802821439E+01  0.00000000000E+00 0. -1.
         11    1    3    3    0    0  0.27896271514E+02  0.21167011103E+02 -0.17535169919E+02  0.39162820477E+02  0.51100000000E-03 0. -1.
        -11    1    3    3    0    0 -0.52226317498E+01  0.63022295293E+01 -0.52174865374E+01  0.97065001656E+01  0.51100000000E-03 0.  1.
        -12    1    3    3    0    0 -0.22177278426E+02 -0.26477297893E+02  0.22349244800E+02  0.41138397213E+02  0.00000000000E+00 0.  1.
</event>
<event>
 7    1  0.1935465E-015  0.9000776E+02  0.7816164E-02  0.1186339E+00
        -11   -1    0    0    0    0  0.00000000000E+00  0.00000000000E+00  0.45593999997E+02  0.45594000000E+02  0.51100000000E-03 0. -1.
         11   -1    0    0    0    0 -0.00000000000E+00 -0.00000000000E+00 -0.45593999997E+02  0.45594000000E+02  0.51100000000E-03 0.  1.
    9900012    2    1    2    0    0  0.42889583626E+00 -0.85833881872E+00 -0.68721470555E+00  0.90007762220E+02  0.90000023881E+02 0.  0.
         12    1    1    2    0    0 -0.42889583626E+00  0.85833881872E+00  0.68721470555E+00  0.11802377801E+01  0.00000000000E+00 0. -1.
         11    1    3    3    0    0 -0.71790544025E+01  0.56023573206E+01 -0.88100607328E+01  0.12670532745E+02  0.51100000000E-03 0. -1.
        -11    1    3    3    0    0  0.12679801443E+02 -0.27250727265E+02 -0.24189417127E+02  0.38581179380E+02  0.51100000000E-03 0.  1.
         12    1    3    3    0    0 -0.50718512047E+01  0.20790031125E+02  0.32312263155E+02  0.38756050096E+02  0.00000000000E+00 0. -1.
</event>
<event>
 7    1  0.1935465E-015  0.9000774E+02  0.7816164E-02  0.1186339E+00
        -11   -1    0    0    0    0  0.00000000000E+00  0.00000000000E+00  0.45593999997E+02  0.45594000000E+02  0.51100000000E-03 0.  1.
         11   -1    0    0    0    0 -0.00000000000E+00 -0.00000000000E+00 -0.45593999997E+02  0.45594000000E+02  0.51100000000E-03 0. -1.
    9900012    2    1    2    0    0 -0.46695512281E+00 -0.93244114657E+00 -0.55272956680E+00  0.90007744285E+02  0.90000005710E+02 0.  0.
         12    1    1    2    0    0  0.46695512281E+00  0.93244114657E+00  0.55272956680E+00  0.11802557149E+01  0.00000000000E+00 0. -1.
         11    1    3    3    0    0  0.13886822279E+01  0.39064669864E+02 -0.67805973483E+01  0.39673081183E+02  0.51100000000E-03 0. -1.
        -11    1    3    3    0    0 -0.42163649262E+00 -0.24447676963E+01 -0.93356314157E+01  0.96596418470E+01  0.51100000000E-03 0.  1.
        -12    1    3    3    0    0 -0.14340008581E+01 -0.37552343314E+02  0.15563499197E+02  0.40675021255E+02  0.00000000000E+00 0.  1.
</event>
<event>
 7    1  0.1935465E-015  0.9000775E+02  0.7816164E-02  0.1186339E+00
        -11   -1    0    0    0    0  0.00000000000E+00  0.00000000000E+00  0.45593999997E+02  0.45594000000E+02  0.51100000000E-03 0. -1.
         11   -1    0    0    0    0 -0.00000000000E+00 -0.00000000000E+00 -0.45593999997E+02  0.45594000000E+02  0.51100000000E-03 0.  1.
    9900012    2    1    2    0    0  0.58545544920E+00  0.10169549246E+01 -0.12661611892E+00  0.90007751279E+02  0.90000012796E+02 0.  0.
         12    1    1    2    0    0 -0.58545544920E+00 -0.10169549246E+01  0.12661611892E+00  0.11802487209E+01  0.00000000000E+00 0. -1.
         11    1    3    3    0    0  0.22492248282E+02  0.38794127772E+01  0.30693471716E+02  0.38249709575E+02  0.51100000000E-03 0. -1.
        -11    1    3    3    0    0 -0.24221133527E+01  0.49274740055E+01  0.67644599050E+01  0.87123218051E+01  0.51100000000E-03 0.  1.
        -12    1    3    3    0    0 -0.19484679480E+02 -0.77899318582E+01 -0.37584547740E+02  0.43045719899E+02  0.00000000000E+00 0.  1.
</event>
<event>
 7    1  0.1935465E-015  0.9000780E+02  0.7816164E-02  0.1186339E+00
        -11   -1    0    0    0    0  0.00000000000E+00  0.00000000000E+00  0.45593999997E+02  0.45594000000E+02  0.51100000000E-03 0.  1.
         11   -1    0    0    0    0 -0.00000000000E+00 -0.00000000000E+00 -0.45593999997E+02  0.45594000000E+02  0.51100000000E-03 0. -1.
    9900012    2    1    2    0    0 -0.75463172457E+00  0.23578423791E+00  0.87625064054E+00  0.90007797292E+02  0.90000059416E+02 0.  0.
         12    1    1    2    0    0  0.75463172457E+00 -0.23578423791E+00 -0.87625064054E+00  0.11802027079E+01  0.00000000000E+00 0. -1.
         11    1    3    3    0    0 -0.19566598263E+02 -0.15221516477E+01 -0.14020596123E+01  0.19675733395E+02  0.51100000000E-03 0. -1.
        -11    1    3    3    0    0 -0.86167627735E+01 -0.28312156747E+02  0.10170403731E+01  0.29611842087E+02  0.51100000000E-03 0.  1.
         12    1    3    3    0    0  0.27428729311E+02  0.30070092633E+02  0.12612698797E+01  0.40720221811E+02  0.00000000000E+00 0. -1.
</event>
<event>
 7    1  0.1935465E-015  0.9000771E+02  0.7816164E-02  0.1186339E+00
        -11   -1    0    0    0    0  0.00000000000E+00  0.00000000000E+00  0.45593999997E+02  0.45594000000E+02  0.51100000000E-03 0.  1.
         11   -1    0    0    0    0 -0.00000000000E+00 -0.00000000000E+00 -0.45593999997E+02  0.45594000000E+02  0.51100000000E-03 0. -1.
    9900012    2    1    2    0    0  0.50063653954E+00 -0.10534016475E+01 -0.18107642913E+00  0.90007711625E+02  0.89999972618E+02 0.  0.
         12    1    1    2    0    0 -0.50063653954E+00  0.10534016475E+01  0.18107642913E+00  0.11802883753E+01  0.00000000000E+00 0. -1.
         11    1    3    3    0    0 -0.48998577485E+01  0.32383498914E+01 -0.66365689200E+01  0.88622549764E+01  0.51100000000E-03 0. -1.
        -11    1    3    3    0    0 -0.28796113912E+02 -0.27153040996E+02  0.58303770376E+01  0.40006213372E+02  0.51100000000E-03 0.  1.
         12    1    3    3    0    0  0.34196608200E+02  0.22861289457E+02  0.62511545328E+00  0.41139243276E+02  0.00000000000E+00 0. -1.
</event>
<event>
 7    1  0.2191434E-015  0.9000775E+02  0.7816164E-02  0.1186339E+00
        -11   -1    0    0    0    0  0.00000000000E+00  0.00000000000E+00  0.45593999997E+02  0.45594000000E+02  0.51100000000E-03 0. -1.
         11   -1    0    0    0    0 -0.00000000000E+00 -0.00000000000E+00 -0.45593999997E+02  0.45594000000E+02  0.51100000000E-03 0.  1.
    9900012    2    1    2    0    0  0.13031018498E+00  0.37798962549E+00 -0.11104680407E+01  0.90007747412E+02  0.90000008878E+02 0.  0.
         12    1    1    2    0    0 -0.13031018498E+00 -0.37798962549E+00  0.11104680407E+01  0.11802525877E+01  0.00000000000E+00 0. -1.
         11    1    3    3    0    0 -0.54693318386E+01 -0.22289250511E+01 -0.75326380938E+01  0.95719556287E+01  0.51100000000E-03 0. -1.
        -11    1    3    3    0    0  0.22930278068E+02 -0.11725005277E+02 -0.28806746851E+02  0.38640678894E+02  0.51100000000E-03 0.  1.
         12    1    3    3    0    0 -0.17330636044E+02  0.14331919953E+02  0.35228916904E+02  0.41795112890E+02  0.00000000000E+00 0. -1.
</event>
<event>
 7    1  0.1935465E-015  0.9000769E+02  0.7816164E-02  0.1186339E+00
        -11   -1    0    0    0    0  0.00000000000E+00  0.00000000000E+00  0.45593999997E+02  0.45594000000E+02  0.51100000000E-03 0.  1.
         11   -1    0    0    0    0 -0.00000000000E+00 -0.00000000000E+00 -0.45593999997E+02  0.45594000000E+02  0.51100000000E-03 0. -1.
    9900012    2    1    2    0    0 -0.97002496428E+00 -0.59275807440E+00  0.31750863584E+00  0.90007693980E+02  0.89999954741E+02 0.  0.
         12    1    1    2    0    0  0.97002496428E+00  0.59275807440E+00 -0.31750863584E+00  0.11803060196E+01  0.00000000000E+00 0. -1.
         11    1    3    3    0    0 -0.64767487602E+01 -0.64449587252E+01 -0.18877683803E+01  0.93300287883E+01  0.51100000000E-03 0. -1.
        -11    1    3    3    0    0 -0.19530147625E+02 -0.30244504775E+02  0.63312890766E+01  0.36554643439E+02  0.51100000000E-03 0.  1.
         12    1    3    3    0    0  0.25036871421E+02  0.36096705425E+02 -0.41260120605E+01  0.44123021753E+02  0.00000000000E+00 0. -1.
</event>
<event>
 7    1  0.1935465E-015  0.9000758E+02  0.7816164E-02  0.1186339E+00
        -11   -1    0    0    0    0  0.00000000000E+00  0.00000000000E+00  0.45593999997E+02  0.45594000000E+02  0.51100000000E-03 0.  1.
         11   -1    0    0    0    0 -0.00000000000E+00 -0.00000000000E+00 -0.45593999997E+02  0.45594000000E+02  0.51100000000E-03 0. -1.
    9900012    2    1    2    0    0  0.53898202335E+00  0.10613260013E+00  0.10448042583E+01  0.90007584104E+02  0.89999843414E+02 0.  0.
         12    1    1    2    0    0 -0.53898202335E+00 -0.10613260013E+00 -0.10448042583E+01  0.11804158964E+01  0.00000000000E+00 0. -1.
         11    1    3    3    0    0 -0.37799822917E+02 -0.89275343920E+01  0.56879743240E+01  0.39254051193E+02  0.51100000000E-03 0. -1.
        -11    1    3    3    0    0  0.36945196064E+01 -0.34925611033E+01  0.99146278519E+01  0.11142140902E+02  0.51100000000E-03 0.  1.
        -12    1    3    3    0    0  0.34644285334E+02  0.12526228095E+02 -0.14557797918E+02  0.39611392008E+02  0.00000000000E+00 0.  1.
</event>
<event>
 7    1  0.1935465E-015  0.9000777E+02  0.7816164E-02  0.1186339E+00
        -11   -1    0    0    0    0  0.00000000000E+00  0.00000000000E+00  0.45593999997E+02  0.45594000000E+02  0.51100000000E-03 0. -1.
         11   -1    0    0    0    0 -0.00000000000E+00 -0.00000000000E+00 -0.45593999997E+02  0.45594000000E+02  0.51100000000E-03 0.  1.
    9900012    2    1    2    0    0 -0.10560804633E+01 -0.46737902178E+00 -0.24330531140E+00  0.90007768425E+02  0.90000030169E+02 0.  0.
         12    1    1    2    0    0  0.10560804633E+01  0.46737902178E+00  0.24330531140E+00  0.11802315746E+01  0.00000000000E+00 0. -1.
         11    1    3    3    0    0 -0.56376418725E+01 -0.26938961179E+01  0.83961888648E+01  0.10465948112E+02  0.51100000000E-03 0. -1.
        -11    1    3    3    0    0  0.84172788377E+01 -0.24278720061E+02 -0.34027010042E+02  0.42639702667E+02  0.51100000000E-03 0.  1.
         12    1    3    3    0    0 -0.38357174285E+01  0.26505237157E+02  0.25387515866E+02  0.36902117646E+02  0.00000000000E+00 0. -1.
</event>
<event>
 7    1  0.1935465E-015  0.9000771E+02  0.7816164E-02  0.1186339E+00
        -11   -1    0    0    0    0  0.00000000000E+00  0.00000000000E+00  0.45593999997E+02  0.45594000000E+02  0.51100000000E-03 0.  1.
         11   -1    0    0    0    0 -0.00000000000E+00 -0.00000000000E+00 -0.45593999997E+02  0.45594000000E+02  0.51100000000E-03 0. -1.
    9900012    2    1    2    0    0  0.44099124860E-01  0.11776219479E+01 -0.65852484411E-01  0.90007714130E+02  0.89999975157E+02 0.  0.
         12    1    1    2    0    0 -0.44099124860E-01 -0.11776219479E+01  0.65852484411E-01  0.11802858699E+01  0.00000000000E+00 0. -1.
         11    1    3    3    0    0 -0.16653226233E+02 -0.12139323207E+02  0.30165393641E+02  0.36532780974E+02  0.51100000000E-03 0. -1.
        -11    1    3    3    0    0 -0.15183613631E+01 -0.55720127497E+01  0.62671546709E+01  0.85223221743E+01  0.51100000000E-03 0.  1.
        -12    1    3    3    0    0  0.18215686721E+02  0.18888957904E+02 -0.36498400797E+02  0.44952610982E+02  0.00000000000E+00 0.  1.
</event>
<event>
 7    1  0.1935465E-015  0.9000767E+02  0.7816164E-02  0.1186339E+00
        -11   -1    0    0    0    0  0.00000000000E+00  0.00000000000E+00  0.45593999997E+02  0.45594000000E+02  0.51100000000E-03 0. -1.
         11   -1    0    0    0    0 -0.00000000000E+00 -0.00000000000E+00 -0.45593999997E+02  0.45594000000E+02  0.51100000000E-03 0.  1.
    9900012    2    1    2    0    0 -0.75509022753E+00  0.50439369253E+00 -0.75405495658E+00  0.90007672450E+02  0.89999932926E+02 0.  0.
         12    1    1    2    0    0  0.75509022753E+00 -0.50439369253E+00  0.75405495658E+00  0.11803275504E+01  0.00000000000E+00 0. -1.
         11    1    3    3    0    0 -0.82412550756E+01 -0.51134222512E+00  0.39140887849E+01  0.91378250897E+01  0.51100000000E-03 0. -1.
        -11    1    3    3    0    0 -0.50181985863E+01 -0.28017843770E+02  0.24726056419E+02  0.37703577455E+02  0.51100000000E-03 0.  1.
         12    1    3    3    0    0  0.12504363434E+02  0.29033579688E+02 -0.29394200161E+02  0.43166269905E+02  0.00000000000E+00 0. -1.
</event>
<event>
 7    1  0.1935465E-015  0.9000757E+02  0.7816164E-02  0.1186339E+00
        -11   -1    0    0    0    0  0.00000000000E+00  0.00000000000E+00  0.45593999997E+02  0.45594000000E+02  0.51100000000E-03 0. -1.
         11   -1    0    0    0    0 -0.00000000000E+00 -0.00000000000E+00 -0.45593999997E+02  0.45594000000E+02  0.51100000000E-03 0.  1.
    9900012    2    1    2    0    0  0.87090055602E+00  0.56705176128E+00 -0.55981406044E+00  0.90007573272E+02  0.89999832439E+02 0.  0.
         12    1    1    2    0    0 -0.87090055602E+00 -0.56705176128E+00  0.55981406044E+00  0.11804267282E+01  0.00000000000E+00 0. -1.
         11    1    3    3    0    0 -0.12266565098E+00  0.76103529431E-01 -0.90377880493E+01  0.90389408503E+01  0.51100000000E-03 0. -1.
        -11    1    3    3    0    0  0.11291517079E+02  0.38299680887E+02 -0.32598749613E+01  0.40062335167E+02  0.51100000000E-03 0.  1.
         12    1    3    3    0    0 -0.10297950872E+02 -0.37808732655E+02  0.11737848950E+02  0.40906297255E+02  0.00000000000E+00 0. -1.
</event>
<event>
 7    1  0.1935465E-015  0.9000776E+02  0.7816164E-02  0.1186339E+00
        -11   -1    0    0    0    0  0.00000000000E+00  0.00000000000E+00  0.45593999997E+02  0.45594000000E+02  0.51100000000E-03 0.  1.
         11   -1    0    0    0    0 -0.00000000000E+00 -0.00000000000E+00 -0.45593999997E+02  0.45594000000E+02  0.51100000000E-03 0. -1.
    9900012    2    1    2    0    0  0.10870009013E+01 -0.23593914675E+00  0.39461881807E+00  0.90007761782E+02  0.90000023437E+02 0.  0.
         12    1    1    2    0    0 -0.10870009013E+01  0.23593914675E+00 -0.39461881807E+00  0.11802382183E+01  0.00000000000E+00 0. -1.
         11    1    3    3    0    0  0.80516684593E+01 -0.47149794461E+01  0.17578500088E+01  0.94947581891E+01  0.51100000000E-03 0. -1.
        -11    1    3    3    0    0  0.19750969030E+02 -0.12800268863E+02 -0.29708215992E+02  0.37901527124E+02  0.51100000000E-03 0.  1.
         12    1    3    3    0    0 -0.26715636588E+02  0.17279309163E+02  0.28344984802E+02  0.42611476469E+02  0.00000000000E+00 0. -1.
</event>
<event>
 7    1  0.1935465E-015  0.9000783E+02  0.7816164E-02  0.1186339E+00
        -11   -1    0    0    0    0  0.00000000000E+00  0.00000000000E+00  0.45593999997E+02  0.45594000000E+02  0.51100000000E-03 0.  1.
         11   -1    0    0    0    0 -0.00000000000E+00 -0.00000000000E+00 -0.45593999997E+02  0.45594000000E+02  0.51100000000E-03 0. -1.
    9900012    2    1    2    0    0 -0.55967857363E+00 -0.10163919761E+01 -0.21568533111E+00  0.90007825048E+02  0.90000087539E+02 0.  0.
         12    1    1    2    0    0  0.55967857363E+00  0.10163919761E+01  0.21568533111E+00  0.11801749518E+01  0.00000000000E+00 0. -1.
         11    1    3    3    0    0 -0.73729116215E+01  0.53445044445E+01  0.34426476288E+01  0.97352645826E+01  0.51100000000E-03 0. -1.
        -11    1    3    3    0    0 -0.30570536537E+02  0.14150937891E+02  0.10592400353E+02  0.35312967772E+02  0.51100000000E-03 0.  1.
         12    1    3    3    0    0  0.37383769585E+02 -0.20511834311E+02 -0.14250733313E+02  0.44959592694E+02  0.00000000000E+00 0. -1.
</event>
<event>
 7    1  0.1935465E-015  0.9000769E+02  0.7816164E-02  0.1186339E+00
        -11   -1    0    0    0    0  0.00000000000E+00  0.00000000000E+00  0.45593999997E+02  0.45594000000E+02  0.51100000000E-03 0.  1.
         11   -1    0    0    0    0 -0.00000000000E+00 -0.00000000000E+00 -0.45593999997E+02  0.45594000000E+02  0.51100000000E-03 0. -1.
    9900012    2    1    2    0    0 -0.20766238260E+00 -0.11124386315E+01 -0.33539579413E+00  0.90007689146E+02  0.89999949842E+02 0.  0.
         12    1    1    2    0    0  0.20766238260E+00  0.11124386315E+01  0.33539579413E+00  0.11803108543E+01  0.00000000000E+00 0. -1.
         11    1    3    3    0    0 -0.32065513145E+02  0.18902918750E+02 -0.28283160010E+01  0.37329838497E+02  0.51100000000E-03 0. -1.
        -11    1    3    3    0    0 -0.68869338716E+01 -0.38473004772E+01 -0.59166755974E+01  0.98609649376E+01  0.51100000000E-03 0.  1.
        -12    1    3    3    0    0  0.38744784634E+02 -0.16168056904E+02  0.84095958043E+01  0.42816885711E+02  0.00000000000E+00 0.  1.
</event>
<event>
 7    1  0.1935465E-015  0.9000774E+02  0.7816164E-02  0.1186339E+00
        -11   -1    0    0    0    0  0.00000000000E+00  0.00000000000E+00  0.45593999997E+02  0.45594000000E+02  0.51100000000E-03 0.  1.
         11   -1    0    0    0    0 -0.00000000000E+00 -0.00000000000E+00 -0.45593999997E+02  0.45594000000E+02  0.51100000000E-03 0. -1.
    9900012    2    1    2    0    0  0.25209620138E+00 -0.11302696602E+01  0.22791876026E+00  0.90007741994E+02  0.90000003388E+02 0.  0.
         12    1    1    2    0    0 -0.25209620138E+00  0.11302696602E+01 -0.22791876026E+00  0.11802580061E+01  0.00000000000E+00 0. -1.
         11    1    3    3    0    0  0.13691443337E+02 -0.60146043316E+01 -0.38146327804E+02  0.40972837479E+02  0.51100000000E-03 0. -1.
        -11    1    3    3    0    0  0.78314437274E+01 -0.21515313284E+01  0.10285563536E+02  0.13105472728E+02  0.51100000000E-03 0.  1.
        -12    1    3    3    0    0 -0.21270790863E+02  0.70358659998E+01  0.28088683028E+02  0.35929431787E+02  0.00000000000E+00 0.  1.
</event>
<event>
 7    1  0.1935465E-015  0.9000857E+02  0.7816164E-02  0.1186337E+00
        -11   -1    0    0    0    0  0.00000000000E+00  0.00000000000E+00  0.45593999997E+02  0.45594000000E+02  0.51100000000E-03 0.  1.
         11   -1    0    0    0    0 -0.00000000000E+00 -0.00000000000E+00 -0.45593999997E+02  0.45594000000E+02  0.51100000000E-03 0. -1.
    9900012    2    1    2    0    0  0.11033112971E+01 -0.38088576276E+00 -0.16935826238E+00  0.90008571323E+02  0.90000843661E+02 0.  0.
         12    1    1    2    0    0 -0.11033112971E+01  0.38088576276E+00  0.16935826238E+00  0.11794286768E+01  0.00000000000E+00 0. -1.
         11    1    3    3    0    0  0.15352687918E+02  0.14477712273E+02 -0.31984168529E+02  0.38318353510E+02  0.51100000000E-03 0. -1.
        -11    1    3    3    0    0  0.81083341516E+00  0.23798827121E+01 -0.65497182213E+01  0.70157039269E+01  0.51100000000E-03 0.  1.
        -12    1    3    3    0    0 -0.15060210036E+02 -0.17238480748E+02  0.38364528488E+02  0.44674513886E+02  0.00000000000E+00 0.  1.
</event>
<event>
 7    1  0.2241394E-015  0.9000822E+02  0.7816164E-02  0.1186338E+00
        -11   -1    0    0    0    0  0.00000000000E+00  0.00000000000E+00  0.45593999997E+02  0.45594000000E+02  0.51100000000E-03 0.  1.
         11   -1    0    0    0    0 -0.00000000000E+00 -0.00000000000E+00 -0.45593999997E+02  0.45594000000E+02  0.51100000000E-03 0. -1.
    9900012    2    1    2    0    0 -0.74671679032E+00 -0.89829081477E+00  0.16543068749E+00  0.90008220501E+02  0.90000488211E+02 0.  0.
         12    1    1    2    0    0  0.74671679032E+00  0.89829081477E+00 -0.16543068749E+00  0.11797794986E+01  0.00000000000E+00 0. -1.
         11    1    3    3    0    0  0.41732399463E+00  0.75479490745E+01  0.56244749772E+01  0.94223358876E+01  0.51100000000E-03 0. -1.
        -11    1    3    3    0    0  0.14676989222E+02  0.32952010808E+02 -0.21396436190E+01  0.36136229798E+02  0.51100000000E-03 0.  1.
         12    1    3    3    0    0 -0.15841030007E+02 -0.41398250697E+02 -0.33194006707E+01  0.44449654816E+02  0.00000000000E+00 0. -1.
</event>
<event>
 7    1  0.1935465E-015  0.9000771E+02  0.7816164E-02  0.1186339E+00
        -11   -1    0    0    0    0  0.00000000000E+00  0.00000000000E+00  0.45593999997E+02  0.45594000000E+02  0.51100000000E-03 0. -1.
         11   -1    0    0    0    0 -0.00000000000E+00 -0.00000000000E+00 -0.45593999997E+02  0.45594000000E+02  0.51100000000E-03 0.  1.
    9900012    2    1    2    0    0  0.62872340814E+00 -0.94350347649E+00 -0.32800732458E+00  0.90007711586E+02  0.89999972579E+02 0.  0.
         12    1    1    2    0    0 -0.62872340814E+00  0.94350347649E+00  0.32800732458E+00  0.11802884135E+01  0.00000000000E+00 0. -1.
         11    1    3    3    0    0 -0.12714785676E+02  0.30510214892E+02  0.68449216301E+01  0.33754880239E+02  0.51100000000E-03 0. -1.
        -11    1    3    3    0    0 -0.26392968085E+01  0.10506586598E+02 -0.24266498619E+01  0.11101480955E+02  0.51100000000E-03 0.  1.
        -12    1    3    3    0    0  0.15982805892E+02 -0.41960304967E+02 -0.47462790928E+01  0.45151350393E+02  0.00000000000E+00 0.  1.
</event>
<event>
 7    1  0.1935465E-015  0.9000759E+02  0.7816164E-02  0.1186339E+00
        -11   -1    0    0    0    0  0.00000000000E+00  0.00000000000E+00  0.45593999997E+02  0.45594000000E+02  0.51100000000E-03 0. -1.
         11   -1    0    0    0    0 -0.00000000000E+00 -0.00000000000E+00 -0.45593999997E+02  0.45594000000E+02  0.51100000000E-03 0.  1.
    9900012    2    1    2    0    0 -0.48916878944E-01  0.16882080099E+00 -0.11672543826E+01  0.90007586463E+02  0.89999845805E+02 0.  0.
         12    1    1    2    0    0  0.48916878944E-01 -0.16882080099E+00  0.11672543826E+01  0.11804135367E+01  0.00000000000E+00 0. -1.
         11    1    3    3    0    0 -0.63133005493E+01  0.12142655585E+02  0.11751127502E+01  0.13736183557E+02  0.51100000000E-03 0. -1.
        -11    1    3    3    0    0 -0.30282931582E+02  0.10186580030E+02 -0.85685251881E+01  0.33079328622E+02  0.51100000000E-03 0.  1.
         12    1    3    3    0    0  0.36547315252E+02 -0.22160414814E+02  0.62261580554E+01  0.43192074285E+02  0.00000000000E+00 0. -1.
</event>
<event>
 7    1  0.1935465E-015  0.9000783E+02  0.7816164E-02  0.1186339E+00
        -11   -1    0    0    0    0  0.00000000000E+00  0.00000000000E+00  0.45593999997E+02  0.45594000000E+02  0.51100000000E-03 0.  1.
         11   -1    0    0    0    0 -0.00000000000E+00 -0.00000000000E+00 -0.45593999997E+02  0.45594000000E+02  0.51100000000E-03 0. -1.
    9900012    2    1    2    0    0  0.40148667727E+00 -0.13171059907E+00  0.11019316354E+01  0.90007833671E+02  0.90000096276E+02 0.  0.
         12    1    1    2    0    0 -0.40148667727E+00  0.13171059907E+00 -0.11019316354E+01  0.11801663286E+01  0.00000000000E+00 0. -1.
         11    1    3    3    0    0  0.14733062271E+02  0.34633569694E+02 -0.48628080663E+01  0.37949890332E+02  0.51100000000E-03 0. -1.
        -11    1    3    3    0    0 -0.36491501106E+01 -0.40866426421E+01  0.16912303164E+02  0.17777596666E+02  0.51100000000E-03 0.  1.
        -12    1    3    3    0    0 -0.10682425483E+02 -0.30678637651E+02 -0.10947563463E+02  0.34280346674E+02  0.00000000000E+00 0.  1.
</event>
<event>
 7    1  0.1935465E-015  0.9000787E+02  0.7816164E-02  0.1186339E+00
        -11   -1    0    0    0    0  0.00000000000E+00  0.00000000000E+00  0.45593999997E+02  0.45594000000E+02  0.51100000000E-03 0. -1.
         11   -1    0    0    0    0 -0.00000000000E+00 -0.00000000000E+00 -0.45593999997E+02  0.45594000000E+02  0.51100000000E-03 0.  1.
    9900012    2    1    2    0    0 -0.30156749479E+00 -0.10297462437E+01 -0.49131290601E+00  0.90007869223E+02  0.90000132296E+02 0.  0.
         12    1    1    2    0    0  0.30156749479E+00  0.10297462437E+01  0.49131290601E+00  0.11801307775E+01  0.00000000000E+00 0. -1.
         11    1    3    3    0    0  0.10083607070E+02  0.11504421500E+02  0.11763678914E+02  0.19298056571E+02  0.51100000000E-03 0. -1.
        -11    1    3    3    0    0  0.11923353975E+02  0.21415422071E+02  0.73694131453E+01  0.25594822189E+02  0.51100000000E-03 0.  1.
         12    1    3    3    0    0 -0.22308528540E+02 -0.33949589815E+02 -0.19624404965E+02  0.45114990463E+02  0.00000000000E+00 0. -1.
</event>
<event>
 7    1  0.1935465E-015  0.9000777E+02  0.7816164E-02  0.1186339E+00
        -11   -1    0    0    0    0  0.00000000000E+00  0.00000000000E+00  0.45593999997E+02  0.45594000000E+02  0.51100000000E-03 0.  1.
         11   -1    0    0    0    0 -0.00000000000E+00 -0.00000000000E+00 -0.45593999997E+02  0.45594000000E+02  0.51100000000E-03 0. -1.
    9900012    2    1    2    0    0 -0.10182972166E+01  0.20277188345E+00  0.56115497216E+00  0.90007770971E+02  0.90000032748E+02 0.  0.
         12    1    1    2    0    0  0.10182972166E+01 -0.20277188345E+00 -0.56115497216E+00  0.11802290290E+01  0.00000000000E+00 0. -1.
         11    1    3    3    0    0 -0.29505915327E+02  0.30385637668E+01 -0.13791479363E+02  0.32711417155E+02  0.51100000000E-03 0. -1.
        -11    1    3    3    0    0 -0.28359639331E+01 -0.22217081030E+01 -0.14356819227E+02  0.14801923419E+02  0.51100000000E-03 0.  1.
        -12    1    3    3    0    0  0.31323582043E+02 -0.61408378036E+00  0.28709453562E+02  0.42494430397E+02  0.00000000000E+00 0.  1.
</event>
<event>
 7    1  0.1935465E-015  0.9000772E+02  0.7816164E-02  0.1186339E+00
        -11   -1    0    0    0    0  0.00000000000E+00  0.00000000000E+00  0.45593999997E+02  0.45594000000E+02  0.51100000000E-03 0.  1.
         11   -1    0    0    0    0 -0.00000000000E+00 -0.00000000000E+00 -0.45593999997E+02  0.45594000000E+02  0.51100000000E-03 0. -1.
    9900012    2    1    2    0    0 -0.23011246599E+00  0.95222751575E+00  0.65831116415E+00  0.90007719280E+02  0.89999980375E+02 0.  0.
         12    1    1    2    0    0  0.23011246599E+00 -0.95222751575E+00 -0.65831116415E+00  0.11802807198E+01  0.00000000000E+00 0. -1.
         11    1    3    3    0    0  0.47962120549E+01 -0.10029103700E+02 -0.33416344739E+02  0.35217022405E+02  0.51100000000E-03 0. -1.
        -11    1    3    3    0    0 -0.18731462161E+00  0.55444000976E+00 -0.96055034928E+01  0.96233148189E+01  0.51100000000E-03 0.  1.
        -12    1    3    3    0    0 -0.48390098993E+01  0.10426891206E+02  0.43680159395E+02  0.45167382057E+02  0.00000000000E+00 0.  1.
</event>
<event>
 7    1  0.1935465E-015  0.9000756E+02  0.7816164E-02  0.1186339E+00
        -11   -1    0    0    0    0  0.00000000000E+00  0.00000000000E+00  0.45593999997E+02  0.45594000000E+02  0.51100000000E-03 0.  1.
         11   -1    0    0    0    0 -0.00000000000E+00 -0.00000000000E+00 -0.45593999997E+02  0.45594000000E+02  0.51100000000E-03 0. -1.
    9900012    2    1    2    0    0 -0.79150022864E+00 -0.76546174023E+00  0.42546914217E+00  0.90007564369E+02  0.89999823419E+02 0.  0.
         12    1    1    2    0    0  0.79150022864E+00  0.76546174023E+00 -0.42546914217E+00  0.11804356309E+01  0.00000000000E+00 0. -1.
         11    1    3    3    0    0 -0.19349208142E+02 -0.35360556275E+02 -0.80634477541E+01  0.41106933548E+02  0.51100000000E-03 0. -1.
        -11    1    3    3    0    0  0.36615164615E+00 -0.66557209858E+00  0.91863609603E+01  0.92177156173E+01  0.51100000000E-03 0.  1.
        -12    1    3    3    0    0  0.18191556268E+02  0.35260666633E+02 -0.69744406405E+00  0.39682915204E+02  0.00000000000E+00 0.  1.
</event>
<event>
 7    1  0.1935465E-015  0.9000769E+02  0.7816164E-02  0.1186339E+00
        -11   -1    0    0    0    0  0.00000000000E+00  0.00000000000E+00  0.45593999997E+02  0.45594000000E+02  0.51100000000E-03 0.  1.
         11   -1    0    0    0    0 -0.00000000000E+00 -0.00000000000E+00 -0.45593999997E+02  0.45594000000E+02  0.51100000000E-03 0. -1.
    9900012    2    1    2    0    0 -0.62910163483E-01  0.11270327526E+01 -0.34490875607E+00  0.90007693868E+02  0.89999954628E+02 0.  0.
         12    1    1    2    0    0  0.62910163483E-01 -0.11270327526E+01  0.34490875607E+00  0.11803061315E+01  0.00000000000E+00 0. -1.
         11    1    3    3    0    0 -0.29742870724E+02 -0.13197881990E+02  0.33476883325E+01  0.32711304855E+02  0.51100000000E-03 0. -1.
        -11    1    3    3    0    0  0.27797196778E+01 -0.15590338102E+02 -0.61542361729E+01  0.16990000199E+02  0.51100000000E-03 0.  1.
        -12    1    3    3    0    0  0.26900240883E+02  0.29915252844E+02  0.24616390843E+01  0.40306388814E+02  0.00000000000E+00 0.  1.
</event>
<event>
 7    1  0.1935465E-015  0.9000771E+02  0.7816164E-02  0.1186339E+00
        -11   -1    0    0    0    0  0.00000000000E+00  0.00000000000E+00  0.45593999997E+02  0.45594000000E+02  0.51100000000E-03 0. -1.
         11   -1    0    0    0    0 -0.00000000000E+00 -0.00000000000E+00 -0.45593999997E+02  0.45594000000E+02  0.51100000000E-03 0.  1.
    9900012    2    1    2    0    0 -0.50815571210E+00  0.71628660382E+00 -0.78853394304E+00  0.90007714227E+02  0.89999975255E+02 0.  0.
         12    1    1    2    0    0  0.50815571210E+00 -0.71628660382E+00  0.78853394304E+00  0.11802857730E+01  0.00000000000E+00 0. -1.
         11    1    3    3    0    0 -0.67739027380E+01  0.32928932973E+02  0.13211276750E+02  0.36121160262E+02  0.51100000000E-03 0. -1.
        -11    1    3    3    0    0 -0.96918588229E+01  0.49122993003E+01  0.69620671729E+00  0.10887952788E+02  0.51100000000E-03 0.  1.
        -12    1    3    3    0    0  0.15957605849E+02 -0.37124945670E+02 -0.14696017411E+02  0.42998601177E+02  0.00000000000E+00 0.  1.
</event>
<event>
 7    1  0.1935465E-015  0.9000760E+02  0.7816164E-02  0.1186339E+00
        -11   -1    0    0    0    0  0.00000000000E+00  0.00000000000E+00  0.45593999997E+02  0.45594000000E+02  0.51100000000E-03 0. -1.
         11   -1    0    0    0    0 -0.00000000000E+00 -0.00000000000E+00 -0.45593999997E+02  0.45594000000E+02  0.51100000000E-03 0.  1.
    9900012    2    1    2    0    0 -0.63060715266E+00  0.72349998944E+00 -0.68718996887E+00  0.90007598514E+02  0.89999858014E+02 0.  0.
         12    1    1    2    0    0  0.63060715266E+00 -0.72349998944E+00  0.68718996887E+00  0.11804014864E+01  0.00000000000E+00 0. -1.
         11    1    3    3    0    0  0.84171808862E+00 -0.17847373116E+02  0.32493687572E+02  0.37082029998E+02  0.51100000000E-03 0. -1.
        -11    1    3    3    0    0  0.10154610451E+01  0.51353829884E+01  0.79868461675E+01  0.95495042560E+01  0.51100000000E-03 0.  1.
        -12    1    3    3    0    0 -0.24877862863E+01  0.13435490117E+02 -0.41167723709E+02  0.43376064259E+02  0.00000000000E+00 0.  1.
</event>
<event>
 7    1  0.1935465E-015  0.9000797E+02  0.7816164E-02  0.1186339E+00
        -11   -1    0    0    0    0  0.00000000000E+00  0.00000000000E+00  0.45593999997E+02  0.45594000000E+02  0.51100000000E-03 0. -1.
         11   -1    0    0    0    0 -0.00000000000E+00 -0.00000000000E+00 -0.45593999997E+02  0.45594000000E+02  0.51100000000E-03 0.  1.
    9900012    2    1    2    0    0 -0.62217401897E+00 -0.49526832234E+00 -0.87182678720E+00  0.90007968997E+02  0.90000233388E+02 0.  0.
         12    1    1    2    0    0  0.62217401897E+00  0.49526832234E+00  0.87182678720E+00  0.11800310029E+01  0.00000000000E+00 0. -1.
         11    1    3    3    0    0  0.14121603600E+01 -0.30760907504E+02 -0.21630858296E+02  0.37631391925E+02  0.51100000000E-03 0. -1.
        -11    1    3    3    0    0  0.12873837392E+01 -0.85349392769E+01  0.94471148008E+00  0.86830308875E+01  0.51100000000E-03 0.  1.
        -12    1    3    3    0    0 -0.33217181182E+01  0.38800578458E+02  0.19814320029E+02  0.43693546184E+02  0.00000000000E+00 0.  1.
</event>
<event>
 7    1  0.1935465E-015  0.9000772E+02  0.7816164E-02  0.1186339E+00
        -11   -1    0    0    0    0  0.00000000000E+00  0.00000000000E+00  0.45593999997E+02  0.45594000000E+02  0.51100000000E-03 0. -1.
         11   -1    0    0    0    0 -0.00000000000E+00 -0.00000000000E+00 -0.45593999997E+02  0.45594000000E+02  0.51100000000E-03 0.  1.
    9900012    2    1    2    0    0  0.10804889253E+01  0.44574027473E+00 -0.16410157614E+00  0.90007716120E+02  0.89999977173E+02 0.  0.
         12    1    1    2    0    0 -0.10804889253E+01 -0.44574027473E+00  0.16410157614E+00  0.11802838801E+01  0.00000000000E+00 0. -1.
         11    1    3    3    0    0 -0.90597211041E+00 -0.80577891208E+01  0.39180367594E+02  0.40010623040E+02  0.51100000000E-03 0. -1.
        -11    1    3    3    0    0  0.12524928980E+01 -0.89576407066E+01 -0.27663880693E+01  0.94583808709E+01  0.51100000000E-03 0.  1.
        -12    1    3    3    0    0  0.73396813779E+00  0.17461170102E+02 -0.36578081101E+02  0.40538712209E+02  0.00000000000E+00 0.  1.
</event>
<event>
 7    1  0.1935465E-015  0.9000773E+02  0.7816164E-02  0.1186339E+00
        -11   -1    0    0    0    0  0.00000000000E+00  0.00000000000E+00  0.45593999997E+02  0.45594000000E+02  0.51100000000E-03 0.  1.
         11   -1    0    0    0    0 -0.00000000000E+00 -0.00000000000E+00 -0.45593999997E+02  0.45594000000E+02  0.51100000000E-03 0. -1.
    9900012    2    1    2    0    0 -0.34265674620E-01 -0.10943694207E+01  0.44068970746E+00  0.90007734783E+02  0.89999996082E+02 0.  0.
         12    1    1    2    0    0  0.34265674620E-01  0.10943694207E+01 -0.44068970746E+00  0.11802652175E+01  0.00000000000E+00 0. -1.
         11    1    3    3    0    0 -0.13563574247E+01 -0.35089736151E+01  0.61023354148E+01  0.71687585446E+01  0.51100000000E-03 0. -1.
        -11    1    3    3    0    0 -0.96692214360E+01 -0.94521965790E+01  0.35835049889E+02  0.38301288022E+02  0.51100000000E-03 0.  1.
         12    1    3    3    0    0  0.10991313186E+02  0.11866800773E+02 -0.41496695597E+02  0.44537688216E+02  0.00000000000E+00 0. -1.
</event>
<event>
 7    1  0.1935465E-015  0.9000788E+02  0.7816164E-02  0.1186339E+00
        -11   -1    0    0    0    0  0.00000000000E+00  0.00000000000E+00  0.45593999997E+02  0.45594000000E+02  0.51100000000E-03 0. -1.
         11   -1    0    0    0    0 -0.00000000000E+00 -0.00000000000E+00 -0.45593999997E+02  0.45594000000E+02  0.51100000000E-03 0.  1.
    9900012    2    1    2    0    0  0.32133944564E-01  0.11389003575E+01 -0.30749873489E+00  0.90007880478E+02  0.90000143700E+02 0.  0.
         12    1    1    2    0    0 -0.32133944564E-01 -0.11389003575E+01  0.30749873489E+00  0.11801195222E+01  0.00000000000E+00 0. -1.
         11    1    3    3    0    0 -0.45355103887E+01 -0.77982990419E+01  0.13707036070E+02  0.16409361978E+02  0.51100000000E-03 0. -1.
        -11    1    3    3    0    0  0.34347037462E+02 -0.11330737208E+02 -0.54981973017E+01  0.36583257945E+02  0.51100000000E-03 0.  1.
         12    1    3    3    0    0 -0.29779393129E+02  0.20267936607E+02 -0.85163375036E+01  0.37015260554E+02  0.00000000000E+00 0. -1.
</event>
<event>
 7    1  0.1935465E-015  0.9000774E+02  0.7816164E-02  0.1186339E+00
        -11   -1    0    0    0    0  0.00000000000E+00  0.00000000000E+00  0.45593999997E+02  0.45594000000E+02  0.51100000000E-03 0.  1.
         11   -1    0    0    0    0 -0.00000000000E+00 -0.00000000000E+00 -0.45593999997E+02  0.45594000000E+02  0.51100000000E-03 0. -1.
    9900012    2    1    2    0    0 -0.53879735486E+00  0.32920202365E+00  0.99717021888E+00  0.90007735196E+02  0.89999996501E+02 0.  0.
         12    1    1    2    0    0  0.53879735486E+00 -0.32920202365E+00 -0.99717021888E+00  0.11802648039E+01  0.00000000000E+00 0. -1.
         11    1    3    3    0    0 -0.16338729899E+02 -0.39047316752E+01  0.30667732942E+01  0.17076478644E+02  0.51100000000E-03 0. -1.
        -11    1    3    3    0    0 -0.28179205542E+02  0.53782039424E+01  0.19496235444E+01  0.28754021195E+02  0.51100000000E-03 0.  1.
         12    1    3    3    0    0  0.43979138086E+02 -0.11442702435E+01 -0.40192266198E+01  0.44177235358E+02  0.00000000000E+00 0. -1.
</event>
<event>
 7    1  0.1935465E-015  0.9000780E+02  0.7816164E-02  0.1186339E+00
        -11   -1    0    0    0    0  0.00000000000E+00  0.00000000000E+00  0.45593999997E+02  0.45594000000E+02  0.51100000000E-03 0.  1.
         11   -1    0    0    0    0 -0.00000000000E+00 -0.00000000000E+00 -0.45593999997E+02  0.45594000000E+02  0.51100000000E-03 0. -1.
    9900012    2    1    2    0    0 -0.29710150857E+00 -0.10298660343E+01  0.49393935105E+00  0.90007801103E+02  0.90000063277E+02 0.  0.
         12    1    1    2    0    0  0.29710150857E+00  0.10298660343E+01 -0.49393935105E+00  0.11801988974E+01  0.00000000000E+00 0. -1.
         11    1    3    3    0    0  0.32655398908E+01  0.63331208877E+01 -0.35274580106E+01  0.79507943775E+01  0.51100000000E-03 0. -1.
        -11    1    3    3    0    0  0.37377978424E+02  0.61926800853E+01 -0.43143597201E+01  0.38132351852E+02  0.51100000000E-03 0.  1.
         12    1    3    3    0    0 -0.40940619824E+02 -0.13555667007E+02  0.83357570817E+01  0.43924654873E+02  0.00000000000E+00 0. -1.
</event>
<event>
 7    1  0.1935465E-015  0.9000774E+02  0.7816164E-02  0.1186339E+00
        -11   -1    0    0    0    0  0.00000000000E+00  0.00000000000E+00  0.45593999997E+02  0.45594000000E+02  0.51100000000E-03 0.  1.
         11   -1    0    0    0    0 -0.00000000000E+00 -0.00000000000E+00 -0.45593999997E+02  0.45594000000E+02  0.51100000000E-03 0. -1.
    9900012    2    1    2    0    0  0.91028716974E+00  0.17138240701E+00  0.73145362536E+00  0.90007737713E+02  0.89999999050E+02 0.  0.
         12    1    1    2    0    0 -0.91028716974E+00 -0.17138240701E+00 -0.73145362536E+00  0.11802622873E+01  0.00000000000E+00 0. -1.
         11    1    3    3    0    0 -0.12922721030E+01 -0.56704209156E+01 -0.81187314768E+01  0.99868634517E+01  0.51100000000E-03 0. -1.
        -11    1    3    3    0    0 -0.13900162719E+02 -0.18943108483E+02  0.33920876440E+02  0.41263564332E+02  0.51100000000E-03 0.  1.
         12    1    3    3    0    0  0.16102721992E+02  0.24784911806E+02 -0.25070691338E+02  0.38757309929E+02  0.00000000000E+00 0. -1.
</event>
<event>
 7    1  0.1935465E-015  0.9000764E+02  0.7816164E-02  0.1186339E+00
        -11   -1    0    0    0    0  0.00000000000E+00  0.00000000000E+00  0.45593999997E+02  0.45594000000E+02  0.51100000000E-03 0.  1.
         11   -1    0    0    0    0 -0.00000000000E+00 -0.00000000000E+00 -0.45593999997E+02  0.45594000000E+02  0.51100000000E-03 0. -1.
    9900012    2    1    2    0    0  0.88082205246E+00 -0.74982712444E+00  0.23486401741E+00  0.90007640177E+02  0.89999900227E+02 0.  0.
         12    1    1    2    0    0 -0.88082205246E+00  0.74982712444E+00 -0.23486401741E+00  0.11803598228E+01  0.00000000000E+00 0. -1.
         11    1    3    3    0    0  0.65590806625E+01 -0.66454768712E+01 -0.71124157554E+01  0.11737561933E+02  0.51100000000E-03 0. -1.
        -11    1    3    3    0    0  0.30262986526E+02  0.17155708381E+02  0.17945688645E+02  0.39143510634E+02  0.51100000000E-03 0.  1.
         12    1    3    3    0    0 -0.35941245136E+02 -0.11260058634E+02 -0.10598408872E+02  0.39126567611E+02  0.00000000000E+00 0. -1.
</event>
<event>
 7    1  0.2428301E-015  0.9000771E+02  0.7816164E-02  0.1186339E+00
        -11   -1    0    0    0    0  0.00000000000E+00  0.00000000000E+00  0.45593999997E+02  0.45594000000E+02  0.51100000000E-03 0.  1.
         11   -1    0    0    0    0 -0.00000000000E+00 -0.00000000000E+00 -0.45593999997E+02  0.45594000000E+02  0.51100000000E-03 0. -1.
    9900012    2    1    2    0    0 -0.60572664082E+00  0.15685785689E+00  0.10007922029E+01  0.90007705891E+02  0.89999966809E+02 0.  0.
         12    1    1    2    0    0  0.60572664082E+00 -0.15685785689E+00 -0.10007922029E+01  0.11802941092E+01  0.00000000000E+00 0. -1.
         11    1    3    3    0    0 -0.71648789517E+01 -0.62797745091E+01 -0.19136472393E+01  0.97176696947E+01  0.51100000000E-03 0. -1.
        -11    1    3    3    0    0 -0.17411308929E+01 -0.28867114829E+02  0.24658164570E+02  0.38004827793E+02  0.51100000000E-03 0.  1.
         12    1    3    3    0    0  0.83002832038E+01  0.35303747195E+02 -0.21743725128E+02  0.42285208403E+02  0.00000000000E+00 0. -1.
</event>
<event>
 7    1  0.1935465E-015  0.9000763E+02  0.7816164E-02  0.1186339E+00
        -11   -1    0    0    0    0  0.00000000000E+00  0.00000000000E+00  0.45593999997E+02  0.45594000000E+02  0.51100000000E-03 0. -1.
         11   -1    0    0    0    0 -0.00000000000E+00 -0.00000000000E+00 -0.45593999997E+02  0.45594000000E+02  0.51100000000E-03 0.  1.
    9900012    2    1    2    0    0 -0.81286601253E+00 -0.80670347656E+00 -0.28591241228E+00  0.90007632447E+02  0.89999892395E+02 0.  0.
         12    1    1    2    0    0  0.81286601253E+00  0.80670347656E+00  0.28591241228E+00  0.11803675533E+01  0.00000000000E+00 0. -1.
         11    1    3    3    0    0  0.52213381410E+01  0.24961141636E+02 -0.24460578525E+02  0.35336112772E+02  0.51100000000E-03 0. -1.
        -11    1    3    3    0    0  0.73378647760E+01 -0.33931827713E+01 -0.92497985927E+01  0.12284816769E+02  0.51100000000E-03 0.  1.
        -12    1    3    3    0    0 -0.13372068930E+02 -0.22374662341E+02  0.33424464706E+02  0.42386702906E+02  0.00000000000E+00 0.  1.
</event>
<event>
 7    1  0.1935465E-015  0.9000760E+02  0.7816164E-02  0.1186339E+00
        -11   -1    0    0    0    0  0.00000000000E+00  0.00000000000E+00  0.45593999997E+02  0.45594000000E+02  0.51100000000E-03 0.  1.
         11   -1    0    0    0    0 -0.00000000000E+00 -0.00000000000E+00 -0.45593999997E+02  0.45594000000E+02  0.51100000000E-03 0. -1.
    9900012    2    1    2    0    0 -0.69945181786E-01  0.81684908737E+00  0.84924396376E+00  0.90007597497E+02  0.89999856983E+02 0.  0.
         12    1    1    2    0    0  0.69945181786E-01 -0.81684908737E+00 -0.84924396376E+00  0.11804025034E+01  0.00000000000E+00 0. -1.
         11    1    3    3    0    0 -0.20064213539E+02  0.21445178592E+02 -0.23817550337E+02  0.37811956496E+02  0.51100000000E-03 0. -1.
        -11    1    3    3    0    0 -0.51685087129E+01  0.36045503894E+01 -0.36005760220E+01  0.72574385135E+01  0.51100000000E-03 0.  1.
        -12    1    3    3    0    0  0.25162777070E+02 -0.24232879894E+02  0.28267370322E+02  0.44938202487E+02  0.00000000000E+00 0.  1.
</event>
<event>
 7    1  0.1935465E-015  0.9000817E+02  0.7816164E-02  0.1186338E+00
        -11   -1    0    0    0    0  0.00000000000E+00  0.00000000000E+00  0.45593999997E+02  0.45594000000E+02  0.51100000000E-03 0. -1.
         11   -1    0    0    0    0 -0.00000000000E+00 -0.00000000000E+00 -0.45593999997E+02  0.45594000000E+02  0.51100000000E-03 0.  1.
    9900012    2    1    2    0    0  0.16230072267E+00  0.51702435580E+00 -0.10480181069E+01  0.90008170495E+02  0.90000437544E+02 0.  0.
         12    1    1    2    0    0 -0.16230072267E+00 -0.51702435580E+00  0.10480181069E+01  0.11798295053E+01  0.00000000000E+00 0. -1.
         11    1    3    3    0    0 -0.20531892600E+02 -0.23451186408E+02  0.20332318678E+02  0.37214512501E+02  0.51100000000E-03 0. -1.
        -11    1    3    3    0    0 -0.86254863747E+01 -0.21320719431E+01 -0.24687260069E+01  0.92216784985E+01  0.51100000000E-03 0.  1.
        -12    1    3    3    0    0  0.29319679697E+02  0.26100282707E+02 -0.18911610778E+02  0.43571979495E+02  0.00000000000E+00 0.  1.
</event>
<event>
 7    1  0.1935465E-015  0.9000775E+02  0.7816164E-02  0.1186339E+00
        -11   -1    0    0    0    0  0.00000000000E+00  0.00000000000E+00  0.45593999997E+02  0.45594000000E+02  0.51100000000E-03 0. -1.
         11   -1    0    0    0    0 -0.00000000000E+00 -0.00000000000E+00 -0.45593999997E+02  0.45594000000E+02  0.51100000000E-03 0.  1.
    9900012    2    1    2    0    0 -0.63455322388E+00  0.26355545809E+00 -0.95962552486E+00  0.90007745612E+02  0.90000007054E+02 0.  0.
         12    1    1    2    0    0  0.63455322388E+00 -0.26355545809E+00  0.95962552486E+00  0.11802543884E+01  0.00000000000E+00 0. -1.
         11    1    3    3    0    0 -0.49465942751E+00 -0.76002431971E+01  0.31828522266E+02  0.32727102140E+02  0.51100000000E-03 0. -1.
        -11    1    3    3    0    0 -0.13570804810E+01 -0.26675903950E+01  0.11426917193E+02  0.11812372443E+02  0.51100000000E-03 0.  1.
        -12    1    3    3    0    0  0.12171866846E+01  0.10531389050E+02 -0.44215064984E+02  0.45468271028E+02  0.00000000000E+00 0.  1.
</event>
<event>
 7    1  0.1935465E-015  0.9000773E+02  0.7816164E-02  0.1186339E+00
        -11   -1    0    0    0    0  0.00000000000E+00  0.00000000000E+00  0.45593999997E+02  0.45594000000E+02  0.51100000000E-03 0. -1.
         11   -1    0    0    0    0 -0.00000000000E+00 -0.00000000000E+00 -0.45593999997E+02  0.45594000000E+02  0.51100000000E-03 0.  1.
    9900012    2    1    2    0    0 -0.24373958975E+00  0.93363280602E+00 -0.67968260394E+00  0.90007725606E+02  0.89999986784E+02 0.  0.
         12    1    1    2    0    0  0.24373958975E+00 -0.93363280602E+00  0.67968260394E+00  0.11802743944E+01  0.00000000000E+00 0. -1.
         11    1    3    3    0    0  0.23372453594E+02  0.30339460127E+02  0.55723217208E+01  0.38701488310E+02  0.51100000000E-03 0. -1.
        -11    1    3    3    0    0 -0.59093089947E+01  0.76573539255E+01  0.47166565204E+00  0.96838768416E+01  0.51100000000E-03 0.  1.
        -12    1    3    3    0    0 -0.17706884189E+02 -0.37063181246E+02 -0.67236699767E+01  0.41622360454E+02  0.00000000000E+00 0.  1.
</event>
<event>
 7    1  0.1935465E-015  0.9000799E+02  0.7816164E-02  0.1186339E+00
        -11   -1    0    0    0    0  0.00000000000E+00  0.00000000000E+00  0.45593999997E+02  0.45594000000E+02  0.51100000000E-03 0. -1.
         11   -1    0    0    0    0 -0.00000000000E+00 -0.00000000000E+00 -0.45593999997E+02  0.45594000000E+02  0.51100000000E-03 0.  1.
    9900012    2    1    2    0    0  0.10011169214E+00  0.90006837867E+00 -0.75649196899E+00  0.90007989180E+02  0.90000253836E+02 0.  0.
         12    1    1    2    0    0 -0.10011169214E+00 -0.90006837867E+00  0.75649196899E+00  0.11800108204E+01  0.00000000000E+00 0. -1.
         11    1    3    3    0    0  0.83228278865E+01 -0.79650029714E+01 -0.98954083539E+00  0.11562436062E+02  0.51100000000E-03 0. -1.
        -11    1    3    3    0    0 -0.22605993685E+02 -0.49998750307E+01 -0.32616354366E+02  0.39998203375E+02  0.51100000000E-03 0.  1.
         12    1    3    3    0    0  0.14383277490E+02  0.13864946381E+02  0.32849403233E+02  0.38447349743E+02  0.00000000000E+00 0. -1.
</event>
<event>
 7    1  0.1935465E-015  0.9000770E+02  0.7816164E-02  0.1186339E+00
        -11   -1    0    0    0    0  0.00000000000E+00  0.00000000000E+00  0.45593999997E+02  0.45594000000E+02  0.51100000000E-03 0. -1.
         11   -1    0    0    0    0 -0.00000000000E+00 -0.00000000000E+00 -0.45593999997E+02  0.45594000000E+02  0.51100000000E-03 0.  1.
    9900012    2    1    2    0    0  0.31697388791E+00  0.10775982508E+00 -0.11318265558E+01  0.90007696659E+02  0.89999957454E+02 0.  0.
         12    1    1    2    0    0 -0.31697388791E+00 -0.10775982508E+00  0.11318265558E+01  0.11803033415E+01  0.00000000000E+00 0. -1.
         11    1    3    3    0    0  0.81146206867E+01 -0.14065245696E+01  0.34692411935E+01  0.89364990334E+01  0.51100000000E-03 0. -1.
        -11    1    3    3    0    0  0.24476387078E+02 -0.24116295165E+02  0.12342801719E+02  0.36510737755E+02  0.51100000000E-03 0.  1.
         12    1    3    3    0    0 -0.32274033877E+02  0.25630579560E+02 -0.16943869469E+02  0.44560459870E+02  0.00000000000E+00 0. -1.
</event>
<event>
 7    1  0.1935465E-015  0.9000772E+02  0.7816164E-02  0.1186339E+00
        -11   -1    0    0    0    0  0.00000000000E+00  0.00000000000E+00  0.45593999997E+02  0.45594000000E+02  0.51100000000E-03 0.  1.
         11   -1    0    0    0    0 -0.00000000000E+00 -0.00000000000E+00 -0.45593999997E+02  0.45594000000E+02  0.51100000000E-03 0. -1.
    9900012    2    1    2    0    0 -0.16724473148E+00 -0.28122242842E+00  0.11340250323E+01  0.90007716293E+02  0.89999977348E+02 0.  0.
         12    1    1    2    0    0  0.16724473148E+00  0.28122242842E+00 -0.11340250323E+01  0.11802837067E+01  0.00000000000E+00 0. -1.
         11    1    3    3    0    0 -0.13018566122E+02 -0.83247832794E+01 -0.34890336161E+02  0.38159148813E+02  0.51100000000E-03 0. -1.
        -11    1    3    3    0    0 -0.48583726387E+00 -0.10301308548E+02  0.13296106016E+01  0.10398118112E+02  0.51100000000E-03 0.  1.
        -12    1    3    3    0    0  0.13337158654E+02  0.18344869399E+02  0.34694750591E+02  0.41450449368E+02  0.00000000000E+00 0.  1.
</event>
<event>
 7    1  0.1935465E-015  0.9000834E+02  0.7816164E-02  0.1186338E+00
        -11   -1    0    0    0    0  0.00000000000E+00  0.00000000000E+00  0.45593999997E+02  0.45594000000E+02  0.51100000000E-03 0. -1.
         11   -1    0    0    0    0 -0.00000000000E+00 -0.00000000000E+00 -0.45593999997E+02  0.45594000000E+02  0.51100000000E-03 0.  1.
    9900012    2    1    2    0    0 -0.33064099740E-01 -0.65436923905E+00 -0.98097720848E+00  0.90008335378E+02  0.90000604603E+02 0.  0.
         12    1    1    2    0    0  0.33064099740E-01  0.65436923905E+00  0.98097720848E+00  0.11796646215E+01  0.00000000000E+00 0. -1.
         11    1    3    3    0    0  0.26380486224E+01  0.27097752214E+02  0.31999117056E+02  0.42014175801E+02  0.51100000000E-03 0. -1.
        -11    1    3    3    0    0  0.39214298603E+01  0.13847785359E+01 -0.81466661855E+01  0.91467695905E+01  0.51100000000E-03 0.  1.
        -12    1    3    3    0    0 -0.65925425825E+01 -0.29136899989E+02 -0.24833428079E+02  0.38847389987E+02  0.00000000000E+00 0.  1.
</event>
<event>
 7    1  0.1935465E-015  0.9000784E+02  0.7816164E-02  0.1186339E+00
        -11   -1    0    0    0    0  0.00000000000E+00  0.00000000000E+00  0.45593999997E+02  0.45594000000E+02  0.51100000000E-03 0.  1.
         11   -1    0    0    0    0 -0.00000000000E+00 -0.00000000000E+00 -0.45593999997E+02  0.45594000000E+02  0.51100000000E-03 0. -1.
    9900012    2    1    2    0    0  0.18369401374E+00  0.46134897171E+00  0.10706040417E+01  0.90007839257E+02  0.90000101936E+02 0.  0.
         12    1    1    2    0    0 -0.18369401374E+00 -0.46134897171E+00 -0.10706040417E+01  0.11801607426E+01  0.00000000000E+00 0. -1.
         11    1    3    3    0    0  0.40474815718E+02 -0.73781739932E-01 -0.58224910485E+01  0.40891534007E+02  0.51100000000E-03 0. -1.
        -11    1    3    3    0    0  0.19994697202E+01 -0.51813110369E+01  0.28712055608E+01  0.62520144639E+01  0.51100000000E-03 0.  1.
        -12    1    3    3    0    0 -0.42290591424E+02  0.57164417486E+01  0.40218895295E+01  0.42864290787E+02  0.00000000000E+00 0.  1.
</event>
<event>
 7    1  0.1935465E-015  0.9000754E+02  0.7816164E-02  0.1186339E+00
        -11   -1    0    0    0    0  0.00000000000E+00  0.00000000000E+00  0.45593999997E+02  0.45594000000E+02  0.51100000000E-03 0. -1.
         11   -1    0    0    0    0 -0.00000000000E+00 -0.00000000000E+00 -0.45593999997E+02  0.45594000000E+02  0.51100000000E-03 0.  1.
    9900012    2    1    2    0    0 -0.40153438378E+00 -0.18371724183E+00 -0.10947597036E+01  0.90007542167E+02  0.89999800924E+02 0.  0.
         12    1    1    2    0    0  0.40153438378E+00  0.18371724183E+00  0.10947597036E+01  0.11804578328E+01  0.00000000000E+00 0. -1.
         11    1    3    3    0    0  0.79638861900E+01  0.28328672145E+01  0.10475888360E+01  0.85173976385E+01  0.51100000000E-03 0. -1.
        -11    1    3    3    0    0 -0.21300312861E+02 -0.37164747855E+02 -0.10338095216E+02  0.44065837380E+02  0.51100000000E-03 0.  1.
         12    1    3    3    0    0  0.12934892287E+02  0.34148163398E+02  0.81957466763E+01  0.37424307148E+02  0.00000000000E+00 0. -1.
</event>
<event>
 7    1  0.2353180E-015  0.9000778E+02  0.7816164E-02  0.1186339E+00
        -11   -1    0    0    0    0  0.00000000000E+00  0.00000000000E+00  0.45593999997E+02  0.45594000000E+02  0.51100000000E-03 0.  1.
         11   -1    0    0    0    0 -0.00000000000E+00 -0.00000000000E+00 -0.45593999997E+02  0.45594000000E+02  0.51100000000E-03 0. -1.
    9900012    2    1    2    0    0  0.53427403613E+00 -0.10455196427E+01 -0.11980374061E+00  0.90007782645E+02  0.90000044576E+02 0.  0.
         12    1    1    2    0    0 -0.53427403613E+00  0.10455196427E+01  0.11980374061E+00  0.11802173551E+01  0.00000000000E+00 0. -1.
         11    1    3    3    0    0 -0.76578917322E+01 -0.52265356985E+00 -0.50596302177E+01  0.91932763875E+01  0.51100000000E-03 0. -1.
        -11    1    3    3    0    0 -0.30806182194E+02  0.41947579282E+01  0.21897598060E+02  0.38027906286E+02  0.51100000000E-03 0.  1.
         12    1    3    3    0    0  0.38998347962E+02 -0.47176240010E+01 -0.16957771583E+02  0.42786599971E+02  0.00000000000E+00 0. -1.
</event>
<event>
 7    1  0.1935465E-015  0.9000774E+02  0.7816164E-02  0.1186339E+00
        -11   -1    0    0    0    0  0.00000000000E+00  0.00000000000E+00  0.45593999997E+02  0.45594000000E+02  0.51100000000E-03 0.  1.
         11   -1    0    0    0    0 -0.00000000000E+00 -0.00000000000E+00 -0.45593999997E+02  0.45594000000E+02  0.51100000000E-03 0. -1.
    9900012    2    1    2    0    0  0.69940844441E+00  0.94922488211E+00  0.52935315776E-01  0.90007744860E+02  0.90000006292E+02 0.  0.
         12    1    1    2    0    0 -0.69940844441E+00 -0.94922488211E+00 -0.52935315776E-01  0.11802551405E+01  0.00000000000E+00 0. -1.
         11    1    3    3    0    0 -0.34809225870E+02 -0.13971248945E+02 -0.16627927027E+02  0.41028843028E+02  0.51100000000E-03 0. -1.
        -11    1    3    3    0    0 -0.65567454121E+00  0.60494592063E+01  0.91500071092E+01  0.10988562060E+02  0.51100000000E-03 0.  1.
        -12    1    3    3    0    0  0.36164308856E+02  0.88710146204E+01  0.75308552334E+01  0.37990339771E+02  0.00000000000E+00 0.  1.
</event>
<event>
 7    1  0.1935465E-015  0.9000775E+02  0.7816164E-02  0.1186339E+00
        -11   -1    0    0    0    0  0.00000000000E+00  0.00000000000E+00  0.45593999997E+02  0.45594000000E+02  0.51100000000E-03 0.  1.
         11   -1    0    0    0    0 -0.00000000000E+00 -0.00000000000E+00 -0.45593999997E+02  0.45594000000E+02  0.51100000000E-03 0. -1.
    9900012    2    1    2    0    0  0.85044183057E+00  0.63504621024E+00  0.51619342011E+00  0.90007749754E+02  0.90000011251E+02 0.  0.
         12    1    1    2    0    0 -0.85044183057E+00 -0.63504621024E+00 -0.51619342011E+00  0.11802502460E+01  0.00000000000E+00 0. -1.
         11    1    3    3    0    0 -0.11270982842E+02  0.28193769846E+01  0.20302862931E+00  0.11620032775E+02  0.51100000000E-03 0. -1.
        -11    1    3    3    0    0 -0.18768417049E+02  0.23475205420E+02  0.17419696098E+02  0.34738804821E+02  0.51100000000E-03 0.  1.
         12    1    3    3    0    0  0.30889841721E+02 -0.25659536194E+02 -0.17106531307E+02  0.43648912158E+02  0.00000000000E+00 0. -1.
</event>
<event>
 7    1  0.1935465E-015  0.9000776E+02  0.7816164E-02  0.1186339E+00
        -11   -1    0    0    0    0  0.00000000000E+00  0.00000000000E+00  0.45593999997E+02  0.45594000000E+02  0.51100000000E-03 0. -1.
         11   -1    0    0    0    0 -0.00000000000E+00 -0.00000000000E+00 -0.45593999997E+02  0.45594000000E+02  0.51100000000E-03 0.  1.
    9900012    2    1    2    0    0  0.91825653018E+00  0.48094393197E+00 -0.56432921274E+00  0.90007758677E+02  0.90000020291E+02 0.  0.
         12    1    1    2    0    0 -0.91825653018E+00 -0.48094393197E+00  0.56432921274E+00  0.11802413233E+01  0.00000000000E+00 0. -1.
         11    1    3    3    0    0  0.77069248607E+01 -0.44880982002E+01 -0.15728355453E+02  0.18080953564E+02  0.51100000000E-03 0. -1.
        -11    1    3    3    0    0 -0.23043322849E+02  0.30777736388E+02  0.14255172117E+01  0.38474613509E+02  0.51100000000E-03 0.  1.
         12    1    3    3    0    0  0.16254654519E+02 -0.25808694256E+02  0.13738509029E+02  0.33452191603E+02  0.00000000000E+00 0. -1.
</event>
<event>
 7    1  0.1935465E-015  0.9000817E+02  0.7816164E-02  0.1186338E+00
        -11   -1    0    0    0    0  0.00000000000E+00  0.00000000000E+00  0.45593999997E+02  0.45594000000E+02  0.51100000000E-03 0. -1.
         11   -1    0    0    0    0 -0.00000000000E+00 -0.00000000000E+00 -0.45593999997E+02  0.45594000000E+02  0.51100000000E-03 0.  1.
    9900012    2    1    2    0    0 -0.70624601628E+00  0.58584010268E+00 -0.74162576656E+00  0.90008169148E+02  0.90000436180E+02 0.  0.
         12    1    1    2    0    0  0.70624601628E+00 -0.58584010268E+00  0.74162576656E+00  0.11798308519E+01  0.00000000000E+00 0. -1.
         11    1    3    3    0    0 -0.35821411971E+02  0.88143189496E+01  0.88956336288E+01  0.37947306520E+02  0.51100000000E-03 0. -1.
        -11    1    3    3    0    0 -0.70531019530E+01 -0.16701901160E+01 -0.56684912387E+01  0.92014985393E+01  0.51100000000E-03 0.  1.
        -12    1    3    3    0    0  0.42168267908E+02 -0.65582887308E+01 -0.39687681567E+01  0.42859364089E+02  0.00000000000E+00 0.  1.
</event>
<event>
 7    1  0.1935465E-015  0.9000773E+02  0.7816164E-02  0.1186339E+00
        -11   -1    0    0    0    0  0.00000000000E+00  0.00000000000E+00  0.45593999997E+02  0.45594000000E+02  0.51100000000E-03 0.  1.
         11   -1    0    0    0    0 -0.00000000000E+00 -0.00000000000E+00 -0.45593999997E+02  0.45594000000E+02  0.51100000000E-03 0. -1.
    9900012    2    1    2    0    0 -0.66352154000E+00  0.91566640824E+00  0.33813813724E+00  0.90007727487E+02  0.89999988690E+02 0.  0.
         12    1    1    2    0    0  0.66352154000E+00 -0.91566640824E+00 -0.33813813724E+00  0.11802725131E+01  0.00000000000E+00 0. -1.
         11    1    3    3    0    0  0.30799064977E+02 -0.14292141842E+02  0.11168403148E+02  0.35743264415E+02  0.51100000000E-03 0. -1.
        -11    1    3    3    0    0  0.77515209420E+01  0.41303966709E+01  0.55023544654E+01  0.10364466146E+02  0.51100000000E-03 0.  1.
        -12    1    3    3    0    0 -0.39214107459E+02  0.11077411580E+02 -0.16332619476E+02  0.43899996926E+02  0.00000000000E+00 0.  1.
</event>
<event>
 7    1  0.1935465E-015  0.9000774E+02  0.7816164E-02  0.1186339E+00
        -11   -1    0    0    0    0  0.00000000000E+00  0.00000000000E+00  0.45593999997E+02  0.45594000000E+02  0.51100000000E-03 0. -1.
         11   -1    0    0    0    0 -0.00000000000E+00 -0.00000000000E+00 -0.45593999997E+02  0.45594000000E+02  0.51100000000E-03 0.  1.
    9900012    2    1    2    0    0 -0.85429396641E+00  0.62212441770E+00  0.52551634623E+00  0.90007735452E+02  0.89999996760E+02 0.  0.
         12    1    1    2    0    0  0.85429396641E+00 -0.62212441770E+00 -0.52551634623E+00  0.11802645476E+01  0.00000000000E+00 0. -1.
         11    1    3    3    0    0 -0.31225152222E+02  0.24616734007E+02  0.98397897908E+01  0.40961142414E+02  0.51100000000E-03 0. -1.
        -11    1    3    3    0    0  0.49542426241E+01  0.61061535418E+01 -0.52202272735E+01  0.94382415789E+01  0.51100000000E-03 0.  1.
        -12    1    3    3    0    0  0.25416615632E+02 -0.30100763132E+02 -0.40940461711E+01  0.39608351459E+02  0.00000000000E+00 0.  1.
</event>
<event>
 7    1  0.1935465E-015  0.9000787E+02  0.7816164E-02  0.1186339E+00
        -11   -1    0    0    0    0  0.00000000000E+00  0.00000000000E+00  0.45593999997E+02  0.45594000000E+02  0.51100000000E-03 0.  1.
         11   -1    0    0    0    0 -0.00000000000E+00 -0.00000000000E+00 -0.45593999997E+02  0.45594000000E+02  0.51100000000E-03 0. -1.
    9900012    2    1    2    0    0 -0.52741995820E-01  0.10254207264E+01 -0.58174854999E+00  0.90007872566E+02  0.90000135684E+02 0.  0.
         12    1    1    2    0    0  0.52741995820E-01 -0.10254207264E+01  0.58174854999E+00  0.11801274336E+01  0.00000000000E+00 0. -1.
         11    1    3    3    0    0  0.46569962690E+01 -0.16753441097E+01 -0.35402512777E+02  0.35746780321E+02  0.51100000000E-03 0. -1.
        -11    1    3    3    0    0  0.34136788260E+01  0.32157133596E+01 -0.87548107549E+01  0.99318038217E+01  0.51100000000E-03 0.  1.
        -12    1    3    3    0    0 -0.81234170908E+01 -0.51494852348E+00  0.43575574981E+02  0.44329288424E+02  0.00000000000E+00 0.  1.
</event>
<event>
 7    1  0.2188134E-015  0.9000784E+02  0.7816164E-02  0.1186339E+00
        -11   -1    0    0    0    0  0.00000000000E+00  0.00000000000E+00  0.45593999997E+02  0.45594000000E+02  0.51100000000E-03 0.  1.
         11   -1    0    0    0    0 -0.00000000000E+00 -0.00000000000E+00 -0.45593999997E+02  0.45594000000E+02  0.51100000000E-03 0. -1.
    9900012    2    1    2    0    0  0.36139290015E+00 -0.41523576589E+00  0.10439170395E+01  0.90007835454E+02  0.90000098082E+02 0.  0.
         12    1    1    2    0    0 -0.36139290015E+00  0.41523576589E+00 -0.10439170395E+01  0.11801645457E+01  0.00000000000E+00 0. -1.
         11    1    3    3    0    0  0.58845805698E+01  0.63526295757E+01  0.38788435474E+01  0.94883938859E+01  0.51100000000E-03 0. -1.
        -11    1    3    3    0    0  0.76096907793E+01  0.30046923766E+01  0.36767653251E+02  0.37666907171E+02  0.51100000000E-03 0.  1.
         12    1    3    3    0    0 -0.13132878449E+02 -0.97725577182E+01 -0.39602579759E+02  0.42852534397E+02  0.00000000000E+00 0. -1.
</event>
<event>
 7    1  0.1935465E-015  0.9000775E+02  0.7816164E-02  0.1186339E+00
        -11   -1    0    0    0    0  0.00000000000E+00  0.00000000000E+00  0.45593999997E+02  0.45594000000E+02  0.51100000000E-03 0.  1.
         11   -1    0    0    0    0 -0.00000000000E+00 -0.00000000000E+00 -0.45593999997E+02  0.45594000000E+02  0.51100000000E-03 0. -1.
    9900012    2    1    2    0    0  0.92979895720E+00  0.30179653371E+00  0.66134210117E+00  0.90007753999E+02  0.90000015552E+02 0.  0.
         12    1    1    2    0    0 -0.92979895720E+00 -0.30179653371E+00 -0.66134210117E+00  0.11802460012E+01  0.00000000000E+00 0. -1.
         11    1    3    3    0    0  0.11834108566E+02  0.46582115342E+01 -0.38834828558E+02  0.40864274980E+02  0.51100000000E-03 0. -1.
        -11    1    3    3    0    0 -0.10410028853E+02  0.61910750495E+01  0.50627229585E+01  0.13127424538E+02  0.51100000000E-03 0.  1.
        -12    1    3    3    0    0 -0.49428075543E+00 -0.10547490050E+02  0.34433447701E+02  0.36016054481E+02  0.00000000000E+00 0.  1.
</event>
<event>
 7    1  0.1935465E-015  0.9000771E+02  0.7816164E-02  0.1186339E+00
        -11   -1    0    0    0    0  0.00000000000E+00  0.00000000000E+00  0.45593999997E+02  0.45594000000E+02  0.51100000000E-03 0.  1.
         11   -1    0    0    0    0 -0.00000000000E+00 -0.00000000000E+00 -0.45593999997E+02  0.45594000000E+02  0.51100000000E-03 0. -1.
    9900012    2    1    2    0    0 -0.97404610519E+00 -0.33840069893E+00  0.57428029339E+00  0.90007712449E+02  0.89999973453E+02 0.  0.
         12    1    1    2    0    0  0.97404610519E+00  0.33840069893E+00 -0.57428029339E+00  0.11802875512E+01  0.00000000000E+00 0. -1.
         11    1    3    3    0    0  0.14208588041E+02  0.10894489590E+02  0.53127082409E+01  0.18676154494E+02  0.51100000000E-03 0. -1.
        -11    1    3    3    0    0 -0.21190906522E+02 -0.17365720492E+02  0.26991925952E+02  0.38460198053E+02  0.51100000000E-03 0.  1.
         12    1    3    3    0    0  0.60082723758E+01  0.61328302025E+01 -0.31730353900E+02  0.32871359902E+02  0.00000000000E+00 0. -1.
</event>
<event>
 7    1  0.1935465E-015  0.9000772E+02  0.7816164E-02  0.1186339E+00
        -11   -1    0    0    0    0  0.00000000000E+00  0.00000000000E+00  0.45593999997E+02  0.45594000000E+02  0.51100000000E-03 0.  1.
         11   -1    0    0    0    0 -0.00000000000E+00 -0.00000000000E+00 -0.45593999997E+02  0.45594000000E+02  0.51100000000E-03 0. -1.
    9900012    2    1    2    0    0  0.70246475086E+00  0.92983996738E+00 -0.18705693425E+00  0.90007724868E+02  0.89999986036E+02 0.  0.
         12    1    1    2    0    0 -0.70246475086E+00 -0.92983996738E+00  0.18705693425E+00  0.11802751322E+01  0.00000000000E+00 0. -1.
         11    1    3    3    0    0 -0.25129172240E+02  0.82022518476E+01 -0.29571511161E+02  0.39663919441E+02  0.51100000000E-03 0. -1.
        -11    1    3    3    0    0 -0.58664778402E+01 -0.69483475173E+01  0.52320260824E+01  0.10491386594E+02  0.51100000000E-03 0.  1.
        -12    1    3    3    0    0  0.31698114831E+02 -0.32406436298E+00  0.24152428145E+02  0.39852418833E+02  0.00000000000E+00 0.  1.
</event>
<event>
 7    1  0.1935465E-015  0.9000779E+02  0.7816164E-02  0.1186339E+00
        -11   -1    0    0    0    0  0.00000000000E+00  0.00000000000E+00  0.45593999997E+02  0.45594000000E+02  0.51100000000E-03 0. -1.
         11   -1    0    0    0    0 -0.00000000000E+00 -0.00000000000E+00 -0.45593999997E+02  0.45594000000E+02  0.51100000000E-03 0.  1.
    9900012    2    1    2    0    0  0.61185614413E+00  0.25865393441E+00 -0.97551574231E+00  0.90007787832E+02  0.90000049831E+02 0.  0.
         12    1    1    2    0    0 -0.61185614413E+00 -0.25865393441E+00  0.97551574231E+00  0.11802121684E+01  0.00000000000E+00 0. -1.
         11    1    3    3    0    0  0.11157098127E+02  0.59254865424E+00  0.21364690009E+01  0.11375256154E+02  0.51100000000E-03 0. -1.
        -11    1    3    3    0    0 -0.23507381907E+01 -0.20681608749E+01 -0.40346364439E+02  0.40467670839E+02  0.51100000000E-03 0.  1.
         12    1    3    3    0    0 -0.81945037920E+01  0.17342661551E+01  0.37234379696E+02  0.38164860838E+02  0.00000000000E+00 0. -1.
</event>
<event>
 7    1  0.1935465E-015  0.9000773E+02  0.7816164E-02  0.1186339E+00
        -11   -1    0    0    0    0  0.00000000000E+00  0.00000000000E+00  0.45593999997E+02  0.45594000000E+02  0.51100000000E-03 0. -1.
         11   -1    0    0    0    0 -0.00000000000E+00 -0.00000000000E+00 -0.45593999997E+02  0.45594000000E+02  0.51100000000E-03 0.  1.
    9900012    2    1    2    0    0 -0.12394366072E-01 -0.18265679111E+00 -0.11659881183E+01  0.90007726550E+02  0.89999987741E+02 0.  0.
         12    1    1    2    0    0  0.12394366072E-01  0.18265679111E+00  0.11659881183E+01  0.11802734495E+01  0.00000000000E+00 0. -1.
         11    1    3    3    0    0 -0.40249204717E+01  0.11956575046E+02  0.30765324020E+02  0.33251538821E+02  0.51100000000E-03 0. -1.
        -11    1    3    3    0    0 -0.47586253998E+01  0.13400685768E+02  0.89646233963E+00  0.14248738180E+02  0.51100000000E-03 0.  1.
        -12    1    3    3    0    0  0.87711515054E+01 -0.25539917605E+02 -0.32827774478E+02  0.42507449549E+02  0.00000000000E+00 0.  1.
</event>
<event>
 7    1  0.1935465E-015  0.9000776E+02  0.7816164E-02  0.1186339E+00
        -11   -1    0    0    0    0  0.00000000000E+00  0.00000000000E+00  0.45593999997E+02  0.45594000000E+02  0.51100000000E-03 0.  1.
         11   -1    0    0    0    0 -0.00000000000E+00 -0.00000000000E+00 -0.45593999997E+02  0.45594000000E+02  0.51100000000E-03 0. -1.
    9900012    2    1    2    0    0 -0.32729075981E+00 -0.11253121739E+01 -0.13972669889E+00  0.90007758380E+02  0.90000019991E+02 0.  0.
         12    1    1    2    0    0  0.32729075981E+00  0.11253121739E+01  0.13972669889E+00  0.11802416195E+01  0.00000000000E+00 0. -1.
         11    1    3    3    0    0  0.12140658401E+01  0.87599657331E+00  0.73282508345E+01  0.74796113813E+01  0.51100000000E-03 0. -1.
        -11    1    3    3    0    0 -0.14277589198E+02  0.18384697940E+01  0.35096149472E+02  0.37933747936E+02  0.51100000000E-03 0.  1.
         12    1    3    3    0    0  0.12736232598E+02 -0.38397785411E+01 -0.42564127005E+02  0.44594399063E+02  0.00000000000E+00 0. -1.
</event>
<event>
 7    1  0.1935465E-015  0.9000776E+02  0.7816164E-02  0.1186339E+00
        -11   -1    0    0    0    0  0.00000000000E+00  0.00000000000E+00  0.45593999997E+02  0.45594000000E+02  0.51100000000E-03 0. -1.
         11   -1    0    0    0    0 -0.00000000000E+00 -0.00000000000E+00 -0.45593999997E+02  0.45594000000E+02  0.51100000000E-03 0.  1.
    9900012    2    1    2    0    0  0.11423277309E+01 -0.29556993382E+00  0.26518884876E-01  0.90007755330E+02  0.90000016900E+02 0.  0.
         12    1    1    2    0    0 -0.11423277309E+01  0.29556993382E+00 -0.26518884876E-01  0.11802446704E+01  0.00000000000E+00 0. -1.
         11    1    3    3    0    0 -0.27881402704E+01  0.29379696513E+02 -0.23414326055E+02  0.37671885515E+02  0.51100000000E-03 0. -1.
        -11    1    3    3    0    0 -0.52004662502E+01 -0.29897576773E+01 -0.80640834445E+01  0.10050519501E+02  0.51100000000E-03 0.  1.
        -12    1    3    3    0    0  0.91309342515E+01 -0.26685508769E+02  0.31504928385E+02  0.42285350313E+02  0.00000000000E+00 0.  1.
</event>
<event>
 7    1  0.1935465E-015  0.9000795E+02  0.7816164E-02  0.1186339E+00
        -11   -1    0    0    0    0  0.00000000000E+00  0.00000000000E+00  0.45593999997E+02  0.45594000000E+02  0.51100000000E-03 0.  1.
         11   -1    0    0    0    0 -0.00000000000E+00 -0.00000000000E+00 -0.45593999997E+02  0.45594000000E+02  0.51100000000E-03 0. -1.
    9900012    2    1    2    0    0 -0.10031404343E+01 -0.32172340776E+00  0.53170805958E+00  0.90007953330E+02  0.90000217514E+02 0.  0.
         12    1    1    2    0    0  0.10031404343E+01  0.32172340776E+00 -0.53170805958E+00  0.11800466697E+01  0.00000000000E+00 0. -1.
         11    1    3    3    0    0  0.22992468552E+01 -0.33444109242E+02 -0.13166596084E+02  0.36016027430E+02  0.51100000000E-03 0. -1.
        -11    1    3    3    0    0 -0.59285144970E+01 -0.84792557035E+01  0.89194876491E+00  0.10384634528E+02  0.51100000000E-03 0.  1.
        -12    1    3    3    0    0  0.26261272076E+01  0.41601641538E+02  0.12806355379E+02  0.43607291372E+02  0.00000000000E+00 0.  1.
</event>
<event>
 7    1  0.1935465E-015  0.9000801E+02  0.7816164E-02  0.1186339E+00
        -11   -1    0    0    0    0  0.00000000000E+00  0.00000000000E+00  0.45593999997E+02  0.45594000000E+02  0.51100000000E-03 0. -1.
         11   -1    0    0    0    0 -0.00000000000E+00 -0.00000000000E+00 -0.45593999997E+02  0.45594000000E+02  0.51100000000E-03 0.  1.
    9900012    2    1    2    0    0  0.11474290267E+01 -0.63669822154E-01 -0.26782974161E+00  0.90008008480E+02  0.90000273391E+02 0.  0.
         12    1    1    2    0    0 -0.11474290267E+01  0.63669822154E-01  0.26782974161E+00  0.11799915204E+01  0.00000000000E+00 0. -1.
         11    1    3    3    0    0 -0.71307142685E+01 -0.53636884854E+01  0.31022588507E+02  0.32280291791E+02  0.51100000000E-03 0. -1.
        -11    1    3    3    0    0  0.47553881400E+01  0.22871608934E+01  0.12564969274E+02  0.13628032670E+02  0.51100000000E-03 0.  1.
        -12    1    3    3    0    0  0.35227551553E+01  0.30128577699E+01 -0.43855387523E+02  0.44099684020E+02  0.00000000000E+00 0.  1.
</event>
<event>
 7    1  0.1935465E-015  0.9000775E+02  0.7816164E-02  0.1186339E+00
        -11   -1    0    0    0    0  0.00000000000E+00  0.00000000000E+00  0.45593999997E+02  0.45594000000E+02  0.51100000000E-03 0. -1.
         11   -1    0    0    0    0 -0.00000000000E+00 -0.00000000000E+00 -0.45593999997E+02  0.45594000000E+02  0.51100000000E-03 0.  1.
    9900012    2    1    2    0    0  0.96274282426E+00 -0.50394809949E+00 -0.46060229842E+00  0.90007749217E+02  0.90000010707E+02 0.  0.
         12    1    1    2    0    0 -0.96274282426E+00  0.50394809949E+00  0.46060229842E+00  0.11802507827E+01  0.00000000000E+00 0. -1.
         11    1    3    3    0    0 -0.46312048476E+01 -0.30275690120E+02  0.24882374256E+02  0.39461348425E+02  0.51100000000E-03 0. -1.
        -11    1    3    3    0    0  0.93175282556E+01 -0.18531787849E+01  0.53320073339E+00  0.95149833255E+01  0.51100000000E-03 0.  1.
        -12    1    3    3    0    0 -0.37235805837E+01  0.31624920806E+02 -0.25876177288E+02  0.41031417467E+02  0.00000000000E+00 0.  1.
</event>
<event>
 7    1  0.1935465E-015  0.9000778E+02  0.7816164E-02  0.1186339E+00
        -11   -1    0    0    0    0  0.00000000000E+00  0.00000000000E+00  0.45593999997E+02  0.45594000000E+02  0.51100000000E-03 0.  1.
         11   -1    0    0    0    0 -0.00000000000E+00 -0.00000000000E+00 -0.45593999997E+02  0.45594000000E+02  0.51100000000E-03 0. -1.
    9900012    2    1    2    0    0 -0.99564030493E+00 -0.40099817897E+00 -0.49072283602E+00  0.90007784741E+02  0.90000046699E+02 0.  0.
         12    1    1    2    0    0  0.99564030493E+00  0.40099817897E+00  0.49072283602E+00  0.11802152592E+01  0.00000000000E+00 0. -1.
         11    1    3    3    0    0 -0.65389013647E+00 -0.48776450299E+01 -0.37875841299E+02  0.38194218773E+02  0.51100000000E-03 0. -1.
        -11    1    3    3    0    0 -0.55748183332E+01 -0.75426647146E+01 -0.26011650060E+01  0.97332651302E+01  0.51100000000E-03 0.  1.
        -12    1    3    3    0    0  0.52330681648E+01  0.12019311565E+02  0.39986283469E+02  0.42080300837E+02  0.00000000000E+00 0.  1.
</event>
<event>
 7    1  0.1935465E-015  0.9000816E+02  0.7816164E-02  0.1186338E+00
        -11   -1    0    0    0    0  0.00000000000E+00  0.00000000000E+00  0.45593999997E+02  0.45594000000E+02  0.51100000000E-03 0.  1.
         11   -1    0    0    0    0 -0.00000000000E+00 -0.00000000000E+00 -0.45593999997E+02  0.45594000000E+02  0.51100000000E-03 0. -1.
    9900012    2    1    2    0    0 -0.22712699439E+00 -0.73685079414E+00  0.89301963310E+00  0.90008161100E+02  0.90000428026E+02 0.  0.
         12    1    1    2    0    0  0.22712699439E+00  0.73685079414E+00 -0.89301963310E+00  0.11798388998E+01  0.00000000000E+00 0. -1.
         11    1    3    3    0    0  0.40835301246E+00  0.65489581747E+01 -0.53916240476E+01  0.84926565625E+01  0.51100000000E-03 0. -1.
        -11    1    3    3    0    0 -0.37695123797E+02 -0.16691400626E+02  0.11810426458E+02  0.42883696043E+02  0.51100000000E-03 0.  1.
         12    1    3    3    0    0  0.37059643790E+02  0.94055916568E+01 -0.55257827774E+01  0.38631808495E+02  0.00000000000E+00 0. -1.
</event>
<event>
 7    1  0.1935465E-015  0.9000775E+02  0.7816164E-02  0.1186339E+00
        -11   -1    0    0    0    0  0.00000000000E+00  0.00000000000E+00  0.45593999997E+02  0.45594000000E+02  0.51100000000E-03 0.  1.
         11   -1    0    0    0    0 -0.00000000000E+00 -0.00000000000E+00 -0.45593999997E+02  0.45594000000E+02  0.51100000000E-03 0. -1.
    9900012    2    1    2    0    0  0.55563117661E+00 -0.90532553325E+00  0.51443910203E+00  0.90007750910E+02  0.90000012422E+02 0.  0.
         12    1    1    2    0    0 -0.55563117661E+00  0.90532553325E+00 -0.51443910203E+00  0.11802490904E+01  0.00000000000E+00 0. -1.
         11    1    3    3    0    0 -0.32316668831E+02 -0.19497580258E+02 -0.17494836687E+02  0.41600384989E+02  0.51100000000E-03 0. -1.
        -11    1    3    3    0    0 -0.26630319387E+01  0.59248507462E+01  0.59289586810E+01  0.87947795181E+01  0.51100000000E-03 0.  1.
        -12    1    3    3    0    0  0.35535331946E+02  0.12667403979E+02  0.12080317108E+02  0.39612586403E+02  0.00000000000E+00 0.  1.
</event>
<event>
 7    1  0.1935465E-015  0.9000774E+02  0.7816164E-02  0.1186339E+00
        -11   -1    0    0    0    0  0.00000000000E+00  0.00000000000E+00  0.45593999997E+02  0.45594000000E+02  0.51100000000E-03 0. -1.
         11   -1    0    0    0    0 -0.00000000000E+00 -0.00000000000E+00 -0.45593999997E+02  0.45594000000E+02  0.51100000000E-03 0.  1.
    9900012    2    1    2    0    0 -0.94359335770E-01  0.62070001705E+00  0.99942387271E+00  0.90007737202E+02  0.89999998533E+02 0.  0.
         12    1    1    2    0    0  0.94359335770E-01 -0.62070001705E+00 -0.99942387271E+00  0.11802627982E+01  0.00000000000E+00 0. -1.
         11    1    3    3    0    0 -0.35360538394E+02 -0.62296993286E+01 -0.74490896419E+01  0.36669684564E+02  0.51100000000E-03 0. -1.
        -11    1    3    3    0    0 -0.61343890387E+01  0.65989237399E+01 -0.43481912696E+01  0.10004163682E+02  0.51100000000E-03 0.  1.
        -12    1    3    3    0    0  0.41400568097E+02  0.25147560572E+00  0.12796704784E+02  0.43333888956E+02  0.00000000000E+00 0.  1.
</event>
<event>
 7    1  0.1935465E-015  0.9000777E+02  0.7816164E-02  0.1186339E+00
        -11   -1    0    0    0    0  0.00000000000E+00  0.00000000000E+00  0.45593999997E+02  0.45594000000E+02  0.51100000000E-03 0. -1.
         11   -1    0    0    0    0 -0.00000000000E+00 -0.00000000000E+00 -0.45593999997E+02  0.45594000000E+02  0.51100000000E-03 0.  1.
    9900012    2    1    2    0    0 -0.11283220568E+01 -0.14773533729E+00 -0.31304996970E+00  0.90007772616E+02  0.90000034415E+02 0.  0.
         12    1    1    2    0    0  0.11283220568E+01  0.14773533729E+00  0.31304996970E+00  0.11802273837E+01  0.00000000000E+00 0. -1.
         11    1    3    3    0    0  0.69131638791E+01 -0.27624541072E+01  0.50951785042E+01  0.90212987848E+01  0.51100000000E-03 0. -1.
        -11    1    3    3    0    0 -0.21103102778E+01  0.21830493359E+02 -0.37307795928E+02  0.43276962544E+02  0.51100000000E-03 0.  1.
         12    1    3    3    0    0 -0.59311756581E+01 -0.19215774590E+02  0.31899567454E+02  0.37709511287E+02  0.00000000000E+00 0. -1.
</event>
<event>
 7    1  0.1935465E-015  0.9000782E+02  0.7816164E-02  0.1186339E+00
        -11   -1    0    0    0    0  0.00000000000E+00  0.00000000000E+00  0.45593999997E+02  0.45594000000E+02  0.51100000000E-03 0. -1.
         11   -1    0    0    0    0 -0.00000000000E+00 -0.00000000000E+00 -0.45593999997E+02  0.45594000000E+02  0.51100000000E-03 0.  1.
    9900012    2    1    2    0    0  0.28298753370E+00  0.73424567244E+00  0.87955369692E+00  0.90007824862E+02  0.90000087350E+02 0.  0.
         12    1    1    2    0    0 -0.28298753370E+00 -0.73424567244E+00 -0.87955369692E+00  0.11801751385E+01  0.00000000000E+00 0. -1.
         11    1    3    3    0    0 -0.16603286222E+01 -0.85301952014E+01  0.59981361277E+01  0.10559287787E+02  0.51100000000E-03 0. -1.
        -11    1    3    3    0    0  0.23811727012E+02  0.27775638393E+02  0.19691683329E+02  0.41548126601E+02  0.51100000000E-03 0.  1.
         12    1    3    3    0    0 -0.21868410856E+02 -0.18511197520E+02 -0.24810265760E+02  0.37900410473E+02  0.00000000000E+00 0. -1.
</event>
<event>
 7    1  0.1935465E-015  0.9000773E+02  0.7816164E-02  0.1186339E+00
        -11   -1    0    0    0    0  0.00000000000E+00  0.00000000000E+00  0.45593999997E+02  0.45594000000E+02  0.51100000000E-03 0.  1.
         11   -1    0    0    0    0 -0.00000000000E+00 -0.00000000000E+00 -0.45593999997E+02  0.45594000000E+02  0.51100000000E-03 0. -1.
    9900012    2    1    2    0    0  0.18744833916E-01  0.73106378171E+00  0.92641077309E+00  0.90007727768E+02  0.89999988974E+02 0.  0.
         12    1    1    2    0    0 -0.18744833916E-01 -0.73106378171E+00 -0.92641077309E+00  0.11802722323E+01  0.00000000000E+00 0. -1.
         11    1    3    3    0    0 -0.80144353912E+01 -0.50200760462E+01 -0.88062135557E+01  0.12922141293E+02  0.51100000000E-03 0. -1.
        -11    1    3    3    0    0 -0.26852494753E+02  0.24343663755E+02 -0.51416596774E+00  0.36248238666E+02  0.51100000000E-03 0.  1.
         12    1    3    3    0    0  0.34885674978E+02 -0.18592523928E+02  0.10246790297E+02  0.40837347809E+02  0.00000000000E+00 0. -1.
</event>
<event>
 7    1  0.1935465E-015  0.9000770E+02  0.7816164E-02  0.1186339E+00
        -11   -1    0    0    0    0  0.00000000000E+00  0.00000000000E+00  0.45593999997E+02  0.45594000000E+02  0.51100000000E-03 0. -1.
         11   -1    0    0    0    0 -0.00000000000E+00 -0.00000000000E+00 -0.45593999997E+02  0.45594000000E+02  0.51100000000E-03 0.  1.
    9900012    2    1    2    0    0 -0.44248893505E+00 -0.16299034098E+00 -0.10820064074E+01  0.90007703353E+02  0.89999964237E+02 0.  0.
         12    1    1    2    0    0  0.44248893505E+00  0.16299034098E+00  0.10820064074E+01  0.11802966469E+01  0.00000000000E+00 0. -1.
         11    1    3    3    0    0  0.54873758425E+01  0.38893123898E+02  0.77273795483E+01  0.40031222504E+02  0.51100000000E-03 0. -1.
        -11    1    3    3    0    0  0.48554164032E+01 -0.12218021647E+00 -0.82487145918E+01  0.95724233678E+01  0.51100000000E-03 0.  1.
        -12    1    3    3    0    0 -0.10785281181E+02 -0.38933934023E+02 -0.56067136390E+00  0.40404057482E+02  0.00000000000E+00 0.  1.
</event>
<event>
 7    1  0.1935465E-015  0.9000838E+02  0.7816164E-02  0.1186338E+00
        -11   -1    0    0    0    0  0.00000000000E+00  0.00000000000E+00  0.45593999997E+02  0.45594000000E+02  0.51100000000E-03 0.  1.
         11   -1    0    0    0    0 -0.00000000000E+00 -0.00000000000E+00 -0.45593999997E+02  0.45594000000E+02  0.51100000000E-03 0. -1.
    9900012    2    1    2    0    0 -0.76838148796E+00 -0.88690372375E+00  0.12039773748E+00  0.90008379747E+02  0.90000649557E+02 0.  0.
         12    1    1    2    0    0  0.76838148796E+00  0.88690372375E+00 -0.12039773748E+00  0.11796202531E+01  0.00000000000E+00 0. -1.
         11    1    3    3    0    0 -0.45658895849E+01  0.13593588437E+01  0.44591400201E+01  0.65252688946E+01  0.51100000000E-03 0. -1.
        -11    1    3    3    0    0  0.18331670575E+02  0.32119545254E+02  0.16776573267E+02  0.40609958683E+02  0.51100000000E-03 0.  1.
         12    1    3    3    0    0 -0.14534162478E+02 -0.34365807821E+02 -0.21115315550E+02  0.42873152169E+02  0.00000000000E+00 0. -1.
</event>
<event>
 7    1  0.1935465E-015  0.9000775E+02  0.7816164E-02  0.1186339E+00
        -11   -1    0    0    0    0  0.00000000000E+00  0.00000000000E+00  0.45593999997E+02  0.45594000000E+02  0.51100000000E-03 0.  1.
         11   -1    0    0    0    0 -0.00000000000E+00 -0.00000000000E+00 -0.45593999997E+02  0.45594000000E+02  0.51100000000E-03 0. -1.
    9900012    2    1    2    0    0  0.69565079326E+00 -0.26682863435E+00  0.91535062846E+00  0.90007748197E+02  0.90000009673E+02 0.  0.
         12    1    1    2    0    0 -0.69565079326E+00  0.26682863435E+00 -0.91535062846E+00  0.11802518033E+01  0.00000000000E+00 0. -1.
         11    1    3    3    0    0 -0.44777597539E+01 -0.14965095392E+02  0.22013573907E+02  0.26992625825E+02  0.51100000000E-03 0. -1.
        -11    1    3    3    0    0 -0.51199733076E+01  0.14269255739E+02  0.17449076621E+02  0.23114845040E+02  0.51100000000E-03 0.  1.
         12    1    3    3    0    0  0.10293383855E+02  0.42901101847E+00 -0.38547299899E+02  0.39900277332E+02  0.00000000000E+00 0. -1.
</event>
<event>
 7    1  0.1935465E-015  0.9000784E+02  0.7816164E-02  0.1186339E+00
        -11   -1    0    0    0    0  0.00000000000E+00  0.00000000000E+00  0.45593999997E+02  0.45594000000E+02  0.51100000000E-03 0.  1.
         11   -1    0    0    0    0 -0.00000000000E+00 -0.00000000000E+00 -0.45593999997E+02  0.45594000000E+02  0.51100000000E-03 0. -1.
    9900012    2    1    2    0    0  0.20671995835E+00 -0.74920066861E+00  0.88810610364E+00  0.90007844402E+02  0.90000107149E+02 0.  0.
         12    1    1    2    0    0 -0.20671995835E+00  0.74920066861E+00 -0.88810610364E+00  0.11801555975E+01  0.00000000000E+00 0. -1.
         11    1    3    3    0    0  0.27405023282E+02  0.29965790148E+01 -0.21331602492E+02  0.34857596762E+02  0.51100000000E-03 0. -1.
        -11    1    3    3    0    0  0.10169538555E+02 -0.37804381645E+01 -0.14059495836E+01  0.10940197513E+02  0.51100000000E-03 0.  1.
        -12    1    3    3    0    0 -0.37367841879E+02  0.34658481071E-01  0.23625658179E+02  0.44210050127E+02  0.00000000000E+00 0.  1.
</event>
<event>
 7    1  0.1935465E-015  0.9000820E+02  0.7816164E-02  0.1186338E+00
        -11   -1    0    0    0    0  0.00000000000E+00  0.00000000000E+00  0.45593999997E+02  0.45594000000E+02  0.51100000000E-03 0. -1.
         11   -1    0    0    0    0 -0.00000000000E+00 -0.00000000000E+00 -0.45593999997E+02  0.45594000000E+02  0.51100000000E-03 0.  1.
    9900012    2    1    2    0    0 -0.88167862126E+00 -0.47956233062E+00 -0.62014695290E+00  0.90008203635E+02  0.90000471122E+02 0.  0.
         12    1    1    2    0    0  0.88167862126E+00  0.47956233062E+00  0.62014695290E+00  0.11797963652E+01  0.00000000000E+00 0. -1.
         11    1    3    3    0    0 -0.99235163355E+01  0.15683307128E+00 -0.96705722958E+00  0.99717587727E+01  0.51100000000E-03 0. -1.
        -11    1    3    3    0    0 -0.10581701982E+02  0.36496583763E+02  0.13757673630E+01  0.38024541802E+02  0.51100000000E-03 0.  1.
         12    1    3    3    0    0  0.19623539696E+02 -0.37132979164E+02 -0.10288570863E+01  0.42011903060E+02  0.00000000000E+00 0. -1.
</event>
<event>
 7    1  0.1935465E-015  0.9000775E+02  0.7816164E-02  0.1186339E+00
        -11   -1    0    0    0    0  0.00000000000E+00  0.00000000000E+00  0.45593999997E+02  0.45594000000E+02  0.51100000000E-03 0. -1.
         11   -1    0    0    0    0 -0.00000000000E+00 -0.00000000000E+00 -0.45593999997E+02  0.45594000000E+02  0.51100000000E-03 0.  1.
    9900012    2    1    2    0    0  0.10346928129E+01 -0.44322206467E+00 -0.35490047332E+00  0.90007750297E+02  0.90000011801E+02 0.  0.
         12    1    1    2    0    0 -0.10346928129E+01  0.44322206467E+00  0.35490047332E+00  0.11802497031E+01  0.00000000000E+00 0. -1.
         11    1    3    3    0    0  0.94627626066E+01 -0.52828589747E+00  0.62745226450E+01  0.11366292132E+02  0.51100000000E-03 0. -1.
        -11    1    3    3    0    0 -0.45785992557E+00  0.25701732730E+02 -0.32455797348E+02  0.41402505755E+02  0.51100000000E-03 0.  1.
         12    1    3    3    0    0 -0.79702098682E+01 -0.25616668898E+02  0.25826374230E+02  0.37238952410E+02  0.00000000000E+00 0. -1.
</event>
<event>
 7    1  0.1935465E-015  0.9000783E+02  0.7816164E-02  0.1186339E+00
        -11   -1    0    0    0    0  0.00000000000E+00  0.00000000000E+00  0.45593999997E+02  0.45594000000E+02  0.51100000000E-03 0.  1.
         11   -1    0    0    0    0 -0.00000000000E+00 -0.00000000000E+00 -0.45593999997E+02  0.45594000000E+02  0.51100000000E-03 0. -1.
    9900012    2    1    2    0    0  0.72939785740E+00 -0.83758935936E+00  0.39902358207E+00  0.90007831797E+02  0.90000094376E+02 0.  0.
         12    1    1    2    0    0 -0.72939785740E+00  0.83758935936E+00 -0.39902358207E+00  0.11801682034E+01  0.00000000000E+00 0. -1.
         11    1    3    3    0    0  0.28584538954E+02 -0.31300457382E+02 -0.53063773423E+01  0.42719458568E+02  0.51100000000E-03 0. -1.
        -11    1    3    3    0    0 -0.46231272821E+01 -0.21761094482E+01  0.51023861732E+01  0.72210181497E+01  0.51100000000E-03 0.  1.
        -12    1    3    3    0    0 -0.23232013815E+02  0.32638977471E+02  0.60301475124E+00  0.40067355079E+02  0.00000000000E+00 0.  1.
</event>
<event>
 7    1  0.1935465E-015  0.9000770E+02  0.7816164E-02  0.1186339E+00
        -11   -1    0    0    0    0  0.00000000000E+00  0.00000000000E+00  0.45593999997E+02  0.45594000000E+02  0.51100000000E-03 0.  1.
         11   -1    0    0    0    0 -0.00000000000E+00 -0.00000000000E+00 -0.45593999997E+02  0.45594000000E+02  0.51100000000E-03 0. -1.
    9900012    2    1    2    0    0  0.80465003732E+00  0.86320420320E+00  0.22753796574E-01  0.90007703040E+02  0.89999963920E+02 0.  0.
         12    1    1    2    0    0 -0.80465003732E+00 -0.86320420320E+00 -0.22753796574E-01  0.11802969602E+01  0.00000000000E+00 0. -1.
         11    1    3    3    0    0 -0.14842862350E+00 -0.11190946054E+02 -0.54103705296E+01  0.12431066493E+02  0.51100000000E-03 0. -1.
        -11    1    3    3    0    0  0.30594371814E+02  0.24193307675E+02  0.18267766670E+02  0.43070210381E+02  0.51100000000E-03 0.  1.
         12    1    3    3    0    0 -0.29641293153E+02 -0.12139157418E+02 -0.12834642344E+02  0.34506426165E+02  0.00000000000E+00 0. -1.
</event>
<event>
 7    1  0.1935465E-015  0.9000774E+02  0.7816164E-02  0.1186339E+00
        -11   -1    0    0    0    0  0.00000000000E+00  0.00000000000E+00  0.45593999997E+02  0.45594000000E+02  0.51100000000E-03 0. -1.
         11   -1    0    0    0    0 -0.00000000000E+00 -0.00000000000E+00 -0.45593999997E+02  0.45594000000E+02  0.51100000000E-03 0.  1.
    9900012    2    1    2    0    0  0.30992421769E+00 -0.73227793795E-02 -0.11388151103E+01  0.90007743037E+02  0.90000004445E+02 0.  0.
         12    1    1    2    0    0 -0.30992421769E+00  0.73227793795E-02  0.11388151103E+01  0.11802569632E+01  0.00000000000E+00 0. -1.
         11    1    3    3    0    0  0.65194918481E+01  0.35126225718E+00  0.43128590894E+01  0.78248267021E+01  0.51100000000E-03 0. -1.
        -11    1    3    3    0    0 -0.55057579816E+01  0.15491514111E+02 -0.40500503807E+02  0.43710309874E+02  0.51100000000E-03 0.  1.
         12    1    3    3    0    0 -0.70380964879E+00 -0.15850099148E+02  0.35048829607E+02  0.38472606461E+02  0.00000000000E+00 0. -1.
</event>
<event>
 7    1  0.1935465E-015  0.9000777E+02  0.7816164E-02  0.1186339E+00
        -11   -1    0    0    0    0  0.00000000000E+00  0.00000000000E+00  0.45593999997E+02  0.45594000000E+02  0.51100000000E-03 0. -1.
         11   -1    0    0    0    0 -0.00000000000E+00 -0.00000000000E+00 -0.45593999997E+02  0.45594000000E+02  0.51100000000E-03 0.  1.
    9900012    2    1    2    0    0  0.85007131362E+00 -0.23956415132E+00 -0.78289201726E+00  0.90007774542E+02  0.90000036366E+02 0.  0.
         12    1    1    2    0    0 -0.85007131362E+00  0.23956415132E+00  0.78289201726E+00  0.11802254579E+01  0.00000000000E+00 0. -1.
         11    1    3    3    0    0  0.15640951245E+02  0.92698732614E+01  0.28079661441E+02  0.33452014783E+02  0.51100000000E-03 0. -1.
        -11    1    3    3    0    0  0.96246524318E+01  0.41687162344E+01  0.58160472620E+01  0.11993270425E+02  0.51100000000E-03 0.  1.
        -12    1    3    3    0    0 -0.24415532364E+02 -0.13678153647E+02 -0.34678600720E+02  0.44562489334E+02  0.00000000000E+00 0.  1.
</event>
<event>
 7    1  0.1935465E-015  0.9000777E+02  0.7816164E-02  0.1186339E+00
        -11   -1    0    0    0    0  0.00000000000E+00  0.00000000000E+00  0.45593999997E+02  0.45594000000E+02  0.51100000000E-03 0. -1.
         11   -1    0    0    0    0 -0.00000000000E+00 -0.00000000000E+00 -0.45593999997E+02  0.45594000000E+02  0.51100000000E-03 0.  1.
    9900012    2    1    2    0    0 -0.90687072663E+00  0.55970195011E+00  0.50720278713E+00  0.90007773134E+02  0.90000034939E+02 0.  0.
         12    1    1    2    0    0  0.90687072663E+00 -0.55970195011E+00 -0.50720278713E+00  0.11802268659E+01  0.00000000000E+00 0. -1.
         11    1    3    3    0    0 -0.39028970730E+01 -0.15021572581E+01 -0.68129336100E+01  0.79940694660E+01  0.51100000000E-03 0. -1.
        -11    1    3    3    0    0 -0.21363353865E+00 -0.31960302268E+01 -0.37064988454E+02  0.37203139892E+02  0.51100000000E-03 0.  1.
         12    1    3    3    0    0  0.32096598850E+01  0.52578894351E+01  0.44385124851E+02  0.44810563776E+02  0.00000000000E+00 0. -1.
</event>
<event>
 7    1  0.2412266E-015  0.9000775E+02  0.7816164E-02  0.1186339E+00
        -11   -1    0    0    0    0  0.00000000000E+00  0.00000000000E+00  0.45593999997E+02  0.45594000000E+02  0.51100000000E-03 0. -1.
         11   -1    0    0    0    0 -0.00000000000E+00 -0.00000000000E+00 -0.45593999997E+02  0.45594000000E+02  0.51100000000E-03 0.  1.
    9900012    2    1    2    0    0 -0.64435826325E+00 -0.21234809135E+00 -0.96575895506E+00  0.90007754414E+02  0.90000015973E+02 0.  0.
         12    1    1    2    0    0  0.64435826325E+00  0.21234809135E+00  0.96575895506E+00  0.11802455857E+01  0.00000000000E+00 0. -1.
         11    1    3    3    0    0 -0.12872397625E+01 -0.93162956616E+01 -0.26348005624E+01  0.97669097121E+01  0.51100000000E-03 0. -1.
        -11    1    3    3    0    0  0.22017832444E+01  0.23346575533E+02 -0.34284749108E+02  0.41537386295E+02  0.51100000000E-03 0.  1.
         12    1    3    3    0    0 -0.15589017452E+01 -0.14242627962E+02  0.35953790715E+02  0.38703458408E+02  0.00000000000E+00 0. -1.
</event>
<event>
 7    1  0.1935465E-015  0.9000775E+02  0.7816164E-02  0.1186339E+00
        -11   -1    0    0    0    0  0.00000000000E+00  0.00000000000E+00  0.45593999997E+02  0.45594000000E+02  0.51100000000E-03 0. -1.
         11   -1    0    0    0    0 -0.00000000000E+00 -0.00000000000E+00 -0.45593999997E+02  0.45594000000E+02  0.51100000000E-03 0.  1.
    9900012    2    1    2    0    0 -0.66474799844E+00 -0.13021844982E+00 -0.96651001016E+00  0.90007750727E+02  0.90000012237E+02 0.  0.
         12    1    1    2    0    0  0.66474799844E+00  0.13021844982E+00  0.96651001016E+00  0.11802492728E+01  0.00000000000E+00 0. -1.
         11    1    3    3    0    0  0.51198966262E+01 -0.22779647613E+01 -0.48431403971E+01  0.74066506658E+01  0.51100000000E-03 0. -1.
        -11    1    3    3    0    0  0.91450892736E+01  0.17738036789E+02 -0.33757807691E+02  0.39215560525E+02  0.51100000000E-03 0.  1.
         12    1    3    3    0    0 -0.14929733898E+02 -0.15590290478E+02  0.37634438078E+02  0.43385539536E+02  0.00000000000E+00 0. -1.
</event>
<event>
 7    1  0.1935465E-015  0.9000776E+02  0.7816164E-02  0.1186339E+00
        -11   -1    0    0    0    0  0.00000000000E+00  0.00000000000E+00  0.45593999997E+02  0.45594000000E+02  0.51100000000E-03 0. -1.
         11   -1    0    0    0    0 -0.00000000000E+00 -0.00000000000E+00 -0.45593999997E+02  0.45594000000E+02  0.51100000000E-03 0.  1.
    9900012    2    1    2    0    0  0.63846334750E+00 -0.89456555430E+00 -0.43020341322E+00  0.90007763603E+02  0.90000025282E+02 0.  0.
         12    1    1    2    0    0 -0.63846334750E+00  0.89456555430E+00  0.43020341322E+00  0.11802363974E+01  0.00000000000E+00 0. -1.
         11    1    3    3    0    0  0.38149224358E+02  0.57758349083E+01 -0.30955275817E+01  0.38707956279E+02  0.51100000000E-03 0. -1.
        -11    1    3    3    0    0  0.43241606685E+00  0.90305162230E+01 -0.36571186154E+01  0.97525239675E+01  0.51100000000E-03 0.  1.
        -12    1    3    3    0    0 -0.37943177078E+02 -0.15700916686E+02  0.63224427839E+01  0.41547283356E+02  0.00000000000E+00 0.  1.
</event>
<event>
 7    1  0.1935465E-015  0.9000777E+02  0.7816164E-02  0.1186339E+00
        -11   -1    0    0    0    0  0.00000000000E+00  0.00000000000E+00  0.45593999997E+02  0.45594000000E+02  0.51100000000E-03 0.  1.
         11   -1    0    0    0    0 -0.00000000000E+00 -0.00000000000E+00 -0.45593999997E+02  0.45594000000E+02  0.51100000000E-03 0. -1.
    9900012    2    1    2    0    0  0.11277179487E+01 -0.30535808347E+00  0.16721026120E+00  0.90007766717E+02  0.90000028438E+02 0.  0.
         12    1    1    2    0    0 -0.11277179487E+01  0.30535808347E+00 -0.16721026120E+00  0.11802332830E+01  0.00000000000E+00 0. -1.
         11    1    3    3    0    0 -0.38800085090E+02 -0.11304553366E+01  0.12436419897E+01  0.38836467114E+02  0.51100000000E-03 0. -1.
        -11    1    3    3    0    0 -0.41896624754E+00 -0.18963252353E+01  0.92365534065E+01  0.94385115991E+01  0.51100000000E-03 0.  1.
        -12    1    3    3    0    0  0.40346769286E+02  0.27214224884E+01 -0.10312985135E+02  0.41732788004E+02  0.00000000000E+00 0.  1.
</event>
<event>
 7    1  0.2238986E-015  0.9000776E+02  0.7816164E-02  0.1186339E+00
        -11   -1    0    0    0    0  0.00000000000E+00  0.00000000000E+00  0.45593999997E+02  0.45594000000E+02  0.51100000000E-03 0.  1.
         11   -1    0    0    0    0 -0.00000000000E+00 -0.00000000000E+00 -0.45593999997E+02  0.45594000000E+02  0.51100000000E-03 0. -1.
    9900012    2    1    2    0    0 -0.27158536586E+00 -0.11479248851E+01  0.38370871758E-01  0.90007761687E+02  0.90000023341E+02 0.  0.
         12    1    1    2    0    0  0.27158536586E+00  0.11479248851E+01 -0.38370871758E-01  0.11802383134E+01  0.00000000000E+00 0. -1.
         11    1    3    3    0    0 -0.48095519273E+01 -0.83068081769E+01 -0.32871200264E+01  0.10145935647E+02  0.51100000000E-03 0. -1.
        -11    1    3    3    0    0 -0.80631039280E+01  0.29400998168E+02  0.30100851453E+02  0.42842660943E+02  0.51100000000E-03 0.  1.
         12    1    3    3    0    0  0.12601070489E+02 -0.22242114876E+02 -0.26775360554E+02  0.37019165097E+02  0.00000000000E+00 0. -1.
</event>
<event>
 7    1  0.1935465E-015  0.9000771E+02  0.7816164E-02  0.1186339E+00
        -11   -1    0    0    0    0  0.00000000000E+00  0.00000000000E+00  0.45593999997E+02  0.45594000000E+02  0.51100000000E-03 0. -1.
         11   -1    0    0    0    0 -0.00000000000E+00 -0.00000000000E+00 -0.45593999997E+02  0.45594000000E+02  0.51100000000E-03 0.  1.
    9900012    2    1    2    0    0  0.34316115593E+00 -0.11195548087E+01  0.14806323332E+00  0.90007709667E+02  0.89999970635E+02 0.  0.
         12    1    1    2    0    0 -0.34316115593E+00  0.11195548087E+01 -0.14806323332E+00  0.11802903328E+01  0.00000000000E+00 0. -1.
         11    1    3    3    0    0 -0.38289201793E+02 -0.93266677811E+01  0.66166320490E+01  0.39960349420E+02  0.51100000000E-03 0. -1.
        -11    1    3    3    0    0 -0.17095954285E+01  0.52063313565E+01 -0.78463850869E+01  0.95704943402E+01  0.51100000000E-03 0.  1.
        -12    1    3    3    0    0  0.40341958377E+02  0.30007816158E+01  0.13778162712E+01  0.40476865907E+02  0.00000000000E+00 0.  1.
</event>
<event>
 7    1  0.1935465E-015  0.9000789E+02  0.7816164E-02  0.1186339E+00
        -11   -1    0    0    0    0  0.00000000000E+00  0.00000000000E+00  0.45593999997E+02  0.45594000000E+02  0.51100000000E-03 0.  1.
         11   -1    0    0    0    0 -0.00000000000E+00 -0.00000000000E+00 -0.45593999997E+02  0.45594000000E+02  0.51100000000E-03 0. -1.
    9900012    2    1    2    0    0  0.93610277785E+00  0.33036437438E+00  0.63814186325E+00  0.90007892349E+02  0.90000155728E+02 0.  0.
         12    1    1    2    0    0 -0.93610277785E+00 -0.33036437438E+00 -0.63814186325E+00  0.11801076511E+01  0.00000000000E+00 0. -1.
         11    1    3    3    0    0  0.40777465502E+02  0.61099756907E+01  0.68317487919E+00  0.41238334398E+02  0.51100000000E-03 0. -1.
        -11    1    3    3    0    0  0.30719871136E+01 -0.25283871892E+01  0.38765109746E+01  0.55549243200E+01  0.51100000000E-03 0.  1.
        -12    1    3    3    0    0 -0.42913349838E+02 -0.32512241271E+01 -0.39215439905E+01  0.43214633631E+02  0.00000000000E+00 0.  1.
</event>
<event>
 7    1  0.1935465E-015  0.9000778E+02  0.7816164E-02  0.1186339E+00
        -11   -1    0    0    0    0  0.00000000000E+00  0.00000000000E+00  0.45593999997E+02  0.45594000000E+02  0.51100000000E-03 0. -1.
         11   -1    0    0    0    0 -0.00000000000E+00 -0.00000000000E+00 -0.45593999997E+02  0.45594000000E+02  0.51100000000E-03 0.  1.
    9900012    2    1    2    0    0  0.83985832121E+00 -0.70388844628E+00 -0.43829726684E+00  0.90007777378E+02  0.90000039239E+02 0.  0.
         12    1    1    2    0    0 -0.83985832121E+00  0.70388844628E+00  0.43829726684E+00  0.11802226225E+01  0.00000000000E+00 0. -1.
         11    1    3    3    0    0 -0.86818613940E+01  0.67484086593E+01 -0.77796285829E+01  0.13469905636E+02  0.51100000000E-03 0. -1.
        -11    1    3    3    0    0  0.19196230951E+02  0.20373960452E+02 -0.21510476553E+02  0.35302891511E+02  0.51100000000E-03 0.  1.
         12    1    3    3    0    0 -0.96745112354E+01 -0.27826257558E+02  0.28851807869E+02  0.41234980231E+02  0.00000000000E+00 0. -1.
</event>
<event>
 7    1  0.1935465E-015  0.9000755E+02  0.7816164E-02  0.1186339E+00
        -11   -1    0    0    0    0  0.00000000000E+00  0.00000000000E+00  0.45593999997E+02  0.45594000000E+02  0.51100000000E-03 0. -1.
         11   -1    0    0    0    0 -0.00000000000E+00 -0.00000000000E+00 -0.45593999997E+02  0.45594000000E+02  0.51100000000E-03 0.  1.
    9900012    2    1    2    0    0  0.40892940822E+00  0.10651640427E+01  0.30275541358E+00  0.90007551552E+02  0.89999810432E+02 0.  0.
         12    1    1    2    0    0 -0.40892940822E+00 -0.10651640427E+01 -0.30275541358E+00  0.11804484483E+01  0.00000000000E+00 0. -1.
         11    1    3    3    0    0 -0.12681054287E+02  0.35775644922E+02 -0.29431127178E+01  0.38070563696E+02  0.51100000000E-03 0. -1.
        -11    1    3    3    0    0  0.90715165812E+01  0.60277928390E+01  0.10515189739E+01  0.10942229755E+02  0.51100000000E-03 0.  1.
        -12    1    3    3    0    0  0.40184671140E+01 -0.40738273718E+02  0.21943491575E+01  0.40994758101E+02  0.00000000000E+00 0.  1.
</event>
<event>
 7    1  0.1935465E-015  0.9000770E+02  0.7816164E-02  0.1186339E+00
        -11   -1    0    0    0    0  0.00000000000E+00  0.00000000000E+00  0.45593999997E+02  0.45594000000E+02  0.51100000000E-03 0. -1.
         11   -1    0    0    0    0 -0.00000000000E+00 -0.00000000000E+00 -0.45593999997E+02  0.45594000000E+02  0.51100000000E-03 0.  1.
    9900012    2    1    2    0    0  0.28662466448E+00  0.66265598814E+00  0.93372335960E+00  0.90007700898E+02  0.89999961750E+02 0.  0.
         12    1    1    2    0    0 -0.28662466448E+00 -0.66265598814E+00 -0.93372335960E+00  0.11802991016E+01  0.00000000000E+00 0. -1.
         11    1    3    3    0    0  0.39845864842E+01 -0.67560907291E+01  0.61148814739E+01  0.99455249781E+01  0.51100000000E-03 0. -1.
        -11    1    3    3    0    0  0.30107216163E+02 -0.20106032913E+02 -0.43166667059E+01  0.36459986784E+02  0.51100000000E-03 0.  1.
         12    1    3    3    0    0 -0.33805177983E+02  0.27524779630E+02 -0.86449140835E+00  0.43602189137E+02  0.00000000000E+00 0. -1.
</event>
<event>
 7    1  0.1935465E-015  0.9000769E+02  0.7816164E-02  0.1186339E+00
        -11   -1    0    0    0    0  0.00000000000E+00  0.00000000000E+00  0.45593999997E+02  0.45594000000E+02  0.51100000000E-03 0. -1.
         11   -1    0    0    0    0 -0.00000000000E+00 -0.00000000000E+00 -0.45593999997E+02  0.45594000000E+02  0.51100000000E-03 0.  1.
    9900012    2    1    2    0    0 -0.10117643707E+01 -0.20146502933E+00  0.57348014880E+00  0.90007688693E+02  0.89999949384E+02 0.  0.
         12    1    1    2    0    0  0.10117643707E+01  0.20146502933E+00 -0.57348014880E+00  0.11803113068E+01  0.00000000000E+00 0. -1.
         11    1    3    3    0    0  0.23452240847E+02  0.30230654770E+02  0.10771561916E+02  0.39748290968E+02  0.51100000000E-03 0. -1.
        -11    1    3    3    0    0  0.65717865804E+01 -0.50523575675E+01  0.16531057898E+01  0.84526596325E+01  0.51100000000E-03 0.  1.
        -12    1    3    3    0    0 -0.31035791798E+02 -0.25379762231E+02 -0.11851187557E+02  0.41806738093E+02  0.00000000000E+00 0.  1.
</event>
<event>
 7    1  0.1935465E-015  0.9000772E+02  0.7816164E-02  0.1186339E+00
        -11   -1    0    0    0    0  0.00000000000E+00  0.00000000000E+00  0.45593999997E+02  0.45594000000E+02  0.51100000000E-03 0.  1.
         11   -1    0    0    0    0 -0.00000000000E+00 -0.00000000000E+00 -0.45593999997E+02  0.45594000000E+02  0.51100000000E-03 0. -1.
    9900012    2    1    2    0    0 -0.77062749922E+00  0.51118073279E+00  0.73340928348E+00  0.90007719668E+02  0.89999980768E+02 0.  0.
         12    1    1    2    0    0  0.77062749922E+00 -0.51118073279E+00 -0.73340928348E+00  0.11802803316E+01  0.00000000000E+00 0. -1.
         11    1    3    3    0    0 -0.79650739095E+01  0.84072062200E+00 -0.31731211683E+01  0.86149818200E+01  0.51100000000E-03 0. -1.
        -11    1    3    3    0    0 -0.16498580327E+02 -0.16009554089E+02  0.33330901013E+02  0.40490220270E+02  0.51100000000E-03 0.  1.
         12    1    3    3    0    0  0.23693026737E+02  0.15680014199E+02 -0.29424370562E+02  0.40902517578E+02  0.00000000000E+00 0. -1.
</event>
<event>
 7    1  0.1935465E-015  0.9000777E+02  0.7816164E-02  0.1186339E+00
        -11   -1    0    0    0    0  0.00000000000E+00  0.00000000000E+00  0.45593999997E+02  0.45594000000E+02  0.51100000000E-03 0.  1.
         11   -1    0    0    0    0 -0.00000000000E+00 -0.00000000000E+00 -0.45593999997E+02  0.45594000000E+02  0.51100000000E-03 0. -1.
    9900012    2    1    2    0    0  0.65317826395E+00 -0.22000781900E+00  0.95806549508E+00  0.90007773421E+02  0.90000035230E+02 0.  0.
         12    1    1    2    0    0 -0.65317826395E+00  0.22000781900E+00 -0.95806549508E+00  0.11802265790E+01  0.00000000000E+00 0. -1.
         11    1    3    3    0    0 -0.24929864460E+02 -0.27493004911E+02  0.85847065553E+01  0.38092789973E+02  0.51100000000E-03 0. -1.
        -11    1    3    3    0    0  0.18428669848E+01 -0.82609121831E+01  0.21539768875E+00  0.84667127768E+01  0.51100000000E-03 0.  1.
        -12    1    3    3    0    0  0.23740175740E+02  0.35533909275E+02 -0.78420387490E+01  0.43448270671E+02  0.00000000000E+00 0.  1.
</event>
<event>
 7    1  0.1935465E-015  0.9000785E+02  0.7816164E-02  0.1186339E+00
        -11   -1    0    0    0    0  0.00000000000E+00  0.00000000000E+00  0.45593999997E+02  0.45594000000E+02  0.51100000000E-03 0. -1.
         11   -1    0    0    0    0 -0.00000000000E+00 -0.00000000000E+00 -0.45593999997E+02  0.45594000000E+02  0.51100000000E-03 0.  1.
    9900012    2    1    2    0    0  0.83941879333E+00  0.57937339608E+00 -0.59369001239E+00  0.90007845233E+02  0.90000107990E+02 0.  0.
         12    1    1    2    0    0 -0.83941879333E+00 -0.57937339608E+00  0.59369001239E+00  0.11801547668E+01  0.00000000000E+00 0. -1.
         11    1    3    3    0    0 -0.15820598807E+02 -0.16453651619E+01  0.35771459373E+02  0.39148382841E+02  0.51100000000E-03 0. -1.
        -11    1    3    3    0    0  0.11831180599E+02  0.52054919847E+01  0.10949238424E+01  0.12972002145E+02  0.51100000000E-03 0.  1.
        -12    1    3    3    0    0  0.48288370017E+01 -0.29807534267E+01 -0.37460073228E+02  0.37887460248E+02  0.00000000000E+00 0.  1.
</event>
<event>
 7    1  0.1935465E-015  0.9000771E+02  0.7816164E-02  0.1186339E+00
        -11   -1    0    0    0    0  0.00000000000E+00  0.00000000000E+00  0.45593999997E+02  0.45594000000E+02  0.51100000000E-03 0.  1.
         11   -1    0    0    0    0 -0.00000000000E+00 -0.00000000000E+00 -0.45593999997E+02  0.45594000000E+02  0.51100000000E-03 0. -1.
    9900012    2    1    2    0    0  0.55096383464E+00 -0.54075098092E+00 -0.89281318350E+00  0.90007708447E+02  0.89999969398E+02 0.  0.
         12    1    1    2    0    0 -0.55096383464E+00  0.54075098092E+00  0.89281318350E+00  0.11802915534E+01  0.00000000000E+00 0. -1.
         11    1    3    3    0    0  0.72791496663E+01  0.57237672083E+00  0.68151450765E+01  0.99879846640E+01  0.51100000000E-03 0. -1.
        -11    1    3    3    0    0 -0.28018118163E+02 -0.26869695743E+02  0.12723606015E+02  0.40851996830E+02  0.51100000000E-03 0.  1.
         12    1    3    3    0    0  0.21289932331E+02  0.25756568041E+02 -0.20431564275E+02  0.39167726953E+02  0.00000000000E+00 0. -1.
</event>
<event>
 7    1  0.1935465E-015  0.9000772E+02  0.7816164E-02  0.1186339E+00
        -11   -1    0    0    0    0  0.00000000000E+00  0.00000000000E+00  0.45593999997E+02  0.45594000000E+02  0.51100000000E-03 0.  1.
         11   -1    0    0    0    0 -0.00000000000E+00 -0.00000000000E+00 -0.45593999997E+02  0.45594000000E+02  0.51100000000E-03 0. -1.
    9900012    2    1    2    0    0 -0.11444883464E-01 -0.11387835908E+01 -0.31000776751E+00  0.90007718734E+02  0.89999979821E+02 0.  0.
         12    1    1    2    0    0  0.11444883464E-01  0.11387835908E+01  0.31000776751E+00  0.11802812664E+01  0.00000000000E+00 0. -1.
         11    1    3    3    0    0 -0.19327341431E+01 -0.10129978438E+02 -0.30776864865E+02  0.32458702001E+02  0.51100000000E-03 0. -1.
        -11    1    3    3    0    0  0.97284301800E+01  0.36850227281E+01 -0.10930150918E+02  0.15089398452E+02  0.51100000000E-03 0.  1.
        -12    1    3    3    0    0 -0.78071409204E+01  0.53061721189E+01  0.41397008016E+02  0.42459618281E+02  0.00000000000E+00 0.  1.
</event>
<event>
 7    1  0.1935465E-015  0.9000772E+02  0.7816164E-02  0.1186339E+00
        -11   -1    0    0    0    0  0.00000000000E+00  0.00000000000E+00  0.45593999997E+02  0.45594000000E+02  0.51100000000E-03 0.  1.
         11   -1    0    0    0    0 -0.00000000000E+00 -0.00000000000E+00 -0.45593999997E+02  0.45594000000E+02  0.51100000000E-03 0. -1.
    9900012    2    1    2    0    0 -0.10778173768E+01 -0.27814786784E+00  0.39243466917E+00  0.90007719735E+02  0.89999980836E+02 0.  0.
         12    1    1    2    0    0  0.10778173768E+01  0.27814786784E+00 -0.39243466917E+00  0.11802802649E+01  0.00000000000E+00 0. -1.
         11    1    3    3    0    0  0.73242576123E+01 -0.32371668322E+01  0.90073938761E+00  0.80582461105E+01  0.51100000000E-03 0. -1.
        -11    1    3    3    0    0 -0.58211894259E+01 -0.14931114739E+01  0.40336519948E+02  0.40781741871E+02  0.51100000000E-03 0.  1.
         12    1    3    3    0    0 -0.25808855633E+01  0.44521304383E+01 -0.40844824667E+02  0.41167731754E+02  0.00000000000E+00 0. -1.
</event>
<event>
 7    1  0.1935465E-015  0.9000767E+02  0.7816164E-02  0.1186339E+00
        -11   -1    0    0    0    0  0.00000000000E+00  0.00000000000E+00  0.45593999997E+02  0.45594000000E+02  0.51100000000E-03 0.  1.
         11   -1    0    0    0    0 -0.00000000000E+00 -0.00000000000E+00 -0.45593999997E+02  0.45594000000E+02  0.51100000000E-03 0. -1.
    9900012    2    1    2    0    0  0.81012214008E+00 -0.85238413241E+00  0.10158844379E+00  0.90007670892E+02  0.89999931348E+02 0.  0.
         12    1    1    2    0    0 -0.81012214008E+00  0.85238413241E+00 -0.10158844379E+00  0.11803291079E+01  0.00000000000E+00 0. -1.
         11    1    3    3    0    0  0.36345875088E+02 -0.10507246494E+02  0.12118991933E+02  0.39727758941E+02  0.51100000000E-03 0. -1.
        -11    1    3    3    0    0  0.31742385665E+01  0.87280868660E+01  0.12011528925E+01  0.93647242004E+01  0.51100000000E-03 0.  1.
        -12    1    3    3    0    0 -0.38709991514E+02  0.92677549550E+00 -0.13218556381E+02  0.40915187750E+02  0.00000000000E+00 0.  1.
</event>
<event>
 7    1  0.1935465E-015  0.9000761E+02  0.7816164E-02  0.1186339E+00
        -11   -1    0    0    0    0  0.00000000000E+00  0.00000000000E+00  0.45593999997E+02  0.45594000000E+02  0.51100000000E-03 0.  1.
         11   -1    0    0    0    0 -0.00000000000E+00 -0.00000000000E+00 -0.45593999997E+02  0.45594000000E+02  0.51100000000E-03 0. -1.
    9900012    2    1    2    0    0  0.60034950773E+00 -0.33963850198E+00  0.95789133414E+00  0.90007606146E+02  0.89999865747E+02 0.  0.
         12    1    1    2    0    0 -0.60034950773E+00  0.33963850198E+00 -0.95789133414E+00  0.11803938544E+01  0.00000000000E+00 0. -1.
         11    1    3    3    0    0  0.87068505306E+01 -0.33875177878E+01 -0.36818183961E+00  0.93498706437E+01  0.51100000000E-03 0. -1.
        -11    1    3    3    0    0  0.39639926161E+01 -0.35435300743E+02  0.14112589791E+02  0.38347607058E+02  0.51100000000E-03 0.  1.
         12    1    3    3    0    0 -0.12070493639E+02  0.38483180028E+02 -0.12786516617E+02  0.42310128444E+02  0.00000000000E+00 0. -1.
</event>
<event>
 7    1  0.1935465E-015  0.9000796E+02  0.7816164E-02  0.1186339E+00
        -11   -1    0    0    0    0  0.00000000000E+00  0.00000000000E+00  0.45593999997E+02  0.45594000000E+02  0.51100000000E-03 0.  1.
         11   -1    0    0    0    0 -0.00000000000E+00 -0.00000000000E+00 -0.45593999997E+02  0.45594000000E+02  0.51100000000E-03 0. -1.
    9900012    2    1    2    0    0 -0.17714834976E-01  0.11760648712E+01  0.95143100793E-01  0.90007959913E+02  0.90000224184E+02 0.  0.
         12    1    1    2    0    0  0.17714834976E-01 -0.11760648712E+01 -0.95143100793E-01  0.11800400868E+01  0.00000000000E+00 0. -1.
         11    1    3    3    0    0 -0.11712658738E+01  0.75052532211E+01 -0.36167559830E+02  0.36956637753E+02  0.51100000000E-03 0. -1.
        -11    1    3    3    0    0 -0.26450567710E+01 -0.44861462446E+01 -0.74750066629E+01  0.91102995737E+01  0.51100000000E-03 0.  1.
        -12    1    3    3    0    0  0.37986078098E+01 -0.18430421053E+01  0.43737709594E+02  0.43941022587E+02  0.00000000000E+00 0.  1.
</event>
<event>
 7    1  0.1935465E-015  0.9000767E+02  0.7816164E-02  0.1186339E+00
        -11   -1    0    0    0    0  0.00000000000E+00  0.00000000000E+00  0.45593999997E+02  0.45594000000E+02  0.51100000000E-03 0. -1.
         11   -1    0    0    0    0 -0.00000000000E+00 -0.00000000000E+00 -0.45593999997E+02  0.45594000000E+02  0.51100000000E-03 0.  1.
    9900012    2    1    2    0    0  0.98576172611E+00 -0.63791554343E+00 -0.12046378942E+00  0.90007672102E+02  0.89999932574E+02 0.  0.
         12    1    1    2    0    0 -0.98576172611E+00  0.63791554343E+00  0.12046378942E+00  0.11803278976E+01  0.00000000000E+00 0. -1.
         11    1    3    3    0    0 -0.47573511473E+01  0.17174110266E+01 -0.21997973953E+01  0.55155234941E+01  0.51100000000E-03 0. -1.
        -11    1    3    3    0    0 -0.18149961063E+02  0.33359980836E+02  0.13025500471E+02  0.40149384438E+02  0.51100000000E-03 0.  1.
         12    1    3    3    0    0  0.23893073936E+02 -0.35715307406E+02 -0.10946166865E+02  0.44342764170E+02  0.00000000000E+00 0. -1.
</event>
<event>
 7    1  0.1935465E-015  0.9000773E+02  0.7816164E-02  0.1186339E+00
        -11   -1    0    0    0    0  0.00000000000E+00  0.00000000000E+00  0.45593999997E+02  0.45594000000E+02  0.51100000000E-03 0. -1.
         11   -1    0    0    0    0 -0.00000000000E+00 -0.00000000000E+00 -0.45593999997E+02  0.45594000000E+02  0.51100000000E-03 0.  1.
    9900012    2    1    2    0    0 -0.11451219371E+01 -0.23530989006E+00 -0.16236462788E+00  0.90007730002E+02  0.89999991238E+02 0.  0.
         12    1    1    2    0    0  0.11451219371E+01  0.23530989006E+00  0.16236462788E+00  0.11802699978E+01  0.00000000000E+00 0. -1.
         11    1    3    3    0    0  0.10131140373E+02 -0.21609961429E+02  0.16218568953E+02  0.28856063788E+02  0.51100000000E-03 0. -1.
        -11    1    3    3    0    0  0.21679624653E+02  0.91971097387E+01 -0.92513384320E+01  0.25301782856E+02  0.51100000000E-03 0.  1.
        -12    1    3    3    0    0 -0.32955886963E+02  0.12177541800E+02 -0.71295951490E+01  0.35849883358E+02  0.00000000000E+00 0.  1.
</event>
<event>
 7    1  0.1935465E-015  0.9000770E+02  0.7816164E-02  0.1186339E+00
        -11   -1    0    0    0    0  0.00000000000E+00  0.00000000000E+00  0.45593999997E+02  0.45594000000E+02  0.51100000000E-03 0.  1.
         11   -1    0    0    0    0 -0.00000000000E+00 -0.00000000000E+00 -0.45593999997E+02  0.45594000000E+02  0.51100000000E-03 0. -1.
    9900012    2    1    2    0    0 -0.71566598769E+00  0.90358232285E+00  0.25391542503E+00  0.90007698402E+02  0.89999959220E+02 0.  0.
         12    1    1    2    0    0  0.71566598769E+00 -0.90358232285E+00 -0.25391542503E+00  0.11803015984E+01  0.00000000000E+00 0. -1.
         11    1    3    3    0    0  0.51055144553E+01 -0.90155622925E+01 -0.50225806720E+01  0.11514033098E+02  0.51100000000E-03 0. -1.
        -11    1    3    3    0    0  0.20747166359E+02  0.98349417441E+01  0.32930693021E+02  0.40144757244E+02  0.51100000000E-03 0.  1.
         12    1    3    3    0    0 -0.26568346802E+02  0.84202871256E-01 -0.27654196924E+02  0.38348908061E+02  0.00000000000E+00 0. -1.
</event>
<event>
 7    1  0.1935465E-015  0.9000777E+02  0.7816164E-02  0.1186339E+00
        -11   -1    0    0    0    0  0.00000000000E+00  0.00000000000E+00  0.45593999997E+02  0.45594000000E+02  0.51100000000E-03 0. -1.
         11   -1    0    0    0    0 -0.00000000000E+00 -0.00000000000E+00 -0.45593999997E+02  0.45594000000E+02  0.51100000000E-03 0.  1.
    9900012    2    1    2    0    0  0.65820039689E+00  0.68187511335E+00 -0.70339159400E+00  0.90007770714E+02  0.90000032488E+02 0.  0.
         12    1    1    2    0    0 -0.65820039689E+00 -0.68187511335E+00  0.70339159400E+00  0.11802292859E+01  0.00000000000E+00 0. -1.
         11    1    3    3    0    0  0.48035087933E+01 -0.56952140148E+01  0.78808742742E+01  0.10845152788E+02  0.51100000000E-03 0. -1.
        -11    1    3    3    0    0  0.25255663119E+02 -0.25104980794E+02 -0.44921599441E+01  0.35892730204E+02  0.51100000000E-03 0.  1.
         12    1    3    3    0    0 -0.29400971515E+02  0.31482069923E+02 -0.40921059242E+01  0.43269887723E+02  0.00000000000E+00 0. -1.
</event>
<event>
 7    1  0.1935465E-015  0.9000777E+02  0.7816164E-02  0.1186339E+00
        -11   -1    0    0    0    0  0.00000000000E+00  0.00000000000E+00  0.45593999997E+02  0.45594000000E+02  0.51100000000E-03 0.  1.
         11   -1    0    0    0    0 -0.00000000000E+00 -0.00000000000E+00 -0.45593999997E+02  0.45594000000E+02  0.51100000000E-03 0. -1.
    9900012    2    1    2    0    0 -0.97744436455E+00  0.62648171936E+00 -0.21226402087E+00  0.90007774240E+02  0.90000036060E+02 0.  0.
         12    1    1    2    0    0  0.97744436455E+00 -0.62648171936E+00  0.21226402087E+00  0.11802257602E+01  0.00000000000E+00 0. -1.
         11    1    3    3    0    0 -0.44657835583E+01  0.52807526073E+01  0.64796317866E+01  0.94770881203E+01  0.51100000000E-03 0. -1.
        -11    1    3    3    0    0 -0.11201261460E+02 -0.37128016684E+02  0.11587344661E+02  0.40474985333E+02  0.51100000000E-03 0.  1.
         12    1    3    3    0    0  0.14689600653E+02  0.32473745796E+02 -0.18279240468E+02  0.40055700786E+02  0.00000000000E+00 0. -1.
</event>
<event>
 7    1  0.1935465E-015  0.9000842E+02  0.7816164E-02  0.1186338E+00
        -11   -1    0    0    0    0  0.00000000000E+00  0.00000000000E+00  0.45593999997E+02  0.45594000000E+02  0.51100000000E-03 0.  1.
         11   -1    0    0    0    0 -0.00000000000E+00 -0.00000000000E+00 -0.45593999997E+02  0.45594000000E+02  0.51100000000E-03 0. -1.
    9900012    2    1    2    0    0  0.11630135302E+01 -0.14897801206E+00  0.12891069218E+00  0.90008418343E+02  0.90000688662E+02 0.  0.
         12    1    1    2    0    0 -0.11630135302E+01  0.14897801206E+00 -0.12891069218E+00  0.11795816572E+01  0.00000000000E+00 0. -1.
         11    1    3    3    0    0 -0.41278871482E+00 -0.22860277350E+01 -0.34831228302E+02  0.34908606140E+02  0.51100000000E-03 0. -1.
        -11    1    3    3    0    0 -0.18671732389E+01 -0.50839356165E+01 -0.89531359870E+01  0.10463812953E+02  0.51100000000E-03 0.  1.
        -12    1    3    3    0    0  0.34429754839E+01  0.72209853394E+01  0.43913274981E+02  0.44635999250E+02  0.00000000000E+00 0.  1.
</event>
<event>
 7    1  0.1935465E-015  0.9000768E+02  0.7816164E-02  0.1186339E+00
        -11   -1    0    0    0    0  0.00000000000E+00  0.00000000000E+00  0.45593999997E+02  0.45594000000E+02  0.51100000000E-03 0. -1.
         11   -1    0    0    0    0 -0.00000000000E+00 -0.00000000000E+00 -0.45593999997E+02  0.45594000000E+02  0.51100000000E-03 0.  1.
    9900012    2    1    2    0    0  0.89429937288E+00 -0.40891178718E+00 -0.65281962361E+00  0.90007680688E+02  0.89999941273E+02 0.  0.
         12    1    1    2    0    0 -0.89429937288E+00  0.40891178718E+00  0.65281962361E+00  0.11803193123E+01  0.00000000000E+00 0. -1.
         11    1    3    3    0    0  0.15963171739E+02 -0.28994933808E+02 -0.15796317085E+02  0.36674959744E+02  0.51100000000E-03 0. -1.
        -11    1    3    3    0    0 -0.58441388798E+01 -0.69952347971E+01 -0.60144767557E+01  0.10920677636E+02  0.51100000000E-03 0.  1.
        -12    1    3    3    0    0 -0.92247334863E+01  0.35581256818E+02  0.21157974217E+02  0.42412043308E+02  0.00000000000E+00 0.  1.
</event>
<event>
 7    1  0.1935465E-015  0.9000778E+02  0.7816164E-02  0.1186339E+00
        -11   -1    0    0    0    0  0.00000000000E+00  0.00000000000E+00  0.45593999997E+02  0.45594000000E+02  0.51100000000E-03 0.  1.
         11   -1    0    0    0    0 -0.00000000000E+00 -0.00000000000E+00 -0.45593999997E+02  0.45594000000E+02  0.51100000000E-03 0. -1.
    9900012    2    1    2    0    0 -0.19957467068E+00  0.34839961799E+00  0.11098253133E+01  0.90007777746E+02  0.90000039612E+02 0.  0.
         12    1    1    2    0    0  0.19957467068E+00 -0.34839961799E+00 -0.11098253133E+01  0.11802222541E+01  0.00000000000E+00 0. -1.
         11    1    3    3    0    0  0.14372050370E+01 -0.32035899860E+01  0.83807829199E+01  0.90865873533E+01  0.51100000000E-03 0. -1.
        -11    1    3    3    0    0  0.93906481880E+01  0.36354838820E+00  0.35455375318E+02  0.36679695746E+02  0.51100000000E-03 0.  1.
         12    1    3    3    0    0 -0.11027427896E+02  0.31884412158E+01 -0.42726332925E+02  0.44241494647E+02  0.00000000000E+00 0. -1.
</event>
<event>
 7    1  0.1935465E-015  0.9000770E+02  0.7816164E-02  0.1186339E+00
        -11   -1    0    0    0    0  0.00000000000E+00  0.00000000000E+00  0.45593999997E+02  0.45594000000E+02  0.51100000000E-03 0.  1.
         11   -1    0    0    0    0 -0.00000000000E+00 -0.00000000000E+00 -0.45593999997E+02  0.45594000000E+02  0.51100000000E-03 0. -1.
    9900012    2    1    2    0    0 -0.10547636865E+01  0.34320545780E+00  0.40347060856E+00  0.90007701329E+02  0.89999962187E+02 0.  0.
         12    1    1    2    0    0  0.10547636865E+01 -0.34320545780E+00 -0.40347060856E+00  0.11802986709E+01  0.00000000000E+00 0. -1.
         11    1    3    3    0    0 -0.16833426034E+02 -0.90107286827E+01 -0.87368864287E+01  0.20997396224E+02  0.51100000000E-03 0. -1.
        -11    1    3    3    0    0 -0.56309340563E+01  0.34599381312E+02  0.76245714947E+01  0.35874206559E+02  0.51100000000E-03 0.  1.
         12    1    3    3    0    0  0.21409596404E+02 -0.25245447171E+02  0.15157855426E+01  0.33136098546E+02  0.00000000000E+00 0. -1.
</event>
<event>
 7    1  0.1935465E-015  0.9000778E+02  0.7816164E-02  0.1186339E+00
        -11   -1    0    0    0    0  0.00000000000E+00  0.00000000000E+00  0.45593999997E+02  0.45594000000E+02  0.51100000000E-03 0.  1.
         11   -1    0    0    0    0 -0.00000000000E+00 -0.00000000000E+00 -0.45593999997E+02  0.45594000000E+02  0.51100000000E-03 0. -1.
    9900012    2    1    2    0    0 -0.58736236388E+00 -0.32283227476E+00  0.97144482528E+00  0.90007779566E+02  0.90000041456E+02 0.  0.
         12    1    1    2    0    0  0.58736236388E+00  0.32283227476E+00 -0.97144482528E+00  0.11802204339E+01  0.00000000000E+00 0. -1.
         11    1    3    3    0    0  0.67874809152E+01 -0.16918128281E+01 -0.60178647335E+01  0.92275036728E+01  0.51100000000E-03 0. -1.
        -11    1    3    3    0    0  0.36113591118E+02  0.63384602477E+01  0.44589318265E+01  0.36935749824E+02  0.51100000000E-03 0.  1.
         12    1    3    3    0    0 -0.43488434397E+02 -0.49694796944E+01  0.25303777323E+01  0.43844526069E+02  0.00000000000E+00 0. -1.
</event>
<event>
 7    1  0.1935465E-015  0.9000795E+02  0.7816164E-02  0.1186339E+00
        -11   -1    0    0    0    0  0.00000000000E+00  0.00000000000E+00  0.45593999997E+02  0.45594000000E+02  0.51100000000E-03 0.  1.
         11   -1    0    0    0    0 -0.00000000000E+00 -0.00000000000E+00 -0.45593999997E+02  0.45594000000E+02  0.51100000000E-03 0. -1.
    9900012    2    1    2    0    0  0.10572362729E+01 -0.76497242032E-01 -0.51858134133E+00  0.90007946199E+02  0.90000210289E+02 0.  0.
         12    1    1    2    0    0 -0.10572362729E+01  0.76497242032E-01  0.51858134133E+00  0.11800538006E+01  0.00000000000E+00 0. -1.
         11    1    3    3    0    0  0.82268016758E+01  0.76070992954E+01  0.24473701703E+01  0.11468995009E+02  0.51100000000E-03 0. -1.
        -11    1    3    3    0    0  0.15791910746E+02  0.29689211916E+02  0.48791159705E+01  0.33979987082E+02  0.51100000000E-03 0.  1.
         12    1    3    3    0    0 -0.22961476149E+02 -0.37372808453E+02 -0.78450674822E+01  0.44558964108E+02  0.00000000000E+00 0. -1.
</event>
<event>
 7    1  0.1935465E-015  0.9000777E+02  0.7816164E-02  0.1186339E+00
        -11   -1    0    0    0    0  0.00000000000E+00  0.00000000000E+00  0.45593999997E+02  0.45594000000E+02  0.51100000000E-03 0. -1.
         11   -1    0    0    0    0 -0.00000000000E+00 -0.00000000000E+00 -0.45593999997E+02  0.45594000000E+02  0.51100000000E-03 0.  1.
    9900012    2    1    2    0    0 -0.54073209151E+00  0.10013438958E+01 -0.31281374282E+00  0.90007774077E+02  0.90000035894E+02 0.  0.
         12    1    1    2    0    0  0.54073209151E+00 -0.10013438958E+01  0.31281374282E+00  0.11802259234E+01  0.00000000000E+00 0. -1.
         11    1    3    3    0    0 -0.29716237172E+02 -0.25453349571E+02 -0.42311219814E+01  0.39355179450E+02  0.51100000000E-03 0. -1.
        -11    1    3    3    0    0 -0.62051078758E+01  0.87115945569E+01 -0.11147604533E+01  0.10753508014E+02  0.51100000000E-03 0.  1.
        -12    1    3    3    0    0  0.35380612956E+02  0.17743098910E+02  0.50330686919E+01  0.39899086613E+02  0.00000000000E+00 0.  1.
</event>
<event>
 7    1  0.1935465E-015  0.9000775E+02  0.7816164E-02  0.1186339E+00
        -11   -1    0    0    0    0  0.00000000000E+00  0.00000000000E+00  0.45593999997E+02  0.45594000000E+02  0.51100000000E-03 0. -1.
         11   -1    0    0    0    0 -0.00000000000E+00 -0.00000000000E+00 -0.45593999997E+02  0.45594000000E+02  0.51100000000E-03 0.  1.
    9900012    2    1    2    0    0  0.95602743330E+00 -0.58545522084E+00  0.36911064938E+00  0.90007750475E+02  0.90000011982E+02 0.  0.
         12    1    1    2    0    0 -0.95602743330E+00  0.58545522084E+00 -0.36911064938E+00  0.11802495246E+01  0.00000000000E+00 0. -1.
         11    1    3    3    0    0  0.37913147916E+02  0.86068199011E+01 -0.46295435101E+01  0.39152481493E+02  0.51100000000E-03 0. -1.
        -11    1    3    3    0    0  0.25202240591E+01 -0.34199340008E+01  0.97894895873E+01  0.10671531498E+02  0.51100000000E-03 0.  1.
        -12    1    3    3    0    0 -0.39477344542E+02 -0.57723411212E+01 -0.47908354278E+01  0.40183737484E+02  0.00000000000E+00 0.  1.
</event>
<event>
 7    1  0.1935465E-015  0.9000773E+02  0.7816164E-02  0.1186339E+00
        -11   -1    0    0    0    0  0.00000000000E+00  0.00000000000E+00  0.45593999997E+02  0.45594000000E+02  0.51100000000E-03 0.  1.
         11   -1    0    0    0    0 -0.00000000000E+00 -0.00000000000E+00 -0.45593999997E+02  0.45594000000E+02  0.51100000000E-03 0. -1.
    9900012    2    1    2    0    0  0.64022465168E-02  0.44966346735E+00  0.10912403480E+01  0.90007727269E+02  0.89999988469E+02 0.  0.
         12    1    1    2    0    0 -0.64022465168E-02 -0.44966346735E+00 -0.10912403480E+01  0.11802727310E+01  0.00000000000E+00 0. -1.
         11    1    3    3    0    0 -0.20955155388E+01 -0.27320451709E+01  0.87050320785E+01  0.93612413674E+01  0.51100000000E-03 0. -1.
        -11    1    3    3    0    0 -0.33734532483E+02 -0.14273312047E+02 -0.15901793342E+02  0.39932607608E+02  0.51100000000E-03 0.  1.
         12    1    3    3    0    0  0.35836450269E+02  0.17455020685E+02  0.82880016111E+01  0.40713878293E+02  0.00000000000E+00 0. -1.
</event>
<event>
 7    1  0.1935465E-015  0.9000760E+02  0.7816164E-02  0.1186339E+00
        -11   -1    0    0    0    0  0.00000000000E+00  0.00000000000E+00  0.45593999997E+02  0.45594000000E+02  0.51100000000E-03 0.  1.
         11   -1    0    0    0    0 -0.00000000000E+00 -0.00000000000E+00 -0.45593999997E+02  0.45594000000E+02  0.51100000000E-03 0. -1.
    9900012    2    1    2    0    0  0.11094777361E+01  0.16744860819E+00 -0.36656075004E+00  0.90007598938E+02  0.89999858444E+02 0.  0.
         12    1    1    2    0    0 -0.11094777361E+01 -0.16744860819E+00  0.36656075004E+00  0.11804010618E+01  0.00000000000E+00 0. -1.
         11    1    3    3    0    0  0.15242936126E+01  0.16552442890E+02  0.82775933097E+01  0.18569474626E+02  0.51100000000E-03 0. -1.
        -11    1    3    3    0    0 -0.11651168240E+02 -0.16458983155E+02  0.27208056425E+02  0.33866298625E+02  0.51100000000E-03 0.  1.
         12    1    3    3    0    0  0.11236352364E+02  0.73988873345E-01 -0.35852210485E+02  0.37571825687E+02  0.00000000000E+00 0. -1.
</event>
<event>
 7    1  0.1935465E-015  0.9000768E+02  0.7816164E-02  0.1186339E+00
        -11   -1    0    0    0    0  0.00000000000E+00  0.00000000000E+00  0.45593999997E+02  0.45594000000E+02  0.51100000000E-03 0.  1.
         11   -1    0    0    0    0 -0.00000000000E+00 -0.00000000000E+00 -0.45593999997E+02  0.45594000000E+02  0.51100000000E-03 0. -1.
    9900012    2    1    2    0    0 -0.73757502717E+00 -0.47142948736E+00 -0.79176157677E+00  0.90007682637E+02  0.89999943248E+02 0.  0.
         12    1    1    2    0    0  0.73757502717E+00  0.47142948736E+00  0.79176157677E+00  0.11803173627E+01  0.00000000000E+00 0. -1.
         11    1    3    3    0    0 -0.19836686577E+01 -0.11105726995E+02  0.80639330704E+01  0.13867196193E+02  0.51100000000E-03 0. -1.
        -11    1    3    3    0    0 -0.33227465188E+01 -0.26324399875E+02  0.16355453961E+02  0.31169144161E+02  0.51100000000E-03 0.  1.
         12    1    3    3    0    0  0.45688401493E+01  0.36958697383E+02 -0.25211148609E+02  0.44971342283E+02  0.00000000000E+00 0. -1.
</event>
<event>
 7    1  0.1935465E-015  0.9000772E+02  0.7816164E-02  0.1186339E+00
        -11   -1    0    0    0    0  0.00000000000E+00  0.00000000000E+00  0.45593999997E+02  0.45594000000E+02  0.51100000000E-03 0.  1.
         11   -1    0    0    0    0 -0.00000000000E+00 -0.00000000000E+00 -0.45593999997E+02  0.45594000000E+02  0.51100000000E-03 0. -1.
    9900012    2    1    2    0    0 -0.60912584749E+00 -0.14792528404E+00  0.10000759598E+01  0.90007716935E+02  0.89999977999E+02 0.  0.
         12    1    1    2    0    0  0.60912584749E+00  0.14792528404E+00 -0.10000759598E+01  0.11802830648E+01  0.00000000000E+00 0. -1.
         11    1    3    3    0    0 -0.25708084189E+02 -0.11221846530E+00 -0.32783146188E+02  0.41661167289E+02  0.51100000000E-03 0. -1.
        -11    1    3    3    0    0  0.65306676033E+01  0.44963250906E+01 -0.16391616872E+01  0.80965060342E+01  0.51100000000E-03 0.  1.
        -12    1    3    3    0    0  0.18568290738E+02 -0.45320319093E+01  0.35422383835E+02  0.40250043612E+02  0.00000000000E+00 0.  1.
</event>
<event>
 7    1  0.1935465E-015  0.9000774E+02  0.7816164E-02  0.1186339E+00
        -11   -1    0    0    0    0  0.00000000000E+00  0.00000000000E+00  0.45593999997E+02  0.45594000000E+02  0.51100000000E-03 0. -1.
         11   -1    0    0    0    0 -0.00000000000E+00 -0.00000000000E+00 -0.45593999997E+02  0.45594000000E+02  0.51100000000E-03 0.  1.
    9900012    2    1    2    0    0 -0.93839369230E+00  0.29358127781E+00 -0.65286612591E+00  0.90007742881E+02  0.90000004287E+02 0.  0.
         12    1    1    2    0    0  0.93839369230E+00 -0.29358127781E+00  0.65286612591E+00  0.11802571189E+01  0.00000000000E+00 0. -1.
         11    1    3    3    0    0 -0.30279779928E+02  0.12353343668E+02  0.11698453099E+02  0.34732174960E+02  0.51100000000E-03 0. -1.
        -11    1    3    3    0    0  0.70900181542E+01 -0.18066139659E+02  0.11130461437E+02  0.22372772105E+02  0.51100000000E-03 0.  1.
        -12    1    3    3    0    0  0.22251368082E+02  0.60063772685E+01 -0.23481780662E+02  0.32902795816E+02  0.00000000000E+00 0.  1.
</event>
<event>
 7    1  0.1935465E-015  0.9000770E+02  0.7816164E-02  0.1186339E+00
        -11   -1    0    0    0    0  0.00000000000E+00  0.00000000000E+00  0.45593999997E+02  0.45594000000E+02  0.51100000000E-03 0.  1.
         11   -1    0    0    0    0 -0.00000000000E+00 -0.00000000000E+00 -0.45593999997E+02  0.45594000000E+02  0.51100000000E-03 0. -1.
    9900012    2    1    2    0    0  0.10670967994E+01 -0.44071443004E+00  0.24530862065E+00  0.90007702958E+02  0.89999963837E+02 0.  0.
         12    1    1    2    0    0 -0.10670967994E+01  0.44071443004E+00 -0.24530862065E+00  0.11802970421E+01  0.00000000000E+00 0. -1.
         11    1    3    3    0    0  0.57852319717E+01  0.53245818479E+01  0.73446951698E+01  0.10759397205E+02  0.51100000000E-03 0. -1.
        -11    1    3    3    0    0  0.36346320780E+02 -0.83486864541E+01 -0.77859678133E+01  0.38096940754E+02  0.51100000000E-03 0.  1.
         12    1    3    3    0    0 -0.41064455952E+02  0.25833901762E+01  0.68658126419E+00  0.41151364999E+02  0.00000000000E+00 0. -1.
</event>
<event>
 7    1  0.1935465E-015  0.9000781E+02  0.7816164E-02  0.1186339E+00
        -11   -1    0    0    0    0  0.00000000000E+00  0.00000000000E+00  0.45593999997E+02  0.45594000000E+02  0.51100000000E-03 0.  1.
         11   -1    0    0    0    0 -0.00000000000E+00 -0.00000000000E+00 -0.45593999997E+02  0.45594000000E+02  0.51100000000E-03 0. -1.
    9900012    2    1    2    0    0 -0.93631250253E+00 -0.70552543434E+00 -0.13567730773E+00  0.90007806976E+02  0.90000069229E+02 0.  0.
         12    1    1    2    0    0  0.93631250253E+00  0.70552543434E+00  0.13567730773E+00  0.11801930235E+01  0.00000000000E+00 0. -1.
         11    1    3    3    0    0 -0.78075331166E+01 -0.37169310139E+02  0.58139295777E+01  0.38422870364E+02  0.51100000000E-03 0. -1.
        -11    1    3    3    0    0 -0.29975583119E+01 -0.77235339531E+00  0.95671957273E+01  0.10055501974E+02  0.51100000000E-03 0.  1.
        -12    1    3    3    0    0  0.98687789259E+01  0.37236138100E+02 -0.15516802613E+02  0.41529434639E+02  0.00000000000E+00 0.  1.
</event>
<event>
 7    1  0.1935465E-015  0.9000774E+02  0.7816164E-02  0.1186339E+00
        -11   -1    0    0    0    0  0.00000000000E+00  0.00000000000E+00  0.45593999997E+02  0.45594000000E+02  0.51100000000E-03 0. -1.
         11   -1    0    0    0    0 -0.00000000000E+00 -0.00000000000E+00 -0.45593999997E+02  0.45594000000E+02  0.51100000000E-03 0.  1.
    9900012    2    1    2    0    0  0.97667422648E+00 -0.49805289103E+00 -0.43710897703E+00  0.90007740077E+02  0.90000001446E+02 0.  0.
         12    1    1    2    0    0 -0.97667422648E+00  0.49805289103E+00  0.43710897703E+00  0.11802599225E+01  0.00000000000E+00 0. -1.
         11    1    3    3    0    0  0.20503659680E+02 -0.17918338942E+02  0.23621499761E+02  0.36047776380E+02  0.51100000000E-03 0. -1.
        -11    1    3    3    0    0  0.11836044740E+02 -0.71063292903E+00 -0.81861011431E+01  0.14408650403E+02  0.51100000000E-03 0.  1.
        -12    1    3    3    0    0 -0.31363030194E+02  0.18130918980E+02 -0.15872507595E+02  0.39551313295E+02  0.00000000000E+00 0.  1.
</event>
<event>
 7    1  0.1935465E-015  0.9000772E+02  0.7816164E-02  0.1186339E+00
        -11   -1    0    0    0    0  0.00000000000E+00  0.00000000000E+00  0.45593999997E+02  0.45594000000E+02  0.51100000000E-03 0. -1.
         11   -1    0    0    0    0 -0.00000000000E+00 -0.00000000000E+00 -0.45593999997E+02  0.45594000000E+02  0.51100000000E-03 0.  1.
    9900012    2    1    2    0    0 -0.36919390098E+00  0.80914789364E+00 -0.77591256470E+00  0.90007718356E+02  0.89999979439E+02 0.  0.
         12    1    1    2    0    0  0.36919390098E+00 -0.80914789364E+00  0.77591256470E+00  0.11802816437E+01  0.00000000000E+00 0. -1.
         11    1    3    3    0    0 -0.66303534773E+01  0.18333669253E+01 -0.81279489771E+01  0.10648303919E+02  0.51100000000E-03 0. -1.
        -11    1    3    3    0    0  0.77972818376E+01 -0.24988303018E+02 -0.26896123644E+02  0.37531511548E+02  0.51100000000E-03 0.  1.
         12    1    3    3    0    0 -0.15361222613E+01  0.23964083986E+02  0.34248160056E+02  0.41827902889E+02  0.00000000000E+00 0. -1.
</event>
<event>
 7    1  0.1935465E-015  0.9000765E+02  0.7816164E-02  0.1186339E+00
        -11   -1    0    0    0    0  0.00000000000E+00  0.00000000000E+00  0.45593999997E+02  0.45594000000E+02  0.51100000000E-03 0.  1.
         11   -1    0    0    0    0 -0.00000000000E+00 -0.00000000000E+00 -0.45593999997E+02  0.45594000000E+02  0.51100000000E-03 0. -1.
    9900012    2    1    2    0    0  0.60475530337E+00  0.97477485549E+00 -0.27806956622E+00  0.90007645104E+02  0.89999905220E+02 0.  0.
         12    1    1    2    0    0 -0.60475530337E+00 -0.97477485549E+00  0.27806956622E+00  0.11803548956E+01  0.00000000000E+00 0. -1.
         11    1    3    3    0    0 -0.18119491010E+02 -0.14521604120E+02 -0.26158874434E+02  0.34978274009E+02  0.51100000000E-03 0. -1.
        -11    1    3    3    0    0  0.95462360239E+00 -0.12429081446E+02 -0.83440570741E+00  0.12493582551E+02  0.51100000000E-03 0.  1.
        -12    1    3    3    0    0  0.17769622711E+02  0.27925460421E+02  0.26715210576E+02  0.42535788545E+02  0.00000000000E+00 0.  1.
</event>
<event>
 7    1  0.1935465E-015  0.9000750E+02  0.7816164E-02  0.1186340E+00
        -11   -1    0    0    0    0  0.00000000000E+00  0.00000000000E+00  0.45593999997E+02  0.45594000000E+02  0.51100000000E-03 0. -1.
         11   -1    0    0    0    0 -0.00000000000E+00 -0.00000000000E+00 -0.45593999997E+02  0.45594000000E+02  0.51100000000E-03 0.  1.
    9900012    2    1    2    0    0  0.60700651060E+00  0.80789137846E+00 -0.61028300117E+00  0.90007495563E+02  0.89999753705E+02 0.  0.
         12    1    1    2    0    0 -0.60700651060E+00 -0.80789137846E+00  0.61028300117E+00  0.11805044366E+01  0.00000000000E+00 0. -1.
         11    1    3    3    0    0 -0.34644416125E+02  0.20767709742E+01 -0.74844302837E+01  0.35504439768E+02  0.51100000000E-03 0. -1.
        -11    1    3    3    0    0 -0.79892100321E+01 -0.33374404364E+01 -0.44801246896E+01  0.97487180234E+01  0.51100000000E-03 0.  1.
        -12    1    3    3    0    0  0.43240632667E+02  0.20685608407E+01  0.11354271972E+02  0.44754337772E+02  0.00000000000E+00 0.  1.
</event>
<event>
 7    1  0.1935465E-015  0.9000764E+02  0.7816164E-02  0.1186339E+00
        -11   -1    0    0    0    0  0.00000000000E+00  0.00000000000E+00  0.45593999997E+02  0.45594000000E+02  0.51100000000E-03 0. -1.
         11   -1    0    0    0    0 -0.00000000000E+00 -0.00000000000E+00 -0.45593999997E+02  0.45594000000E+02  0.51100000000E-03 0.  1.
    9900012    2    1    2    0    0  0.65056287743E+00  0.75327453522E+00  0.63450954760E+00  0.90007636942E+02  0.89999896949E+02 0.  0.
         12    1    1    2    0    0 -0.65056287743E+00 -0.75327453522E+00 -0.63450954760E+00  0.11803630581E+01  0.00000000000E+00 0. -1.
         11    1    3    3    0    0  0.38875836301E+02  0.11932359834E+01  0.19865497514E+01  0.38944843566E+02  0.51100000000E-03 0. -1.
        -11    1    3    3    0    0  0.41443952145E+01 -0.47361758136E+01  0.49568479371E+01  0.80110994729E+01  0.51100000000E-03 0.  1.
        -12    1    3    3    0    0 -0.42369668638E+02  0.42962143655E+01 -0.63088881409E+01  0.43051693903E+02  0.00000000000E+00 0.  1.
</event>
<event>
 7    1  0.1935465E-015  0.9000775E+02  0.7816164E-02  0.1186339E+00
        -11   -1    0    0    0    0  0.00000000000E+00  0.00000000000E+00  0.45593999997E+02  0.45594000000E+02  0.51100000000E-03 0.  1.
         11   -1    0    0    0    0 -0.00000000000E+00 -0.00000000000E+00 -0.45593999997E+02  0.45594000000E+02  0.51100000000E-03 0. -1.
    9900012    2    1    2    0    0  0.41181161332E-03  0.22112442341E+00  0.11593546037E+01  0.90007746096E+02  0.90000007545E+02 0.  0.
         12    1    1    2    0    0 -0.41181161332E-03 -0.22112442341E+00 -0.11593546037E+01  0.11802539038E+01  0.00000000000E+00 0. -1.
         11    1    3    3    0    0  0.90080660503E+01 -0.13793959443E+02 -0.34559558778E+02  0.38285528262E+02  0.51100000000E-03 0. -1.
        -11    1    3    3    0    0  0.62903051578E+01 -0.78705610900E+01  0.58206734772E+01  0.11635888915E+02  0.51100000000E-03 0.  1.
        -12    1    3    3    0    0 -0.15297959396E+02  0.21885644957E+02  0.29898239904E+02  0.40086328920E+02  0.00000000000E+00 0.  1.
</event>
<event>
 7    1  0.1935465E-015  0.9000774E+02  0.7816164E-02  0.1186339E+00
        -11   -1    0    0    0    0  0.00000000000E+00  0.00000000000E+00  0.45593999997E+02  0.45594000000E+02  0.51100000000E-03 0. -1.
         11   -1    0    0    0    0 -0.00000000000E+00 -0.00000000000E+00 -0.45593999997E+02  0.45594000000E+02  0.51100000000E-03 0.  1.
    9900012    2    1    2    0    0 -0.56053082713E+00  0.10316082012E+01  0.12088257967E+00  0.90007736094E+02  0.89999997411E+02 0.  0.
         12    1    1    2    0    0  0.56053082713E+00 -0.10316082012E+01 -0.12088257967E+00  0.11802639056E+01  0.00000000000E+00 0. -1.
         11    1    3    3    0    0  0.10622300388E+02  0.35730773621E+02  0.12939682705E+02  0.39458292384E+02  0.51100000000E-03 0. -1.
        -11    1    3    3    0    0  0.99530419752E+01 -0.35018172865E+01  0.54990382949E+00  0.10565423009E+02  0.51100000000E-03 0.  1.
        -12    1    3    3    0    0 -0.21135873190E+02 -0.31197348133E+02 -0.13368703954E+02  0.39984020702E+02  0.00000000000E+00 0.  1.
</event>
<event>
 7    1  0.2477420E-015  0.9000772E+02  0.7816164E-02  0.1186339E+00
        -11   -1    0    0    0    0  0.00000000000E+00  0.00000000000E+00  0.45593999997E+02  0.45594000000E+02  0.51100000000E-03 0.  1.
         11   -1    0    0    0    0 -0.00000000000E+00 -0.00000000000E+00 -0.45593999997E+02  0.45594000000E+02  0.51100000000E-03 0. -1.
    9900012    2    1    2    0    0  0.10117710733E+01 -0.60776173123E+00  0.30706734374E-03  0.90007722439E+02  0.89999983575E+02 0.  0.
         12    1    1    2    0    0 -0.10117710733E+01  0.60776173123E+00 -0.30706734373E-03  0.11802775610E+01  0.00000000000E+00 0. -1.
         11    1    3    3    0    0  0.74375334360E+01 -0.58714111869E+01  0.87169336603E+00  0.95157880663E+01  0.51100000000E-03 0. -1.
        -11    1    3    3    0    0  0.16835137416E+02 -0.27628410198E+02  0.16852456341E+02  0.36479531067E+02  0.51100000000E-03 0.  1.
         12    1    3    3    0    0 -0.23260899779E+02  0.32892059654E+02 -0.17723842639E+02  0.44012403305E+02  0.00000000000E+00 0. -1.
</event>
<event>
 7    1  0.2102132E-015  0.9000775E+02  0.7816164E-02  0.1186339E+00
        -11   -1    0    0    0    0  0.00000000000E+00  0.00000000000E+00  0.45593999997E+02  0.45594000000E+02  0.51100000000E-03 0.  1.
         11   -1    0    0    0    0 -0.00000000000E+00 -0.00000000000E+00 -0.45593999997E+02  0.45594000000E+02  0.51100000000E-03 0. -1.
    9900012    2    1    2    0    0 -0.97185102204E+00 -0.32323562455E+00  0.58652024937E+00  0.90007753551E+02  0.90000015098E+02 0.  0.
         12    1    1    2    0    0  0.97185102204E+00  0.32323562455E+00 -0.58652024937E+00  0.11802464492E+01  0.00000000000E+00 0. -1.
         11    1    3    3    0    0  0.50965279252E+01  0.80589492063E+01  0.29435918507E+01  0.99792781526E+01  0.51100000000E-03 0. -1.
        -11    1    3    3    0    0  0.23065985529E+02 -0.12534400843E+02  0.27560947752E+02  0.38062537148E+02  0.51100000000E-03 0.  1.
         12    1    3    3    0    0 -0.29134364476E+02  0.41522160119E+01 -0.29918019353E+02  0.41965938250E+02  0.00000000000E+00 0. -1.
</event>
<event>
 8    1  0.1935465E-015  0.9000772E+02  0.7816164E-02  0.1186339E+00
        -11   -1    0    0    0    0  0.00000000000E+00  0.00000000000E+00  0.45593999997E+02  0.45594000000E+02  0.51100000000E-03 0.  1.
         11   -1    0    0    0    0 -0.00000000000E+00 -0.00000000000E+00 -0.45593999997E+02  0.45594000000E+02  0.51100000000E-03 0. -1.
    9900012    2    1    2    0    0 -0.38469458476E+00 -0.67736103272E-01  0.11137664043E+01  0.90007723038E+02  0.89999984182E+02 0.  0.
         23    2    3    3    0    0 -0.18577325855E+02  0.12601027931E+02 -0.86728892467E+01  0.65774521773E+02  0.61214097770E+02 0.  0.
         12    1    1    2    0    0  0.38469458476E+00  0.67736103272E-01 -0.11137664043E+01  0.11802769618E+01  0.00000000000E+00 0. -1.
         11    1    4    4    0    0 -0.65595323379E+01  0.28099760020E+02 -0.26569169843E+02  0.39224287936E+02  0.51100000000E-03 0. -1.
        -11    1    4    4    0    0 -0.12017793518E+02 -0.15498732089E+02  0.17896280596E+02  0.26550233837E+02  0.51100000000E-03 0.  1.
        -12    1    3    3    0    0  0.18192631271E+02 -0.12668764035E+02  0.97866556510E+01  0.24233201265E+02  0.00000000000E+00 0.  1.
</event>
<event>
 7    1  0.1935465E-015  0.9000773E+02  0.7816164E-02  0.1186339E+00
        -11   -1    0    0    0    0  0.00000000000E+00  0.00000000000E+00  0.45593999997E+02  0.45594000000E+02  0.51100000000E-03 0. -1.
         11   -1    0    0    0    0 -0.00000000000E+00 -0.00000000000E+00 -0.45593999997E+02  0.45594000000E+02  0.51100000000E-03 0.  1.
    9900012    2    1    2    0    0 -0.37859305940E+00 -0.22944078649E+00 -0.10941063130E+01  0.90007726979E+02  0.89999988175E+02 0.  0.
         12    1    1    2    0    0  0.37859305940E+00  0.22944078649E+00  0.10941063130E+01  0.11802730207E+01  0.00000000000E+00 0. -1.
         11    1    3    3    0    0  0.36487133872E+01  0.35049496119E+02  0.10027276570E+02  0.36637775086E+02  0.51100000000E-03 0. -1.
        -11    1    3    3    0    0  0.52071507031E+01  0.67401646622E+01  0.12408173765E+01  0.86071985071E+01  0.51100000000E-03 0.  1.
        -12    1    3    3    0    0 -0.92344571497E+01 -0.42019101568E+02 -0.12362200259E+02  0.44762753386E+02  0.00000000000E+00 0.  1.
</event>
<event>
 7    1  0.1935465E-015  0.9000776E+02  0.7816164E-02  0.1186339E+00
        -11   -1    0    0    0    0  0.00000000000E+00  0.00000000000E+00  0.45593999997E+02  0.45594000000E+02  0.51100000000E-03 0. -1.
         11   -1    0    0    0    0 -0.00000000000E+00 -0.00000000000E+00 -0.45593999997E+02  0.45594000000E+02  0.51100000000E-03 0.  1.
    9900012    2    1    2    0    0  0.10687911031E+01  0.50015884440E+00 -0.22040124936E-01  0.90007763134E+02  0.90000024808E+02 0.  0.
         12    1    1    2    0    0 -0.10687911031E+01 -0.50015884440E+00  0.22040124936E-01  0.11802368656E+01  0.00000000000E+00 0. -1.
         11    1    3    3    0    0  0.11715956609E+02 -0.68066933531E+01  0.38714518598E+02  0.41017175235E+02  0.51100000000E-03 0. -1.
        -11    1    3    3    0    0  0.45275304203E+01 -0.67077823726E+01 -0.52531250858E+01  0.96482226080E+01  0.51100000000E-03 0.  1.
        -12    1    3    3    0    0 -0.15174695926E+02  0.14014634570E+02 -0.33483433638E+02  0.39342365292E+02  0.00000000000E+00 0.  1.
</event>
<event>
 7    1  0.1935465E-015  0.9000785E+02  0.7816164E-02  0.1186339E+00
        -11   -1    0    0    0    0  0.00000000000E+00  0.00000000000E+00  0.45593999997E+02  0.45594000000E+02  0.51100000000E-03 0. -1.
         11   -1    0    0    0    0 -0.00000000000E+00 -0.00000000000E+00 -0.45593999997E+02  0.45594000000E+02  0.51100000000E-03 0.  1.
    9900012    2    1    2    0    0  0.43512833517E+00 -0.10818508879E+01 -0.18167399148E+00  0.90007854479E+02  0.90000117358E+02 0.  0.
         12    1    1    2    0    0 -0.43512833517E+00  0.10818508879E+01  0.18167399148E+00  0.11801455211E+01  0.00000000000E+00 0. -1.
         11    1    3    3    0    0  0.10065599584E+02  0.18158765120E+02 -0.18465662967E+02  0.27785567381E+02  0.51100000000E-03 0. -1.
        -11    1    3    3    0    0  0.12858589356E+01  0.94715391337E+01 -0.14454783132E+02  0.17329288572E+02  0.51100000000E-03 0.  1.
         12    1    3    3    0    0 -0.10916330184E+02 -0.28712155141E+02  0.32738772107E+02  0.44892998526E+02  0.00000000000E+00 0. -1.
</event>
<event>
 7    1  0.1935465E-015  0.9000783E+02  0.7816164E-02  0.1186339E+00
        -11   -1    0    0    0    0  0.00000000000E+00  0.00000000000E+00  0.45593999997E+02  0.45594000000E+02  0.51100000000E-03 0. -1.
         11   -1    0    0    0    0 -0.00000000000E+00 -0.00000000000E+00 -0.45593999997E+02  0.45594000000E+02  0.51100000000E-03 0.  1.
    9900012    2    1    2    0    0 -0.11060771902E+01  0.15334167193E+00 -0.38194961764E+00  0.90007828009E+02  0.90000090538E+02 0.  0.
         12    1    1    2    0    0  0.11060771902E+01 -0.15334167193E+00  0.38194961764E+00  0.11801719915E+01  0.00000000000E+00 0. -1.
         11    1    3    3    0    0  0.23733318999E+02 -0.72023084801E+01  0.12292570816E+02  0.27681238695E+02  0.51100000000E-03 0. -1.
        -11    1    3    3    0    0 -0.13290206608E+02 -0.15550078803E+02  0.14410324665E+02  0.25021830462E+02  0.51100000000E-03 0.  1.
        -12    1    3    3    0    0 -0.11549189581E+02  0.22905728955E+02 -0.27084845099E+02  0.37304758852E+02  0.00000000000E+00 0.  1.
</event>
<event>
 7    1  0.1935465E-015  0.9000774E+02  0.7816164E-02  0.1186339E+00
        -11   -1    0    0    0    0  0.00000000000E+00  0.00000000000E+00  0.45593999997E+02  0.45594000000E+02  0.51100000000E-03 0. -1.
         11   -1    0    0    0    0 -0.00000000000E+00 -0.00000000000E+00 -0.45593999997E+02  0.45594000000E+02  0.51100000000E-03 0.  1.
    9900012    2    1    2    0    0  0.11964166373E-01 -0.11610356676E+01 -0.21183742015E+00  0.90007736447E+02  0.89999997768E+02 0.  0.
         12    1    1    2    0    0 -0.11964166373E-01  0.11610356676E+01  0.21183742015E+00  0.11802635533E+01  0.00000000000E+00 0. -1.
         11    1    3    3    0    0  0.34069709986E+01 -0.54076495888E+01 -0.80290817929E+01  0.10262372053E+02  0.51100000000E-03 0. -1.
        -11    1    3    3    0    0  0.82155645146E+01 -0.66650329762E+01 -0.33675738713E+02  0.35298350429E+02  0.51100000000E-03 0.  1.
         12    1    3    3    0    0 -0.11610571347E+02  0.10911646897E+02  0.41492983086E+02  0.44447013965E+02  0.00000000000E+00 0. -1.
</event>
<event>
 7    1  0.1935465E-015  0.9000774E+02  0.7816164E-02  0.1186339E+00
        -11   -1    0    0    0    0  0.00000000000E+00  0.00000000000E+00  0.45593999997E+02  0.45594000000E+02  0.51100000000E-03 0.  1.
         11   -1    0    0    0    0 -0.00000000000E+00 -0.00000000000E+00 -0.45593999997E+02  0.45594000000E+02  0.51100000000E-03 0. -1.
    9900012    2    1    2    0    0 -0.96461912256E+00 -0.58325951063E+00  0.34977489020E+00  0.90007735546E+02  0.89999996855E+02 0.  0.
         12    1    1    2    0    0  0.96461912256E+00  0.58325951063E+00 -0.34977489020E+00  0.11802644543E+01  0.00000000000E+00 0. -1.
         11    1    3    3    0    0  0.30421132197E+02 -0.12460012458E+02 -0.13003607549E+02  0.35352383288E+02  0.51100000000E-03 0. -1.
        -11    1    3    3    0    0  0.81505161783E+01 -0.45323364399E+01 -0.12878605933E+01  0.94144342764E+01  0.51100000000E-03 0.  1.
        -12    1    3    3    0    0 -0.39536267498E+02  0.16409089387E+02  0.14641243033E+02  0.45240917981E+02  0.00000000000E+00 0.  1.
</event>
<event>
 7    1  0.1935465E-015  0.9000754E+02  0.7816164E-02  0.1186339E+00
        -11   -1    0    0    0    0  0.00000000000E+00  0.00000000000E+00  0.45593999997E+02  0.45594000000E+02  0.51100000000E-03 0.  1.
         11   -1    0    0    0    0 -0.00000000000E+00 -0.00000000000E+00 -0.45593999997E+02  0.45594000000E+02  0.51100000000E-03 0. -1.
    9900012    2    1    2    0    0 -0.98578990568E+00  0.30579814355E+00 -0.57287057878E+00  0.90007544604E+02  0.89999803392E+02 0.  0.
         12    1    1    2    0    0  0.98578990568E+00 -0.30579814355E+00  0.57287057878E+00  0.11804553963E+01  0.00000000000E+00 0. -1.
         11    1    3    3    0    0 -0.10840881756E+02 -0.50915437399E+01  0.88274627363E+01  0.14878596490E+02  0.51100000000E-03 0. -1.
        -11    1    3    3    0    0  0.18211682480E+02  0.23174450683E+02  0.22899947383E+02  0.37324631728E+02  0.51100000000E-03 0.  1.
         12    1    3    3    0    0 -0.83565906299E+01 -0.17777108800E+02 -0.32300280698E+02  0.37804316386E+02  0.00000000000E+00 0. -1.
</event>
<event>
 7    1  0.1935465E-015  0.9000775E+02  0.7816164E-02  0.1186339E+00
        -11   -1    0    0    0    0  0.00000000000E+00  0.00000000000E+00  0.45593999997E+02  0.45594000000E+02  0.51100000000E-03 0. -1.
         11   -1    0    0    0    0 -0.00000000000E+00 -0.00000000000E+00 -0.45593999997E+02  0.45594000000E+02  0.51100000000E-03 0.  1.
    9900012    2    1    2    0    0  0.66877847547E+00  0.28836942205E+00 -0.92875115774E+00  0.90007745669E+02  0.90000007112E+02 0.  0.
         12    1    1    2    0    0 -0.66877847547E+00 -0.28836942205E+00  0.92875115774E+00  0.11802543310E+01  0.00000000000E+00 0. -1.
         11    1    3    3    0    0 -0.96606951244E+01 -0.32929191367E+01  0.27255162650E+02  0.29103543393E+02  0.51100000000E-03 0. -1.
        -11    1    3    3    0    0 -0.96179561777E+01  0.10258051089E+02  0.10037531725E+02  0.17276710814E+02  0.51100000000E-03 0.  1.
        -12    1    3    3    0    0  0.19947429778E+02 -0.66767625299E+01 -0.38221445532E+02  0.43627491461E+02  0.00000000000E+00 0.  1.
</event>
<event>
 7    1  0.1935465E-015  0.9000733E+02  0.7816164E-02  0.1186340E+00
        -11   -1    0    0    0    0  0.00000000000E+00  0.00000000000E+00  0.45593999997E+02  0.45594000000E+02  0.51100000000E-03 0. -1.
         11   -1    0    0    0    0 -0.00000000000E+00 -0.00000000000E+00 -0.45593999997E+02  0.45594000000E+02  0.51100000000E-03 0.  1.
    9900012    2    1    2    0    0 -0.34866722436E-01 -0.10597713076E+01 -0.51927172100E+00  0.90007333225E+02  0.89999589223E+02 0.  0.
         12    1    1    2    0    0  0.34866722436E-01  0.10597713076E+01  0.51927172100E+00  0.11806667747E+01  0.00000000000E+00 0. -1.
         11    1    3    3    0    0  0.20896447175E+01 -0.97253980368E+00  0.87749830869E+01  0.90726389299E+01  0.51100000000E-03 0. -1.
        -11    1    3    3    0    0 -0.41060198324E+02  0.29868070656E+01 -0.21110082979E+01  0.41222775975E+02  0.51100000000E-03 0.  1.
         12    1    3    3    0    0  0.38935686884E+02 -0.30740385695E+01 -0.71832465100E+01  0.39711918320E+02  0.00000000000E+00 0. -1.
</event>
<event>
 7    1  0.1935465E-015  0.9000782E+02  0.7816164E-02  0.1186339E+00
        -11   -1    0    0    0    0  0.00000000000E+00  0.00000000000E+00  0.45593999997E+02  0.45594000000E+02  0.51100000000E-03 0. -1.
         11   -1    0    0    0    0 -0.00000000000E+00 -0.00000000000E+00 -0.45593999997E+02  0.45594000000E+02  0.51100000000E-03 0.  1.
    9900012    2    1    2    0    0  0.89749445064E+00  0.66418972182E+00 -0.38233360004E+00  0.90007820667E+02  0.90000083100E+02 0.  0.
         12    1    1    2    0    0 -0.89749445064E+00 -0.66418972182E+00  0.38233360004E+00  0.11801793327E+01  0.00000000000E+00 0. -1.
         11    1    3    3    0    0  0.21776801254E+02 -0.40800194234E+01  0.28848031636E+02  0.36374229351E+02  0.51100000000E-03 0. -1.
        -11    1    3    3    0    0  0.23937629158E+01  0.76286802385E+00  0.86443116964E+01  0.90020105246E+01  0.51100000000E-03 0.  1.
        -12    1    3    3    0    0 -0.23273069719E+02  0.39813411213E+01 -0.37874676932E+02  0.44631580792E+02  0.00000000000E+00 0.  1.
</event>
<event>
 7    1  0.1935465E-015  0.9000777E+02  0.7816164E-02  0.1186339E+00
        -11   -1    0    0    0    0  0.00000000000E+00  0.00000000000E+00  0.45593999997E+02  0.45594000000E+02  0.51100000000E-03 0. -1.
         11   -1    0    0    0    0 -0.00000000000E+00 -0.00000000000E+00 -0.45593999997E+02  0.45594000000E+02  0.51100000000E-03 0.  1.
    9900012    2    1    2    0    0 -0.95355669393E+00  0.66901072995E-01  0.69224529179E+00  0.90007767114E+02  0.90000028840E+02 0.  0.
         12    1    1    2    0    0  0.95355669393E+00 -0.66901072995E-01 -0.69224529179E+00  0.11802328864E+01  0.00000000000E+00 0. -1.
         11    1    3    3    0    0  0.18306045158E+02  0.35085666346E+01  0.34441099288E+02  0.39161341264E+02  0.51100000000E-03 0. -1.
        -11    1    3    3    0    0 -0.59914563865E+00  0.70242429447E+01  0.35149146043E+01  0.78774100680E+01  0.51100000000E-03 0.  1.
        -12    1    3    3    0    0 -0.18660456213E+02 -0.10465908506E+02 -0.37263768601E+02  0.42969015782E+02  0.00000000000E+00 0.  1.
</event>
<event>
 7    1  0.2265324E-015  0.9000762E+02  0.7816164E-02  0.1186339E+00
        -11   -1    0    0    0    0  0.00000000000E+00  0.00000000000E+00  0.45593999997E+02  0.45594000000E+02  0.51100000000E-03 0.  1.
         11   -1    0    0    0    0 -0.00000000000E+00 -0.00000000000E+00 -0.45593999997E+02  0.45594000000E+02  0.51100000000E-03 0. -1.
    9900012    2    1    2    0    0  0.10456361736E+01  0.38320639848E+00  0.39127662943E+00  0.90007618895E+02  0.89999878665E+02 0.  0.
         12    1    1    2    0    0 -0.10456361736E+01 -0.38320639848E+00 -0.39127662943E+00  0.11803811046E+01  0.00000000000E+00 0. -1.
         11    1    3    3    0    0 -0.26780834522E+01 -0.41133453634E+01  0.87308210804E+01  0.10015936205E+02  0.51100000000E-03 0. -1.
        -11    1    3    3    0    0 -0.23679988483E+02 -0.16641055239E+02  0.20066386968E+02  0.35218268842E+02  0.51100000000E-03 0.  1.
         12    1    3    3    0    0  0.27403708109E+02  0.21137607001E+02 -0.28405931419E+02  0.44773413848E+02  0.00000000000E+00 0. -1.
</event>
<event>
 7    1  0.1935465E-015  0.9000745E+02  0.7816164E-02  0.1186340E+00
        -11   -1    0    0    0    0  0.00000000000E+00  0.00000000000E+00  0.45593999997E+02  0.45594000000E+02  0.51100000000E-03 0. -1.
         11   -1    0    0    0    0 -0.00000000000E+00 -0.00000000000E+00 -0.45593999997E+02  0.45594000000E+02  0.51100000000E-03 0.  1.
    9900012    2    1    2    0    0 -0.42289072190E+00 -0.10831040141E+01 -0.20432673987E+00  0.90007449161E+02  0.89999706689E+02 0.  0.
         12    1    1    2    0    0  0.42289072190E+00  0.10831040141E+01  0.20432673987E+00  0.11805508395E+01  0.00000000000E+00 0. -1.
         11    1    3    3    0    0  0.15942510810E+02  0.35000598567E+02 -0.37302274813E+01  0.38640912882E+02  0.51100000000E-03 0. -1.
        -11    1    3    3    0    0  0.28353999247E+01  0.25327882521E+01 -0.60914921058E+01  0.71805839177E+01  0.51100000000E-03 0.  1.
        -12    1    3    3    0    0 -0.19200801457E+02 -0.38616490834E+02  0.96173928473E+01  0.44185952361E+02  0.00000000000E+00 0.  1.
</event>
<event>
 7    1  0.1935465E-015  0.9000781E+02  0.7816164E-02  0.1186339E+00
        -11   -1    0    0    0    0  0.00000000000E+00  0.00000000000E+00  0.45593999997E+02  0.45594000000E+02  0.51100000000E-03 0.  1.
         11   -1    0    0    0    0 -0.00000000000E+00 -0.00000000000E+00 -0.45593999997E+02  0.45594000000E+02  0.51100000000E-03 0. -1.
    9900012    2    1    2    0    0  0.51427718334E+00 -0.50965009383E+00  0.93200489026E+00  0.90007806221E+02  0.90000068464E+02 0.  0.
         12    1    1    2    0    0 -0.51427718334E+00  0.50965009383E+00 -0.93200489026E+00  0.11801937785E+01  0.00000000000E+00 0. -1.
         11    1    3    3    0    0 -0.31590300543E+02 -0.12044835272E+02 -0.21247436239E+02  0.39930924008E+02  0.51100000000E-03 0. -1.
        -11    1    3    3    0    0 -0.35974408304E+01 -0.25046333065E+01  0.81026939686E+01  0.92124056760E+01  0.51100000000E-03 0.  1.
        -12    1    3    3    0    0  0.35702018557E+02  0.14039818485E+02  0.14076747160E+02  0.40864476538E+02  0.00000000000E+00 0.  1.
</event>
<event>
 7    1  0.1935465E-015  0.9000764E+02  0.7816164E-02  0.1186339E+00
        -11   -1    0    0    0    0  0.00000000000E+00  0.00000000000E+00  0.45593999997E+02  0.45594000000E+02  0.51100000000E-03 0.  1.
         11   -1    0    0    0    0 -0.00000000000E+00 -0.00000000000E+00 -0.45593999997E+02  0.45594000000E+02  0.51100000000E-03 0. -1.
    9900012    2    1    2    0    0 -0.11661758771E+00 -0.28827279801E+00  0.11386602354E+01  0.90007640733E+02  0.89999900791E+02 0.  0.
         12    1    1    2    0    0  0.11661758771E+00  0.28827279801E+00 -0.11386602354E+01  0.11803592671E+01  0.00000000000E+00 0. -1.
         11    1    3    3    0    0  0.22431569396E+02 -0.25546479958E+02  0.17359441843E+02  0.38172610144E+02  0.51100000000E-03 0. -1.
        -11    1    3    3    0    0 -0.29895631567E+01 -0.81470787651E+01  0.22191103582E+01  0.89575013992E+01  0.51100000000E-03 0.  1.
        -12    1    3    3    0    0 -0.19558623827E+02  0.33405285925E+02 -0.18439891966E+02  0.42877529190E+02  0.00000000000E+00 0.  1.
</event>
<event>
 7    1  0.1935465E-015  0.9000774E+02  0.7816164E-02  0.1186339E+00
        -11   -1    0    0    0    0  0.00000000000E+00  0.00000000000E+00  0.45593999997E+02  0.45594000000E+02  0.51100000000E-03 0. -1.
         11   -1    0    0    0    0 -0.00000000000E+00 -0.00000000000E+00 -0.45593999997E+02  0.45594000000E+02  0.51100000000E-03 0.  1.
    9900012    2    1    2    0    0 -0.57497204114E+00  0.10188607104E+01 -0.15598859241E+00  0.90007744758E+02  0.90000006189E+02 0.  0.
         12    1    1    2    0    0  0.57497204114E+00 -0.10188607104E+01  0.15598859241E+00  0.11802552420E+01  0.00000000000E+00 0. -1.
         11    1    3    3    0    0 -0.76785791323E+01  0.33102549692E+02  0.86744175665E+01  0.35071140472E+02  0.51100000000E-03 0. -1.
        -11    1    3    3    0    0  0.48301371233E+01  0.14488817944E+01  0.13616612983E+02  0.14520386788E+02  0.51100000000E-03 0.  1.
        -12    1    3    3    0    0  0.22734699679E+01 -0.33532570776E+02 -0.22447019142E+02  0.40416217499E+02  0.00000000000E+00 0.  1.
</event>
<event>
 7    1  0.1935465E-015  0.9000778E+02  0.7816164E-02  0.1186339E+00
        -11   -1    0    0    0    0  0.00000000000E+00  0.00000000000E+00  0.45593999997E+02  0.45594000000E+02  0.51100000000E-03 0.  1.
         11   -1    0    0    0    0 -0.00000000000E+00 -0.00000000000E+00 -0.45593999997E+02  0.45594000000E+02  0.51100000000E-03 0. -1.
    9900012    2    1    2    0    0  0.97466793670E+00  0.35595454103E+00  0.56234314652E+00  0.90007783479E+02  0.90000045421E+02 0.  0.
         12    1    1    2    0    0 -0.97466793670E+00 -0.35595454103E+00 -0.56234314652E+00  0.11802165210E+01  0.00000000000E+00 0. -1.
         11    1    3    3    0    0 -0.19623215591E+02 -0.16879857610E+02 -0.22998554614E+02  0.34625621983E+02  0.51100000000E-03 0. -1.
        -11    1    3    3    0    0 -0.11256091931E+02 -0.75913419827E+00  0.13187112570E+02  0.17354418126E+02  0.51100000000E-03 0.  1.
        -12    1    3    3    0    0  0.31853975459E+02  0.17994946350E+02  0.10373785191E+02  0.38027743371E+02  0.00000000000E+00 0.  1.
</event>
<event>
 7    1  0.2122087E-015  0.9000772E+02  0.7816164E-02  0.1186339E+00
        -11   -1    0    0    0    0  0.00000000000E+00  0.00000000000E+00  0.45593999997E+02  0.45594000000E+02  0.51100000000E-03 0.  1.
         11   -1    0    0    0    0 -0.00000000000E+00 -0.00000000000E+00 -0.45593999997E+02  0.45594000000E+02  0.51100000000E-03 0. -1.
    9900012    2    1    2    0    0 -0.72819899931E+00 -0.84938132441E+00 -0.37596281116E+00  0.90007715944E+02  0.89999976995E+02 0.  0.
         12    1    1    2    0    0  0.72819899931E+00  0.84938132441E+00  0.37596281116E+00  0.11802840557E+01  0.00000000000E+00 0. -1.
         11    1    3    3    0    0 -0.75148416649E+01  0.56979692674E+01  0.28737814374E+01  0.98589207843E+01  0.51100000000E-03 0. -1.
        -11    1    3    3    0    0 -0.30916736786E+02 -0.15682727887E+02  0.14386882061E+02  0.37533650810E+02  0.51100000000E-03 0.  1.
         12    1    3    3    0    0  0.37703379451E+02  0.91353772949E+01 -0.17636626309E+02  0.42615144350E+02  0.00000000000E+00 0. -1.
</event>
<event>
 7    1  0.1935465E-015  0.9000780E+02  0.7816164E-02  0.1186339E+00
        -11   -1    0    0    0    0  0.00000000000E+00  0.00000000000E+00  0.45593999997E+02  0.45594000000E+02  0.51100000000E-03 0.  1.
         11   -1    0    0    0    0 -0.00000000000E+00 -0.00000000000E+00 -0.45593999997E+02  0.45594000000E+02  0.51100000000E-03 0. -1.
    9900012    2    1    2    0    0  0.10988790956E+01 -0.77326920149E-01 -0.42351583768E+00  0.90007796465E+02  0.90000058578E+02 0.  0.
         12    1    1    2    0    0 -0.10988790956E+01  0.77326920149E-01  0.42351583768E+00  0.11802035351E+01  0.00000000000E+00 0. -1.
         11    1    3    3    0    0  0.28883730502E+01  0.71853079651E+01 -0.37554027897E+02  0.38344182883E+02  0.51100000000E-03 0. -1.
        -11    1    3    3    0    0  0.10043602750E+02 -0.45525226517E+01 -0.15383709815E+01  0.11134002166E+02  0.51100000000E-03 0.  1.
        -12    1    3    3    0    0 -0.11833096705E+02 -0.27101122335E+01  0.38668883040E+02  0.40529611416E+02  0.00000000000E+00 0.  1.
</event>
<event>
 7    1  0.1935465E-015  0.9000798E+02  0.7816164E-02  0.1186339E+00
        -11   -1    0    0    0    0  0.00000000000E+00  0.00000000000E+00  0.45593999997E+02  0.45594000000E+02  0.51100000000E-03 0.  1.
         11   -1    0    0    0    0 -0.00000000000E+00 -0.00000000000E+00 -0.45593999997E+02  0.45594000000E+02  0.51100000000E-03 0. -1.
    9900012    2    1    2    0    0  0.23535847349E+00 -0.11360676565E+01 -0.21543562136E+00  0.90007976340E+02  0.90000240827E+02 0.  0.
         12    1    1    2    0    0 -0.23535847349E+00  0.11360676565E+01  0.21543562136E+00  0.11800236600E+01  0.00000000000E+00 0. -1.
         11    1    3    3    0    0  0.20961426096E+02  0.31551968497E+02 -0.15597110612E+02  0.40965570419E+02  0.51100000000E-03 0. -1.
        -11    1    3    3    0    0  0.56195867948E+01 -0.47927403593E+01  0.60670227793E+01  0.95581840096E+01  0.51100000000E-03 0.  1.
        -12    1    3    3    0    0 -0.26345654418E+02 -0.27895295794E+02  0.93146522109E+01  0.39484221912E+02  0.00000000000E+00 0.  1.
</event>
<event>
 7    1  0.1935465E-015  0.9000769E+02  0.7816164E-02  0.1186339E+00
        -11   -1    0    0    0    0  0.00000000000E+00  0.00000000000E+00  0.45593999997E+02  0.45594000000E+02  0.51100000000E-03 0. -1.
         11   -1    0    0    0    0 -0.00000000000E+00 -0.00000000000E+00 -0.45593999997E+02  0.45594000000E+02  0.51100000000E-03 0.  1.
    9900012    2    1    2    0    0 -0.84115012155E+00 -0.74935258790E+00 -0.35222201481E+00  0.90007693609E+02  0.89999954365E+02 0.  0.
         12    1    1    2    0    0  0.84115012155E+00  0.74935258790E+00  0.35222201481E+00  0.11803063906E+01  0.00000000000E+00 0. -1.
         11    1    3    3    0    0  0.64374248090E+01 -0.63018458010E+01  0.63103972348E+01  0.10998855040E+02  0.51100000000E-03 0. -1.
        -11    1    3    3    0    0  0.26770078923E+02 -0.18944650094E+02 -0.15291270783E+02  0.36185077797E+02  0.51100000000E-03 0.  1.
         12    1    3    3    0    0 -0.34048653853E+02  0.24497143307E+02  0.86286515336E+01  0.42823760773E+02  0.00000000000E+00 0. -1.
</event>
<event>
 7    1  0.1935465E-015  0.9000774E+02  0.7816164E-02  0.1186339E+00
        -11   -1    0    0    0    0  0.00000000000E+00  0.00000000000E+00  0.45593999997E+02  0.45594000000E+02  0.51100000000E-03 0.  1.
         11   -1    0    0    0    0 -0.00000000000E+00 -0.00000000000E+00 -0.45593999997E+02  0.45594000000E+02  0.51100000000E-03 0. -1.
    9900012    2    1    2    0    0 -0.93293769577E+00 -0.24962155503E+00 -0.67847082683E+00  0.90007743109E+02  0.90000004518E+02 0.  0.
         12    1    1    2    0    0  0.93293769577E+00  0.24962155503E+00  0.67847082683E+00  0.11802568906E+01  0.00000000000E+00 0. -1.
         11    1    3    3    0    0 -0.31445233673E+02 -0.19631228658E+02 -0.31581834734E+01  0.37204327470E+02  0.51100000000E-03 0. -1.
        -11    1    3    3    0    0 -0.71967869982E+01 -0.25959948638E+01 -0.40742429427E+01  0.86678941069E+01  0.51100000000E-03 0.  1.
        -12    1    3    3    0    0  0.37709082976E+02  0.21977601967E+02  0.65539555893E+01  0.44135521532E+02  0.00000000000E+00 0.  1.
</event>
<event>
 7    1  0.1935465E-015  0.9000773E+02  0.7816164E-02  0.1186339E+00
        -11   -1    0    0    0    0  0.00000000000E+00  0.00000000000E+00  0.45593999997E+02  0.45594000000E+02  0.51100000000E-03 0. -1.
         11   -1    0    0    0    0 -0.00000000000E+00 -0.00000000000E+00 -0.45593999997E+02  0.45594000000E+02  0.51100000000E-03 0.  1.
    9900012    2    1    2    0    0 -0.23906975929E+00 -0.13689491778E+00 -0.11476679058E+01  0.90007730459E+02  0.89999991701E+02 0.  0.
         12    1    1    2    0    0  0.23906975929E+00  0.13689491778E+00  0.11476679058E+01  0.11802695414E+01  0.00000000000E+00 0. -1.
         11    1    3    3    0    0  0.20413696701E+02 -0.94696333593E+01  0.31423690259E+02  0.38650242932E+02  0.51100000000E-03 0. -1.
        -11    1    3    3    0    0 -0.42712374045E+01  0.11936336942E+02  0.21677561156E+01  0.12861523059E+02  0.51100000000E-03 0.  1.
        -12    1    3    3    0    0 -0.16381529055E+02 -0.26035985006E+01 -0.34739114280E+02  0.38495964468E+02  0.00000000000E+00 0.  1.
</event>
<event>
 7    1  0.1935465E-015  0.9000776E+02  0.7816164E-02  0.1186339E+00
        -11   -1    0    0    0    0  0.00000000000E+00  0.00000000000E+00  0.45593999997E+02  0.45594000000E+02  0.51100000000E-03 0. -1.
         11   -1    0    0    0    0 -0.00000000000E+00 -0.00000000000E+00 -0.45593999997E+02  0.45594000000E+02  0.51100000000E-03 0.  1.
    9900012    2    1    2    0    0  0.11786829163E+01  0.43118125901E-01 -0.42523466578E-01  0.90007762382E+02  0.90000024045E+02 0.  0.
         12    1    1    2    0    0 -0.11786829163E+01 -0.43118125901E-01  0.42523466578E-01  0.11802376181E+01  0.00000000000E+00 0. -1.
         11    1    3    3    0    0  0.73382634260E+01 -0.10096406214E+01 -0.10228836970E+01  0.74776851774E+01  0.51100000000E-03 0. -1.
        -11    1    3    3    0    0  0.23713224417E+02  0.29998251469E+02  0.10911020452E+02  0.39765091111E+02  0.51100000000E-03 0.  1.
         12    1    3    3    0    0 -0.29872804927E+02 -0.28945492722E+02 -0.99306602219E+01  0.42764986094E+02  0.00000000000E+00 0. -1.
</event>
<event>
 7    1  0.1935465E-015  0.9000780E+02  0.7816164E-02  0.1186339E+00
        -11   -1    0    0    0    0  0.00000000000E+00  0.00000000000E+00  0.45593999997E+02  0.45594000000E+02  0.51100000000E-03 0.  1.
         11   -1    0    0    0    0 -0.00000000000E+00 -0.00000000000E+00 -0.45593999997E+02  0.45594000000E+02  0.51100000000E-03 0. -1.
    9900012    2    1    2    0    0 -0.65191696362E+00 -0.92566438430E+00 -0.33320318098E+00  0.90007798899E+02  0.90000061044E+02 0.  0.
         12    1    1    2    0    0  0.65191696362E+00  0.92566438430E+00  0.33320318098E+00  0.11802011014E+01  0.00000000000E+00 0. -1.
         11    1    3    3    0    0  0.30663099438E+01 -0.40700862440E+01 -0.12882398602E+02  0.13853665678E+02  0.51100000000E-03 0. -1.
        -11    1    3    3    0    0 -0.13467747464E+02 -0.33757219163E+02  0.13193661707E+01  0.36368541278E+02  0.51100000000E-03 0.  1.
         12    1    3    3    0    0  0.97495205562E+01  0.36901641022E+02  0.11229829251E+02  0.39785591943E+02  0.00000000000E+00 0. -1.
</event>
<event>
 7    1  0.1935465E-015  0.9000807E+02  0.7816164E-02  0.1186338E+00
        -11   -1    0    0    0    0  0.00000000000E+00  0.00000000000E+00  0.45593999997E+02  0.45594000000E+02  0.51100000000E-03 0. -1.
         11   -1    0    0    0    0 -0.00000000000E+00 -0.00000000000E+00 -0.45593999997E+02  0.45594000000E+02  0.51100000000E-03 0.  1.
    9900012    2    1    2    0    0  0.61500966067E+00 -0.82581244818E+00 -0.57621192711E+00  0.90008074889E+02  0.90000340677E+02 0.  0.
         12    1    1    2    0    0 -0.61500966067E+00  0.82581244818E+00  0.57621192711E+00  0.11799251109E+01  0.00000000000E+00 0. -1.
         11    1    3    3    0    0  0.51074057567E+01 -0.22458997757E+01  0.88924748235E+01  0.10497893508E+02  0.51100000000E-03 0. -1.
        -11    1    3    3    0    0 -0.32768128820E+02  0.84916116656E+01  0.18957006939E+02  0.38797240204E+02  0.51100000000E-03 0.  1.
         12    1    3    3    0    0  0.28275732724E+02 -0.70715243381E+01 -0.28425693690E+02  0.40712941177E+02  0.00000000000E+00 0. -1.
</event>
<event>
 7    1  0.2241396E-015  0.9000770E+02  0.7816164E-02  0.1186339E+00
        -11   -1    0    0    0    0  0.00000000000E+00  0.00000000000E+00  0.45593999997E+02  0.45594000000E+02  0.51100000000E-03 0. -1.
         11   -1    0    0    0    0 -0.00000000000E+00 -0.00000000000E+00 -0.45593999997E+02  0.45594000000E+02  0.51100000000E-03 0.  1.
    9900012    2    1    2    0    0  0.73350973109E-01  0.11556762481E+01 -0.22832530843E+00  0.90007703257E+02  0.89999964140E+02 0.  0.
         12    1    1    2    0    0 -0.73350973109E-01 -0.11556762481E+01  0.22832530843E+00  0.11802967433E+01  0.00000000000E+00 0. -1.
         11    1    3    3    0    0  0.86705282456E+01  0.46210706622E+01  0.32054103077E+01  0.10334747681E+02  0.51100000000E-03 0. -1.
        -11    1    3    3    0    0 -0.10568814029E+02 -0.52107070394E+01 -0.40670538327E+02  0.42343169295E+02  0.51100000000E-03 0.  1.
         12    1    3    3    0    0  0.19716367563E+01  0.17453126253E+01  0.37236802711E+02  0.37329786281E+02  0.00000000000E+00 0. -1.
</event>
<event>
 7    1  0.1935465E-015  0.9000779E+02  0.7816164E-02  0.1186339E+00
        -11   -1    0    0    0    0  0.00000000000E+00  0.00000000000E+00  0.45593999997E+02  0.45594000000E+02  0.51100000000E-03 0. -1.
         11   -1    0    0    0    0 -0.00000000000E+00 -0.00000000000E+00 -0.45593999997E+02  0.45594000000E+02  0.51100000000E-03 0.  1.
    9900012    2    1    2    0    0 -0.97649045585E+00  0.47998776252E-02 -0.66282544552E+00  0.90007790603E+02  0.90000052639E+02 0.  0.
         12    1    1    2    0    0  0.97649045585E+00 -0.47998776252E-02  0.66282544552E+00  0.11802093969E+01  0.00000000000E+00 0. -1.
         11    1    3    3    0    0  0.49693910772E+00 -0.53897180651E+00  0.14178624487E+02  0.14197564287E+02  0.51100000000E-03 0. -1.
        -11    1    3    3    0    0 -0.37683958603E+02 -0.14219978884E+01 -0.37950221858E+01  0.37901253378E+02  0.51100000000E-03 0.  1.
         12    1    3    3    0    0  0.36210529039E+02  0.19657695726E+01 -0.11046427746E+02  0.37908972938E+02  0.00000000000E+00 0. -1.
</event>
<event>
 7    1  0.1935465E-015  0.9000750E+02  0.7816164E-02  0.1186340E+00
        -11   -1    0    0    0    0  0.00000000000E+00  0.00000000000E+00  0.45593999997E+02  0.45594000000E+02  0.51100000000E-03 0. -1.
         11   -1    0    0    0    0 -0.00000000000E+00 -0.00000000000E+00 -0.45593999997E+02  0.45594000000E+02  0.51100000000E-03 0.  1.
    9900012    2    1    2    0    0  0.60076261927E+00  0.98633299542E+00  0.24456504288E+00  0.90007499868E+02  0.89999758065E+02 0.  0.
         12    1    1    2    0    0 -0.60076261927E+00 -0.98633299542E+00 -0.24456504288E+00  0.11805001325E+01  0.00000000000E+00 0. -1.
         11    1    3    3    0    0 -0.15061330737E+02 -0.12470658634E+02 -0.11697102174E+02  0.22785592156E+02  0.51100000000E-03 0. -1.
        -11    1    3    3    0    0  0.30955911976E+02 -0.88985934770E+01 -0.84713188671E+01  0.33304904980E+02  0.51100000000E-03 0.  1.
         12    1    3    3    0    0 -0.15293818620E+02  0.22355585107E+02  0.20412986084E+02  0.33917002731E+02  0.00000000000E+00 0. -1.
</event>
<event>
 7    1  0.1935465E-015  0.9000775E+02  0.7816164E-02  0.1186339E+00
        -11   -1    0    0    0    0  0.00000000000E+00  0.00000000000E+00  0.45593999997E+02  0.45594000000E+02  0.51100000000E-03 0.  1.
         11   -1    0    0    0    0 -0.00000000000E+00 -0.00000000000E+00 -0.45593999997E+02  0.45594000000E+02  0.51100000000E-03 0. -1.
    9900012    2    1    2    0    0 -0.71246488413E+00  0.38314292817E+00  0.85941066695E+00  0.90007749430E+02  0.90000010922E+02 0.  0.
         12    1    1    2    0    0  0.71246488413E+00 -0.38314292817E+00 -0.85941066695E+00  0.11802505704E+01  0.00000000000E+00 0. -1.
         11    1    3    3    0    0  0.33328374584E+02  0.20237822755E+02  0.84101199869E+00  0.39000734913E+02  0.51100000000E-03 0. -1.
        -11    1    3    3    0    0 -0.11067908315E+01  0.53333141637E+01 -0.70894216525E+01  0.89403090294E+01  0.51100000000E-03 0.  1.
        -12    1    3    3    0    0 -0.32934048637E+02 -0.25187993990E+02  0.71078203207E+01  0.42066705488E+02  0.00000000000E+00 0.  1.
</event>
<event>
 7    1  0.1935465E-015  0.9000779E+02  0.7816164E-02  0.1186339E+00
        -11   -1    0    0    0    0  0.00000000000E+00  0.00000000000E+00  0.45593999997E+02  0.45594000000E+02  0.51100000000E-03 0.  1.
         11   -1    0    0    0    0 -0.00000000000E+00 -0.00000000000E+00 -0.45593999997E+02  0.45594000000E+02  0.51100000000E-03 0. -1.
    9900012    2    1    2    0    0 -0.91325222203E+00  0.20070665789E-01  0.74730628876E+00  0.90007788518E+02  0.90000050527E+02 0.  0.
         12    1    1    2    0    0  0.91325222203E+00 -0.20070665789E-01 -0.74730628876E+00  0.11802114819E+01  0.00000000000E+00 0. -1.
         11    1    3    3    0    0 -0.14856450737E+02  0.18932081843E+02  0.35696555376E+02  0.43050922376E+02  0.51100000000E-03 0. -1.
        -11    1    3    3    0    0 -0.14770741054E+01 -0.98292968789E+01 -0.30790041875E+01  0.10405627905E+02  0.51100000000E-03 0.  1.
        -12    1    3    3    0    0  0.15420272621E+02 -0.90827142979E+01 -0.31870244900E+02  0.36551238238E+02  0.00000000000E+00 0.  1.
</event>
<event>
 7    1  0.1935465E-015  0.9000781E+02  0.7816164E-02  0.1186339E+00
        -11   -1    0    0    0    0  0.00000000000E+00  0.00000000000E+00  0.45593999997E+02  0.45594000000E+02  0.51100000000E-03 0.  1.
         11   -1    0    0    0    0 -0.00000000000E+00 -0.00000000000E+00 -0.45593999997E+02  0.45594000000E+02  0.51100000000E-03 0. -1.
    9900012    2    1    2    0    0 -0.46235500522E+00 -0.65831625792E-01  0.10838571361E+01  0.90007808386E+02  0.90000070657E+02 0.  0.
         12    1    1    2    0    0  0.46235500522E+00  0.65831625792E-01 -0.10838571361E+01  0.11801916138E+01  0.00000000000E+00 0. -1.
         11    1    3    3    0    0  0.38092541348E+02 -0.92123952773E+01  0.19194128331E+01  0.39237661487E+02  0.51100000000E-03 0. -1.
        -11    1    3    3    0    0  0.19482785896E+01 -0.50284557658E+01  0.51330217988E+01  0.74450701742E+01  0.51100000000E-03 0.  1.
        -12    1    3    3    0    0 -0.40503174943E+02  0.14175019417E+02 -0.59685774958E+01  0.43325076725E+02  0.00000000000E+00 0.  1.
</event>
<event>
 7    1  0.1935465E-015  0.9000771E+02  0.7816164E-02  0.1186339E+00
        -11   -1    0    0    0    0  0.00000000000E+00  0.00000000000E+00  0.45593999997E+02  0.45594000000E+02  0.51100000000E-03 0.  1.
         11   -1    0    0    0    0 -0.00000000000E+00 -0.00000000000E+00 -0.45593999997E+02  0.45594000000E+02  0.51100000000E-03 0. -1.
    9900012    2    1    2    0    0  0.46624812945E+00 -0.73343467221E+00  0.79861285366E+00  0.90007705026E+02  0.89999965932E+02 0.  0.
         12    1    1    2    0    0 -0.46624812945E+00  0.73343467221E+00 -0.79861285366E+00  0.11802949744E+01  0.00000000000E+00 0. -1.
         11    1    3    3    0    0 -0.15100907341E+02  0.29508769849E+02 -0.21128374331E+02  0.39309198703E+02  0.51100000000E-03 0. -1.
        -11    1    3    3    0    0  0.69001483758E+01  0.55245527370E+01  0.31547120867E+01  0.93853577003E+01  0.51100000000E-03 0.  1.
        -12    1    3    3    0    0  0.86670070942E+01 -0.35766757258E+02  0.18772275098E+02  0.41313148622E+02  0.00000000000E+00 0.  1.
</event>
<event>
 7    1  0.1935465E-015  0.9000809E+02  0.7816164E-02  0.1186338E+00
        -11   -1    0    0    0    0  0.00000000000E+00  0.00000000000E+00  0.45593999997E+02  0.45594000000E+02  0.51100000000E-03 0.  1.
         11   -1    0    0    0    0 -0.00000000000E+00 -0.00000000000E+00 -0.45593999997E+02  0.45594000000E+02  0.51100000000E-03 0. -1.
    9900012    2    1    2    0    0 -0.24999171218E+00 -0.13723162789E-01  0.11530410232E+01  0.90008089926E+02  0.90000355912E+02 0.  0.
         12    1    1    2    0    0  0.24999171218E+00  0.13723162789E-01 -0.11530410232E+01  0.11799100739E+01  0.00000000000E+00 0. -1.
         11    1    3    3    0    0 -0.43556527707E+01  0.33807530275E+02 -0.20869937723E+02  0.39968426479E+02  0.51100000000E-03 0. -1.
        -11    1    3    3    0    0 -0.92109642448E+01 -0.16550147056E+01  0.11014997348E+01  0.94230694533E+01  0.51100000000E-03 0.  1.
        -12    1    3    3    0    0  0.13316625303E+02 -0.32166238732E+02  0.20921479012E+02  0.40616593994E+02  0.00000000000E+00 0.  1.
</event>
<event>
 7    1  0.1935465E-015  0.9000774E+02  0.7816164E-02  0.1186339E+00
        -11   -1    0    0    0    0  0.00000000000E+00  0.00000000000E+00  0.45593999997E+02  0.45594000000E+02  0.51100000000E-03 0.  1.
         11   -1    0    0    0    0 -0.00000000000E+00 -0.00000000000E+00 -0.45593999997E+02  0.45594000000E+02  0.51100000000E-03 0. -1.
    9900012    2    1    2    0    0 -0.10678341585E+01  0.10585305822E+00  0.49145731632E+00  0.90007743692E+02  0.90000005108E+02 0.  0.
         12    1    1    2    0    0  0.10678341585E+01 -0.10585305822E+00 -0.49145731632E+00  0.11802563085E+01  0.00000000000E+00 0. -1.
         11    1    3    3    0    0  0.47120775382E+01  0.84137084200E+01  0.11765002545E+01  0.97148503443E+01  0.51100000000E-03 0. -1.
        -11    1    3    3    0    0  0.25625135872E+02  0.22966279884E+02  0.75098693230E+01  0.35220672022E+02  0.51100000000E-03 0.  1.
         12    1    3    3    0    0 -0.31405047569E+02 -0.31274135246E+02 -0.81949122611E+01  0.45072221325E+02  0.00000000000E+00 0. -1.
</event>
<event>
 7    1  0.1935465E-015  0.9000781E+02  0.7816164E-02  0.1186339E+00
        -11   -1    0    0    0    0  0.00000000000E+00  0.00000000000E+00  0.45593999997E+02  0.45594000000E+02  0.51100000000E-03 0. -1.
         11   -1    0    0    0    0 -0.00000000000E+00 -0.00000000000E+00 -0.45593999997E+02  0.45594000000E+02  0.51100000000E-03 0.  1.
    9900012    2    1    2    0    0 -0.61343696093E+00  0.37474736149E+00 -0.93600186857E+00  0.90007813579E+02  0.90000075918E+02 0.  0.
         12    1    1    2    0    0  0.61343696093E+00 -0.37474736149E+00  0.93600186857E+00  0.11801864208E+01  0.00000000000E+00 0. -1.
         11    1    3    3    0    0 -0.40210951395E+01 -0.60408932921E+01 -0.29873017803E+01  0.78476474229E+01  0.51100000000E-03 0. -1.
        -11    1    3    3    0    0 -0.43945789558E+01  0.15209426061E+02 -0.37603063737E+02  0.40799869705E+02  0.51100000000E-03 0.  1.
         12    1    3    3    0    0  0.78022371344E+01 -0.87937854075E+01  0.39654363649E+02  0.41360296451E+02  0.00000000000E+00 0. -1.
</event>
<event>
 7    1  0.1935465E-015  0.9000745E+02  0.7816164E-02  0.1186340E+00
        -11   -1    0    0    0    0  0.00000000000E+00  0.00000000000E+00  0.45593999997E+02  0.45594000000E+02  0.51100000000E-03 0. -1.
         11   -1    0    0    0    0 -0.00000000000E+00 -0.00000000000E+00 -0.45593999997E+02  0.45594000000E+02  0.51100000000E-03 0.  1.
    9900012    2    1    2    0    0 -0.10405221473E+01  0.27004210565E+00 -0.48795134382E+00  0.90007446913E+02  0.89999704412E+02 0.  0.
         12    1    1    2    0    0  0.10405221473E+01 -0.27004210565E+00  0.48795134382E+00  0.11805530872E+01  0.00000000000E+00 0. -1.
         11    1    3    3    0    0 -0.43910755639E+02 -0.18662847643E+01  0.10670909650E+02  0.45227268241E+02  0.51100000000E-03 0. -1.
        -11    1    3    3    0    0  0.89983677319E+01 -0.18161917594E+01 -0.35330667031E+01  0.98362459777E+01  0.51100000000E-03 0.  1.
        -12    1    3    3    0    0  0.33871865759E+02  0.39525186293E+01 -0.76257942902E+01  0.34943932694E+02  0.00000000000E+00 0.  1.
</event>
<event>
 7    1  0.1935465E-015  0.9000814E+02  0.7816164E-02  0.1186338E+00
        -11   -1    0    0    0    0  0.00000000000E+00  0.00000000000E+00  0.45593999997E+02  0.45594000000E+02  0.51100000000E-03 0.  1.
         11   -1    0    0    0    0 -0.00000000000E+00 -0.00000000000E+00 -0.45593999997E+02  0.45594000000E+02  0.51100000000E-03 0. -1.
    9900012    2    1    2    0    0 -0.47376673998E-01  0.14134636378E+00  0.11704054491E+01  0.90008138881E+02  0.90000405514E+02 0.  0.
         12    1    1    2    0    0  0.47376673998E-01 -0.14134636378E+00 -0.11704054491E+01  0.11798611185E+01  0.00000000000E+00 0. -1.
         11    1    3    3    0    0  0.31794820079E+02  0.23350302627E+02 -0.32881175475E+01  0.39584832119E+02  0.51100000000E-03 0. -1.
        -11    1    3    3    0    0 -0.35071791047E+01  0.66978633522E+01  0.52719052588E+01  0.92170854437E+01  0.51100000000E-03 0.  1.
        -12    1    3    3    0    0 -0.28335017648E+02 -0.29906819616E+02 -0.81338226223E+00  0.41206221319E+02  0.00000000000E+00 0.  1.
</event>
<event>
 7    1  0.1935465E-015  0.9000775E+02  0.7816164E-02  0.1186339E+00
        -11   -1    0    0    0    0  0.00000000000E+00  0.00000000000E+00  0.45593999997E+02  0.45594000000E+02  0.51100000000E-03 0. -1.
         11   -1    0    0    0    0 -0.00000000000E+00 -0.00000000000E+00 -0.45593999997E+02  0.45594000000E+02  0.51100000000E-03 0.  1.
    9900012    2    1    2    0    0 -0.21238488188E+00  0.45792436565E+00 -0.10668566797E+01  0.90007752044E+02  0.90000013571E+02 0.  0.
         12    1    1    2    0    0  0.21238488188E+00 -0.45792436565E+00  0.10668566797E+01  0.11802479560E+01  0.00000000000E+00 0. -1.
         11    1    3    3    0    0 -0.87525189120E+01  0.31838364045E+02  0.22471457017E+02  0.39940635863E+02  0.51100000000E-03 0. -1.
        -11    1    3    3    0    0  0.71274810344E+01 -0.37496246253E+01  0.56593595712E+01  0.98432221221E+01  0.51100000000E-03 0.  1.
        -12    1    3    3    0    0  0.14126529957E+01 -0.27630815054E+02 -0.29197673268E+02  0.40223894059E+02  0.00000000000E+00 0.  1.
</event>
<event>
 7    1  0.1935465E-015  0.9000767E+02  0.7816164E-02  0.1186339E+00
        -11   -1    0    0    0    0  0.00000000000E+00  0.00000000000E+00  0.45593999997E+02  0.45594000000E+02  0.51100000000E-03 0.  1.
         11   -1    0    0    0    0 -0.00000000000E+00 -0.00000000000E+00 -0.45593999997E+02  0.45594000000E+02  0.51100000000E-03 0. -1.
    9900012    2    1    2    0    0  0.10567227813E+01  0.30809275881E+00 -0.42612750060E+00  0.90007674269E+02  0.89999934769E+02 0.  0.
         12    1    1    2    0    0 -0.10567227813E+01 -0.30809275881E+00  0.42612750060E+00  0.11803257310E+01  0.00000000000E+00 0. -1.
         11    1    3    3    0    0 -0.23285475684E+02 -0.21714890440E+02 -0.60395796735E+01  0.32407196231E+02  0.51100000000E-03 0. -1.
        -11    1    3    3    0    0 -0.11470892643E+02 -0.41953110143E+01 -0.25349406893E+01  0.12474291045E+02  0.51100000000E-03 0.  1.
        -12    1    3    3    0    0  0.35813091108E+02  0.26218294214E+02  0.81483928623E+01  0.45126186992E+02  0.00000000000E+00 0.  1.
</event>
<event>
 7    1  0.1935465E-015  0.9000780E+02  0.7816164E-02  0.1186339E+00
        -11   -1    0    0    0    0  0.00000000000E+00  0.00000000000E+00  0.45593999997E+02  0.45594000000E+02  0.51100000000E-03 0. -1.
         11   -1    0    0    0    0 -0.00000000000E+00 -0.00000000000E+00 -0.45593999997E+02  0.45594000000E+02  0.51100000000E-03 0.  1.
    9900012    2    1    2    0    0  0.10097452994E+01  0.55824357371E+00 -0.24828306076E+00  0.90007802586E+02  0.90000064780E+02 0.  0.
         12    1    1    2    0    0 -0.10097452994E+01 -0.55824357371E+00  0.24828306076E+00  0.11801974137E+01  0.00000000000E+00 0. -1.
         11    1    3    3    0    0  0.39893805695E+01  0.73769480097E+01  0.59802765093E+01  0.10300399344E+02  0.51100000000E-03 0. -1.
        -11    1    3    3    0    0 -0.18993131954E+02 -0.61520695964E+01  0.32303463732E+02  0.37975002187E+02  0.51100000000E-03 0.  1.
         12    1    3    3    0    0  0.16013496684E+02 -0.66663483954E+00 -0.38532023302E+02  0.41732401055E+02  0.00000000000E+00 0. -1.
</event>
<event>
 7    1  0.1935465E-015  0.9000866E+02  0.7816164E-02  0.1186337E+00
        -11   -1    0    0    0    0  0.00000000000E+00  0.00000000000E+00  0.45593999997E+02  0.45594000000E+02  0.51100000000E-03 0. -1.
         11   -1    0    0    0    0 -0.00000000000E+00 -0.00000000000E+00 -0.45593999997E+02  0.45594000000E+02  0.51100000000E-03 0.  1.
    9900012    2    1    2    0    0 -0.94286222416E+00  0.67031687076E+00  0.22917693589E+00  0.90008662920E+02  0.90000936465E+02 0.  0.
         12    1    1    2    0    0  0.94286222416E+00 -0.67031687076E+00 -0.22917693589E+00  0.11793370803E+01  0.00000000000E+00 0. -1.
         11    1    3    3    0    0 -0.80819231774E+01 -0.12555047606E+01  0.50241623771E+01  0.95987489967E+01  0.51100000000E-03 0. -1.
        -11    1    3    3    0    0 -0.35636123402E+02 -0.40917002666E+01 -0.90796495295E+01  0.37001558589E+02  0.51100000000E-03 0.  1.
         12    1    3    3    0    0  0.42775184355E+02  0.60175218981E+01  0.42846640883E+01  0.43408355334E+02  0.00000000000E+00 0. -1.
</event>
<event>
 7    1  0.1935465E-015  0.9000777E+02  0.7816164E-02  0.1186339E+00
        -11   -1    0    0    0    0  0.00000000000E+00  0.00000000000E+00  0.45593999997E+02  0.45594000000E+02  0.51100000000E-03 0.  1.
         11   -1    0    0    0    0 -0.00000000000E+00 -0.00000000000E+00 -0.45593999997E+02  0.45594000000E+02  0.51100000000E-03 0. -1.
    9900012    2    1    2    0    0  0.11384691103E+01  0.19033423786E+00  0.24616147335E+00  0.90007773535E+02  0.90000035346E+02 0.  0.
         12    1    1    2    0    0 -0.11384691103E+01 -0.19033423786E+00 -0.24616147335E+00  0.11802264647E+01  0.00000000000E+00 0. -1.
         11    1    3    3    0    0 -0.78058536630E+01  0.26529543871E+01 -0.29539044046E+01  0.87575721454E+01  0.51100000000E-03 0. -1.
        -11    1    3    3    0    0 -0.62023750480E+01 -0.83291720120E+01  0.39840002028E+02  0.41171231758E+02  0.51100000000E-03 0.  1.
         12    1    3    3    0    0  0.15146697821E+02  0.58665518628E+01 -0.36639936150E+02  0.40078969632E+02  0.00000000000E+00 0. -1.
</event>
<event>
 7    1  0.1935465E-015  0.9000773E+02  0.7816164E-02  0.1186339E+00
        -11   -1    0    0    0    0  0.00000000000E+00  0.00000000000E+00  0.45593999997E+02  0.45594000000E+02  0.51100000000E-03 0.  1.
         11   -1    0    0    0    0 -0.00000000000E+00 -0.00000000000E+00 -0.45593999997E+02  0.45594000000E+02  0.51100000000E-03 0. -1.
    9900012    2    1    2    0    0 -0.79341107827E+00  0.66297476032E+00  0.56920440371E+00  0.90007732943E+02  0.89999994218E+02 0.  0.
         12    1    1    2    0    0  0.79341107827E+00 -0.66297476032E+00 -0.56920440371E+00  0.11802670567E+01  0.00000000000E+00 0. -1.
         11    1    3    3    0    0 -0.61102858994E+01 -0.70549901212E+01  0.47080301087E+01  0.10453421791E+02  0.51100000000E-03 0. -1.
        -11    1    3    3    0    0 -0.35194463429E+00 -0.23598484109E+02  0.26424542210E+02  0.35429772064E+02  0.51100000000E-03 0.  1.
         12    1    3    3    0    0  0.56688194554E+01  0.31316448990E+02 -0.30563367915E+02  0.44124539088E+02  0.00000000000E+00 0. -1.
</event>
<event>
 7    1  0.1935465E-015  0.9000774E+02  0.7816164E-02  0.1186339E+00
        -11   -1    0    0    0    0  0.00000000000E+00  0.00000000000E+00  0.45593999997E+02  0.45594000000E+02  0.51100000000E-03 0.  1.
         11   -1    0    0    0    0 -0.00000000000E+00 -0.00000000000E+00 -0.45593999997E+02  0.45594000000E+02  0.51100000000E-03 0. -1.
    9900012    2    1    2    0    0  0.49921234698E+00 -0.20666083067E+00  0.10493339461E+01  0.90007735878E+02  0.89999997192E+02 0.  0.
         12    1    1    2    0    0 -0.49921234698E+00  0.20666083067E+00 -0.10493339461E+01  0.11802641216E+01  0.00000000000E+00 0. -1.
         11    1    3    3    0    0 -0.17701431421E+02 -0.16167231011E+02 -0.28557480519E+02  0.37286052712E+02  0.51100000000E-03 0. -1.
        -11    1    3    3    0    0 -0.47799146605E+01 -0.85872541238E+01  0.48124385938E+01  0.10942946725E+02  0.51100000000E-03 0.  1.
        -12    1    3    3    0    0  0.22980558429E+02  0.24547824305E+02  0.24794375872E+02  0.41778736442E+02  0.00000000000E+00 0.  1.
</event>
<event>
 7    1  0.1935465E-015  0.9000773E+02  0.7816164E-02  0.1186339E+00
        -11   -1    0    0    0    0  0.00000000000E+00  0.00000000000E+00  0.45593999997E+02  0.45594000000E+02  0.51100000000E-03 0. -1.
         11   -1    0    0    0    0 -0.00000000000E+00 -0.00000000000E+00 -0.45593999997E+02  0.45594000000E+02  0.51100000000E-03 0.  1.
    9900012    2    1    2    0    0 -0.74068097553E-01 -0.11027132133E+01 -0.41420604817E+00  0.90007733435E+02  0.89999994716E+02 0.  0.
         12    1    1    2    0    0  0.74068097553E-01  0.11027132133E+01  0.41420604817E+00  0.11802665649E+01  0.00000000000E+00 0. -1.
         11    1    3    3    0    0  0.30656736950E+02  0.18754168684E+01  0.22182614909E+02  0.37886951756E+02  0.51100000000E-03 0. -1.
        -11    1    3    3    0    0 -0.13546369280E-01  0.72101730448E+01  0.56534438880E+01  0.91623254088E+01  0.51100000000E-03 0.  1.
        -12    1    3    3    0    0 -0.30717258679E+02 -0.10188303126E+02 -0.28250264845E+02  0.42958456271E+02  0.00000000000E+00 0.  1.
</event>
<event>
 7    1  0.1935465E-015  0.9000771E+02  0.7816164E-02  0.1186339E+00
        -11   -1    0    0    0    0  0.00000000000E+00  0.00000000000E+00  0.45593999997E+02  0.45594000000E+02  0.51100000000E-03 0.  1.
         11   -1    0    0    0    0 -0.00000000000E+00 -0.00000000000E+00 -0.45593999997E+02  0.45594000000E+02  0.51100000000E-03 0. -1.
    9900012    2    1    2    0    0 -0.38171035202E+00 -0.22196424061E+00  0.10945877427E+01  0.90007706289E+02  0.89999967212E+02 0.  0.
         12    1    1    2    0    0  0.38171035202E+00  0.22196424061E+00 -0.10945877427E+01  0.11802937106E+01  0.00000000000E+00 0. -1.
         11    1    3    3    0    0  0.31786890166E+02 -0.62072066342E+01  0.14172661393E+02  0.35352512384E+02  0.51100000000E-03 0. -1.
        -11    1    3    3    0    0  0.63305914502E-01 -0.13278125244E+02  0.33108776252E+01  0.13684828408E+02  0.51100000000E-03 0.  1.
        -12    1    3    3    0    0 -0.32231906433E+02  0.19263367638E+02 -0.16388951276E+02  0.40970365497E+02  0.00000000000E+00 0.  1.
</event>
<event>
 7    1  0.1935465E-015  0.9000764E+02  0.7816164E-02  0.1186339E+00
        -11   -1    0    0    0    0  0.00000000000E+00  0.00000000000E+00  0.45593999997E+02  0.45594000000E+02  0.51100000000E-03 0.  1.
         11   -1    0    0    0    0 -0.00000000000E+00 -0.00000000000E+00 -0.45593999997E+02  0.45594000000E+02  0.51100000000E-03 0. -1.
    9900012    2    1    2    0    0 -0.98525688113E+00  0.44874289353E+00 -0.47027094055E+00  0.90007637317E+02  0.89999897329E+02 0.  0.
         12    1    1    2    0    0  0.98525688113E+00 -0.44874289353E+00  0.47027094055E+00  0.11803626832E+01  0.00000000000E+00 0. -1.
         11    1    3    3    0    0  0.66421750930E+01  0.60129377452E+01 -0.17554910732E+01  0.91299320623E+01  0.51100000000E-03 0. -1.
        -11    1    3    3    0    0  0.30106707873E+02  0.11415551268E+02  0.17247960533E+02  0.36526987455E+02  0.51100000000E-03 0.  1.
         12    1    3    3    0    0 -0.37734139847E+02 -0.16979746119E+02 -0.15962740400E+02  0.44350717800E+02  0.00000000000E+00 0. -1.
</event>
<event>
 7    1  0.1935465E-015  0.9000784E+02  0.7816164E-02  0.1186339E+00
        -11   -1    0    0    0    0  0.00000000000E+00  0.00000000000E+00  0.45593999997E+02  0.45594000000E+02  0.51100000000E-03 0. -1.
         11   -1    0    0    0    0 -0.00000000000E+00 -0.00000000000E+00 -0.45593999997E+02  0.45594000000E+02  0.51100000000E-03 0.  1.
    9900012    2    1    2    0    0 -0.29500724961E+00  0.30382067944E+00 -0.11015607079E+01  0.90007842267E+02  0.90000104984E+02 0.  0.
         12    1    1    2    0    0  0.29500724961E+00 -0.30382067944E+00  0.11015607079E+01  0.11801577334E+01  0.00000000000E+00 0. -1.
         11    1    3    3    0    0 -0.23242399227E+02 -0.53009988568E+01  0.25922177425E+02  0.35217452966E+02  0.51100000000E-03 0. -1.
        -11    1    3    3    0    0 -0.26587151630E+01 -0.22509554416E+01  0.91438996704E+01  0.97850124252E+01  0.51100000000E-03 0.  1.
        -12    1    3    3    0    0  0.25606107141E+02  0.78557749778E+01 -0.36167637803E+02  0.45005376875E+02  0.00000000000E+00 0.  1.
</event>
<event>
 7    1  0.1935465E-015  0.9000772E+02  0.7816164E-02  0.1186339E+00
        -11   -1    0    0    0    0  0.00000000000E+00  0.00000000000E+00  0.45593999997E+02  0.45594000000E+02  0.51100000000E-03 0. -1.
         11   -1    0    0    0    0 -0.00000000000E+00 -0.00000000000E+00 -0.45593999997E+02  0.45594000000E+02  0.51100000000E-03 0.  1.
    9900012    2    1    2    0    0  0.40273832276E+00  0.10435044936E+01  0.37677203074E+00  0.90007721665E+02  0.89999982791E+02 0.  0.
         12    1    1    2    0    0 -0.40273832276E+00 -0.10435044936E+01 -0.37677203074E+00  0.11802783349E+01  0.00000000000E+00 0. -1.
         11    1    3    3    0    0  0.27799117164E+01  0.30088164575E+01  0.87944162481E+01  0.97016824846E+01  0.51100000000E-03 0. -1.
        -11    1    3    3    0    0  0.12899868406E+01 -0.40815912260E+02 -0.38990481367E+01  0.41022010389E+02  0.51100000000E-03 0.  1.
         12    1    3    3    0    0 -0.36671602342E+01  0.38850600296E+02 -0.45185960806E+01  0.39284028792E+02  0.00000000000E+00 0. -1.
</event>
<event>
 7    1  0.1935465E-015  0.9000776E+02  0.7816164E-02  0.1186339E+00
        -11   -1    0    0    0    0  0.00000000000E+00  0.00000000000E+00  0.45593999997E+02  0.45594000000E+02  0.51100000000E-03 0. -1.
         11   -1    0    0    0    0 -0.00000000000E+00 -0.00000000000E+00 -0.45593999997E+02  0.45594000000E+02  0.51100000000E-03 0.  1.
    9900012    2    1    2    0    0  0.11131451893E+01  0.14997905028E+00  0.36247996031E+00  0.90007755259E+02  0.90000016828E+02 0.  0.
         12    1    1    2    0    0 -0.11131451893E+01 -0.14997905028E+00 -0.36247996031E+00  0.11802447414E+01  0.00000000000E+00 0. -1.
         11    1    3    3    0    0 -0.31335382134E+02  0.22314794191E+02 -0.17763671505E+02  0.42372210691E+02  0.51100000000E-03 0. -1.
        -11    1    3    3    0    0 -0.68595445635E+00 -0.51679647744E+01  0.70798086543E+01  0.87921603869E+01  0.51100000000E-03 0.  1.
        -12    1    3    3    0    0  0.33134481779E+02 -0.16996850366E+02  0.11046342811E+02  0.38843384181E+02  0.00000000000E+00 0.  1.
</event>
<event>
 7    1  0.1935465E-015  0.9000767E+02  0.7816164E-02  0.1186339E+00
        -11   -1    0    0    0    0  0.00000000000E+00  0.00000000000E+00  0.45593999997E+02  0.45594000000E+02  0.51100000000E-03 0.  1.
         11   -1    0    0    0    0 -0.00000000000E+00 -0.00000000000E+00 -0.45593999997E+02  0.45594000000E+02  0.51100000000E-03 0. -1.
    9900012    2    1    2    0    0 -0.96881547711E+00  0.58604930512E-01  0.67166520488E+00  0.90007672878E+02  0.89999933360E+02 0.  0.
         12    1    1    2    0    0  0.96881547711E+00 -0.58604930512E-01 -0.67166520488E+00  0.11803271216E+01  0.00000000000E+00 0. -1.
         11    1    3    3    0    0  0.47163127125E+01  0.10750691526E+02 -0.36587684596E+02  0.38424987160E+02  0.51100000000E-03 0. -1.
        -11    1    3    3    0    0  0.13499852107E+01  0.97018571374E+01  0.16284748916E+01  0.99297745552E+01  0.51100000000E-03 0.  1.
        -12    1    3    3    0    0 -0.70351134002E+01 -0.20393943733E+02  0.35630874909E+02  0.41652911163E+02  0.00000000000E+00 0.  1.
</event>
<event>
 7    1  0.1935465E-015  0.9000812E+02  0.7816164E-02  0.1186338E+00
        -11   -1    0    0    0    0  0.00000000000E+00  0.00000000000E+00  0.45593999997E+02  0.45594000000E+02  0.51100000000E-03 0. -1.
         11   -1    0    0    0    0 -0.00000000000E+00 -0.00000000000E+00 -0.45593999997E+02  0.45594000000E+02  0.51100000000E-03 0.  1.
    9900012    2    1    2    0    0 -0.64663239797E+00 -0.77769810366E+00 -0.60759654618E+00  0.90008118073E+02  0.90000384431E+02 0.  0.
         12    1    1    2    0    0  0.64663239797E+00  0.77769810366E+00  0.60759654618E+00  0.11798819269E+01  0.00000000000E+00 0. -1.
         11    1    3    3    0    0 -0.47287071028E+01 -0.73355556293E+01 -0.13307507811E+01  0.88284735463E+01  0.51100000000E-03 0. -1.
        -11    1    3    3    0    0 -0.24904784709E+02 -0.24916613619E+02 -0.10834425878E+02  0.36857437784E+02  0.51100000000E-03 0.  1.
         12    1    3    3    0    0  0.28986859414E+02  0.31474471144E+02  0.11557580113E+02  0.44322206743E+02  0.00000000000E+00 0. -1.
</event>
<event>
 7    1  0.1935465E-015  0.9000771E+02  0.7816164E-02  0.1186339E+00
        -11   -1    0    0    0    0  0.00000000000E+00  0.00000000000E+00  0.45593999997E+02  0.45594000000E+02  0.51100000000E-03 0. -1.
         11   -1    0    0    0    0 -0.00000000000E+00 -0.00000000000E+00 -0.45593999997E+02  0.45594000000E+02  0.51100000000E-03 0.  1.
    9900012    2    1    2    0    0  0.10987374581E+01  0.42947383708E+00 -0.37510222231E-01  0.90007712410E+02  0.89999973414E+02 0.  0.
         12    1    1    2    0    0 -0.10987374581E+01 -0.42947383708E+00  0.37510222231E-01  0.11802875901E+01  0.00000000000E+00 0. -1.
         11    1    3    3    0    0 -0.79483328347E+01  0.13959527545E+01 -0.50238079412E+01  0.95059626254E+01  0.51100000000E-03 0. -1.
        -11    1    3    3    0    0  0.61040516169E+01  0.22058691794E+02 -0.30478718329E+02  0.38115582129E+02  0.51100000000E-03 0.  1.
         12    1    3    3    0    0  0.29430186759E+01 -0.23025170711E+02  0.35465016048E+02  0.42386167655E+02  0.00000000000E+00 0. -1.
</event>
<event>
 7    1  0.1935465E-015  0.9000778E+02  0.7816164E-02  0.1186339E+00
        -11   -1    0    0    0    0  0.00000000000E+00  0.00000000000E+00  0.45593999997E+02  0.45594000000E+02  0.51100000000E-03 0. -1.
         11   -1    0    0    0    0 -0.00000000000E+00 -0.00000000000E+00 -0.45593999997E+02  0.45594000000E+02  0.51100000000E-03 0.  1.
    9900012    2    1    2    0    0  0.84883775750E+00 -0.26983600148E+00 -0.77432575214E+00  0.90007780793E+02  0.90000042699E+02 0.  0.
         12    1    1    2    0    0 -0.84883775750E+00  0.26983600148E+00  0.77432575214E+00  0.11802192071E+01  0.00000000000E+00 0. -1.
         11    1    3    3    0    0  0.38640605762E+02  0.75620312942E+00 -0.62710300657E+01  0.39153468239E+02  0.51100000000E-03 0. -1.
        -11    1    3    3    0    0  0.94261372797E+00  0.94916755140E+01 -0.26484702431E+01  0.98992332831E+01  0.51100000000E-03 0.  1.
        -12    1    3    3    0    0 -0.38734381732E+02 -0.10517714645E+02  0.81451745567E+01  0.40955079271E+02  0.00000000000E+00 0.  1.
</event>
<event>
 7    1  0.1935465E-015  0.9000778E+02  0.7816164E-02  0.1186339E+00
        -11   -1    0    0    0    0  0.00000000000E+00  0.00000000000E+00  0.45593999997E+02  0.45594000000E+02  0.51100000000E-03 0.  1.
         11   -1    0    0    0    0 -0.00000000000E+00 -0.00000000000E+00 -0.45593999997E+02  0.45594000000E+02  0.51100000000E-03 0. -1.
    9900012    2    1    2    0    0 -0.20236094707E+00  0.11627420151E+01 -0.47359196939E-03  0.90007780033E+02  0.90000041929E+02 0.  0.
         12    1    1    2    0    0  0.20236094707E+00 -0.11627420151E+01  0.47359196939E-03  0.11802199671E+01  0.00000000000E+00 0. -1.
         11    1    3    3    0    0  0.12602282637E+02  0.83957831291E+01 -0.34892811427E+02  0.38037021329E+02  0.51100000000E-03 0. -1.
        -11    1    3    3    0    0 -0.25222836439E+01  0.88626413344E+01 -0.28715379898E+01  0.96516349336E+01  0.51100000000E-03 0.  1.
        -12    1    3    3    0    0 -0.10282359940E+02 -0.16095682448E+02  0.37763875825E+02  0.42319123771E+02  0.00000000000E+00 0.  1.
</event>
<event>
 7    1  0.1935465E-015  0.9000772E+02  0.7816164E-02  0.1186339E+00
        -11   -1    0    0    0    0  0.00000000000E+00  0.00000000000E+00  0.45593999997E+02  0.45594000000E+02  0.51100000000E-03 0.  1.
         11   -1    0    0    0    0 -0.00000000000E+00 -0.00000000000E+00 -0.45593999997E+02  0.45594000000E+02  0.51100000000E-03 0. -1.
    9900012    2    1    2    0    0  0.95968955464E+00 -0.56534816521E+00  0.39044352764E+00  0.90007716671E+02  0.89999977731E+02 0.  0.
         12    1    1    2    0    0 -0.95968955464E+00  0.56534816521E+00 -0.39044352764E+00  0.11802833293E+01  0.00000000000E+00 0. -1.
         11    1    3    3    0    0 -0.18654597218E+01 -0.16590084138E+01  0.93108793289E+01  0.96397470418E+01  0.51100000000E-03 0. -1.
        -11    1    3    3    0    0  0.36570179861E+02  0.64646110524E+01  0.13482557330E+02  0.39508842094E+02  0.51100000000E-03 0.  1.
         12    1    3    3    0    0 -0.33745030585E+02 -0.53709508038E+01 -0.22402993131E+02  0.40859127535E+02  0.00000000000E+00 0. -1.
</event>
<event>
 7    1  0.1935465E-015  0.9000778E+02  0.7816164E-02  0.1186339E+00
        -11   -1    0    0    0    0  0.00000000000E+00  0.00000000000E+00  0.45593999997E+02  0.45594000000E+02  0.51100000000E-03 0. -1.
         11   -1    0    0    0    0 -0.00000000000E+00 -0.00000000000E+00 -0.45593999997E+02  0.45594000000E+02  0.51100000000E-03 0.  1.
    9900012    2    1    2    0    0  0.18599515169E+00  0.30994203781E+00 -0.11235038787E+01  0.90007780008E+02  0.90000041904E+02 0.  0.
         12    1    1    2    0    0 -0.18599515169E+00 -0.30994203781E+00  0.11235038787E+01  0.11802199917E+01  0.00000000000E+00 0. -1.
         11    1    3    3    0    0  0.19644178940E+02  0.21196454828E+01  0.28429464077E+02  0.34621107596E+02  0.51100000000E-03 0. -1.
        -11    1    3    3    0    0  0.21146508500E+01 -0.12731873563E+01  0.10016102911E+02  0.10315768127E+02  0.51100000000E-03 0.  1.
        -12    1    3    3    0    0 -0.21572834638E+02 -0.53651608864E+00 -0.39569070867E+02  0.45070904285E+02  0.00000000000E+00 0.  1.
</event>
<event>
 7    1  0.1937919E-015  0.9000773E+02  0.7816164E-02  0.1186339E+00
        -11   -1    0    0    0    0  0.00000000000E+00  0.00000000000E+00  0.45593999997E+02  0.45594000000E+02  0.51100000000E-03 0. -1.
         11   -1    0    0    0    0 -0.00000000000E+00 -0.00000000000E+00 -0.45593999997E+02  0.45594000000E+02  0.51100000000E-03 0.  1.
    9900012    2    1    2    0    0  0.11422476648E+01  0.20294721799E+00  0.21707648907E+00  0.90007729055E+02  0.89999990279E+02 0.  0.
         12    1    1    2    0    0 -0.11422476648E+01 -0.20294721799E+00 -0.21707648907E+00  0.11802709448E+01  0.00000000000E+00 0. -1.
         11    1    3    3    0    0 -0.35125575740E+00 -0.83911654558E+01  0.49983653698E+01  0.97733666126E+01  0.51100000000E-03 0. -1.
        -11    1    3    3    0    0  0.27758628880E+02 -0.46404896514E+01 -0.30257905559E+02  0.41323316307E+02  0.51100000000E-03 0.  1.
         12    1    3    3    0    0 -0.26265125458E+02  0.13234602325E+02  0.25476616678E+02  0.38911046136E+02  0.00000000000E+00 0. -1.
</event>
<event>
 7    1  0.1935465E-015  0.9000759E+02  0.7816164E-02  0.1186339E+00
        -11   -1    0    0    0    0  0.00000000000E+00  0.00000000000E+00  0.45593999997E+02  0.45594000000E+02  0.51100000000E-03 0.  1.
         11   -1    0    0    0    0 -0.00000000000E+00 -0.00000000000E+00 -0.45593999997E+02  0.45594000000E+02  0.51100000000E-03 0. -1.
    9900012    2    1    2    0    0  0.41513218357E+00 -0.13025714471E+00  0.10973045344E+01  0.90007585287E+02  0.89999844613E+02 0.  0.
         12    1    1    2    0    0 -0.41513218357E+00  0.13025714471E+00 -0.10973045344E+01  0.11804147131E+01  0.00000000000E+00 0. -1.
         11    1    3    3    0    0  0.24197332041E+01  0.64507087654E+01 -0.30473711390E+01  0.75334735331E+01  0.51100000000E-03 0. -1.
        -11    1    3    3    0    0 -0.34367648099E+02  0.11080836988E+02  0.21176703842E+02  0.41861354136E+02  0.51100000000E-03 0.  1.
         12    1    3    3    0    0  0.32363047078E+02 -0.17661802898E+02 -0.17032028168E+02  0.40612757618E+02  0.00000000000E+00 0. -1.
</event>
<event>
 7    1  0.1935465E-015  0.9000789E+02  0.7816164E-02  0.1186339E+00
        -11   -1    0    0    0    0  0.00000000000E+00  0.00000000000E+00  0.45593999997E+02  0.45594000000E+02  0.51100000000E-03 0. -1.
         11   -1    0    0    0    0 -0.00000000000E+00 -0.00000000000E+00 -0.45593999997E+02  0.45594000000E+02  0.51100000000E-03 0.  1.
    9900012    2    1    2    0    0  0.22719995912E+00  0.80846559778E-01 -0.11552118483E+01  0.90007885428E+02  0.90000148716E+02 0.  0.
         12    1    1    2    0    0 -0.22719995912E+00 -0.80846559778E-01  0.11552118483E+01  0.11801145716E+01  0.00000000000E+00 0. -1.
         11    1    3    3    0    0 -0.38866300334E+02 -0.72179100587E+01  0.13012028006E+02  0.41617308904E+02  0.51100000000E-03 0. -1.
        -11    1    3    3    0    0  0.53659756114E+00  0.76600595411E+01 -0.16808102662E+01  0.78606343592E+01  0.51100000000E-03 0.  1.
        -12    1    3    3    0    0  0.38556902732E+02 -0.36130292264E+00 -0.12486429589E+02  0.40529942166E+02  0.00000000000E+00 0.  1.
</event>
<event>
 7    1  0.1935465E-015  0.9000783E+02  0.7816164E-02  0.1186339E+00
        -11   -1    0    0    0    0  0.00000000000E+00  0.00000000000E+00  0.45593999997E+02  0.45594000000E+02  0.51100000000E-03 0. -1.
         11   -1    0    0    0    0 -0.00000000000E+00 -0.00000000000E+00 -0.45593999997E+02  0.45594000000E+02  0.51100000000E-03 0.  1.
    9900012    2    1    2    0    0 -0.85863048037E+00  0.71079506785E+00  0.38772600747E+00  0.90007827391E+02  0.90000089912E+02 0.  0.
         12    1    1    2    0    0  0.85863048037E+00 -0.71079506785E+00 -0.38772600747E+00  0.11801726091E+01  0.00000000000E+00 0. -1.
         11    1    3    3    0    0  0.12544053502E+01  0.85817802252E+01 -0.10764044778E+01  0.87395155173E+01  0.51100000000E-03 0. -1.
        -11    1    3    3    0    0  0.35459733891E+02 -0.21237053460E+02  0.20649569026E+01  0.41384407867E+02  0.51100000000E-03 0.  1.
         12    1    3    3    0    0 -0.37572769721E+02  0.13366068303E+02 -0.60082641734E+00  0.39883904006E+02  0.00000000000E+00 0. -1.
</event>
<event>
 7    1  0.1935465E-015  0.9000753E+02  0.7816164E-02  0.1186339E+00
        -11   -1    0    0    0    0  0.00000000000E+00  0.00000000000E+00  0.45593999997E+02  0.45594000000E+02  0.51100000000E-03 0. -1.
         11   -1    0    0    0    0 -0.00000000000E+00 -0.00000000000E+00 -0.45593999997E+02  0.45594000000E+02  0.51100000000E-03 0.  1.
    9900012    2    1    2    0    0  0.13574157728E+00 -0.50770779459E+00 -0.10570300378E+01  0.90007531669E+02  0.89999790286E+02 0.  0.
         12    1    1    2    0    0 -0.13574157728E+00  0.50770779459E+00  0.10570300378E+01  0.11804683313E+01  0.00000000000E+00 0. -1.
         11    1    3    3    0    0 -0.17105829655E+02 -0.14925859894E+01 -0.17542830670E+02  0.24547670547E+02  0.51100000000E-03 0. -1.
        -11    1    3    3    0    0 -0.19811455316E+02  0.20318688412E+01 -0.75309142247E+01  0.21291710172E+02  0.51100000000E-03 0.  1.
         12    1    3    3    0    0  0.37053026548E+02 -0.10469906463E+01  0.24016714857E+02  0.44168150950E+02  0.00000000000E+00 0. -1.
</event>
<event>
 7    1  0.1935465E-015  0.9000758E+02  0.7816164E-02  0.1186339E+00
        -11   -1    0    0    0    0  0.00000000000E+00  0.00000000000E+00  0.45593999997E+02  0.45594000000E+02  0.51100000000E-03 0.  1.
         11   -1    0    0    0    0 -0.00000000000E+00 -0.00000000000E+00 -0.45593999997E+02  0.45594000000E+02  0.51100000000E-03 0. -1.
    9900012    2    1    2    0    0  0.11209865237E+01 -0.61634381818E-01  0.36466857704E+00  0.90007579416E+02  0.89999838664E+02 0.  0.
         12    1    1    2    0    0 -0.11209865237E+01  0.61634381818E-01 -0.36466857704E+00  0.11804205837E+01  0.00000000000E+00 0. -1.
         11    1    3    3    0    0 -0.94945741471E+00 -0.17505071960E+01 -0.34903013776E+02  0.34959778543E+02  0.51100000000E-03 0. -1.
        -11    1    3    3    0    0  0.54850480124E+01  0.57098101128E+01 -0.81196742824E+01  0.11340934438E+02  0.51100000000E-03 0.  1.
        -12    1    3    3    0    0 -0.34146040740E+01 -0.40209372986E+01  0.43387356636E+02  0.43706866435E+02  0.00000000000E+00 0.  1.
</event>
<event>
 7    1  0.1935465E-015  0.9000771E+02  0.7816164E-02  0.1186339E+00
        -11   -1    0    0    0    0  0.00000000000E+00  0.00000000000E+00  0.45593999997E+02  0.45594000000E+02  0.51100000000E-03 0.  1.
         11   -1    0    0    0    0 -0.00000000000E+00 -0.00000000000E+00 -0.45593999997E+02  0.45594000000E+02  0.51100000000E-03 0. -1.
    9900012    2    1    2    0    0  0.84496942446E+00  0.38713280659E+00  0.72749549079E+00  0.90007705618E+02  0.89999966533E+02 0.  0.
         12    1    1    2    0    0 -0.84496942446E+00 -0.38713280659E+00 -0.72749549079E+00  0.11802943816E+01  0.00000000000E+00 0. -1.
         11    1    3    3    0    0 -0.30211283755E+01  0.28529546045E+01 -0.85075879249E+01  0.94681370500E+01  0.51100000000E-03 0. -1.
        -11    1    3    3    0    0  0.34901027644E+02  0.21096850965E+02  0.79667354896E+01  0.41552710211E+02  0.51100000000E-03 0.  1.
         12    1    3    3    0    0 -0.31034929844E+02 -0.23562672762E+02  0.12683479261E+01  0.38986858358E+02  0.00000000000E+00 0. -1.
</event>
<event>
 7    1  0.1935465E-015  0.9000770E+02  0.7816164E-02  0.1186339E+00
        -11   -1    0    0    0    0  0.00000000000E+00  0.00000000000E+00  0.45593999997E+02  0.45594000000E+02  0.51100000000E-03 0. -1.
         11   -1    0    0    0    0 -0.00000000000E+00 -0.00000000000E+00 -0.45593999997E+02  0.45594000000E+02  0.51100000000E-03 0.  1.
    9900012    2    1    2    0    0  0.22965552240E+00  0.11558884313E+01 -0.65423343841E-01  0.90007703453E+02  0.89999964339E+02 0.  0.
         12    1    1    2    0    0 -0.22965552240E+00 -0.11558884313E+01  0.65423343841E-01  0.11802965468E+01  0.00000000000E+00 0. -1.
         11    1    3    3    0    0 -0.30568490706E+02 -0.19942102851E+02  0.10146630148E+02  0.37882373128E+02  0.51100000000E-03 0. -1.
        -11    1    3    3    0    0 -0.39932050512E+00 -0.13448461115E+00  0.95277559533E+01  0.95370685613E+01  0.51100000000E-03 0.  1.
        -12    1    3    3    0    0  0.31197466734E+02  0.21232475894E+02 -0.19739809445E+02  0.42588261764E+02  0.00000000000E+00 0.  1.
</event>
<event>
 7    1  0.1935465E-015  0.9000780E+02  0.7816164E-02  0.1186339E+00
        -11   -1    0    0    0    0  0.00000000000E+00  0.00000000000E+00  0.45593999997E+02  0.45594000000E+02  0.51100000000E-03 0.  1.
         11   -1    0    0    0    0 -0.00000000000E+00 -0.00000000000E+00 -0.45593999997E+02  0.45594000000E+02  0.51100000000E-03 0. -1.
    9900012    2    1    2    0    0 -0.15800284052E+00  0.24563749980E+00  0.11434921191E+01  0.90007797939E+02  0.90000060072E+02 0.  0.
         12    1    1    2    0    0  0.15800284052E+00 -0.24563749980E+00 -0.11434921191E+01  0.11802020612E+01  0.00000000000E+00 0. -1.
         11    1    3    3    0    0  0.59576647403E+00  0.84881613862E+01  0.57872742430E+01  0.10290595942E+02  0.51100000000E-03 0. -1.
        -11    1    3    3    0    0  0.33867942675E+02  0.15660432473E+02 -0.49807407990E+01  0.37644315181E+02  0.51100000000E-03 0.  1.
         12    1    3    3    0    0 -0.34621711990E+02 -0.23902956360E+02  0.33695867505E+00  0.42072886816E+02  0.00000000000E+00 0. -1.
</event>
<event>
 7    1  0.1935465E-015  0.9000774E+02  0.7816164E-02  0.1186339E+00
        -11   -1    0    0    0    0  0.00000000000E+00  0.00000000000E+00  0.45593999997E+02  0.45594000000E+02  0.51100000000E-03 0. -1.
         11   -1    0    0    0    0 -0.00000000000E+00 -0.00000000000E+00 -0.45593999997E+02  0.45594000000E+02  0.51100000000E-03 0.  1.
    9900012    2    1    2    0    0 -0.96404023486E+00 -0.61036794871E+00 -0.30180628429E+00  0.90007741706E+02  0.90000003097E+02 0.  0.
         12    1    1    2    0    0  0.96404023486E+00  0.61036794871E+00  0.30180628429E+00  0.11802582940E+01  0.00000000000E+00 0. -1.
         11    1    3    3    0    0 -0.13860983133E+02  0.38015562450E+02 -0.15295559691E+01  0.40492584303E+02  0.51100000000E-03 0. -1.
        -11    1    3    3    0    0  0.10621475433E+02  0.93227582010E-01 -0.97605005634E+00  0.10666635164E+02  0.51100000000E-03 0.  1.
        -12    1    3    3    0    0  0.22754674658E+01 -0.38719157980E+02  0.22037997412E+01  0.38848522240E+02  0.00000000000E+00 0.  1.
</event>
<event>
 7    1  0.1935465E-015  0.9000768E+02  0.7816164E-02  0.1186339E+00
        -11   -1    0    0    0    0  0.00000000000E+00  0.00000000000E+00  0.45593999997E+02  0.45594000000E+02  0.51100000000E-03 0.  1.
         11   -1    0    0    0    0 -0.00000000000E+00 -0.00000000000E+00 -0.45593999997E+02  0.45594000000E+02  0.51100000000E-03 0. -1.
    9900012    2    1    2    0    0 -0.94449774939E+00 -0.70598256195E+00  0.51645399436E-01  0.90007680288E+02  0.89999940867E+02 0.  0.
         12    1    1    2    0    0  0.94449774939E+00  0.70598256195E+00 -0.51645399436E-01  0.11803197125E+01  0.00000000000E+00 0. -1.
         11    1    3    3    0    0  0.21876729020E+02 -0.14199298188E+02 -0.25521518191E+02  0.36490536207E+02  0.51100000000E-03 0. -1.
        -11    1    3    3    0    0  0.82425925597E+01 -0.67480285229E+00 -0.31998165952E+01  0.88676105857E+01  0.51100000000E-03 0.  1.
        -12    1    3    3    0    0 -0.31063819329E+02  0.14168118478E+02  0.28772980185E+02  0.44649533495E+02  0.00000000000E+00 0.  1.
</event>
<event>
 7    1  0.1935465E-015  0.9000776E+02  0.7816164E-02  0.1186339E+00
        -11   -1    0    0    0    0  0.00000000000E+00  0.00000000000E+00  0.45593999997E+02  0.45594000000E+02  0.51100000000E-03 0. -1.
         11   -1    0    0    0    0 -0.00000000000E+00 -0.00000000000E+00 -0.45593999997E+02  0.45594000000E+02  0.51100000000E-03 0.  1.
    9900012    2    1    2    0    0 -0.63524224953E+00  0.66657993870E+00 -0.73830922225E+00  0.90007761872E+02  0.90000023529E+02 0.  0.
         12    1    1    2    0    0  0.63524224953E+00 -0.66657993870E+00  0.73830922225E+00  0.11802381276E+01  0.00000000000E+00 0. -1.
         11    1    3    3    0    0  0.13325431301E+02 -0.29125923613E+02  0.17782127433E+02  0.36634554753E+02  0.51100000000E-03 0. -1.
        -11    1    3    3    0    0  0.31995891447E+00 -0.50792245945E+01  0.64141637944E+01  0.81879419655E+01  0.51100000000E-03 0.  1.
        -12    1    3    3    0    0 -0.14280632465E+02  0.34871728146E+02 -0.24934600449E+02  0.45185265154E+02  0.00000000000E+00 0.  1.
</event>
<event>
 7    1  0.1935465E-015  0.9000766E+02  0.7816164E-02  0.1186339E+00
        -11   -1    0    0    0    0  0.00000000000E+00  0.00000000000E+00  0.45593999997E+02  0.45594000000E+02  0.51100000000E-03 0.  1.
         11   -1    0    0    0    0 -0.00000000000E+00 -0.00000000000E+00 -0.45593999997E+02  0.45594000000E+02  0.51100000000E-03 0. -1.
    9900012    2    1    2    0    0  0.44178185802E+00 -0.59822130997E+00  0.91661004360E+00  0.90007655170E+02  0.89999915418E+02 0.  0.
         12    1    1    2    0    0 -0.44178185802E+00  0.59822130997E+00 -0.91661004360E+00  0.11803448300E+01  0.00000000000E+00 0. -1.
         11    1    3    3    0    0  0.18892019412E+02 -0.27393750802E+02  0.19587757119E+02  0.38613549561E+02  0.51100000000E-03 0. -1.
        -11    1    3    3    0    0  0.46395811106E+01 -0.60970452410E+01 -0.37004640502E+01  0.85084139533E+01  0.51100000000E-03 0.  1.
        -12    1    3    3    0    0 -0.23089818665E+02  0.32892574733E+02 -0.14970683025E+02  0.42885691656E+02  0.00000000000E+00 0.  1.
</event>
<event>
 7    1  0.1935465E-015  0.9000765E+02  0.7816164E-02  0.1186339E+00
        -11   -1    0    0    0    0  0.00000000000E+00  0.00000000000E+00  0.45593999997E+02  0.45594000000E+02  0.51100000000E-03 0.  1.
         11   -1    0    0    0    0 -0.00000000000E+00 -0.00000000000E+00 -0.45593999997E+02  0.45594000000E+02  0.51100000000E-03 0. -1.
    9900012    2    1    2    0    0  0.66554438252E+00 -0.52554020705E+00  0.82103344500E+00  0.90007645074E+02  0.89999905189E+02 0.  0.
         12    1    1    2    0    0 -0.66554438252E+00  0.52554020705E+00 -0.82103344500E+00  0.11803549263E+01  0.00000000000E+00 0. -1.
         11    1    3    3    0    0  0.30328074720E+02  0.19773650672E+02 -0.21775200524E+02  0.42248653650E+02  0.51100000000E-03 0. -1.
        -11    1    3    3    0    0 -0.12219722501E+01 -0.57405199861E+01 -0.32090344094E+01  0.66891470303E+01  0.51100000000E-03 0.  1.
        -12    1    3    3    0    0 -0.28440558087E+02 -0.14558670893E+02  0.25805268378E+02  0.41069844394E+02  0.00000000000E+00 0.  1.
</event>
<event>
 7    1  0.1935465E-015  0.9000785E+02  0.7816164E-02  0.1186339E+00
        -11   -1    0    0    0    0  0.00000000000E+00  0.00000000000E+00  0.45593999997E+02  0.45594000000E+02  0.51100000000E-03 0.  1.
         11   -1    0    0    0    0 -0.00000000000E+00 -0.00000000000E+00 -0.45593999997E+02  0.45594000000E+02  0.51100000000E-03 0. -1.
    9900012    2    1    2    0    0 -0.71057826966E+00  0.91697424924E+00  0.21678819727E+00  0.90007847309E+02  0.90000110094E+02 0.  0.
         12    1    1    2    0    0  0.71057826966E+00 -0.91697424924E+00 -0.21678819727E+00  0.11801526908E+01  0.00000000000E+00 0. -1.
         11    1    3    3    0    0  0.28746787738E+02 -0.11644985362E+02 -0.22978452255E+02  0.38600424319E+02  0.51100000000E-03 0. -1.
        -11    1    3    3    0    0  0.51378010979E+01 -0.45006251859E+01  0.63126795033E+01  0.93006747044E+01  0.51100000000E-03 0.  1.
        -12    1    3    3    0    0 -0.34595167105E+02  0.17062584797E+02  0.16882560949E+02  0.42106748286E+02  0.00000000000E+00 0.  1.
</event>
<event>
 7    1  0.1935465E-015  0.9000773E+02  0.7816164E-02  0.1186339E+00
        -11   -1    0    0    0    0  0.00000000000E+00  0.00000000000E+00  0.45593999997E+02  0.45594000000E+02  0.51100000000E-03 0.  1.
         11   -1    0    0    0    0 -0.00000000000E+00 -0.00000000000E+00 -0.45593999997E+02  0.45594000000E+02  0.51100000000E-03 0. -1.
    9900012    2    1    2    0    0 -0.89013255308E-01 -0.11659311774E+01 -0.16039607301E+00  0.90007726400E+02  0.89999987589E+02 0.  0.
         12    1    1    2    0    0  0.89013255308E-01  0.11659311774E+01  0.16039607301E+00  0.11802735997E+01  0.00000000000E+00 0. -1.
         11    1    3    3    0    0  0.63670999120E+01 -0.10879907273E+01 -0.34598716671E+01  0.73276460972E+01  0.51100000000E-03 0. -1.
        -11    1    3    3    0    0  0.77676219003E+00 -0.12327022625E+02  0.40770170799E+02  0.42600066591E+02  0.51100000000E-03 0.  1.
         12    1    3    3    0    0 -0.72328753574E+01  0.12249082175E+02 -0.37470695205E+02  0.40080013712E+02  0.00000000000E+00 0. -1.
</event>
<event>
 7    1  0.1935465E-015  0.9000775E+02  0.7816164E-02  0.1186339E+00
        -11   -1    0    0    0    0  0.00000000000E+00  0.00000000000E+00  0.45593999997E+02  0.45594000000E+02  0.51100000000E-03 0.  1.
         11   -1    0    0    0    0 -0.00000000000E+00 -0.00000000000E+00 -0.45593999997E+02  0.45594000000E+02  0.51100000000E-03 0. -1.
    9900012    2    1    2    0    0  0.57185744819E+00 -0.40008667852E+00  0.95179060652E+00  0.90007747633E+02  0.90000009102E+02 0.  0.
         12    1    1    2    0    0 -0.57185744819E+00  0.40008667852E+00 -0.95179060652E+00  0.11802523671E+01  0.00000000000E+00 0. -1.
         11    1    3    3    0    0 -0.13256332147E+02 -0.34727691790E+02 -0.47714713732E-01  0.37171833369E+02  0.51100000000E-03 0. -1.
        -11    1    3    3    0    0  0.21056169158E+01 -0.56294247459E+01  0.86147518937E+01  0.10504189451E+02  0.51100000000E-03 0.  1.
        -12    1    3    3    0    0  0.11722572680E+02  0.39957029858E+02 -0.76152465734E+01  0.42331724813E+02  0.00000000000E+00 0.  1.
</event>
<event>
 7    1  0.1935465E-015  0.9000773E+02  0.7816164E-02  0.1186339E+00
        -11   -1    0    0    0    0  0.00000000000E+00  0.00000000000E+00  0.45593999997E+02  0.45594000000E+02  0.51100000000E-03 0.  1.
         11   -1    0    0    0    0 -0.00000000000E+00 -0.00000000000E+00 -0.45593999997E+02  0.45594000000E+02  0.51100000000E-03 0. -1.
    9900012    2    1    2    0    0 -0.83461100190E+00  0.53843519152E+00 -0.63760480943E+00  0.90007733982E+02  0.89999995271E+02 0.  0.
         12    1    1    2    0    0  0.83461100190E+00 -0.53843519152E+00  0.63760480943E+00  0.11802660179E+01  0.00000000000E+00 0. -1.
         11    1    3    3    0    0 -0.71726442738E+01 -0.15758091333E+01 -0.98478131795E+01  0.12284519729E+02  0.51100000000E-03 0. -1.
        -11    1    3    3    0    0 -0.33417832932E+02  0.57370489068E+00 -0.80124558353E+01  0.34369756239E+02  0.51100000000E-03 0.  1.
         12    1    3    3    0    0  0.39755866204E+02  0.15405394342E+01  0.17222664205E+02  0.43353458013E+02  0.00000000000E+00 0. -1.
</event>
<event>
 7    1  0.1994327E-015  0.9000776E+02  0.7816164E-02  0.1186339E+00
        -11   -1    0    0    0    0  0.00000000000E+00  0.00000000000E+00  0.45593999997E+02  0.45594000000E+02  0.51100000000E-03 0.  1.
         11   -1    0    0    0    0 -0.00000000000E+00 -0.00000000000E+00 -0.45593999997E+02  0.45594000000E+02  0.51100000000E-03 0. -1.
    9900012    2    1    2    0    0 -0.10957218599E+01  0.41440900345E+00 -0.14364067500E+00  0.90007756864E+02  0.90000018455E+02 0.  0.
         12    1    1    2    0    0  0.10957218599E+01 -0.41440900345E+00  0.14364067500E+00  0.11802431360E+01  0.00000000000E+00 0. -1.
         11    1    3    3    0    0 -0.13270652116E+01 -0.15587752902E+01 -0.93721425550E+01  0.95931193474E+01  0.51100000000E-03 0. -1.
        -11    1    3    3    0    0 -0.18219214903E+01  0.40323578174E+02  0.11413146971E+02  0.41947232074E+02  0.51100000000E-03 0.  1.
         12    1    3    3    0    0  0.20532648419E+01 -0.38350393880E+02 -0.21846450909E+01  0.38467405442E+02  0.00000000000E+00 0. -1.
</event>
<event>
 7    1  0.1935465E-015  0.9000808E+02  0.7816164E-02  0.1186338E+00
        -11   -1    0    0    0    0  0.00000000000E+00  0.00000000000E+00  0.45593999997E+02  0.45594000000E+02  0.51100000000E-03 0. -1.
         11   -1    0    0    0    0 -0.00000000000E+00 -0.00000000000E+00 -0.45593999997E+02  0.45594000000E+02  0.51100000000E-03 0.  1.
    9900012    2    1    2    0    0 -0.37943315156E-01 -0.10802528846E+01 -0.47310278984E+00  0.90008079562E+02  0.90000345412E+02 0.  0.
         12    1    1    2    0    0  0.37943315156E-01  0.10802528846E+01  0.47310278984E+00  0.11799204379E+01  0.00000000000E+00 0. -1.
         11    1    3    3    0    0 -0.25708123508E+02  0.53416803437E+01  0.24916954398E+02  0.36198007956E+02  0.51100000000E-03 0. -1.
        -11    1    3    3    0    0 -0.84443031742E+00  0.11999191696E+01  0.93407539320E+01  0.94552923198E+01  0.51100000000E-03 0.  1.
        -12    1    3    3    0    0  0.26514610510E+02 -0.76218523979E+01 -0.34730811120E+02  0.44354779287E+02  0.00000000000E+00 0.  1.
</event>
<event>
 7    1  0.1935465E-015  0.9000733E+02  0.7816164E-02  0.1186340E+00
        -11   -1    0    0    0    0  0.00000000000E+00  0.00000000000E+00  0.45593999997E+02  0.45594000000E+02  0.51100000000E-03 0.  1.
         11   -1    0    0    0    0 -0.00000000000E+00 -0.00000000000E+00 -0.45593999997E+02  0.45594000000E+02  0.51100000000E-03 0. -1.
    9900012    2    1    2    0    0 -0.11549540943E+01  0.23861286316E+00  0.55907617763E-01  0.90007330393E+02  0.89999586354E+02 0.  0.
         12    1    1    2    0    0  0.11549540943E+01 -0.23861286316E+00 -0.55907617763E-01  0.11806696067E+01  0.00000000000E+00 0. -1.
         11    1    3    3    0    0  0.64145267406E+01 -0.33491985729E+02 -0.10036370913E+02  0.35546983033E+02  0.51100000000E-03 0. -1.
        -11    1    3    3    0    0  0.55307658573E+01 -0.73890706287E+01 -0.23923814282E+01  0.95347377983E+01  0.51100000000E-03 0.  1.
        -12    1    3    3    0    0 -0.13100246692E+02  0.41119669221E+02  0.12484659959E+02  0.44925609562E+02  0.00000000000E+00 0.  1.
</event>
<event>
 7    1  0.1935465E-015  0.9000774E+02  0.7816164E-02  0.1186339E+00
        -11   -1    0    0    0    0  0.00000000000E+00  0.00000000000E+00  0.45593999997E+02  0.45594000000E+02  0.51100000000E-03 0.  1.
         11   -1    0    0    0    0 -0.00000000000E+00 -0.00000000000E+00 -0.45593999997E+02  0.45594000000E+02  0.51100000000E-03 0. -1.
    9900012    2    1    2    0    0 -0.46133094585E+00  0.10596391626E+01 -0.23950027797E+00  0.90007736563E+02  0.89999997886E+02 0.  0.
         12    1    1    2    0    0  0.46133094585E+00 -0.10596391626E+01  0.23950027797E+00  0.11802634365E+01  0.00000000000E+00 0. -1.
         11    1    3    3    0    0 -0.73357363087E+01 -0.18789643995E+02 -0.34106297510E+02  0.39624528751E+02  0.51100000000E-03 0. -1.
        -11    1    3    3    0    0 -0.94606695137E+01  0.49313750373E+01  0.93316825605E+00  0.10709506555E+02  0.51100000000E-03 0.  1.
        -12    1    3    3    0    0  0.16335074877E+02  0.14917908120E+02  0.32933628976E+02  0.39673701257E+02  0.00000000000E+00 0.  1.
</event>
<event>
 7    1  0.1935465E-015  0.9000776E+02  0.7816164E-02  0.1186339E+00
        -11   -1    0    0    0    0  0.00000000000E+00  0.00000000000E+00  0.45593999997E+02  0.45594000000E+02  0.51100000000E-03 0.  1.
         11   -1    0    0    0    0 -0.00000000000E+00 -0.00000000000E+00 -0.45593999997E+02  0.45594000000E+02  0.51100000000E-03 0. -1.
    9900012    2    1    2    0    0  0.75460581369E-01 -0.64879138234E+00  0.98302133386E+00  0.90007764642E+02  0.90000026335E+02 0.  0.
         12    1    1    2    0    0 -0.75460581369E-01  0.64879138234E+00 -0.98302133386E+00  0.11802353579E+01  0.00000000000E+00 0. -1.
         11    1    3    3    0    0  0.77627090004E+01  0.16951491939E+01 -0.48113659016E+01  0.92888332913E+01  0.51100000000E-03 0. -1.
        -11    1    3    3    0    0 -0.13275589891E+02 -0.40080813170E+02  0.54203688375E+01  0.42568688844E+02  0.51100000000E-03 0.  1.
         12    1    3    3    0    0  0.55883414716E+01  0.37736872594E+02  0.37401839794E+00  0.38150242507E+02  0.00000000000E+00 0. -1.
</event>
<event>
 7    1  0.1935465E-015  0.9000767E+02  0.7816164E-02  0.1186339E+00
        -11   -1    0    0    0    0  0.00000000000E+00  0.00000000000E+00  0.45593999997E+02  0.45594000000E+02  0.51100000000E-03 0. -1.
         11   -1    0    0    0    0 -0.00000000000E+00 -0.00000000000E+00 -0.45593999997E+02  0.45594000000E+02  0.51100000000E-03 0.  1.
    9900012    2    1    2    0    0  0.54751867726E+00 -0.10059213415E+01  0.28553764197E+00  0.90007666915E+02  0.89999927318E+02 0.  0.
         12    1    1    2    0    0 -0.54751867726E+00  0.10059213415E+01 -0.28553764197E+00  0.11803330853E+01  0.00000000000E+00 0. -1.
         11    1    3    3    0    0 -0.70756446831E+01 -0.39459196313E+01  0.16154254948E+01  0.82610307594E+01  0.51100000000E-03 0. -1.
        -11    1    3    3    0    0 -0.82846095217E+01  0.38309396216E+02 -0.12920348862E+02  0.41269601504E+02  0.51100000000E-03 0.  1.
         12    1    3    3    0    0  0.15907772882E+02 -0.35369397926E+02  0.11590461009E+02  0.40477034651E+02  0.00000000000E+00 0. -1.
</event>
<event>
 7    1  0.1935465E-015  0.9000763E+02  0.7816164E-02  0.1186339E+00
        -11   -1    0    0    0    0  0.00000000000E+00  0.00000000000E+00  0.45593999997E+02  0.45594000000E+02  0.51100000000E-03 0. -1.
         11   -1    0    0    0    0 -0.00000000000E+00 -0.00000000000E+00 -0.45593999997E+02  0.45594000000E+02  0.51100000000E-03 0.  1.
    9900012    2    1    2    0    0  0.52305521650E+00 -0.10581444641E+01 -0.34622705623E-02  0.90007632068E+02  0.89999892012E+02 0.  0.
         12    1    1    2    0    0 -0.52305521650E+00  0.10581444641E+01  0.34622705623E-02  0.11803679315E+01  0.00000000000E+00 0. -1.
         11    1    3    3    0    0  0.16682520732E+02  0.83095925277E+01 -0.36490656975E+00  0.18641056382E+02  0.51100000000E-03 0. -1.
        -11    1    3    3    0    0  0.23280805854E+00  0.27696694679E+02  0.10448024642E+02  0.29602741679E+02  0.51100000000E-03 0.  1.
         12    1    3    3    0    0 -0.16392273574E+02 -0.37064431671E+02 -0.10086580342E+02  0.41763834008E+02  0.00000000000E+00 0. -1.
</event>
<event>
 7    1  0.1935465E-015  0.9000770E+02  0.7816164E-02  0.1186339E+00
        -11   -1    0    0    0    0  0.00000000000E+00  0.00000000000E+00  0.45593999997E+02  0.45594000000E+02  0.51100000000E-03 0.  1.
         11   -1    0    0    0    0 -0.00000000000E+00 -0.00000000000E+00 -0.45593999997E+02  0.45594000000E+02  0.51100000000E-03 0. -1.
    9900012    2    1    2    0    0 -0.76731705289E-01  0.11714391279E+01  0.12226242181E+00  0.90007701104E+02  0.89999961958E+02 0.  0.
         12    1    1    2    0    0  0.76731705289E-01 -0.11714391279E+01 -0.12226242181E+00  0.11802988964E+01  0.00000000000E+00 0. -1.
         11    1    3    3    0    0  0.30930310014E+01  0.57002113189E+01  0.86248710692E+01  0.10791091283E+02  0.51100000000E-03 0. -1.
        -11    1    3    3    0    0 -0.40722633085E+02 -0.52872888154E+01 -0.21328204398E+01  0.41119790755E+02  0.51100000000E-03 0.  1.
         12    1    3    3    0    0  0.37552870379E+02  0.75851662445E+00 -0.63697882076E+01  0.38096819066E+02  0.00000000000E+00 0. -1.
</event>
<event>
 7    1  0.1935465E-015  0.9000763E+02  0.7816164E-02  0.1186339E+00
        -11   -1    0    0    0    0  0.00000000000E+00  0.00000000000E+00  0.45593999997E+02  0.45594000000E+02  0.51100000000E-03 0. -1.
         11   -1    0    0    0    0 -0.00000000000E+00 -0.00000000000E+00 -0.45593999997E+02  0.45594000000E+02  0.51100000000E-03 0.  1.
    9900012    2    1    2    0    0 -0.82737977661E+00 -0.80258600505E+00  0.25411278660E+00  0.90007629338E+02  0.89999889246E+02 0.  0.
         12    1    1    2    0    0  0.82737977661E+00  0.80258600505E+00 -0.25411278660E+00  0.11803706615E+01  0.00000000000E+00 0. -1.
         11    1    3    3    0    0 -0.87314447715E+01  0.34907998004E+02  0.10819394304E+02  0.37574802006E+02  0.51100000000E-03 0. -1.
        -11    1    3    3    0    0 -0.37736550925E+01  0.25596662221E+01  0.73049410422E+01  0.86113023299E+01  0.51100000000E-03 0.  1.
        -12    1    3    3    0    0  0.11677720087E+02 -0.38270250231E+02 -0.17870222560E+02  0.43821525002E+02  0.00000000000E+00 0.  1.
</event>
<event>
 7    1  0.1935465E-015  0.9000775E+02  0.7816164E-02  0.1186339E+00
        -11   -1    0    0    0    0  0.00000000000E+00  0.00000000000E+00  0.45593999997E+02  0.45594000000E+02  0.51100000000E-03 0. -1.
         11   -1    0    0    0    0 -0.00000000000E+00 -0.00000000000E+00 -0.45593999997E+02  0.45594000000E+02  0.51100000000E-03 0.  1.
    9900012    2    1    2    0    0  0.88403480152E+00 -0.43003440738E+00  0.65311107718E+00  0.90007745281E+02  0.90000006719E+02 0.  0.
         12    1    1    2    0    0 -0.88403480152E+00  0.43003440738E+00 -0.65311107718E+00  0.11802547187E+01  0.00000000000E+00 0. -1.
         11    1    3    3    0    0  0.67164648772E+01 -0.48461361125E+01 -0.49366181826E+01  0.96418947831E+01  0.51100000000E-03 0. -1.
        -11    1    3    3    0    0 -0.42163772400E+02  0.25222945263E+01 -0.48506347558E+01  0.42516753527E+02  0.51100000000E-03 0.  1.
         12    1    3    3    0    0  0.36331342325E+02  0.18938071788E+01  0.10440364016E+02  0.37849096971E+02  0.00000000000E+00 0. -1.
</event>
<event>
 7    1  0.1935465E-015  0.9000767E+02  0.7816164E-02  0.1186339E+00
        -11   -1    0    0    0    0  0.00000000000E+00  0.00000000000E+00  0.45593999997E+02  0.45594000000E+02  0.51100000000E-03 0. -1.
         11   -1    0    0    0    0 -0.00000000000E+00 -0.00000000000E+00 -0.45593999997E+02  0.45594000000E+02  0.51100000000E-03 0.  1.
    9900012    2    1    2    0    0  0.11355461763E+01  0.22115862799E+00  0.23408597849E+00  0.90007672714E+02  0.89999933194E+02 0.  0.
         12    1    1    2    0    0 -0.11355461763E+01 -0.22115862799E+00 -0.23408597849E+00  0.11803272862E+01  0.00000000000E+00 0. -1.
         11    1    3    3    0    0  0.20856900353E+02  0.15412335361E+02  0.15135677110E+02  0.30027305831E+02  0.51100000000E-03 0. -1.
        -11    1    3    3    0    0 -0.26794769079E+02  0.98519771897E+01  0.25271129158E+01  0.28660205939E+02  0.51100000000E-03 0.  1.
        -12    1    3    3    0    0  0.70734149017E+01 -0.25043153923E+02 -0.17428704047E+02  0.31320160944E+02  0.00000000000E+00 0.  1.
</event>
<event>
 7    1  0.1935465E-015  0.9000728E+02  0.7816164E-02  0.1186340E+00
        -11   -1    0    0    0    0  0.00000000000E+00  0.00000000000E+00  0.45593999997E+02  0.45594000000E+02  0.51100000000E-03 0.  1.
         11   -1    0    0    0    0 -0.00000000000E+00 -0.00000000000E+00 -0.45593999997E+02  0.45594000000E+02  0.51100000000E-03 0. -1.
    9900012    2    1    2    0    0 -0.41351443877E+00 -0.79746910446E+00  0.76626260082E+00  0.90007275842E+02  0.89999531082E+02 0.  0.
         12    1    1    2    0    0  0.41351443877E+00  0.79746910446E+00 -0.76626260082E+00  0.11807241579E+01  0.00000000000E+00 0. -1.
         11    1    3    3    0    0  0.11312999522E+01 -0.77257966088E+01  0.80596186418E+01  0.11221640956E+02  0.51100000000E-03 0. -1.
        -11    1    3    3    0    0 -0.16384029977E+02  0.18169971202E+02  0.29032801405E+02  0.37966930999E+02  0.51100000000E-03 0.  1.
         12    1    3    3    0    0  0.14839215587E+02 -0.11241643698E+02 -0.36326157446E+02  0.40818703888E+02  0.00000000000E+00 0. -1.
</event>
<event>
 7    1  0.1935465E-015  0.9000775E+02  0.7816164E-02  0.1186339E+00
        -11   -1    0    0    0    0  0.00000000000E+00  0.00000000000E+00  0.45593999997E+02  0.45594000000E+02  0.51100000000E-03 0.  1.
         11   -1    0    0    0    0 -0.00000000000E+00 -0.00000000000E+00 -0.45593999997E+02  0.45594000000E+02  0.51100000000E-03 0. -1.
    9900012    2    1    2    0    0 -0.39884013237E-02  0.11790140454E+01  0.53872017467E-01  0.90007749086E+02  0.90000010574E+02 0.  0.
         12    1    1    2    0    0  0.39884013237E-02 -0.11790140454E+01 -0.53872017467E-01  0.11802509144E+01  0.00000000000E+00 0. -1.
         11    1    3    3    0    0  0.85396776418E+01 -0.61597110299E+00  0.43808417331E+01  0.96175511008E+01  0.51100000000E-03 0. -1.
        -11    1    3    3    0    0 -0.41807590774E+02  0.96530542585E+00  0.11746378280E+02  0.43437125410E+02  0.51100000000E-03 0.  1.
         12    1    3    3    0    0  0.33263924731E+02  0.82967972253E+00 -0.16073347995E+02  0.36953072575E+02  0.00000000000E+00 0. -1.
</event>
<event>
 7    1  0.1935465E-015  0.9000786E+02  0.7816164E-02  0.1186339E+00
        -11   -1    0    0    0    0  0.00000000000E+00  0.00000000000E+00  0.45593999997E+02  0.45594000000E+02  0.51100000000E-03 0.  1.
         11   -1    0    0    0    0 -0.00000000000E+00 -0.00000000000E+00 -0.45593999997E+02  0.45594000000E+02  0.51100000000E-03 0. -1.
    9900012    2    1    2    0    0 -0.33188767448E-01  0.10017542572E+01  0.62300008076E+00  0.90007855015E+02  0.90000117901E+02 0.  0.
         12    1    1    2    0    0  0.33188767448E-01 -0.10017542572E+01 -0.62300008076E+00  0.11801449855E+01  0.00000000000E+00 0. -1.
         11    1    3    3    0    0 -0.77809072352E+00 -0.12420886029E+02 -0.85201880632E+01  0.15082355248E+02  0.51100000000E-03 0. -1.
        -11    1    3    3    0    0  0.11011043619E+02 -0.21570765287E+02  0.25313464676E+02  0.35033020007E+02  0.51100000000E-03 0.  1.
         12    1    3    3    0    0 -0.10266141663E+02  0.34993405573E+02 -0.16170276532E+02  0.39892479760E+02  0.00000000000E+00 0. -1.
</event>
<event>
 7    1  0.1935465E-015  0.9000778E+02  0.7816164E-02  0.1186339E+00
        -11   -1    0    0    0    0  0.00000000000E+00  0.00000000000E+00  0.45593999997E+02  0.45594000000E+02  0.51100000000E-03 0.  1.
         11   -1    0    0    0    0 -0.00000000000E+00 -0.00000000000E+00 -0.45593999997E+02  0.45594000000E+02  0.51100000000E-03 0. -1.
    9900012    2    1    2    0    0  0.36476755494E+00 -0.11182458858E+01 -0.96907483601E-01  0.90007779558E+02  0.90000041449E+02 0.  0.
         12    1    1    2    0    0 -0.36476755494E+00  0.11182458858E+01  0.96907483601E-01  0.11802204416E+01  0.00000000000E+00 0. -1.
         11    1    3    3    0    0 -0.40612172940E+00  0.71986792431E+01  0.61202985399E+01  0.94574823385E+01  0.51100000000E-03 0. -1.
        -11    1    3    3    0    0  0.14011563369E+02  0.23445061704E+02  0.22768161729E+02  0.35558177893E+02  0.51100000000E-03 0.  1.
         12    1    3    3    0    0 -0.13240674084E+02 -0.31761986833E+02 -0.28985367752E+02  0.44992119327E+02  0.00000000000E+00 0. -1.
</event>
<event>
 7    1  0.1935465E-015  0.9000771E+02  0.7816164E-02  0.1186339E+00
        -11   -1    0    0    0    0  0.00000000000E+00  0.00000000000E+00  0.45593999997E+02  0.45594000000E+02  0.51100000000E-03 0. -1.
         11   -1    0    0    0    0 -0.00000000000E+00 -0.00000000000E+00 -0.45593999997E+02  0.45594000000E+02  0.51100000000E-03 0.  1.
    9900012    2    1    2    0    0  0.48570602532E+00 -0.48670697080E+00 -0.95931757647E+00  0.90007710107E+02  0.89999971081E+02 0.  0.
         12    1    1    2    0    0 -0.48570602532E+00  0.48670697080E+00  0.95931757647E+00  0.11802898928E+01  0.00000000000E+00 0. -1.
         11    1    3    3    0    0 -0.33557056183E+02 -0.16143305313E+02  0.21890131901E+02  0.43195603955E+02  0.51100000000E-03 0. -1.
        -11    1    3    3    0    0  0.29966997966E+01  0.68939109053E+01 -0.89448946247E+01  0.11684064248E+02  0.51100000000E-03 0.  1.
        -12    1    3    3    0    0  0.31046062412E+02  0.87626874373E+01 -0.13904554853E+02  0.35128041905E+02  0.00000000000E+00 0.  1.
</event>
<event>
 7    1  0.1935465E-015  0.9000772E+02  0.7816164E-02  0.1186339E+00
        -11   -1    0    0    0    0  0.00000000000E+00  0.00000000000E+00  0.45593999997E+02  0.45594000000E+02  0.51100000000E-03 0.  1.
         11   -1    0    0    0    0 -0.00000000000E+00 -0.00000000000E+00 -0.45593999997E+02  0.45594000000E+02  0.51100000000E-03 0. -1.
    9900012    2    1    2    0    0 -0.91311260703E+00  0.74742853122E+00  0.25123268851E-01  0.90007722397E+02  0.89999983532E+02 0.  0.
         12    1    1    2    0    0  0.91311260703E+00 -0.74742853122E+00 -0.25123268851E-01  0.11802776034E+01  0.00000000000E+00 0. -1.
         11    1    3    3    0    0 -0.36090545834E+01 -0.85696310322E+00  0.82975770909E+01  0.90889739018E+01  0.51100000000E-03 0. -1.
        -11    1    3    3    0    0 -0.77232212686E+01 -0.27677549434E+02  0.23016663666E+02  0.36816595388E+02  0.51100000000E-03 0.  1.
         12    1    3    3    0    0  0.10419163245E+02  0.29281941068E+02 -0.31289117488E+02  0.44102153106E+02  0.00000000000E+00 0. -1.
</event>
<event>
 7    1  0.1935465E-015  0.9000770E+02  0.7816164E-02  0.1186339E+00
        -11   -1    0    0    0    0  0.00000000000E+00  0.00000000000E+00  0.45593999997E+02  0.45594000000E+02  0.51100000000E-03 0. -1.
         11   -1    0    0    0    0 -0.00000000000E+00 -0.00000000000E+00 -0.45593999997E+02  0.45594000000E+02  0.51100000000E-03 0.  1.
    9900012    2    1    2    0    0  0.37842335404E+00  0.15020780480E+00 -0.11078502774E+01  0.90007703911E+02  0.89999964803E+02 0.  0.
         12    1    1    2    0    0 -0.37842335404E+00 -0.15020780480E+00  0.11078502774E+01  0.11802960885E+01  0.00000000000E+00 0. -1.
         11    1    3    3    0    0  0.14488202099E+00  0.94399518008E+01  0.58047643194E+01  0.11082823190E+02  0.51100000000E-03 0. -1.
        -11    1    3    3    0    0  0.16249962231E+02  0.30716386526E+02  0.24153028037E+01  0.34833767549E+02  0.51100000000E-03 0.  1.
         12    1    3    3    0    0 -0.16016420898E+02 -0.40006130522E+02 -0.93279174005E+01  0.44091113172E+02  0.00000000000E+00 0. -1.
</event>
<event>
 7    1  0.1935465E-015  0.9000779E+02  0.7816164E-02  0.1186339E+00
        -11   -1    0    0    0    0  0.00000000000E+00  0.00000000000E+00  0.45593999997E+02  0.45594000000E+02  0.51100000000E-03 0.  1.
         11   -1    0    0    0    0 -0.00000000000E+00 -0.00000000000E+00 -0.45593999997E+02  0.45594000000E+02  0.51100000000E-03 0. -1.
    9900012    2    1    2    0    0 -0.42002900942E+00  0.84217679145E+00  0.71218381991E+00  0.90007791582E+02  0.90000053631E+02 0.  0.
         12    1    1    2    0    0  0.42002900942E+00 -0.84217679145E+00 -0.71218381991E+00  0.11802084181E+01  0.00000000000E+00 0. -1.
         11    1    3    3    0    0  0.17353070262E+02 -0.23470752276E+02 -0.28581439622E+02  0.40852220883E+02  0.51100000000E-03 0. -1.
        -11    1    3    3    0    0  0.96341746234E-01  0.90727317774E+01 -0.27006180151E+01  0.94666298946E+01  0.51100000000E-03 0.  1.
        -12    1    3    3    0    0 -0.17869441018E+02  0.15240197290E+02  0.31994241457E+02  0.39688940804E+02  0.00000000000E+00 0.  1.
</event>
<event>
 7    1  0.1935465E-015  0.9000784E+02  0.7816164E-02  0.1186339E+00
        -11   -1    0    0    0    0  0.00000000000E+00  0.00000000000E+00  0.45593999997E+02  0.45594000000E+02  0.51100000000E-03 0. -1.
         11   -1    0    0    0    0 -0.00000000000E+00 -0.00000000000E+00 -0.45593999997E+02  0.45594000000E+02  0.51100000000E-03 0.  1.
    9900012    2    1    2    0    0 -0.82390374199E+00 -0.18981682688E+00 -0.82336466685E+00  0.90007840189E+02  0.90000102880E+02 0.  0.
         12    1    1    2    0    0  0.82390374199E+00  0.18981682688E+00  0.82336466685E+00  0.11801598106E+01  0.00000000000E+00 0. -1.
         11    1    3    3    0    0  0.15567560980E+02 -0.35771633195E+02 -0.13705361221E+01  0.39036355694E+02  0.51100000000E-03 0. -1.
        -11    1    3    3    0    0 -0.23526571118E+01 -0.26067571244E+01  0.87830901660E+01  0.94590090028E+01  0.51100000000E-03 0.  1.
        -12    1    3    3    0    0 -0.14038807610E+02  0.38188573493E+02 -0.82359187107E+01  0.41512475493E+02  0.00000000000E+00 0.  1.
</event>
<event>
 7    1  0.1935465E-015  0.9000768E+02  0.7816164E-02  0.1186339E+00
        -11   -1    0    0    0    0  0.00000000000E+00  0.00000000000E+00  0.45593999997E+02  0.45594000000E+02  0.51100000000E-03 0. -1.
         11   -1    0    0    0    0 -0.00000000000E+00 -0.00000000000E+00 -0.45593999997E+02  0.45594000000E+02  0.51100000000E-03 0.  1.
    9900012    2    1    2    0    0  0.97509374395E+00 -0.56378140465E+00 -0.35285353179E+00  0.90007676783E+02  0.89999937317E+02 0.  0.
         12    1    1    2    0    0 -0.97509374395E+00  0.56378140465E+00  0.35285353179E+00  0.11803232170E+01  0.00000000000E+00 0. -1.
         11    1    3    3    0    0  0.45949511299E+01 -0.75340202412E+00 -0.81362463520E+01  0.93744170730E+01  0.51100000000E-03 0. -1.
        -11    1    3    3    0    0  0.19248175200E+02 -0.17488203932E+02 -0.25588492209E+02  0.36484249465E+02  0.51100000000E-03 0.  1.
         12    1    3    3    0    0 -0.22868032586E+02  0.17677824551E+02  0.33371885029E+02  0.44149010245E+02  0.00000000000E+00 0. -1.
</event>
<event>
 7    1  0.1935465E-015  0.9000771E+02  0.7816164E-02  0.1186339E+00
        -11   -1    0    0    0    0  0.00000000000E+00  0.00000000000E+00  0.45593999997E+02  0.45594000000E+02  0.51100000000E-03 0.  1.
         11   -1    0    0    0    0 -0.00000000000E+00 -0.00000000000E+00 -0.45593999997E+02  0.45594000000E+02  0.51100000000E-03 0. -1.
    9900012    2    1    2    0    0  0.10322423821E+01  0.22684374966E+00  0.52544388649E+00  0.90007714568E+02  0.89999975601E+02 0.  0.
         12    1    1    2    0    0 -0.10322423821E+01 -0.22684374966E+00 -0.52544388649E+00  0.11802854316E+01  0.00000000000E+00 0. -1.
         11    1    3    3    0    0  0.57727970334E+00 -0.35395754857E+02 -0.13102772133E+02  0.37747521131E+02  0.51100000000E-03 0. -1.
        -11    1    3    3    0    0  0.65889778940E+01 -0.14629372295E+01 -0.67134586760E+01  0.95197343808E+01  0.51100000000E-03 0.  1.
        -12    1    3    3    0    0 -0.61340152153E+01  0.37085535836E+02  0.20341674696E+02  0.42740459056E+02  0.00000000000E+00 0.  1.
</event>
<event>
 7    1  0.1935465E-015  0.9000810E+02  0.7816164E-02  0.1186338E+00
        -11   -1    0    0    0    0  0.00000000000E+00  0.00000000000E+00  0.45593999997E+02  0.45594000000E+02  0.51100000000E-03 0.  1.
         11   -1    0    0    0    0 -0.00000000000E+00 -0.00000000000E+00 -0.45593999997E+02  0.45594000000E+02  0.51100000000E-03 0. -1.
    9900012    2    1    2    0    0 -0.51390498391E+00  0.60538757389E+00  0.87267405830E+00  0.90008104895E+02  0.90000371079E+02 0.  0.
         12    1    1    2    0    0  0.51390498391E+00 -0.60538757389E+00 -0.87267405830E+00  0.11798951051E+01  0.00000000000E+00 0. -1.
         11    1    3    3    0    0  0.22995335427E+02  0.28514325306E+02  0.12046752337E+02  0.38561333499E+02  0.51100000000E-03 0. -1.
        -11    1    3    3    0    0 -0.47823479559E+01  0.57452318817E+01  0.56983315409E+01  0.93994427472E+01  0.51100000000E-03 0.  1.
        -12    1    3    3    0    0 -0.18726892455E+02 -0.33654169614E+02 -0.16872409819E+02  0.42047328649E+02  0.00000000000E+00 0.  1.
</event>
<event>
 7    1  0.1935465E-015  0.9000778E+02  0.7816164E-02  0.1186339E+00
        -11   -1    0    0    0    0  0.00000000000E+00  0.00000000000E+00  0.45593999997E+02  0.45594000000E+02  0.51100000000E-03 0.  1.
         11   -1    0    0    0    0 -0.00000000000E+00 -0.00000000000E+00 -0.45593999997E+02  0.45594000000E+02  0.51100000000E-03 0. -1.
    9900012    2    1    2    0    0 -0.25862136344E+00 -0.51742150188E+00  0.10287410286E+01  0.90007780476E+02  0.90000042379E+02 0.  0.
         12    1    1    2    0    0  0.25862136344E+00  0.51742150188E+00 -0.10287410286E+01  0.11802195238E+01  0.00000000000E+00 0. -1.
         11    1    3    3    0    0 -0.12211370620E+02 -0.68684272615E+01 -0.33020140664E+02  0.35869521256E+02  0.51100000000E-03 0. -1.
        -11    1    3    3    0    0 -0.97535392705E+01 -0.15732146173E+01 -0.31299858855E+01  0.10363558483E+02  0.51100000000E-03 0.  1.
        -12    1    3    3    0    0  0.21706288527E+02  0.79242203769E+01  0.37178867578E+02  0.43774700736E+02  0.00000000000E+00 0.  1.
</event>
<event>
 7    1  0.1935465E-015  0.9000763E+02  0.7816164E-02  0.1186339E+00
        -11   -1    0    0    0    0  0.00000000000E+00  0.00000000000E+00  0.45593999997E+02  0.45594000000E+02  0.51100000000E-03 0.  1.
         11   -1    0    0    0    0 -0.00000000000E+00 -0.00000000000E+00 -0.45593999997E+02  0.45594000000E+02  0.51100000000E-03 0. -1.
    9900012    2    1    2    0    0  0.73909851664E+00 -0.58305874933E+00  0.71206730648E+00  0.90007633967E+02  0.89999893935E+02 0.  0.
         12    1    1    2    0    0 -0.73909851664E+00  0.58305874933E+00 -0.71206730648E+00  0.11803660328E+01  0.00000000000E+00 0. -1.
         11    1    3    3    0    0 -0.25927267420E+02 -0.55206628095E+01 -0.21893285321E+02  0.34380472018E+02  0.51100000000E-03 0. -1.
        -11    1    3    3    0    0 -0.87495804380E+01 -0.24006021121E+01 -0.47854661782E+01  0.10257618395E+02  0.51100000000E-03 0.  1.
        -12    1    3    3    0    0  0.35415946375E+02  0.73382061723E+01  0.27390818806E+02  0.45369543554E+02  0.00000000000E+00 0.  1.
</event>
<event>
 7    1  0.1935465E-015  0.9000766E+02  0.7816164E-02  0.1186339E+00
        -11   -1    0    0    0    0  0.00000000000E+00  0.00000000000E+00  0.45593999997E+02  0.45594000000E+02  0.51100000000E-03 0.  1.
         11   -1    0    0    0    0 -0.00000000000E+00 -0.00000000000E+00 -0.45593999997E+02  0.45594000000E+02  0.51100000000E-03 0. -1.
    9900012    2    1    2    0    0 -0.65897997012E+00 -0.33673591383E+00 -0.91954704603E+00  0.90007655793E+02  0.89999916050E+02 0.  0.
         12    1    1    2    0    0  0.65897997012E+00  0.33673591383E+00  0.91954704603E+00  0.11803442068E+01  0.00000000000E+00 0. -1.
         11    1    3    3    0    0 -0.12792938722E+01  0.28228739932E+01  0.89194299899E+01  0.94425336642E+01  0.51100000000E-03 0. -1.
        -11    1    3    3    0    0 -0.14599264093E+02 -0.32594983457E+02  0.15416912434E+02  0.38900548169E+02  0.51100000000E-03 0.  1.
         12    1    3    3    0    0  0.15219577995E+02  0.29435373550E+02 -0.25255889470E+02  0.41664573960E+02  0.00000000000E+00 0. -1.
</event>
<event>
 7    1  0.1935465E-015  0.9000774E+02  0.7816164E-02  0.1186339E+00
        -11   -1    0    0    0    0  0.00000000000E+00  0.00000000000E+00  0.45593999997E+02  0.45594000000E+02  0.51100000000E-03 0.  1.
         11   -1    0    0    0    0 -0.00000000000E+00 -0.00000000000E+00 -0.45593999997E+02  0.45594000000E+02  0.51100000000E-03 0. -1.
    9900012    2    1    2    0    0 -0.26497383511E+00 -0.29230699181E+00  0.11123629479E+01  0.90007743317E+02  0.90000004728E+02 0.  0.
         12    1    1    2    0    0  0.26497383511E+00  0.29230699181E+00 -0.11123629479E+01  0.11802566833E+01  0.00000000000E+00 0. -1.
         11    1    3    3    0    0 -0.16722564159E+01 -0.16863770887E+02 -0.32657077545E+02  0.36792226409E+02  0.51100000000E-03 0. -1.
        -11    1    3    3    0    0  0.22548553110E+01 -0.11398316646E+02  0.38278449720E+01  0.12233494686E+02  0.51100000000E-03 0.  1.
        -12    1    3    3    0    0 -0.84757273024E+00  0.27969780541E+02  0.29941595521E+02  0.40982022222E+02  0.00000000000E+00 0.  1.
</event>
<event>
 7    1  0.1935465E-015  0.9000785E+02  0.7816164E-02  0.1186339E+00
        -11   -1    0    0    0    0  0.00000000000E+00  0.00000000000E+00  0.45593999997E+02  0.45594000000E+02  0.51100000000E-03 0. -1.
         11   -1    0    0    0    0 -0.00000000000E+00 -0.00000000000E+00 -0.45593999997E+02  0.45594000000E+02  0.51100000000E-03 0.  1.
    9900012    2    1    2    0    0 -0.63891837084E+00  0.98865703781E+00 -0.84196778552E-01  0.90007852331E+02  0.90000115182E+02 0.  0.
         12    1    1    2    0    0  0.63891837084E+00 -0.98865703781E+00  0.84196778552E-01  0.11801476689E+01  0.00000000000E+00 0. -1.
         11    1    3    3    0    0 -0.10519860001E+02  0.14879685831E+02  0.37488493352E+02  0.41682845859E+02  0.51100000000E-03 0. -1.
        -11    1    3    3    0    0 -0.23604145574E+01  0.62869073008E+01 -0.69680626693E+01  0.96773270026E+01  0.51100000000E-03 0.  1.
        -12    1    3    3    0    0  0.12241356188E+02 -0.20177936094E+02 -0.30604627461E+02  0.38647679469E+02  0.00000000000E+00 0.  1.
</event>
<event>
 7    1  0.1935465E-015  0.9000781E+02  0.7816164E-02  0.1186339E+00
        -11   -1    0    0    0    0  0.00000000000E+00  0.00000000000E+00  0.45593999997E+02  0.45594000000E+02  0.51100000000E-03 0. -1.
         11   -1    0    0    0    0 -0.00000000000E+00 -0.00000000000E+00 -0.45593999997E+02  0.45594000000E+02  0.51100000000E-03 0.  1.
    9900012    2    1    2    0    0 -0.55165513625E+00 -0.72784276340E+00 -0.74751381477E+00  0.90007807058E+02  0.90000069311E+02 0.  0.
         12    1    1    2    0    0  0.55165513625E+00  0.72784276340E+00  0.74751381477E+00  0.11801929422E+01  0.00000000000E+00 0. -1.
         11    1    3    3    0    0  0.57613214525E+01 -0.91863559402E+01 -0.13410206374E+01  0.10926129093E+02  0.51100000000E-03 0. -1.
        -11    1    3    3    0    0  0.17478085408E+02 -0.24807324263E+02 -0.16745958249E+02  0.34659975831E+02  0.51100000000E-03 0.  1.
         12    1    3    3    0    0 -0.23791061997E+02  0.33265837440E+02  0.17339465071E+02  0.44421702134E+02  0.00000000000E+00 0. -1.
</event>
<event>
 7    1  0.1935465E-015  0.9000779E+02  0.7816164E-02  0.1186339E+00
        -11   -1    0    0    0    0  0.00000000000E+00  0.00000000000E+00  0.45593999997E+02  0.45594000000E+02  0.51100000000E-03 0. -1.
         11   -1    0    0    0    0 -0.00000000000E+00 -0.00000000000E+00 -0.45593999997E+02  0.45594000000E+02  0.51100000000E-03 0.  1.
    9900012    2    1    2    0    0  0.11686442116E+01  0.65598193558E-01  0.15120180640E+00  0.90007790526E+02  0.90000052561E+02 0.  0.
         12    1    1    2    0    0 -0.11686442116E+01 -0.65598193558E-01 -0.15120180640E+00  0.11802094741E+01  0.00000000000E+00 0. -1.
         11    1    3    3    0    0  0.56247377136E+01  0.49986525656E+01 -0.45166786109E+01  0.87763652929E+01  0.51100000000E-03 0. -1.
        -11    1    3    3    0    0  0.21396293911E+02  0.22592886753E+02 -0.19195099262E+02  0.36560795408E+02  0.51100000000E-03 0.  1.
         12    1    3    3    0    0 -0.25852387413E+02 -0.27525941125E+02  0.23862979679E+02  0.44670629825E+02  0.00000000000E+00 0. -1.
</event>
<event>
 7    1  0.1935465E-015  0.9000775E+02  0.7816164E-02  0.1186339E+00
        -11   -1    0    0    0    0  0.00000000000E+00  0.00000000000E+00  0.45593999997E+02  0.45594000000E+02  0.51100000000E-03 0.  1.
         11   -1    0    0    0    0 -0.00000000000E+00 -0.00000000000E+00 -0.45593999997E+02  0.45594000000E+02  0.51100000000E-03 0. -1.
    9900012    2    1    2    0    0 -0.91715522912E-01  0.11689709138E+01 -0.13449165490E+00  0.90007748866E+02  0.90000010351E+02 0.  0.
         12    1    1    2    0    0  0.91715522912E-01 -0.11689709138E+01  0.13449165490E+00  0.11802511342E+01  0.00000000000E+00 0. -1.
         11    1    3    3    0    0  0.28745271912E+01  0.26231879495E+01  0.74309690361E+01  0.83882848466E+01  0.51100000000E-03 0. -1.
        -11    1    3    3    0    0  0.24571076172E+02 -0.31550013805E+02  0.71026445047E+00  0.39995570145E+02  0.51100000000E-03 0.  1.
         12    1    3    3    0    0 -0.27537318886E+02  0.30095796770E+02 -0.82757251414E+01  0.41623893874E+02  0.00000000000E+00 0. -1.
</event>
<event>
 7    1  0.1935465E-015  0.9000769E+02  0.7816164E-02  0.1186339E+00
        -11   -1    0    0    0    0  0.00000000000E+00  0.00000000000E+00  0.45593999997E+02  0.45594000000E+02  0.51100000000E-03 0.  1.
         11   -1    0    0    0    0 -0.00000000000E+00 -0.00000000000E+00 -0.45593999997E+02  0.45594000000E+02  0.51100000000E-03 0. -1.
    9900012    2    1    2    0    0 -0.90274915660E+00 -0.44779185823E+00  0.61452956705E+00  0.90007694880E+02  0.89999955652E+02 0.  0.
         12    1    1    2    0    0  0.90274915660E+00  0.44779185823E+00 -0.61452956705E+00  0.11803051202E+01  0.00000000000E+00 0. -1.
         11    1    3    3    0    0 -0.16495542613E+01 -0.65802684090E+01  0.57691435799E+01  0.89052781822E+01  0.51100000000E-03 0. -1.
        -11    1    3    3    0    0  0.49388109506E+01 -0.22606848877E+02  0.28459075875E+02  0.36679428426E+02  0.51100000000E-03 0.  1.
         12    1    3    3    0    0 -0.41920058460E+01  0.28739325427E+02 -0.33613689888E+02  0.44422988271E+02  0.00000000000E+00 0. -1.
</event>
<event>
 7    1  0.2463406E-015  0.9000787E+02  0.7816164E-02  0.1186339E+00
        -11   -1    0    0    0    0  0.00000000000E+00  0.00000000000E+00  0.45593999997E+02  0.45594000000E+02  0.51100000000E-03 0. -1.
         11   -1    0    0    0    0 -0.00000000000E+00 -0.00000000000E+00 -0.45593999997E+02  0.45594000000E+02  0.51100000000E-03 0.  1.
    9900012    2    1    2    0    0 -0.86057693165E+00  0.17184846567E+00 -0.78903495916E+00  0.90007872584E+02  0.90000135702E+02 0.  0.
         12    1    1    2    0    0  0.86057693165E+00 -0.17184846567E+00  0.78903495916E+00  0.11801274157E+01  0.00000000000E+00 0. -1.
         11    1    3    3    0    0  0.30602785917E+01 -0.22494650303E+01  0.84590631824E+01  0.92726020170E+01  0.51100000000E-03 0. -1.
        -11    1    3    3    0    0 -0.20273745091E+02 -0.17063465852E+02 -0.35421848032E+02  0.44236793794E+02  0.51100000000E-03 0.  1.
         12    1    3    3    0    0  0.16352889567E+02  0.19484779348E+02  0.26173749891E+02  0.36498476773E+02  0.00000000000E+00 0. -1.
</event>
<event>
 7    1  0.1935465E-015  0.9000777E+02  0.7816164E-02  0.1186339E+00
        -11   -1    0    0    0    0  0.00000000000E+00  0.00000000000E+00  0.45593999997E+02  0.45594000000E+02  0.51100000000E-03 0.  1.
         11   -1    0    0    0    0 -0.00000000000E+00 -0.00000000000E+00 -0.45593999997E+02  0.45594000000E+02  0.51100000000E-03 0. -1.
    9900012    2    1    2    0    0  0.27861610500E+00  0.97951930753E+00  0.59654390952E+00  0.90007767123E+02  0.90000028849E+02 0.  0.
         12    1    1    2    0    0 -0.27861610500E+00 -0.97951930753E+00 -0.59654390952E+00  0.11802328769E+01  0.00000000000E+00 0. -1.
         11    1    3    3    0    0  0.11800326198E+02  0.15326715424E+01 -0.48704508558E+00  0.11909407777E+02  0.51100000000E-03 0. -1.
        -11    1    3    3    0    0 -0.71320688676E+01  0.25010220424E+02  0.29699325331E+02  0.39476923099E+02  0.51100000000E-03 0.  1.
         12    1    3    3    0    0 -0.43896412253E+01 -0.25563372659E+02 -0.28615736335E+02  0.38621436247E+02  0.00000000000E+00 0. -1.
</event>
<event>
 7    1  0.1935465E-015  0.9000774E+02  0.7816164E-02  0.1186339E+00
        -11   -1    0    0    0    0  0.00000000000E+00  0.00000000000E+00  0.45593999997E+02  0.45594000000E+02  0.51100000000E-03 0.  1.
         11   -1    0    0    0    0 -0.00000000000E+00 -0.00000000000E+00 -0.45593999997E+02  0.45594000000E+02  0.51100000000E-03 0. -1.
    9900012    2    1    2    0    0 -0.59667621790E+00  0.59597502714E+00  0.82572167437E+00  0.90007735188E+02  0.89999996493E+02 0.  0.
         12    1    1    2    0    0  0.59667621790E+00 -0.59597502714E+00 -0.82572167437E+00  0.11802648116E+01  0.00000000000E+00 0. -1.
         11    1    3    3    0    0 -0.37657271827E+01 -0.48911217825E+01 -0.14983190099E+02  0.16204930093E+02  0.51100000000E-03 0. -1.
        -11    1    3    3    0    0 -0.20369228506E+02  0.10755340660E+02 -0.20082310906E+02  0.30559483540E+02  0.51100000000E-03 0.  1.
         12    1    3    3    0    0  0.23538279470E+02 -0.52682438508E+01  0.35891222680E+02  0.43243321556E+02  0.00000000000E+00 0. -1.
</event>
<event>
 7    1  0.1935465E-015  0.9000847E+02  0.7816164E-02  0.1186338E+00
        -11   -1    0    0    0    0  0.00000000000E+00  0.00000000000E+00  0.45593999997E+02  0.45594000000E+02  0.51100000000E-03 0. -1.
         11   -1    0    0    0    0 -0.00000000000E+00 -0.00000000000E+00 -0.45593999997E+02  0.45594000000E+02  0.51100000000E-03 0.  1.
    9900012    2    1    2    0    0  0.60631115100E+00 -0.87539652079E+00 -0.50730976303E+00  0.90008468111E+02  0.90000739087E+02 0.  0.
         12    1    1    2    0    0 -0.60631115100E+00  0.87539652079E+00  0.50730976303E+00  0.11795318886E+01  0.00000000000E+00 0. -1.
         11    1    3    3    0    0  0.65650712264E+01 -0.35436054925E+00  0.87322518849E+01  0.10930597186E+02  0.51100000000E-03 0. -1.
        -11    1    3    3    0    0 -0.68493823014E+01 -0.37777324684E+02  0.59173979705E+01  0.38846568667E+02  0.51100000000E-03 0.  1.
         12    1    3    3    0    0  0.89062222601E+00  0.37256288712E+02 -0.15156959618E+02  0.40231302259E+02  0.00000000000E+00 0. -1.
</event>
<event>
 7    1  0.1935465E-015  0.9000776E+02  0.7816164E-02  0.1186339E+00
        -11   -1    0    0    0    0  0.00000000000E+00  0.00000000000E+00  0.45593999997E+02  0.45594000000E+02  0.51100000000E-03 0.  1.
         11   -1    0    0    0    0 -0.00000000000E+00 -0.00000000000E+00 -0.45593999997E+02  0.45594000000E+02  0.51100000000E-03 0. -1.
    9900012    2    1    2    0    0 -0.95122082861E+00  0.44886755630E+00 -0.53541579759E+00  0.90007757133E+02  0.90000018728E+02 0.  0.
         12    1    1    2    0    0  0.95122082861E+00 -0.44886755630E+00  0.53541579759E+00  0.11802428666E+01  0.00000000000E+00 0. -1.
         11    1    3    3    0    0  0.91364363180E+01 -0.19872982694E+01 -0.41314662121E+01  0.10222173757E+02  0.51100000000E-03 0. -1.
        -11    1    3    3    0    0 -0.93815077912E+01 -0.15485552866E+02  0.37380996553E+02  0.41534972488E+02  0.51100000000E-03 0.  1.
         12    1    3    3    0    0 -0.70614935538E+00  0.17921718692E+02 -0.33784946138E+02  0.38250610888E+02  0.00000000000E+00 0. -1.
</event>
<event>
 7    1  0.1935465E-015  0.9000769E+02  0.7816164E-02  0.1186339E+00
        -11   -1    0    0    0    0  0.00000000000E+00  0.00000000000E+00  0.45593999997E+02  0.45594000000E+02  0.51100000000E-03 0.  1.
         11   -1    0    0    0    0 -0.00000000000E+00 -0.00000000000E+00 -0.45593999997E+02  0.45594000000E+02  0.51100000000E-03 0. -1.
    9900012    2    1    2    0    0 -0.12018829371E+00 -0.39741956995E+00  0.11048706241E+01  0.90007692143E+02  0.89999952880E+02 0.  0.
         12    1    1    2    0    0  0.12018829371E+00  0.39741956995E+00 -0.11048706241E+01  0.11803078567E+01  0.00000000000E+00 0. -1.
         11    1    3    3    0    0  0.66538864777E+01  0.16682502678E+02 -0.35113979264E+02  0.39440735806E+02  0.51100000000E-03 0. -1.
        -11    1    3    3    0    0 -0.40593376810E+01  0.83544767019E+01  0.63978244301E+01  0.11278637377E+02  0.51100000000E-03 0.  1.
        -12    1    3    3    0    0 -0.27147370905E+01 -0.25434398950E+02  0.29821025458E+02  0.39288318961E+02  0.00000000000E+00 0.  1.
</event>
<event>
 7    1  0.1935465E-015  0.9000765E+02  0.7816164E-02  0.1186339E+00
        -11   -1    0    0    0    0  0.00000000000E+00  0.00000000000E+00  0.45593999997E+02  0.45594000000E+02  0.51100000000E-03 0.  1.
         11   -1    0    0    0    0 -0.00000000000E+00 -0.00000000000E+00 -0.45593999997E+02  0.45594000000E+02  0.51100000000E-03 0. -1.
    9900012    2    1    2    0    0  0.55731257493E+00  0.76090217034E+00  0.70968501340E+00  0.90007651646E+02  0.89999911847E+02 0.  0.
         12    1    1    2    0    0 -0.55731257493E+00 -0.76090217034E+00 -0.70968501340E+00  0.11803483542E+01  0.00000000000E+00 0. -1.
         11    1    3    3    0    0 -0.21454181384E+01 -0.38693550008E+02  0.13957894199E+02  0.41190004151E+02  0.51100000000E-03 0. -1.
        -11    1    3    3    0    0 -0.60219970614E+01  0.15400747707E+01 -0.70884667212E+01  0.94277589928E+01  0.51100000000E-03 0.  1.
        -12    1    3    3    0    0  0.87247277748E+01  0.37914377408E+02 -0.61597424646E+01  0.39389888502E+02  0.00000000000E+00 0.  1.
</event>
<event>
 7    1  0.1935465E-015  0.9000769E+02  0.7816164E-02  0.1186339E+00
        -11   -1    0    0    0    0  0.00000000000E+00  0.00000000000E+00  0.45593999997E+02  0.45594000000E+02  0.51100000000E-03 0. -1.
         11   -1    0    0    0    0 -0.00000000000E+00 -0.00000000000E+00 -0.45593999997E+02  0.45594000000E+02  0.51100000000E-03 0.  1.
    9900012    2    1    2    0    0  0.97138161250E+00  0.66760311721E+00  0.62070366736E-01  0.90007691189E+02  0.89999951913E+02 0.  0.
         12    1    1    2    0    0 -0.97138161250E+00 -0.66760311721E+00 -0.62070366736E-01  0.11803088111E+01  0.00000000000E+00 0. -1.
         11    1    3    3    0    0  0.15055822062E+01 -0.91717347658E+01  0.19721616548E+01  0.95014166442E+01  0.51100000000E-03 0. -1.
        -11    1    3    3    0    0 -0.19527530543E+02 -0.19054509740E+02 -0.26532827450E+02  0.38057715687E+02  0.51100000000E-03 0.  1.
         12    1    3    3    0    0  0.18993329949E+02  0.28893847623E+02  0.24622736162E+02  0.42448558858E+02  0.00000000000E+00 0. -1.
</event>
<event>
 7    1  0.1935465E-015  0.9000775E+02  0.7816164E-02  0.1186339E+00
        -11   -1    0    0    0    0  0.00000000000E+00  0.00000000000E+00  0.45593999997E+02  0.45594000000E+02  0.51100000000E-03 0. -1.
         11   -1    0    0    0    0 -0.00000000000E+00 -0.00000000000E+00 -0.45593999997E+02  0.45594000000E+02  0.51100000000E-03 0.  1.
    9900012    2    1    2    0    0  0.75683964595E+00 -0.48454026403E+00 -0.76512023862E+00  0.90007748122E+02  0.90000009597E+02 0.  0.
         12    1    1    2    0    0 -0.75683964595E+00  0.48454026403E+00  0.76512023862E+00  0.11802518785E+01  0.00000000000E+00 0. -1.
         11    1    3    3    0    0  0.12546552369E+01 -0.68386669599E+01 -0.10924835905E+02  0.12949655029E+02  0.51100000000E-03 0. -1.
        -11    1    3    3    0    0 -0.14699838040E+02 -0.19802935400E+02 -0.22135326676E+02  0.33139314660E+02  0.51100000000E-03 0.  1.
         12    1    3    3    0    0  0.14202022449E+02  0.26157062095E+02  0.32295042342E+02  0.43918778432E+02  0.00000000000E+00 0. -1.
</event>
<event>
 7    1  0.1935465E-015  0.9000819E+02  0.7816164E-02  0.1186338E+00
        -11   -1    0    0    0    0  0.00000000000E+00  0.00000000000E+00  0.45593999997E+02  0.45594000000E+02  0.51100000000E-03 0. -1.
         11   -1    0    0    0    0 -0.00000000000E+00 -0.00000000000E+00 -0.45593999997E+02  0.45594000000E+02  0.51100000000E-03 0.  1.
    9900012    2    1    2    0    0  0.24146207897E+00 -0.40149427603E+00 -0.10828013973E+01  0.90008186262E+02  0.90000453520E+02 0.  0.
         12    1    1    2    0    0 -0.24146207897E+00  0.40149427603E+00  0.10828013973E+01  0.11798137375E+01  0.00000000000E+00 0. -1.
         11    1    3    3    0    0 -0.45772616423E+01 -0.18502653147E+01  0.83700154183E+01  0.97176110356E+01  0.51100000000E-03 0. -1.
        -11    1    3    3    0    0  0.35218556607E+02 -0.21194730771E+02  0.47064651492E+00  0.41106992719E+02  0.51100000000E-03 0.  1.
         12    1    3    3    0    0 -0.30399832886E+02  0.22643501810E+02 -0.99234633305E+01  0.39183582508E+02  0.00000000000E+00 0. -1.
</event>
<event>
 7    1  0.1935465E-015  0.9000812E+02  0.7816164E-02  0.1186338E+00
        -11   -1    0    0    0    0  0.00000000000E+00  0.00000000000E+00  0.45593999997E+02  0.45594000000E+02  0.51100000000E-03 0.  1.
         11   -1    0    0    0    0 -0.00000000000E+00 -0.00000000000E+00 -0.45593999997E+02  0.45594000000E+02  0.51100000000E-03 0. -1.
    9900012    2    1    2    0    0  0.21611931022E+00 -0.11596177291E+01  0.26603741152E-01  0.90008115009E+02  0.90000381326E+02 0.  0.
         12    1    1    2    0    0 -0.21611931022E+00  0.11596177291E+01 -0.26603741152E-01  0.11798849914E+01  0.00000000000E+00 0. -1.
         11    1    3    3    0    0 -0.27747450043E+02  0.14619702885E+02 -0.32536851472E+01  0.31531621646E+02  0.51100000000E-03 0. -1.
        -11    1    3    3    0    0 -0.10279405705E+02 -0.89253544441E+01  0.12569748287E+02  0.18529077307E+02  0.51100000000E-03 0.  1.
         12    1    3    3    0    0  0.38242975058E+02 -0.68539661701E+01 -0.92894593984E+01  0.39947416055E+02  0.00000000000E+00 0. -1.
</event>
<event>
 7    1  0.1935465E-015  0.9000777E+02  0.7816164E-02  0.1186339E+00
        -11   -1    0    0    0    0  0.00000000000E+00  0.00000000000E+00  0.45593999997E+02  0.45594000000E+02  0.51100000000E-03 0.  1.
         11   -1    0    0    0    0 -0.00000000000E+00 -0.00000000000E+00 -0.45593999997E+02  0.45594000000E+02  0.51100000000E-03 0. -1.
    9900012    2    1    2    0    0  0.12207823489E+00  0.75819842686E+00  0.89619652156E+00  0.90007772837E+02  0.90000034639E+02 0.  0.
         12    1    1    2    0    0 -0.12207823489E+00 -0.75819842686E+00 -0.89619652156E+00  0.11802271625E+01  0.00000000000E+00 0. -1.
         11    1    3    3    0    0 -0.67003874059E+01  0.83428592795E+01  0.69958661916E+00  0.10723241769E+02  0.51100000000E-03 0. -1.
        -11    1    3    3    0    0 -0.20485802240E+02  0.62770565037E+01  0.29791726817E+02  0.36696273908E+02  0.51100000000E-03 0.  1.
         12    1    3    3    0    0  0.27308267881E+02 -0.13861717356E+02 -0.29595116914E+02  0.42588257160E+02  0.00000000000E+00 0. -1.
</event>
<event>
 7    1  0.1935465E-015  0.9000773E+02  0.7816164E-02  0.1186339E+00
        -11   -1    0    0    0    0  0.00000000000E+00  0.00000000000E+00  0.45593999997E+02  0.45594000000E+02  0.51100000000E-03 0.  1.
         11   -1    0    0    0    0 -0.00000000000E+00 -0.00000000000E+00 -0.45593999997E+02  0.45594000000E+02  0.51100000000E-03 0. -1.
    9900012    2    1    2    0    0  0.10410320821E+01  0.55215885863E+00  0.66381028239E-01  0.90007731538E+02  0.89999992794E+02 0.  0.
         12    1    1    2    0    0 -0.10410320821E+01 -0.55215885863E+00 -0.66381028239E-01  0.11802684619E+01  0.00000000000E+00 0. -1.
         11    1    3    3    0    0 -0.10597683631E+02 -0.29278710121E+02 -0.17589587248E+02  0.35762373306E+02  0.51100000000E-03 0. -1.
        -11    1    3    3    0    0 -0.92996644177E+01 -0.44263090164E+01  0.77570534206E+01  0.12893713500E+02  0.51100000000E-03 0.  1.
        -12    1    3    3    0    0  0.20938380131E+02  0.34257177996E+02  0.98989148559E+01  0.41351644732E+02  0.00000000000E+00 0.  1.
</event>
<event>
 7    1  0.1935465E-015  0.9000797E+02  0.7816164E-02  0.1186339E+00
        -11   -1    0    0    0    0  0.00000000000E+00  0.00000000000E+00  0.45593999997E+02  0.45594000000E+02  0.51100000000E-03 0.  1.
         11   -1    0    0    0    0 -0.00000000000E+00 -0.00000000000E+00 -0.45593999997E+02  0.45594000000E+02  0.51100000000E-03 0. -1.
    9900012    2    1    2    0    0 -0.96664629357E+00  0.67679229003E+00  0.47919380211E-02  0.90007967872E+02  0.90000232247E+02 0.  0.
         12    1    1    2    0    0  0.96664629357E+00 -0.67679229003E+00 -0.47919380211E-02  0.11800321281E+01  0.00000000000E+00 0. -1.
         11    1    3    3    0    0 -0.10442409310E+02  0.74788010308E+01 -0.75692254374E+01  0.14908707222E+02  0.51100000000E-03 0. -1.
        -11    1    3    3    0    0  0.32440440990E+02  0.61952289400E+01  0.26732749999E+02  0.42490034079E+02  0.51100000000E-03 0.  1.
         12    1    3    3    0    0 -0.22964677974E+02 -0.12997237681E+02 -0.19158732624E+02  0.32609226571E+02  0.00000000000E+00 0. -1.
</event>
<event>
 7    1  0.1935465E-015  0.9000775E+02  0.7816164E-02  0.1186339E+00
        -11   -1    0    0    0    0  0.00000000000E+00  0.00000000000E+00  0.45593999997E+02  0.45594000000E+02  0.51100000000E-03 0. -1.
         11   -1    0    0    0    0 -0.00000000000E+00 -0.00000000000E+00 -0.45593999997E+02  0.45594000000E+02  0.51100000000E-03 0.  1.
    9900012    2    1    2    0    0 -0.99025487673E+00 -0.54418326126E+00  0.34094679888E+00  0.90007752203E+02  0.90000013732E+02 0.  0.
         12    1    1    2    0    0  0.99025487673E+00  0.54418326126E+00 -0.34094679888E+00  0.11802477970E+01  0.00000000000E+00 0. -1.
         11    1    3    3    0    0 -0.37437524417E+02 -0.10857739478E+02  0.23745467429E+01  0.39052493051E+02  0.51100000000E-03 0. -1.
        -11    1    3    3    0    0 -0.13360752507E+01 -0.18719766537E+01 -0.10173001163E+02  0.10429733774E+02  0.51100000000E-03 0.  1.
        -12    1    3    3    0    0  0.37783344791E+02  0.12185532871E+02  0.81394012193E+01  0.40525525378E+02  0.00000000000E+00 0.  1.
</event>
<event>
 7    1  0.1935465E-015  0.9000768E+02  0.7816164E-02  0.1186339E+00
        -11   -1    0    0    0    0  0.00000000000E+00  0.00000000000E+00  0.45593999997E+02  0.45594000000E+02  0.51100000000E-03 0.  1.
         11   -1    0    0    0    0 -0.00000000000E+00 -0.00000000000E+00 -0.45593999997E+02  0.45594000000E+02  0.51100000000E-03 0. -1.
    9900012    2    1    2    0    0  0.77828496235E+00  0.13809465037E+00  0.87656430878E+00  0.90007676908E+02  0.89999937443E+02 0.  0.
         12    1    1    2    0    0 -0.77828496235E+00 -0.13809465037E+00 -0.87656430878E+00  0.11803230924E+01  0.00000000000E+00 0. -1.
         11    1    3    3    0    0 -0.36088960478E+00  0.40396612567E+00 -0.81614464412E+01  0.81794032919E+01  0.51100000000E-03 0. -1.
        -11    1    3    3    0    0 -0.79570938747E+01 -0.31147428687E+02  0.29541789835E+02  0.43659993171E+02  0.51100000000E-03 0.  1.
         12    1    3    3    0    0  0.90962684418E+01  0.30881557211E+02 -0.20503779085E+02  0.38168280445E+02  0.00000000000E+00 0. -1.
</event>
<event>
 7    1  0.1935465E-015  0.9000772E+02  0.7816164E-02  0.1186339E+00
        -11   -1    0    0    0    0  0.00000000000E+00  0.00000000000E+00  0.45593999997E+02  0.45594000000E+02  0.51100000000E-03 0.  1.
         11   -1    0    0    0    0 -0.00000000000E+00 -0.00000000000E+00 -0.45593999997E+02  0.45594000000E+02  0.51100000000E-03 0. -1.
    9900012    2    1    2    0    0 -0.79269770498E+00 -0.85647852484E+00  0.17642288221E+00  0.90007724546E+02  0.89999985710E+02 0.  0.
         12    1    1    2    0    0  0.79269770498E+00  0.85647852484E+00 -0.17642288221E+00  0.11802754544E+01  0.00000000000E+00 0. -1.
         11    1    3    3    0    0  0.47834313879E+01 -0.70859130290E+01  0.12723597374E+01  0.86435107948E+01  0.51100000000E-03 0. -1.
        -11    1    3    3    0    0  0.68168217455E+01 -0.23834104181E+02 -0.29257153994E+02  0.38347289877E+02  0.51100000000E-03 0.  1.
         12    1    3    3    0    0 -0.12392950838E+02  0.30063538685E+02  0.28161217139E+02  0.43016923873E+02  0.00000000000E+00 0. -1.
</event>
<event>
 7    1  0.1935465E-015  0.9000774E+02  0.7816164E-02  0.1186339E+00
        -11   -1    0    0    0    0  0.00000000000E+00  0.00000000000E+00  0.45593999997E+02  0.45594000000E+02  0.51100000000E-03 0.  1.
         11   -1    0    0    0    0 -0.00000000000E+00 -0.00000000000E+00 -0.45593999997E+02  0.45594000000E+02  0.51100000000E-03 0. -1.
    9900012    2    1    2    0    0  0.80261982486E+00  0.17014337378E+00  0.84844729317E+00  0.90007741486E+02  0.90000002873E+02 0.  0.
         12    1    1    2    0    0 -0.80261982486E+00 -0.17014337378E+00 -0.84844729317E+00  0.11802585141E+01  0.00000000000E+00 0. -1.
         11    1    3    3    0    0  0.14211455107E+01  0.54561974523E+01  0.55955917720E+01  0.79435755640E+01  0.51100000000E-03 0. -1.
        -11    1    3    3    0    0 -0.31910799881E+02 -0.14740631874E+02  0.20561187645E+02  0.40722816881E+02  0.51100000000E-03 0.  1.
         12    1    3    3    0    0  0.31292274195E+02  0.94545777954E+01 -0.25308332124E+02  0.41341349041E+02  0.00000000000E+00 0. -1.
</event>
<event>
 7    1  0.1935465E-015  0.9000776E+02  0.7816164E-02  0.1186339E+00
        -11   -1    0    0    0    0  0.00000000000E+00  0.00000000000E+00  0.45593999997E+02  0.45594000000E+02  0.51100000000E-03 0.  1.
         11   -1    0    0    0    0 -0.00000000000E+00 -0.00000000000E+00 -0.45593999997E+02  0.45594000000E+02  0.51100000000E-03 0. -1.
    9900012    2    1    2    0    0  0.94101960639E-01 -0.84895716361E+00 -0.81448220346E+00  0.90007760743E+02  0.90000022385E+02 0.  0.
         12    1    1    2    0    0 -0.94101960639E-01  0.84895716361E+00  0.81448220346E+00  0.11802392573E+01  0.00000000000E+00 0. -1.
         11    1    3    3    0    0 -0.62256201646E+01  0.17058650655E+01  0.44089960470E+01  0.78171330077E+01  0.51100000000E-03 0. -1.
        -11    1    3    3    0    0 -0.36563779584E+02  0.50907508669E+01  0.55166573588E+01  0.37326387858E+02  0.51100000000E-03 0.  1.
         12    1    3    3    0    0  0.42883501709E+02 -0.76455730961E+01 -0.10740135609E+02  0.44864239877E+02  0.00000000000E+00 0. -1.
</event>
<event>
 7    1  0.1935465E-015  0.9000777E+02  0.7816164E-02  0.1186339E+00
        -11   -1    0    0    0    0  0.00000000000E+00  0.00000000000E+00  0.45593999997E+02  0.45594000000E+02  0.51100000000E-03 0.  1.
         11   -1    0    0    0    0 -0.00000000000E+00 -0.00000000000E+00 -0.45593999997E+02  0.45594000000E+02  0.51100000000E-03 0. -1.
    9900012    2    1    2    0    0  0.88259647538E+00  0.61699352580E+00  0.48298850955E+00  0.90007773136E+02  0.90000034942E+02 0.  0.
         12    1    1    2    0    0 -0.88259647538E+00 -0.61699352580E+00 -0.48298850955E+00  0.11802268636E+01  0.00000000000E+00 0. -1.
         11    1    3    3    0    0  0.28239577895E+02  0.23047415254E+02 -0.46529835775E+01  0.36746528625E+02  0.51100000000E-03 0. -1.
        -11    1    3    3    0    0  0.82203991933E+01  0.30698157578E+01 -0.17584100086E+01  0.89493428643E+01  0.51100000000E-03 0.  1.
        -12    1    3    3    0    0 -0.35577380613E+02 -0.25500237485E+02  0.68943820956E+01  0.44311901647E+02  0.00000000000E+00 0.  1.
</event>
<event>
 7    1  0.1935465E-015  0.9000774E+02  0.7816164E-02  0.1186339E+00
        -11   -1    0    0    0    0  0.00000000000E+00  0.00000000000E+00  0.45593999997E+02  0.45594000000E+02  0.51100000000E-03 0. -1.
         11   -1    0    0    0    0 -0.00000000000E+00 -0.00000000000E+00 -0.45593999997E+02  0.45594000000E+02  0.51100000000E-03 0.  1.
    9900012    2    1    2    0    0  0.83588408892E+00  0.71470039697E+00 -0.42839791197E+00  0.90007735776E+02  0.89999997088E+02 0.  0.
         12    1    1    2    0    0 -0.83588408892E+00 -0.71470039697E+00  0.42839791197E+00  0.11802642240E+01  0.00000000000E+00 0. -1.
         11    1    3    3    0    0  0.37851939576E+02 -0.61826252008E+00  0.13717032472E+02  0.40265476010E+02  0.51100000000E-03 0. -1.
        -11    1    3    3    0    0 -0.11574363881E+01  0.74040247284E+01  0.46340632340E+01  0.88110035460E+01  0.51100000000E-03 0.  1.
        -12    1    3    3    0    0 -0.35858619099E+02 -0.60710618113E+01 -0.18779493617E+02  0.40931256220E+02  0.00000000000E+00 0.  1.
</event>
<event>
 8    1  0.1935465E-015  0.9000779E+02  0.7816164E-02  0.1186339E+00
        -11   -1    0    0    0    0  0.00000000000E+00  0.00000000000E+00  0.45593999997E+02  0.45594000000E+02  0.51100000000E-03 0. -1.
         11   -1    0    0    0    0 -0.00000000000E+00 -0.00000000000E+00 -0.45593999997E+02  0.45594000000E+02  0.51100000000E-03 0.  1.
    9900012    2    1    2    0    0 -0.65051444599E+00 -0.80047648612E+00 -0.57354548978E+00  0.90007794053E+02  0.90000056134E+02 0.  0.
         23    2    3    3    0    0 -0.19812171773E+02  0.19755535911E+02 -0.72203409161E-02  0.61900153075E+02  0.55216171083E+02 0.  0.
         12    1    1    2    0    0  0.65051444599E+00  0.80047648612E+00  0.57354548978E+00  0.11802059473E+01  0.00000000000E+00 0. -1.
         11    1    4    4    0    0 -0.10040929595E+02 -0.11494493985E+02 -0.18747249632E+02  0.24174429221E+02  0.51100000000E-03 0.  1.
        -11    1    4    4    0    0 -0.97712421778E+01  0.31250029896E+02  0.18740029292E+02  0.37725723854E+02  0.51100000000E-03 0. -1.
        -12    1    3    3    0    0  0.19161657327E+02 -0.20556012397E+02 -0.56632514886E+00  0.28107640978E+02  0.00000000000E+00 0.  1.
</event>
<event>
 7    1  0.1935465E-015  0.9000803E+02  0.7816164E-02  0.1186338E+00
        -11   -1    0    0    0    0  0.00000000000E+00  0.00000000000E+00  0.45593999997E+02  0.45594000000E+02  0.51100000000E-03 0.  1.
         11   -1    0    0    0    0 -0.00000000000E+00 -0.00000000000E+00 -0.45593999997E+02  0.45594000000E+02  0.51100000000E-03 0. -1.
    9900012    2    1    2    0    0  0.19894460649E+00 -0.11515043300E+01  0.16365810416E+00  0.90008031715E+02  0.90000296933E+02 0.  0.
         12    1    1    2    0    0 -0.19894460649E+00  0.11515043300E+01 -0.16365810416E+00  0.11799682849E+01  0.00000000000E+00 0. -1.
         11    1    3    3    0    0 -0.55730486485E+01 -0.55401626232E+01  0.23967057630E+01  0.82156236468E+01  0.51100000000E-03 0. -1.
        -11    1    3    3    0    0  0.31189228387E+02 -0.43702746703E+01  0.27426278114E+02  0.41762040174E+02  0.51100000000E-03 0.  1.
         12    1    3    3    0    0 -0.25417235132E+02  0.87589329635E+01 -0.29659325773E+02  0.40030367894E+02  0.00000000000E+00 0. -1.
</event>
<event>
 7    1  0.1935465E-015  0.9000775E+02  0.7816164E-02  0.1186339E+00
        -11   -1    0    0    0    0  0.00000000000E+00  0.00000000000E+00  0.45593999997E+02  0.45594000000E+02  0.51100000000E-03 0.  1.
         11   -1    0    0    0    0 -0.00000000000E+00 -0.00000000000E+00 -0.45593999997E+02  0.45594000000E+02  0.51100000000E-03 0. -1.
    9900012    2    1    2    0    0 -0.58073296775E+00  0.40555538391E+00  0.94407102789E+00  0.90007747461E+02  0.90000008928E+02 0.  0.
         12    1    1    2    0    0  0.58073296775E+00 -0.40555538391E+00 -0.94407102789E+00  0.11802525386E+01  0.00000000000E+00 0. -1.
         11    1    3    3    0    0  0.60026997356E+01 -0.77039669056E+01  0.36241770857E+01  0.10417205480E+02  0.51100000000E-03 0. -1.
        -11    1    3    3    0    0  0.20771375306E+02 -0.23944993055E+02 -0.15849922847E+02  0.35440552747E+02  0.51100000000E-03 0.  1.
         12    1    3    3    0    0 -0.27354808009E+02  0.32054515344E+02  0.13169816790E+02  0.44149989235E+02  0.00000000000E+00 0. -1.
</event>
<event>
 7    1  0.1935465E-015  0.9000770E+02  0.7816164E-02  0.1186339E+00
        -11   -1    0    0    0    0  0.00000000000E+00  0.00000000000E+00  0.45593999997E+02  0.45594000000E+02  0.51100000000E-03 0.  1.
         11   -1    0    0    0    0 -0.00000000000E+00 -0.00000000000E+00 -0.45593999997E+02  0.45594000000E+02  0.51100000000E-03 0. -1.
    9900012    2    1    2    0    0  0.95195302883E+00  0.67673356720E+00  0.17008195659E+00  0.90007698868E+02  0.89999959693E+02 0.  0.
         12    1    1    2    0    0 -0.95195302883E+00 -0.67673356720E+00 -0.17008195659E+00  0.11803011319E+01  0.00000000000E+00 0. -1.
         11    1    3    3    0    0  0.26573417740E+02  0.23591130173E+02 -0.13391122747E+02  0.37973808367E+02  0.51100000000E-03 0. -1.
        -11    1    3    3    0    0  0.51547377843E+01  0.58369550912E+01  0.43567054488E+01  0.89231299996E+01  0.51100000000E-03 0.  1.
        -12    1    3    3    0    0 -0.30776202495E+02 -0.28751351697E+02  0.92044992549E+01  0.43110760501E+02  0.00000000000E+00 0.  1.
</event>
<event>
 7    1  0.1935465E-015  0.9000782E+02  0.7816164E-02  0.1186339E+00
        -11   -1    0    0    0    0  0.00000000000E+00  0.00000000000E+00  0.45593999997E+02  0.45594000000E+02  0.51100000000E-03 0. -1.
         11   -1    0    0    0    0 -0.00000000000E+00 -0.00000000000E+00 -0.45593999997E+02  0.45594000000E+02  0.51100000000E-03 0.  1.
    9900012    2    1    2    0    0  0.25570501087E+00 -0.64814061967E+00 -0.95255319824E+00  0.90007818272E+02  0.90000080673E+02 0.  0.
         12    1    1    2    0    0 -0.25570501087E+00  0.64814061967E+00  0.95255319824E+00  0.11801817279E+01  0.00000000000E+00 0. -1.
         11    1    3    3    0    0 -0.27208054891E+02  0.76491771315E+01 -0.15713627912E+02  0.32337381838E+02  0.51100000000E-03 0. -1.
        -11    1    3    3    0    0 -0.12902737619E+02  0.86882326416E+00 -0.18580322012E+01  0.13064753188E+02  0.51100000000E-03 0.  1.
        -12    1    3    3    0    0  0.40366497521E+02 -0.91661410153E+01  0.16619106915E+02  0.44605683246E+02  0.00000000000E+00 0.  1.
</event>
<event>
 7    1  0.1935465E-015  0.9000783E+02  0.7816164E-02  0.1186339E+00
        -11   -1    0    0    0    0  0.00000000000E+00  0.00000000000E+00  0.45593999997E+02  0.45594000000E+02  0.51100000000E-03 0.  1.
         11   -1    0    0    0    0 -0.00000000000E+00 -0.00000000000E+00 -0.45593999997E+02  0.45594000000E+02  0.51100000000E-03 0. -1.
    9900012    2    1    2    0    0 -0.11255168278E+00 -0.26426701154E+00  0.11446793989E+01  0.90007832274E+02  0.90000094860E+02 0.  0.
         12    1    1    2    0    0  0.11255168278E+00  0.26426701154E+00 -0.11446793989E+01  0.11801677258E+01  0.00000000000E+00 0. -1.
         11    1    3    3    0    0 -0.11165280840E+02 -0.42051555158E+01 -0.51297587147E+00  0.11941941788E+02  0.51100000000E-03 0. -1.
        -11    1    3    3    0    0 -0.20106054295E+02  0.20291707191E+02  0.23206038679E+02  0.36803899678E+02  0.51100000000E-03 0.  1.
         12    1    3    3    0    0  0.31158783452E+02 -0.16350818687E+02 -0.21548383409E+02  0.41261990809E+02  0.00000000000E+00 0. -1.
</event>
<event>
 7    1  0.1935465E-015  0.9000772E+02  0.7816164E-02  0.1186339E+00
        -11   -1    0    0    0    0  0.00000000000E+00  0.00000000000E+00  0.45593999997E+02  0.45594000000E+02  0.51100000000E-03 0.  1.
         11   -1    0    0    0    0 -0.00000000000E+00 -0.00000000000E+00 -0.45593999997E+02  0.45594000000E+02  0.51100000000E-03 0. -1.
    9900012    2    1    2    0    0  0.62489851723E+00  0.82739158710E+00  0.56390706388E+00  0.90007717758E+02  0.89999978832E+02 0.  0.
         12    1    1    2    0    0 -0.62489851723E+00 -0.82739158710E+00 -0.56390706388E+00  0.11802822425E+01  0.00000000000E+00 0. -1.
         11    1    3    3    0    0  0.37653892540E+02  0.11658781093E+02 -0.31936771334E+01  0.39546711290E+02  0.51100000000E-03 0. -1.
        -11    1    3    3    0    0  0.84429741113E+00  0.79746970130E+01  0.13043945048E+00  0.80203270058E+01  0.51100000000E-03 0.  1.
        -12    1    3    3    0    0 -0.37873291434E+02 -0.18806086519E+02  0.36271447468E+01  0.42440679462E+02  0.00000000000E+00 0.  1.
</event>
<event>
 7    1  0.1935465E-015  0.9000797E+02  0.7816164E-02  0.1186339E+00
        -11   -1    0    0    0    0  0.00000000000E+00  0.00000000000E+00  0.45593999997E+02  0.45594000000E+02  0.51100000000E-03 0.  1.
         11   -1    0    0    0    0 -0.00000000000E+00 -0.00000000000E+00 -0.45593999997E+02  0.45594000000E+02  0.51100000000E-03 0. -1.
    9900012    2    1    2    0    0 -0.11539028844E+01  0.74528047556E-01  0.23541808362E+00  0.90007971199E+02  0.90000235619E+02 0.  0.
         12    1    1    2    0    0  0.11539028844E+01 -0.74528047556E-01 -0.23541808362E+00  0.11800288008E+01  0.00000000000E+00 0. -1.
         11    1    3    3    0    0  0.53639063915E+01 -0.72232319354E+01  0.66129529728E+01  0.11165917725E+02  0.51100000000E-03 0. -1.
        -11    1    3    3    0    0  0.34918656556E+01 -0.24341525535E+02  0.23628419261E+02  0.34102861876E+02  0.51100000000E-03 0.  1.
         12    1    3    3    0    0 -0.10009674931E+02  0.31639285518E+02 -0.30005954150E+02  0.44739191597E+02  0.00000000000E+00 0. -1.
</event>
<event>
 7    1  0.1935465E-015  0.9000718E+02  0.7816164E-02  0.1186340E+00
        -11   -1    0    0    0    0  0.00000000000E+00  0.00000000000E+00  0.45593999997E+02  0.45594000000E+02  0.51100000000E-03 0.  1.
         11   -1    0    0    0    0 -0.00000000000E+00 -0.00000000000E+00 -0.45593999997E+02  0.45594000000E+02  0.51100000000E-03 0. -1.
    9900012    2    1    2    0    0 -0.10420163842E+01 -0.50026277919E+00  0.24141128027E+00  0.90007178083E+02  0.89999432032E+02 0.  0.
         12    1    1    2    0    0  0.10420163842E+01  0.50026277919E+00 -0.24141128027E+00  0.11808219169E+01  0.00000000000E+00 0. -1.
         11    1    3    3    0    0  0.35660741488E+01 -0.43377457424E+01 -0.80800881279E+01  0.98397534205E+01  0.51100000000E-03 0. -1.
        -11    1    3    3    0    0 -0.14111930831E+02 -0.27182713738E+02  0.28602592156E+02  0.41906500644E+02  0.51100000000E-03 0.  1.
         12    1    3    3    0    0  0.95038402976E+01  0.31020196701E+02 -0.20281092748E+02  0.38260924019E+02  0.00000000000E+00 0. -1.
</event>
<event>
 7    1  0.1935465E-015  0.9000769E+02  0.7816164E-02  0.1186339E+00
        -11   -1    0    0    0    0  0.00000000000E+00  0.00000000000E+00  0.45593999997E+02  0.45594000000E+02  0.51100000000E-03 0.  1.
         11   -1    0    0    0    0 -0.00000000000E+00 -0.00000000000E+00 -0.45593999997E+02  0.45594000000E+02  0.51100000000E-03 0. -1.
    9900012    2    1    2    0    0 -0.10830354076E+01  0.35913345836E+00 -0.30198132667E+00  0.90007688492E+02  0.89999949180E+02 0.  0.
         12    1    1    2    0    0  0.10830354076E+01 -0.35913345836E+00  0.30198132667E+00  0.11803115083E+01  0.00000000000E+00 0. -1.
         11    1    3    3    0    0 -0.39253331302E+01  0.45904481258E+01 -0.57659948962E+01  0.83502785333E+01  0.51100000000E-03 0. -1.
        -11    1    3    3    0    0 -0.31721214442E+02  0.94271779527E+01 -0.18034263576E+02  0.37687422210E+02  0.51100000000E-03 0.  1.
         12    1    3    3    0    0  0.34563512164E+02 -0.13658492620E+02  0.23498277146E+02  0.43969987749E+02  0.00000000000E+00 0. -1.
</event>
<event>
 7    1  0.1935465E-015  0.9000773E+02  0.7816164E-02  0.1186339E+00
        -11   -1    0    0    0    0  0.00000000000E+00  0.00000000000E+00  0.45593999997E+02  0.45594000000E+02  0.51100000000E-03 0. -1.
         11   -1    0    0    0    0 -0.00000000000E+00 -0.00000000000E+00 -0.45593999997E+02  0.45594000000E+02  0.51100000000E-03 0.  1.
    9900012    2    1    2    0    0  0.11271164921E+01 -0.20221732250E+00 -0.28591612912E+00  0.90007732460E+02  0.89999993729E+02 0.  0.
         12    1    1    2    0    0 -0.11271164921E+01  0.20221732250E+00  0.28591612912E+00  0.11802675397E+01  0.00000000000E+00 0. -1.
         11    1    3    3    0    0 -0.16858557884E+00 -0.91608656972E+01  0.39334321920E+01  0.99710466095E+01  0.51100000000E-03 0. -1.
        -11    1    3    3    0    0 -0.19922243536E+02 -0.27820655523E+02 -0.13130336727E+02  0.36650926374E+02  0.51100000000E-03 0.  1.
         12    1    3    3    0    0  0.21217945607E+02  0.36779303898E+02  0.89109884062E+01  0.43385759477E+02  0.00000000000E+00 0. -1.
</event>
<event>
 7    1  0.1935465E-015  0.9000794E+02  0.7816164E-02  0.1186339E+00
        -11   -1    0    0    0    0  0.00000000000E+00  0.00000000000E+00  0.45593999997E+02  0.45594000000E+02  0.51100000000E-03 0.  1.
         11   -1    0    0    0    0 -0.00000000000E+00 -0.00000000000E+00 -0.45593999997E+02  0.45594000000E+02  0.51100000000E-03 0. -1.
    9900012    2    1    2    0    0  0.63654576462E+00  0.92863156768E+00  0.35353941573E+00  0.90007941858E+02  0.90000205891E+02 0.  0.
         12    1    1    2    0    0 -0.63654576462E+00 -0.92863156768E+00 -0.35353941573E+00  0.11800581415E+01  0.00000000000E+00 0. -1.
         11    1    3    3    0    0 -0.34539758950E+02  0.50864717055E+01 -0.88129789155E+01  0.36007440070E+02  0.51100000000E-03 0. -1.
        -11    1    3    3    0    0 -0.84883347016E+01  0.26208795190E+01  0.58667740908E-01  0.88839336797E+01  0.51100000000E-03 0.  1.
        -12    1    3    3    0    0  0.43664639417E+02 -0.67787196568E+01  0.91078505903E+01  0.45116568109E+02  0.00000000000E+00 0.  1.
</event>
<event>
 7    1  0.1935465E-015  0.9000773E+02  0.7816164E-02  0.1186339E+00
        -11   -1    0    0    0    0  0.00000000000E+00  0.00000000000E+00  0.45593999997E+02  0.45594000000E+02  0.51100000000E-03 0.  1.
         11   -1    0    0    0    0 -0.00000000000E+00 -0.00000000000E+00 -0.45593999997E+02  0.45594000000E+02  0.51100000000E-03 0. -1.
    9900012    2    1    2    0    0 -0.42106486778E+00  0.10528505937E+01  0.32749759344E+00  0.90007726867E+02  0.89999988061E+02 0.  0.
         12    1    1    2    0    0  0.42106486778E+00 -0.10528505937E+01 -0.32749759344E+00  0.11802731333E+01  0.00000000000E+00 0. -1.
         11    1    3    3    0    0 -0.22294712583E+01 -0.18996185578E+01 -0.97839056908E+01  0.10212928257E+02  0.51100000000E-03 0. -1.
        -11    1    3    3    0    0  0.88782477851E+01 -0.32249062157E+02 -0.14300281496E+02  0.36377511527E+02  0.51100000000E-03 0.  1.
         12    1    3    3    0    0 -0.70698413946E+01  0.35201531309E+02  0.24411684780E+02  0.43417287083E+02  0.00000000000E+00 0. -1.
</event>
<event>
 7    1  0.1935465E-015  0.9000771E+02  0.7816164E-02  0.1186339E+00
        -11   -1    0    0    0    0  0.00000000000E+00  0.00000000000E+00  0.45593999997E+02  0.45594000000E+02  0.51100000000E-03 0.  1.
         11   -1    0    0    0    0 -0.00000000000E+00 -0.00000000000E+00 -0.45593999997E+02  0.45594000000E+02  0.51100000000E-03 0. -1.
    9900012    2    1    2    0    0 -0.67547671971E+00  0.49307024472E-01  0.96664036830E+00  0.90007706145E+02  0.89999967067E+02 0.  0.
         12    1    1    2    0    0  0.67547671971E+00 -0.49307024472E-01 -0.96664036830E+00  0.11802938546E+01  0.00000000000E+00 0. -1.
         11    1    3    3    0    0 -0.39891162199E+01 -0.84823417850E+01  0.95721525322E+01  0.13397360738E+02  0.51100000000E-03 0. -1.
        -11    1    3    3    0    0  0.31494343493E+02  0.12063399108E+02  0.17533833320E+02  0.38011242827E+02  0.51100000000E-03 0.  1.
         12    1    3    3    0    0 -0.28180703993E+02 -0.35317502981E+01 -0.26139345484E+02  0.38599102581E+02  0.00000000000E+00 0. -1.
</event>
<event>
 7    1  0.2468310E-015  0.9000781E+02  0.7816164E-02  0.1186339E+00
        -11   -1    0    0    0    0  0.00000000000E+00  0.00000000000E+00  0.45593999997E+02  0.45594000000E+02  0.51100000000E-03 0.  1.
         11   -1    0    0    0    0 -0.00000000000E+00 -0.00000000000E+00 -0.45593999997E+02  0.45594000000E+02  0.51100000000E-03 0. -1.
    9900012    2    1    2    0    0  0.97504449848E+00  0.65096733024E+00 -0.13558742153E+00  0.90007807563E+02  0.90000069823E+02 0.  0.
         12    1    1    2    0    0 -0.97504449848E+00 -0.65096733024E+00  0.13558742153E+00  0.11801924368E+01  0.00000000000E+00 0. -1.
         11    1    3    3    0    0 -0.85356357949E+01  0.40790945593E+01  0.18579002076E+01  0.96409483086E+01  0.51100000000E-03 0. -1.
        -11    1    3    3    0    0 -0.33940084260E+02 -0.76168401269E+01 -0.95362452693E+01  0.36067790994E+02  0.51100000000E-03 0.  1.
         12    1    3    3    0    0  0.43450764553E+02  0.41887128978E+01  0.75427576401E+01  0.44299068261E+02  0.00000000000E+00 0. -1.
</event>
<event>
 7    1  0.1935465E-015  0.9000776E+02  0.7816164E-02  0.1186339E+00
        -11   -1    0    0    0    0  0.00000000000E+00  0.00000000000E+00  0.45593999997E+02  0.45594000000E+02  0.51100000000E-03 0.  1.
         11   -1    0    0    0    0 -0.00000000000E+00 -0.00000000000E+00 -0.45593999997E+02  0.45594000000E+02  0.51100000000E-03 0. -1.
    9900012    2    1    2    0    0 -0.77927660435E+00  0.23510055698E-01  0.88608754366E+00  0.90007756007E+02  0.90000017586E+02 0.  0.
         12    1    1    2    0    0  0.77927660435E+00 -0.23510055698E-01 -0.88608754366E+00  0.11802439933E+01  0.00000000000E+00 0. -1.
         11    1    3    3    0    0  0.73215436727E+01 -0.55646573285E+01  0.33700566153E+01  0.97942684661E+01  0.51100000000E-03 0. -1.
        -11    1    3    3    0    0  0.35663512785E+02  0.32940763661E+01  0.34848741474E+01  0.35984460971E+02  0.51100000000E-03 0.  1.
         12    1    3    3    0    0 -0.43764333062E+02  0.22940910181E+01 -0.59688432191E+01  0.44229026570E+02  0.00000000000E+00 0. -1.
</event>
<event>
 7    1  0.1935465E-015  0.9000772E+02  0.7816164E-02  0.1186339E+00
        -11   -1    0    0    0    0  0.00000000000E+00  0.00000000000E+00  0.45593999997E+02  0.45594000000E+02  0.51100000000E-03 0. -1.
         11   -1    0    0    0    0 -0.00000000000E+00 -0.00000000000E+00 -0.45593999997E+02  0.45594000000E+02  0.51100000000E-03 0.  1.
    9900012    2    1    2    0    0  0.26053146458E+00 -0.10866587125E+01  0.37993699786E+00  0.90007722099E+02  0.89999983231E+02 0.  0.
         12    1    1    2    0    0 -0.26053146458E+00  0.10866587125E+01 -0.37993699786E+00  0.11802779011E+01  0.00000000000E+00 0. -1.
         11    1    3    3    0    0 -0.15975588925E+02 -0.23812305793E+02  0.17168048361E+02  0.33421358941E+02  0.51100000000E-03 0. -1.
        -11    1    3    3    0    0 -0.76213279943E-01 -0.10032571045E+02  0.76198178482E+01  0.12598409206E+02  0.51100000000E-03 0.  1.
        -12    1    3    3    0    0  0.16312333669E+02  0.32758218125E+02 -0.24407929211E+02  0.43987953952E+02  0.00000000000E+00 0.  1.
</event>
<event>
 7    1  0.1935465E-015  0.9000809E+02  0.7816164E-02  0.1186338E+00
        -11   -1    0    0    0    0  0.00000000000E+00  0.00000000000E+00  0.45593999997E+02  0.45594000000E+02  0.51100000000E-03 0.  1.
         11   -1    0    0    0    0 -0.00000000000E+00 -0.00000000000E+00 -0.45593999997E+02  0.45594000000E+02  0.51100000000E-03 0. -1.
    9900012    2    1    2    0    0 -0.52648991620E+00 -0.94187739742E+00  0.47735291660E+00  0.90008088787E+02  0.90000354758E+02 0.  0.
         12    1    1    2    0    0  0.52648991620E+00  0.94187739742E+00 -0.47735291660E+00  0.11799112130E+01  0.00000000000E+00 0. -1.
         11    1    3    3    0    0 -0.28272644921E+02  0.49614455717E+01  0.27416434606E+02  0.39694071091E+02  0.51100000000E-03 0. -1.
        -11    1    3    3    0    0 -0.96592455382E+00 -0.94573955089E+01  0.16403673534E+01  0.96470796291E+01  0.51100000000E-03 0.  1.
        -12    1    3    3    0    0  0.28712079558E+02  0.35540725398E+01 -0.28579449043E+02  0.40666938067E+02  0.00000000000E+00 0.  1.
</event>
<event>
 7    1  0.1935465E-015  0.9000766E+02  0.7816164E-02  0.1186339E+00
        -11   -1    0    0    0    0  0.00000000000E+00  0.00000000000E+00  0.45593999997E+02  0.45594000000E+02  0.51100000000E-03 0.  1.
         11   -1    0    0    0    0 -0.00000000000E+00 -0.00000000000E+00 -0.45593999997E+02  0.45594000000E+02  0.51100000000E-03 0. -1.
    9900012    2    1    2    0    0 -0.84371993054E+00  0.52546798634E+00  0.63657956261E+00  0.90007655362E+02  0.89999915612E+02 0.  0.
         12    1    1    2    0    0  0.84371993054E+00 -0.52546798634E+00 -0.63657956261E+00  0.11803446384E+01  0.00000000000E+00 0. -1.
         11    1    3    3    0    0  0.10411627385E+02  0.72376664320E+01 -0.45865873491E+00  0.12688426549E+02  0.51100000000E-03 0. -1.
        -11    1    3    3    0    0  0.25312321747E+02  0.12365693773E+02 -0.16309897972E+02  0.32552062712E+02  0.51100000000E-03 0.  1.
        -12    1    3    3    0    0 -0.36567669063E+02 -0.19077892218E+02  0.17405136269E+02  0.44767166101E+02  0.00000000000E+00 0.  1.
</event>
<event>
 7    1  0.1935465E-015  0.9000771E+02  0.7816164E-02  0.1186339E+00
        -11   -1    0    0    0    0  0.00000000000E+00  0.00000000000E+00  0.45593999997E+02  0.45594000000E+02  0.51100000000E-03 0.  1.
         11   -1    0    0    0    0 -0.00000000000E+00 -0.00000000000E+00 -0.45593999997E+02  0.45594000000E+02  0.51100000000E-03 0. -1.
    9900012    2    1    2    0    0  0.92965220838E+00  0.72719949618E+00 -0.26715769534E-02  0.90007712123E+02  0.89999973123E+02 0.  0.
         12    1    1    2    0    0 -0.92965220838E+00 -0.72719949618E+00  0.26715769534E-02  0.11802878772E+01  0.00000000000E+00 0. -1.
         11    1    3    3    0    0  0.49548665997E+01  0.68860979339E+00  0.69170512654E+01  0.85364210848E+01  0.51100000000E-03 0. -1.
        -11    1    3    3    0    0  0.26949841076E+02 -0.28334689594E+02 -0.16869475809E+01  0.39140699544E+02  0.51100000000E-03 0.  1.
         12    1    3    3    0    0 -0.30975055467E+02  0.28373279297E+02 -0.52327752614E+01  0.42330591494E+02  0.00000000000E+00 0. -1.
</event>
<event>
 7    1  0.1935465E-015  0.9000778E+02  0.7816164E-02  0.1186339E+00
        -11   -1    0    0    0    0  0.00000000000E+00  0.00000000000E+00  0.45593999997E+02  0.45594000000E+02  0.51100000000E-03 0. -1.
         11   -1    0    0    0    0 -0.00000000000E+00 -0.00000000000E+00 -0.45593999997E+02  0.45594000000E+02  0.51100000000E-03 0.  1.
    9900012    2    1    2    0    0  0.35193848500E+00 -0.11152551101E+01 -0.15893771487E+00  0.90007781438E+02  0.90000043353E+02 0.  0.
         12    1    1    2    0    0 -0.35193848500E+00  0.11152551101E+01  0.15893771487E+00  0.11802185624E+01  0.00000000000E+00 0. -1.
         11    1    3    3    0    0  0.61005288450E+01  0.89885587280E+01 -0.44632017263E+01  0.11744394838E+02  0.51100000000E-03 0. -1.
        -11    1    3    3    0    0  0.16810134051E+02  0.21409603950E+02 -0.18857304611E+02  0.33114191604E+02  0.51100000000E-03 0.  1.
         12    1    3    3    0    0 -0.22558724411E+02 -0.31513417788E+02  0.23161568623E+02  0.45149194996E+02  0.00000000000E+00 0. -1.
</event>
<event>
 7    1  0.1935465E-015  0.9000774E+02  0.7816164E-02  0.1186339E+00
        -11   -1    0    0    0    0  0.00000000000E+00  0.00000000000E+00  0.45593999997E+02  0.45594000000E+02  0.51100000000E-03 0. -1.
         11   -1    0    0    0    0 -0.00000000000E+00 -0.00000000000E+00 -0.45593999997E+02  0.45594000000E+02  0.51100000000E-03 0.  1.
    9900012    2    1    2    0    0 -0.62812519840E+00 -0.91640216418E+00  0.39834839068E+00  0.90007739168E+02  0.90000000525E+02 0.  0.
         12    1    1    2    0    0  0.62812519840E+00  0.91640216418E+00 -0.39834839068E+00  0.11802608321E+01  0.00000000000E+00 0. -1.
         11    1    3    3    0    0 -0.24726266622E+02 -0.13941184131E+02  0.30742587153E+02  0.41843177953E+02  0.51100000000E-03 0. -1.
        -11    1    3    3    0    0 -0.51724784233E+01  0.46431126165E+01 -0.59818225884E+01  0.91703451161E+01  0.51100000000E-03 0.  1.
        -12    1    3    3    0    0  0.29270619847E+02  0.83816693508E+01 -0.24362416174E+02  0.38994216099E+02  0.00000000000E+00 0.  1.
</event>
<event>
 7    1  0.1935465E-015  0.9000779E+02  0.7816164E-02  0.1186339E+00
        -11   -1    0    0    0    0  0.00000000000E+00  0.00000000000E+00  0.45593999997E+02  0.45594000000E+02  0.51100000000E-03 0.  1.
         11   -1    0    0    0    0 -0.00000000000E+00 -0.00000000000E+00 -0.45593999997E+02  0.45594000000E+02  0.51100000000E-03 0. -1.
    9900012    2    1    2    0    0 -0.93744771237E+00 -0.48496860133E+00 -0.52810289200E+00  0.90007790094E+02  0.90000052123E+02 0.  0.
         12    1    1    2    0    0  0.93744771237E+00  0.48496860133E+00  0.52810289200E+00  0.11802099060E+01  0.00000000000E+00 0. -1.
         11    1    3    3    0    0 -0.12631767729E+02 -0.89732878808E+01 -0.39308246126E+02  0.42251859901E+02  0.51100000000E-03 0. -1.
        -11    1    3    3    0    0  0.50828305247E+01 -0.68084040707E+01  0.44415047364E+01  0.95873091490E+01  0.51100000000E-03 0.  1.
        -12    1    3    3    0    0  0.66114894922E+01  0.15296723350E+02  0.34338638497E+02  0.38168621044E+02  0.00000000000E+00 0.  1.
</event>
<event>
 7    1  0.1935465E-015  0.9000764E+02  0.7816164E-02  0.1186339E+00
        -11   -1    0    0    0    0  0.00000000000E+00  0.00000000000E+00  0.45593999997E+02  0.45594000000E+02  0.51100000000E-03 0.  1.
         11   -1    0    0    0    0 -0.00000000000E+00 -0.00000000000E+00 -0.45593999997E+02  0.45594000000E+02  0.51100000000E-03 0. -1.
    9900012    2    1    2    0    0 -0.18641651247E+00  0.10327013838E+01 -0.54039902062E+00  0.90007638036E+02  0.89999898058E+02 0.  0.
         12    1    1    2    0    0  0.18641651247E+00 -0.10327013838E+01  0.54039902062E+00  0.11803619639E+01  0.00000000000E+00 0. -1.
         11    1    3    3    0    0 -0.65179109123E+01 -0.46795930556E+00  0.52440555984E+01  0.83786793680E+01  0.51100000000E-03 0. -1.
        -11    1    3    3    0    0 -0.24818503893E+02 -0.16637348819E+02  0.21170678941E+02  0.36619081888E+02  0.51100000000E-03 0.  1.
         12    1    3    3    0    0  0.31149998293E+02  0.18138009508E+02 -0.26955133560E+02  0.45009876781E+02  0.00000000000E+00 0. -1.
</event>
<event>
 7    1  0.1935465E-015  0.9000778E+02  0.7816164E-02  0.1186339E+00
        -11   -1    0    0    0    0  0.00000000000E+00  0.00000000000E+00  0.45593999997E+02  0.45594000000E+02  0.51100000000E-03 0.  1.
         11   -1    0    0    0    0 -0.00000000000E+00 -0.00000000000E+00 -0.45593999997E+02  0.45594000000E+02  0.51100000000E-03 0. -1.
    9900012    2    1    2    0    0  0.11527579818E+01 -0.15510684779E+00 -0.20004032953E+00  0.90007777465E+02  0.90000039327E+02 0.  0.
         12    1    1    2    0    0 -0.11527579818E+01  0.15510684779E+00  0.20004032953E+00  0.11802225351E+01  0.00000000000E+00 0. -1.
         11    1    3    3    0    0  0.26124818975E+02  0.67499199141E+01  0.14778709732E+02  0.30764880090E+02  0.51100000000E-03 0. -1.
        -11    1    3    3    0    0  0.13071335961E+01  0.15153975042E+02  0.87304317493E+01  0.17537730657E+02  0.51100000000E-03 0.  1.
        -12    1    3    3    0    0 -0.26279194589E+02 -0.22059001804E+02 -0.23709181811E+02  0.41705166718E+02  0.00000000000E+00 0.  1.
</event>
<event>
 7    1  0.1935465E-015  0.9000785E+02  0.7816164E-02  0.1186339E+00
        -11   -1    0    0    0    0  0.00000000000E+00  0.00000000000E+00  0.45593999997E+02  0.45594000000E+02  0.51100000000E-03 0.  1.
         11   -1    0    0    0    0 -0.00000000000E+00 -0.00000000000E+00 -0.45593999997E+02  0.45594000000E+02  0.51100000000E-03 0. -1.
    9900012    2    1    2    0    0  0.65343302038E+00 -0.82374816385E+00  0.53591822544E+00  0.90007854206E+02  0.90000117082E+02 0.  0.
         12    1    1    2    0    0 -0.65343302038E+00  0.82374816385E+00 -0.53591822544E+00  0.11801457935E+01  0.00000000000E+00 0. -1.
         11    1    3    3    0    0  0.30338446388E+01  0.84626789887E+01 -0.45514528619E+01  0.10076550619E+02  0.51100000000E-03 0. -1.
        -11    1    3    3    0    0 -0.25185454020E+02  0.17247958671E+02  0.25192339729E+02  0.39578443044E+02  0.51100000000E-03 0.  1.
         12    1    3    3    0    0  0.22805042401E+02 -0.26534385823E+02 -0.20104968642E+02  0.40352860544E+02  0.00000000000E+00 0. -1.
</event>
<event>
 7    1  0.1935465E-015  0.9000775E+02  0.7816164E-02  0.1186339E+00
        -11   -1    0    0    0    0  0.00000000000E+00  0.00000000000E+00  0.45593999997E+02  0.45594000000E+02  0.51100000000E-03 0. -1.
         11   -1    0    0    0    0 -0.00000000000E+00 -0.00000000000E+00 -0.45593999997E+02  0.45594000000E+02  0.51100000000E-03 0.  1.
    9900012    2    1    2    0    0 -0.82287270076E+00  0.78901969902E+00  0.30549294981E+00  0.90007746845E+02  0.90000008304E+02 0.  0.
         12    1    1    2    0    0  0.82287270076E+00 -0.78901969902E+00 -0.30549294981E+00  0.11802531548E+01  0.00000000000E+00 0. -1.
         11    1    3    3    0    0  0.45072787240E+01 -0.28989760198E+01 -0.99810958455E+01  0.11328808322E+02  0.51100000000E-03 0. -1.
        -11    1    3    3    0    0  0.36193699514E+02  0.30094435894E-01  0.70045744724E+01  0.36865279790E+02  0.51100000000E-03 0.  1.
         12    1    3    3    0    0 -0.41523850939E+02  0.36579012829E+01  0.32820143228E+01  0.41813658733E+02  0.00000000000E+00 0. -1.
</event>
<event>
 7    1  0.1935465E-015  0.9000777E+02  0.7816164E-02  0.1186339E+00
        -11   -1    0    0    0    0  0.00000000000E+00  0.00000000000E+00  0.45593999997E+02  0.45594000000E+02  0.51100000000E-03 0. -1.
         11   -1    0    0    0    0 -0.00000000000E+00 -0.00000000000E+00 -0.45593999997E+02  0.45594000000E+02  0.51100000000E-03 0.  1.
    9900012    2    1    2    0    0 -0.69102472675E+00  0.94245184691E+00  0.16497086484E+00  0.90007768649E+02  0.90000030395E+02 0.  0.
         12    1    1    2    0    0  0.69102472675E+00 -0.94245184691E+00 -0.16497086484E+00  0.11802313515E+01  0.00000000000E+00 0. -1.
         11    1    3    3    0    0 -0.16617281954E+01 -0.27383690002E+02  0.33679812536E+02  0.43439125123E+02  0.51100000000E-03 0. -1.
        -11    1    3    3    0    0  0.22118900207E+00  0.91607721368E+01 -0.15538091001E+01  0.92942451925E+01  0.51100000000E-03 0.  1.
        -12    1    3    3    0    0  0.74951446660E+00  0.19165369712E+02 -0.31961032571E+02  0.37274398333E+02  0.00000000000E+00 0.  1.
</event>
<event>
 7    1  0.1935465E-015  0.9000774E+02  0.7816164E-02  0.1186339E+00
        -11   -1    0    0    0    0  0.00000000000E+00  0.00000000000E+00  0.45593999997E+02  0.45594000000E+02  0.51100000000E-03 0. -1.
         11   -1    0    0    0    0 -0.00000000000E+00 -0.00000000000E+00 -0.45593999997E+02  0.45594000000E+02  0.51100000000E-03 0.  1.
    9900012    2    1    2    0    0  0.29084976931E+00 -0.99729278600E+00 -0.56020285661E+00  0.90007739974E+02  0.90000001341E+02 0.  0.
         12    1    1    2    0    0 -0.29084976931E+00  0.99729278600E+00  0.56020285661E+00  0.11802600264E+01  0.00000000000E+00 0. -1.
         11    1    3    3    0    0  0.19879247816E+02  0.29101404583E+02 -0.14753903721E+02  0.38206726079E+02  0.51100000000E-03 0. -1.
        -11    1    3    3    0    0  0.86656461036E+00 -0.23447367633E+01 -0.95936373448E+01  0.99139599797E+01  0.51100000000E-03 0.  1.
        -12    1    3    3    0    0 -0.20454962657E+02 -0.27753960606E+02  0.23787338209E+02  0.41887053915E+02  0.00000000000E+00 0.  1.
</event>
<event>
 7    1  0.1935465E-015  0.9000772E+02  0.7816164E-02  0.1186339E+00
        -11   -1    0    0    0    0  0.00000000000E+00  0.00000000000E+00  0.45593999997E+02  0.45594000000E+02  0.51100000000E-03 0. -1.
         11   -1    0    0    0    0 -0.00000000000E+00 -0.00000000000E+00 -0.45593999997E+02  0.45594000000E+02  0.51100000000E-03 0.  1.
    9900012    2    1    2    0    0  0.34954391625E+00  0.25138066708E+00 -0.10989471676E+01  0.90007721191E+02  0.89999982311E+02 0.  0.
         12    1    1    2    0    0 -0.34954391625E+00 -0.25138066708E+00  0.10989471676E+01  0.11802788088E+01  0.00000000000E+00 0. -1.
         11    1    3    3    0    0 -0.13094582588E+02 -0.19486642039E+02  0.15718270637E+02  0.28253519129E+02  0.51100000000E-03 0. -1.
        -11    1    3    3    0    0  0.14208939356E+02 -0.15823149818E+02  0.22695416763E+01  0.21387305755E+02  0.51100000000E-03 0.  1.
        -12    1    3    3    0    0 -0.76481285196E+00  0.35561172524E+02 -0.19086759481E+02  0.40366896307E+02  0.00000000000E+00 0.  1.
</event>
<event>
 7    1  0.1935465E-015  0.9000776E+02  0.7816164E-02  0.1186339E+00
        -11   -1    0    0    0    0  0.00000000000E+00  0.00000000000E+00  0.45593999997E+02  0.45594000000E+02  0.51100000000E-03 0. -1.
         11   -1    0    0    0    0 -0.00000000000E+00 -0.00000000000E+00 -0.45593999997E+02  0.45594000000E+02  0.51100000000E-03 0.  1.
    9900012    2    1    2    0    0  0.97572843423E+00 -0.35398197595E+00 -0.56179408409E+00  0.90007761969E+02  0.90000023627E+02 0.  0.
         12    1    1    2    0    0 -0.97572843423E+00  0.35398197595E+00  0.56179408409E+00  0.11802380309E+01  0.00000000000E+00 0. -1.
         11    1    3    3    0    0 -0.28942284640E+02  0.23722409200E+02  0.19732136210E+02  0.42305623008E+02  0.51100000000E-03 0. -1.
        -11    1    3    3    0    0  0.73528392639E+01  0.18870257440E+01  0.32297585255E+00  0.75979882246E+01  0.51100000000E-03 0.  1.
        -12    1    3    3    0    0  0.22565173810E+02 -0.25963416920E+02 -0.20616906147E+02  0.40104150737E+02  0.00000000000E+00 0.  1.
</event>
<event>
 7    1  0.1935465E-015  0.9000776E+02  0.7816164E-02  0.1186339E+00
        -11   -1    0    0    0    0  0.00000000000E+00  0.00000000000E+00  0.45593999997E+02  0.45594000000E+02  0.51100000000E-03 0. -1.
         11   -1    0    0    0    0 -0.00000000000E+00 -0.00000000000E+00 -0.45593999997E+02  0.45594000000E+02  0.51100000000E-03 0.  1.
    9900012    2    1    2    0    0  0.47991501026E+00  0.96096961183E+00  0.48906444663E+00  0.90007760598E+02  0.90000022238E+02 0.  0.
         12    1    1    2    0    0 -0.47991501026E+00 -0.96096961183E+00 -0.48906444663E+00  0.11802394015E+01  0.00000000000E+00 0. -1.
         11    1    3    3    0    0  0.73657436480E+01  0.64352482742E+01  0.18693593704E+01  0.99579668887E+01  0.51100000000E-03 0. -1.
        -11    1    3    3    0    0  0.23776286138E+02 -0.23962016866E+02 -0.20466179976E+02  0.39475999770E+02  0.51100000000E-03 0.  1.
         12    1    3    3    0    0 -0.30662114776E+02  0.18487738204E+02  0.19085885052E+02  0.40573793939E+02  0.00000000000E+00 0. -1.
</event>
<event>
 7    1  0.1935465E-015  0.9000770E+02  0.7816164E-02  0.1186339E+00
        -11   -1    0    0    0    0  0.00000000000E+00  0.00000000000E+00  0.45593999997E+02  0.45594000000E+02  0.51100000000E-03 0.  1.
         11   -1    0    0    0    0 -0.00000000000E+00 -0.00000000000E+00 -0.45593999997E+02  0.45594000000E+02  0.51100000000E-03 0. -1.
    9900012    2    1    2    0    0  0.55124694017E+00 -0.86435859000E-01  0.10400766298E+01  0.90007701842E+02  0.89999962706E+02 0.  0.
         12    1    1    2    0    0 -0.55124694017E+00  0.86435859000E-01 -0.10400766298E+01  0.11802981584E+01  0.00000000000E+00 0. -1.
         11    1    3    3    0    0 -0.29264348503E+01 -0.50032552274E+01 -0.68951428244E+01  0.90077510308E+01  0.51100000000E-03 0. -1.
        -11    1    3    3    0    0 -0.32994363802E+02 -0.47347317215E+00 -0.16375912474E+02  0.36837789417E+02  0.51100000000E-03 0.  1.
         12    1    3    3    0    0  0.36472045592E+02  0.53902925405E+01  0.24311131928E+02  0.44162161394E+02  0.00000000000E+00 0. -1.
</event>
<event>
 7    1  0.1935465E-015  0.9000770E+02  0.7816164E-02  0.1186339E+00
        -11   -1    0    0    0    0  0.00000000000E+00  0.00000000000E+00  0.45593999997E+02  0.45594000000E+02  0.51100000000E-03 0.  1.
         11   -1    0    0    0    0 -0.00000000000E+00 -0.00000000000E+00 -0.45593999997E+02  0.45594000000E+02  0.51100000000E-03 0. -1.
    9900012    2    1    2    0    0  0.36238600058E+00 -0.99824655520E+00  0.51505089076E+00  0.90007704605E+02  0.89999965506E+02 0.  0.
         12    1    1    2    0    0 -0.36238600058E+00  0.99824655520E+00 -0.51505089076E+00  0.11802953946E+01  0.00000000000E+00 0. -1.
         11    1    3    3    0    0 -0.28946807628E+02  0.71126359975E+01 -0.12284462151E+02  0.32239963916E+02  0.51100000000E-03 0. -1.
        -11    1    3    3    0    0 -0.50393491629E+01  0.14195590187E+02  0.77710176628E+00  0.15083557543E+02  0.51100000000E-03 0.  1.
        -12    1    3    3    0    0  0.34348542792E+02 -0.22306472740E+02  0.12022411275E+02  0.42684183146E+02  0.00000000000E+00 0.  1.
</event>
<event>
 7    1  0.1935465E-015  0.9000773E+02  0.7816164E-02  0.1186339E+00
        -11   -1    0    0    0    0  0.00000000000E+00  0.00000000000E+00  0.45593999997E+02  0.45594000000E+02  0.51100000000E-03 0.  1.
         11   -1    0    0    0    0 -0.00000000000E+00 -0.00000000000E+00 -0.45593999997E+02  0.45594000000E+02  0.51100000000E-03 0. -1.
    9900012    2    1    2    0    0  0.25229801340E-01  0.62310675837E+00  0.10020645609E+01  0.90007732251E+02  0.89999993517E+02 0.  0.
         12    1    1    2    0    0 -0.25229801340E-01 -0.62310675837E+00 -0.10020645609E+01  0.11802677490E+01  0.00000000000E+00 0. -1.
         11    1    3    3    0    0  0.13019372742E+02  0.38466285809E+02 -0.20018100083E+01  0.40659149697E+02  0.51100000000E-03 0. -1.
        -11    1    3    3    0    0  0.27893919835E+01 -0.25334417121E+01 -0.82482453782E+01  0.90682184924E+01  0.51100000000E-03 0.  1.
        -12    1    3    3    0    0 -0.15783534924E+02 -0.35309737339E+02  0.11252119947E+02  0.40280364061E+02  0.00000000000E+00 0.  1.
</event>
<event>
 7    1  0.1935465E-015  0.9000772E+02  0.7816164E-02  0.1186339E+00
        -11   -1    0    0    0    0  0.00000000000E+00  0.00000000000E+00  0.45593999997E+02  0.45594000000E+02  0.51100000000E-03 0.  1.
         11   -1    0    0    0    0 -0.00000000000E+00 -0.00000000000E+00 -0.45593999997E+02  0.45594000000E+02  0.51100000000E-03 0. -1.
    9900012    2    1    2    0    0  0.36921742847E+00  0.10985305356E+00  0.11156452805E+01  0.90007723086E+02  0.89999984230E+02 0.  0.
         12    1    1    2    0    0 -0.36921742847E+00 -0.10985305356E+00 -0.11156452805E+01  0.11802769144E+01  0.00000000000E+00 0. -1.
         11    1    3    3    0    0 -0.10737787733E+02 -0.25018495658E+00  0.16653893512E+01  0.10869047790E+02  0.51100000000E-03 0. -1.
        -11    1    3    3    0    0 -0.31424224837E+02 -0.13308840673E+02 -0.38519654148E+01  0.34343045650E+02  0.51100000000E-03 0.  1.
         12    1    3    3    0    0  0.42531229998E+02  0.13668878683E+02  0.33022213440E+01  0.44795629646E+02  0.00000000000E+00 0. -1.
</event>
<event>
 7    1  0.1935465E-015  0.9000767E+02  0.7816164E-02  0.1186339E+00
        -11   -1    0    0    0    0  0.00000000000E+00  0.00000000000E+00  0.45593999997E+02  0.45594000000E+02  0.51100000000E-03 0.  1.
         11   -1    0    0    0    0 -0.00000000000E+00 -0.00000000000E+00 -0.45593999997E+02  0.45594000000E+02  0.51100000000E-03 0. -1.
    9900012    2    1    2    0    0 -0.43157196926E+00 -0.69709134915E+00 -0.84910347524E+00  0.90007674865E+02  0.89999935373E+02 0.  0.
         12    1    1    2    0    0  0.43157196926E+00  0.69709134915E+00  0.84910347524E+00  0.11803251354E+01  0.00000000000E+00 0. -1.
         11    1    3    3    0    0 -0.61140776069E+01  0.13988086942E+01 -0.94728156129E+01  0.11361023134E+02  0.51100000000E-03 0. -1.
        -11    1    3    3    0    0 -0.56580024184E+01 -0.34139157612E+02 -0.14516957301E+02  0.37526485625E+02  0.51100000000E-03 0.  1.
         12    1    3    3    0    0  0.11340508056E+02  0.32043257568E+02  0.23140669438E+02  0.41120166106E+02  0.00000000000E+00 0. -1.
</event>
<event>
 7    1  0.1935465E-015  0.9000774E+02  0.7816164E-02  0.1186339E+00
        -11   -1    0    0    0    0  0.00000000000E+00  0.00000000000E+00  0.45593999997E+02  0.45594000000E+02  0.51100000000E-03 0.  1.
         11   -1    0    0    0    0 -0.00000000000E+00 -0.00000000000E+00 -0.45593999997E+02  0.45594000000E+02  0.51100000000E-03 0. -1.
    9900012    2    1    2    0    0 -0.80017162036E+00  0.59891421874E+00  0.62772070946E+00  0.90007743184E+02  0.90000004594E+02 0.  0.
         12    1    1    2    0    0  0.80017162036E+00 -0.59891421874E+00 -0.62772070946E+00  0.11802568163E+01  0.00000000000E+00 0. -1.
         11    1    3    3    0    0  0.77637920657E+01  0.44072557818E+01  0.26798783808E+01  0.93210578349E+01  0.51100000000E-03 0. -1.
        -11    1    3    3    0    0 -0.36667935929E+02 -0.80536436321E+01  0.21947510302E+02  0.43486686581E+02  0.51100000000E-03 0.  1.
         12    1    3    3    0    0  0.28103972243E+02  0.42453020691E+01 -0.23999667974E+02  0.37199998768E+02  0.00000000000E+00 0. -1.
</event>
<event>
 7    1  0.1935465E-015  0.9000757E+02  0.7816164E-02  0.1186339E+00
        -11   -1    0    0    0    0  0.00000000000E+00  0.00000000000E+00  0.45593999997E+02  0.45594000000E+02  0.51100000000E-03 0. -1.
         11   -1    0    0    0    0 -0.00000000000E+00 -0.00000000000E+00 -0.45593999997E+02  0.45594000000E+02  0.51100000000E-03 0.  1.
    9900012    2    1    2    0    0  0.44703504825E-02 -0.69493356948E+00  0.95417989339E+00  0.90007571299E+02  0.89999830440E+02 0.  0.
         12    1    1    2    0    0 -0.44703504825E-02  0.69493356948E+00 -0.95417989339E+00  0.11804287013E+01  0.00000000000E+00 0. -1.
         11    1    3    3    0    0 -0.97736177753E+01  0.63005465906E+01  0.31189418045E+02  0.33286638310E+02  0.51100000000E-03 0. -1.
        -11    1    3    3    0    0 -0.29162925580E+01 -0.78915320076E+01  0.10838691809E+02  0.13720724474E+02  0.51100000000E-03 0.  1.
        -12    1    3    3    0    0  0.12694380684E+02  0.89605184749E+00 -0.41073929960E+02  0.43000208514E+02  0.00000000000E+00 0.  1.
</event>
<event>
 7    1  0.1935465E-015  0.9000766E+02  0.7816164E-02  0.1186339E+00
        -11   -1    0    0    0    0  0.00000000000E+00  0.00000000000E+00  0.45593999997E+02  0.45594000000E+02  0.51100000000E-03 0. -1.
         11   -1    0    0    0    0 -0.00000000000E+00 -0.00000000000E+00 -0.45593999997E+02  0.45594000000E+02  0.51100000000E-03 0.  1.
    9900012    2    1    2    0    0  0.97782639048E+00  0.66010867305E+00  0.36139284730E-01  0.90007663625E+02  0.89999923985E+02 0.  0.
         12    1    1    2    0    0 -0.97782639048E+00 -0.66010867305E+00 -0.36139284730E-01  0.11803363750E+01  0.00000000000E+00 0. -1.
         11    1    3    3    0    0  0.27196180111E+02  0.12434400401E+02  0.23626918888E+02  0.38111387043E+02  0.51100000000E-03 0. -1.
        -11    1    3    3    0    0  0.59762743308E+01  0.31047319538E+00  0.45046936258E+01  0.74902946141E+01  0.51100000000E-03 0.  1.
        -12    1    3    3    0    0 -0.32194628051E+02 -0.12084764923E+02 -0.28095473229E+02  0.44405981968E+02  0.00000000000E+00 0.  1.
</event>
<event>
 7    1  0.1935465E-015  0.9000772E+02  0.7816164E-02  0.1186339E+00
        -11   -1    0    0    0    0  0.00000000000E+00  0.00000000000E+00  0.45593999997E+02  0.45594000000E+02  0.51100000000E-03 0.  1.
         11   -1    0    0    0    0 -0.00000000000E+00 -0.00000000000E+00 -0.45593999997E+02  0.45594000000E+02  0.51100000000E-03 0. -1.
    9900012    2    1    2    0    0  0.23915682971E+00 -0.95173706905E+00  0.65578219076E+00  0.90007724727E+02  0.89999985894E+02 0.  0.
         12    1    1    2    0    0 -0.23915682971E+00  0.95173706905E+00 -0.65578219076E+00  0.11802752728E+01  0.00000000000E+00 0. -1.
         11    1    3    3    0    0 -0.93914045256E+01 -0.13230251376E+02 -0.36056804786E+02  0.39538983321E+02  0.51100000000E-03 0. -1.
        -11    1    3    3    0    0 -0.83447497220E+01 -0.16703965307E+01  0.16468894742E+01  0.86681784530E+01  0.51100000000E-03 0.  1.
        -12    1    3    3    0    0  0.17975311077E+02  0.13948910837E+02  0.35065697502E+02  0.41800562953E+02  0.00000000000E+00 0.  1.
</event>
<event>
 7    1  0.1935465E-015  0.9000778E+02  0.7816164E-02  0.1186339E+00
        -11   -1    0    0    0    0  0.00000000000E+00  0.00000000000E+00  0.45593999997E+02  0.45594000000E+02  0.51100000000E-03 0. -1.
         11   -1    0    0    0    0 -0.00000000000E+00 -0.00000000000E+00 -0.45593999997E+02  0.45594000000E+02  0.51100000000E-03 0.  1.
    9900012    2    1    2    0    0 -0.89324994255E+00 -0.77130870834E+00 -0.10164733980E-01  0.90007781416E+02  0.90000043331E+02 0.  0.
         12    1    1    2    0    0  0.89324994255E+00  0.77130870834E+00  0.10164733980E-01  0.11802185837E+01  0.00000000000E+00 0. -1.
         11    1    3    3    0    0 -0.34094335422E+01 -0.17812669076E+02  0.36769956454E+02  0.40999330660E+02  0.51100000000E-03 0. -1.
        -11    1    3    3    0    0  0.49177052341E+01  0.16668289108E+01  0.32050938178E+01  0.61020299925E+01  0.51100000000E-03 0.  1.
        -12    1    3    3    0    0 -0.24015216345E+01  0.15374531457E+02 -0.39985215006E+02  0.42906420764E+02  0.00000000000E+00 0.  1.
</event>
<event>
 7    1  0.1935465E-015  0.9000774E+02  0.7816164E-02  0.1186339E+00
        -11   -1    0    0    0    0  0.00000000000E+00  0.00000000000E+00  0.45593999997E+02  0.45594000000E+02  0.51100000000E-03 0. -1.
         11   -1    0    0    0    0 -0.00000000000E+00 -0.00000000000E+00 -0.45593999997E+02  0.45594000000E+02  0.51100000000E-03 0.  1.
    9900012    2    1    2    0    0  0.93622031810E+00 -0.71790632082E+00 -0.33458996183E-01  0.90007738388E+02  0.89999999734E+02 0.  0.
         12    1    1    2    0    0 -0.93622031810E+00  0.71790632082E+00  0.33458996183E-01  0.11802616125E+01  0.00000000000E+00 0. -1.
         11    1    3    3    0    0  0.76108045287E+01 -0.23556573178E+02  0.33373096103E+02  0.41552376938E+02  0.51100000000E-03 0. -1.
        -11    1    3    3    0    0 -0.10536863039E+02  0.29875390491E+00 -0.41664688711E+01  0.11334645990E+02  0.51100000000E-03 0.  1.
        -12    1    3    3    0    0  0.38622788282E+01  0.22539912952E+02 -0.29240086228E+02  0.37120715460E+02  0.00000000000E+00 0.  1.
</event>
<event>
 7    1  0.1935465E-015  0.9000792E+02  0.7816164E-02  0.1186339E+00
        -11   -1    0    0    0    0  0.00000000000E+00  0.00000000000E+00  0.45593999997E+02  0.45594000000E+02  0.51100000000E-03 0. -1.
         11   -1    0    0    0    0 -0.00000000000E+00 -0.00000000000E+00 -0.45593999997E+02  0.45594000000E+02  0.51100000000E-03 0.  1.
    9900012    2    1    2    0    0 -0.65162619225E+00 -0.88533896325E+00 -0.42913165155E+00  0.90007917059E+02  0.90000180764E+02 0.  0.
         12    1    1    2    0    0  0.65162619225E+00  0.88533896325E+00  0.42913165155E+00  0.11800829414E+01  0.00000000000E+00 0. -1.
         11    1    3    3    0    0  0.28917402183E+01 -0.11072205468E+02  0.53444043260E+01  0.12630065451E+02  0.51100000000E-03 0. -1.
        -11    1    3    3    0    0  0.10376896145E+02 -0.76774060606E+01 -0.36781018594E+02  0.38980326660E+02  0.51100000000E-03 0.  1.
         12    1    3    3    0    0 -0.13920262555E+02  0.17864272566E+02  0.31007482617E+02  0.38397524948E+02  0.00000000000E+00 0. -1.
</event>
<event>
 7    1  0.1935465E-015  0.9000786E+02  0.7816164E-02  0.1186339E+00
        -11   -1    0    0    0    0  0.00000000000E+00  0.00000000000E+00  0.45593999997E+02  0.45594000000E+02  0.51100000000E-03 0. -1.
         11   -1    0    0    0    0 -0.00000000000E+00 -0.00000000000E+00 -0.45593999997E+02  0.45594000000E+02  0.51100000000E-03 0.  1.
    9900012    2    1    2    0    0 -0.10413415236E+01  0.46128554618E+00  0.30910756861E+00  0.90007862714E+02  0.90000125702E+02 0.  0.
         12    1    1    2    0    0  0.10413415236E+01 -0.46128554618E+00 -0.30910756861E+00  0.11801372856E+01  0.00000000000E+00 0. -1.
         11    1    3    3    0    0  0.66651748777E+01  0.36732248552E+01  0.52515797551E+01  0.92464169911E+01  0.51100000000E-03 0. -1.
        -11    1    3    3    0    0  0.24736508948E+02  0.25853213732E+02  0.48715623463E+01  0.36111156935E+02  0.51100000000E-03 0.  1.
         12    1    3    3    0    0 -0.32443025349E+02 -0.29065153041E+02 -0.98140345328E+01  0.44650288789E+02  0.00000000000E+00 0. -1.
</event>
<event>
 7    1  0.2458869E-015  0.9000775E+02  0.7816164E-02  0.1186339E+00
        -11   -1    0    0    0    0  0.00000000000E+00  0.00000000000E+00  0.45593999997E+02  0.45594000000E+02  0.51100000000E-03 0. -1.
         11   -1    0    0    0    0 -0.00000000000E+00 -0.00000000000E+00 -0.45593999997E+02  0.45594000000E+02  0.51100000000E-03 0.  1.
    9900012    2    1    2    0    0 -0.37850951062E+00 -0.13073034881E+00 -0.11102397057E+01  0.90007749146E+02  0.90000010635E+02 0.  0.
         12    1    1    2    0    0  0.37850951062E+00  0.13073034881E+00  0.11102397057E+01  0.11802508537E+01  0.00000000000E+00 0. -1.
         11    1    3    3    0    0 -0.10282704103E+01  0.89398061839E+01 -0.35401742699E+01  0.96700728418E+01  0.51100000000E-03 0. -1.
        -11    1    3    3    0    0 -0.17731065095E+02  0.77917731750E+00 -0.34004425226E+02  0.38357511935E+02  0.51100000000E-03 0.  1.
         12    1    3    3    0    0  0.18380825995E+02 -0.98497138502E+01  0.36434359790E+02  0.41980164369E+02  0.00000000000E+00 0. -1.
</event>
<event>
 7    1  0.1935465E-015  0.9000775E+02  0.7816164E-02  0.1186339E+00
        -11   -1    0    0    0    0  0.00000000000E+00  0.00000000000E+00  0.45593999997E+02  0.45594000000E+02  0.51100000000E-03 0.  1.
         11   -1    0    0    0    0 -0.00000000000E+00 -0.00000000000E+00 -0.45593999997E+02  0.45594000000E+02  0.51100000000E-03 0. -1.
    9900012    2    1    2    0    0 -0.19477646000E+00 -0.11141946306E+01 -0.33708788876E+00  0.90007747574E+02  0.90000009042E+02 0.  0.
         12    1    1    2    0    0  0.19477646000E+00  0.11141946306E+01  0.33708788876E+00  0.11802524260E+01  0.00000000000E+00 0. -1.
         11    1    3    3    0    0  0.13692416837E+02 -0.23160391961E+02 -0.26306746981E+02  0.37628858229E+02  0.51100000000E-03 0. -1.
        -11    1    3    3    0    0  0.97423699267E+00 -0.92238681246E+01  0.30202865595E+00  0.92800917274E+01  0.51100000000E-03 0.  1.
        -12    1    3    3    0    0 -0.14861430290E+02  0.31270065455E+02  0.25667630437E+02  0.43098797617E+02  0.00000000000E+00 0.  1.
</event>
<event>
 7    1  0.1935465E-015  0.9000790E+02  0.7816164E-02  0.1186339E+00
        -11   -1    0    0    0    0  0.00000000000E+00  0.00000000000E+00  0.45593999997E+02  0.45594000000E+02  0.51100000000E-03 0.  1.
         11   -1    0    0    0    0 -0.00000000000E+00 -0.00000000000E+00 -0.45593999997E+02  0.45594000000E+02  0.51100000000E-03 0. -1.
    9900012    2    1    2    0    0  0.96536824308E+00  0.61617187618E+00  0.28467980742E+00  0.90007895675E+02  0.90000159098E+02 0.  0.
         12    1    1    2    0    0 -0.96536824308E+00 -0.61617187618E+00 -0.28467980742E+00  0.11801043253E+01  0.00000000000E+00 0. -1.
         11    1    3    3    0    0 -0.56778446645E-02 -0.55944279748E+01 -0.81478784229E+01  0.98836015530E+01  0.51100000000E-03 0. -1.
        -11    1    3    3    0    0  0.11772020738E+01 -0.36601128432E+02  0.74687643615E+00  0.36627670304E+02  0.51100000000E-03 0.  1.
         12    1    3    3    0    0 -0.20615598603E+00  0.42811728283E+02  0.76856817941E+01  0.43496623818E+02  0.00000000000E+00 0. -1.
</event>
