<event>
 7    1  0.1466590E-008  0.4614232E+02  0.7816164E-02  0.1320468E+00
        -11   -1    0    0    0    0  0.00000000000E+00  0.00000000000E+00  0.45593999997E+02  0.45594000000E+02  0.51100000000E-03 0.  1.
         11   -1    0    0    0    0 -0.00000000000E+00 -0.00000000000E+00 -0.45593999997E+02  0.45594000000E+02  0.51100000000E-03 0. -1.
    9900012    2    1    2    0    0  0.17368800605E+02 -0.41559258839E+02 -0.51586577536E+00  0.46142319328E+02  0.10000014286E+02 0.  0.
         12    1    1    2    0    0 -0.17368800605E+02  0.41559258839E+02  0.51586577536E+00  0.45045680672E+02  0.00000000000E+00 0. -1.
         11    1    3    3    0    0 -0.59775160028E+00 -0.43741788360E+01  0.15243603219E+01  0.46705911956E+01  0.51100000000E-03 0. -1.
        -11    1    3    3    0    0  0.13278652457E+02 -0.26040303802E+02 -0.27551152861E+01  0.29360018625E+02  0.51100000000E-03 0.  1.
        -12    1    3    3    0    0  0.46878997485E+01 -0.11144776201E+02  0.71488918890E+00  0.12111709507E+02  0.00000000000E+00 0.  1.
</event>
<event>
 7    1  0.1466590E-008  0.4614232E+02  0.7816164E-02  0.1320468E+00
        -11   -1    0    0    0    0  0.00000000000E+00  0.00000000000E+00  0.45593999997E+02  0.45594000000E+02  0.51100000000E-03 0. -1.
         11   -1    0    0    0    0 -0.00000000000E+00 -0.00000000000E+00 -0.45593999997E+02  0.45594000000E+02  0.51100000000E-03 0.  1.
    9900012    2    1    2    0    0 -0.35053264014E+02 -0.28273221356E+02 -0.10035471281E+01  0.46142317957E+02  0.10000001785E+02 0.  0.
         12    1    1    2    0    0  0.35053264014E+02  0.28273221356E+02  0.10035471281E+01  0.45045682043E+02  0.00000000000E+00 0. -1.
         11    1    3    3    0    0 -0.93050084917E+01 -0.53212552824E+01  0.44134087128E+00  0.10728174255E+02  0.51100000000E-03 0. -1.
        -11    1    3    3    0    0 -0.12470853796E+02 -0.68181213749E+01 -0.27582916768E+01  0.14478161027E+02  0.51100000000E-03 0.  1.
         12    1    3    3    0    0 -0.13277401727E+02 -0.16133844698E+02  0.13134036774E+01  0.20935982675E+02  0.00000000000E+00 0. -1.
</event>
<event>
 7    1  0.1466590E-008  0.4614232E+02  0.7816164E-02  0.1320468E+00
        -11   -1    0    0    0    0  0.00000000000E+00  0.00000000000E+00  0.45593999997E+02  0.45594000000E+02  0.51100000000E-03 0.  1.
         11   -1    0    0    0    0 -0.00000000000E+00 -0.00000000000E+00 -0.45593999997E+02  0.45594000000E+02  0.51100000000E-03 0. -1.
    9900012    2    1    2    0    0  0.23974955200E+02 -0.24149670519E+02  0.29514545124E+02  0.46142318332E+02  0.10000005206E+02 0.  0.
         12    1    1    2    0    0 -0.23974955200E+02  0.24149670519E+02 -0.29514545124E+02  0.45045681668E+02  0.00000000000E+00 0. -1.
         11    1    3    3    0    0  0.82121075719E+01 -0.65267526356E+01  0.40931609011E+01  0.11260158843E+02  0.51100000000E-03 0.  1.
        -11    1    3    3    0    0  0.87194423115E+01 -0.77696336224E+01  0.14033432845E+02  0.18257412701E+02  0.51100000000E-03 0. -1.
         12    1    3    3    0    0  0.70434053167E+01 -0.98532842614E+01  0.11387951378E+02  0.16624746788E+02  0.00000000000E+00 0. -1.
</event>
<event>
 7    1  0.1466590E-008  0.4614232E+02  0.7816164E-02  0.1320468E+00
        -11   -1    0    0    0    0  0.00000000000E+00  0.00000000000E+00  0.45593999997E+02  0.45594000000E+02  0.51100000000E-03 0.  1.
         11   -1    0    0    0    0 -0.00000000000E+00 -0.00000000000E+00 -0.45593999997E+02  0.45594000000E+02  0.51100000000E-03 0. -1.
    9900012    2    1    2    0    0  0.28532656819E+02  0.26437941492E+02  0.22716430112E+02  0.46142318159E+02  0.10000003631E+02 0.  0.
         12    1    1    2    0    0 -0.28532656819E+02 -0.26437941492E+02 -0.22716430112E+02  0.45045681841E+02  0.00000000000E+00 0. -1.
         11    1    3    3    0    0  0.13906368121E+01  0.52873082200E+01  0.28600810187E+01  0.61700536992E+01  0.51100000000E-03 0. -1.
        -11    1    3    3    0    0  0.15188413629E+02  0.14350148789E+02  0.10989150911E+02  0.23608814389E+02  0.51100000000E-03 0.  1.
         12    1    3    3    0    0  0.11953606378E+02  0.68004844824E+01  0.88671981818E+01  0.16363450071E+02  0.00000000000E+00 0. -1.
</event>
<event>
 7    1  0.1466590E-008  0.4614232E+02  0.7816164E-02  0.1320468E+00
        -11   -1    0    0    0    0  0.00000000000E+00  0.00000000000E+00  0.45593999997E+02  0.45594000000E+02  0.51100000000E-03 0.  1.
         11   -1    0    0    0    0 -0.00000000000E+00 -0.00000000000E+00 -0.45593999997E+02  0.45594000000E+02  0.51100000000E-03 0. -1.
    9900012    2    1    2    0    0 -0.18665330215E+02  0.40985603550E+02  0.94824824540E+00  0.46142318463E+02  0.10000006400E+02 0.  0.
         12    1    1    2    0    0  0.18665330215E+02 -0.40985603550E+02 -0.94824824540E+00  0.45045681537E+02  0.00000000000E+00 0. -1.
         11    1    3    3    0    0 -0.13839006150E+02  0.22288347985E+02  0.10598872591E+01  0.26256654555E+02  0.51100000000E-03 0. -1.
        -11    1    3    3    0    0 -0.41185345186E+01  0.94104117497E+01  0.16583190652E+01  0.10405200539E+02  0.51100000000E-03 0.  1.
         12    1    3    3    0    0 -0.70778954580E+00  0.92868438152E+01 -0.17699580789E+01  0.94804633690E+01  0.00000000000E+00 0. -1.
</event>
<event>
 7    1  0.1466590E-008  0.4614232E+02  0.7816164E-02  0.1320468E+00
        -11   -1    0    0    0    0  0.00000000000E+00  0.00000000000E+00  0.45593999997E+02  0.45594000000E+02  0.51100000000E-03 0.  1.
         11   -1    0    0    0    0 -0.00000000000E+00 -0.00000000000E+00 -0.45593999997E+02  0.45594000000E+02  0.51100000000E-03 0. -1.
    9900012    2    1    2    0    0 -0.20252980012E+02  0.60203251433E+01  0.39782986521E+02  0.46142317291E+02  0.99999957122E+01 0.  0.
         12    1    1    2    0    0  0.20252980012E+02 -0.60203251433E+01 -0.39782986521E+02  0.45045682709E+02  0.00000000000E+00 0. -1.
         11    1    3    3    0    0 -0.34506516877E+01  0.29783199708E+01  0.49149861543E+01  0.67033182885E+01  0.51100000000E-03 0. -1.
        -11    1    3    3    0    0 -0.17415384230E+01  0.83769574712E+00  0.10729273826E+02  0.10901926771E+02  0.51100000000E-03 0.  1.
        -12    1    3    3    0    0 -0.15060789901E+02  0.22043094254E+01  0.24138726541E+02  0.28537072231E+02  0.00000000000E+00 0.  1.
</event>
<event>
 7    1  0.1466590E-008  0.4614232E+02  0.7816164E-02  0.1320468E+00
        -11   -1    0    0    0    0  0.00000000000E+00  0.00000000000E+00  0.45593999997E+02  0.45594000000E+02  0.51100000000E-03 0.  1.
         11   -1    0    0    0    0 -0.00000000000E+00 -0.00000000000E+00 -0.45593999997E+02  0.45594000000E+02  0.51100000000E-03 0. -1.
    9900012    2    1    2    0    0 -0.13141484047E+02 -0.15919050617E+01  0.43056714966E+02  0.46142317983E+02  0.10000002027E+02 0.  0.
         12    1    1    2    0    0  0.13141484047E+02  0.15919050617E+01 -0.43056714966E+02  0.45045682017E+02  0.00000000000E+00 0. -1.
         11    1    3    3    0    0 -0.97745864014E+01 -0.48847081544E+01  0.27510814953E+02  0.29601483961E+02  0.51100000000E-03 0.  1.
        -11    1    3    3    0    0 -0.17743704084E+00  0.21734218660E+01  0.75800869507E+01  0.78875195691E+01  0.51100000000E-03 0. -1.
        -12    1    3    3    0    0 -0.31894606050E+01  0.11193812268E+01  0.79658130626E+01  0.86533144534E+01  0.00000000000E+00 0.  1.
</event>
<event>
 7    1  0.1466590E-008  0.4614232E+02  0.7816164E-02  0.1320468E+00
        -11   -1    0    0    0    0  0.00000000000E+00  0.00000000000E+00  0.45593999997E+02  0.45594000000E+02  0.51100000000E-03 0.  1.
         11   -1    0    0    0    0 -0.00000000000E+00 -0.00000000000E+00 -0.45593999997E+02  0.45594000000E+02  0.51100000000E-03 0. -1.
    9900012    2    1    2    0    0  0.17214670697E+02 -0.32264226021E+02  0.26301863114E+02  0.46142321282E+02  0.10000032105E+02 0.  0.
         12    1    1    2    0    0 -0.17214670697E+02  0.32264226021E+02 -0.26301863114E+02  0.45045678718E+02  0.00000000000E+00 0. -1.
         11    1    3    3    0    0  0.33586643739E+01 -0.53168697259E+01  0.74640585273E+01  0.97602202854E+01  0.51100000000E-03 0. -1.
        -11    1    3    3    0    0  0.54680620699E+01 -0.17861545090E+02  0.12601121937E+02  0.22532704457E+02  0.51100000000E-03 0.  1.
        -12    1    3    3    0    0  0.83879442529E+01 -0.90858112045E+01  0.62366826495E+01  0.13849396539E+02  0.00000000000E+00 0.  1.
</event>
<event>
 7    1  0.1466590E-008  0.4614232E+02  0.7816164E-02  0.1320468E+00
        -11   -1    0    0    0    0  0.00000000000E+00  0.00000000000E+00  0.45593999997E+02  0.45594000000E+02  0.51100000000E-03 0. -1.
         11   -1    0    0    0    0 -0.00000000000E+00 -0.00000000000E+00 -0.45593999997E+02  0.45594000000E+02  0.51100000000E-03 0.  1.
    9900012    2    1    2    0    0 -0.19297556574E+02  0.40203849701E+02 -0.63535949271E+01  0.46142318864E+02  0.10000010053E+02 0.  0.
         12    1    1    2    0    0  0.19297556574E+02 -0.40203849701E+02  0.63535949271E+01  0.45045681136E+02  0.00000000000E+00 0. -1.
         11    1    3    3    0    0 -0.27612340229E+01  0.91793553179E+01  0.12021068636E+01  0.96607473083E+01  0.51100000000E-03 0. -1.
        -11    1    3    3    0    0 -0.47898868421E+01  0.15461340145E+02 -0.30999535911E+01  0.16480466242E+02  0.51100000000E-03 0.  1.
         12    1    3    3    0    0 -0.11746435709E+02  0.15563154239E+02 -0.44557481996E+01  0.20001105313E+02  0.00000000000E+00 0. -1.
</event>
<event>
 7    1  0.1466590E-008  0.4614231E+02  0.7816164E-02  0.1320468E+00
        -11   -1    0    0    0    0  0.00000000000E+00  0.00000000000E+00  0.45593999997E+02  0.45594000000E+02  0.51100000000E-03 0.  1.
         11   -1    0    0    0    0 -0.00000000000E+00 -0.00000000000E+00 -0.45593999997E+02  0.45594000000E+02  0.51100000000E-03 0. -1.
    9900012    2    1    2    0    0  0.17356305578E+02 -0.21697466973E+02  0.35455498259E+02  0.46142314600E+02  0.99999711719E+01 0.  0.
         12    1    1    2    0    0 -0.17356305578E+02  0.21697466973E+02 -0.35455498259E+02  0.45045685400E+02  0.00000000000E+00 0. -1.
         11    1    3    3    0    0  0.12071462519E+02 -0.12379585863E+02  0.16192004060E+02  0.23688717763E+02  0.51100000000E-03 0. -1.
        -11    1    3    3    0    0  0.25001741922E+01 -0.41467579700E+01  0.12974324578E+02  0.13848450136E+02  0.51100000000E-03 0.  1.
        -12    1    3    3    0    0  0.27846688669E+01 -0.51711231394E+01  0.62891696219E+01  0.86051467015E+01  0.00000000000E+00 0.  1.
</event>
<event>
 7    1  0.1466590E-008  0.4614232E+02  0.7816164E-02  0.1320468E+00
        -11   -1    0    0    0    0  0.00000000000E+00  0.00000000000E+00  0.45593999997E+02  0.45594000000E+02  0.51100000000E-03 0.  1.
         11   -1    0    0    0    0 -0.00000000000E+00 -0.00000000000E+00 -0.45593999997E+02  0.45594000000E+02  0.51100000000E-03 0. -1.
    9900012    2    1    2    0    0 -0.44795542609E+02 -0.21576951547E+01  0.42210563399E+01  0.46142316493E+02  0.99999884324E+01 0.  0.
         12    1    1    2    0    0  0.44795542609E+02  0.21576951547E+01 -0.42210563399E+01  0.45045683507E+02  0.00000000000E+00 0. -1.
         11    1    3    3    0    0 -0.19449152786E+02  0.66279635896E-01 -0.21171994507E+01  0.19564162922E+02  0.51100000000E-03 0. -1.
        -11    1    3    3    0    0 -0.25065474209E+02 -0.16607241899E+01  0.58795501342E+01  0.25799323871E+02  0.51100000000E-03 0.  1.
         12    1    3    3    0    0 -0.28091561469E+00 -0.56325060076E+00  0.45870565639E+00  0.77882969964E+00  0.00000000000E+00 0. -1.
</event>
<event>
 7    1  0.1466590E-008  0.4614232E+02  0.7816164E-02  0.1320468E+00
        -11   -1    0    0    0    0  0.00000000000E+00  0.00000000000E+00  0.45593999997E+02  0.45594000000E+02  0.51100000000E-03 0. -1.
         11   -1    0    0    0    0 -0.00000000000E+00 -0.00000000000E+00 -0.45593999997E+02  0.45594000000E+02  0.51100000000E-03 0.  1.
    9900012    2    1    2    0    0 -0.43496167273E+02 -0.20620298010E+01 -0.11530175792E+02  0.46142317764E+02  0.10000000024E+02 0.  0.
         12    1    1    2    0    0  0.43496167273E+02  0.20620298010E+01  0.11530175792E+02  0.45045682236E+02  0.00000000000E+00 0. -1.
         11    1    3    3    0    0 -0.20689101363E+02 -0.32902163509E+01 -0.25703055042E+01  0.21106181784E+02  0.51100000000E-03 0. -1.
        -11    1    3    3    0    0 -0.13163425271E+02 -0.85628576490E+00 -0.71526277133E+01  0.15005634729E+02  0.51100000000E-03 0.  1.
        -12    1    3    3    0    0 -0.96436406396E+01  0.20844723148E+01 -0.18072425740E+01  0.10030501251E+02  0.00000000000E+00 0.  1.
</event>
<event>
 7    1  0.1466590E-008  0.4614232E+02  0.7816164E-02  0.1320468E+00
        -11   -1    0    0    0    0  0.00000000000E+00  0.00000000000E+00  0.45593999997E+02  0.45594000000E+02  0.51100000000E-03 0.  1.
         11   -1    0    0    0    0 -0.00000000000E+00 -0.00000000000E+00 -0.45593999997E+02  0.45594000000E+02  0.51100000000E-03 0. -1.
    9900012    2    1    2    0    0 -0.33120827993E+02  0.20299089244E+02  0.22805068806E+02  0.46142318361E+02  0.10000005466E+02 0.  0.
         12    1    1    2    0    0  0.33120827993E+02 -0.20299089244E+02 -0.22805068806E+02  0.45045681639E+02  0.00000000000E+00 0. -1.
         11    1    3    3    0    0 -0.15132222671E+02  0.67836368709E+01  0.13426024013E+02  0.21336822941E+02  0.51100000000E-03 0. -1.
        -11    1    3    3    0    0 -0.18177445335E+02  0.13134759305E+02  0.88088000316E+01  0.24094322550E+02  0.51100000000E-03 0.  1.
        -12    1    3    3    0    0  0.18884001195E+00  0.38069306828E+00  0.57024476144E+00  0.71117286949E+00  0.00000000000E+00 0.  1.
</event>
<event>
 7    1  0.1466590E-008  0.4614232E+02  0.7816164E-02  0.1320468E+00
        -11   -1    0    0    0    0  0.00000000000E+00  0.00000000000E+00  0.45593999997E+02  0.45594000000E+02  0.51100000000E-03 0. -1.
         11   -1    0    0    0    0 -0.00000000000E+00 -0.00000000000E+00 -0.45593999997E+02  0.45594000000E+02  0.51100000000E-03 0.  1.
    9900012    2    1    2    0    0 -0.25501657558E+02 -0.94446475546E+01 -0.35910689068E+02  0.46142317688E+02  0.99999993326E+01 0.  0.
         12    1    1    2    0    0  0.25501657558E+02  0.94446475546E+01  0.35910689068E+02  0.45045682312E+02  0.00000000000E+00 0. -1.
         11    1    3    3    0    0 -0.16006553849E+02 -0.93745113635E+01 -0.27946876594E+02  0.33542795666E+02  0.51100000000E-03 0. -1.
        -11    1    3    3    0    0 -0.23377100153E+01  0.17771786202E+00 -0.33188391150E+01  0.40633932971E+01  0.51100000000E-03 0.  1.
         12    1    3    3    0    0 -0.71573936929E+01 -0.24785405303E+00 -0.46449733587E+01  0.85361287250E+01  0.00000000000E+00 0. -1.
</event>
<event>
 7    1  0.1466590E-008  0.4614232E+02  0.7816164E-02  0.1320468E+00
        -11   -1    0    0    0    0  0.00000000000E+00  0.00000000000E+00  0.45593999997E+02  0.45594000000E+02  0.51100000000E-03 0.  1.
         11   -1    0    0    0    0 -0.00000000000E+00 -0.00000000000E+00 -0.45593999997E+02  0.45594000000E+02  0.51100000000E-03 0. -1.
    9900012    2    1    2    0    0 -0.14455477888E+01 -0.79237587643E+00  0.45015508711E+02  0.46142317716E+02  0.99999995879E+01 0.  0.
         12    1    1    2    0    0  0.14455477888E+01  0.79237587643E+00 -0.45015508711E+02  0.45045682284E+02  0.00000000000E+00 0. -1.
         11    1    3    3    0    0 -0.25014817857E+01 -0.99275186948E+00  0.23158570659E+02  0.23314423918E+02  0.51100000000E-03 0. -1.
        -11    1    3    3    0    0  0.28268116482E+01  0.22838668110E+01  0.94846150693E+01  0.10157009155E+02  0.51100000000E-03 0.  1.
         12    1    3    3    0    0 -0.17708776513E+01 -0.20834908179E+01  0.12372322983E+02  0.12670884643E+02  0.00000000000E+00 0. -1.
</event>
<event>
 7    1  0.1466590E-008  0.4614232E+02  0.7816164E-02  0.1320468E+00
        -11   -1    0    0    0    0  0.00000000000E+00  0.00000000000E+00  0.45593999997E+02  0.45594000000E+02  0.51100000000E-03 0. -1.
         11   -1    0    0    0    0 -0.00000000000E+00 -0.00000000000E+00 -0.45593999997E+02  0.45594000000E+02  0.51100000000E-03 0.  1.
    9900012    2    1    2    0    0 -0.42046131122E+02  0.14051439130E+02  0.79870772133E+01  0.46142317783E+02  0.10000000200E+02 0.  0.
         12    1    1    2    0    0  0.42046131122E+02 -0.14051439130E+02 -0.79870772133E+01  0.45045682217E+02  0.00000000000E+00 0. -1.
         11    1    3    3    0    0 -0.28754313015E+01 -0.46825422179E-01 -0.11083879875E+01  0.30820158957E+01  0.51100000000E-03 0. -1.
        -11    1    3    3    0    0 -0.21512057134E+02  0.65351346443E+01  0.19611446102E+01  0.22568178380E+02  0.51100000000E-03 0.  1.
        -12    1    3    3    0    0 -0.17658642687E+02  0.75631299077E+01  0.71343205905E+01  0.20492123507E+02  0.00000000000E+00 0.  1.
</event>
<event>
 7    1  0.1466590E-008  0.4614231E+02  0.7816164E-02  0.1320468E+00
        -11   -1    0    0    0    0  0.00000000000E+00  0.00000000000E+00  0.45593999997E+02  0.45594000000E+02  0.51100000000E-03 0.  1.
         11   -1    0    0    0    0 -0.00000000000E+00 -0.00000000000E+00 -0.45593999997E+02  0.45594000000E+02  0.51100000000E-03 0. -1.
    9900012    2    1    2    0    0 -0.36856771914E+02 -0.99268162820E+00  0.25878691815E+02  0.46142314937E+02  0.99999742456E+01 0.  0.
         12    1    1    2    0    0  0.36856771914E+02  0.99268162820E+00 -0.25878691815E+02  0.45045685063E+02  0.00000000000E+00 0. -1.
         11    1    3    3    0    0 -0.37127938262E+01  0.14787502713E+01  0.52412974051E+01  0.65911106129E+01  0.51100000000E-03 0. -1.
        -11    1    3    3    0    0 -0.31502186721E+02 -0.12183065210E+01  0.20193652753E+02  0.37438691895E+02  0.51100000000E-03 0.  1.
        -12    1    3    3    0    0 -0.16417913666E+01 -0.12531253785E+01  0.44374165689E+00  0.21125124292E+01  0.00000000000E+00 0.  1.
</event>
<event>
 7    1  0.1466590E-008  0.4614232E+02  0.7816164E-02  0.1320468E+00
        -11   -1    0    0    0    0  0.00000000000E+00  0.00000000000E+00  0.45593999997E+02  0.45594000000E+02  0.51100000000E-03 0.  1.
         11   -1    0    0    0    0 -0.00000000000E+00 -0.00000000000E+00 -0.45593999997E+02  0.45594000000E+02  0.51100000000E-03 0. -1.
    9900012    2    1    2    0    0 -0.40366282177E+02 -0.13042838294E+02  0.15151275595E+02  0.46142317414E+02  0.99999968306E+01 0.  0.
         12    1    1    2    0    0  0.40366282177E+02  0.13042838294E+02 -0.15151275595E+02  0.45045682586E+02  0.00000000000E+00 0. -1.
         11    1    3    3    0    0  0.16945621113E+00 -0.69210345593E-01  0.35310528933E+00  0.39772991578E+00  0.51100000000E-03 0. -1.
        -11    1    3    3    0    0 -0.18437707320E+02 -0.18234652040E+01  0.59751064911E+01  0.19467305268E+02  0.51100000000E-03 0.  1.
        -12    1    3    3    0    0 -0.22098031068E+02 -0.11150162744E+02  0.88230638143E+01  0.26277282230E+02  0.00000000000E+00 0.  1.
</event>
<event>
 7    1  0.1466590E-008  0.4614231E+02  0.7816164E-02  0.1320468E+00
        -11   -1    0    0    0    0  0.00000000000E+00  0.00000000000E+00  0.45593999997E+02  0.45594000000E+02  0.51100000000E-03 0.  1.
         11   -1    0    0    0    0 -0.00000000000E+00 -0.00000000000E+00 -0.45593999997E+02  0.45594000000E+02  0.51100000000E-03 0. -1.
    9900012    2    1    2    0    0 -0.13347362419E+02 -0.83756910841E+00  0.43014653318E+02  0.46142312019E+02  0.99999476430E+01 0.  0.
         12    1    1    2    0    0  0.13347362419E+02  0.83756910841E+00 -0.43014653318E+02  0.45045687981E+02  0.00000000000E+00 0. -1.
         11    1    3    3    0    0 -0.10293711556E+02  0.41916162557E+00  0.16985093059E+02  0.19865285815E+02  0.51100000000E-03 0. -1.
        -11    1    3    3    0    0 -0.18698347670E+01 -0.15745043115E+00  0.10775959019E+02  0.10938115274E+02  0.51100000000E-03 0.  1.
         12    1    3    3    0    0 -0.11838160968E+01 -0.10992803028E+01  0.15253601240E+02  0.15338910930E+02  0.00000000000E+00 0. -1.
</event>
<event>
 7    1  0.1466590E-008  0.4614232E+02  0.7816164E-02  0.1320468E+00
        -11   -1    0    0    0    0  0.00000000000E+00  0.00000000000E+00  0.45593999997E+02  0.45594000000E+02  0.51100000000E-03 0.  1.
         11   -1    0    0    0    0 -0.00000000000E+00 -0.00000000000E+00 -0.45593999997E+02  0.45594000000E+02  0.51100000000E-03 0. -1.
    9900012    2    1    2    0    0 -0.33946248473E+02 -0.19435789194E+02  0.22338659963E+02  0.46142318565E+02  0.10000007332E+02 0.  0.
         12    1    1    2    0    0  0.33946248473E+02  0.19435789194E+02 -0.22338659963E+02  0.45045681435E+02  0.00000000000E+00 0. -1.
         11    1    3    3    0    0 -0.29785184099E+02 -0.14341765581E+02  0.18580780846E+02  0.37922141934E+02  0.51100000000E-03 0.  1.
        -11    1    3    3    0    0 -0.14302797111E+01 -0.37197650743E+01  0.32035812477E+01  0.51132460660E+01  0.51100000000E-03 0. -1.
        -12    1    3    3    0    0 -0.27307846627E+01 -0.13742585390E+01  0.55429786974E+00  0.31069305648E+01  0.00000000000E+00 0.  1.
</event>
<event>
 7    1  0.1466590E-008  0.4614232E+02  0.7816164E-02  0.1320468E+00
        -11   -1    0    0    0    0  0.00000000000E+00  0.00000000000E+00  0.45593999997E+02  0.45594000000E+02  0.51100000000E-03 0. -1.
         11   -1    0    0    0    0 -0.00000000000E+00 -0.00000000000E+00 -0.45593999997E+02  0.45594000000E+02  0.51100000000E-03 0.  1.
    9900012    2    1    2    0    0  0.41933742092E+02  0.97108482032E+01  0.13280594341E+02  0.46142317802E+02  0.10000000372E+02 0.  0.
         12    1    1    2    0    0 -0.41933742092E+02 -0.97108482032E+01 -0.13280594341E+02  0.45045682198E+02  0.00000000000E+00 0. -1.
         11    1    3    3    0    0  0.67334803440E+01  0.26188407809E+01  0.39361182232E+01  0.82274608177E+01  0.51100000000E-03 0. -1.
        -11    1    3    3    0    0  0.35134899380E+02  0.64958195550E+01  0.82555149133E+01  0.36671655988E+02  0.51100000000E-03 0.  1.
        -12    1    3    3    0    0  0.65362367452E-01  0.59618786735E+00  0.10889612045E+01  0.12432009963E+01  0.00000000000E+00 0.  1.
</event>
<event>
 7    1  0.1466590E-008  0.4614232E+02  0.7816164E-02  0.1320468E+00
        -11   -1    0    0    0    0  0.00000000000E+00  0.00000000000E+00  0.45593999997E+02  0.45594000000E+02  0.51100000000E-03 0.  1.
         11   -1    0    0    0    0 -0.00000000000E+00 -0.00000000000E+00 -0.45593999997E+02  0.45594000000E+02  0.51100000000E-03 0. -1.
    9900012    2    1    2    0    0 -0.10467177773E+02 -0.43379010061E+02 -0.61492395610E+01  0.46142317947E+02  0.10000001698E+02 0.  0.
         12    1    1    2    0    0  0.10467177773E+02  0.43379010061E+02  0.61492395610E+01  0.45045682053E+02  0.00000000000E+00 0. -1.
         11    1    3    3    0    0 -0.50370469008E+01 -0.23634678956E+02  0.97924626835E-01  0.24165667389E+02  0.51100000000E-03 0. -1.
        -11    1    3    3    0    0 -0.26462737014E+01 -0.16840629493E+02 -0.50218386025E+01  0.17771562380E+02  0.51100000000E-03 0.  1.
         12    1    3    3    0    0 -0.27838571712E+01 -0.29037016122E+01 -0.12253255854E+01  0.42050881789E+01  0.00000000000E+00 0. -1.
</event>
<event>
 7    1  0.1466590E-008  0.4614233E+02  0.7816164E-02  0.1320468E+00
        -11   -1    0    0    0    0  0.00000000000E+00  0.00000000000E+00  0.45593999997E+02  0.45594000000E+02  0.51100000000E-03 0. -1.
         11   -1    0    0    0    0 -0.00000000000E+00 -0.00000000000E+00 -0.45593999997E+02  0.45594000000E+02  0.51100000000E-03 0.  1.
    9900012    2    1    2    0    0  0.25086379852E+01  0.29227927470E+02 -0.34184022482E+02  0.46142329822E+02  0.10000109979E+02 0.  0.
         12    1    1    2    0    0 -0.25086379852E+01 -0.29227927470E+02  0.34184022482E+02  0.45045670178E+02  0.00000000000E+00 0. -1.
         11    1    3    3    0    0  0.47016253624E+01  0.60061118283E+01 -0.89239771486E+01  0.11739507177E+02  0.51100000000E-03 0. -1.
        -11    1    3    3    0    0 -0.41195656424E+00  0.83091923592E+01 -0.83703121262E+01  0.11801462249E+02  0.51100000000E-03 0.  1.
         12    1    3    3    0    0 -0.17810308130E+01  0.14912623283E+02 -0.16889733207E+02  0.22601360396E+02  0.00000000000E+00 0. -1.
</event>
<event>
 7    1  0.1466590E-008  0.4614232E+02  0.7816164E-02  0.1320468E+00
        -11   -1    0    0    0    0  0.00000000000E+00  0.00000000000E+00  0.45593999997E+02  0.45594000000E+02  0.51100000000E-03 0. -1.
         11   -1    0    0    0    0 -0.00000000000E+00 -0.00000000000E+00 -0.45593999997E+02  0.45594000000E+02  0.51100000000E-03 0.  1.
    9900012    2    1    2    0    0  0.11840787136E+02 -0.38603962525E+02 -0.19966052548E+02  0.46142318553E+02  0.10000007219E+02 0.  0.
         12    1    1    2    0    0 -0.11840787136E+02  0.38603962525E+02  0.19966052548E+02  0.45045681447E+02  0.00000000000E+00 0. -1.
         11    1    3    3    0    0  0.42863447828E+01 -0.87732698988E+01 -0.22856240804E+01  0.10028314615E+02  0.51100000000E-03 0. -1.
        -11    1    3    3    0    0  0.43718862796E+01 -0.10950947489E+02 -0.10086464146E+02  0.15516874678E+02  0.51100000000E-03 0.  1.
        -12    1    3    3    0    0  0.31825560741E+01 -0.18879745138E+02 -0.75939643224E+01  0.20597129260E+02  0.00000000000E+00 0.  1.
</event>
<event>
 7    1  0.1466590E-008  0.4614232E+02  0.7816164E-02  0.1320468E+00
        -11   -1    0    0    0    0  0.00000000000E+00  0.00000000000E+00  0.45593999997E+02  0.45594000000E+02  0.51100000000E-03 0.  1.
         11   -1    0    0    0    0 -0.00000000000E+00 -0.00000000000E+00 -0.45593999997E+02  0.45594000000E+02  0.51100000000E-03 0. -1.
    9900012    2    1    2    0    0 -0.18873062082E+02 -0.15721030849E+02  0.37759371897E+02  0.46142318194E+02  0.10000003951E+02 0.  0.
         12    1    1    2    0    0  0.18873062082E+02  0.15721030849E+02 -0.37759371897E+02  0.45045681806E+02  0.00000000000E+00 0. -1.
         11    1    3    3    0    0  0.46855675970E+00 -0.18753863509E+01  0.13737456852E+01  0.23714545896E+01  0.51100000000E-03 0. -1.
        -11    1    3    3    0    0 -0.13477726189E+02 -0.10281850561E+02  0.29659815475E+02  0.34162409289E+02  0.51100000000E-03 0.  1.
        -12    1    3    3    0    0 -0.58638926526E+01 -0.35637939362E+01  0.67258107367E+01  0.96084543152E+01  0.00000000000E+00 0.  1.
</event>
<event>
 7    1  0.1466590E-008  0.4614232E+02  0.7816164E-02  0.1320468E+00
        -11   -1    0    0    0    0  0.00000000000E+00  0.00000000000E+00  0.45593999997E+02  0.45594000000E+02  0.51100000000E-03 0.  1.
         11   -1    0    0    0    0 -0.00000000000E+00 -0.00000000000E+00 -0.45593999997E+02  0.45594000000E+02  0.51100000000E-03 0. -1.
    9900012    2    1    2    0    0  0.19422891927E+02  0.28138012879E+02  0.29327751206E+02  0.46142317739E+02  0.99999997973E+01 0.  0.
         12    1    1    2    0    0 -0.19422891927E+02 -0.28138012879E+02 -0.29327751206E+02  0.45045682261E+02  0.00000000000E+00 0. -1.
         11    1    3    3    0    0  0.72736988398E+00  0.62732865872E+01  0.58615674846E+01  0.86163313069E+01  0.51100000000E-03 0. -1.
        -11    1    3    3    0    0  0.89567463321E+01  0.93004746389E+01  0.13904828544E+02  0.18975415423E+02  0.51100000000E-03 0.  1.
         12    1    3    3    0    0  0.97387757108E+01  0.12564251653E+02  0.95613551771E+01  0.18550571009E+02  0.00000000000E+00 0. -1.
</event>
<event>
 7    1  0.1466590E-008  0.4614232E+02  0.7816164E-02  0.1320468E+00
        -11   -1    0    0    0    0  0.00000000000E+00  0.00000000000E+00  0.45593999997E+02  0.45594000000E+02  0.51100000000E-03 0.  1.
         11   -1    0    0    0    0 -0.00000000000E+00 -0.00000000000E+00 -0.45593999997E+02  0.45594000000E+02  0.51100000000E-03 0. -1.
    9900012    2    1    2    0    0 -0.78298769305E+01 -0.27999434646E+02  0.34406949495E+02  0.46142317779E+02  0.10000000163E+02 0.  0.
         12    1    1    2    0    0  0.78298769305E+01  0.27999434646E+02 -0.34406949495E+02  0.45045682221E+02  0.00000000000E+00 0. -1.
         11    1    3    3    0    0 -0.97820328391E+00  0.38012873078E-01  0.19131648414E+01  0.21490757582E+01  0.51100000000E-03 0. -1.
        -11    1    3    3    0    0 -0.71744812232E+01 -0.23835580131E+02  0.30389950540E+02  0.39283039026E+02  0.51100000000E-03 0.  1.
        -12    1    3    3    0    0  0.32280757667E+00 -0.42018673881E+01  0.21038341129E+01  0.47102029949E+01  0.00000000000E+00 0.  1.
</event>
<event>
 7    1  0.1466590E-008  0.4614232E+02  0.7816164E-02  0.1320468E+00
        -11   -1    0    0    0    0  0.00000000000E+00  0.00000000000E+00  0.45593999997E+02  0.45594000000E+02  0.51100000000E-03 0. -1.
         11   -1    0    0    0    0 -0.00000000000E+00 -0.00000000000E+00 -0.45593999997E+02  0.45594000000E+02  0.51100000000E-03 0.  1.
    9900012    2    1    2    0    0 -0.13448703340E+02  0.34267028655E+02 -0.25961824268E+02  0.46142321032E+02  0.10000029825E+02 0.  0.
         12    1    1    2    0    0  0.13448703340E+02 -0.34267028655E+02  0.25961824268E+02  0.45045678968E+02  0.00000000000E+00 0. -1.
         11    1    3    3    0    0  0.50378368201E+00  0.79960277953E+01 -0.64185342269E+01  0.10265857996E+02  0.51100000000E-03 0. -1.
        -11    1    3    3    0    0 -0.10249934765E+02  0.22511200769E+02 -0.17037848724E+02  0.30035039739E+02  0.51100000000E-03 0.  1.
        -12    1    3    3    0    0 -0.37025522574E+01  0.37598000912E+01 -0.25054413176E+01  0.58414232975E+01  0.00000000000E+00 0.  1.
</event>
<event>
 7    1  0.1466590E-008  0.4614232E+02  0.7816164E-02  0.1320468E+00
        -11   -1    0    0    0    0  0.00000000000E+00  0.00000000000E+00  0.45593999997E+02  0.45594000000E+02  0.51100000000E-03 0.  1.
         11   -1    0    0    0    0 -0.00000000000E+00 -0.00000000000E+00 -0.45593999997E+02  0.45594000000E+02  0.51100000000E-03 0. -1.
    9900012    2    1    2    0    0 -0.29917857233E+02 -0.52567918634E+00  0.33671339041E+02  0.46142316602E+02  0.99999894311E+01 0.  0.
         12    1    1    2    0    0  0.29917857233E+02  0.52567918634E+00 -0.33671339041E+02  0.45045683398E+02  0.00000000000E+00 0. -1.
         11    1    3    3    0    0 -0.45966482646E+00 -0.91460066238E+00  0.34624797377E+01  0.36106166121E+01  0.51100000000E-03 0. -1.
        -11    1    3    3    0    0 -0.16201653282E+01  0.13108518837E+01  0.19764238588E+01  0.28721977443E+01  0.51100000000E-03 0.  1.
         12    1    3    3    0    0 -0.27838027078E+02 -0.92193040768E+00  0.28232435444E+02  0.39659502246E+02  0.00000000000E+00 0. -1.
</event>
<event>
 7    1  0.1466590E-008  0.4614232E+02  0.7816164E-02  0.1320468E+00
        -11   -1    0    0    0    0  0.00000000000E+00  0.00000000000E+00  0.45593999997E+02  0.45594000000E+02  0.51100000000E-03 0.  1.
         11   -1    0    0    0    0 -0.00000000000E+00 -0.00000000000E+00 -0.45593999997E+02  0.45594000000E+02  0.51100000000E-03 0. -1.
    9900012    2    1    2    0    0 -0.11972847768E+02  0.63361707800E+01  0.42960649757E+02  0.46142316840E+02  0.99999915964E+01 0.  0.
         12    1    1    2    0    0  0.11972847768E+02 -0.63361707800E+01 -0.42960649757E+02  0.45045683160E+02  0.00000000000E+00 0. -1.
         11    1    3    3    0    0 -0.37604566369E+01 -0.90123142162E+00  0.49341281834E+01  0.62688813504E+01  0.51100000000E-03 0. -1.
        -11    1    3    3    0    0 -0.67664605140E+01  0.77295064309E+01  0.35098843927E+02  0.36571287957E+02  0.51100000000E-03 0.  1.
        -12    1    3    3    0    0 -0.14459306167E+01 -0.49210422930E+00  0.29276776472E+01  0.33021475325E+01  0.00000000000E+00 0.  1.
</event>
<event>
 7    1  0.1466590E-008  0.4614232E+02  0.7816164E-02  0.1320468E+00
        -11   -1    0    0    0    0  0.00000000000E+00  0.00000000000E+00  0.45593999997E+02  0.45594000000E+02  0.51100000000E-03 0.  1.
         11   -1    0    0    0    0 -0.00000000000E+00 -0.00000000000E+00 -0.45593999997E+02  0.45594000000E+02  0.51100000000E-03 0. -1.
    9900012    2    1    2    0    0 -0.36719648713E+02  0.20132942431E+02  0.16596550068E+02  0.46142318224E+02  0.10000004220E+02 0.  0.
         12    1    1    2    0    0  0.36719648713E+02 -0.20132942431E+02 -0.16596550068E+02  0.45045681776E+02  0.00000000000E+00 0. -1.
         11    1    3    3    0    0 -0.75322598247E+01  0.28321337761E+01  0.10562702161E+01  0.81161337362E+01  0.51100000000E-03 0. -1.
        -11    1    3    3    0    0 -0.24563658644E+02  0.14883128040E+02  0.15841353818E+02  0.32799837153E+02  0.51100000000E-03 0.  1.
        -12    1    3    3    0    0 -0.46237302446E+01  0.24176806147E+01 -0.30107396643E+00  0.52263473346E+01  0.00000000000E+00 0.  1.
</event>
<event>
 7    1  0.1466590E-008  0.4614232E+02  0.7816164E-02  0.1320468E+00
        -11   -1    0    0    0    0  0.00000000000E+00  0.00000000000E+00  0.45593999997E+02  0.45594000000E+02  0.51100000000E-03 0.  1.
         11   -1    0    0    0    0 -0.00000000000E+00 -0.00000000000E+00 -0.45593999997E+02  0.45594000000E+02  0.51100000000E-03 0. -1.
    9900012    2    1    2    0    0 -0.19249498623E+02 -0.18573231120E+02  0.36243694359E+02  0.46142317717E+02  0.99999996004E+01 0.  0.
         12    1    1    2    0    0  0.19249498623E+02  0.18573231120E+02 -0.36243694359E+02  0.45045682283E+02  0.00000000000E+00 0. -1.
         11    1    3    3    0    0 -0.58435745340E+01 -0.28041477690E+01  0.38836941681E+01  0.75560365733E+01  0.51100000000E-03 0. -1.
        -11    1    3    3    0    0 -0.10832422626E+02 -0.14628208987E+02  0.28023660527E+02  0.33416334744E+02  0.51100000000E-03 0.  1.
        -12    1    3    3    0    0 -0.25735014636E+01 -0.11408743645E+01  0.43363396642E+01  0.51699464003E+01  0.00000000000E+00 0.  1.
</event>
<event>
 7    1  0.1466590E-008  0.4614232E+02  0.7816164E-02  0.1320468E+00
        -11   -1    0    0    0    0  0.00000000000E+00  0.00000000000E+00  0.45593999997E+02  0.45594000000E+02  0.51100000000E-03 0.  1.
         11   -1    0    0    0    0 -0.00000000000E+00 -0.00000000000E+00 -0.45593999997E+02  0.45594000000E+02  0.51100000000E-03 0. -1.
    9900012    2    1    2    0    0 -0.16424901373E+02  0.12053151039E+02  0.40175336739E+02  0.46142317441E+02  0.99999970821E+01 0.  0.
         12    1    1    2    0    0  0.16424901373E+02 -0.12053151039E+02 -0.40175336739E+02  0.45045682559E+02  0.00000000000E+00 0. -1.
         11    1    3    3    0    0 -0.10199132382E+02  0.11407509767E+02  0.34063740291E+02  0.37342897361E+02  0.51100000000E-03 0. -1.
        -11    1    3    3    0    0 -0.56977230069E+00 -0.67785620974E-01  0.26003997538E+00  0.62996540775E+00  0.51100000000E-03 0.  1.
         12    1    3    3    0    0 -0.56559966904E+01  0.71342689346E+00  0.58515564728E+01  0.81694546726E+01  0.00000000000E+00 0. -1.
</event>
<event>
 7    1  0.1466590E-008  0.4614232E+02  0.7816164E-02  0.1320468E+00
        -11   -1    0    0    0    0  0.00000000000E+00  0.00000000000E+00  0.45593999997E+02  0.45594000000E+02  0.51100000000E-03 0.  1.
         11   -1    0    0    0    0 -0.00000000000E+00 -0.00000000000E+00 -0.45593999997E+02  0.45594000000E+02  0.51100000000E-03 0. -1.
    9900012    2    1    2    0    0  0.78701718268E+01 -0.80972454547E+01  0.43607436069E+02  0.46142317976E+02  0.10000001959E+02 0.  0.
         12    1    1    2    0    0 -0.78701718268E+01  0.80972454547E+01 -0.43607436069E+02  0.45045682024E+02  0.00000000000E+00 0. -1.
         11    1    3    3    0    0  0.39423054652E+01  0.94211277884E+00  0.94956864971E+01  0.10324602229E+02  0.51100000000E-03 0. -1.
        -11    1    3    3    0    0 -0.49185276578E+00 -0.47085376901E+01  0.14914697804E+02  0.15648017675E+02  0.51100000000E-03 0.  1.
        -12    1    3    3    0    0  0.44197191274E+01 -0.43308205434E+01  0.19197051768E+02  0.20169698072E+02  0.00000000000E+00 0.  1.
</event>
<event>
 7    1  0.1466590E-008  0.4614232E+02  0.7816164E-02  0.1320468E+00
        -11   -1    0    0    0    0  0.00000000000E+00  0.00000000000E+00  0.45593999997E+02  0.45594000000E+02  0.51100000000E-03 0.  1.
         11   -1    0    0    0    0 -0.00000000000E+00 -0.00000000000E+00 -0.45593999997E+02  0.45594000000E+02  0.51100000000E-03 0. -1.
    9900012    2    1    2    0    0 -0.26442964153E+02 -0.32020724011E+02 -0.17451546349E+02  0.46142316640E+02  0.99999897766E+01 0.  0.
         12    1    1    2    0    0  0.26442964153E+02  0.32020724011E+02  0.17451546349E+02  0.45045683360E+02  0.00000000000E+00 0. -1.
         11    1    3    3    0    0 -0.69739914166E+01 -0.74152020244E+01 -0.51993907510E+01  0.11430461136E+02  0.51100000000E-03 0.  1.
        -11    1    3    3    0    0 -0.19022858007E+02 -0.19233083348E+02 -0.96047728754E+01  0.28705962518E+02  0.51100000000E-03 0. -1.
         12    1    3    3    0    0 -0.44611472935E+00 -0.53724386389E+01 -0.26473827228E+01  0.60058929861E+01  0.00000000000E+00 0. -1.
</event>
<event>
 7    1  0.1466590E-008  0.4614232E+02  0.7816164E-02  0.1320468E+00
        -11   -1    0    0    0    0  0.00000000000E+00  0.00000000000E+00  0.45593999997E+02  0.45594000000E+02  0.51100000000E-03 0. -1.
         11   -1    0    0    0    0 -0.00000000000E+00 -0.00000000000E+00 -0.45593999997E+02  0.45594000000E+02  0.51100000000E-03 0.  1.
    9900012    2    1    2    0    0 -0.17849808086E+02  0.40021137404E+02  0.10431034804E+02  0.46142316800E+02  0.99999912379E+01 0.  0.
         12    1    1    2    0    0  0.17849808086E+02 -0.40021137404E+02 -0.10431034804E+02  0.45045683200E+02  0.00000000000E+00 0. -1.
         11    1    3    3    0    0 -0.66086667965E+01  0.12000972414E+02 -0.35795163315E+00  0.13704960611E+02  0.51100000000E-03 0. -1.
        -11    1    3    3    0    0 -0.70643486111E+01  0.12389098790E+02  0.66556326423E+01  0.15738241206E+02  0.51100000000E-03 0.  1.
        -12    1    3    3    0    0 -0.41767926787E+01  0.15631066200E+02  0.41333537950E+01  0.16699114983E+02  0.00000000000E+00 0.  1.
</event>
<event>
 7    1  0.1466590E-008  0.4614232E+02  0.7816164E-02  0.1320468E+00
        -11   -1    0    0    0    0  0.00000000000E+00  0.00000000000E+00  0.45593999997E+02  0.45594000000E+02  0.51100000000E-03 0.  1.
         11   -1    0    0    0    0 -0.00000000000E+00 -0.00000000000E+00 -0.45593999997E+02  0.45594000000E+02  0.51100000000E-03 0. -1.
    9900012    2    1    2    0    0 -0.98898228549E+01  0.17562138819E+02  0.40284936342E+02  0.46142318607E+02  0.10000007717E+02 0.  0.
         12    1    1    2    0    0  0.98898228549E+01 -0.17562138819E+02 -0.40284936342E+02  0.45045681393E+02  0.00000000000E+00 0. -1.
         11    1    3    3    0    0 -0.70323374474E+01  0.49682755373E+01  0.21949598534E+02  0.23578006868E+02  0.51100000000E-03 0.  1.
        -11    1    3    3    0    0 -0.29355300809E+01  0.94237986885E+01  0.15052254024E+02  0.17999879723E+02  0.51100000000E-03 0. -1.
        -12    1    3    3    0    0  0.78044673434E-01  0.31700645935E+01  0.32830837838E+01  0.45644320161E+01  0.00000000000E+00 0.  1.
</event>
<event>
 7    1  0.1466590E-008  0.4614232E+02  0.7816164E-02  0.1320468E+00
        -11   -1    0    0    0    0  0.00000000000E+00  0.00000000000E+00  0.45593999997E+02  0.45594000000E+02  0.51100000000E-03 0. -1.
         11   -1    0    0    0    0 -0.00000000000E+00 -0.00000000000E+00 -0.45593999997E+02  0.45594000000E+02  0.51100000000E-03 0.  1.
    9900012    2    1    2    0    0  0.37051671692E+02 -0.25477931606E+02  0.26762500040E+01  0.46142315543E+02  0.99999797765E+01 0.  0.
         12    1    1    2    0    0 -0.37051671692E+02  0.25477931606E+02 -0.26762500040E+01  0.45045684457E+02  0.00000000000E+00 0. -1.
         11    1    3    3    0    0  0.28281184633E+01 -0.18718493901E+01 -0.23147932604E+01  0.41061347130E+01  0.51100000000E-03 0. -1.
        -11    1    3    3    0    0  0.26008200238E+02 -0.17603763736E+02  0.21838540904E+01  0.31481553269E+02  0.51100000000E-03 0.  1.
         12    1    3    3    0    0  0.82153529904E+01 -0.60023184805E+01  0.28071891740E+01  0.10554627561E+02  0.00000000000E+00 0. -1.
</event>
<event>
 7    1  0.1466590E-008  0.4614232E+02  0.7816164E-02  0.1320468E+00
        -11   -1    0    0    0    0  0.00000000000E+00  0.00000000000E+00  0.45593999997E+02  0.45594000000E+02  0.51100000000E-03 0. -1.
         11   -1    0    0    0    0 -0.00000000000E+00 -0.00000000000E+00 -0.45593999997E+02  0.45594000000E+02  0.51100000000E-03 0.  1.
    9900012    2    1    2    0    0  0.38937479662E+02 -0.11278537816E+02 -0.19641303345E+02  0.46142317246E+02  0.99999953043E+01 0.  0.
         12    1    1    2    0    0 -0.38937479662E+02  0.11278537816E+02  0.19641303345E+02  0.45045682754E+02  0.00000000000E+00 0. -1.
         11    1    3    3    0    0  0.15950614153E+02 -0.96189389771E+01 -0.82507983509E+01  0.20372082677E+02  0.51100000000E-03 0. -1.
        -11    1    3    3    0    0  0.17623429296E+02 -0.61031345599E+00 -0.91130745553E+01  0.19849581124E+02  0.51100000000E-03 0.  1.
         12    1    3    3    0    0  0.53634362126E+01 -0.10492853828E+01 -0.22774304389E+01  0.59206534457E+01  0.00000000000E+00 0. -1.
</event>
<event>
 7    1  0.1466590E-008  0.4614232E+02  0.7816164E-02  0.1320468E+00
        -11   -1    0    0    0    0  0.00000000000E+00  0.00000000000E+00  0.45593999997E+02  0.45594000000E+02  0.51100000000E-03 0.  1.
         11   -1    0    0    0    0 -0.00000000000E+00 -0.00000000000E+00 -0.45593999997E+02  0.45594000000E+02  0.51100000000E-03 0. -1.
    9900012    2    1    2    0    0 -0.58110626066E+01 -0.41722625848E+02  0.15955175444E+02  0.46142316747E+02  0.99999907569E+01 0.  0.
         12    1    1    2    0    0  0.58110626066E+01  0.41722625848E+02 -0.15955175444E+02  0.45045683253E+02  0.00000000000E+00 0. -1.
         11    1    3    3    0    0 -0.36179643430E+01 -0.11517354390E+02  0.10096669506E+01  0.12114394155E+02  0.51100000000E-03 0. -1.
        -11    1    3    3    0    0 -0.21312286476E+01 -0.29427473531E+02  0.13635156567E+02  0.32502858779E+02  0.51100000000E-03 0.  1.
         12    1    3    3    0    0 -0.61869615994E-01 -0.77779792680E+00  0.13103519257E+01  0.15250638129E+01  0.00000000000E+00 0. -1.
</event>
<event>
 7    1  0.1466590E-008  0.4614232E+02  0.7816164E-02  0.1320468E+00
        -11   -1    0    0    0    0  0.00000000000E+00  0.00000000000E+00  0.45593999997E+02  0.45594000000E+02  0.51100000000E-03 0.  1.
         11   -1    0    0    0    0 -0.00000000000E+00 -0.00000000000E+00 -0.45593999997E+02  0.45594000000E+02  0.51100000000E-03 0. -1.
    9900012    2    1    2    0    0 -0.19599757844E+02 -0.29589914720E+02  0.27738057605E+02  0.46142318738E+02  0.10000008911E+02 0.  0.
         12    1    1    2    0    0  0.19599757844E+02  0.29589914720E+02 -0.27738057605E+02  0.45045681262E+02  0.00000000000E+00 0. -1.
         11    1    3    3    0    0 -0.17124892614E+01 -0.59771470101E+01  0.33106779097E+01  0.70441106134E+01  0.51100000000E-03 0. -1.
        -11    1    3    3    0    0 -0.13954575558E+02 -0.20702307612E+02  0.23136112419E+02  0.34038146506E+02  0.51100000000E-03 0.  1.
        -12    1    3    3    0    0 -0.39326930246E+01 -0.29104600978E+01  0.12912672760E+01  0.50600616187E+01  0.00000000000E+00 0.  1.
</event>
<event>
 7    1  0.1466590E-008  0.4614232E+02  0.7816164E-02  0.1320468E+00
        -11   -1    0    0    0    0  0.00000000000E+00  0.00000000000E+00  0.45593999997E+02  0.45594000000E+02  0.51100000000E-03 0.  1.
         11   -1    0    0    0    0 -0.00000000000E+00 -0.00000000000E+00 -0.45593999997E+02  0.45594000000E+02  0.51100000000E-03 0. -1.
    9900012    2    1    2    0    0 -0.20824201491E+02 -0.68201838501E+01  0.39356718566E+02  0.46142316836E+02  0.99999915629E+01 0.  0.
         12    1    1    2    0    0  0.20824201491E+02  0.68201838501E+01 -0.39356718566E+02  0.45045683164E+02  0.00000000000E+00 0. -1.
         11    1    3    3    0    0 -0.62471871931E+01  0.83435555448E+00  0.11055517359E+02  0.12725877626E+02  0.51100000000E-03 0. -1.
        -11    1    3    3    0    0  0.18672277202E-01 -0.20212298696E+01  0.22173069589E+01  0.30003615200E+01  0.51100000000E-03 0.  1.
        -12    1    3    3    0    0 -0.14595686575E+02 -0.56333095350E+01  0.26083894247E+02  0.30416077689E+02  0.00000000000E+00 0.  1.
</event>
<event>
 7    1  0.1466590E-008  0.4614231E+02  0.7816164E-02  0.1320468E+00
        -11   -1    0    0    0    0  0.00000000000E+00  0.00000000000E+00  0.45593999997E+02  0.45594000000E+02  0.51100000000E-03 0.  1.
         11   -1    0    0    0    0 -0.00000000000E+00 -0.00000000000E+00 -0.45593999997E+02  0.45594000000E+02  0.51100000000E-03 0. -1.
    9900012    2    1    2    0    0  0.32994498229E+02 -0.28449062120E+02 -0.11451111716E+02  0.46142311988E+02  0.99999473584E+01 0.  0.
         12    1    1    2    0    0 -0.32994498229E+02  0.28449062120E+02  0.11451111716E+02  0.45045688012E+02  0.00000000000E+00 0. -1.
         11    1    3    3    0    0  0.18965142694E+02 -0.10557894099E+02 -0.76408768218E+01  0.23011492000E+02  0.51100000000E-03 0. -1.
        -11    1    3    3    0    0  0.11662446672E+02 -0.13630638003E+02 -0.31220409090E+01  0.18208626924E+02  0.51100000000E-03 0.  1.
        -12    1    3    3    0    0  0.23669088631E+01 -0.42605300180E+01 -0.68819398489E+00  0.49221930642E+01  0.00000000000E+00 0.  1.
</event>
<event>
 7    1  0.1466590E-008  0.4614232E+02  0.7816164E-02  0.1320468E+00
        -11   -1    0    0    0    0  0.00000000000E+00  0.00000000000E+00  0.45593999997E+02  0.45594000000E+02  0.51100000000E-03 0.  1.
         11   -1    0    0    0    0 -0.00000000000E+00 -0.00000000000E+00 -0.45593999997E+02  0.45594000000E+02  0.51100000000E-03 0. -1.
    9900012    2    1    2    0    0 -0.36842400316E+02 -0.16438027666E+02 -0.20038520131E+02  0.46142317591E+02  0.99999984519E+01 0.  0.
         12    1    1    2    0    0  0.36842400316E+02  0.16438027666E+02  0.20038520131E+02  0.45045682409E+02  0.00000000000E+00 0. -1.
         11    1    3    3    0    0 -0.14046685080E+01 -0.19969416741E+00  0.44301336072E+00  0.14863487063E+01  0.51100000000E-03 0. -1.
        -11    1    3    3    0    0 -0.10130298956E+02 -0.48447177816E+01 -0.22581408901E+01  0.11453970834E+02  0.51100000000E-03 0.  1.
        -12    1    3    3    0    0 -0.25307432852E+02 -0.11393615717E+02 -0.18223392601E+02  0.33201998051E+02  0.00000000000E+00 0.  1.
</event>
<event>
 7    1  0.1466590E-008  0.4614232E+02  0.7816164E-02  0.1320468E+00
        -11   -1    0    0    0    0  0.00000000000E+00  0.00000000000E+00  0.45593999997E+02  0.45594000000E+02  0.51100000000E-03 0.  1.
         11   -1    0    0    0    0 -0.00000000000E+00 -0.00000000000E+00 -0.45593999997E+02  0.45594000000E+02  0.51100000000E-03 0. -1.
    9900012    2    1    2    0    0 -0.33463768354E+01 -0.43356072206E+02 -0.11754413970E+02  0.46142317823E+02  0.10000000561E+02 0.  0.
         12    1    1    2    0    0  0.33463768354E+01  0.43356072206E+02  0.11754413970E+02  0.45045682177E+02  0.00000000000E+00 0. -1.
         11    1    3    3    0    0 -0.59050933940E+00 -0.25457478606E+02 -0.43775119068E+01  0.25837850704E+02  0.51100000000E-03 0. -1.
        -11    1    3    3    0    0  0.21651057868E+00 -0.18202840837E+01  0.82696112234E+00  0.20110136586E+01  0.51100000000E-03 0.  1.
         12    1    3    3    0    0 -0.29723780747E+01 -0.16078309517E+02 -0.82038631860E+01  0.18293453460E+02  0.00000000000E+00 0. -1.
</event>
<event>
 7    1  0.1466590E-008  0.4614232E+02  0.7816164E-02  0.1320468E+00
        -11   -1    0    0    0    0  0.00000000000E+00  0.00000000000E+00  0.45593999997E+02  0.45594000000E+02  0.51100000000E-03 0. -1.
         11   -1    0    0    0    0 -0.00000000000E+00 -0.00000000000E+00 -0.45593999997E+02  0.45594000000E+02  0.51100000000E-03 0.  1.
    9900012    2    1    2    0    0 -0.17001583303E+02  0.18071003296E+02 -0.37596523674E+02  0.46142316663E+02  0.99999899893E+01 0.  0.
         12    1    1    2    0    0  0.17001583303E+02 -0.18071003296E+02  0.37596523674E+02  0.45045683337E+02  0.00000000000E+00 0. -1.
         11    1    3    3    0    0 -0.32833854241E+01 -0.61650210877E+00 -0.31253982806E+01  0.45748015658E+01  0.51100000000E-03 0. -1.
        -11    1    3    3    0    0 -0.10737770234E+02  0.13655231296E+02 -0.26290977784E+02  0.31511594128E+02  0.51100000000E-03 0.  1.
         12    1    3    3    0    0 -0.29804276442E+01  0.50322741088E+01 -0.81801476086E+01  0.10055920970E+02  0.00000000000E+00 0. -1.
</event>
<event>
 7    1  0.1466590E-008  0.4614232E+02  0.7816164E-02  0.1320468E+00
        -11   -1    0    0    0    0  0.00000000000E+00  0.00000000000E+00  0.45593999997E+02  0.45594000000E+02  0.51100000000E-03 0.  1.
         11   -1    0    0    0    0 -0.00000000000E+00 -0.00000000000E+00 -0.45593999997E+02  0.45594000000E+02  0.51100000000E-03 0. -1.
    9900012    2    1    2    0    0  0.12062219806E+02  0.43166671155E+02 -0.45005365004E+01  0.46142317920E+02  0.10000001447E+02 0.  0.
         12    1    1    2    0    0 -0.12062219806E+02 -0.43166671155E+02  0.45005365004E+01  0.45045682080E+02  0.00000000000E+00 0. -1.
         11    1    3    3    0    0  0.24098301814E+01  0.99612064614E+00 -0.74529788476E+00  0.27120116229E+01  0.51100000000E-03 0. -1.
        -11    1    3    3    0    0  0.40702008938E+01  0.19453692904E+02 -0.16868182403E+01  0.19946379596E+02  0.51100000000E-03 0.  1.
         12    1    3    3    0    0  0.55821887310E+01  0.22716857605E+02 -0.20684203753E+01  0.23483926701E+02  0.00000000000E+00 0. -1.
</event>
<event>
 7    1  0.1466590E-008  0.4614231E+02  0.7816164E-02  0.1320468E+00
        -11   -1    0    0    0    0  0.00000000000E+00  0.00000000000E+00  0.45593999997E+02  0.45594000000E+02  0.51100000000E-03 0.  1.
         11   -1    0    0    0    0 -0.00000000000E+00 -0.00000000000E+00 -0.45593999997E+02  0.45594000000E+02  0.51100000000E-03 0. -1.
    9900012    2    1    2    0    0 -0.36820352467E+02 -0.48823539343E+01  0.25486038614E+02  0.46142313192E+02  0.99999583374E+01 0.  0.
         12    1    1    2    0    0  0.36820352467E+02  0.48823539343E+01 -0.25486038614E+02  0.45045686808E+02  0.00000000000E+00 0. -1.
         11    1    3    3    0    0 -0.18352037372E+02  0.17686313038E+01  0.12721506846E+02  0.22400046185E+02  0.51100000000E-03 0.  1.
        -11    1    3    3    0    0 -0.14884130117E+02 -0.50616044372E+01  0.82211776620E+01  0.17741052146E+02  0.51100000000E-03 0. -1.
        -12    1    3    3    0    0 -0.35841849787E+01 -0.15893808008E+01  0.45433541055E+01  0.60012148620E+01  0.00000000000E+00 0.  1.
</event>
<event>
 7    1  0.1466590E-008  0.4614232E+02  0.7816164E-02  0.1320468E+00
        -11   -1    0    0    0    0  0.00000000000E+00  0.00000000000E+00  0.45593999997E+02  0.45594000000E+02  0.51100000000E-03 0.  1.
         11   -1    0    0    0    0 -0.00000000000E+00 -0.00000000000E+00 -0.45593999997E+02  0.45594000000E+02  0.51100000000E-03 0. -1.
    9900012    2    1    2    0    0 -0.17331851045E+02 -0.10307033020E+02  0.40280087871E+02  0.46142317973E+02  0.10000001935E+02 0.  0.
         12    1    1    2    0    0  0.17331851045E+02  0.10307033020E+02 -0.40280087871E+02  0.45045682027E+02  0.00000000000E+00 0. -1.
         11    1    3    3    0    0 -0.90570499921E+01 -0.63733097785E+01  0.30044614914E+02  0.32020745114E+02  0.51100000000E-03 0.  1.
        -11    1    3    3    0    0 -0.28423524250E+01 -0.25288416647E+01  0.24512442254E+01  0.45257713140E+01  0.51100000000E-03 0. -1.
        -12    1    3    3    0    0 -0.54324486278E+01 -0.14048815769E+01  0.77842287324E+01  0.95958015453E+01  0.00000000000E+00 0.  1.
</event>
<event>
 7    1  0.1466590E-008  0.4614232E+02  0.7816164E-02  0.1320468E+00
        -11   -1    0    0    0    0  0.00000000000E+00  0.00000000000E+00  0.45593999997E+02  0.45594000000E+02  0.51100000000E-03 0. -1.
         11   -1    0    0    0    0 -0.00000000000E+00 -0.00000000000E+00 -0.45593999997E+02  0.45594000000E+02  0.51100000000E-03 0.  1.
    9900012    2    1    2    0    0 -0.23939421693E+02 -0.25768717778E+02 -0.28142329178E+02  0.46142318537E+02  0.10000007073E+02 0.  0.
         12    1    1    2    0    0  0.23939421693E+02  0.25768717778E+02  0.28142329178E+02  0.45045681463E+02  0.00000000000E+00 0. -1.
         11    1    3    3    0    0 -0.14745603436E+02 -0.16197273314E+02 -0.13806150389E+02  0.25891973125E+02  0.51100000000E-03 0. -1.
        -11    1    3    3    0    0 -0.74305535837E+01 -0.86009349218E+01 -0.14260812873E+02  0.18236227465E+02  0.51100000000E-03 0.  1.
         12    1    3    3    0    0 -0.17632646736E+01 -0.97050954228E+00 -0.75365915634E-01  0.20141179464E+01  0.00000000000E+00 0. -1.
</event>
<event>
 7    1  0.1466590E-008  0.4614232E+02  0.7816164E-02  0.1320468E+00
        -11   -1    0    0    0    0  0.00000000000E+00  0.00000000000E+00  0.45593999997E+02  0.45594000000E+02  0.51100000000E-03 0. -1.
         11   -1    0    0    0    0 -0.00000000000E+00 -0.00000000000E+00 -0.45593999997E+02  0.45594000000E+02  0.51100000000E-03 0.  1.
    9900012    2    1    2    0    0 -0.28863228395E+02  0.16083846219E+02 -0.30615967256E+02  0.46142317481E+02  0.99999974412E+01 0.  0.
         12    1    1    2    0    0  0.28863228395E+02 -0.16083846219E+02  0.30615967256E+02  0.45045682519E+02  0.00000000000E+00 0. -1.
         11    1    3    3    0    0 -0.18378194926E+01  0.39924820298E+01 -0.40585988917E+01  0.59824508749E+01  0.51100000000E-03 0. -1.
        -11    1    3    3    0    0 -0.28734877541E+01  0.12024958286E+00 -0.44470458301E+01  0.52959993119E+01  0.51100000000E-03 0.  1.
        -12    1    3    3    0    0 -0.24151921149E+02  0.11971114607E+02 -0.22110322534E+02  0.34863867294E+02  0.00000000000E+00 0.  1.
</event>
<event>
 7    1  0.1466590E-008  0.4614232E+02  0.7816164E-02  0.1320468E+00
        -11   -1    0    0    0    0  0.00000000000E+00  0.00000000000E+00  0.45593999997E+02  0.45594000000E+02  0.51100000000E-03 0. -1.
         11   -1    0    0    0    0 -0.00000000000E+00 -0.00000000000E+00 -0.45593999997E+02  0.45594000000E+02  0.51100000000E-03 0.  1.
    9900012    2    1    2    0    0 -0.41735891808E+02  0.14401303515E+02 -0.89348288880E+01  0.46142319017E+02  0.10000011456E+02 0.  0.
         12    1    1    2    0    0  0.41735891808E+02 -0.14401303515E+02  0.89348288880E+01  0.45045680983E+02  0.00000000000E+00 0. -1.
         11    1    3    3    0    0 -0.47262315031E+00  0.61259455122E+00 -0.52461383866E+00  0.93480728882E+00  0.51100000000E-03 0. -1.
        -11    1    3    3    0    0 -0.10092178330E+02 -0.48235566024E+00 -0.11984078715E+01  0.10174522697E+02  0.51100000000E-03 0.  1.
        -12    1    3    3    0    0 -0.31171090327E+02  0.14271064624E+02 -0.72118071779E+01  0.35032989031E+02  0.00000000000E+00 0.  1.
</event>
<event>
 7    1  0.1466590E-008  0.4614232E+02  0.7816164E-02  0.1320468E+00
        -11   -1    0    0    0    0  0.00000000000E+00  0.00000000000E+00  0.45593999997E+02  0.45594000000E+02  0.51100000000E-03 0.  1.
         11   -1    0    0    0    0 -0.00000000000E+00 -0.00000000000E+00 -0.45593999997E+02  0.45594000000E+02  0.51100000000E-03 0. -1.
    9900012    2    1    2    0    0  0.29111064951E+01 -0.33464187102E+02  0.30013118744E+02  0.46142315898E+02  0.99999830133E+01 0.  0.
         12    1    1    2    0    0 -0.29111064951E+01  0.33464187102E+02 -0.30013118744E+02  0.45045684102E+02  0.00000000000E+00 0. -1.
         11    1    3    3    0    0  0.29322229674E+01 -0.27232922433E+02  0.19372923958E+02  0.33549071205E+02  0.51100000000E-03 0. -1.
        -11    1    3    3    0    0  0.12524482225E+01 -0.25908172689E+01  0.46878038402E+01  0.55005877664E+01  0.51100000000E-03 0.  1.
         12    1    3    3    0    0 -0.12735646948E+01 -0.36404474000E+01  0.59523909464E+01  0.70926569269E+01  0.00000000000E+00 0. -1.
</event>
<event>
 7    1  0.1466590E-008  0.4614232E+02  0.7816164E-02  0.1320468E+00
        -11   -1    0    0    0    0  0.00000000000E+00  0.00000000000E+00  0.45593999997E+02  0.45594000000E+02  0.51100000000E-03 0. -1.
         11   -1    0    0    0    0 -0.00000000000E+00 -0.00000000000E+00 -0.45593999997E+02  0.45594000000E+02  0.51100000000E-03 0.  1.
    9900012    2    1    2    0    0 -0.22366047602E+02 -0.32414732098E+02 -0.21866834587E+02  0.46142318774E+02  0.10000009233E+02 0.  0.
         12    1    1    2    0    0  0.22366047602E+02  0.32414732098E+02  0.21866834587E+02  0.45045681226E+02  0.00000000000E+00 0. -1.
         11    1    3    3    0    0 -0.65174526692E+01 -0.90489577089E+01 -0.29527021909E+01  0.11535999107E+02  0.51100000000E-03 0. -1.
        -11    1    3    3    0    0 -0.24993106756E+01 -0.87670881111E+01 -0.47777265768E+01  0.10292475859E+02  0.51100000000E-03 0.  1.
         12    1    3    3    0    0 -0.13349284257E+02 -0.14598686278E+02 -0.14136405819E+02  0.24313843808E+02  0.00000000000E+00 0. -1.
</event>
<event>
 7    1  0.1466590E-008  0.4614232E+02  0.7816164E-02  0.1320468E+00
        -11   -1    0    0    0    0  0.00000000000E+00  0.00000000000E+00  0.45593999997E+02  0.45594000000E+02  0.51100000000E-03 0.  1.
         11   -1    0    0    0    0 -0.00000000000E+00 -0.00000000000E+00 -0.45593999997E+02  0.45594000000E+02  0.51100000000E-03 0. -1.
    9900012    2    1    2    0    0  0.27002909340E+01 -0.41953253300E+02  0.16178580176E+02  0.46142317742E+02  0.99999998231E+01 0.  0.
         12    1    1    2    0    0 -0.27002909340E+01  0.41953253300E+02 -0.16178580176E+02  0.45045682258E+02  0.00000000000E+00 0. -1.
         11    1    3    3    0    0 -0.83320369931E-01 -0.67541383448E+01  0.16309089707E+01  0.69487546652E+01  0.51100000000E-03 0. -1.
        -11    1    3    3    0    0  0.48609730356E+01 -0.28206054309E+02  0.14042332002E+02  0.31880991936E+02  0.51100000000E-03 0.  1.
        -12    1    3    3    0    0 -0.20773617317E+01 -0.69930606468E+01  0.50533920356E+00  0.73125711405E+01  0.00000000000E+00 0.  1.
</event>
<event>
 7    1  0.1466590E-008  0.4614232E+02  0.7816164E-02  0.1320468E+00
        -11   -1    0    0    0    0  0.00000000000E+00  0.00000000000E+00  0.45593999997E+02  0.45594000000E+02  0.51100000000E-03 0. -1.
         11   -1    0    0    0    0 -0.00000000000E+00 -0.00000000000E+00 -0.45593999997E+02  0.45594000000E+02  0.51100000000E-03 0.  1.
    9900012    2    1    2    0    0 -0.95096465383E+01 -0.36439282679E+02 -0.24715559053E+02  0.46142316980E+02  0.99999928758E+01 0.  0.
         12    1    1    2    0    0  0.95096465383E+01  0.36439282679E+02  0.24715559053E+02  0.45045683020E+02  0.00000000000E+00 0. -1.
         11    1    3    3    0    0 -0.32104394292E+01 -0.20420912321E+02 -0.11200930193E+02  0.23511304064E+02  0.51100000000E-03 0. -1.
        -11    1    3    3    0    0 -0.31771092060E+01 -0.12861378589E+02 -0.12176282770E+02  0.17993636221E+02  0.51100000000E-03 0.  1.
         12    1    3    3    0    0 -0.31220979031E+01 -0.31569917694E+01 -0.13383460896E+01  0.46373766942E+01  0.00000000000E+00 0. -1.
</event>
<event>
 7    1  0.1466590E-008  0.4614232E+02  0.7816164E-02  0.1320468E+00
        -11   -1    0    0    0    0  0.00000000000E+00  0.00000000000E+00  0.45593999997E+02  0.45594000000E+02  0.51100000000E-03 0.  1.
         11   -1    0    0    0    0 -0.00000000000E+00 -0.00000000000E+00 -0.45593999997E+02  0.45594000000E+02  0.51100000000E-03 0. -1.
    9900012    2    1    2    0    0 -0.21985969879E+02  0.21777423945E+02  0.32733384259E+02  0.46142317518E+02  0.99999977824E+01 0.  0.
         12    1    1    2    0    0  0.21985969879E+02 -0.21777423945E+02 -0.32733384259E+02  0.45045682482E+02  0.00000000000E+00 0. -1.
         11    1    3    3    0    0 -0.80761553435E+01  0.51946254476E+01  0.74572412335E+01  0.12158078210E+02  0.51100000000E-03 0. -1.
        -11    1    3    3    0    0 -0.11392234751E+02  0.84712959517E+01  0.16605015960E+02  0.21846565474E+02  0.51100000000E-03 0.  1.
        -12    1    3    3    0    0 -0.25175797853E+01  0.81115025453E+01  0.86711270660E+01  0.12137673834E+02  0.00000000000E+00 0.  1.
</event>
<event>
 7    1  0.1466590E-008  0.4614232E+02  0.7816164E-02  0.1320468E+00
        -11   -1    0    0    0    0  0.00000000000E+00  0.00000000000E+00  0.45593999997E+02  0.45594000000E+02  0.51100000000E-03 0.  1.
         11   -1    0    0    0    0 -0.00000000000E+00 -0.00000000000E+00 -0.45593999997E+02  0.45594000000E+02  0.51100000000E-03 0. -1.
    9900012    2    1    2    0    0  0.35011681372E+02 -0.12074687658E+02  0.25641715492E+02  0.46142317767E+02  0.10000000051E+02 0.  0.
         12    1    1    2    0    0 -0.35011681372E+02  0.12074687658E+02 -0.25641715492E+02  0.45045682233E+02  0.00000000000E+00 0. -1.
         11    1    3    3    0    0  0.51157573279E+01 -0.57863072321E+01  0.51562512171E+01  0.92865091018E+01  0.51100000000E-03 0. -1.
        -11    1    3    3    0    0  0.10154456841E+02 -0.18925583256E+01  0.56538949289E+01  0.11775453235E+02  0.51100000000E-03 0.  1.
         12    1    3    3    0    0  0.19741467203E+02 -0.43958220999E+01  0.14831569346E+02  0.25080355430E+02  0.00000000000E+00 0. -1.
</event>
<event>
 7    1  0.1466590E-008  0.4614231E+02  0.7816164E-02  0.1320468E+00
        -11   -1    0    0    0    0  0.00000000000E+00  0.00000000000E+00  0.45593999997E+02  0.45594000000E+02  0.51100000000E-03 0. -1.
         11   -1    0    0    0    0 -0.00000000000E+00 -0.00000000000E+00 -0.45593999997E+02  0.45594000000E+02  0.51100000000E-03 0.  1.
    9900012    2    1    2    0    0 -0.14638650785E+02 -0.11581331705E+02 -0.40996297366E+02  0.46142314983E+02  0.99999746695E+01 0.  0.
         12    1    1    2    0    0  0.14638650785E+02  0.11581331705E+02  0.40996297366E+02  0.45045685017E+02  0.00000000000E+00 0. -1.
         11    1    3    3    0    0 -0.28022685588E+01 -0.42905510258E+01 -0.60581376485E+01  0.79348956647E+01  0.51100000000E-03 0. -1.
        -11    1    3    3    0    0 -0.89305224205E+00  0.87578791985E+00 -0.92479960758E+00  0.15555710729E+01  0.51100000000E-03 0.  1.
        -12    1    3    3    0    0 -0.10943329984E+02 -0.81665685989E+01 -0.34013360110E+02  0.36651848246E+02  0.00000000000E+00 0.  1.
</event>
<event>
 7    1  0.1466590E-008  0.4614232E+02  0.7816164E-02  0.1320468E+00
        -11   -1    0    0    0    0  0.00000000000E+00  0.00000000000E+00  0.45593999997E+02  0.45594000000E+02  0.51100000000E-03 0. -1.
         11   -1    0    0    0    0 -0.00000000000E+00 -0.00000000000E+00 -0.45593999997E+02  0.45594000000E+02  0.51100000000E-03 0.  1.
    9900012    2    1    2    0    0 -0.12234014162E+02 -0.26448102497E+02 -0.34350262080E+02  0.46142315043E+02  0.99999752176E+01 0.  0.
         12    1    1    2    0    0  0.12234014162E+02  0.26448102497E+02  0.34350262080E+02  0.45045684957E+02  0.00000000000E+00 0. -1.
         11    1    3    3    0    0 -0.11974742670E+02 -0.18692674814E+02 -0.21675807275E+02  0.31026620425E+02  0.51100000000E-03 0. -1.
        -11    1    3    3    0    0 -0.24487821574E+00 -0.79569058137E+01 -0.11913788218E+02  0.14328665864E+02  0.51100000000E-03 0.  1.
         12    1    3    3    0    0 -0.14393275911E-01  0.20147813053E+00 -0.76066658671E+00  0.78702875399E+00  0.00000000000E+00 0. -1.
</event>
<event>
 7    1  0.1466590E-008  0.4614232E+02  0.7816164E-02  0.1320468E+00
        -11   -1    0    0    0    0  0.00000000000E+00  0.00000000000E+00  0.45593999997E+02  0.45594000000E+02  0.51100000000E-03 0. -1.
         11   -1    0    0    0    0 -0.00000000000E+00 -0.00000000000E+00 -0.45593999997E+02  0.45594000000E+02  0.51100000000E-03 0.  1.
    9900012    2    1    2    0    0  0.62695745981E+01  0.19391669964E+02 -0.40171744350E+02  0.46142317924E+02  0.10000001481E+02 0.  0.
         12    1    1    2    0    0 -0.62695745981E+01 -0.19391669964E+02  0.40171744350E+02  0.45045682076E+02  0.00000000000E+00 0. -1.
         11    1    3    3    0    0  0.59345058169E+01  0.58399287820E+01 -0.18776146574E+02  0.20539396483E+02  0.51100000000E-03 0. -1.
        -11    1    3    3    0    0 -0.12890365169E+01  0.89476345608E+01 -0.12109622470E+02  0.15111741660E+02  0.51100000000E-03 0.  1.
        -12    1    3    3    0    0  0.16241052980E+01  0.46041066215E+01 -0.92859753054E+01  0.10491179780E+02  0.00000000000E+00 0.  1.
</event>
<event>
 7    1  0.1466590E-008  0.4614232E+02  0.7816164E-02  0.1320468E+00
        -11   -1    0    0    0    0  0.00000000000E+00  0.00000000000E+00  0.45593999997E+02  0.45594000000E+02  0.51100000000E-03 0.  1.
         11   -1    0    0    0    0 -0.00000000000E+00 -0.00000000000E+00 -0.45593999997E+02  0.45594000000E+02  0.51100000000E-03 0. -1.
    9900012    2    1    2    0    0  0.18894834744E+02 -0.37974252814E+02  0.15167563413E+02  0.46142316115E+02  0.99999849913E+01 0.  0.
         12    1    1    2    0    0 -0.18894834744E+02  0.37974252814E+02 -0.15167563413E+02  0.45045683885E+02  0.00000000000E+00 0. -1.
         11    1    3    3    0    0  0.12893794371E+02 -0.22952541369E+02  0.13885975172E+02  0.29763894156E+02  0.51100000000E-03 0. -1.
        -11    1    3    3    0    0  0.55744327923E+01 -0.14716090849E+02  0.15044902767E+01  0.15808261197E+02  0.51100000000E-03 0.  1.
         12    1    3    3    0    0  0.42660758107E+00 -0.30562059587E+00 -0.22290203630E+00  0.57016076209E+00  0.00000000000E+00 0. -1.
</event>
<event>
 7    1  0.1466590E-008  0.4614232E+02  0.7816164E-02  0.1320468E+00
        -11   -1    0    0    0    0  0.00000000000E+00  0.00000000000E+00  0.45593999997E+02  0.45594000000E+02  0.51100000000E-03 0.  1.
         11   -1    0    0    0    0 -0.00000000000E+00 -0.00000000000E+00 -0.45593999997E+02  0.45594000000E+02  0.51100000000E-03 0. -1.
    9900012    2    1    2    0    0 -0.22834126674E+02  0.14397749621E+02  0.36061350069E+02  0.46142317589E+02  0.99999984278E+01 0.  0.
         12    1    1    2    0    0  0.22834126674E+02 -0.14397749621E+02 -0.36061350069E+02  0.45045682411E+02  0.00000000000E+00 0. -1.
         11    1    3    3    0    0 -0.37253009378E+01  0.33141383579E+01  0.25724253082E+01  0.56105928707E+01  0.51100000000E-03 0. -1.
        -11    1    3    3    0    0 -0.32165740150E+01 -0.37620470274E+00  0.46454038669E+01  0.56628310693E+01  0.51100000000E-03 0.  1.
         12    1    3    3    0    0 -0.15892251722E+02  0.11459815966E+02  0.28843520894E+02  0.34868893649E+02  0.00000000000E+00 0. -1.
</event>
<event>
 7    1  0.1466590E-008  0.4614232E+02  0.7816164E-02  0.1320468E+00
        -11   -1    0    0    0    0  0.00000000000E+00  0.00000000000E+00  0.45593999997E+02  0.45594000000E+02  0.51100000000E-03 0.  1.
         11   -1    0    0    0    0 -0.00000000000E+00 -0.00000000000E+00 -0.45593999997E+02  0.45594000000E+02  0.51100000000E-03 0. -1.
    9900012    2    1    2    0    0 -0.28827802362E+02  0.29427980562E+02  0.18222660016E+02  0.46142316888E+02  0.99999920370E+01 0.  0.
         12    1    1    2    0    0  0.28827802362E+02 -0.29427980562E+02 -0.18222660016E+02  0.45045683112E+02  0.00000000000E+00 0. -1.
         11    1    3    3    0    0 -0.83957588255E+01  0.15057387527E+02  0.86801260178E+01  0.19301768658E+02  0.51100000000E-03 0.  1.
        -11    1    3    3    0    0 -0.18495075580E+02  0.13102869579E+02  0.93457318440E+01  0.24517253432E+02  0.51100000000E-03 0. -1.
         12    1    3    3    0    0 -0.19369679565E+01  0.12677234561E+01  0.19680215411E+00  0.23232947970E+01  0.00000000000E+00 0. -1.
</event>
<event>
 7    1  0.1466590E-008  0.4614232E+02  0.7816164E-02  0.1320468E+00
        -11   -1    0    0    0    0  0.00000000000E+00  0.00000000000E+00  0.45593999997E+02  0.45594000000E+02  0.51100000000E-03 0. -1.
         11   -1    0    0    0    0 -0.00000000000E+00 -0.00000000000E+00 -0.45593999997E+02  0.45594000000E+02  0.51100000000E-03 0.  1.
    9900012    2    1    2    0    0 -0.25499319857E+01  0.35260478424E+02 -0.27916128488E+02  0.46142315173E+02  0.99999763956E+01 0.  0.
         12    1    1    2    0    0  0.25499319857E+01 -0.35260478424E+02  0.27916128488E+02  0.45045684827E+02  0.00000000000E+00 0. -1.
         11    1    3    3    0    0  0.48005816398E+00 -0.91193161745E-01 -0.16406414105E+00  0.51545061553E+00  0.51100000000E-03 0. -1.
        -11    1    3    3    0    0  0.12185028602E+01  0.80407114503E+01 -0.94962361605E+01  0.12502651372E+02  0.51100000000E-03 0.  1.
        -12    1    3    3    0    0 -0.42484930098E+01  0.27310960135E+02 -0.18255828186E+02  0.33124213185E+02  0.00000000000E+00 0.  1.
</event>
<event>
 7    1  0.1466590E-008  0.4614232E+02  0.7816164E-02  0.1320468E+00
        -11   -1    0    0    0    0  0.00000000000E+00  0.00000000000E+00  0.45593999997E+02  0.45594000000E+02  0.51100000000E-03 0.  1.
         11   -1    0    0    0    0 -0.00000000000E+00 -0.00000000000E+00 -0.45593999997E+02  0.45594000000E+02  0.51100000000E-03 0. -1.
    9900012    2    1    2    0    0 -0.21226198112E+02 -0.34809539896E+01  0.39578335024E+02  0.46142321737E+02  0.10000036252E+02 0.  0.
         12    1    1    2    0    0  0.21226198112E+02  0.34809539896E+01 -0.39578335024E+02  0.45045678263E+02  0.00000000000E+00 0. -1.
         11    1    3    3    0    0 -0.58213466796E+01  0.26779300035E+01  0.72184085722E+01  0.96521919192E+01  0.51100000000E-03 0. -1.
        -11    1    3    3    0    0 -0.13446694181E+02 -0.63937014913E+01  0.28412515141E+02  0.32077469041E+02  0.51100000000E-03 0.  1.
        -12    1    3    3    0    0 -0.19581572511E+01  0.23481749825E+00  0.39474113104E+01  0.44126607768E+01  0.00000000000E+00 0.  1.
</event>
<event>
 7    1  0.1466590E-008  0.4614231E+02  0.7816164E-02  0.1320468E+00
        -11   -1    0    0    0    0  0.00000000000E+00  0.00000000000E+00  0.45593999997E+02  0.45594000000E+02  0.51100000000E-03 0.  1.
         11   -1    0    0    0    0 -0.00000000000E+00 -0.00000000000E+00 -0.45593999997E+02  0.45594000000E+02  0.51100000000E-03 0. -1.
    9900012    2    1    2    0    0  0.28467438035E+02  0.11602881574E+02  0.32925557922E+02  0.46142309268E+02  0.99999225503E+01 0.  0.
         12    1    1    2    0    0 -0.28467438035E+02 -0.11602881574E+02 -0.32925557922E+02  0.45045690732E+02  0.00000000000E+00 0. -1.
         11    1    3    3    0    0  0.14107935654E+02  0.57406005577E+01  0.14378145037E+02  0.20945629572E+02  0.51100000000E-03 0. -1.
        -11    1    3    3    0    0  0.13023373162E+02  0.39456989982E+01  0.18359553958E+02  0.22852790002E+02  0.51100000000E-03 0.  1.
         12    1    3    3    0    0  0.13361292186E+01  0.19165820179E+01  0.18785892703E+00  0.23438896938E+01  0.00000000000E+00 0. -1.
</event>
<event>
 7    1  0.1466590E-008  0.4614232E+02  0.7816164E-02  0.1320468E+00
        -11   -1    0    0    0    0  0.00000000000E+00  0.00000000000E+00  0.45593999997E+02  0.45594000000E+02  0.51100000000E-03 0. -1.
         11   -1    0    0    0    0 -0.00000000000E+00 -0.00000000000E+00 -0.45593999997E+02  0.45594000000E+02  0.51100000000E-03 0.  1.
    9900012    2    1    2    0    0  0.40323717846E+02  0.11839524362E+02 -0.16215328458E+02  0.46142318353E+02  0.10000005396E+02 0.  0.
         12    1    1    2    0    0 -0.40323717846E+02 -0.11839524362E+02  0.16215328458E+02  0.45045681647E+02  0.00000000000E+00 0. -1.
         11    1    3    3    0    0  0.20716671668E+01 -0.30837622286E+00 -0.91777368935E+00  0.22867464990E+01  0.51100000000E-03 0. -1.
        -11    1    3    3    0    0  0.38461983458E+01  0.40398895787E+01 -0.35248390569E+01  0.65983664768E+01  0.51100000000E-03 0.  1.
        -12    1    3    3    0    0  0.34405852334E+02  0.81080110061E+01 -0.11772715712E+02  0.37257205377E+02  0.00000000000E+00 0.  1.
</event>
<event>
 7    1  0.1466590E-008  0.4614232E+02  0.7816164E-02  0.1320468E+00
        -11   -1    0    0    0    0  0.00000000000E+00  0.00000000000E+00  0.45593999997E+02  0.45594000000E+02  0.51100000000E-03 0.  1.
         11   -1    0    0    0    0 -0.00000000000E+00 -0.00000000000E+00 -0.45593999997E+02  0.45594000000E+02  0.51100000000E-03 0. -1.
    9900012    2    1    2    0    0 -0.44879668840E+02  0.64967102667E+00 -0.38087704652E+01  0.46142317853E+02  0.10000000836E+02 0.  0.
         12    1    1    2    0    0  0.44879668840E+02 -0.64967102667E+00  0.38087704652E+01  0.45045682147E+02  0.00000000000E+00 0. -1.
         11    1    3    3    0    0 -0.22926589279E+02  0.33052646127E+01  0.42415629064E+00  0.23167502648E+02  0.51100000000E-03 0. -1.
        -11    1    3    3    0    0 -0.15764143356E+02 -0.17417668279E+00 -0.41674625070E+01  0.16306633536E+02  0.51100000000E-03 0.  1.
         12    1    3    3    0    0 -0.61889362050E+01 -0.24814169032E+01 -0.65464248918E-01  0.66681816685E+01  0.00000000000E+00 0. -1.
</event>
<event>
 7    1  0.1466590E-008  0.4614232E+02  0.7816164E-02  0.1320468E+00
        -11   -1    0    0    0    0  0.00000000000E+00  0.00000000000E+00  0.45593999997E+02  0.45594000000E+02  0.51100000000E-03 0.  1.
         11   -1    0    0    0    0 -0.00000000000E+00 -0.00000000000E+00 -0.45593999997E+02  0.45594000000E+02  0.51100000000E-03 0. -1.
    9900012    2    1    2    0    0  0.21872228416E+02 -0.38487785626E+02  0.83312242156E+01  0.46142319683E+02  0.10000017524E+02 0.  0.
         12    1    1    2    0    0 -0.21872228416E+02  0.38487785626E+02 -0.83312242156E+01  0.45045680317E+02  0.00000000000E+00 0. -1.
         11    1    3    3    0    0  0.18150682190E+01 -0.56679695840E+00 -0.97022340210E-01  0.19039813621E+01  0.51100000000E-03 0. -1.
        -11    1    3    3    0    0  0.23215643616E+01 -0.57215862779E+01  0.36383121933E+01  0.71668351800E+01  0.51100000000E-03 0.  1.
        -12    1    3    3    0    0  0.17735595836E+02 -0.32199402390E+02  0.47899343626E+01  0.37071503141E+02  0.00000000000E+00 0.  1.
</event>
<event>
 7    1  0.1466590E-008  0.4614232E+02  0.7816164E-02  0.1320468E+00
        -11   -1    0    0    0    0  0.00000000000E+00  0.00000000000E+00  0.45593999997E+02  0.45594000000E+02  0.51100000000E-03 0. -1.
         11   -1    0    0    0    0 -0.00000000000E+00 -0.00000000000E+00 -0.45593999997E+02  0.45594000000E+02  0.51100000000E-03 0.  1.
    9900012    2    1    2    0    0 -0.61104520789E+01 -0.46946477680E+01 -0.44381709113E+02  0.46142318230E+02  0.10000004280E+02 0.  0.
         12    1    1    2    0    0  0.61104520789E+01  0.46946477680E+01  0.44381709113E+02  0.45045681770E+02  0.00000000000E+00 0. -1.
         11    1    3    3    0    0 -0.18531070031E+01 -0.55436072387E+01 -0.19617811177E+02  0.20470078222E+02  0.51100000000E-03 0. -1.
        -11    1    3    3    0    0  0.47894486489E+00  0.41079822770E+00 -0.12534969294E+02  0.12550840563E+02  0.51100000000E-03 0.  1.
         12    1    3    3    0    0 -0.47362899407E+01  0.43816124304E+00 -0.12228928642E+02  0.13121399446E+02  0.00000000000E+00 0. -1.
</event>
<event>
 7    1  0.1466590E-008  0.4614232E+02  0.7816164E-02  0.1320468E+00
        -11   -1    0    0    0    0  0.00000000000E+00  0.00000000000E+00  0.45593999997E+02  0.45594000000E+02  0.51100000000E-03 0. -1.
         11   -1    0    0    0    0 -0.00000000000E+00 -0.00000000000E+00 -0.45593999997E+02  0.45594000000E+02  0.51100000000E-03 0.  1.
    9900012    2    1    2    0    0  0.20132317402E+02  0.34156037099E+02 -0.21381497180E+02  0.46142317677E+02  0.99999992345E+01 0.  0.
         12    1    1    2    0    0 -0.20132317402E+02 -0.34156037099E+02  0.21381497180E+02  0.45045682323E+02  0.00000000000E+00 0. -1.
         11    1    3    3    0    0  0.68777074130E+01  0.10941233309E+02 -0.40152936772E+01  0.13532776107E+02  0.51100000000E-03 0. -1.
        -11    1    3    3    0    0  0.64772140420E+01  0.68445185396E+01 -0.89428026549E+01  0.12991360798E+02  0.51100000000E-03 0.  1.
        -12    1    3    3    0    0  0.67773959471E+01  0.16370285250E+02 -0.84234008484E+01  0.19618180773E+02  0.00000000000E+00 0.  1.
</event>
<event>
 7    1  0.1466590E-008  0.4614232E+02  0.7816164E-02  0.1320468E+00
        -11   -1    0    0    0    0  0.00000000000E+00  0.00000000000E+00  0.45593999997E+02  0.45594000000E+02  0.51100000000E-03 0. -1.
         11   -1    0    0    0    0 -0.00000000000E+00 -0.00000000000E+00 -0.45593999997E+02  0.45594000000E+02  0.51100000000E-03 0.  1.
    9900012    2    1    2    0    0 -0.39212871822E+02  0.19363625237E+02 -0.10794165203E+02  0.46142319838E+02  0.10000018937E+02 0.  0.
         12    1    1    2    0    0  0.39212871822E+02 -0.19363625237E+02  0.10794165203E+02  0.45045680162E+02  0.00000000000E+00 0. -1.
         11    1    3    3    0    0 -0.87302795930E+01  0.14999885105E+01  0.16790949728E+00  0.88597935170E+01  0.51100000000E-03 0. -1.
        -11    1    3    3    0    0 -0.27812806552E+02  0.17633605147E+02 -0.97760201698E+01  0.34352100509E+02  0.51100000000E-03 0.  1.
         12    1    3    3    0    0 -0.26697856767E+01  0.23003158002E+00 -0.11860545302E+01  0.29304258114E+01  0.00000000000E+00 0. -1.
</event>
<event>
 7    1  0.1466590E-008  0.4614231E+02  0.7816164E-02  0.1320468E+00
        -11   -1    0    0    0    0  0.00000000000E+00  0.00000000000E+00  0.45593999997E+02  0.45594000000E+02  0.51100000000E-03 0.  1.
         11   -1    0    0    0    0 -0.00000000000E+00 -0.00000000000E+00 -0.45593999997E+02  0.45594000000E+02  0.51100000000E-03 0. -1.
    9900012    2    1    2    0    0 -0.37909582236E+02  0.70421970046E+01  0.23289168252E+02  0.46142308510E+02  0.99999156419E+01 0.  0.
         12    1    1    2    0    0  0.37909582236E+02 -0.70421970046E+01 -0.23289168252E+02  0.45045691490E+02  0.00000000000E+00 0. -1.
         11    1    3    3    0    0 -0.26984069773E+01  0.14239111498E+01 -0.45518790965E-01  0.30513923705E+01  0.51100000000E-03 0. -1.
        -11    1    3    3    0    0 -0.13234483969E+02  0.18641145738E+01  0.12512167614E+02  0.18307944388E+02  0.51100000000E-03 0.  1.
        -12    1    3    3    0    0 -0.21976691289E+02  0.37541712810E+01  0.10822519429E+02  0.24782971751E+02  0.00000000000E+00 0.  1.
</event>
<event>
 7    1  0.1466590E-008  0.4614232E+02  0.7816164E-02  0.1320468E+00
        -11   -1    0    0    0    0  0.00000000000E+00  0.00000000000E+00  0.45593999997E+02  0.45594000000E+02  0.51100000000E-03 0. -1.
         11   -1    0    0    0    0 -0.00000000000E+00 -0.00000000000E+00 -0.45593999997E+02  0.45594000000E+02  0.51100000000E-03 0.  1.
    9900012    2    1    2    0    0  0.39861071068E+02  0.17497786015E+02 -0.11577389674E+02  0.46142318145E+02  0.10000003502E+02 0.  0.
         12    1    1    2    0    0 -0.39861071068E+02 -0.17497786015E+02  0.11577389674E+02  0.45045681855E+02  0.00000000000E+00 0. -1.
         11    1    3    3    0    0  0.28127638327E+02  0.15822903114E+02 -0.76317419614E+01  0.33162807276E+02  0.51100000000E-03 0.  1.
        -11    1    3    3    0    0  0.29143891253E+01 -0.11050815723E+01 -0.10846092909E+01  0.33001889083E+01  0.51100000000E-03 0. -1.
         12    1    3    3    0    0  0.88190436161E+01  0.27799644730E+01 -0.28610384216E+01  0.96793219609E+01  0.00000000000E+00 0. -1.
</event>
<event>
 7    1  0.1466590E-008  0.4614232E+02  0.7816164E-02  0.1320468E+00
        -11   -1    0    0    0    0  0.00000000000E+00  0.00000000000E+00  0.45593999997E+02  0.45594000000E+02  0.51100000000E-03 0.  1.
         11   -1    0    0    0    0 -0.00000000000E+00 -0.00000000000E+00 -0.45593999997E+02  0.45594000000E+02  0.51100000000E-03 0. -1.
    9900012    2    1    2    0    0 -0.17123182505E+02 -0.34283238842E+02  0.23676349124E+02  0.46142319270E+02  0.10000013758E+02 0.  0.
         12    1    1    2    0    0  0.17123182505E+02  0.34283238842E+02 -0.23676349124E+02  0.45045680730E+02  0.00000000000E+00 0. -1.
         11    1    3    3    0    0 -0.13951953452E+01 -0.12802179415E+02  0.86447565383E+01  0.15510454013E+02  0.51100000000E-03 0. -1.
        -11    1    3    3    0    0 -0.13214241537E+02 -0.16913763595E+02  0.11709943879E+02  0.24450242621E+02  0.51100000000E-03 0.  1.
         12    1    3    3    0    0 -0.25137456235E+01 -0.45672958319E+01  0.33216487067E+01  0.61816226355E+01  0.00000000000E+00 0. -1.
</event>
<event>
 7    1  0.1466590E-008  0.4614232E+02  0.7816164E-02  0.1320468E+00
        -11   -1    0    0    0    0  0.00000000000E+00  0.00000000000E+00  0.45593999997E+02  0.45594000000E+02  0.51100000000E-03 0.  1.
         11   -1    0    0    0    0 -0.00000000000E+00 -0.00000000000E+00 -0.45593999997E+02  0.45594000000E+02  0.51100000000E-03 0. -1.
    9900012    2    1    2    0    0 -0.37922311364E+01  0.43297002328E+02 -0.11836474082E+02  0.46142317118E+02  0.99999941393E+01 0.  0.
         12    1    1    2    0    0  0.37922311364E+01 -0.43297002328E+02  0.11836474082E+02  0.45045682882E+02  0.00000000000E+00 0. -1.
         11    1    3    3    0    0 -0.21426509596E+01  0.18266266680E+02 -0.95856830263E+01  0.20739642497E+02  0.51100000000E-03 0. -1.
        -11    1    3    3    0    0  0.87468738229E+00  0.39994899889E+01 -0.79517922437E+00  0.41705285574E+01  0.51100000000E-03 0.  1.
         12    1    3    3    0    0 -0.25242675591E+01  0.21031245659E+02 -0.14556118311E+01  0.21232146064E+02  0.00000000000E+00 0. -1.
</event>
<event>
 7    1  0.1466590E-008  0.4614232E+02  0.7816164E-02  0.1320468E+00
        -11   -1    0    0    0    0  0.00000000000E+00  0.00000000000E+00  0.45593999997E+02  0.45594000000E+02  0.51100000000E-03 0.  1.
         11   -1    0    0    0    0 -0.00000000000E+00 -0.00000000000E+00 -0.45593999997E+02  0.45594000000E+02  0.51100000000E-03 0. -1.
    9900012    2    1    2    0    0  0.14359703424E+02  0.11034902836E+02  0.41244918876E+02  0.46142317675E+02  0.99999992165E+01 0.  0.
         12    1    1    2    0    0 -0.14359703424E+02 -0.11034902836E+02 -0.41244918876E+02  0.45045682325E+02  0.00000000000E+00 0. -1.
         11    1    3    3    0    0  0.52708772772E+01  0.87886485306E+01  0.24712559459E+02  0.26753188325E+02  0.51100000000E-03 0. -1.
        -11    1    3    3    0    0  0.79055427684E+01  0.16611115376E+01  0.16077580513E+02  0.17992928984E+02  0.51100000000E-03 0.  1.
         12    1    3    3    0    0  0.11832833787E+01  0.58514276757E+00  0.45477890417E+00  0.13962003668E+01  0.00000000000E+00 0. -1.
</event>
<event>
 7    1  0.1466590E-008  0.4614232E+02  0.7816164E-02  0.1320468E+00
        -11   -1    0    0    0    0  0.00000000000E+00  0.00000000000E+00  0.45593999997E+02  0.45594000000E+02  0.51100000000E-03 0. -1.
         11   -1    0    0    0    0 -0.00000000000E+00 -0.00000000000E+00 -0.45593999997E+02  0.45594000000E+02  0.51100000000E-03 0.  1.
    9900012    2    1    2    0    0  0.44000343203E+02 -0.55244787821E+00 -0.96321408963E+01  0.46142317201E+02  0.99999948899E+01 0.  0.
         12    1    1    2    0    0 -0.44000343203E+02  0.55244787821E+00  0.96321408963E+01  0.45045682799E+02  0.00000000000E+00 0. -1.
         11    1    3    3    0    0  0.62278385683E+01 -0.24044881742E+01  0.16956988360E+00  0.66780454340E+01  0.51100000000E-03 0. -1.
        -11    1    3    3    0    0  0.21064401098E+02  0.13815812920E+01 -0.26186585355E+01  0.21271462885E+02  0.51100000000E-03 0.  1.
        -12    1    3    3    0    0  0.16708103536E+02  0.47045900399E+00 -0.71830522445E+01  0.18192808881E+02  0.00000000000E+00 0.  1.
</event>
<event>
 7    1  0.1466590E-008  0.4614231E+02  0.7816164E-02  0.1320468E+00
        -11   -1    0    0    0    0  0.00000000000E+00  0.00000000000E+00  0.45593999997E+02  0.45594000000E+02  0.51100000000E-03 0. -1.
         11   -1    0    0    0    0 -0.00000000000E+00 -0.00000000000E+00 -0.45593999997E+02  0.45594000000E+02  0.51100000000E-03 0.  1.
    9900012    2    1    2    0    0  0.55832353487E+01  0.96166038504E+01 -0.43651603050E+02  0.46142311689E+02  0.99999446298E+01 0.  0.
         12    1    1    2    0    0 -0.55832353487E+01 -0.96166038504E+01  0.43651603050E+02  0.45045688311E+02  0.00000000000E+00 0. -1.
         11    1    3    3    0    0  0.10444604909E+01  0.69693183954E+01 -0.11503899145E+02  0.13490811407E+02  0.51100000000E-03 0. -1.
        -11    1    3    3    0    0  0.31354202637E+00  0.98959354970E+00 -0.92674981765E+01  0.93254558446E+01  0.51100000000E-03 0.  1.
         12    1    3    3    0    0  0.42252328314E+01  0.16576919053E+01 -0.22880205729E+02  0.23326044438E+02  0.00000000000E+00 0. -1.
</event>
<event>
 7    1  0.1466590E-008  0.4614232E+02  0.7816164E-02  0.1320468E+00
        -11   -1    0    0    0    0  0.00000000000E+00  0.00000000000E+00  0.45593999997E+02  0.45594000000E+02  0.51100000000E-03 0. -1.
         11   -1    0    0    0    0 -0.00000000000E+00 -0.00000000000E+00 -0.45593999997E+02  0.45594000000E+02  0.51100000000E-03 0.  1.
    9900012    2    1    2    0    0 -0.16848987028E+02 -0.61048018121E+01 -0.41327427376E+02  0.46142320712E+02  0.10000026906E+02 0.  0.
         12    1    1    2    0    0  0.16848987028E+02  0.61048018121E+01  0.41327427376E+02  0.45045679288E+02  0.00000000000E+00 0. -1.
         11    1    3    3    0    0 -0.47919207742E+01  0.23891911602E+01 -0.12690052232E+02  0.13773458717E+02  0.51100000000E-03 0. -1.
        -11    1    3    3    0    0 -0.97897690743E+01 -0.74299467429E+01 -0.25842009243E+02  0.28615609886E+02  0.51100000000E-03 0.  1.
         12    1    3    3    0    0 -0.22672971800E+01 -0.10640462295E+01 -0.27953658998E+01  0.37532521091E+01  0.00000000000E+00 0. -1.
</event>
<event>
 7    1  0.1466590E-008  0.4614232E+02  0.7816164E-02  0.1320468E+00
        -11   -1    0    0    0    0  0.00000000000E+00  0.00000000000E+00  0.45593999997E+02  0.45594000000E+02  0.51100000000E-03 0.  1.
         11   -1    0    0    0    0 -0.00000000000E+00 -0.00000000000E+00 -0.45593999997E+02  0.45594000000E+02  0.51100000000E-03 0. -1.
    9900012    2    1    2    0    0  0.89732467193E+01 -0.96870064079E+01  0.43066880689E+02  0.46142318052E+02  0.10000002653E+02 0.  0.
         12    1    1    2    0    0 -0.89732467193E+01  0.96870064079E+01 -0.43066880689E+02  0.45045681948E+02  0.00000000000E+00 0. -1.
         11    1    3    3    0    0  0.74007359321E-01  0.37004859676E+00 -0.40935019929E+00  0.55675928369E+00  0.51100000000E-03 0. -1.
        -11    1    3    3    0    0  0.19180201373E+01 -0.11356780271E+01  0.99700302447E+01  0.10216167049E+02  0.51100000000E-03 0.  1.
         12    1    3    3    0    0  0.69812192227E+01 -0.89213769776E+01  0.33506200644E+02  0.35369391720E+02  0.00000000000E+00 0. -1.
</event>
<event>
 7    1  0.1466590E-008  0.4614232E+02  0.7816164E-02  0.1320468E+00
        -11   -1    0    0    0    0  0.00000000000E+00  0.00000000000E+00  0.45593999997E+02  0.45594000000E+02  0.51100000000E-03 0.  1.
         11   -1    0    0    0    0 -0.00000000000E+00 -0.00000000000E+00 -0.45593999997E+02  0.45594000000E+02  0.51100000000E-03 0. -1.
    9900012    2    1    2    0    0 -0.26460210269E+01 -0.56459580451E+00  0.44964356284E+02  0.46142317280E+02  0.99999956128E+01 0.  0.
         12    1    1    2    0    0  0.26460210269E+01  0.56459580451E+00 -0.44964356284E+02  0.45045682720E+02  0.00000000000E+00 0. -1.
         11    1    3    3    0    0  0.10578382044E+00  0.97501296535E+00  0.27259851882E+01  0.28970391794E+01  0.51100000000E-03 0. -1.
        -11    1    3    3    0    0 -0.26489587112E+01 -0.25928422094E+01  0.64347647980E+01  0.74260360384E+01  0.51100000000E-03 0.  1.
        -12    1    3    3    0    0 -0.10284613617E+00  0.10532334395E+01  0.35803606298E+02  0.35819242062E+02  0.00000000000E+00 0.  1.
</event>
<event>
 7    1  0.1466590E-008  0.4614232E+02  0.7816164E-02  0.1320468E+00
        -11   -1    0    0    0    0  0.00000000000E+00  0.00000000000E+00  0.45593999997E+02  0.45594000000E+02  0.51100000000E-03 0. -1.
         11   -1    0    0    0    0 -0.00000000000E+00 -0.00000000000E+00 -0.45593999997E+02  0.45594000000E+02  0.51100000000E-03 0.  1.
    9900012    2    1    2    0    0  0.29537100535E+02  0.22048597063E+02 -0.25894641534E+02  0.46142318735E+02  0.10000008878E+02 0.  0.
         12    1    1    2    0    0 -0.29537100535E+02 -0.22048597063E+02  0.25894641534E+02  0.45045681265E+02  0.00000000000E+00 0. -1.
         11    1    3    3    0    0 -0.47291980410E-01 -0.38207967017E+00  0.44990073859E+00  0.59214216323E+00  0.51100000000E-03 0. -1.
        -11    1    3    3    0    0  0.23825811329E+02  0.17780170558E+02 -0.20372482630E+02  0.36039447822E+02  0.51100000000E-03 0.  1.
         12    1    3    3    0    0  0.57585811867E+01  0.46505061753E+01 -0.59720596424E+01  0.95107287493E+01  0.00000000000E+00 0. -1.
</event>
<event>
 7    1  0.1466590E-008  0.4614232E+02  0.7816164E-02  0.1320468E+00
        -11   -1    0    0    0    0  0.00000000000E+00  0.00000000000E+00  0.45593999997E+02  0.45594000000E+02  0.51100000000E-03 0.  1.
         11   -1    0    0    0    0 -0.00000000000E+00 -0.00000000000E+00 -0.45593999997E+02  0.45594000000E+02  0.51100000000E-03 0. -1.
    9900012    2    1    2    0    0 -0.44531528156E+02  0.52563830120E+01  0.42926419960E+01  0.46142319435E+02  0.10000015264E+02 0.  0.
         12    1    1    2    0    0  0.44531528156E+02 -0.52563830120E+01 -0.42926419960E+01  0.45045680565E+02  0.00000000000E+00 0. -1.
         11    1    3    3    0    0 -0.34592712782E+00 -0.89807422692E+00  0.34330192149E+00  0.10217922319E+01  0.51100000000E-03 0. -1.
        -11    1    3    3    0    0 -0.14887203705E+02  0.22971042077E+00 -0.51312627647E+00  0.14897815272E+02  0.51100000000E-03 0.  1.
        -12    1    3    3    0    0 -0.29298397323E+02  0.59247468181E+01  0.44624663510E+01  0.30222711931E+02  0.00000000000E+00 0.  1.
</event>
<event>
 7    1  0.1466590E-008  0.4614231E+02  0.7816164E-02  0.1320468E+00
        -11   -1    0    0    0    0  0.00000000000E+00  0.00000000000E+00  0.45593999997E+02  0.45594000000E+02  0.51100000000E-03 0.  1.
         11   -1    0    0    0    0 -0.00000000000E+00 -0.00000000000E+00 -0.45593999997E+02  0.45594000000E+02  0.51100000000E-03 0. -1.
    9900012    2    1    2    0    0  0.92882009072E+01  0.43950637896E+02  0.33443609831E+01  0.46142312105E+02  0.99999484215E+01 0.  0.
         12    1    1    2    0    0 -0.92882009072E+01 -0.43950637896E+02 -0.33443609831E+01  0.45045687895E+02  0.00000000000E+00 0. -1.
         11    1    3    3    0    0  0.32655074784E+01  0.10169930782E+02 -0.28087125486E+01  0.11044450989E+02  0.51100000000E-03 0. -1.
        -11    1    3    3    0    0  0.27115410281E+01  0.20629841271E+02  0.19416151480E+01  0.20897671527E+02  0.51100000000E-03 0.  1.
        -12    1    3    3    0    0  0.33111524007E+01  0.13150865843E+02  0.42114583837E+01  0.14200189589E+02  0.00000000000E+00 0.  1.
</event>
<event>
 7    1  0.1466590E-008  0.4614232E+02  0.7816164E-02  0.1320468E+00
        -11   -1    0    0    0    0  0.00000000000E+00  0.00000000000E+00  0.45593999997E+02  0.45594000000E+02  0.51100000000E-03 0.  1.
         11   -1    0    0    0    0 -0.00000000000E+00 -0.00000000000E+00 -0.45593999997E+02  0.45594000000E+02  0.51100000000E-03 0. -1.
    9900012    2    1    2    0    0  0.30867195852E+02 -0.26832035823E+02  0.18877807446E+02  0.46142317186E+02  0.99999947584E+01 0.  0.
         12    1    1    2    0    0 -0.30867195852E+02  0.26832035823E+02 -0.18877807446E+02  0.45045682814E+02  0.00000000000E+00 0. -1.
         11    1    3    3    0    0  0.83243004791E+01 -0.30648811093E+01  0.40885716158E+01  0.97674916329E+01  0.51100000000E-03 0. -1.
        -11    1    3    3    0    0  0.16447630407E+02 -0.14526096895E+02  0.78303453439E+01  0.23299063189E+02  0.51100000000E-03 0.  1.
         12    1    3    3    0    0  0.60952649660E+01 -0.92410578183E+01  0.69588904866E+01  0.13075762364E+02  0.00000000000E+00 0. -1.
</event>
<event>
 7    1  0.1466590E-008  0.4614232E+02  0.7816164E-02  0.1320468E+00
        -11   -1    0    0    0    0  0.00000000000E+00  0.00000000000E+00  0.45593999997E+02  0.45594000000E+02  0.51100000000E-03 0.  1.
         11   -1    0    0    0    0 -0.00000000000E+00 -0.00000000000E+00 -0.45593999997E+02  0.45594000000E+02  0.51100000000E-03 0. -1.
    9900012    2    1    2    0    0 -0.40122127829E+02 -0.98158066567E+01 -0.17971595918E+02  0.46142318057E+02  0.10000002695E+02 0.  0.
         12    1    1    2    0    0  0.40122127829E+02  0.98158066567E+01  0.17971595918E+02  0.45045681943E+02  0.00000000000E+00 0. -1.
         11    1    3    3    0    0 -0.66614791048E+01  0.17962297429E-01 -0.69225381317E+00  0.66973757630E+01  0.51100000000E-03 0. -1.
        -11    1    3    3    0    0 -0.24497394011E+02 -0.73089716331E+01 -0.93710682478E+01  0.27227932349E+02  0.51100000000E-03 0.  1.
         12    1    3    3    0    0 -0.89632547139E+01 -0.25247973210E+01 -0.79082738573E+01  0.12217009944E+02  0.00000000000E+00 0. -1.
</event>
<event>
 7    1  0.1466590E-008  0.4614232E+02  0.7816164E-02  0.1320468E+00
        -11   -1    0    0    0    0  0.00000000000E+00  0.00000000000E+00  0.45593999997E+02  0.45594000000E+02  0.51100000000E-03 0.  1.
         11   -1    0    0    0    0 -0.00000000000E+00 -0.00000000000E+00 -0.45593999997E+02  0.45594000000E+02  0.51100000000E-03 0. -1.
    9900012    2    1    2    0    0  0.12481998762E+02  0.13581972841E+02  0.41095537182E+02  0.46142318125E+02  0.10000003314E+02 0.  0.
         12    1    1    2    0    0 -0.12481998762E+02 -0.13581972841E+02 -0.41095537182E+02  0.45045681875E+02  0.00000000000E+00 0. -1.
         11    1    3    3    0    0 -0.96239755471E+00  0.55498194632E+00  0.22238031619E+01  0.24858629846E+01  0.51100000000E-03 0. -1.
        -11    1    3    3    0    0  0.45384056717E+01  0.83726520080E+01  0.22700981742E+02  0.24617737508E+02  0.51100000000E-03 0.  1.
         12    1    3    3    0    0  0.89059906448E+01  0.46543388865E+01  0.16170752278E+02  0.19038717632E+02  0.00000000000E+00 0. -1.
</event>
<event>
 7    1  0.1466590E-008  0.4614232E+02  0.7816164E-02  0.1320468E+00
        -11   -1    0    0    0    0  0.00000000000E+00  0.00000000000E+00  0.45593999997E+02  0.45594000000E+02  0.51100000000E-03 0. -1.
         11   -1    0    0    0    0 -0.00000000000E+00 -0.00000000000E+00 -0.45593999997E+02  0.45594000000E+02  0.51100000000E-03 0.  1.
    9900012    2    1    2    0    0  0.62759778543E+01 -0.44382608032E+02 -0.44620142469E+01  0.46142319132E+02  0.10000012497E+02 0.  0.
         12    1    1    2    0    0 -0.62759778543E+01  0.44382608032E+02  0.44620142469E+01  0.45045680868E+02  0.00000000000E+00 0. -1.
         11    1    3    3    0    0  0.35212405950E+01 -0.13073413933E+02  0.27287211634E+00  0.13542073204E+02  0.51100000000E-03 0.  1.
        -11    1    3    3    0    0 -0.10807611344E+01 -0.47321667360E+00 -0.12181742145E+00  0.11860937547E+01  0.51100000000E-03 0. -1.
        -12    1    3    3    0    0  0.38354983936E+01 -0.30835977425E+02 -0.46130689418E+01  0.31414152173E+02  0.00000000000E+00 0.  1.
</event>
<event>
 7    1  0.1466590E-008  0.4614232E+02  0.7816164E-02  0.1320468E+00
        -11   -1    0    0    0    0  0.00000000000E+00  0.00000000000E+00  0.45593999997E+02  0.45594000000E+02  0.51100000000E-03 0.  1.
         11   -1    0    0    0    0 -0.00000000000E+00 -0.00000000000E+00 -0.45593999997E+02  0.45594000000E+02  0.51100000000E-03 0. -1.
    9900012    2    1    2    0    0  0.14467557919E+01  0.87973023594E+01  0.44154590164E+02  0.46142318035E+02  0.10000002496E+02 0.  0.
         12    1    1    2    0    0 -0.14467557919E+01 -0.87973023594E+01 -0.44154590164E+02  0.45045681965E+02  0.00000000000E+00 0. -1.
         11    1    3    3    0    0  0.31433055734E+01  0.18885897032E+01  0.87604283806E+01  0.94969598645E+01  0.51100000000E-03 0. -1.
        -11    1    3    3    0    0  0.18420982736E+01  0.49684995902E+01  0.23325521262E+02  0.23919850681E+02  0.51100000000E-03 0.  1.
         12    1    3    3    0    0 -0.35386480551E+01  0.19402130660E+01  0.12068640522E+02  0.12725507489E+02  0.00000000000E+00 0. -1.
</event>
<event>
 7    1  0.1466590E-008  0.4614232E+02  0.7816164E-02  0.1320468E+00
        -11   -1    0    0    0    0  0.00000000000E+00  0.00000000000E+00  0.45593999997E+02  0.45594000000E+02  0.51100000000E-03 0.  1.
         11   -1    0    0    0    0 -0.00000000000E+00 -0.00000000000E+00 -0.45593999997E+02  0.45594000000E+02  0.51100000000E-03 0. -1.
    9900012    2    1    2    0    0 -0.12927440861E+02  0.16113035591E+02  0.40029545842E+02  0.46142321145E+02  0.10000030859E+02 0.  0.
         12    1    1    2    0    0  0.12927440861E+02 -0.16113035591E+02 -0.40029545842E+02  0.45045678855E+02  0.00000000000E+00 0. -1.
         11    1    3    3    0    0 -0.79688384145E+01  0.39774236818E+01  0.17153342427E+02  0.19327685881E+02  0.51100000000E-03 0. -1.
        -11    1    3    3    0    0 -0.21334308261E+01  0.10387693895E+02  0.18448582389E+02  0.21279236452E+02  0.51100000000E-03 0.  1.
         12    1    3    3    0    0 -0.28251716201E+01  0.17479180148E+01  0.44276210259E+01  0.55353988130E+01  0.00000000000E+00 0. -1.
</event>
<event>
 7    1  0.1466590E-008  0.4614230E+02  0.7816164E-02  0.1320468E+00
        -11   -1    0    0    0    0  0.00000000000E+00  0.00000000000E+00  0.45593999997E+02  0.45594000000E+02  0.51100000000E-03 0.  1.
         11   -1    0    0    0    0 -0.00000000000E+00 -0.00000000000E+00 -0.45593999997E+02  0.45594000000E+02  0.51100000000E-03 0. -1.
    9900012    2    1    2    0    0 -0.41977041356E+02  0.11515773477E+02  0.11594387284E+02  0.46142302577E+02  0.99998615410E+01 0.  0.
         12    1    1    2    0    0  0.41977041356E+02 -0.11515773477E+02 -0.11594387284E+02  0.45045697423E+02  0.00000000000E+00 0. -1.
         11    1    3    3    0    0 -0.78284038533E+01  0.43903013158E+01  0.60012755733E+01  0.10796942220E+02  0.51100000000E-03 0. -1.
        -11    1    3    3    0    0 -0.15003072928E+02  0.33292739940E+01  0.19724572840E+01  0.15494090828E+02  0.51100000000E-03 0.  1.
         12    1    3    3    0    0 -0.19145564575E+02  0.37961981676E+01  0.36206544267E+01  0.19851269529E+02  0.00000000000E+00 0. -1.
</event>
<event>
 7    1  0.1466590E-008  0.4614232E+02  0.7816164E-02  0.1320468E+00
        -11   -1    0    0    0    0  0.00000000000E+00  0.00000000000E+00  0.45593999997E+02  0.45594000000E+02  0.51100000000E-03 0.  1.
         11   -1    0    0    0    0 -0.00000000000E+00 -0.00000000000E+00 -0.45593999997E+02  0.45594000000E+02  0.51100000000E-03 0. -1.
    9900012    2    1    2    0    0  0.25506379396E+02  0.34713360262E+02  0.13172727059E+02  0.46142317535E+02  0.99999979396E+01 0.  0.
         12    1    1    2    0    0 -0.25506379396E+02 -0.34713360262E+02 -0.13172727059E+02  0.45045682465E+02  0.00000000000E+00 0. -1.
         11    1    3    3    0    0 -0.64479867199E-01  0.29093545670E+01  0.28309782253E+00  0.29238068144E+01  0.51100000000E-03 0. -1.
        -11    1    3    3    0    0  0.19598346325E+02  0.27915523653E+02  0.11122192879E+02  0.35875824927E+02  0.51100000000E-03 0.  1.
        -12    1    3    3    0    0  0.59725129387E+01  0.38884820418E+01  0.17674363569E+01  0.73426857939E+01  0.00000000000E+00 0.  1.
</event>
<event>
 7    1  0.1466590E-008  0.4614232E+02  0.7816164E-02  0.1320468E+00
        -11   -1    0    0    0    0  0.00000000000E+00  0.00000000000E+00  0.45593999997E+02  0.45594000000E+02  0.51100000000E-03 0. -1.
         11   -1    0    0    0    0 -0.00000000000E+00 -0.00000000000E+00 -0.45593999997E+02  0.45594000000E+02  0.51100000000E-03 0.  1.
    9900012    2    1    2    0    0 -0.30847980190E+01  0.42827236751E+02  0.13617094577E+02  0.46142318173E+02  0.10000003753E+02 0.  0.
         12    1    1    2    0    0  0.30847980190E+01 -0.42827236751E+02 -0.13617094577E+02  0.45045681827E+02  0.00000000000E+00 0. -1.
         11    1    3    3    0    0 -0.17688874453E+00  0.47590502344E+01  0.32832120989E+01  0.57844040928E+01  0.51100000000E-03 0. -1.
        -11    1    3    3    0    0  0.10616112007E+01  0.48887147560E+00  0.69418933372E+00  0.13593795472E+01  0.51100000000E-03 0.  1.
        -12    1    3    3    0    0 -0.39695204751E+01  0.37579315041E+02  0.96396931447E+01  0.38998534533E+02  0.00000000000E+00 0.  1.
</event>
<event>
 7    1  0.1466590E-008  0.4614232E+02  0.7816164E-02  0.1320468E+00
        -11   -1    0    0    0    0  0.00000000000E+00  0.00000000000E+00  0.45593999997E+02  0.45594000000E+02  0.51100000000E-03 0.  1.
         11   -1    0    0    0    0 -0.00000000000E+00 -0.00000000000E+00 -0.45593999997E+02  0.45594000000E+02  0.51100000000E-03 0. -1.
    9900012    2    1    2    0    0  0.29889172937E+02 -0.33308369063E+02  0.51286819814E+01  0.46142317773E+02  0.10000000105E+02 0.  0.
         12    1    1    2    0    0 -0.29889172937E+02  0.33308369063E+02 -0.51286819814E+01  0.45045682227E+02  0.00000000000E+00 0. -1.
         11    1    3    3    0    0  0.77683949956E+01 -0.42830915034E+01 -0.31988868223E+00  0.88766639377E+01  0.51100000000E-03 0. -1.
        -11    1    3    3    0    0  0.12632742516E+02 -0.19716425668E+02  0.18182278912E+01  0.23486795812E+02  0.51100000000E-03 0.  1.
         12    1    3    3    0    0  0.94880354247E+01 -0.93088518918E+01  0.36303427724E+01  0.13778858023E+02  0.00000000000E+00 0. -1.
</event>
<event>
 7    1  0.1466590E-008  0.4614232E+02  0.7816164E-02  0.1320468E+00
        -11   -1    0    0    0    0  0.00000000000E+00  0.00000000000E+00  0.45593999997E+02  0.45594000000E+02  0.51100000000E-03 0. -1.
         11   -1    0    0    0    0 -0.00000000000E+00 -0.00000000000E+00 -0.45593999997E+02  0.45594000000E+02  0.51100000000E-03 0.  1.
    9900012    2    1    2    0    0 -0.41392896458E+02  0.74544764943E-01 -0.17768961943E+02  0.46142318269E+02  0.10000004630E+02 0.  0.
         12    1    1    2    0    0  0.41392896458E+02 -0.74544764943E-01  0.17768961943E+02  0.45045681731E+02  0.00000000000E+00 0. -1.
         11    1    3    3    0    0 -0.83706416072E+01 -0.32508768856E+01 -0.45627797659E+01  0.10072477396E+02  0.51100000000E-03 0. -1.
        -11    1    3    3    0    0 -0.32435245415E+02  0.39856536120E+01 -0.12784915312E+02  0.35091090602E+02  0.51100000000E-03 0.  1.
        -12    1    3    3    0    0 -0.58700943545E+00 -0.66023196147E+00 -0.42126686545E+00  0.97875027059E+00  0.00000000000E+00 0.  1.
</event>
<event>
 7    1  0.1466590E-008  0.4614232E+02  0.7816164E-02  0.1320468E+00
        -11   -1    0    0    0    0  0.00000000000E+00  0.00000000000E+00  0.45593999997E+02  0.45594000000E+02  0.51100000000E-03 0. -1.
         11   -1    0    0    0    0 -0.00000000000E+00 -0.00000000000E+00 -0.45593999997E+02  0.45594000000E+02  0.51100000000E-03 0.  1.
    9900012    2    1    2    0    0  0.39191733048E+02 -0.36369218773E+01 -0.21906487392E+02  0.46142319520E+02  0.10000016041E+02 0.  0.
         12    1    1    2    0    0 -0.39191733048E+02  0.36369218773E+01  0.21906487392E+02  0.45045680480E+02  0.00000000000E+00 0. -1.
         11    1    3    3    0    0  0.10391282307E+02  0.16650623943E+01 -0.36513059683E+01  0.11139264621E+02  0.51100000000E-03 0. -1.
        -11    1    3    3    0    0  0.26400470509E+02 -0.63845613627E+01 -0.17296061487E+02  0.32200950454E+02  0.51100000000E-03 0.  1.
        -12    1    3    3    0    0  0.23999802317E+01  0.10825770911E+01 -0.95911993638E+00  0.28021044454E+01  0.00000000000E+00 0.  1.
</event>
<event>
 7    1  0.1466590E-008  0.4614232E+02  0.7816164E-02  0.1320468E+00
        -11   -1    0    0    0    0  0.00000000000E+00  0.00000000000E+00  0.45593999997E+02  0.45594000000E+02  0.51100000000E-03 0.  1.
         11   -1    0    0    0    0 -0.00000000000E+00 -0.00000000000E+00 -0.45593999997E+02  0.45594000000E+02  0.51100000000E-03 0. -1.
    9900012    2    1    2    0    0  0.29374068646E+02 -0.98880688396E+01  0.32687974115E+02  0.46142318010E+02  0.10000002269E+02 0.  0.
         12    1    1    2    0    0 -0.29374068646E+02  0.98880688396E+01 -0.32687974115E+02  0.45045681990E+02  0.00000000000E+00 0. -1.
         11    1    3    3    0    0  0.98890622392E+01 -0.52940568478E+01  0.18198919108E+02  0.21378055263E+02  0.51100000000E-03 0. -1.
        -11    1    3    3    0    0  0.97574516421E+01 -0.31060915940E+01  0.71882286927E+01  0.12511047100E+02  0.51100000000E-03 0.  1.
         12    1    3    3    0    0  0.97275547650E+01 -0.14879203979E+01  0.73008263146E+01  0.12253215647E+02  0.00000000000E+00 0. -1.
</event>
<event>
 7    1  0.1466590E-008  0.4614232E+02  0.7816164E-02  0.1320468E+00
        -11   -1    0    0    0    0  0.00000000000E+00  0.00000000000E+00  0.45593999997E+02  0.45594000000E+02  0.51100000000E-03 0.  1.
         11   -1    0    0    0    0 -0.00000000000E+00 -0.00000000000E+00 -0.45593999997E+02  0.45594000000E+02  0.51100000000E-03 0. -1.
    9900012    2    1    2    0    0 -0.43418537992E+02  0.86097361761E+01 -0.83556241962E+01  0.46142318142E+02  0.10000003469E+02 0.  0.
         12    1    1    2    0    0  0.43418537992E+02 -0.86097361761E+01  0.83556241962E+01  0.45045681858E+02  0.00000000000E+00 0. -1.
         11    1    3    3    0    0 -0.35308062539E+00  0.74879923688E+00 -0.48553506722E+00  0.95974516816E+00  0.51100000000E-03 0. -1.
        -11    1    3    3    0    0 -0.41751650741E+02  0.89714460674E+01 -0.80365643498E+01  0.43454269651E+02  0.51100000000E-03 0.  1.
        -12    1    3    3    0    0 -0.13138066261E+01 -0.11105091282E+01  0.16647522084E+00  0.17283033223E+01  0.00000000000E+00 0.  1.
</event>
<event>
 7    1  0.1466590E-008  0.4614232E+02  0.7816164E-02  0.1320468E+00
        -11   -1    0    0    0    0  0.00000000000E+00  0.00000000000E+00  0.45593999997E+02  0.45594000000E+02  0.51100000000E-03 0.  1.
         11   -1    0    0    0    0 -0.00000000000E+00 -0.00000000000E+00 -0.45593999997E+02  0.45594000000E+02  0.51100000000E-03 0. -1.
    9900012    2    1    2    0    0  0.25453290050E+02  0.21599381824E+02  0.30244177433E+02  0.46142317209E+02  0.99999949626E+01 0.  0.
         12    1    1    2    0    0 -0.25453290050E+02 -0.21599381824E+02 -0.30244177433E+02  0.45045682791E+02  0.00000000000E+00 0. -1.
         11    1    3    3    0    0  0.59692559250E+00  0.24543309677E+01 -0.24747861017E-02  0.25258794603E+01  0.51100000000E-03 0. -1.
        -11    1    3    3    0    0  0.21350196635E+02  0.17142027640E+02  0.26657674994E+02  0.38214024183E+02  0.51100000000E-03 0.  1.
        -12    1    3    3    0    0  0.35061678224E+01  0.20030232169E+01  0.35889772250E+01  0.54024135650E+01  0.00000000000E+00 0.  1.
</event>
<event>
 7    1  0.1466590E-008  0.4614232E+02  0.7816164E-02  0.1320468E+00
        -11   -1    0    0    0    0  0.00000000000E+00  0.00000000000E+00  0.45593999997E+02  0.45594000000E+02  0.51100000000E-03 0. -1.
         11   -1    0    0    0    0 -0.00000000000E+00 -0.00000000000E+00 -0.45593999997E+02  0.45594000000E+02  0.51100000000E-03 0.  1.
    9900012    2    1    2    0    0 -0.20149531692E+02  0.39697925579E+02 -0.68690966269E+01  0.46142318619E+02  0.10000007818E+02 0.  0.
         12    1    1    2    0    0  0.20149531692E+02 -0.39697925579E+02  0.68690966269E+01  0.45045681381E+02  0.00000000000E+00 0. -1.
         11    1    3    3    0    0 -0.23156018029E+01  0.64235908068E+01  0.20363262791E+01  0.71253880974E+01  0.51100000000E-03 0. -1.
        -11    1    3    3    0    0 -0.63751022291E+01  0.15045130281E+02 -0.53511540256E+01  0.17193973458E+02  0.51100000000E-03 0.  1.
        -12    1    3    3    0    0 -0.11458827660E+02  0.18229204491E+02 -0.35542688804E+01  0.21822957063E+02  0.00000000000E+00 0.  1.
</event>
<event>
 7    1  0.1466590E-008  0.4614232E+02  0.7816164E-02  0.1320468E+00
        -11   -1    0    0    0    0  0.00000000000E+00  0.00000000000E+00  0.45593999997E+02  0.45594000000E+02  0.51100000000E-03 0. -1.
         11   -1    0    0    0    0 -0.00000000000E+00 -0.00000000000E+00 -0.45593999997E+02  0.45594000000E+02  0.51100000000E-03 0.  1.
    9900012    2    1    2    0    0 -0.84996498338E+00  0.43061703342E+02 -0.13193966377E+02  0.46142317811E+02  0.10000000451E+02 0.  0.
         12    1    1    2    0    0  0.84996498338E+00 -0.43061703342E+02  0.13193966377E+02  0.45045682189E+02  0.00000000000E+00 0. -1.
         11    1    3    3    0    0 -0.14341459870E+01  0.93303556473E+01 -0.96477992246E+00  0.94891048986E+01  0.51100000000E-03 0. -1.
        -11    1    3    3    0    0 -0.22433122552E+01  0.33978956353E+01 -0.10822723540E+01  0.42130106019E+01  0.51100000000E-03 0.  1.
        -12    1    3    3    0    0  0.28274932588E+01  0.30333452059E+02 -0.11146914100E+02  0.32440202310E+02  0.00000000000E+00 0.  1.
</event>
<event>
 7    1  0.1466590E-008  0.4614232E+02  0.7816164E-02  0.1320468E+00
        -11   -1    0    0    0    0  0.00000000000E+00  0.00000000000E+00  0.45593999997E+02  0.45594000000E+02  0.51100000000E-03 0.  1.
         11   -1    0    0    0    0 -0.00000000000E+00 -0.00000000000E+00 -0.45593999997E+02  0.45594000000E+02  0.51100000000E-03 0. -1.
    9900012    2    1    2    0    0 -0.14186499168E+02 -0.36130133069E+02  0.22857608003E+02  0.46142317434E+02  0.99999970187E+01 0.  0.
         12    1    1    2    0    0  0.14186499168E+02  0.36130133069E+02 -0.22857608003E+02  0.45045682566E+02  0.00000000000E+00 0. -1.
         11    1    3    3    0    0 -0.71332302994E+01 -0.22604501667E+02  0.11162478328E+02  0.26200141084E+02  0.51100000000E-03 0. -1.
        -11    1    3    3    0    0 -0.31152677656E+01 -0.11086629952E+02  0.81208960182E+01  0.14091387772E+02  0.51100000000E-03 0.  1.
         12    1    3    3    0    0 -0.39380011027E+01 -0.24390014501E+01  0.35742336571E+01  0.58507885788E+01  0.00000000000E+00 0. -1.
</event>
<event>
 7    1  0.1466590E-008  0.4614231E+02  0.7816164E-02  0.1320468E+00
        -11   -1    0    0    0    0  0.00000000000E+00  0.00000000000E+00  0.45593999997E+02  0.45594000000E+02  0.51100000000E-03 0.  1.
         11   -1    0    0    0    0 -0.00000000000E+00 -0.00000000000E+00 -0.45593999997E+02  0.45594000000E+02  0.51100000000E-03 0. -1.
    9900012    2    1    2    0    0 -0.41986936228E+02  0.12856162934E+02 -0.10046404991E+02  0.46142312166E+02  0.99999489749E+01 0.  0.
         12    1    1    2    0    0  0.41986936228E+02 -0.12856162934E+02  0.10046404991E+02  0.45045687834E+02  0.00000000000E+00 0. -1.
         11    1    3    3    0    0 -0.27110257750E+01  0.12151911589E+01 -0.28713052747E+01  0.41316757553E+01  0.51100000000E-03 0. -1.
        -11    1    3    3    0    0 -0.33733493028E+02  0.96017687839E+01 -0.39866549234E+01  0.35299234175E+02  0.51100000000E-03 0.  1.
        -12    1    3    3    0    0 -0.55424174258E+01  0.20392029912E+01 -0.31884447929E+01  0.67114022349E+01  0.00000000000E+00 0.  1.
</event>
<event>
 7    1  0.1466590E-008  0.4614232E+02  0.7816164E-02  0.1320468E+00
        -11   -1    0    0    0    0  0.00000000000E+00  0.00000000000E+00  0.45593999997E+02  0.45594000000E+02  0.51100000000E-03 0.  1.
         11   -1    0    0    0    0 -0.00000000000E+00 -0.00000000000E+00 -0.45593999997E+02  0.45594000000E+02  0.51100000000E-03 0. -1.
    9900012    2    1    2    0    0  0.18936579017E+02 -0.11726158078E+02  0.39153757160E+02  0.46142317545E+02  0.99999980268E+01 0.  0.
         12    1    1    2    0    0 -0.18936579017E+02  0.11726158078E+02 -0.39153757160E+02  0.45045682455E+02  0.00000000000E+00 0. -1.
         11    1    3    3    0    0  0.56109261934E+01 -0.49987953826E+01  0.16873542535E+02  0.18471244841E+02  0.51100000000E-03 0. -1.
        -11    1    3    3    0    0  0.12745122830E+02 -0.77897362700E+01  0.21659217865E+02  0.26310451647E+02  0.51100000000E-03 0.  1.
         12    1    3    3    0    0  0.58052999375E+00  0.10623735741E+01  0.62099675989E+00  0.13606210569E+01  0.00000000000E+00 0. -1.
</event>
<event>
 7    1  0.1466590E-008  0.4614232E+02  0.7816164E-02  0.1320468E+00
        -11   -1    0    0    0    0  0.00000000000E+00  0.00000000000E+00  0.45593999997E+02  0.45594000000E+02  0.51100000000E-03 0.  1.
         11   -1    0    0    0    0 -0.00000000000E+00 -0.00000000000E+00 -0.45593999997E+02  0.45594000000E+02  0.51100000000E-03 0. -1.
    9900012    2    1    2    0    0  0.33301782632E+02  0.30106250520E+02 -0.37038372481E+01  0.46142318107E+02  0.10000003154E+02 0.  0.
         12    1    1    2    0    0 -0.33301782632E+02 -0.30106250520E+02  0.37038372481E+01  0.45045681893E+02  0.00000000000E+00 0. -1.
         11    1    3    3    0    0  0.47368719885E+01  0.11971460430E+01 -0.37255176806E+00  0.48999908127E+01  0.51100000000E-03 0. -1.
        -11    1    3    3    0    0  0.20636545707E+02  0.18065072396E+02 -0.43550351436E+01  0.27770131270E+02  0.51100000000E-03 0.  1.
         12    1    3    3    0    0  0.79283649367E+01  0.10844032081E+02  0.10237496635E+01  0.13472196024E+02  0.00000000000E+00 0. -1.
</event>
<event>
 7    1  0.1466590E-008  0.4614232E+02  0.7816164E-02  0.1320468E+00
        -11   -1    0    0    0    0  0.00000000000E+00  0.00000000000E+00  0.45593999997E+02  0.45594000000E+02  0.51100000000E-03 0.  1.
         11   -1    0    0    0    0 -0.00000000000E+00 -0.00000000000E+00 -0.45593999997E+02  0.45594000000E+02  0.51100000000E-03 0. -1.
    9900012    2    1    2    0    0 -0.24249106735E+02  0.16157787935E+02  0.34351420083E+02  0.46142319296E+02  0.10000013995E+02 0.  0.
         12    1    1    2    0    0  0.24249106735E+02 -0.16157787935E+02 -0.34351420083E+02  0.45045680704E+02  0.00000000000E+00 0. -1.
         11    1    3    3    0    0 -0.82632034941E+01  0.41051585902E+01  0.63983420292E+01  0.11228162807E+02  0.51100000000E-03 0. -1.
        -11    1    3    3    0    0 -0.11373251204E+02  0.84312059054E+01  0.14635544315E+02  0.20362593981E+02  0.51100000000E-03 0.  1.
        -12    1    3    3    0    0 -0.46126520361E+01  0.36214234390E+01  0.13317533739E+02  0.14551562508E+02  0.00000000000E+00 0.  1.
</event>
<event>
 7    1  0.1466590E-008  0.4614231E+02  0.7816164E-02  0.1320468E+00
        -11   -1    0    0    0    0  0.00000000000E+00  0.00000000000E+00  0.45593999997E+02  0.45594000000E+02  0.51100000000E-03 0. -1.
         11   -1    0    0    0    0 -0.00000000000E+00 -0.00000000000E+00 -0.45593999997E+02  0.45594000000E+02  0.51100000000E-03 0.  1.
    9900012    2    1    2    0    0  0.14952376150E+02  0.40265826638E+02 -0.13572181163E+02  0.46142307099E+02  0.99999027724E+01 0.  0.
         12    1    1    2    0    0 -0.14952376150E+02 -0.40265826638E+02  0.13572181163E+02  0.45045692901E+02  0.00000000000E+00 0. -1.
         11    1    3    3    0    0  0.42009103325E+01  0.51780804189E+01  0.35394749959E+00  0.66772332250E+01  0.51100000000E-03 0.  1.
        -11    1    3    3    0    0  0.23603603105E+01  0.88735275943E+01 -0.53906925055E+01  0.10647551771E+02  0.51100000000E-03 0. -1.
         12    1    3    3    0    0  0.83911055070E+01  0.26214218625E+02 -0.85354361576E+01  0.28817522103E+02  0.00000000000E+00 0. -1.
</event>
<event>
 7    1  0.1466590E-008  0.4614232E+02  0.7816164E-02  0.1320468E+00
        -11   -1    0    0    0    0  0.00000000000E+00  0.00000000000E+00  0.45593999997E+02  0.45594000000E+02  0.51100000000E-03 0.  1.
         11   -1    0    0    0    0 -0.00000000000E+00 -0.00000000000E+00 -0.45593999997E+02  0.45594000000E+02  0.51100000000E-03 0. -1.
    9900012    2    1    2    0    0  0.37116933621E+02  0.95841919218E+01  0.23655655504E+02  0.46142317260E+02  0.99999954269E+01 0.  0.
         12    1    1    2    0    0 -0.37116933621E+02 -0.95841919218E+01 -0.23655655504E+02  0.45045682740E+02  0.00000000000E+00 0. -1.
         11    1    3    3    0    0  0.15575931672E+02  0.49006525806E+01  0.11926449244E+02  0.20220441019E+02  0.51100000000E-03 0. -1.
        -11    1    3    3    0    0  0.65691722284E+01  0.20024973655E+01  0.74261307181E+01  0.10114911624E+02  0.51100000000E-03 0.  1.
         12    1    3    3    0    0  0.14971829721E+02  0.26810419757E+01  0.43030755417E+01  0.15806964616E+02  0.00000000000E+00 0. -1.
</event>
<event>
 7    1  0.1466590E-008  0.4614232E+02  0.7816164E-02  0.1320468E+00
        -11   -1    0    0    0    0  0.00000000000E+00  0.00000000000E+00  0.45593999997E+02  0.45594000000E+02  0.51100000000E-03 0. -1.
         11   -1    0    0    0    0 -0.00000000000E+00 -0.00000000000E+00 -0.45593999997E+02  0.45594000000E+02  0.51100000000E-03 0.  1.
    9900012    2    1    2    0    0  0.25388996475E+01  0.44311337066E+02 -0.76923924521E+01  0.46142317569E+02  0.99999982517E+01 0.  0.
         12    1    1    2    0    0 -0.25388996475E+01 -0.44311337066E+02  0.76923924521E+01  0.45045682431E+02  0.00000000000E+00 0. -1.
         11    1    3    3    0    0 -0.79670677922E+00  0.15060046442E+02  0.32918557096E+00  0.15084697674E+02  0.51100000000E-03 0. -1.
        -11    1    3    3    0    0  0.27820649956E+01  0.52163954157E+01 -0.23101273650E+01  0.63472321115E+01  0.51100000000E-03 0.  1.
        -12    1    3    3    0    0  0.55354143107E+00  0.24034895209E+02 -0.57114506581E+01  0.24710387784E+02  0.00000000000E+00 0.  1.
</event>
<event>
 7    1  0.1466590E-008  0.4614232E+02  0.7816164E-02  0.1320468E+00
        -11   -1    0    0    0    0  0.00000000000E+00  0.00000000000E+00  0.45593999997E+02  0.45594000000E+02  0.51100000000E-03 0.  1.
         11   -1    0    0    0    0 -0.00000000000E+00 -0.00000000000E+00 -0.45593999997E+02  0.45594000000E+02  0.51100000000E-03 0. -1.
    9900012    2    1    2    0    0  0.43606852124E+02 -0.82836520167E+01  0.76770334457E+01  0.46142320014E+02  0.10000020541E+02 0.  0.
         12    1    1    2    0    0 -0.43606852124E+02  0.82836520167E+01 -0.76770334457E+01  0.45045679986E+02  0.00000000000E+00 0. -1.
         11    1    3    3    0    0  0.11815811560E+02 -0.51724184196E+01  0.37500934647E+01  0.13432442681E+02  0.51100000000E-03 0. -1.
        -11    1    3    3    0    0  0.16217210328E+02 -0.20470198278E+01 -0.89949702933E+00  0.16370622962E+02  0.51100000000E-03 0.  1.
         12    1    3    3    0    0  0.15573830237E+02 -0.10642137693E+01  0.48264370103E+01  0.16339254371E+02  0.00000000000E+00 0. -1.
</event>
<event>
 7    1  0.1466590E-008  0.4614232E+02  0.7816164E-02  0.1320468E+00
        -11   -1    0    0    0    0  0.00000000000E+00  0.00000000000E+00  0.45593999997E+02  0.45594000000E+02  0.51100000000E-03 0.  1.
         11   -1    0    0    0    0 -0.00000000000E+00 -0.00000000000E+00 -0.45593999997E+02  0.45594000000E+02  0.51100000000E-03 0. -1.
    9900012    2    1    2    0    0 -0.26060202241E+02  0.33929189795E+02  0.14099270263E+02  0.46142317822E+02  0.10000000553E+02 0.  0.
         12    1    1    2    0    0  0.26060202241E+02 -0.33929189795E+02 -0.14099270263E+02  0.45045682178E+02  0.00000000000E+00 0. -1.
         11    1    3    3    0    0 -0.13274799272E+02  0.16294994081E+02  0.31757478798E+01  0.21256352055E+02  0.51100000000E-03 0. -1.
        -11    1    3    3    0    0 -0.58180954619E+01  0.44983848207E+01  0.23424992543E+01  0.77183549942E+01  0.51100000000E-03 0.  1.
         12    1    3    3    0    0 -0.69673075062E+01  0.13135810894E+02  0.85810231284E+01  0.17167610773E+02  0.00000000000E+00 0. -1.
</event>
<event>
 7    1  0.1466590E-008  0.4614232E+02  0.7816164E-02  0.1320468E+00
        -11   -1    0    0    0    0  0.00000000000E+00  0.00000000000E+00  0.45593999997E+02  0.45594000000E+02  0.51100000000E-03 0.  1.
         11   -1    0    0    0    0 -0.00000000000E+00 -0.00000000000E+00 -0.45593999997E+02  0.45594000000E+02  0.51100000000E-03 0. -1.
    9900012    2    1    2    0    0 -0.17418500140E+01 -0.29075661849E+02  0.34361101570E+02  0.46142318136E+02  0.10000003420E+02 0.  0.
         12    1    1    2    0    0  0.17418500140E+01  0.29075661849E+02 -0.34361101570E+02  0.45045681864E+02  0.00000000000E+00 0. -1.
         11    1    3    3    0    0  0.22905282122E+01 -0.78166488633E+01  0.15162621349E+02  0.17211961114E+02  0.51100000000E-03 0. -1.
        -11    1    3    3    0    0 -0.15285550715E+00 -0.12526124491E+01  0.10490740673E+01  0.16410238918E+01  0.51100000000E-03 0.  1.
         12    1    3    3    0    0 -0.38795227190E+01 -0.20006400537E+02  0.18149406154E+02  0.27289333131E+02  0.00000000000E+00 0. -1.
</event>
<event>
 7    1  0.1466590E-008  0.4614232E+02  0.7816164E-02  0.1320468E+00
        -11   -1    0    0    0    0  0.00000000000E+00  0.00000000000E+00  0.45593999997E+02  0.45594000000E+02  0.51100000000E-03 0. -1.
         11   -1    0    0    0    0 -0.00000000000E+00 -0.00000000000E+00 -0.45593999997E+02  0.45594000000E+02  0.51100000000E-03 0.  1.
    9900012    2    1    2    0    0 -0.34351219128E+02 -0.28494258193E+02  0.60979118616E+01  0.46142317247E+02  0.99999953139E+01 0.  0.
         12    1    1    2    0    0  0.34351219128E+02  0.28494258193E+02 -0.60979118616E+01  0.45045682753E+02  0.00000000000E+00 0. -1.
         11    1    3    3    0    0 -0.96075833628E-01 -0.16978785028E+01  0.86071510922E+00  0.19060043904E+01  0.51100000000E-03 0. -1.
        -11    1    3    3    0    0 -0.34031029169E+02 -0.27130878029E+02  0.51762351030E+01  0.43829087363E+02  0.51100000000E-03 0.  1.
        -12    1    3    3    0    0 -0.22411412542E+00  0.33449833902E+00  0.60961649416E-01  0.40722549370E+00  0.00000000000E+00 0.  1.
</event>
<event>
 7    1  0.1466590E-008  0.4614232E+02  0.7816164E-02  0.1320468E+00
        -11   -1    0    0    0    0  0.00000000000E+00  0.00000000000E+00  0.45593999997E+02  0.45594000000E+02  0.51100000000E-03 0.  1.
         11   -1    0    0    0    0 -0.00000000000E+00 -0.00000000000E+00 -0.45593999997E+02  0.45594000000E+02  0.51100000000E-03 0. -1.
    9900012    2    1    2    0    0  0.22106440562E+02  0.21021292480E+02  0.33143989156E+02  0.46142317976E+02  0.10000001961E+02 0.  0.
         12    1    1    2    0    0 -0.22106440562E+02 -0.21021292480E+02 -0.33143989156E+02  0.45045682024E+02  0.00000000000E+00 0. -1.
         11    1    3    3    0    0  0.11820505711E+02  0.14447446830E+02  0.24289173821E+02  0.30633593330E+02  0.51100000000E-03 0.  1.
        -11    1    3    3    0    0  0.10135175039E+02  0.53473397366E+01  0.83255623957E+01  0.14164420383E+02  0.51100000000E-03 0. -1.
        -12    1    3    3    0    0  0.15075981179E+00  0.12265059134E+01  0.52925293884E+00  0.13443042624E+01  0.00000000000E+00 0.  1.
</event>
<event>
 7    1  0.1466590E-008  0.4614232E+02  0.7816164E-02  0.1320468E+00
        -11   -1    0    0    0    0  0.00000000000E+00  0.00000000000E+00  0.45593999997E+02  0.45594000000E+02  0.51100000000E-03 0. -1.
         11   -1    0    0    0    0 -0.00000000000E+00 -0.00000000000E+00 -0.45593999997E+02  0.45594000000E+02  0.51100000000E-03 0.  1.
    9900012    2    1    2    0    0  0.24204111694E+02  0.21145988575E+02 -0.31561395035E+02  0.46142317496E+02  0.99999975828E+01 0.  0.
         12    1    1    2    0    0 -0.24204111694E+02 -0.21145988575E+02  0.31561395035E+02  0.45045682504E+02  0.00000000000E+00 0. -1.
         11    1    3    3    0    0  0.44381901284E+01  0.17482437988E+01 -0.89662949300E+01  0.10156196780E+02  0.51100000000E-03 0. -1.
        -11    1    3    3    0    0  0.12376125742E+02  0.96857730092E+01 -0.14130193729E+02  0.21133978855E+02  0.51100000000E-03 0.  1.
         12    1    3    3    0    0  0.73897958232E+01  0.97119717667E+01 -0.84649063762E+01  0.14852141861E+02  0.00000000000E+00 0. -1.
</event>
<event>
 7    1  0.1466590E-008  0.4614232E+02  0.7816164E-02  0.1320468E+00
        -11   -1    0    0    0    0  0.00000000000E+00  0.00000000000E+00  0.45593999997E+02  0.45594000000E+02  0.51100000000E-03 0. -1.
         11   -1    0    0    0    0 -0.00000000000E+00 -0.00000000000E+00 -0.45593999997E+02  0.45594000000E+02  0.51100000000E-03 0.  1.
    9900012    2    1    2    0    0 -0.42834812090E+02 -0.87292008653E+01  0.10867085603E+02  0.46142316256E+02  0.99999862726E+01 0.  0.
         12    1    1    2    0    0  0.42834812090E+02  0.87292008653E+01 -0.10867085603E+02  0.45045683744E+02  0.00000000000E+00 0. -1.
         11    1    3    3    0    0 -0.14676706230E+02 -0.52100220696E+01 -0.33627830619E-01  0.15574054284E+02  0.51100000000E-03 0. -1.
        -11    1    3    3    0    0 -0.11408243211E+02 -0.15813882761E+01  0.27552589710E+01  0.11842307811E+02  0.51100000000E-03 0.  1.
         12    1    3    3    0    0 -0.16749862649E+02 -0.19377905196E+01  0.81454544624E+01  0.18725954161E+02  0.00000000000E+00 0. -1.
</event>
<event>
 7    1  0.1466590E-008  0.4614232E+02  0.7816164E-02  0.1320468E+00
        -11   -1    0    0    0    0  0.00000000000E+00  0.00000000000E+00  0.45593999997E+02  0.45594000000E+02  0.51100000000E-03 0.  1.
         11   -1    0    0    0    0 -0.00000000000E+00 -0.00000000000E+00 -0.45593999997E+02  0.45594000000E+02  0.51100000000E-03 0. -1.
    9900012    2    1    2    0    0  0.44788374233E+01 -0.15758584065E+02  0.41960940385E+02  0.46142317916E+02  0.10000001413E+02 0.  0.
         12    1    1    2    0    0 -0.44788374233E+01  0.15758584065E+02 -0.41960940385E+02  0.45045682084E+02  0.00000000000E+00 0. -1.
         11    1    3    3    0    0 -0.27800828295E+00  0.67872365728E+00  0.13586349843E+01  0.15439701066E+01  0.51100000000E-03 0. -1.
        -11    1    3    3    0    0  0.28429983957E+01 -0.15046004135E+02  0.29396087205E+02  0.33145057302E+02  0.51100000000E-03 0.  1.
        -12    1    3    3    0    0  0.19138473105E+01 -0.13913035872E+01  0.11206218196E+02  0.11453290508E+02  0.00000000000E+00 0.  1.
</event>
<event>
 7    1  0.1466590E-008  0.4614232E+02  0.7816164E-02  0.1320468E+00
        -11   -1    0    0    0    0  0.00000000000E+00  0.00000000000E+00  0.45593999997E+02  0.45594000000E+02  0.51100000000E-03 0.  1.
         11   -1    0    0    0    0 -0.00000000000E+00 -0.00000000000E+00 -0.45593999997E+02  0.45594000000E+02  0.51100000000E-03 0. -1.
    9900012    2    1    2    0    0 -0.12282371053E+02  0.99484426977E+01  0.42181576816E+02  0.46142316816E+02  0.99999913825E+01 0.  0.
         12    1    1    2    0    0  0.12282371053E+02 -0.99484426977E+01 -0.42181576816E+02  0.45045683184E+02  0.00000000000E+00 0. -1.
         11    1    3    3    0    0 -0.35758122580E+01 -0.15621513090E+01  0.12669120283E+02  0.13256445942E+02  0.51100000000E-03 0. -1.
        -11    1    3    3    0    0 -0.77140773375E+01  0.10218338288E+02  0.24990118675E+02  0.28078950446E+02  0.51100000000E-03 0.  1.
         12    1    3    3    0    0 -0.99248145767E+00  0.12922557182E+01  0.45223378591E+01  0.48069204276E+01  0.00000000000E+00 0. -1.
</event>
<event>
 7    1  0.1466590E-008  0.4614232E+02  0.7816164E-02  0.1320468E+00
        -11   -1    0    0    0    0  0.00000000000E+00  0.00000000000E+00  0.45593999997E+02  0.45594000000E+02  0.51100000000E-03 0.  1.
         11   -1    0    0    0    0 -0.00000000000E+00 -0.00000000000E+00 -0.45593999997E+02  0.45594000000E+02  0.51100000000E-03 0. -1.
    9900012    2    1    2    0    0  0.35775079218E+02 -0.14946101632E+02  0.22931880453E+02  0.46142318873E+02  0.10000010140E+02 0.  0.
         12    1    1    2    0    0 -0.35775079218E+02  0.14946101632E+02 -0.22931880453E+02  0.45045681127E+02  0.00000000000E+00 0. -1.
         11    1    3    3    0    0  0.18518541336E+02 -0.47244890554E+01  0.11514880076E+02  0.22312544307E+02  0.51100000000E-03 0.  1.
        -11    1    3    3    0    0  0.97804274629E+01 -0.87029613925E+01  0.56145568670E+01  0.14245053437E+02  0.51100000000E-03 0. -1.
         12    1    3    3    0    0  0.74761104192E+01 -0.15186511844E+01  0.58024435103E+01  0.95847211284E+01  0.00000000000E+00 0. -1.
</event>
<event>
 7    1  0.1466590E-008  0.4614232E+02  0.7816164E-02  0.1320468E+00
        -11   -1    0    0    0    0  0.00000000000E+00  0.00000000000E+00  0.45593999997E+02  0.45594000000E+02  0.51100000000E-03 0.  1.
         11   -1    0    0    0    0 -0.00000000000E+00 -0.00000000000E+00 -0.45593999997E+02  0.45594000000E+02  0.51100000000E-03 0. -1.
    9900012    2    1    2    0    0  0.33166067170E+02  0.93506012328E-01  0.30481414010E+02  0.46142319242E+02  0.10000013508E+02 0.  0.
         12    1    1    2    0    0 -0.33166067170E+02 -0.93506012328E-01 -0.30481414010E+02  0.45045680758E+02  0.00000000000E+00 0. -1.
         11    1    3    3    0    0  0.90430842567E+01  0.28003014157E+01  0.66786619388E+01  0.11585490341E+02  0.51100000000E-03 0. -1.
        -11    1    3    3    0    0  0.20239627878E+02 -0.69821861970E-01  0.17937021321E+02  0.27044114810E+02  0.51100000000E-03 0.  1.
         12    1    3    3    0    0  0.38833550352E+01 -0.26369735414E+01  0.58657307500E+01  0.75127140913E+01  0.00000000000E+00 0. -1.
</event>
<event>
 7    1  0.1466590E-008  0.4614230E+02  0.7816164E-02  0.1320468E+00
        -11   -1    0    0    0    0  0.00000000000E+00  0.00000000000E+00  0.45593999997E+02  0.45594000000E+02  0.51100000000E-03 0.  1.
         11   -1    0    0    0    0 -0.00000000000E+00 -0.00000000000E+00 -0.45593999997E+02  0.45594000000E+02  0.51100000000E-03 0. -1.
    9900012    2    1    2    0    0 -0.20670644988E+02 -0.23704925414E+02  0.32247722986E+02  0.46142304413E+02  0.99998782825E+01 0.  0.
         12    1    1    2    0    0  0.20670644988E+02  0.23704925414E+02 -0.32247722986E+02  0.45045695587E+02  0.00000000000E+00 0. -1.
         11    1    3    3    0    0 -0.45352686223E+01 -0.38145351400E+01  0.32607047068E+01  0.67639881177E+01  0.51100000000E-03 0. -1.
        -11    1    3    3    0    0 -0.79378146484E+01 -0.10636404530E+02  0.20357656054E+02  0.24301772836E+02  0.51100000000E-03 0.  1.
        -12    1    3    3    0    0 -0.81975617178E+01 -0.92539857433E+01  0.86293622257E+01  0.15076543459E+02  0.00000000000E+00 0.  1.
</event>
<event>
 7    1  0.1466590E-008  0.4614232E+02  0.7816164E-02  0.1320468E+00
        -11   -1    0    0    0    0  0.00000000000E+00  0.00000000000E+00  0.45593999997E+02  0.45594000000E+02  0.51100000000E-03 0.  1.
         11   -1    0    0    0    0 -0.00000000000E+00 -0.00000000000E+00 -0.45593999997E+02  0.45594000000E+02  0.51100000000E-03 0. -1.
    9900012    2    1    2    0    0  0.38306404268E+02 -0.21158550373E+02  0.10679352486E+02  0.46142318394E+02  0.10000005771E+02 0.  0.
         12    1    1    2    0    0 -0.38306404268E+02  0.21158550373E+02 -0.10679352486E+02  0.45045681606E+02  0.00000000000E+00 0. -1.
         11    1    3    3    0    0  0.69281922396E+01 -0.14091370987E+01  0.11368318558E+01  0.71608590268E+01  0.51100000000E-03 0. -1.
        -11    1    3    3    0    0  0.21717507771E+02 -0.17108775384E+02  0.55428074538E+01  0.28197217126E+02  0.51100000000E-03 0.  1.
        -12    1    3    3    0    0  0.96607042580E+01 -0.26406378896E+01  0.39997131763E+01  0.10784242241E+02  0.00000000000E+00 0.  1.
</event>
<event>
 7    1  0.1466590E-008  0.4614232E+02  0.7816164E-02  0.1320468E+00
        -11   -1    0    0    0    0  0.00000000000E+00  0.00000000000E+00  0.45593999997E+02  0.45594000000E+02  0.51100000000E-03 0. -1.
         11   -1    0    0    0    0 -0.00000000000E+00 -0.00000000000E+00 -0.45593999997E+02  0.45594000000E+02  0.51100000000E-03 0.  1.
    9900012    2    1    2    0    0 -0.25999839869E+02 -0.31574959795E+02 -0.18871754317E+02  0.46142324622E+02  0.10000062561E+02 0.  0.
         12    1    1    2    0    0  0.25999839869E+02  0.31574959795E+02  0.18871754317E+02  0.45045675378E+02  0.00000000000E+00 0. -1.
         11    1    3    3    0    0 -0.39709850575E+01 -0.87404629361E+01 -0.66341032374E+01  0.11669436177E+02  0.51100000000E-03 0. -1.
        -11    1    3    3    0    0 -0.14580181393E+02 -0.18509135695E+02 -0.98206577098E+01  0.25526752863E+02  0.51100000000E-03 0.  1.
        -12    1    3    3    0    0 -0.74486734182E+01 -0.43253611643E+01 -0.24169933694E+01  0.89461355814E+01  0.00000000000E+00 0.  1.
</event>
<event>
 7    1  0.1466590E-008  0.4614232E+02  0.7816164E-02  0.1320468E+00
        -11   -1    0    0    0    0  0.00000000000E+00  0.00000000000E+00  0.45593999997E+02  0.45594000000E+02  0.51100000000E-03 0.  1.
         11   -1    0    0    0    0 -0.00000000000E+00 -0.00000000000E+00 -0.45593999997E+02  0.45594000000E+02  0.51100000000E-03 0. -1.
    9900012    2    1    2    0    0 -0.43820487520E+02  0.78015929507E+01  0.69291787209E+01  0.46142317667E+02  0.99999991438E+01 0.  0.
         12    1    1    2    0    0  0.43820487520E+02 -0.78015929507E+01 -0.69291787209E+01  0.45045682333E+02  0.00000000000E+00 0. -1.
         11    1    3    3    0    0 -0.67827341768E+01 -0.53934627845E+00 -0.15865424142E+01  0.69866654718E+01  0.51100000000E-03 0. -1.
        -11    1    3    3    0    0 -0.24802176161E+02  0.74966912754E+01  0.49055156579E+01  0.26370673229E+02  0.51100000000E-03 0.  1.
         12    1    3    3    0    0 -0.12235577182E+02  0.84424795380E+00  0.36102054772E+01  0.12784978967E+02  0.00000000000E+00 0. -1.
</event>
<event>
 7    1  0.1466590E-008  0.4614232E+02  0.7816164E-02  0.1320468E+00
        -11   -1    0    0    0    0  0.00000000000E+00  0.00000000000E+00  0.45593999997E+02  0.45594000000E+02  0.51100000000E-03 0.  1.
         11   -1    0    0    0    0 -0.00000000000E+00 -0.00000000000E+00 -0.45593999997E+02  0.45594000000E+02  0.51100000000E-03 0. -1.
    9900012    2    1    2    0    0 -0.41595192207E+02 -0.18051996693E+00  0.17289325419E+02  0.46142319013E+02  0.10000011412E+02 0.  0.
         12    1    1    2    0    0  0.41595192207E+02  0.18051996693E+00 -0.17289325419E+02  0.45045680987E+02  0.00000000000E+00 0. -1.
         11    1    3    3    0    0 -0.13748134878E+02  0.16611538098E+01  0.32260690655E+01  0.14218936897E+02  0.51100000000E-03 0. -1.
        -11    1    3    3    0    0 -0.27847869709E+01  0.78144952804E+00  0.36508339158E+01  0.46577129989E+01  0.51100000000E-03 0.  1.
        -12    1    3    3    0    0 -0.25062270357E+02 -0.26231233048E+01  0.10412422438E+02  0.27265669117E+02  0.00000000000E+00 0.  1.
</event>
<event>
 7    1  0.1466590E-008  0.4614233E+02  0.7816164E-02  0.1320468E+00
        -11   -1    0    0    0    0  0.00000000000E+00  0.00000000000E+00  0.45593999997E+02  0.45594000000E+02  0.51100000000E-03 0. -1.
         11   -1    0    0    0    0 -0.00000000000E+00 -0.00000000000E+00 -0.45593999997E+02  0.45594000000E+02  0.51100000000E-03 0.  1.
    9900012    2    1    2    0    0 -0.14703783321E+00  0.42861169515E+02 -0.13856813400E+02  0.46142325957E+02  0.10000074740E+02 0.  0.
         12    1    1    2    0    0  0.14703783321E+00 -0.42861169515E+02  0.13856813400E+02  0.45045674043E+02  0.00000000000E+00 0. -1.
         11    1    3    3    0    0 -0.14095955450E+01  0.19582305264E+01 -0.71231963999E+00  0.25157555377E+01  0.51100000000E-03 0. -1.
        -11    1    3    3    0    0 -0.25150548785E+01  0.26130298519E+02 -0.68470138687E+01  0.27129312577E+02  0.51100000000E-03 0.  1.
         12    1    3    3    0    0  0.37776125903E+01  0.14772640470E+02 -0.62974798913E+01  0.16497257842E+02  0.00000000000E+00 0. -1.
</event>
<event>
 7    1  0.1466590E-008  0.4614232E+02  0.7816164E-02  0.1320468E+00
        -11   -1    0    0    0    0  0.00000000000E+00  0.00000000000E+00  0.45593999997E+02  0.45594000000E+02  0.51100000000E-03 0. -1.
         11   -1    0    0    0    0 -0.00000000000E+00 -0.00000000000E+00 -0.45593999997E+02  0.45594000000E+02  0.51100000000E-03 0.  1.
    9900012    2    1    2    0    0  0.18273854527E+02  0.86891390374E+01 -0.40245230892E+02  0.46142317565E+02  0.99999982140E+01 0.  0.
         12    1    1    2    0    0 -0.18273854527E+02 -0.86891390374E+01  0.40245230892E+02  0.45045682435E+02  0.00000000000E+00 0. -1.
         11    1    3    3    0    0  0.19468126751E+01  0.30359737327E+01 -0.27411198426E+01  0.45300059989E+01  0.51100000000E-03 0. -1.
        -11    1    3    3    0    0  0.67262518971E+01  0.30551862823E+01 -0.21855992049E+02  0.23070782746E+02  0.51100000000E-03 0.  1.
        -12    1    3    3    0    0  0.96007899548E+01  0.25979790223E+01 -0.15648119000E+02  0.18541528821E+02  0.00000000000E+00 0.  1.
</event>
<event>
 7    1  0.1466590E-008  0.4614232E+02  0.7816164E-02  0.1320468E+00
        -11   -1    0    0    0    0  0.00000000000E+00  0.00000000000E+00  0.45593999997E+02  0.45594000000E+02  0.51100000000E-03 0.  1.
         11   -1    0    0    0    0 -0.00000000000E+00 -0.00000000000E+00 -0.45593999997E+02  0.45594000000E+02  0.51100000000E-03 0. -1.
    9900012    2    1    2    0    0  0.33456070964E+02 -0.17772068510E+02  0.24371258978E+02  0.46142319101E+02  0.10000012218E+02 0.  0.
         12    1    1    2    0    0 -0.33456070964E+02  0.17772068510E+02 -0.24371258978E+02  0.45045680899E+02  0.00000000000E+00 0. -1.
         11    1    3    3    0    0  0.11170620701E+02 -0.49094915975E+01  0.12914073415E+02  0.17766799572E+02  0.51100000000E-03 0. -1.
        -11    1    3    3    0    0  0.15889590585E+02 -0.76411805361E+01  0.87744152905E+01  0.19694087765E+02  0.51100000000E-03 0.  1.
         12    1    3    3    0    0  0.63958596783E+01 -0.52213963764E+01  0.26827702727E+01  0.86814317644E+01  0.00000000000E+00 0. -1.
</event>
<event>
 7    1  0.1466590E-008  0.4614232E+02  0.7816164E-02  0.1320468E+00
        -11   -1    0    0    0    0  0.00000000000E+00  0.00000000000E+00  0.45593999997E+02  0.45594000000E+02  0.51100000000E-03 0. -1.
         11   -1    0    0    0    0 -0.00000000000E+00 -0.00000000000E+00 -0.45593999997E+02  0.45594000000E+02  0.51100000000E-03 0.  1.
    9900012    2    1    2    0    0 -0.33609330262E+02  0.16485871558E+02 -0.25054788273E+02  0.46142318109E+02  0.10000003170E+02 0.  0.
         12    1    1    2    0    0  0.33609330262E+02 -0.16485871558E+02  0.25054788273E+02  0.45045681891E+02  0.00000000000E+00 0. -1.
         11    1    3    3    0    0 -0.81744020631E+01  0.33871260796E+00 -0.75784101407E+01  0.11152034605E+02  0.51100000000E-03 0. -1.
        -11    1    3    3    0    0 -0.13621036347E+02  0.84186560861E+01 -0.73638730414E+01  0.17624784478E+02  0.51100000000E-03 0.  1.
        -12    1    3    3    0    0 -0.11813891852E+02  0.77285028636E+01 -0.10112505090E+02  0.17365499026E+02  0.00000000000E+00 0.  1.
</event>
<event>
 7    1  0.1466590E-008  0.4614232E+02  0.7816164E-02  0.1320468E+00
        -11   -1    0    0    0    0  0.00000000000E+00  0.00000000000E+00  0.45593999997E+02  0.45594000000E+02  0.51100000000E-03 0.  1.
         11   -1    0    0    0    0 -0.00000000000E+00 -0.00000000000E+00 -0.45593999997E+02  0.45594000000E+02  0.51100000000E-03 0. -1.
    9900012    2    1    2    0    0 -0.20344946026E+02  0.39092205180E+01  0.39998933242E+02  0.46142317694E+02  0.99999993920E+01 0.  0.
         12    1    1    2    0    0  0.20344946026E+02 -0.39092205180E+01 -0.39998933242E+02  0.45045682306E+02  0.00000000000E+00 0. -1.
         11    1    3    3    0    0 -0.29967135867E+00 -0.41490066723E+00 -0.42637476537E+00  0.66613901593E+00  0.51100000000E-03 0. -1.
        -11    1    3    3    0    0 -0.53193185024E+01  0.25697066712E+01  0.96624022410E+01  0.11325217836E+02  0.51100000000E-03 0.  1.
         12    1    3    3    0    0 -0.14725956165E+02  0.17544145140E+01  0.30762905767E+02  0.34150960842E+02  0.00000000000E+00 0. -1.
</event>
<event>
 7    1  0.1466590E-008  0.4614232E+02  0.7816164E-02  0.1320468E+00
        -11   -1    0    0    0    0  0.00000000000E+00  0.00000000000E+00  0.45593999997E+02  0.45594000000E+02  0.51100000000E-03 0. -1.
         11   -1    0    0    0    0 -0.00000000000E+00 -0.00000000000E+00 -0.45593999997E+02  0.45594000000E+02  0.51100000000E-03 0.  1.
    9900012    2    1    2    0    0 -0.32462653155E+02  0.73331159842E+01 -0.30356466611E+02  0.46142317577E+02  0.99999983188E+01 0.  0.
         12    1    1    2    0    0  0.32462653155E+02 -0.73331159842E+01  0.30356466611E+02  0.45045682423E+02  0.00000000000E+00 0. -1.
         11    1    3    3    0    0 -0.15662516353E+01 -0.11765500902E+01 -0.26368271091E+01  0.32848549076E+01  0.51100000000E-03 0. -1.
        -11    1    3    3    0    0 -0.18117321011E+02  0.81167981962E+01 -0.15711951691E+02  0.25317684724E+02  0.51100000000E-03 0.  1.
        -12    1    3    3    0    0 -0.12779080508E+02  0.39286787823E+00 -0.12007687811E+02  0.17539777945E+02  0.00000000000E+00 0.  1.
</event>
<event>
 7    1  0.1466590E-008  0.4614232E+02  0.7816164E-02  0.1320468E+00
        -11   -1    0    0    0    0  0.00000000000E+00  0.00000000000E+00  0.45593999997E+02  0.45594000000E+02  0.51100000000E-03 0. -1.
         11   -1    0    0    0    0 -0.00000000000E+00 -0.00000000000E+00 -0.45593999997E+02  0.45594000000E+02  0.51100000000E-03 0.  1.
    9900012    2    1    2    0    0 -0.43211076051E+02  0.77545242583E+01 -0.10088794902E+02  0.46142317382E+02  0.99999965392E+01 0.  0.
         12    1    1    2    0    0  0.43211076051E+02 -0.77545242583E+01  0.10088794902E+02  0.45045682618E+02  0.00000000000E+00 0. -1.
         11    1    3    3    0    0 -0.15174826884E+01 -0.49638888828E+00  0.12952958457E+01  0.20559540917E+01  0.51100000000E-03 0. -1.
        -11    1    3    3    0    0 -0.14200508054E+02  0.39852743901E+01 -0.45891463146E+01  0.15446588786E+02  0.51100000000E-03 0.  1.
         12    1    3    3    0    0 -0.27493085309E+02  0.42656387565E+01 -0.67949444329E+01  0.28639774504E+02  0.00000000000E+00 0. -1.
</event>
<event>
 7    1  0.1466590E-008  0.4614232E+02  0.7816164E-02  0.1320468E+00
        -11   -1    0    0    0    0  0.00000000000E+00  0.00000000000E+00  0.45593999997E+02  0.45594000000E+02  0.51100000000E-03 0.  1.
         11   -1    0    0    0    0 -0.00000000000E+00 -0.00000000000E+00 -0.45593999997E+02  0.45594000000E+02  0.51100000000E-03 0. -1.
    9900012    2    1    2    0    0  0.15154129517E+02  0.23137464628E+02  0.35554513724E+02  0.46142319219E+02  0.10000013298E+02 0.  0.
         12    1    1    2    0    0 -0.15154129517E+02 -0.23137464628E+02 -0.35554513724E+02  0.45045680781E+02  0.00000000000E+00 0. -1.
         11    1    3    3    0    0  0.30413735744E+01  0.19799012501E+01  0.82612762572E+01  0.90232282382E+01  0.51100000000E-03 0. -1.
        -11    1    3    3    0    0  0.88805935941E+01  0.14393435750E+02  0.22768804297E+02  0.28362905081E+02  0.51100000000E-03 0.  1.
        -12    1    3    3    0    0  0.32321623486E+01  0.67641276270E+01  0.45244331703E+01  0.87561859000E+01  0.00000000000E+00 0.  1.
</event>
<event>
 7    1  0.1466590E-008  0.4614232E+02  0.7816164E-02  0.1320468E+00
        -11   -1    0    0    0    0  0.00000000000E+00  0.00000000000E+00  0.45593999997E+02  0.45594000000E+02  0.51100000000E-03 0.  1.
         11   -1    0    0    0    0 -0.00000000000E+00 -0.00000000000E+00 -0.45593999997E+02  0.45594000000E+02  0.51100000000E-03 0. -1.
    9900012    2    1    2    0    0 -0.15670471198E+02 -0.42171772964E+02  0.22564083203E+01  0.46142317843E+02  0.10000000746E+02 0.  0.
         12    1    1    2    0    0  0.15670471198E+02  0.42171772964E+02 -0.22564083203E+01  0.45045682157E+02  0.00000000000E+00 0. -1.
         11    1    3    3    0    0 -0.66978419331E+00 -0.11561420644E+02  0.19774918558E+01  0.11748426808E+02  0.51100000000E-03 0. -1.
        -11    1    3    3    0    0 -0.10211011240E+02 -0.16168607655E+02  0.11166240684E+01  0.19155559862E+02  0.51100000000E-03 0.  1.
        -12    1    3    3    0    0 -0.47896757640E+01 -0.14441744665E+02 -0.83770760392E+00  0.15238331173E+02  0.00000000000E+00 0.  1.
</event>
<event>
 7    1  0.1466590E-008  0.4614232E+02  0.7816164E-02  0.1320468E+00
        -11   -1    0    0    0    0  0.00000000000E+00  0.00000000000E+00  0.45593999997E+02  0.45594000000E+02  0.51100000000E-03 0.  1.
         11   -1    0    0    0    0 -0.00000000000E+00 -0.00000000000E+00 -0.45593999997E+02  0.45594000000E+02  0.51100000000E-03 0. -1.
    9900012    2    1    2    0    0 -0.52165046811E+01 -0.27495791154E+02  0.35297068192E+02  0.46142317907E+02  0.10000001327E+02 0.  0.
         12    1    1    2    0    0  0.52165046811E+01  0.27495791154E+02 -0.35297068192E+02  0.45045682093E+02  0.00000000000E+00 0. -1.
         11    1    3    3    0    0 -0.23943987907E+01 -0.11769875522E+02  0.96106039319E+01  0.15382679336E+02  0.51100000000E-03 0.  1.
        -11    1    3    3    0    0 -0.22893349717E+01 -0.18513974069E+01  0.58152704154E+01  0.65181360247E+01  0.51100000000E-03 0. -1.
        -12    1    3    3    0    0 -0.53277091868E+00 -0.13874518226E+02  0.19871193845E+02  0.24241502546E+02  0.00000000000E+00 0.  1.
</event>
<event>
 7    1  0.1466590E-008  0.4614232E+02  0.7816164E-02  0.1320468E+00
        -11   -1    0    0    0    0  0.00000000000E+00  0.00000000000E+00  0.45593999997E+02  0.45594000000E+02  0.51100000000E-03 0. -1.
         11   -1    0    0    0    0 -0.00000000000E+00 -0.00000000000E+00 -0.45593999997E+02  0.45594000000E+02  0.51100000000E-03 0.  1.
    9900012    2    1    2    0    0 -0.19546636526E+02  0.22845787266E+02 -0.33542696783E+02  0.46142317602E+02  0.99999985447E+01 0.  0.
         12    1    1    2    0    0  0.19546636526E+02 -0.22845787266E+02  0.33542696783E+02  0.45045682398E+02  0.00000000000E+00 0. -1.
         11    1    3    3    0    0 -0.10714042772E+02  0.10188779332E+02 -0.16029346653E+02  0.21806923011E+02  0.51100000000E-03 0. -1.
        -11    1    3    3    0    0 -0.89005286545E+01  0.12156277005E+02 -0.18107247072E+02  0.23555612447E+02  0.51100000000E-03 0.  1.
         12    1    3    3    0    0  0.67934900475E-01  0.50073092804E+00  0.59389694267E+00  0.77978214362E+00  0.00000000000E+00 0. -1.
</event>
<event>
 7    1  0.1466590E-008  0.4614232E+02  0.7816164E-02  0.1320468E+00
        -11   -1    0    0    0    0  0.00000000000E+00  0.00000000000E+00  0.45593999997E+02  0.45594000000E+02  0.51100000000E-03 0.  1.
         11   -1    0    0    0    0 -0.00000000000E+00 -0.00000000000E+00 -0.45593999997E+02  0.45594000000E+02  0.51100000000E-03 0. -1.
    9900012    2    1    2    0    0  0.34917684188E+02  0.28452069227E+02 -0.59047379122E+00  0.46142316837E+02  0.99999915697E+01 0.  0.
         12    1    1    2    0    0 -0.34917684188E+02 -0.28452069227E+02  0.59047379122E+00  0.45045683163E+02  0.00000000000E+00 0. -1.
         11    1    3    3    0    0  0.37355580917E+01  0.68206153007E+01  0.90929755635E+00  0.78295599905E+01  0.51100000000E-03 0. -1.
        -11    1    3    3    0    0  0.13567666023E+02  0.11485568799E+02  0.11485204448E+01  0.17813448611E+02  0.51100000000E-03 0.  1.
         12    1    3    3    0    0  0.17614460074E+02  0.10145885127E+02 -0.26482917924E+01  0.20499308236E+02  0.00000000000E+00 0. -1.
</event>
<event>
 7    1  0.1466590E-008  0.4614232E+02  0.7816164E-02  0.1320468E+00
        -11   -1    0    0    0    0  0.00000000000E+00  0.00000000000E+00  0.45593999997E+02  0.45594000000E+02  0.51100000000E-03 0. -1.
         11   -1    0    0    0    0 -0.00000000000E+00 -0.00000000000E+00 -0.45593999997E+02  0.45594000000E+02  0.51100000000E-03 0.  1.
    9900012    2    1    2    0    0 -0.46100904857E+01 -0.87069803270E+01 -0.43955082055E+02  0.46142315643E+02  0.99999806852E+01 0.  0.
         12    1    1    2    0    0  0.46100904857E+01  0.87069803270E+01  0.43955082055E+02  0.45045684357E+02  0.00000000000E+00 0. -1.
         11    1    3    3    0    0 -0.29451641130E+01 -0.61315575139E+01 -0.24615686621E+02  0.25538246167E+02  0.51100000000E-03 0. -1.
        -11    1    3    3    0    0 -0.34573451571E+01  0.34373844062E+00 -0.72631428927E+01  0.80513748262E+01  0.51100000000E-03 0.  1.
         12    1    3    3    0    0  0.17924187844E+01 -0.29191612538E+01 -0.12076252541E+02  0.12552694650E+02  0.00000000000E+00 0. -1.
</event>
<event>
 7    1  0.1466590E-008  0.4614232E+02  0.7816164E-02  0.1320468E+00
        -11   -1    0    0    0    0  0.00000000000E+00  0.00000000000E+00  0.45593999997E+02  0.45594000000E+02  0.51100000000E-03 0.  1.
         11   -1    0    0    0    0 -0.00000000000E+00 -0.00000000000E+00 -0.45593999997E+02  0.45594000000E+02  0.51100000000E-03 0. -1.
    9900012    2    1    2    0    0 -0.55237320994E+01  0.44016295993E+02  0.78209741156E+01  0.46142316906E+02  0.99999922039E+01 0.  0.
         12    1    1    2    0    0  0.55237320994E+01 -0.44016295993E+02 -0.78209741156E+01  0.45045683094E+02  0.00000000000E+00 0. -1.
         11    1    3    3    0    0 -0.78032799888E+01  0.27279270114E+02  0.66688691423E+01  0.29146587664E+02  0.51100000000E-03 0. -1.
        -11    1    3    3    0    0  0.42962524484E+00  0.84876582851E+01  0.39615239037E+00  0.85077528168E+01  0.51100000000E-03 0.  1.
         12    1    3    3    0    0  0.18499226445E+01  0.82493675938E+01  0.75595258290E+00  0.84879764253E+01  0.00000000000E+00 0. -1.
</event>
<event>
 7    1  0.1466590E-008  0.4614232E+02  0.7816164E-02  0.1320468E+00
        -11   -1    0    0    0    0  0.00000000000E+00  0.00000000000E+00  0.45593999997E+02  0.45594000000E+02  0.51100000000E-03 0.  1.
         11   -1    0    0    0    0 -0.00000000000E+00 -0.00000000000E+00 -0.45593999997E+02  0.45594000000E+02  0.51100000000E-03 0. -1.
    9900012    2    1    2    0    0  0.35282897485E+01 -0.39503864199E+02  0.21356717294E+02  0.46142317756E+02  0.99999999578E+01 0.  0.
         12    1    1    2    0    0 -0.35282897485E+01  0.39503864199E+02 -0.21356717294E+02  0.45045682244E+02  0.00000000000E+00 0. -1.
         11    1    3    3    0    0 -0.19349071582E+01 -0.88747928244E+01  0.47123014284E+01  0.10232868532E+02  0.51100000000E-03 0. -1.
        -11    1    3    3    0    0  0.70157465974E+00 -0.21492162965E+02  0.10784632796E+02  0.24056466505E+02  0.51100000000E-03 0.  1.
         12    1    3    3    0    0  0.47616222469E+01 -0.91369084097E+01  0.58597830694E+01  0.11852982719E+02  0.00000000000E+00 0. -1.
</event>
<event>
 7    1  0.1466590E-008  0.4614232E+02  0.7816164E-02  0.1320468E+00
        -11   -1    0    0    0    0  0.00000000000E+00  0.00000000000E+00  0.45593999997E+02  0.45594000000E+02  0.51100000000E-03 0.  1.
         11   -1    0    0    0    0 -0.00000000000E+00 -0.00000000000E+00 -0.45593999997E+02  0.45594000000E+02  0.51100000000E-03 0. -1.
    9900012    2    1    2    0    0 -0.42477546102E+02 -0.78663171596E+01 -0.12762940576E+02  0.46142317402E+02  0.99999967289E+01 0.  0.
         12    1    1    2    0    0  0.42477546102E+02  0.78663171596E+01  0.12762940576E+02  0.45045682598E+02  0.00000000000E+00 0. -1.
         11    1    3    3    0    0 -0.13303725295E+02 -0.49514256413E+01 -0.51922139016E+00  0.14204763769E+02  0.51100000000E-03 0. -1.
        -11    1    3    3    0    0 -0.10192593855E+02 -0.25391175302E+01 -0.47270219302E+01  0.11518716244E+02  0.51100000000E-03 0.  1.
         12    1    3    3    0    0 -0.18981226952E+02 -0.37577398803E+00 -0.75166972561E+01  0.20418837389E+02  0.00000000000E+00 0. -1.
</event>
<event>
 7    1  0.1466590E-008  0.4614232E+02  0.7816164E-02  0.1320468E+00
        -11   -1    0    0    0    0  0.00000000000E+00  0.00000000000E+00  0.45593999997E+02  0.45594000000E+02  0.51100000000E-03 0.  1.
         11   -1    0    0    0    0 -0.00000000000E+00 -0.00000000000E+00 -0.45593999997E+02  0.45594000000E+02  0.51100000000E-03 0. -1.
    9900012    2    1    2    0    0  0.27834736936E+02  0.14121045110E+02  0.32479791152E+02  0.46142319535E+02  0.10000016178E+02 0.  0.
         12    1    1    2    0    0 -0.27834736936E+02 -0.14121045110E+02 -0.32479791152E+02  0.45045680465E+02  0.00000000000E+00 0. -1.
         11    1    3    3    0    0  0.13558419767E+01  0.44987132698E+00  0.59493489213E-01  0.14297662092E+01  0.51100000000E-03 0. -1.
        -11    1    3    3    0    0  0.24472185814E+02  0.14418452437E+02  0.28450891009E+02  0.40202398544E+02  0.51100000000E-03 0.  1.
        -12    1    3    3    0    0  0.20067091447E+01 -0.74727865423E+00  0.39694066531E+01  0.45101547819E+01  0.00000000000E+00 0.  1.
</event>
<event>
 7    1  0.1466590E-008  0.4614232E+02  0.7816164E-02  0.1320468E+00
        -11   -1    0    0    0    0  0.00000000000E+00  0.00000000000E+00  0.45593999997E+02  0.45594000000E+02  0.51100000000E-03 0.  1.
         11   -1    0    0    0    0 -0.00000000000E+00 -0.00000000000E+00 -0.45593999997E+02  0.45594000000E+02  0.51100000000E-03 0. -1.
    9900012    2    1    2    0    0 -0.26608916304E+02  0.31150016640E+02  0.18728463469E+02  0.46142319770E+02  0.10000018317E+02 0.  0.
         12    1    1    2    0    0  0.26608916304E+02 -0.31150016640E+02 -0.18728463469E+02  0.45045680230E+02  0.00000000000E+00 0. -1.
         11    1    3    3    0    0 -0.15748515232E+02  0.16452044754E+02  0.56281423729E+01  0.23459784642E+02  0.51100000000E-03 0. -1.
        -11    1    3    3    0    0 -0.96652570804E+01  0.14266107324E+02  0.11965980548E+02  0.20979125419E+02  0.51100000000E-03 0.  1.
         12    1    3    3    0    0 -0.11951439913E+01  0.43186456174E+00  0.11343405478E+01  0.17034097094E+01  0.00000000000E+00 0. -1.
</event>
<event>
 7    1  0.1466590E-008  0.4614232E+02  0.7816164E-02  0.1320468E+00
        -11   -1    0    0    0    0  0.00000000000E+00  0.00000000000E+00  0.45593999997E+02  0.45594000000E+02  0.51100000000E-03 0. -1.
         11   -1    0    0    0    0 -0.00000000000E+00 -0.00000000000E+00 -0.45593999997E+02  0.45594000000E+02  0.51100000000E-03 0.  1.
    9900012    2    1    2    0    0  0.26140929971E+02 -0.32007175695E+02 -0.17925007281E+02  0.46142318722E+02  0.10000008765E+02 0.  0.
         12    1    1    2    0    0 -0.26140929971E+02  0.32007175695E+02  0.17925007281E+02  0.45045681278E+02  0.00000000000E+00 0. -1.
         11    1    3    3    0    0  0.19456935960E+02 -0.25334135123E+02 -0.13447586990E+02  0.34658741401E+02  0.51100000000E-03 0. -1.
        -11    1    3    3    0    0  0.57945282294E+01 -0.36680993060E+01 -0.47433157603E+01  0.83384983410E+01  0.51100000000E-03 0.  1.
         12    1    3    3    0    0  0.88946578158E+00 -0.30049412662E+01  0.26589546986E+00  0.31450789801E+01  0.00000000000E+00 0. -1.
</event>
<event>
 7    1  0.1466590E-008  0.4614232E+02  0.7816164E-02  0.1320468E+00
        -11   -1    0    0    0    0  0.00000000000E+00  0.00000000000E+00  0.45593999997E+02  0.45594000000E+02  0.51100000000E-03 0.  1.
         11   -1    0    0    0    0 -0.00000000000E+00 -0.00000000000E+00 -0.45593999997E+02  0.45594000000E+02  0.51100000000E-03 0. -1.
    9900012    2    1    2    0    0  0.16996101560E+02 -0.97448873719E+01  0.40562093367E+02  0.46142315229E+02  0.99999769128E+01 0.  0.
         12    1    1    2    0    0 -0.16996101560E+02  0.97448873719E+01 -0.40562093367E+02  0.45045684771E+02  0.00000000000E+00 0. -1.
         11    1    3    3    0    0  0.22335961304E+01  0.13903522059E+01  0.58958455304E+01  0.64562392854E+01  0.51100000000E-03 0. -1.
        -11    1    3    3    0    0  0.10453458670E+02 -0.87373687949E+01  0.29757732643E+02  0.32728260937E+02  0.51100000000E-03 0.  1.
        -12    1    3    3    0    0  0.43090467595E+01 -0.23978707829E+01  0.49085151938E+01  0.69578150072E+01  0.00000000000E+00 0.  1.
</event>
<event>
 7    1  0.1466590E-008  0.4614232E+02  0.7816164E-02  0.1320468E+00
        -11   -1    0    0    0    0  0.00000000000E+00  0.00000000000E+00  0.45593999997E+02  0.45594000000E+02  0.51100000000E-03 0.  1.
         11   -1    0    0    0    0 -0.00000000000E+00 -0.00000000000E+00 -0.45593999997E+02  0.45594000000E+02  0.51100000000E-03 0. -1.
    9900012    2    1    2    0    0 -0.32619523179E+02 -0.42651751567E+01  0.30771552299E+02  0.46142318271E+02  0.10000004650E+02 0.  0.
         12    1    1    2    0    0  0.32619523179E+02  0.42651751567E+01 -0.30771552299E+02  0.45045681729E+02  0.00000000000E+00 0. -1.
         11    1    3    3    0    0 -0.19815147722E+01 -0.20868620748E+01  0.41120433846E+01  0.50189934418E+01  0.51100000000E-03 0. -1.
        -11    1    3    3    0    0 -0.23281077747E+02  0.92372399675E+00  0.19089135097E+02  0.30120705937E+02  0.51100000000E-03 0.  1.
        -12    1    3    3    0    0 -0.73569306600E+01 -0.31020370787E+01  0.75703738166E+01  0.11002618893E+02  0.00000000000E+00 0.  1.
</event>
<event>
 7    1  0.1466590E-008  0.4614232E+02  0.7816164E-02  0.1320468E+00
        -11   -1    0    0    0    0  0.00000000000E+00  0.00000000000E+00  0.45593999997E+02  0.45594000000E+02  0.51100000000E-03 0.  1.
         11   -1    0    0    0    0 -0.00000000000E+00 -0.00000000000E+00 -0.45593999997E+02  0.45594000000E+02  0.51100000000E-03 0. -1.
    9900012    2    1    2    0    0 -0.22179516328E+02  0.39090371084E+02 -0.30208517413E+01  0.46142316508E+02  0.99999885690E+01 0.  0.
         12    1    1    2    0    0  0.22179516328E+02 -0.39090371084E+02  0.30208517413E+01  0.45045683492E+02  0.00000000000E+00 0. -1.
         11    1    3    3    0    0 -0.32762995994E+01  0.17326341975E+01  0.75935664683E+00  0.37832239037E+01  0.51100000000E-03 0. -1.
        -11    1    3    3    0    0 -0.18686115078E+02  0.36679850219E+02 -0.44201272720E+01  0.41401930319E+02  0.51100000000E-03 0.  1.
         12    1    3    3    0    0 -0.21710165125E+00  0.67788666758E+00  0.63991888395E+00  0.95716228462E+00  0.00000000000E+00 0. -1.
</event>
<event>
 7    1  0.1466590E-008  0.4614232E+02  0.7816164E-02  0.1320468E+00
        -11   -1    0    0    0    0  0.00000000000E+00  0.00000000000E+00  0.45593999997E+02  0.45594000000E+02  0.51100000000E-03 0.  1.
         11   -1    0    0    0    0 -0.00000000000E+00 -0.00000000000E+00 -0.45593999997E+02  0.45594000000E+02  0.51100000000E-03 0. -1.
    9900012    2    1    2    0    0 -0.15499711707E+02  0.41768657191E+02  0.66521955088E+01  0.46142317725E+02  0.99999996689E+01 0.  0.
         12    1    1    2    0    0  0.15499711707E+02 -0.41768657191E+02 -0.66521955088E+01  0.45045682275E+02  0.00000000000E+00 0. -1.
         11    1    3    3    0    0  0.48262505159E+00  0.70731619697E+01  0.13406261735E+01  0.72152495444E+01  0.51100000000E-03 0. -1.
        -11    1    3    3    0    0 -0.31933045156E+01  0.89945750280E+01  0.34885333054E+01  0.10162157180E+02  0.51100000000E-03 0.  1.
        -12    1    3    3    0    0 -0.12789032243E+02  0.25700920193E+02  0.18230360300E+01  0.28764911001E+02  0.00000000000E+00 0.  1.
</event>
<event>
 7    1  0.1466590E-008  0.4614232E+02  0.7816164E-02  0.1320468E+00
        -11   -1    0    0    0    0  0.00000000000E+00  0.00000000000E+00  0.45593999997E+02  0.45594000000E+02  0.51100000000E-03 0. -1.
         11   -1    0    0    0    0 -0.00000000000E+00 -0.00000000000E+00 -0.45593999997E+02  0.45594000000E+02  0.51100000000E-03 0.  1.
    9900012    2    1    2    0    0 -0.13995360161E+02  0.36864487093E+01 -0.42657395989E+02  0.46142318268E+02  0.10000004623E+02 0.  0.
         12    1    1    2    0    0  0.13995360161E+02 -0.36864487093E+01  0.42657395989E+02  0.45045681732E+02  0.00000000000E+00 0. -1.
         11    1    3    3    0    0  0.11856332993E+01 -0.92363127198E+00 -0.22386357159E+01  0.26963514564E+01  0.51100000000E-03 0. -1.
        -11    1    3    3    0    0 -0.11350548374E+02  0.40746150342E+01 -0.31109165196E+02  0.33364915638E+02  0.51100000000E-03 0.  1.
         12    1    3    3    0    0 -0.38304450855E+01  0.53546494706E+00 -0.93095950776E+01  0.10081051174E+02  0.00000000000E+00 0. -1.
</event>
<event>
 7    1  0.1466590E-008  0.4614232E+02  0.7816164E-02  0.1320468E+00
        -11   -1    0    0    0    0  0.00000000000E+00  0.00000000000E+00  0.45593999997E+02  0.45594000000E+02  0.51100000000E-03 0. -1.
         11   -1    0    0    0    0 -0.00000000000E+00 -0.00000000000E+00 -0.45593999997E+02  0.45594000000E+02  0.51100000000E-03 0.  1.
    9900012    2    1    2    0    0 -0.23065009476E+02 -0.19886545967E+02 -0.33191021202E+02  0.46142320284E+02  0.10000023008E+02 0.  0.
         12    1    1    2    0    0  0.23065009476E+02  0.19886545967E+02  0.33191021202E+02  0.45045679716E+02  0.00000000000E+00 0. -1.
         11    1    3    3    0    0 -0.24830758376E+01 -0.50434657851E+01 -0.90487538466E+01  0.10652800532E+02  0.51100000000E-03 0. -1.
        -11    1    3    3    0    0 -0.19361782417E+02 -0.14860296821E+02 -0.21292447417E+02  0.32389432802E+02  0.51100000000E-03 0.  1.
        -12    1    3    3    0    0 -0.12201512211E+01  0.17216639385E-01 -0.28498199383E+01  0.31000869497E+01  0.00000000000E+00 0.  1.
</event>
<event>
 7    1  0.1466590E-008  0.4614233E+02  0.7816164E-02  0.1320468E+00
        -11   -1    0    0    0    0  0.00000000000E+00  0.00000000000E+00  0.45593999997E+02  0.45594000000E+02  0.51100000000E-03 0.  1.
         11   -1    0    0    0    0 -0.00000000000E+00 -0.00000000000E+00 -0.45593999997E+02  0.45594000000E+02  0.51100000000E-03 0. -1.
    9900012    2    1    2    0    0  0.29985437745E+02  0.30087335146E+02  0.14991283719E+02  0.46142325396E+02  0.10000069623E+02 0.  0.
         12    1    1    2    0    0 -0.29985437745E+02 -0.30087335146E+02 -0.14991283719E+02  0.45045674604E+02  0.00000000000E+00 0. -1.
         11    1    3    3    0    0  0.81492903200E+01  0.87361892498E+01  0.22628669173E+01  0.12159461430E+02  0.51100000000E-03 0. -1.
        -11    1    3    3    0    0  0.17313105481E+02  0.17011643657E+02  0.64576638895E+01  0.25116549613E+02  0.51100000000E-03 0.  1.
        -12    1    3    3    0    0  0.45230419449E+01  0.43395022392E+01  0.62707529124E+01  0.88663143531E+01  0.00000000000E+00 0.  1.
</event>
<event>
 7    1  0.1466590E-008  0.4614232E+02  0.7816164E-02  0.1320468E+00
        -11   -1    0    0    0    0  0.00000000000E+00  0.00000000000E+00  0.45593999997E+02  0.45594000000E+02  0.51100000000E-03 0.  1.
         11   -1    0    0    0    0 -0.00000000000E+00 -0.00000000000E+00 -0.45593999997E+02  0.45594000000E+02  0.51100000000E-03 0. -1.
    9900012    2    1    2    0    0 -0.95388354940E+01 -0.36293701918E+02  0.24917691610E+02  0.46142317225E+02  0.99999951102E+01 0.  0.
         12    1    1    2    0    0  0.95388354940E+01  0.36293701918E+02 -0.24917691610E+02  0.45045682775E+02  0.00000000000E+00 0. -1.
         11    1    3    3    0    0 -0.64782416934E+01 -0.10664916366E+02  0.75295392372E+01  0.14574018592E+02  0.51100000000E-03 0.  1.
        -11    1    3    3    0    0 -0.23832282050E+01 -0.16380755060E+02  0.14053001508E+02  0.21713953225E+02  0.51100000000E-03 0. -1.
         12    1    3    3    0    0 -0.67736559566E+00 -0.92480304915E+01  0.33351508654E+01  0.98543454079E+01  0.00000000000E+00 0. -1.
</event>
<event>
 7    1  0.1466590E-008  0.4614232E+02  0.7816164E-02  0.1320468E+00
        -11   -1    0    0    0    0  0.00000000000E+00  0.00000000000E+00  0.45593999997E+02  0.45594000000E+02  0.51100000000E-03 0.  1.
         11   -1    0    0    0    0 -0.00000000000E+00 -0.00000000000E+00 -0.45593999997E+02  0.45594000000E+02  0.51100000000E-03 0. -1.
    9900012    2    1    2    0    0 -0.21302855837E+02 -0.38667754837E+02  0.89502204857E+01  0.46142318990E+02  0.10000011205E+02 0.  0.
         12    1    1    2    0    0  0.21302855837E+02  0.38667754837E+02 -0.89502204857E+01  0.45045681010E+02  0.00000000000E+00 0. -1.
         11    1    3    3    0    0 -0.70559374940E+01 -0.81703776479E+01  0.55427985706E+01  0.12135235518E+02  0.51100000000E-03 0. -1.
        -11    1    3    3    0    0 -0.13640727276E+02 -0.28443364095E+02  0.39670294193E+01  0.31793579924E+02  0.51100000000E-03 0.  1.
        -12    1    3    3    0    0 -0.60619106626E+00 -0.20540130937E+01 -0.55960750414E+00  0.22135035479E+01  0.00000000000E+00 0.  1.
</event>
<event>
 7    1  0.1466590E-008  0.4614232E+02  0.7816164E-02  0.1320468E+00
        -11   -1    0    0    0    0  0.00000000000E+00  0.00000000000E+00  0.45593999997E+02  0.45594000000E+02  0.51100000000E-03 0.  1.
         11   -1    0    0    0    0 -0.00000000000E+00 -0.00000000000E+00 -0.45593999997E+02  0.45594000000E+02  0.51100000000E-03 0. -1.
    9900012    2    1    2    0    0 -0.93901668770E+01 -0.24362539360E+01  0.43988669089E+02  0.46142316794E+02  0.99999911854E+01 0.  0.
         12    1    1    2    0    0  0.93901668770E+01  0.24362539360E+01 -0.43988669089E+02  0.45045683206E+02  0.00000000000E+00 0. -1.
         11    1    3    3    0    0 -0.31907928678E+00 -0.31192265169E+01  0.21619059508E+02  0.21845253946E+02  0.51100000000E-03 0. -1.
        -11    1    3    3    0    0 -0.39433100028E+01  0.30918616445E-01  0.64570189245E+01  0.75659595156E+01  0.51100000000E-03 0.  1.
         12    1    3    3    0    0 -0.51277775874E+01  0.65205396450E+00  0.15912590656E+02  0.16731103333E+02  0.00000000000E+00 0. -1.
</event>
<event>
 7    1  0.1466590E-008  0.4614232E+02  0.7816164E-02  0.1320468E+00
        -11   -1    0    0    0    0  0.00000000000E+00  0.00000000000E+00  0.45593999997E+02  0.45594000000E+02  0.51100000000E-03 0.  1.
         11   -1    0    0    0    0 -0.00000000000E+00 -0.00000000000E+00 -0.45593999997E+02  0.45594000000E+02  0.51100000000E-03 0. -1.
    9900012    2    1    2    0    0  0.48955980971E+00 -0.34575057013E+02  0.28869347701E+02  0.46142317933E+02  0.10000001564E+02 0.  0.
         12    1    1    2    0    0 -0.48955980971E+00  0.34575057013E+02 -0.28869347701E+02  0.45045682067E+02  0.00000000000E+00 0. -1.
         11    1    3    3    0    0 -0.15132003165E+01 -0.49389137604E+00  0.14677585816E+01  0.21651834574E+01  0.51100000000E-03 0. -1.
        -11    1    3    3    0    0  0.14023064268E+01 -0.29314545816E+02  0.25240898392E+02  0.38709327191E+02  0.51100000000E-03 0.  1.
        -12    1    3    3    0    0  0.60045369947E+00 -0.47666198214E+01  0.21606907274E+01  0.52678072844E+01  0.00000000000E+00 0.  1.
</event>
<event>
 7    1  0.1466590E-008  0.4614232E+02  0.7816164E-02  0.1320468E+00
        -11   -1    0    0    0    0  0.00000000000E+00  0.00000000000E+00  0.45593999997E+02  0.45594000000E+02  0.51100000000E-03 0. -1.
         11   -1    0    0    0    0 -0.00000000000E+00 -0.00000000000E+00 -0.45593999997E+02  0.45594000000E+02  0.51100000000E-03 0.  1.
    9900012    2    1    2    0    0  0.44841260764E+02 -0.32585241967E+01  0.27851013415E+01  0.46142318339E+02  0.10000005269E+02 0.  0.
         12    1    1    2    0    0 -0.44841260764E+02  0.32585241967E+01 -0.27851013415E+01  0.45045681661E+02  0.00000000000E+00 0. -1.
         11    1    3    3    0    0  0.28473587771E+01  0.85717971328E+00  0.83509677217E+00  0.30886236330E+01  0.51100000000E-03 0. -1.
        -11    1    3    3    0    0  0.20943524506E+02 -0.15611815855E+00 -0.27520008946E+01  0.21124135504E+02  0.51100000000E-03 0.  1.
        -12    1    3    3    0    0  0.21050377481E+02 -0.39595857514E+01  0.47020054639E+01  0.21929559202E+02  0.00000000000E+00 0.  1.
</event>
<event>
 7    1  0.1466590E-008  0.4614232E+02  0.7816164E-02  0.1320468E+00
        -11   -1    0    0    0    0  0.00000000000E+00  0.00000000000E+00  0.45593999997E+02  0.45594000000E+02  0.51100000000E-03 0. -1.
         11   -1    0    0    0    0 -0.00000000000E+00 -0.00000000000E+00 -0.45593999997E+02  0.45594000000E+02  0.51100000000E-03 0.  1.
    9900012    2    1    2    0    0 -0.44903977692E+02  0.19549026650E+01  0.29874151153E+01  0.46142317564E+02  0.99999982042E+01 0.  0.
         12    1    1    2    0    0  0.44903977692E+02 -0.19549026650E+01 -0.29874151153E+01  0.45045682436E+02  0.00000000000E+00 0. -1.
         11    1    3    3    0    0 -0.82312557294E+01  0.40931084107E+00 -0.27995740485E+01  0.87039486075E+01  0.51100000000E-03 0. -1.
        -11    1    3    3    0    0 -0.25212509720E+02  0.18256494590E+01  0.19666252430E+01  0.25354905984E+02  0.51100000000E-03 0.  1.
         12    1    3    3    0    0 -0.11460212243E+02 -0.28005763510E+00  0.38203639208E+01  0.12083462973E+02  0.00000000000E+00 0. -1.
</event>
<event>
 7    1  0.1466590E-008  0.4614232E+02  0.7816164E-02  0.1320468E+00
        -11   -1    0    0    0    0  0.00000000000E+00  0.00000000000E+00  0.45593999997E+02  0.45594000000E+02  0.51100000000E-03 0.  1.
         11   -1    0    0    0    0 -0.00000000000E+00 -0.00000000000E+00 -0.45593999997E+02  0.45594000000E+02  0.51100000000E-03 0. -1.
    9900012    2    1    2    0    0 -0.13713411188E+02  0.41716705580E+01  0.42704250565E+02  0.46142317655E+02  0.99999990307E+01 0.  0.
         12    1    1    2    0    0  0.13713411188E+02 -0.41716705580E+01 -0.42704250565E+02  0.45045682345E+02  0.00000000000E+00 0. -1.
         11    1    3    3    0    0 -0.18202414005E+01  0.48445059850E+00  0.82220859081E+00  0.20552368152E+01  0.51100000000E-03 0. -1.
        -11    1    3    3    0    0 -0.31054650583E+01  0.27254663295E+01  0.72516317111E+01  0.83461513691E+01  0.51100000000E-03 0.  1.
         12    1    3    3    0    0 -0.87877047295E+01  0.96175363000E+00  0.34630410263E+02  0.35740929470E+02  0.00000000000E+00 0. -1.
</event>
<event>
 7    1  0.1466590E-008  0.4614232E+02  0.7816164E-02  0.1320468E+00
        -11   -1    0    0    0    0  0.00000000000E+00  0.00000000000E+00  0.45593999997E+02  0.45594000000E+02  0.51100000000E-03 0.  1.
         11   -1    0    0    0    0 -0.00000000000E+00 -0.00000000000E+00 -0.45593999997E+02  0.45594000000E+02  0.51100000000E-03 0. -1.
    9900012    2    1    2    0    0 -0.12894856357E+01 -0.10355189203E+02  0.43820323889E+02  0.46142317606E+02  0.99999985844E+01 0.  0.
         12    1    1    2    0    0  0.12894856357E+01  0.10355189203E+02 -0.43820323889E+02  0.45045682394E+02  0.00000000000E+00 0. -1.
         11    1    3    3    0    0 -0.13254302528E+01 -0.42502922803E+00  0.76939497913E+00  0.15904037521E+01  0.51100000000E-03 0. -1.
        -11    1    3    3    0    0 -0.27597564252E+00 -0.78992357955E+01  0.40559570204E+02  0.41322546196E+02  0.51100000000E-03 0.  1.
        -12    1    3    3    0    0  0.31192025967E+00 -0.20309241791E+01  0.24913587058E+01  0.32293676580E+01  0.00000000000E+00 0.  1.
</event>
<event>
 7    1  0.1466590E-008  0.4614232E+02  0.7816164E-02  0.1320468E+00
        -11   -1    0    0    0    0  0.00000000000E+00  0.00000000000E+00  0.45593999997E+02  0.45594000000E+02  0.51100000000E-03 0. -1.
         11   -1    0    0    0    0 -0.00000000000E+00 -0.00000000000E+00 -0.45593999997E+02  0.45594000000E+02  0.51100000000E-03 0.  1.
    9900012    2    1    2    0    0 -0.38964852179E+02 -0.21931825077E+02  0.54634027239E+01  0.46142318455E+02  0.10000006325E+02 0.  0.
         12    1    1    2    0    0  0.38964852179E+02  0.21931825077E+02 -0.54634027239E+01  0.45045681545E+02  0.00000000000E+00 0. -1.
         11    1    3    3    0    0 -0.89325846051E+01 -0.68968560154E+01  0.20133587347E+01  0.11463476972E+02  0.51100000000E-03 0. -1.
        -11    1    3    3    0    0 -0.14906082499E+02 -0.11864195316E+02  0.18032328711E+01  0.19136407055E+02  0.51100000000E-03 0.  1.
         12    1    3    3    0    0 -0.15126185075E+02 -0.31707737463E+01  0.16468111181E+01  0.15542434428E+02  0.00000000000E+00 0. -1.
</event>
<event>
 7    1  0.1466590E-008  0.4614232E+02  0.7816164E-02  0.1320468E+00
        -11   -1    0    0    0    0  0.00000000000E+00  0.00000000000E+00  0.45593999997E+02  0.45594000000E+02  0.51100000000E-03 0.  1.
         11   -1    0    0    0    0 -0.00000000000E+00 -0.00000000000E+00 -0.45593999997E+02  0.45594000000E+02  0.51100000000E-03 0. -1.
    9900012    2    1    2    0    0  0.57427201763E+01  0.27142628767E+02  0.35488200108E+02  0.46142317873E+02  0.10000001022E+02 0.  0.
         12    1    1    2    0    0 -0.57427201763E+01 -0.27142628767E+02 -0.35488200108E+02  0.45045682127E+02  0.00000000000E+00 0. -1.
         11    1    3    3    0    0  0.14379230639E+01  0.99140764684E+01  0.11000435830E+02  0.14878377723E+02  0.51100000000E-03 0. -1.
        -11    1    3    3    0    0  0.57032224837E+01  0.98846312236E+01  0.11041322506E+02  0.15879026547E+02  0.51100000000E-03 0.  1.
         12    1    3    3    0    0 -0.13984253713E+01  0.73439210747E+01  0.13446441772E+02  0.15384913604E+02  0.00000000000E+00 0. -1.
</event>
<event>
 7    1  0.1466590E-008  0.4614232E+02  0.7816164E-02  0.1320468E+00
        -11   -1    0    0    0    0  0.00000000000E+00  0.00000000000E+00  0.45593999997E+02  0.45594000000E+02  0.51100000000E-03 0.  1.
         11   -1    0    0    0    0 -0.00000000000E+00 -0.00000000000E+00 -0.45593999997E+02  0.45594000000E+02  0.51100000000E-03 0. -1.
    9900012    2    1    2    0    0  0.22181010107E+02  0.33975379248E+02  0.19565017153E+02  0.46142317625E+02  0.99999987620E+01 0.  0.
         12    1    1    2    0    0 -0.22181010107E+02 -0.33975379248E+02 -0.19565017153E+02  0.45045682375E+02  0.00000000000E+00 0. -1.
         11    1    3    3    0    0  0.22692565158E+01  0.94780908624E+01  0.45066625197E+01  0.10737492205E+02  0.51100000000E-03 0. -1.
        -11    1    3    3    0    0  0.15311832438E+02  0.19712357407E+02  0.14186624024E+02  0.28710443198E+02  0.51100000000E-03 0.  1.
         12    1    3    3    0    0  0.45999211529E+01  0.47849309785E+01  0.87173060908E+00  0.66943822222E+01  0.00000000000E+00 0. -1.
</event>
<event>
 7    1  0.1466590E-008  0.4614232E+02  0.7816164E-02  0.1320468E+00
        -11   -1    0    0    0    0  0.00000000000E+00  0.00000000000E+00  0.45593999997E+02  0.45594000000E+02  0.51100000000E-03 0.  1.
         11   -1    0    0    0    0 -0.00000000000E+00 -0.00000000000E+00 -0.45593999997E+02  0.45594000000E+02  0.51100000000E-03 0. -1.
    9900012    2    1    2    0    0 -0.24554072526E+01  0.84545407502E+01  0.44176976589E+02  0.46142317137E+02  0.99999943063E+01 0.  0.
         12    1    1    2    0    0  0.24554072526E+01 -0.84545407502E+01 -0.44176976589E+02  0.45045682863E+02  0.00000000000E+00 0. -1.
         11    1    3    3    0    0 -0.26155775425E+01  0.28119009473E+01  0.46680597532E+01  0.60447344805E+01  0.51100000000E-03 0. -1.
        -11    1    3    3    0    0 -0.80833658079E+00  0.52400839730E+01  0.25278083018E+02  0.25828150716E+02  0.51100000000E-03 0.  1.
         12    1    3    3    0    0  0.96850687068E+00  0.40255582990E+00  0.14230833818E+02  0.14269431940E+02  0.00000000000E+00 0. -1.
</event>
<event>
 7    1  0.1466590E-008  0.4614232E+02  0.7816164E-02  0.1320468E+00
        -11   -1    0    0    0    0  0.00000000000E+00  0.00000000000E+00  0.45593999997E+02  0.45594000000E+02  0.51100000000E-03 0.  1.
         11   -1    0    0    0    0 -0.00000000000E+00 -0.00000000000E+00 -0.45593999997E+02  0.45594000000E+02  0.51100000000E-03 0. -1.
    9900012    2    1    2    0    0 -0.20665123937E+02 -0.39986347752E+02  0.17769880652E+01  0.46142322733E+02  0.10000045338E+02 0.  0.
         12    1    1    2    0    0  0.20665123937E+02  0.39986347752E+02 -0.17769880652E+01  0.45045677267E+02  0.00000000000E+00 0. -1.
         11    1    3    3    0    0  0.91164792780E+00 -0.11367705649E+01  0.61553750918E+00  0.15818457408E+01  0.51100000000E-03 0. -1.
        -11    1    3    3    0    0 -0.19490316471E+02 -0.36302626968E+02  0.16234328543E+01  0.41235769611E+02  0.51100000000E-03 0.  1.
         12    1    3    3    0    0 -0.20864553933E+01 -0.25469502191E+01 -0.46198229822E+00  0.33247073812E+01  0.00000000000E+00 0. -1.
</event>
<event>
 7    1  0.1466590E-008  0.4614232E+02  0.7816164E-02  0.1320468E+00
        -11   -1    0    0    0    0  0.00000000000E+00  0.00000000000E+00  0.45593999997E+02  0.45594000000E+02  0.51100000000E-03 0. -1.
         11   -1    0    0    0    0 -0.00000000000E+00 -0.00000000000E+00 -0.45593999997E+02  0.45594000000E+02  0.51100000000E-03 0.  1.
    9900012    2    1    2    0    0  0.38649719969E+01 -0.42471187093E+02 -0.14504269870E+02  0.46142316676E+02  0.99999901074E+01 0.  0.
         12    1    1    2    0    0 -0.38649719969E+01  0.42471187093E+02  0.14504269870E+02  0.45045683324E+02  0.00000000000E+00 0. -1.
         11    1    3    3    0    0  0.82349596733E+00 -0.26868748434E+01 -0.18618305442E+01  0.33710317811E+01  0.51100000000E-03 0. -1.
        -11    1    3    3    0    0 -0.23167262330E+01 -0.66537420842E+01 -0.43477472187E+00  0.70589328855E+01  0.51100000000E-03 0.  1.
        -12    1    3    3    0    0  0.53582022627E+01 -0.33130570166E+02 -0.12207664604E+02  0.35712352010E+02  0.00000000000E+00 0.  1.
</event>
<event>
 7    1  0.1466590E-008  0.4614232E+02  0.7816164E-02  0.1320468E+00
        -11   -1    0    0    0    0  0.00000000000E+00  0.00000000000E+00  0.45593999997E+02  0.45594000000E+02  0.51100000000E-03 0.  1.
         11   -1    0    0    0    0 -0.00000000000E+00 -0.00000000000E+00 -0.45593999997E+02  0.45594000000E+02  0.51100000000E-03 0. -1.
    9900012    2    1    2    0    0  0.35860488421E+02 -0.26174701372E+02  0.76173316917E+01  0.46142319144E+02  0.10000012607E+02 0.  0.
         12    1    1    2    0    0 -0.35860488421E+02  0.26174701372E+02 -0.76173316917E+01  0.45045680856E+02  0.00000000000E+00 0. -1.
         11    1    3    3    0    0  0.98868858713E+01 -0.67021054204E+01 -0.23091907996E+01  0.12165569929E+02  0.51100000000E-03 0. -1.
        -11    1    3    3    0    0  0.23128049481E+02 -0.16764016209E+02  0.86325114168E+01  0.29840562426E+02  0.51100000000E-03 0.  1.
         12    1    3    3    0    0  0.28455530680E+01 -0.27085797434E+01  0.12940110745E+01  0.41361867885E+01  0.00000000000E+00 0. -1.
</event>
<event>
 7    1  0.1466590E-008  0.4614231E+02  0.7816164E-02  0.1320468E+00
        -11   -1    0    0    0    0  0.00000000000E+00  0.00000000000E+00  0.45593999997E+02  0.45594000000E+02  0.51100000000E-03 0. -1.
         11   -1    0    0    0    0 -0.00000000000E+00 -0.00000000000E+00 -0.45593999997E+02  0.45594000000E+02  0.51100000000E-03 0.  1.
    9900012    2    1    2    0    0 -0.14525740302E+01 -0.28585199146E+02 -0.34783483703E+02  0.46142308530E+02  0.99999158195E+01 0.  0.
         12    1    1    2    0    0  0.14525740302E+01  0.28585199146E+02  0.34783483703E+02  0.45045691470E+02  0.00000000000E+00 0. -1.
         11    1    3    3    0    0 -0.81229741793E+00 -0.19226461134E+01 -0.60532191497E+01  0.64029569347E+01  0.51100000000E-03 0. -1.
        -11    1    3    3    0    0  0.24580327864E+01 -0.19262010954E+02 -0.19746116038E+02  0.27694333175E+02  0.51100000000E-03 0.  1.
        -12    1    3    3    0    0 -0.30983093986E+01 -0.74005420784E+01 -0.89841485161E+01  0.12045018420E+02  0.00000000000E+00 0.  1.
</event>
<event>
 7    1  0.1466590E-008  0.4614232E+02  0.7816164E-02  0.1320468E+00
        -11   -1    0    0    0    0  0.00000000000E+00  0.00000000000E+00  0.45593999997E+02  0.45594000000E+02  0.51100000000E-03 0.  1.
         11   -1    0    0    0    0 -0.00000000000E+00 -0.00000000000E+00 -0.45593999997E+02  0.45594000000E+02  0.51100000000E-03 0. -1.
    9900012    2    1    2    0    0  0.29197175043E+02  0.27543702887E+02  0.20444628870E+02  0.46142318200E+02  0.10000004002E+02 0.  0.
         12    1    1    2    0    0 -0.29197175043E+02 -0.27543702887E+02 -0.20444628870E+02  0.45045681800E+02  0.00000000000E+00 0. -1.
         11    1    3    3    0    0  0.17137685099E+02  0.12385645561E+02  0.13638857451E+02  0.25161933537E+02  0.51100000000E-03 0.  1.
        -11    1    3    3    0    0  0.20992054889E+01  0.56426333789E+01  0.13889086104E+01  0.61785955137E+01  0.51100000000E-03 0. -1.
        -12    1    3    3    0    0  0.99602844550E+01  0.95154239472E+01  0.54168628086E+01  0.14801789149E+02  0.00000000000E+00 0.  1.
</event>
<event>
 7    1  0.1466590E-008  0.4614232E+02  0.7816164E-02  0.1320468E+00
        -11   -1    0    0    0    0  0.00000000000E+00  0.00000000000E+00  0.45593999997E+02  0.45594000000E+02  0.51100000000E-03 0.  1.
         11   -1    0    0    0    0 -0.00000000000E+00 -0.00000000000E+00 -0.45593999997E+02  0.45594000000E+02  0.51100000000E-03 0. -1.
    9900012    2    1    2    0    0 -0.29073739671E+01  0.32254223178E+02  0.31310154066E+02  0.46142317811E+02  0.10000000459E+02 0.  0.
         12    1    1    2    0    0  0.29073739671E+01 -0.32254223178E+02 -0.31310154066E+02  0.45045682189E+02  0.00000000000E+00 0. -1.
         11    1    3    3    0    0 -0.12001015717E+01 -0.11897680852E+00  0.12784608660E+01  0.17575157781E+01  0.51100000000E-03 0. -1.
        -11    1    3    3    0    0 -0.14904672825E+01  0.24511298517E+02  0.25027800402E+02  0.35063029546E+02  0.51100000000E-03 0.  1.
        -12    1    3    3    0    0 -0.21680511290E+00  0.78619014695E+01  0.50038927973E+01  0.93217724870E+01  0.00000000000E+00 0.  1.
</event>
<event>
 7    1  0.1466590E-008  0.4614232E+02  0.7816164E-02  0.1320468E+00
        -11   -1    0    0    0    0  0.00000000000E+00  0.00000000000E+00  0.45593999997E+02  0.45594000000E+02  0.51100000000E-03 0.  1.
         11   -1    0    0    0    0 -0.00000000000E+00 -0.00000000000E+00 -0.45593999997E+02  0.45594000000E+02  0.51100000000E-03 0. -1.
    9900012    2    1    2    0    0 -0.71393150459E+01 -0.23878919147E+02  0.37522537017E+02  0.46142318929E+02  0.10000010652E+02 0.  0.
         12    1    1    2    0    0  0.71393150459E+01  0.23878919147E+02 -0.37522537017E+02  0.45045681071E+02  0.00000000000E+00 0. -1.
         11    1    3    3    0    0  0.83713441865E+00 -0.10064821576E+02  0.16453281931E+02  0.19305748210E+02  0.51100000000E-03 0. -1.
        -11    1    3    3    0    0 -0.40745334691E+01 -0.11008654738E+02  0.16085304667E+02  0.19913044182E+02  0.51100000000E-03 0.  1.
        -12    1    3    3    0    0 -0.39019159955E+01 -0.28054428331E+01  0.49839504188E+01  0.69235265366E+01  0.00000000000E+00 0.  1.
</event>
<event>
 7    1  0.1523699E-008  0.4614232E+02  0.7816164E-02  0.1320468E+00
        -11   -1    0    0    0    0  0.00000000000E+00  0.00000000000E+00  0.45593999997E+02  0.45594000000E+02  0.51100000000E-03 0.  1.
         11   -1    0    0    0    0 -0.00000000000E+00 -0.00000000000E+00 -0.45593999997E+02  0.45594000000E+02  0.51100000000E-03 0. -1.
    9900012    2    1    2    0    0 -0.33384731909E+02 -0.11291663590E+02  0.28054793755E+02  0.46142318255E+02  0.10000004500E+02 0.  0.
         12    1    1    2    0    0  0.33384731909E+02  0.11291663590E+02 -0.28054793755E+02  0.45045681745E+02  0.00000000000E+00 0. -1.
         11    1    3    3    0    0 -0.13925706414E+01  0.87186109539E+00 -0.15462626650E+00  0.16502437106E+01  0.51100000000E-03 0. -1.
        -11    1    3    3    0    0 -0.26651385451E+02 -0.93354198598E+01  0.24610453886E+02  0.37458254780E+02  0.51100000000E-03 0.  1.
        -12    1    3    3    0    0 -0.53407758163E+01 -0.28281048258E+01  0.35989661356E+01  0.70338197639E+01  0.00000000000E+00 0.  1.
</event>
<event>
 7    1  0.1466590E-008  0.4614232E+02  0.7816164E-02  0.1320468E+00
        -11   -1    0    0    0    0  0.00000000000E+00  0.00000000000E+00  0.45593999997E+02  0.45594000000E+02  0.51100000000E-03 0. -1.
         11   -1    0    0    0    0 -0.00000000000E+00 -0.00000000000E+00 -0.45593999997E+02  0.45594000000E+02  0.51100000000E-03 0.  1.
    9900012    2    1    2    0    0  0.49550021491E+01  0.35676315393E+02 -0.27051098204E+02  0.46142318294E+02  0.10000004861E+02 0.  0.
         12    1    1    2    0    0 -0.49550021491E+01 -0.35676315393E+02  0.27051098204E+02  0.45045681706E+02  0.00000000000E+00 0. -1.
         11    1    3    3    0    0  0.58831081397E+01  0.12798394486E+02 -0.77993220609E+01  0.16100909529E+02  0.51100000000E-03 0. -1.
        -11    1    3    3    0    0 -0.56716545612E+00  0.22331496174E+02 -0.18255999959E+02  0.28849591553E+02  0.51100000000E-03 0.  1.
         12    1    3    3    0    0 -0.36094053447E+00  0.54642473333E+00 -0.99577618357E+00  0.11918172118E+01  0.00000000000E+00 0. -1.
</event>
<event>
 7    1  0.1466590E-008  0.4614232E+02  0.7816164E-02  0.1320468E+00
        -11   -1    0    0    0    0  0.00000000000E+00  0.00000000000E+00  0.45593999997E+02  0.45594000000E+02  0.51100000000E-03 0.  1.
         11   -1    0    0    0    0 -0.00000000000E+00 -0.00000000000E+00 -0.45593999997E+02  0.45594000000E+02  0.51100000000E-03 0. -1.
    9900012    2    1    2    0    0  0.28829859756E+02  0.17481171948E+01  0.34567279030E+02  0.46142317556E+02  0.99999981329E+01 0.  0.
         12    1    1    2    0    0 -0.28829859756E+02 -0.17481171948E+01 -0.34567279030E+02  0.45045682444E+02  0.00000000000E+00 0. -1.
         11    1    3    3    0    0  0.15880212977E+02  0.34379394376E+01  0.18577293466E+02  0.24680284127E+02  0.51100000000E-03 0.  1.
        -11    1    3    3    0    0  0.11675484707E+02 -0.34191085481E+01  0.13465003680E+02  0.18146998947E+02  0.51100000000E-03 0. -1.
         12    1    3    3    0    0  0.12741620719E+01  0.17292863053E+01  0.25249818831E+01  0.33150344827E+01  0.00000000000E+00 0. -1.
</event>
<event>
 7    1  0.1466590E-008  0.4614232E+02  0.7816164E-02  0.1320468E+00
        -11   -1    0    0    0    0  0.00000000000E+00  0.00000000000E+00  0.45593999997E+02  0.45594000000E+02  0.51100000000E-03 0.  1.
         11   -1    0    0    0    0 -0.00000000000E+00 -0.00000000000E+00 -0.45593999997E+02  0.45594000000E+02  0.51100000000E-03 0. -1.
    9900012    2    1    2    0    0 -0.36093347607E+02 -0.65063674193E+01  0.26154368682E+02  0.46142316970E+02  0.99999927848E+01 0.  0.
         12    1    1    2    0    0  0.36093347607E+02  0.65063674193E+01 -0.26154368682E+02  0.45045683030E+02  0.00000000000E+00 0. -1.
         11    1    3    3    0    0 -0.16703314130E+02  0.52903157854E+00  0.12475499427E+02  0.20854703631E+02  0.51100000000E-03 0. -1.
        -11    1    3    3    0    0 -0.10960071636E+02 -0.50104635543E+01  0.10713556118E+02  0.16124769773E+02  0.51100000000E-03 0.  1.
        -12    1    3    3    0    0 -0.84299618415E+01 -0.20249354436E+01  0.29653131373E+01  0.91628435653E+01  0.00000000000E+00 0.  1.
</event>
<event>
 7    1  0.1466590E-008  0.4614232E+02  0.7816164E-02  0.1320468E+00
        -11   -1    0    0    0    0  0.00000000000E+00  0.00000000000E+00  0.45593999997E+02  0.45594000000E+02  0.51100000000E-03 0.  1.
         11   -1    0    0    0    0 -0.00000000000E+00 -0.00000000000E+00 -0.45593999997E+02  0.45594000000E+02  0.51100000000E-03 0. -1.
    9900012    2    1    2    0    0  0.19844496964E+02 -0.76154097655E+01  0.39715424674E+02  0.46142317824E+02  0.10000000575E+02 0.  0.
         12    1    1    2    0    0 -0.19844496964E+02  0.76154097655E+01 -0.39715424674E+02  0.45045682176E+02  0.00000000000E+00 0. -1.
         11    1    3    3    0    0  0.71431467630E+01 -0.59002182497E+00  0.16815705176E+02  0.18279513458E+02  0.51100000000E-03 0. -1.
        -11    1    3    3    0    0  0.61881800998E+01 -0.29240679681E+00  0.11889484785E+02  0.13406674584E+02  0.51100000000E-03 0.  1.
         12    1    3    3    0    0  0.65131701010E+01 -0.67329811438E+01  0.11010234713E+02  0.14456129782E+02  0.00000000000E+00 0. -1.
</event>
<event>
 7    1  0.1466590E-008  0.4614232E+02  0.7816164E-02  0.1320468E+00
        -11   -1    0    0    0    0  0.00000000000E+00  0.00000000000E+00  0.45593999997E+02  0.45594000000E+02  0.51100000000E-03 0.  1.
         11   -1    0    0    0    0 -0.00000000000E+00 -0.00000000000E+00 -0.45593999997E+02  0.45594000000E+02  0.51100000000E-03 0. -1.
    9900012    2    1    2    0    0 -0.40308297978E+02  0.62145680061E+01  0.19124167249E+02  0.46142317473E+02  0.99999973742E+01 0.  0.
         12    1    1    2    0    0  0.40308297978E+02 -0.62145680061E+01 -0.19124167249E+02  0.45045682527E+02  0.00000000000E+00 0. -1.
         11    1    3    3    0    0 -0.61463128342E+01  0.17602638480E+01  0.72023509776E+01  0.96306567863E+01  0.51100000000E-03 0. -1.
        -11    1    3    3    0    0 -0.32230619372E+02  0.42273848330E+01  0.10734581658E+02  0.34233241905E+02  0.51100000000E-03 0.  1.
         12    1    3    3    0    0 -0.19313657709E+01  0.22691932516E+00  0.11872346130E+01  0.22784187823E+01  0.00000000000E+00 0. -1.
</event>
<event>
 7    1  0.1466590E-008  0.4614232E+02  0.7816164E-02  0.1320468E+00
        -11   -1    0    0    0    0  0.00000000000E+00  0.00000000000E+00  0.45593999997E+02  0.45594000000E+02  0.51100000000E-03 0. -1.
         11   -1    0    0    0    0 -0.00000000000E+00 -0.00000000000E+00 -0.45593999997E+02  0.45594000000E+02  0.51100000000E-03 0.  1.
    9900012    2    1    2    0    0 -0.53210597741E+01  0.25628845270E+02 -0.36660088429E+02  0.46142317959E+02  0.10000001800E+02 0.  0.
         12    1    1    2    0    0  0.53210597741E+01 -0.25628845270E+02  0.36660088429E+02  0.45045682041E+02  0.00000000000E+00 0. -1.
         11    1    3    3    0    0  0.71105330379E+00  0.29184993193E+00 -0.82114158529E+00  0.11247430586E+01  0.51100000000E-03 0. -1.
        -11    1    3    3    0    0 -0.69816567291E+01  0.20157627928E+02 -0.24307849694E+02  0.32341073751E+02  0.51100000000E-03 0.  1.
        -12    1    3    3    0    0  0.94954365120E+00  0.51793674104E+01 -0.11531097149E+02  0.12676501149E+02  0.00000000000E+00 0.  1.
</event>
<event>
 7    1  0.1466590E-008  0.4614232E+02  0.7816164E-02  0.1320468E+00
        -11   -1    0    0    0    0  0.00000000000E+00  0.00000000000E+00  0.45593999997E+02  0.45594000000E+02  0.51100000000E-03 0. -1.
         11   -1    0    0    0    0 -0.00000000000E+00 -0.00000000000E+00 -0.45593999997E+02  0.45594000000E+02  0.51100000000E-03 0.  1.
    9900012    2    1    2    0    0 -0.90577251479E+01 -0.37781842733E+02 -0.22794811855E+02  0.46142317935E+02  0.10000001587E+02 0.  0.
         12    1    1    2    0    0  0.90577251479E+01  0.37781842733E+02  0.22794811855E+02  0.45045682065E+02  0.00000000000E+00 0. -1.
         11    1    3    3    0    0 -0.18554789965E+01 -0.52201046377E+01 -0.80557439827E+00  0.55983252056E+01  0.51100000000E-03 0. -1.
        -11    1    3    3    0    0 -0.50394880081E+01 -0.95970094261E+01 -0.88807445079E+01  0.14013088617E+02  0.51100000000E-03 0.  1.
        -12    1    3    3    0    0 -0.21627581434E+01 -0.22964728669E+02 -0.13108492949E+02  0.26530904113E+02  0.00000000000E+00 0.  1.
</event>
<event>
 7    1  0.1466590E-008  0.4614232E+02  0.7816164E-02  0.1320468E+00
        -11   -1    0    0    0    0  0.00000000000E+00  0.00000000000E+00  0.45593999997E+02  0.45594000000E+02  0.51100000000E-03 0.  1.
         11   -1    0    0    0    0 -0.00000000000E+00 -0.00000000000E+00 -0.45593999997E+02  0.45594000000E+02  0.51100000000E-03 0. -1.
    9900012    2    1    2    0    0 -0.19169640828E+02 -0.39683846698E+02  0.93183028829E+01  0.46142316668E+02  0.99999900352E+01 0.  0.
         12    1    1    2    0    0  0.19169640828E+02  0.39683846698E+02 -0.93183028829E+01  0.45045683332E+02  0.00000000000E+00 0. -1.
         11    1    3    3    0    0 -0.11451266960E+02 -0.16414010180E+02  0.75476950729E+01  0.21389692525E+02  0.51100000000E-03 0. -1.
        -11    1    3    3    0    0 -0.68352474574E+01 -0.22507007760E+02  0.16651102873E+01  0.23580894781E+02  0.51100000000E-03 0.  1.
        -12    1    3    3    0    0 -0.88312641048E+00 -0.76282875778E+00  0.10549752261E+00  0.11717293620E+01  0.00000000000E+00 0.  1.
</event>
<event>
 7    1  0.1466590E-008  0.4614232E+02  0.7816164E-02  0.1320468E+00
        -11   -1    0    0    0    0  0.00000000000E+00  0.00000000000E+00  0.45593999997E+02  0.45594000000E+02  0.51100000000E-03 0.  1.
         11   -1    0    0    0    0 -0.00000000000E+00 -0.00000000000E+00 -0.45593999997E+02  0.45594000000E+02  0.51100000000E-03 0. -1.
    9900012    2    1    2    0    0  0.21158711887E+02  0.55841414071E+01  0.39373083030E+02  0.46142318839E+02  0.10000009827E+02 0.  0.
         12    1    1    2    0    0 -0.21158711887E+02 -0.55841414071E+01 -0.39373083030E+02  0.45045681161E+02  0.00000000000E+00 0. -1.
         11    1    3    3    0    0  0.43129735127E+01  0.57425530416E+01  0.10771561424E+02  0.12946242379E+02  0.51100000000E-03 0. -1.
        -11    1    3    3    0    0  0.14351455062E+02 -0.11453699432E+00  0.24609321338E+02  0.28488525376E+02  0.51100000000E-03 0.  1.
         12    1    3    3    0    0  0.24942833124E+01 -0.43874640238E-01  0.39922002678E+01  0.47075510836E+01  0.00000000000E+00 0. -1.
</event>
<event>
 7    1  0.1466590E-008  0.4614232E+02  0.7816164E-02  0.1320468E+00
        -11   -1    0    0    0    0  0.00000000000E+00  0.00000000000E+00  0.45593999997E+02  0.45594000000E+02  0.51100000000E-03 0.  1.
         11   -1    0    0    0    0 -0.00000000000E+00 -0.00000000000E+00 -0.45593999997E+02  0.45594000000E+02  0.51100000000E-03 0. -1.
    9900012    2    1    2    0    0  0.52759319998E+01 -0.35573805703E+02  0.27125307821E+02  0.46142318353E+02  0.10000005394E+02 0.  0.
         12    1    1    2    0    0 -0.52759319998E+01  0.35573805703E+02 -0.27125307821E+02  0.45045681647E+02  0.00000000000E+00 0. -1.
         11    1    3    3    0    0 -0.14224360154E+01 -0.28020447477E+01  0.44200075686E+01  0.54232136371E+01  0.51100000000E-03 0. -1.
        -11    1    3    3    0    0  0.37915061747E+01 -0.16461971018E+02  0.14347068341E+02  0.22163266436E+02  0.51100000000E-03 0.  1.
        -12    1    3    3    0    0  0.29068618405E+01 -0.16309789937E+02  0.83582319113E+01  0.18555838279E+02  0.00000000000E+00 0.  1.
</event>
<event>
 7    1  0.1466590E-008  0.4614232E+02  0.7816164E-02  0.1320468E+00
        -11   -1    0    0    0    0  0.00000000000E+00  0.00000000000E+00  0.45593999997E+02  0.45594000000E+02  0.51100000000E-03 0.  1.
         11   -1    0    0    0    0 -0.00000000000E+00 -0.00000000000E+00 -0.45593999997E+02  0.45594000000E+02  0.51100000000E-03 0. -1.
    9900012    2    1    2    0    0  0.25107225620E+02  0.16483734241E+02  0.33571226847E+02  0.46142317134E+02  0.99999942789E+01 0.  0.
         12    1    1    2    0    0 -0.25107225620E+02 -0.16483734241E+02 -0.33571226847E+02  0.45045682866E+02  0.00000000000E+00 0. -1.
         11    1    3    3    0    0  0.50645505720E-03 -0.22143877225E+00  0.23203873206E+00  0.32074541408E+00  0.51100000000E-03 0. -1.
        -11    1    3    3    0    0  0.16226242841E+02  0.14912100518E+02  0.20431320678E+02  0.30051631628E+02  0.51100000000E-03 0.  1.
        -12    1    3    3    0    0  0.88804763241E+01  0.17930724945E+01  0.12907867437E+02  0.15769940091E+02  0.00000000000E+00 0.  1.
</event>
<event>
 7    1  0.1466590E-008  0.4614232E+02  0.7816164E-02  0.1320468E+00
        -11   -1    0    0    0    0  0.00000000000E+00  0.00000000000E+00  0.45593999997E+02  0.45594000000E+02  0.51100000000E-03 0.  1.
         11   -1    0    0    0    0 -0.00000000000E+00 -0.00000000000E+00 -0.45593999997E+02  0.45594000000E+02  0.51100000000E-03 0. -1.
    9900012    2    1    2    0    0  0.41632538107E+02  0.58018870955E+01  0.16192077330E+02  0.46142317728E+02  0.99999996948E+01 0.  0.
         12    1    1    2    0    0 -0.41632538107E+02 -0.58018870955E+01 -0.16192077330E+02  0.45045682272E+02  0.00000000000E+00 0. -1.
         11    1    3    3    0    0  0.36958659453E+02  0.47005938497E+01  0.11546177525E+02  0.39004516492E+02  0.51100000000E-03 0. -1.
        -11    1    3    3    0    0  0.34204185565E+01  0.10444849806E+01  0.17495629048E+01  0.39813543670E+01  0.51100000000E-03 0.  1.
         12    1    3    3    0    0  0.12534600981E+01  0.56808265249E-01  0.28963368999E+01  0.31564468686E+01  0.00000000000E+00 0. -1.
</event>
<event>
 7    1  0.1466590E-008  0.4614232E+02  0.7816164E-02  0.1320468E+00
        -11   -1    0    0    0    0  0.00000000000E+00  0.00000000000E+00  0.45593999997E+02  0.45594000000E+02  0.51100000000E-03 0. -1.
         11   -1    0    0    0    0 -0.00000000000E+00 -0.00000000000E+00 -0.45593999997E+02  0.45594000000E+02  0.51100000000E-03 0.  1.
    9900012    2    1    2    0    0 -0.70414448747E+01  0.35920719943E+02 -0.26253256255E+02  0.46142317287E+02  0.99999956741E+01 0.  0.
         12    1    1    2    0    0  0.70414448747E+01 -0.35920719943E+02  0.26253256255E+02  0.45045682713E+02  0.00000000000E+00 0. -1.
         11    1    3    3    0    0 -0.51713267827E+00  0.41238305317E+01  0.34503669846E+00  0.41704262427E+01  0.51100000000E-03 0. -1.
        -11    1    3    3    0    0 -0.45953233073E+01  0.22505678949E+02 -0.19259219785E+02  0.29975658929E+02  0.51100000000E-03 0.  1.
         12    1    3    3    0    0 -0.19289888891E+01  0.92912104619E+01 -0.73390731682E+01  0.11996232115E+02  0.00000000000E+00 0. -1.
</event>
<event>
 7    1  0.1466590E-008  0.4614232E+02  0.7816164E-02  0.1320468E+00
        -11   -1    0    0    0    0  0.00000000000E+00  0.00000000000E+00  0.45593999997E+02  0.45594000000E+02  0.51100000000E-03 0.  1.
         11   -1    0    0    0    0 -0.00000000000E+00 -0.00000000000E+00 -0.45593999997E+02  0.45594000000E+02  0.51100000000E-03 0. -1.
    9900012    2    1    2    0    0  0.42511866265E+02 -0.14488285353E+02 -0.34560521638E+01  0.46142317828E+02  0.10000000611E+02 0.  0.
         12    1    1    2    0    0 -0.42511866265E+02  0.14488285353E+02  0.34560521638E+01  0.45045682172E+02  0.00000000000E+00 0. -1.
         11    1    3    3    0    0  0.76594128728E+01 -0.48607137005E+01  0.76297388916E+00  0.91035857030E+01  0.51100000000E-03 0. -1.
        -11    1    3    3    0    0  0.96877028862E+01 -0.53356897747E+01 -0.30998579930E+01  0.11486091259E+02  0.51100000000E-03 0.  1.
        -12    1    3    3    0    0  0.25164750506E+02 -0.42918818774E+01 -0.11191680600E+01  0.25552640866E+02  0.00000000000E+00 0.  1.
</event>
<event>
 7    1  0.1466590E-008  0.4614232E+02  0.7816164E-02  0.1320468E+00
        -11   -1    0    0    0    0  0.00000000000E+00  0.00000000000E+00  0.45593999997E+02  0.45594000000E+02  0.51100000000E-03 0.  1.
         11   -1    0    0    0    0 -0.00000000000E+00 -0.00000000000E+00 -0.45593999997E+02  0.45594000000E+02  0.51100000000E-03 0. -1.
    9900012    2    1    2    0    0 -0.26919436101E+01  0.44960578171E+02 -0.64294739094E+00  0.46142317286E+02  0.99999956662E+01 0.  0.
         12    1    1    2    0    0  0.26919436101E+01 -0.44960578171E+02  0.64294739094E+00  0.45045682714E+02  0.00000000000E+00 0. -1.
         11    1    3    3    0    0 -0.11853396120E+01  0.10057673934E+01  0.87069078280E+00  0.17817689934E+01  0.51100000000E-03 0. -1.
        -11    1    3    3    0    0  0.19208315543E+01  0.99545233282E+01 -0.95944954955E+00  0.10183450901E+02  0.51100000000E-03 0.  1.
         12    1    3    3    0    0 -0.34274355523E+01  0.34000287449E+02 -0.55418862419E+00  0.34177097392E+02  0.00000000000E+00 0. -1.
</event>
<event>
 7    1  0.1466590E-008  0.4614232E+02  0.7816164E-02  0.1320468E+00
        -11   -1    0    0    0    0  0.00000000000E+00  0.00000000000E+00  0.45593999997E+02  0.45594000000E+02  0.51100000000E-03 0.  1.
         11   -1    0    0    0    0 -0.00000000000E+00 -0.00000000000E+00 -0.45593999997E+02  0.45594000000E+02  0.51100000000E-03 0. -1.
    9900012    2    1    2    0    0  0.31144515340E+02 -0.11656542934E+02  0.30385155855E+02  0.46142317351E+02  0.99999962596E+01 0.  0.
         12    1    1    2    0    0 -0.31144515340E+02  0.11656542934E+02 -0.30385155855E+02  0.45045682649E+02  0.00000000000E+00 0. -1.
         11    1    3    3    0    0  0.12948116171E+01 -0.14641091213E+01  0.35678921376E+01  0.40681700074E+01  0.51100000000E-03 0. -1.
        -11    1    3    3    0    0  0.77551761747E-01 -0.13477126841E+01  0.89641976604E+00  0.16204667268E+01  0.51100000000E-03 0.  1.
        -12    1    3    3    0    0  0.29772151962E+02 -0.88447211291E+01  0.25920843952E+02  0.40453680617E+02  0.00000000000E+00 0.  1.
</event>
<event>
 7    1  0.1466590E-008  0.4614232E+02  0.7816164E-02  0.1320468E+00
        -11   -1    0    0    0    0  0.00000000000E+00  0.00000000000E+00  0.45593999997E+02  0.45594000000E+02  0.51100000000E-03 0.  1.
         11   -1    0    0    0    0 -0.00000000000E+00 -0.00000000000E+00 -0.45593999997E+02  0.45594000000E+02  0.51100000000E-03 0. -1.
    9900012    2    1    2    0    0  0.25923338809E+02 -0.33261425942E+02 -0.15835769223E+02  0.46142317214E+02  0.99999950149E+01 0.  0.
         12    1    1    2    0    0 -0.25923338809E+02  0.33261425942E+02  0.15835769223E+02  0.45045682786E+02  0.00000000000E+00 0. -1.
         11    1    3    3    0    0  0.20393781305E+01 -0.66843415634E+01 -0.50614816579E+01  0.86289096721E+01  0.51100000000E-03 0. -1.
        -11    1    3    3    0    0  0.13791550920E+02 -0.12820658046E+02 -0.65481228958E+01  0.19936249979E+02  0.51100000000E-03 0.  1.
        -12    1    3    3    0    0  0.10092409759E+02 -0.13756426333E+02 -0.42261646695E+01  0.17577157563E+02  0.00000000000E+00 0.  1.
</event>
<event>
 7    1  0.1466590E-008  0.4614232E+02  0.7816164E-02  0.1320468E+00
        -11   -1    0    0    0    0  0.00000000000E+00  0.00000000000E+00  0.45593999997E+02  0.45594000000E+02  0.51100000000E-03 0. -1.
         11   -1    0    0    0    0 -0.00000000000E+00 -0.00000000000E+00 -0.45593999997E+02  0.45594000000E+02  0.51100000000E-03 0.  1.
    9900012    2    1    2    0    0 -0.12740240072E+02  0.41167608771E+02  0.13115938419E+02  0.46142316859E+02  0.99999917735E+01 0.  0.
         12    1    1    2    0    0  0.12740240072E+02 -0.41167608771E+02 -0.13115938419E+02  0.45045683141E+02  0.00000000000E+00 0. -1.
         11    1    3    3    0    0 -0.43552479874E+01  0.54460738328E+01  0.85731619315E+00  0.70258733649E+01  0.51100000000E-03 0. -1.
        -11    1    3    3    0    0 -0.18757253108E+01  0.95830847491E+01  0.65549162746E+00  0.97869059607E+01  0.51100000000E-03 0.  1.
        -12    1    3    3    0    0 -0.65092667742E+01  0.26138450189E+02  0.11603130599E+02  0.29329537533E+02  0.00000000000E+00 0.  1.
</event>
<event>
 7    1  0.1466590E-008  0.4614232E+02  0.7816164E-02  0.1320468E+00
        -11   -1    0    0    0    0  0.00000000000E+00  0.00000000000E+00  0.45593999997E+02  0.45594000000E+02  0.51100000000E-03 0. -1.
         11   -1    0    0    0    0 -0.00000000000E+00 -0.00000000000E+00 -0.45593999997E+02  0.45594000000E+02  0.51100000000E-03 0.  1.
    9900012    2    1    2    0    0  0.15985757222E+02  0.41234650739E+02  0.85599412655E+01  0.46142318187E+02  0.10000003885E+02 0.  0.
         12    1    1    2    0    0 -0.15985757222E+02 -0.41234650739E+02 -0.85599412655E+01  0.45045681813E+02  0.00000000000E+00 0. -1.
         11    1    3    3    0    0  0.32194248338E+01  0.37169631710E+01 -0.10299319338E+01  0.50240692197E+01  0.51100000000E-03 0. -1.
        -11    1    3    3    0    0  0.79827081561E+01  0.15646491640E+02  0.50190392666E+01  0.18268198750E+02  0.51100000000E-03 0.  1.
         12    1    3    3    0    0  0.47836242322E+01  0.21871195928E+02  0.45708339327E+01  0.22850050217E+02  0.00000000000E+00 0. -1.
</event>
<event>
 7    1  0.1466590E-008  0.4614232E+02  0.7816164E-02  0.1320468E+00
        -11   -1    0    0    0    0  0.00000000000E+00  0.00000000000E+00  0.45593999997E+02  0.45594000000E+02  0.51100000000E-03 0.  1.
         11   -1    0    0    0    0 -0.00000000000E+00 -0.00000000000E+00 -0.45593999997E+02  0.45594000000E+02  0.51100000000E-03 0. -1.
    9900012    2    1    2    0    0  0.29910707611E+02 -0.94391840298E+01  0.32332102118E+02  0.46142318161E+02  0.10000003645E+02 0.  0.
         12    1    1    2    0    0 -0.29910707611E+02  0.94391840298E+01 -0.32332102118E+02  0.45045681839E+02  0.00000000000E+00 0. -1.
         11    1    3    3    0    0  0.75716469204E+01 -0.46198447190E+01  0.60664824955E+01  0.10745930041E+02  0.51100000000E-03 0. -1.
        -11    1    3    3    0    0  0.91830563343E+01 -0.44487754974E+01  0.14580596947E+02  0.17796458486E+02  0.51100000000E-03 0.  1.
         12    1    3    3    0    0  0.13156004357E+02 -0.37056381348E+00  0.11685022676E+02  0.17599929634E+02  0.00000000000E+00 0. -1.
</event>
<event>
 7    1  0.1466590E-008  0.4614232E+02  0.7816164E-02  0.1320468E+00
        -11   -1    0    0    0    0  0.00000000000E+00  0.00000000000E+00  0.45593999997E+02  0.45594000000E+02  0.51100000000E-03 0.  1.
         11   -1    0    0    0    0 -0.00000000000E+00 -0.00000000000E+00 -0.45593999997E+02  0.45594000000E+02  0.51100000000E-03 0. -1.
    9900012    2    1    2    0    0 -0.23070281618E+02  0.38530955981E+02  0.34987227117E+01  0.46142317373E+02  0.99999964582E+01 0.  0.
         12    1    1    2    0    0  0.23070281618E+02 -0.38530955981E+02 -0.34987227117E+01  0.45045682627E+02  0.00000000000E+00 0. -1.
         11    1    3    3    0    0 -0.50715341942E+01  0.46082393904E+01  0.10059983003E+00  0.68532072746E+01  0.51100000000E-03 0. -1.
        -11    1    3    3    0    0 -0.13497659672E+02  0.22101018022E+02  0.54776282313E+01  0.26469722808E+02  0.51100000000E-03 0.  1.
         12    1    3    3    0    0 -0.45010877524E+01  0.11821698569E+02 -0.20795053496E+01  0.12819387291E+02  0.00000000000E+00 0. -1.
</event>
<event>
 7    1  0.1466590E-008  0.4614232E+02  0.7816164E-02  0.1320468E+00
        -11   -1    0    0    0    0  0.00000000000E+00  0.00000000000E+00  0.45593999997E+02  0.45594000000E+02  0.51100000000E-03 0.  1.
         11   -1    0    0    0    0 -0.00000000000E+00 -0.00000000000E+00 -0.45593999997E+02  0.45594000000E+02  0.51100000000E-03 0. -1.
    9900012    2    1    2    0    0 -0.46232964604E+01 -0.27089148926E+02  0.35691968143E+02  0.46142318191E+02  0.10000003922E+02 0.  0.
         12    1    1    2    0    0  0.46232964604E+01  0.27089148926E+02 -0.35691968143E+02  0.45045681809E+02  0.00000000000E+00 0. -1.
         11    1    3    3    0    0 -0.12972373481E+01 -0.11416218122E+01  0.73481153623E+01  0.75485710395E+01  0.51100000000E-03 0. -1.
        -11    1    3    3    0    0 -0.16082699738E+01 -0.78684408695E+01  0.89086084838E+01  0.11994256934E+02  0.51100000000E-03 0.  1.
         12    1    3    3    0    0 -0.17177891385E+01 -0.18079086244E+02  0.19435244297E+02  0.26599490218E+02  0.00000000000E+00 0. -1.
</event>
<event>
 7    1  0.1466590E-008  0.4614232E+02  0.7816164E-02  0.1320468E+00
        -11   -1    0    0    0    0  0.00000000000E+00  0.00000000000E+00  0.45593999997E+02  0.45594000000E+02  0.51100000000E-03 0.  1.
         11   -1    0    0    0    0 -0.00000000000E+00 -0.00000000000E+00 -0.45593999997E+02  0.45594000000E+02  0.51100000000E-03 0. -1.
    9900012    2    1    2    0    0 -0.83151649744E+01 -0.32593254461E+02  0.29960830634E+02  0.46142316775E+02  0.99999910075E+01 0.  0.
         12    1    1    2    0    0  0.83151649744E+01  0.32593254461E+02 -0.29960830634E+02  0.45045683225E+02  0.00000000000E+00 0. -1.
         11    1    3    3    0    0 -0.25337672529E+01 -0.75652897909E+01  0.27672284932E+01  0.84445923470E+01  0.51100000000E-03 0. -1.
        -11    1    3    3    0    0 -0.64540361188E+01 -0.20367711501E+02  0.21524354325E+02  0.30328140124E+02  0.51100000000E-03 0.  1.
        -12    1    3    3    0    0  0.67263839722E+00 -0.46602531688E+01  0.56692478160E+01  0.73695843038E+01  0.00000000000E+00 0.  1.
</event>
<event>
 7    1  0.1466590E-008  0.4614232E+02  0.7816164E-02  0.1320468E+00
        -11   -1    0    0    0    0  0.00000000000E+00  0.00000000000E+00  0.45593999997E+02  0.45594000000E+02  0.51100000000E-03 0.  1.
         11   -1    0    0    0    0 -0.00000000000E+00 -0.00000000000E+00 -0.45593999997E+02  0.45594000000E+02  0.51100000000E-03 0. -1.
    9900012    2    1    2    0    0 -0.22384340684E+01 -0.50664897246E+00  0.44987179679E+02  0.46142316348E+02  0.99999871109E+01 0.  0.
         12    1    1    2    0    0  0.22384340684E+01  0.50664897246E+00 -0.44987179679E+02  0.45045683652E+02  0.00000000000E+00 0. -1.
         11    1    3    3    0    0  0.47160297864E+00  0.10473925190E+01  0.73926979106E+00  0.13660016630E+01  0.51100000000E-03 0. -1.
        -11    1    3    3    0    0 -0.42448863717E+01 -0.25347245425E+01  0.28785874901E+02  0.29207370353E+02  0.51100000000E-03 0.  1.
        -12    1    3    3    0    0  0.15348493246E+01  0.98068305108E+00  0.15462034986E+02  0.15568944332E+02  0.00000000000E+00 0.  1.
</event>
<event>
 7    1  0.1466590E-008  0.4614232E+02  0.7816164E-02  0.1320468E+00
        -11   -1    0    0    0    0  0.00000000000E+00  0.00000000000E+00  0.45593999997E+02  0.45594000000E+02  0.51100000000E-03 0.  1.
         11   -1    0    0    0    0 -0.00000000000E+00 -0.00000000000E+00 -0.45593999997E+02  0.45594000000E+02  0.51100000000E-03 0. -1.
    9900012    2    1    2    0    0 -0.23385670893E+01 -0.73148749688E+01  0.44386227654E+02  0.46142317663E+02  0.99999991044E+01 0.  0.
         12    1    1    2    0    0  0.23385670893E+01  0.73148749688E+01 -0.44386227654E+02  0.45045682337E+02  0.00000000000E+00 0. -1.
         11    1    3    3    0    0 -0.26996305242E+01 -0.10860067916E+01  0.67997297887E+01  0.73961977515E+01  0.51100000000E-03 0. -1.
        -11    1    3    3    0    0 -0.48452398685E+00 -0.76910258677E+01  0.31579103852E+02  0.32505790911E+02  0.51100000000E-03 0.  1.
        -12    1    3    3    0    0  0.84558742174E+00  0.14621576905E+01  0.60073940139E+01  0.62403290008E+01  0.00000000000E+00 0.  1.
</event>
<event>
 7    1  0.1466590E-008  0.4614232E+02  0.7816164E-02  0.1320468E+00
        -11   -1    0    0    0    0  0.00000000000E+00  0.00000000000E+00  0.45593999997E+02  0.45594000000E+02  0.51100000000E-03 0. -1.
         11   -1    0    0    0    0 -0.00000000000E+00 -0.00000000000E+00 -0.45593999997E+02  0.45594000000E+02  0.51100000000E-03 0.  1.
    9900012    2    1    2    0    0 -0.40058969869E+02 -0.13657216106E+02  0.15423129401E+02  0.46142317197E+02  0.99999948523E+01 0.  0.
         12    1    1    2    0    0  0.40058969869E+02  0.13657216106E+02 -0.15423129401E+02  0.45045682803E+02  0.00000000000E+00 0. -1.
         11    1    3    3    0    0 -0.22117254799E+02 -0.11107438579E+02  0.12492159862E+02  0.27723675981E+02  0.51100000000E-03 0. -1.
        -11    1    3    3    0    0 -0.15021784100E+02 -0.16183721841E+01  0.22028292623E+01  0.15268450579E+02  0.51100000000E-03 0.  1.
         12    1    3    3    0    0 -0.29199309704E+01 -0.93140534290E+00  0.72814027643E+00  0.31501906366E+01  0.00000000000E+00 0. -1.
</event>
<event>
 7    1  0.1466590E-008  0.4614232E+02  0.7816164E-02  0.1320468E+00
        -11   -1    0    0    0    0  0.00000000000E+00  0.00000000000E+00  0.45593999997E+02  0.45594000000E+02  0.51100000000E-03 0.  1.
         11   -1    0    0    0    0 -0.00000000000E+00 -0.00000000000E+00 -0.45593999997E+02  0.45594000000E+02  0.51100000000E-03 0. -1.
    9900012    2    1    2    0    0 -0.18853296160E+02 -0.32686371905E+02  0.24602191074E+02  0.46142317743E+02  0.99999998352E+01 0.  0.
         12    1    1    2    0    0  0.18853296160E+02  0.32686371905E+02 -0.24602191074E+02  0.45045682257E+02  0.00000000000E+00 0. -1.
         11    1    3    3    0    0 -0.11895362864E+01 -0.36477279927E+01  0.61945748628E+00  0.38864693391E+01  0.51100000000E-03 0. -1.
        -11    1    3    3    0    0 -0.18265979120E+02 -0.28826625210E+02  0.23305614022E+02  0.41325197633E+02  0.51100000000E-03 0.  1.
        -12    1    3    3    0    0  0.60221924678E+00 -0.21201870160E+00  0.67711956539E+00  0.93065077062E+00  0.00000000000E+00 0.  1.
</event>
<event>
 7    1  0.1466590E-008  0.4614230E+02  0.7816164E-02  0.1320468E+00
        -11   -1    0    0    0    0  0.00000000000E+00  0.00000000000E+00  0.45593999997E+02  0.45594000000E+02  0.51100000000E-03 0. -1.
         11   -1    0    0    0    0 -0.00000000000E+00 -0.00000000000E+00 -0.45593999997E+02  0.45594000000E+02  0.51100000000E-03 0.  1.
    9900012    2    1    2    0    0  0.72870729050E+01 -0.40715973377E+02 -0.17838800030E+02  0.46142304245E+02  0.99998767492E+01 0.  0.
         12    1    1    2    0    0 -0.72870729050E+01  0.40715973377E+02  0.17838800030E+02  0.45045695755E+02  0.00000000000E+00 0. -1.
         11    1    3    3    0    0 -0.73313935433E+00 -0.29470618364E+01 -0.32900393937E+01  0.44773905630E+01  0.51100000000E-03 0. -1.
        -11    1    3    3    0    0  0.86623899379E+01 -0.34560083460E+02 -0.12292686180E+02  0.37690137994E+02  0.51100000000E-03 0.  1.
        -12    1    3    3    0    0 -0.64217767861E+00 -0.32088280802E+01 -0.22560744570E+01  0.39747756886E+01  0.00000000000E+00 0.  1.
</event>
<event>
 7    1  0.1466590E-008  0.4614232E+02  0.7816164E-02  0.1320468E+00
        -11   -1    0    0    0    0  0.00000000000E+00  0.00000000000E+00  0.45593999997E+02  0.45594000000E+02  0.51100000000E-03 0.  1.
         11   -1    0    0    0    0 -0.00000000000E+00 -0.00000000000E+00 -0.45593999997E+02  0.45594000000E+02  0.51100000000E-03 0. -1.
    9900012    2    1    2    0    0  0.68452337036E+01 -0.42862200930E+02  0.12045250509E+02  0.46142317045E+02  0.99999934732E+01 0.  0.
         12    1    1    2    0    0 -0.68452337036E+01  0.42862200930E+02 -0.12045250509E+02  0.45045682955E+02  0.00000000000E+00 0. -1.
         11    1    3    3    0    0  0.32285427189E+01 -0.38190651142E+01  0.13164977761E+01  0.51712583662E+01  0.51100000000E-03 0. -1.
        -11    1    3    3    0    0  0.42072258700E+01 -0.38049416685E+02  0.10899101610E+02  0.39802629006E+02  0.51100000000E-03 0.  1.
        -12    1    3    3    0    0 -0.59053488527E+00 -0.99371913063E+00 -0.17034887749E+00  0.11684296733E+01  0.00000000000E+00 0.  1.
</event>
<event>
 7    1  0.1466590E-008  0.4614232E+02  0.7816164E-02  0.1320468E+00
        -11   -1    0    0    0    0  0.00000000000E+00  0.00000000000E+00  0.45593999997E+02  0.45594000000E+02  0.51100000000E-03 0. -1.
         11   -1    0    0    0    0 -0.00000000000E+00 -0.00000000000E+00 -0.45593999997E+02  0.45594000000E+02  0.51100000000E-03 0.  1.
    9900012    2    1    2    0    0  0.40366124107E+02 -0.11081215636E+02 -0.16640201056E+02  0.46142316449E+02  0.99999880375E+01 0.  0.
         12    1    1    2    0    0 -0.40366124107E+02  0.11081215636E+02  0.16640201056E+02  0.45045683551E+02  0.00000000000E+00 0. -1.
         11    1    3    3    0    0  0.24747121751E+02 -0.51007443719E+01 -0.66754125195E+01  0.26134244980E+02  0.51100000000E-03 0. -1.
        -11    1    3    3    0    0  0.34334713486E+01 -0.26701058462E+01 -0.44707317260E+01  0.62374380285E+01  0.51100000000E-03 0.  1.
        -12    1    3    3    0    0  0.12185531007E+02 -0.33103654179E+01 -0.54940568103E+01  0.13770633441E+02  0.00000000000E+00 0.  1.
</event>
<event>
 7    1  0.1466590E-008  0.4614232E+02  0.7816164E-02  0.1320468E+00
        -11   -1    0    0    0    0  0.00000000000E+00  0.00000000000E+00  0.45593999997E+02  0.45594000000E+02  0.51100000000E-03 0.  1.
         11   -1    0    0    0    0 -0.00000000000E+00 -0.00000000000E+00 -0.45593999997E+02  0.45594000000E+02  0.51100000000E-03 0. -1.
    9900012    2    1    2    0    0 -0.11048587572E+02  0.24499785369E+02  0.36149725827E+02  0.46142318211E+02  0.10000004100E+02 0.  0.
         12    1    1    2    0    0  0.11048587572E+02 -0.24499785369E+02 -0.36149725827E+02  0.45045681789E+02  0.00000000000E+00 0. -1.
         11    1    3    3    0    0 -0.92880162609E+01  0.10998240306E+02  0.16254798941E+02  0.21712830879E+02  0.51100000000E-03 0. -1.
        -11    1    3    3    0    0 -0.17288194374E+01  0.20910027040E+01  0.47045485559E+01  0.54308274075E+01  0.51100000000E-03 0.  1.
         12    1    3    3    0    0 -0.31751873954E-01  0.11410542359E+02  0.15190378330E+02  0.18998659924E+02  0.00000000000E+00 0. -1.
</event>
<event>
 7    1  0.1466590E-008  0.4614232E+02  0.7816164E-02  0.1320468E+00
        -11   -1    0    0    0    0  0.00000000000E+00  0.00000000000E+00  0.45593999997E+02  0.45594000000E+02  0.51100000000E-03 0.  1.
         11   -1    0    0    0    0 -0.00000000000E+00 -0.00000000000E+00 -0.45593999997E+02  0.45594000000E+02  0.51100000000E-03 0. -1.
    9900012    2    1    2    0    0 -0.30464049577E+02  0.20275544070E+02  0.26267039949E+02  0.46142318834E+02  0.10000009787E+02 0.  0.
         12    1    1    2    0    0  0.30464049577E+02 -0.20275544070E+02 -0.26267039949E+02  0.45045681166E+02  0.00000000000E+00 0. -1.
         11    1    3    3    0    0 -0.17793006284E+02  0.88024999671E+01  0.12096962658E+02  0.23246754271E+02  0.51100000000E-03 0. -1.
        -11    1    3    3    0    0 -0.47582645372E+01  0.23380918180E+01  0.72092119296E+01  0.89487703995E+01  0.51100000000E-03 0.  1.
        -12    1    3    3    0    0 -0.79127787555E+01  0.91349522847E+01  0.69608653620E+01  0.13946794164E+02  0.00000000000E+00 0.  1.
</event>
<event>
 7    1  0.1466590E-008  0.4614232E+02  0.7816164E-02  0.1320468E+00
        -11   -1    0    0    0    0  0.00000000000E+00  0.00000000000E+00  0.45593999997E+02  0.45594000000E+02  0.51100000000E-03 0.  1.
         11   -1    0    0    0    0 -0.00000000000E+00 -0.00000000000E+00 -0.45593999997E+02  0.45594000000E+02  0.51100000000E-03 0. -1.
    9900012    2    1    2    0    0 -0.36250208754E+01  0.40225370689E+02  0.19947224314E+02  0.46142323390E+02  0.10000051330E+02 0.  0.
         12    1    1    2    0    0  0.36250208754E+01 -0.40225370689E+02 -0.19947224314E+02  0.45045676610E+02  0.00000000000E+00 0. -1.
         11    1    3    3    0    0 -0.29693124033E+00  0.19523362207E+00  0.78628686906E+00  0.86286246311E+00  0.51100000000E-03 0. -1.
        -11    1    3    3    0    0 -0.30936263144E+01  0.25972940091E+02  0.80727958059E+01  0.27373968896E+02  0.51100000000E-03 0.  1.
        -12    1    3    3    0    0 -0.23446332069E+00  0.14057196976E+02  0.11088141639E+02  0.17905492031E+02  0.00000000000E+00 0.  1.
</event>
<event>
 7    1  0.1466590E-008  0.4614232E+02  0.7816164E-02  0.1320468E+00
        -11   -1    0    0    0    0  0.00000000000E+00  0.00000000000E+00  0.45593999997E+02  0.45594000000E+02  0.51100000000E-03 0. -1.
         11   -1    0    0    0    0 -0.00000000000E+00 -0.00000000000E+00 -0.45593999997E+02  0.45594000000E+02  0.51100000000E-03 0.  1.
    9900012    2    1    2    0    0  0.37112485034E+02 -0.18477248618E+02 -0.17617269654E+02  0.46142318165E+02  0.10000003686E+02 0.  0.
         12    1    1    2    0    0 -0.37112485034E+02  0.18477248618E+02  0.17617269654E+02  0.45045681835E+02  0.00000000000E+00 0. -1.
         11    1    3    3    0    0  0.29729533776E+02 -0.16800333556E+02 -0.13024555878E+02  0.36547714596E+02  0.51100000000E-03 0. -1.
        -11    1    3    3    0    0  0.35985870181E+01 -0.26638643536E+01 -0.28906294555E+01  0.53293283565E+01  0.51100000000E-03 0.  1.
         12    1    3    3    0    0  0.37843642401E+01  0.98694929174E+00 -0.17020843205E+01  0.42652752127E+01  0.00000000000E+00 0. -1.
</event>
<event>
 7    1  0.1466590E-008  0.4614232E+02  0.7816164E-02  0.1320468E+00
        -11   -1    0    0    0    0  0.00000000000E+00  0.00000000000E+00  0.45593999997E+02  0.45594000000E+02  0.51100000000E-03 0.  1.
         11   -1    0    0    0    0 -0.00000000000E+00 -0.00000000000E+00 -0.45593999997E+02  0.45594000000E+02  0.51100000000E-03 0. -1.
    9900012    2    1    2    0    0 -0.74456301671E+01 -0.25574189345E+02  0.36326806871E+02  0.46142318002E+02  0.10000002195E+02 0.  0.
         12    1    1    2    0    0  0.74456301671E+01  0.25574189345E+02 -0.36326806871E+02  0.45045681998E+02  0.00000000000E+00 0. -1.
         11    1    3    3    0    0  0.61370911909E+00 -0.96515055398E+00  0.41609351671E+01  0.43152678017E+01  0.51100000000E-03 0. -1.
        -11    1    3    3    0    0 -0.71900561709E+01 -0.14338520002E+02  0.16007974374E+02  0.22661538063E+02  0.51100000000E-03 0.  1.
         12    1    3    3    0    0 -0.86928311524E+00 -0.10270518789E+02  0.16157897330E+02  0.19165512137E+02  0.00000000000E+00 0. -1.
</event>
<event>
 7    1  0.1466590E-008  0.4614232E+02  0.7816164E-02  0.1320468E+00
        -11   -1    0    0    0    0  0.00000000000E+00  0.00000000000E+00  0.45593999997E+02  0.45594000000E+02  0.51100000000E-03 0.  1.
         11   -1    0    0    0    0 -0.00000000000E+00 -0.00000000000E+00 -0.45593999997E+02  0.45594000000E+02  0.51100000000E-03 0. -1.
    9900012    2    1    2    0    0 -0.29034518535E+02  0.24254066397E+02  0.24450983234E+02  0.46142316695E+02  0.99999902743E+01 0.  0.
         12    1    1    2    0    0  0.29034518535E+02 -0.24254066397E+02 -0.24450983234E+02  0.45045683305E+02  0.00000000000E+00 0. -1.
         11    1    3    3    0    0 -0.87858837133E+01  0.11718434433E+02  0.74310313483E+01  0.16423571029E+02  0.51100000000E-03 0. -1.
        -11    1    3    3    0    0 -0.27544784947E+01  0.30117312249E+01  0.50005097952E+01  0.64546708066E+01  0.51100000000E-03 0.  1.
         12    1    3    3    0    0 -0.17494156327E+02  0.95239007392E+01  0.12019442091E+02  0.23264074859E+02  0.00000000000E+00 0. -1.
</event>
<event>
 7    1  0.1466590E-008  0.4614232E+02  0.7816164E-02  0.1320468E+00
        -11   -1    0    0    0    0  0.00000000000E+00  0.00000000000E+00  0.45593999997E+02  0.45594000000E+02  0.51100000000E-03 0.  1.
         11   -1    0    0    0    0 -0.00000000000E+00 -0.00000000000E+00 -0.45593999997E+02  0.45594000000E+02  0.51100000000E-03 0. -1.
    9900012    2    1    2    0    0  0.24675329827E+02  0.16761170998E+02  0.33753589165E+02  0.46142317223E+02  0.99999950965E+01 0.  0.
         12    1    1    2    0    0 -0.24675329827E+02 -0.16761170998E+02 -0.33753589165E+02  0.45045682777E+02  0.00000000000E+00 0. -1.
         11    1    3    3    0    0  0.24410185683E+01  0.15341741996E+01  0.84625213860E+01  0.89401639020E+01  0.51100000000E-03 0. -1.
        -11    1    3    3    0    0  0.20081172014E+02  0.14319159743E+02  0.24421747382E+02  0.34708983717E+02  0.51100000000E-03 0.  1.
        -12    1    3    3    0    0  0.21531392439E+01  0.90783705539E+00  0.86932039711E+00  0.24931696043E+01  0.00000000000E+00 0.  1.
</event>
<event>
 7    1  0.1466590E-008  0.4614232E+02  0.7816164E-02  0.1320468E+00
        -11   -1    0    0    0    0  0.00000000000E+00  0.00000000000E+00  0.45593999997E+02  0.45594000000E+02  0.51100000000E-03 0. -1.
         11   -1    0    0    0    0 -0.00000000000E+00 -0.00000000000E+00 -0.45593999997E+02  0.45594000000E+02  0.51100000000E-03 0.  1.
    9900012    2    1    2    0    0 -0.25752543843E+02 -0.31365860787E+02 -0.19547452120E+02  0.46142316281E+02  0.99999865068E+01 0.  0.
         12    1    1    2    0    0  0.25752543843E+02  0.31365860787E+02  0.19547452120E+02  0.45045683719E+02  0.00000000000E+00 0. -1.
         11    1    3    3    0    0 -0.19512896310E+02 -0.18166158381E+02 -0.14929865330E+02  0.30555904696E+02  0.51100000000E-03 0. -1.
        -11    1    3    3    0    0 -0.50858406742E+01 -0.10984024877E+02 -0.49281249145E+01  0.13069085404E+02  0.51100000000E-03 0.  1.
        -12    1    3    3    0    0 -0.11538068587E+01 -0.22156775283E+01  0.31053812464E+00  0.25173261814E+01  0.00000000000E+00 0.  1.
</event>
<event>
 7    1  0.1466590E-008  0.4614232E+02  0.7816164E-02  0.1320468E+00
        -11   -1    0    0    0    0  0.00000000000E+00  0.00000000000E+00  0.45593999997E+02  0.45594000000E+02  0.51100000000E-03 0. -1.
         11   -1    0    0    0    0 -0.00000000000E+00 -0.00000000000E+00 -0.45593999997E+02  0.45594000000E+02  0.51100000000E-03 0.  1.
    9900012    2    1    2    0    0 -0.40225369463E+02  0.88449470814E+01  0.18242808124E+02  0.46142317792E+02  0.10000000282E+02 0.  0.
         12    1    1    2    0    0  0.40225369463E+02 -0.88449470814E+01 -0.18242808124E+02  0.45045682208E+02  0.00000000000E+00 0. -1.
         11    1    3    3    0    0 -0.15477767741E+02  0.29286617918E+01  0.20070777320E+01  0.15879758040E+02  0.51100000000E-03 0. -1.
        -11    1    3    3    0    0 -0.72127643338E+01  0.73622587258E+00  0.48661894614E+01  0.87318839895E+01  0.51100000000E-03 0.  1.
        -12    1    3    3    0    0 -0.17534837389E+02  0.51800594170E+01  0.11369540931E+02  0.21530675763E+02  0.00000000000E+00 0.  1.
</event>
<event>
 7    1  0.1466590E-008  0.4614232E+02  0.7816164E-02  0.1320468E+00
        -11   -1    0    0    0    0  0.00000000000E+00  0.00000000000E+00  0.45593999997E+02  0.45594000000E+02  0.51100000000E-03 0. -1.
         11   -1    0    0    0    0 -0.00000000000E+00 -0.00000000000E+00 -0.45593999997E+02  0.45594000000E+02  0.51100000000E-03 0.  1.
    9900012    2    1    2    0    0  0.13629149618E+02 -0.35142102659E+02 -0.24665604726E+02  0.46142321460E+02  0.10000033733E+02 0.  0.
         12    1    1    2    0    0 -0.13629149618E+02  0.35142102659E+02  0.24665604726E+02  0.45045678540E+02  0.00000000000E+00 0. -1.
         11    1    3    3    0    0  0.11552145320E+02 -0.17562347999E+02 -0.14963149066E+02  0.25802789752E+02  0.51100000000E-03 0. -1.
        -11    1    3    3    0    0  0.21468673750E+01 -0.15440786534E+02 -0.93278489184E+01  0.18166884543E+02  0.51100000000E-03 0.  1.
         12    1    3    3    0    0 -0.69863076846E-01 -0.21389681261E+01 -0.37460674100E+00  0.21726471652E+01  0.00000000000E+00 0. -1.
</event>
<event>
 7    1  0.1466590E-008  0.4614232E+02  0.7816164E-02  0.1320468E+00
        -11   -1    0    0    0    0  0.00000000000E+00  0.00000000000E+00  0.45593999997E+02  0.45594000000E+02  0.51100000000E-03 0.  1.
         11   -1    0    0    0    0 -0.00000000000E+00 -0.00000000000E+00 -0.45593999997E+02  0.45594000000E+02  0.51100000000E-03 0. -1.
    9900012    2    1    2    0    0  0.19146152350E+02  0.98038265424E+01  0.39578066716E+02  0.46142317303E+02  0.99999958204E+01 0.  0.
         12    1    1    2    0    0 -0.19146152350E+02 -0.98038265424E+01 -0.39578066716E+02  0.45045682697E+02  0.00000000000E+00 0. -1.
         11    1    3    3    0    0  0.11140717106E+01  0.22839828675E+00  0.72308935536E+01  0.73197775512E+01  0.51100000000E-03 0. -1.
        -11    1    3    3    0    0  0.17387791902E+02  0.10036296369E+02  0.32297514531E+02  0.38028831131E+02  0.51100000000E-03 0.  1.
        -12    1    3    3    0    0  0.64428873740E+00 -0.46086811318E+00  0.49658631197E-01  0.79370862068E+00  0.00000000000E+00 0.  1.
</event>
<event>
 7    1  0.1466590E-008  0.4614232E+02  0.7816164E-02  0.1320468E+00
        -11   -1    0    0    0    0  0.00000000000E+00  0.00000000000E+00  0.45593999997E+02  0.45594000000E+02  0.51100000000E-03 0.  1.
         11   -1    0    0    0    0 -0.00000000000E+00 -0.00000000000E+00 -0.45593999997E+02  0.45594000000E+02  0.51100000000E-03 0. -1.
    9900012    2    1    2    0    0  0.69818246344E+01  0.41667085791E+02  0.15627590267E+02  0.46142317731E+02  0.99999997222E+01 0.  0.
         12    1    1    2    0    0 -0.69818246344E+01 -0.41667085791E+02 -0.15627590267E+02  0.45045682269E+02  0.00000000000E+00 0. -1.
         11    1    3    3    0    0  0.18581896877E+00  0.90960245668E+01  0.67903512576E+01  0.11352579534E+02  0.51100000000E-03 0. -1.
        -11    1    3    3    0    0  0.30489720768E+01  0.24580539054E+02  0.73782942792E+01  0.25844503432E+02  0.51100000000E-03 0.  1.
         12    1    3    3    0    0  0.37470335888E+01  0.79905221701E+01  0.14589447298E+01  0.89452347645E+01  0.00000000000E+00 0. -1.
</event>
<event>
 7    1  0.1466590E-008  0.4614232E+02  0.7816164E-02  0.1320468E+00
        -11   -1    0    0    0    0  0.00000000000E+00  0.00000000000E+00  0.45593999997E+02  0.45594000000E+02  0.51100000000E-03 0.  1.
         11   -1    0    0    0    0 -0.00000000000E+00 -0.00000000000E+00 -0.45593999997E+02  0.45594000000E+02  0.51100000000E-03 0. -1.
    9900012    2    1    2    0    0  0.16002198710E+01  0.11185659129E+02  0.43605432589E+02  0.46142318464E+02  0.10000006409E+02 0.  0.
         12    1    1    2    0    0 -0.16002198710E+01 -0.11185659129E+02 -0.43605432589E+02  0.45045681536E+02  0.00000000000E+00 0. -1.
         11    1    3    3    0    0  0.11383716642E+01  0.64355486496E+01  0.11933697904E+02  0.13606076671E+02  0.51100000000E-03 0. -1.
        -11    1    3    3    0    0  0.12585400267E+01  0.54966020916E+01  0.30093144265E+02  0.30616888960E+02  0.51100000000E-03 0.  1.
         12    1    3    3    0    0 -0.79669181995E+00 -0.74649161218E+00  0.15785904199E+01  0.19193528328E+01  0.00000000000E+00 0. -1.
</event>
<event>
 7    1  0.1466590E-008  0.4614232E+02  0.7816164E-02  0.1320468E+00
        -11   -1    0    0    0    0  0.00000000000E+00  0.00000000000E+00  0.45593999997E+02  0.45594000000E+02  0.51100000000E-03 0.  1.
         11   -1    0    0    0    0 -0.00000000000E+00 -0.00000000000E+00 -0.45593999997E+02  0.45594000000E+02  0.51100000000E-03 0. -1.
    9900012    2    1    2    0    0 -0.21208232991E+01  0.10534956483E+02  0.43745059385E+02  0.46142318518E+02  0.10000006902E+02 0.  0.
         12    1    1    2    0    0  0.21208232991E+01 -0.10534956483E+02 -0.43745059385E+02  0.45045681482E+02  0.00000000000E+00 0. -1.
         11    1    3    3    0    0  0.20293966448E+01  0.12318339893E+01  0.45074311473E+01  0.50943892203E+01  0.51100000000E-03 0. -1.
        -11    1    3    3    0    0 -0.99905271186E+00  0.78765786935E+01  0.20308671428E+02  0.21805520715E+02  0.51100000000E-03 0.  1.
         12    1    3    3    0    0 -0.31511672321E+01  0.14265438004E+01  0.18928956810E+02  0.19242408582E+02  0.00000000000E+00 0. -1.
</event>
<event>
 7    1  0.1466590E-008  0.4614232E+02  0.7816164E-02  0.1320468E+00
        -11   -1    0    0    0    0  0.00000000000E+00  0.00000000000E+00  0.45593999997E+02  0.45594000000E+02  0.51100000000E-03 0.  1.
         11   -1    0    0    0    0 -0.00000000000E+00 -0.00000000000E+00 -0.45593999997E+02  0.45594000000E+02  0.51100000000E-03 0. -1.
    9900012    2    1    2    0    0  0.11150464953E+02  0.21068188681E+02  0.38221879358E+02  0.46142317580E+02  0.99999983505E+01 0.  0.
         12    1    1    2    0    0 -0.11150464953E+02 -0.21068188681E+02 -0.38221879358E+02  0.45045682420E+02  0.00000000000E+00 0. -1.
         11    1    3    3    0    0  0.31366147126E+01  0.11238568973E+02  0.20956023051E+02  0.23985384858E+02  0.51100000000E-03 0. -1.
        -11    1    3    3    0    0  0.63643989137E+01  0.85342502890E+01  0.10042493556E+02  0.14635254648E+02  0.51100000000E-03 0.  1.
        -12    1    3    3    0    0  0.16494513267E+01  0.12953694193E+01  0.72233627517E+01  0.75216780743E+01  0.00000000000E+00 0.  1.
</event>
<event>
 7    1  0.1557073E-008  0.4614232E+02  0.7816164E-02  0.1320468E+00
        -11   -1    0    0    0    0  0.00000000000E+00  0.00000000000E+00  0.45593999997E+02  0.45594000000E+02  0.51100000000E-03 0.  1.
         11   -1    0    0    0    0 -0.00000000000E+00 -0.00000000000E+00 -0.45593999997E+02  0.45594000000E+02  0.51100000000E-03 0. -1.
    9900012    2    1    2    0    0 -0.93669762373E+01 -0.42509624729E+02  0.11589006404E+02  0.46142317544E+02  0.99999980246E+01 0.  0.
         12    1    1    2    0    0  0.93669762373E+01  0.42509624729E+02 -0.11589006404E+02  0.45045682456E+02  0.00000000000E+00 0. -1.
         11    1    3    3    0    0 -0.14711879176E+01 -0.14201708904E+01  0.19027341848E+01  0.27931482034E+01  0.51100000000E-03 0. -1.
        -11    1    3    3    0    0 -0.76256542208E+01 -0.34982811396E+02  0.62778661876E+01  0.36350506181E+02  0.51100000000E-03 0.  1.
        -12    1    3    3    0    0 -0.27013409894E+00 -0.61066424425E+01  0.34084060316E+01  0.69986631601E+01  0.00000000000E+00 0.  1.
</event>
<event>
 7    1  0.1466590E-008  0.4614231E+02  0.7816164E-02  0.1320468E+00
        -11   -1    0    0    0    0  0.00000000000E+00  0.00000000000E+00  0.45593999997E+02  0.45594000000E+02  0.51100000000E-03 0.  1.
         11   -1    0    0    0    0 -0.00000000000E+00 -0.00000000000E+00 -0.45593999997E+02  0.45594000000E+02  0.51100000000E-03 0. -1.
    9900012    2    1    2    0    0 -0.37127530023E+02 -0.13402216013E+02  0.21703485267E+02  0.46142310390E+02  0.99999327824E+01 0.  0.
         12    1    1    2    0    0  0.37127530023E+02  0.13402216013E+02 -0.21703485267E+02  0.45045689610E+02  0.00000000000E+00 0. -1.
         11    1    3    3    0    0 -0.54355334213E+01 -0.10810030894E+01  0.48525338980E+01  0.73661846804E+01  0.51100000000E-03 0. -1.
        -11    1    3    3    0    0 -0.74157540729E+01 -0.59201638738E+01  0.23211278074E+01  0.97687964111E+01  0.51100000000E-03 0.  1.
        -12    1    3    3    0    0 -0.24276242529E+02 -0.64010490503E+01  0.14529823562E+02  0.29007329298E+02  0.00000000000E+00 0.  1.
</event>
<event>
 7    1  0.1466590E-008  0.4614232E+02  0.7816164E-02  0.1320468E+00
        -11   -1    0    0    0    0  0.00000000000E+00  0.00000000000E+00  0.45593999997E+02  0.45594000000E+02  0.51100000000E-03 0.  1.
         11   -1    0    0    0    0 -0.00000000000E+00 -0.00000000000E+00 -0.45593999997E+02  0.45594000000E+02  0.51100000000E-03 0. -1.
    9900012    2    1    2    0    0  0.29664132291E+01 -0.31702056318E+02  0.31863670959E+02  0.46142317529E+02  0.99999978844E+01 0.  0.
         12    1    1    2    0    0 -0.29664132291E+01  0.31702056318E+02 -0.31863670959E+02  0.45045682471E+02  0.00000000000E+00 0. -1.
         11    1    3    3    0    0 -0.31220904811E+01 -0.77811809624E+01  0.61106755463E+01  0.10374708769E+02  0.51100000000E-03 0. -1.
        -11    1    3    3    0    0  0.45329103443E+01 -0.20785559268E+02  0.22850292030E+02  0.31220547663E+02  0.51100000000E-03 0.  1.
         12    1    3    3    0    0  0.15555933660E+01 -0.31353160878E+01  0.29027033833E+01  0.45470610972E+01  0.00000000000E+00 0. -1.
</event>
<event>
 7    1  0.1466590E-008  0.4614232E+02  0.7816164E-02  0.1320468E+00
        -11   -1    0    0    0    0  0.00000000000E+00  0.00000000000E+00  0.45593999997E+02  0.45594000000E+02  0.51100000000E-03 0.  1.
         11   -1    0    0    0    0 -0.00000000000E+00 -0.00000000000E+00 -0.45593999997E+02  0.45594000000E+02  0.51100000000E-03 0. -1.
    9900012    2    1    2    0    0  0.18943412595E+02 -0.38124031575E+02  0.14724773145E+02  0.46142316429E+02  0.99999878512E+01 0.  0.
         12    1    1    2    0    0 -0.18943412595E+02  0.38124031575E+02 -0.14724773145E+02  0.45045683571E+02  0.00000000000E+00 0. -1.
         11    1    3    3    0    0  0.15761966677E+01  0.13554777698E-01  0.12957038619E+01  0.20404480945E+01  0.51100000000E-03 0. -1.
        -11    1    3    3    0    0  0.10130893608E+02 -0.24555407535E+02  0.95832448731E+01  0.28239008961E+02  0.51100000000E-03 0.  1.
         12    1    3    3    0    0  0.72363223190E+01 -0.13582178817E+02  0.38458244096E+01  0.15862859374E+02  0.00000000000E+00 0. -1.
</event>
<event>
 7    1  0.1466590E-008  0.4614232E+02  0.7816164E-02  0.1320468E+00
        -11   -1    0    0    0    0  0.00000000000E+00  0.00000000000E+00  0.45593999997E+02  0.45594000000E+02  0.51100000000E-03 0. -1.
         11   -1    0    0    0    0 -0.00000000000E+00 -0.00000000000E+00 -0.45593999997E+02  0.45594000000E+02  0.51100000000E-03 0.  1.
    9900012    2    1    2    0    0  0.40303384369E+02 -0.16367000393E+02 -0.11699234991E+02  0.46142316602E+02  0.99999894277E+01 0.  0.
         12    1    1    2    0    0 -0.40303384369E+02  0.16367000393E+02  0.11699234991E+02  0.45045683398E+02  0.00000000000E+00 0. -1.
         11    1    3    3    0    0  0.23649750039E+02 -0.11494410553E+02 -0.10017085910E+02  0.28138481858E+02  0.51100000000E-03 0. -1.
        -11    1    3    3    0    0  0.13465029487E+02 -0.35985122436E+01 -0.31178232641E+01  0.14282056282E+02  0.51100000000E-03 0.  1.
         12    1    3    3    0    0  0.31886048421E+01 -0.12740775964E+01  0.14356741831E+01  0.37217784621E+01  0.00000000000E+00 0. -1.
</event>
<event>
 7    1  0.1466590E-008  0.4614232E+02  0.7816164E-02  0.1320468E+00
        -11   -1    0    0    0    0  0.00000000000E+00  0.00000000000E+00  0.45593999997E+02  0.45594000000E+02  0.51100000000E-03 0. -1.
         11   -1    0    0    0    0 -0.00000000000E+00 -0.00000000000E+00 -0.45593999997E+02  0.45594000000E+02  0.51100000000E-03 0.  1.
    9900012    2    1    2    0    0 -0.31656003625E+02  0.11224199699E+02  0.30017132630E+02  0.46142317901E+02  0.10000001278E+02 0.  0.
         12    1    1    2    0    0  0.31656003625E+02 -0.11224199699E+02 -0.30017132630E+02  0.45045682099E+02  0.00000000000E+00 0. -1.
         11    1    3    3    0    0 -0.26372209567E+01  0.26698241940E+01  0.12843498747E+01  0.39664153165E+01  0.51100000000E-03 0. -1.
        -11    1    3    3    0    0 -0.98168346479E+01  0.43366491031E+01  0.67213376920E+01  0.12663062370E+02  0.51100000000E-03 0.  1.
         12    1    3    3    0    0 -0.19201948021E+02  0.42177264024E+01  0.22011445063E+02  0.29512840215E+02  0.00000000000E+00 0. -1.
</event>
<event>
 7    1  0.1466590E-008  0.4614232E+02  0.7816164E-02  0.1320468E+00
        -11   -1    0    0    0    0  0.00000000000E+00  0.00000000000E+00  0.45593999997E+02  0.45594000000E+02  0.51100000000E-03 0.  1.
         11   -1    0    0    0    0 -0.00000000000E+00 -0.00000000000E+00 -0.45593999997E+02  0.45594000000E+02  0.51100000000E-03 0. -1.
    9900012    2    1    2    0    0 -0.24534622244E+02 -0.17104240231E+02  0.33683983444E+02  0.46142318041E+02  0.10000002550E+02 0.  0.
         12    1    1    2    0    0  0.24534622244E+02  0.17104240231E+02 -0.33683983444E+02  0.45045681959E+02  0.00000000000E+00 0. -1.
         11    1    3    3    0    0 -0.54434037311E+01 -0.90051628323E+00  0.56164999903E+01  0.78731598585E+01  0.51100000000E-03 0. -1.
        -11    1    3    3    0    0 -0.35603688680E+01 -0.64490608622E+01  0.10843910071E+02  0.13109424029E+02  0.51100000000E-03 0.  1.
        -12    1    3    3    0    0 -0.15530849645E+02 -0.97546630854E+01  0.17223573382E+02  0.25159734153E+02  0.00000000000E+00 0.  1.
</event>
<event>
 7    1  0.1466590E-008  0.4614232E+02  0.7816164E-02  0.1320468E+00
        -11   -1    0    0    0    0  0.00000000000E+00  0.00000000000E+00  0.45593999997E+02  0.45594000000E+02  0.51100000000E-03 0. -1.
         11   -1    0    0    0    0 -0.00000000000E+00 -0.00000000000E+00 -0.45593999997E+02  0.45594000000E+02  0.51100000000E-03 0.  1.
    9900012    2    1    2    0    0  0.35046419284E+02  0.23273808478E+02 -0.16099428049E+02  0.46142320415E+02  0.10000024202E+02 0.  0.
         12    1    1    2    0    0 -0.35046419284E+02 -0.23273808478E+02  0.16099428049E+02  0.45045679585E+02  0.00000000000E+00 0. -1.
         11    1    3    3    0    0  0.16448922974E+02  0.10088414142E+02 -0.93458220289E+01  0.21440325477E+02  0.51100000000E-03 0. -1.
        -11    1    3    3    0    0  0.15994541755E+02  0.13730825554E+02 -0.63239324735E+01  0.22008022595E+02  0.51100000000E-03 0.  1.
        -12    1    3    3    0    0  0.26029545551E+01 -0.54543121725E+00 -0.42967354676E+00  0.26939723432E+01  0.00000000000E+00 0.  1.
</event>
<event>
 7    1  0.1466590E-008  0.4614232E+02  0.7816164E-02  0.1320468E+00
        -11   -1    0    0    0    0  0.00000000000E+00  0.00000000000E+00  0.45593999997E+02  0.45594000000E+02  0.51100000000E-03 0. -1.
         11   -1    0    0    0    0 -0.00000000000E+00 -0.00000000000E+00 -0.45593999997E+02  0.45594000000E+02  0.51100000000E-03 0.  1.
    9900012    2    1    2    0    0  0.44819488563E+02  0.23826998338E+01  0.38274819475E+01  0.46142318391E+02  0.10000005741E+02 0.  0.
         12    1    1    2    0    0 -0.44819488563E+02 -0.23826998338E+01 -0.38274819475E+01  0.45045681609E+02  0.00000000000E+00 0. -1.
         11    1    3    3    0    0  0.18233913760E+02 -0.26250307336E+01  0.10484357638E+01  0.18451710359E+02  0.51100000000E-03 0. -1.
        -11    1    3    3    0    0  0.69090637529E+01 -0.70839015524E+00  0.18122839832E+01  0.71778375609E+01  0.51100000000E-03 0.  1.
         12    1    3    3    0    0  0.19676511051E+02  0.57161207226E+01  0.96676220055E+00  0.20512770471E+02  0.00000000000E+00 0. -1.
</event>
<event>
 7    1  0.1466590E-008  0.4614232E+02  0.7816164E-02  0.1320468E+00
        -11   -1    0    0    0    0  0.00000000000E+00  0.00000000000E+00  0.45593999997E+02  0.45594000000E+02  0.51100000000E-03 0.  1.
         11   -1    0    0    0    0 -0.00000000000E+00 -0.00000000000E+00 -0.45593999997E+02  0.45594000000E+02  0.51100000000E-03 0. -1.
    9900012    2    1    2    0    0 -0.38883214061E+02  0.10399372283E+02  0.20225287424E+02  0.46142317289E+02  0.99999956907E+01 0.  0.
         12    1    1    2    0    0  0.38883214061E+02 -0.10399372283E+02 -0.20225287424E+02  0.45045682711E+02  0.00000000000E+00 0. -1.
         11    1    3    3    0    0 -0.22346024363E+02  0.23015558266E+01  0.82346723026E+01  0.23925964813E+02  0.51100000000E-03 0. -1.
        -11    1    3    3    0    0 -0.10137196352E+02  0.35522196715E+01  0.57219231883E+01  0.12170514357E+02  0.51100000000E-03 0.  1.
         12    1    3    3    0    0 -0.63999933459E+01  0.45455967850E+01  0.62686919327E+01  0.10045838119E+02  0.00000000000E+00 0. -1.
</event>
<event>
 7    1  0.1466590E-008  0.4614232E+02  0.7816164E-02  0.1320468E+00
        -11   -1    0    0    0    0  0.00000000000E+00  0.00000000000E+00  0.45593999997E+02  0.45594000000E+02  0.51100000000E-03 0.  1.
         11   -1    0    0    0    0 -0.00000000000E+00 -0.00000000000E+00 -0.45593999997E+02  0.45594000000E+02  0.51100000000E-03 0. -1.
    9900012    2    1    2    0    0  0.34542023704E+02 -0.10739518610E+02  0.26844456684E+02  0.46142317452E+02  0.99999971808E+01 0.  0.
         12    1    1    2    0    0 -0.34542023704E+02  0.10739518610E+02 -0.26844456684E+02  0.45045682548E+02  0.00000000000E+00 0. -1.
         11    1    3    3    0    0  0.72254031357E+01 -0.10171755228E+01  0.20593207372E+01  0.75816817843E+01  0.51100000000E-03 0. -1.
        -11    1    3    3    0    0  0.23024473563E+02 -0.58711081895E+01  0.19498575867E+02  0.30737448745E+02  0.51100000000E-03 0.  1.
        -12    1    3    3    0    0  0.42921470052E+01 -0.38512348978E+01  0.52865600797E+01  0.78231869228E+01  0.00000000000E+00 0.  1.
</event>
<event>
 7    1  0.1466590E-008  0.4614232E+02  0.7816164E-02  0.1320468E+00
        -11   -1    0    0    0    0  0.00000000000E+00  0.00000000000E+00  0.45593999997E+02  0.45594000000E+02  0.51100000000E-03 0. -1.
         11   -1    0    0    0    0 -0.00000000000E+00 -0.00000000000E+00 -0.45593999997E+02  0.45594000000E+02  0.51100000000E-03 0.  1.
    9900012    2    1    2    0    0 -0.16064453601E+01  0.41156704798E+02 -0.18238927306E+02  0.46142317790E+02  0.10000000264E+02 0.  0.
         12    1    1    2    0    0  0.16064453601E+01 -0.41156704798E+02  0.18238927306E+02  0.45045682210E+02  0.00000000000E+00 0. -1.
         11    1    3    3    0    0  0.41421720492E+01  0.20476926283E+02 -0.96553201645E+01  0.23014936607E+02  0.51100000000E-03 0. -1.
        -11    1    3    3    0    0 -0.28226933833E+01  0.11459655387E+02 -0.46843404245E+01  0.12697808669E+02  0.51100000000E-03 0.  1.
         12    1    3    3    0    0 -0.29259240261E+01  0.92201231281E+01 -0.38992667167E+01  0.10429572514E+02  0.00000000000E+00 0. -1.
</event>
<event>
 7    1  0.1466590E-008  0.4614232E+02  0.7816164E-02  0.1320468E+00
        -11   -1    0    0    0    0  0.00000000000E+00  0.00000000000E+00  0.45593999997E+02  0.45594000000E+02  0.51100000000E-03 0.  1.
         11   -1    0    0    0    0 -0.00000000000E+00 -0.00000000000E+00 -0.45593999997E+02  0.45594000000E+02  0.51100000000E-03 0. -1.
    9900012    2    1    2    0    0 -0.13536451028E+02  0.21336981975E+02  0.37290900411E+02  0.46142316970E+02  0.99999927824E+01 0.  0.
         12    1    1    2    0    0  0.13536451028E+02 -0.21336981975E+02 -0.37290900411E+02  0.45045683030E+02  0.00000000000E+00 0. -1.
         11    1    3    3    0    0 -0.22558117313E+01  0.37316060769E+01  0.36303266457E+01  0.56738736588E+01  0.51100000000E-03 0. -1.
        -11    1    3    3    0    0  0.47613598626E+00  0.50763971258E+01  0.10035311966E+02  0.11256287122E+02  0.51100000000E-03 0.  1.
        -12    1    3    3    0    0 -0.11756775283E+02  0.12528978772E+02  0.23625261799E+02  0.29212156189E+02  0.00000000000E+00 0.  1.
</event>
<event>
 7    1  0.1466590E-008  0.4614232E+02  0.7816164E-02  0.1320468E+00
        -11   -1    0    0    0    0  0.00000000000E+00  0.00000000000E+00  0.45593999997E+02  0.45594000000E+02  0.51100000000E-03 0.  1.
         11   -1    0    0    0    0 -0.00000000000E+00 -0.00000000000E+00 -0.45593999997E+02  0.45594000000E+02  0.51100000000E-03 0. -1.
    9900012    2    1    2    0    0  0.43797738233E+02 -0.50578271540E+01  0.92352608625E+01  0.46142317265E+02  0.99999954771E+01 0.  0.
         12    1    1    2    0    0 -0.43797738233E+02  0.50578271540E+01 -0.92352608625E+01  0.45045682735E+02  0.00000000000E+00 0. -1.
         11    1    3    3    0    0  0.31955677171E+02 -0.21156121181E+01  0.53053464618E+01  0.32462098198E+02  0.51100000000E-03 0. -1.
        -11    1    3    3    0    0  0.12056636678E+02 -0.28876864515E+01  0.44043011762E+01  0.13156712741E+02  0.51100000000E-03 0.  1.
         12    1    3    3    0    0 -0.21457561551E+00 -0.54528584344E-01 -0.47438677548E+00  0.52350632664E+00  0.00000000000E+00 0. -1.
</event>
<event>
 7    1  0.1466590E-008  0.4614232E+02  0.7816164E-02  0.1320468E+00
        -11   -1    0    0    0    0  0.00000000000E+00  0.00000000000E+00  0.45593999997E+02  0.45594000000E+02  0.51100000000E-03 0. -1.
         11   -1    0    0    0    0 -0.00000000000E+00 -0.00000000000E+00 -0.45593999997E+02  0.45594000000E+02  0.51100000000E-03 0.  1.
    9900012    2    1    2    0    0 -0.17500139973E+02 -0.41468620669E+02 -0.17921305889E+01  0.46142321724E+02  0.10000036138E+02 0.  0.
         12    1    1    2    0    0  0.17500139973E+02  0.41468620669E+02  0.17921305889E+01  0.45045678276E+02  0.00000000000E+00 0. -1.
         11    1    3    3    0    0 -0.46725531597E+01 -0.14615157373E+02 -0.24867098481E+01  0.15544108344E+02  0.51100000000E-03 0.  1.
        -11    1    3    3    0    0 -0.13153697211E+02 -0.24508361617E+02  0.20136709137E+01  0.27887890029E+02  0.51100000000E-03 0. -1.
         12    1    3    3    0    0  0.32611039736E+00 -0.23451016788E+01 -0.13190916545E+01  0.27103233512E+01  0.00000000000E+00 0. -1.
</event>
<event>
 7    1  0.1466590E-008  0.4614232E+02  0.7816164E-02  0.1320468E+00
        -11   -1    0    0    0    0  0.00000000000E+00  0.00000000000E+00  0.45593999997E+02  0.45594000000E+02  0.51100000000E-03 0.  1.
         11   -1    0    0    0    0 -0.00000000000E+00 -0.00000000000E+00 -0.45593999997E+02  0.45594000000E+02  0.51100000000E-03 0. -1.
    9900012    2    1    2    0    0  0.41806950357E+02 -0.16359658371E+02 -0.36950991831E+01  0.46142320094E+02  0.10000021275E+02 0.  0.
         12    1    1    2    0    0 -0.41806950357E+02  0.16359658371E+02  0.36950991831E+01  0.45045679906E+02  0.00000000000E+00 0. -1.
         11    1    3    3    0    0  0.18228064115E+02 -0.56066149320E+01  0.20969114122E+01  0.19185762693E+02  0.51100000000E-03 0. -1.
        -11    1    3    3    0    0  0.23188747239E+02 -0.96932821522E+01 -0.59171617044E+01  0.25820350894E+02  0.51100000000E-03 0.  1.
        -12    1    3    3    0    0  0.39013900308E+00 -0.10597612866E+01  0.12515110901E+00  0.11362065069E+01  0.00000000000E+00 0.  1.
</event>
<event>
 7    1  0.1466590E-008  0.4614232E+02  0.7816164E-02  0.1320468E+00
        -11   -1    0    0    0    0  0.00000000000E+00  0.00000000000E+00  0.45593999997E+02  0.45594000000E+02  0.51100000000E-03 0.  1.
         11   -1    0    0    0    0 -0.00000000000E+00 -0.00000000000E+00 -0.45593999997E+02  0.45594000000E+02  0.51100000000E-03 0. -1.
    9900012    2    1    2    0    0 -0.24698657587E+02 -0.42937671501E+01  0.37425303606E+02  0.46142317932E+02  0.10000001562E+02 0.  0.
         12    1    1    2    0    0  0.24698657587E+02  0.42937671501E+01 -0.37425303606E+02  0.45045682068E+02  0.00000000000E+00 0. -1.
         11    1    3    3    0    0 -0.18844641714E+01  0.40192593001E+00  0.56553733839E+01  0.59746127940E+01  0.51100000000E-03 0. -1.
        -11    1    3    3    0    0 -0.19384142723E+02 -0.18466097272E+01  0.28958935640E+02  0.34896631790E+02  0.51100000000E-03 0.  1.
        -12    1    3    3    0    0 -0.34300506931E+01 -0.28490833529E+01  0.28109945815E+01  0.52710733485E+01  0.00000000000E+00 0.  1.
</event>
<event>
 7    1  0.1466590E-008  0.4614232E+02  0.7816164E-02  0.1320468E+00
        -11   -1    0    0    0    0  0.00000000000E+00  0.00000000000E+00  0.45593999997E+02  0.45594000000E+02  0.51100000000E-03 0.  1.
         11   -1    0    0    0    0 -0.00000000000E+00 -0.00000000000E+00 -0.45593999997E+02  0.45594000000E+02  0.51100000000E-03 0. -1.
    9900012    2    1    2    0    0 -0.69960706316E+01  0.44449656032E+02  0.20967916189E+01  0.46142318068E+02  0.10000002801E+02 0.  0.
         12    1    1    2    0    0  0.69960706316E+01 -0.44449656032E+02 -0.20967916189E+01  0.45045681932E+02  0.00000000000E+00 0. -1.
         11    1    3    3    0    0 -0.82159753358E+01  0.25845793176E+02  0.22143223370E+01  0.27210485098E+02  0.51100000000E-03 0. -1.
        -11    1    3    3    0    0  0.35592852203E-01  0.10994721727E+02  0.13981967898E+01  0.11083326541E+02  0.51100000000E-03 0.  1.
         12    1    3    3    0    0  0.11843118519E+01  0.76091411288E+01 -0.15157275078E+01  0.78485064286E+01  0.00000000000E+00 0. -1.
</event>
<event>
 7    1  0.1466590E-008  0.4614232E+02  0.7816164E-02  0.1320468E+00
        -11   -1    0    0    0    0  0.00000000000E+00  0.00000000000E+00  0.45593999997E+02  0.45594000000E+02  0.51100000000E-03 0. -1.
         11   -1    0    0    0    0 -0.00000000000E+00 -0.00000000000E+00 -0.45593999997E+02  0.45594000000E+02  0.51100000000E-03 0.  1.
    9900012    2    1    2    0    0 -0.29842602211E+02  0.32614104728E+02 -0.86517501541E+01  0.46142317469E+02  0.99999973402E+01 0.  0.
         12    1    1    2    0    0  0.29842602211E+02 -0.32614104728E+02  0.86517501541E+01  0.45045682531E+02  0.00000000000E+00 0. -1.
         11    1    3    3    0    0 -0.63064465862E+01  0.43413099057E+01  0.14095689372E+01  0.77849293569E+01  0.51100000000E-03 0. -1.
        -11    1    3    3    0    0 -0.16991769448E+02  0.19141462093E+02 -0.87366034102E+01  0.27045222118E+02  0.51100000000E-03 0.  1.
         12    1    3    3    0    0 -0.65443861765E+01  0.91313327294E+01 -0.13247156810E+01  0.11312165994E+02  0.00000000000E+00 0. -1.
</event>
<event>
 7    1  0.1466590E-008  0.4614233E+02  0.7816164E-02  0.1320468E+00
        -11   -1    0    0    0    0  0.00000000000E+00  0.00000000000E+00  0.45593999997E+02  0.45594000000E+02  0.51100000000E-03 0. -1.
         11   -1    0    0    0    0 -0.00000000000E+00 -0.00000000000E+00 -0.45593999997E+02  0.45594000000E+02  0.51100000000E-03 0.  1.
    9900012    2    1    2    0    0  0.15120152018E+01 -0.15385118710E+02 -0.42309863195E+02  0.46142327719E+02  0.10000090802E+02 0.  0.
         12    1    1    2    0    0 -0.15120152018E+01  0.15385118710E+02  0.42309863195E+02  0.45045672281E+02  0.00000000000E+00 0. -1.
         11    1    3    3    0    0 -0.22639659919E+00  0.59005529139E+00 -0.21477722858E+01  0.22388270857E+01  0.51100000000E-03 0. -1.
        -11    1    3    3    0    0  0.12167446830E+01 -0.11896663769E+02 -0.19806096577E+02  0.23136389916E+02  0.51100000000E-03 0.  1.
        -12    1    3    3    0    0  0.52166711801E+00 -0.40785102326E+01 -0.20355994332E+02  0.20767110718E+02  0.00000000000E+00 0.  1.
</event>
<event>
 7    1  0.1466590E-008  0.4614232E+02  0.7816164E-02  0.1320468E+00
        -11   -1    0    0    0    0  0.00000000000E+00  0.00000000000E+00  0.45593999997E+02  0.45594000000E+02  0.51100000000E-03 0.  1.
         11   -1    0    0    0    0 -0.00000000000E+00 -0.00000000000E+00 -0.45593999997E+02  0.45594000000E+02  0.51100000000E-03 0. -1.
    9900012    2    1    2    0    0 -0.27957987539E+02 -0.16310744277E+02  0.31327689357E+02  0.46142316893E+02  0.99999920842E+01 0.  0.
         12    1    1    2    0    0  0.27957987539E+02  0.16310744277E+02 -0.31327689357E+02  0.45045683107E+02  0.00000000000E+00 0. -1.
         11    1    3    3    0    0 -0.79027761016E+01 -0.27914709242E+01  0.38422176207E+01  0.92200225889E+01  0.51100000000E-03 0. -1.
        -11    1    3    3    0    0 -0.15813048176E+02 -0.11329640734E+02  0.24531806033E+02  0.31308509375E+02  0.51100000000E-03 0.  1.
        -12    1    3    3    0    0 -0.42421632615E+01 -0.21896326192E+01  0.29536657032E+01  0.56137849291E+01  0.00000000000E+00 0.  1.
</event>
<event>
 7    1  0.1466590E-008  0.4614232E+02  0.7816164E-02  0.1320468E+00
        -11   -1    0    0    0    0  0.00000000000E+00  0.00000000000E+00  0.45593999997E+02  0.45594000000E+02  0.51100000000E-03 0.  1.
         11   -1    0    0    0    0 -0.00000000000E+00 -0.00000000000E+00 -0.45593999997E+02  0.45594000000E+02  0.51100000000E-03 0. -1.
    9900012    2    1    2    0    0 -0.36444685333E+02  0.26465870845E+02 -0.67535973803E+00  0.46142317417E+02  0.99999968624E+01 0.  0.
         12    1    1    2    0    0  0.36444685333E+02 -0.26465870845E+02  0.67535973803E+00  0.45045682583E+02  0.00000000000E+00 0. -1.
         11    1    3    3    0    0 -0.26874308532E+02  0.18853089892E+02 -0.10250389896E+01  0.32843845127E+02  0.51100000000E-03 0. -1.
        -11    1    3    3    0    0 -0.98163784289E+01  0.67175360765E+01 -0.67724316057E+00  0.11914077176E+02  0.51100000000E-03 0.  1.
         12    1    3    3    0    0  0.24600162819E+00  0.89524487683E+00  0.10269224122E+01  0.13843951138E+01  0.00000000000E+00 0. -1.
</event>
<event>
 7    1  0.1466590E-008  0.4614232E+02  0.7816164E-02  0.1320468E+00
        -11   -1    0    0    0    0  0.00000000000E+00  0.00000000000E+00  0.45593999997E+02  0.45594000000E+02  0.51100000000E-03 0.  1.
         11   -1    0    0    0    0 -0.00000000000E+00 -0.00000000000E+00 -0.45593999997E+02  0.45594000000E+02  0.51100000000E-03 0. -1.
    9900012    2    1    2    0    0  0.37151452144E+02 -0.21915490419E+02  0.12984391544E+02  0.46142317183E+02  0.99999947255E+01 0.  0.
         12    1    1    2    0    0 -0.37151452144E+02  0.21915490419E+02 -0.12984391544E+02  0.45045682817E+02  0.00000000000E+00 0. -1.
         11    1    3    3    0    0  0.68563889220E+01 -0.45239487922E+01  0.46571873842E+00  0.82275801989E+01  0.51100000000E-03 0. -1.
        -11    1    3    3    0    0  0.28845644761E+02 -0.15712025193E+02  0.95473499821E+01  0.34206590729E+02  0.51100000000E-03 0.  1.
        -12    1    3    3    0    0  0.14494184611E+01 -0.16795164337E+01  0.29713228239E+01  0.37081462553E+01  0.00000000000E+00 0.  1.
</event>
<event>
 7    1  0.1466590E-008  0.4614232E+02  0.7816164E-02  0.1320468E+00
        -11   -1    0    0    0    0  0.00000000000E+00  0.00000000000E+00  0.45593999997E+02  0.45594000000E+02  0.51100000000E-03 0. -1.
         11   -1    0    0    0    0 -0.00000000000E+00 -0.00000000000E+00 -0.45593999997E+02  0.45594000000E+02  0.51100000000E-03 0.  1.
    9900012    2    1    2    0    0 -0.37449202499E+02  0.18568218995E+01 -0.24964433449E+02  0.46142317712E+02  0.99999995539E+01 0.  0.
         12    1    1    2    0    0  0.37449202499E+02 -0.18568218995E+01  0.24964433449E+02  0.45045682288E+02  0.00000000000E+00 0. -1.
         11    1    3    3    0    0 -0.12892155277E+02  0.43812530445E+01 -0.60191080080E+01  0.14887333791E+02  0.51100000000E-03 0. -1.
        -11    1    3    3    0    0 -0.17248694194E+02 -0.11906969397E+01 -0.11689947555E+02  0.20870795018E+02  0.51100000000E-03 0.  1.
         12    1    3    3    0    0 -0.73083530280E+01 -0.13337342053E+01 -0.72553778859E+01  0.10384188903E+02  0.00000000000E+00 0. -1.
</event>
<event>
 7    1  0.1466590E-008  0.4614232E+02  0.7816164E-02  0.1320468E+00
        -11   -1    0    0    0    0  0.00000000000E+00  0.00000000000E+00  0.45593999997E+02  0.45594000000E+02  0.51100000000E-03 0. -1.
         11   -1    0    0    0    0 -0.00000000000E+00 -0.00000000000E+00 -0.45593999997E+02  0.45594000000E+02  0.51100000000E-03 0.  1.
    9900012    2    1    2    0    0  0.21620752995E+02  0.32894937627E+02 -0.21899307419E+02  0.46142317110E+02  0.99999940644E+01 0.  0.
         12    1    1    2    0    0 -0.21620752995E+02 -0.32894937627E+02  0.21899307419E+02  0.45045682890E+02  0.00000000000E+00 0. -1.
         11    1    3    3    0    0  0.44231099533E+01  0.13468152971E+02 -0.90216189957E+01  0.16803114464E+02  0.51100000000E-03 0. -1.
        -11    1    3    3    0    0  0.10908291389E+02  0.10371257635E+02 -0.95373374509E+01  0.17818939695E+02  0.51100000000E-03 0.  1.
         12    1    3    3    0    0  0.62893516529E+01  0.90555270212E+01 -0.33403509729E+01  0.11520262951E+02  0.00000000000E+00 0. -1.
</event>
<event>
 7    1  0.1466590E-008  0.4614232E+02  0.7816164E-02  0.1320468E+00
        -11   -1    0    0    0    0  0.00000000000E+00  0.00000000000E+00  0.45593999997E+02  0.45594000000E+02  0.51100000000E-03 0. -1.
         11   -1    0    0    0    0 -0.00000000000E+00 -0.00000000000E+00 -0.45593999997E+02  0.45594000000E+02  0.51100000000E-03 0.  1.
    9900012    2    1    2    0    0 -0.40792883528E+02 -0.18995751103E+02  0.20531818242E+01  0.46142318052E+02  0.10000002655E+02 0.  0.
         12    1    1    2    0    0  0.40792883528E+02  0.18995751103E+02 -0.20531818242E+01  0.45045681948E+02  0.00000000000E+00 0. -1.
         11    1    3    3    0    0 -0.53767238627E+01 -0.31367675873E+01 -0.30587990321E+01  0.69357567843E+01  0.51100000000E-03 0. -1.
        -11    1    3    3    0    0 -0.23344420800E+02 -0.96221858855E+01  0.25346128389E+01  0.25376617312E+02  0.51100000000E-03 0.  1.
         12    1    3    3    0    0 -0.12071738866E+02 -0.62367976304E+01  0.25773680174E+01  0.13829943956E+02  0.00000000000E+00 0. -1.
</event>
<event>
 7    1  0.1466590E-008  0.4614232E+02  0.7816164E-02  0.1320468E+00
        -11   -1    0    0    0    0  0.00000000000E+00  0.00000000000E+00  0.45593999997E+02  0.45594000000E+02  0.51100000000E-03 0.  1.
         11   -1    0    0    0    0 -0.00000000000E+00 -0.00000000000E+00 -0.45593999997E+02  0.45594000000E+02  0.51100000000E-03 0. -1.
    9900012    2    1    2    0    0  0.42733376285E+02 -0.13738708172E+02  0.37709396097E+01  0.46142317227E+02  0.99999951271E+01 0.  0.
         12    1    1    2    0    0 -0.42733376285E+02  0.13738708172E+02 -0.37709396097E+01  0.45045682773E+02  0.00000000000E+00 0. -1.
         11    1    3    3    0    0  0.24724011653E+02 -0.10337947989E+02  0.26029938522E+01  0.26924440534E+02  0.51100000000E-03 0. -1.
        -11    1    3    3    0    0  0.11136685441E+02 -0.11767500458E+01  0.33201780039E+01  0.11680500226E+02  0.51100000000E-03 0.  1.
         12    1    3    3    0    0  0.68726791910E+01 -0.22240101372E+01 -0.21522322464E+01  0.75373764663E+01  0.00000000000E+00 0. -1.
</event>
<event>
 7    1  0.1466590E-008  0.4614232E+02  0.7816164E-02  0.1320468E+00
        -11   -1    0    0    0    0  0.00000000000E+00  0.00000000000E+00  0.45593999997E+02  0.45594000000E+02  0.51100000000E-03 0.  1.
         11   -1    0    0    0    0 -0.00000000000E+00 -0.00000000000E+00 -0.45593999997E+02  0.45594000000E+02  0.51100000000E-03 0. -1.
    9900012    2    1    2    0    0 -0.37878255866E+01 -0.36916604796E+02  0.25532920982E+02  0.46142318895E+02  0.10000010342E+02 0.  0.
         12    1    1    2    0    0  0.37878255866E+01  0.36916604796E+02 -0.25532920982E+02  0.45045681105E+02  0.00000000000E+00 0. -1.
         11    1    3    3    0    0 -0.21868840687E+01 -0.28803321383E+01  0.32284030661E+01  0.48478203118E+01  0.51100000000E-03 0. -1.
        -11    1    3    3    0    0 -0.18325686668E+01 -0.87965187770E+01  0.91791678496E+01  0.12845005768E+02  0.51100000000E-03 0.  1.
        -12    1    3    3    0    0  0.23162714884E+00 -0.25239753880E+02  0.13125350066E+02  0.28449492815E+02  0.00000000000E+00 0.  1.
</event>
<event>
 7    1  0.1466590E-008  0.4614232E+02  0.7816164E-02  0.1320468E+00
        -11   -1    0    0    0    0  0.00000000000E+00  0.00000000000E+00  0.45593999997E+02  0.45594000000E+02  0.51100000000E-03 0. -1.
         11   -1    0    0    0    0 -0.00000000000E+00 -0.00000000000E+00 -0.45593999997E+02  0.45594000000E+02  0.51100000000E-03 0.  1.
    9900012    2    1    2    0    0 -0.22216974053E+02 -0.36833677879E+02  0.13371600608E+02  0.46142318020E+02  0.10000002365E+02 0.  0.
         12    1    1    2    0    0  0.22216974053E+02  0.36833677879E+02 -0.13371600608E+02  0.45045681980E+02  0.00000000000E+00 0. -1.
         11    1    3    3    0    0 -0.87166642355E+01 -0.99820624989E+01  0.24265949605E+01  0.13472571042E+02  0.51100000000E-03 0. -1.
        -11    1    3    3    0    0 -0.12977271365E+02 -0.19681222325E+02  0.79137314596E+01  0.24867392911E+02  0.51100000000E-03 0.  1.
         12    1    3    3    0    0 -0.52303845171E+00 -0.71703930549E+01  0.30312741881E+01  0.78023540671E+01  0.00000000000E+00 0. -1.
</event>
<event>
 7    1  0.1466590E-008  0.4614232E+02  0.7816164E-02  0.1320468E+00
        -11   -1    0    0    0    0  0.00000000000E+00  0.00000000000E+00  0.45593999997E+02  0.45594000000E+02  0.51100000000E-03 0.  1.
         11   -1    0    0    0    0 -0.00000000000E+00 -0.00000000000E+00 -0.45593999997E+02  0.45594000000E+02  0.51100000000E-03 0. -1.
    9900012    2    1    2    0    0  0.32908065035E+01 -0.23231279949E+02  0.38452460445E+02  0.46142317745E+02  0.99999998546E+01 0.  0.
         12    1    1    2    0    0 -0.32908065035E+01  0.23231279949E+02 -0.38452460445E+02  0.45045682255E+02  0.00000000000E+00 0. -1.
         11    1    3    3    0    0  0.49519887776E+01 -0.67887130178E+01  0.15754965363E+02  0.17855748406E+02  0.51100000000E-03 0.  1.
        -11    1    3    3    0    0 -0.43866944985E+00 -0.14226213910E+02  0.17966356795E+02  0.22920898103E+02  0.51100000000E-03 0. -1.
        -12    1    3    3    0    0 -0.12225128243E+01 -0.22163530210E+01  0.47311382871E+01  0.53656712358E+01  0.00000000000E+00 0.  1.
</event>
<event>
 7    1  0.1466590E-008  0.4614232E+02  0.7816164E-02  0.1320468E+00
        -11   -1    0    0    0    0  0.00000000000E+00  0.00000000000E+00  0.45593999997E+02  0.45594000000E+02  0.51100000000E-03 0.  1.
         11   -1    0    0    0    0 -0.00000000000E+00 -0.00000000000E+00 -0.45593999997E+02  0.45594000000E+02  0.51100000000E-03 0. -1.
    9900012    2    1    2    0    0  0.59932317549E+01  0.25395399611E+02  0.36718773461E+02  0.46142317934E+02  0.10000001581E+02 0.  0.
         12    1    1    2    0    0 -0.59932317549E+01 -0.25395399611E+02 -0.36718773461E+02  0.45045682066E+02  0.00000000000E+00 0. -1.
         11    1    3    3    0    0  0.20911012919E+01  0.15016644283E+02  0.22329224154E+02  0.26990119706E+02  0.51100000000E-03 0.  1.
        -11    1    3    3    0    0  0.38708243485E+01  0.47706603883E+01  0.39562752067E+01  0.73071605600E+01  0.51100000000E-03 0. -1.
        -12    1    3    3    0    0  0.31306114466E-01  0.56080949394E+01  0.10433274100E+02  0.11845037669E+02  0.00000000000E+00 0.  1.
</event>
<event>
 7    1  0.1466590E-008  0.4614232E+02  0.7816164E-02  0.1320468E+00
        -11   -1    0    0    0    0  0.00000000000E+00  0.00000000000E+00  0.45593999997E+02  0.45594000000E+02  0.51100000000E-03 0.  1.
         11   -1    0    0    0    0 -0.00000000000E+00 -0.00000000000E+00 -0.45593999997E+02  0.45594000000E+02  0.51100000000E-03 0. -1.
    9900012    2    1    2    0    0 -0.25913448274E+02  0.63825851120E+01  0.36288685438E+02  0.46142324458E+02  0.10000061070E+02 0.  0.
         12    1    1    2    0    0  0.25913448274E+02 -0.63825851120E+01 -0.36288685438E+02  0.45045675542E+02  0.00000000000E+00 0. -1.
         11    1    3    3    0    0 -0.66162161141E+01 -0.65192297739E+00  0.63068564066E+01  0.91638287430E+01  0.51100000000E-03 0. -1.
        -11    1    3    3    0    0 -0.19018353867E+02  0.75064032047E+01  0.30128445968E+02  0.36411085257E+02  0.51100000000E-03 0.  1.
        -12    1    3    3    0    0 -0.27887829248E+00 -0.47189511532E+00 -0.14661693635E+00  0.56741045805E+00  0.00000000000E+00 0.  1.
</event>
<event>
 7    1  0.1466590E-008  0.4614232E+02  0.7816164E-02  0.1320468E+00
        -11   -1    0    0    0    0  0.00000000000E+00  0.00000000000E+00  0.45593999997E+02  0.45594000000E+02  0.51100000000E-03 0.  1.
         11   -1    0    0    0    0 -0.00000000000E+00 -0.00000000000E+00 -0.45593999997E+02  0.45594000000E+02  0.51100000000E-03 0. -1.
    9900012    2    1    2    0    0  0.19404226269E+02 -0.39325889192E+02  0.10298728723E+02  0.46142319062E+02  0.10000011861E+02 0.  0.
         12    1    1    2    0    0 -0.19404226269E+02  0.39325889192E+02 -0.10298728723E+02  0.45045680938E+02  0.00000000000E+00 0. -1.
         11    1    3    3    0    0  0.15245732914E+02 -0.22438220915E+02  0.39596777653E+01  0.27415053860E+02  0.51100000000E-03 0. -1.
        -11    1    3    3    0    0 -0.14161305182E+00 -0.41373996657E+01  0.10640613530E+01  0.42743838239E+01  0.51100000000E-03 0.  1.
         12    1    3    3    0    0  0.43001064074E+01 -0.12750268612E+02  0.52749896044E+01  0.14452881378E+02  0.00000000000E+00 0. -1.
</event>
<event>
 7    1  0.1466590E-008  0.4614232E+02  0.7816164E-02  0.1320468E+00
        -11   -1    0    0    0    0  0.00000000000E+00  0.00000000000E+00  0.45593999997E+02  0.45594000000E+02  0.51100000000E-03 0.  1.
         11   -1    0    0    0    0 -0.00000000000E+00 -0.00000000000E+00 -0.45593999997E+02  0.45594000000E+02  0.51100000000E-03 0. -1.
    9900012    2    1    2    0    0 -0.14724561134E+02 -0.21103215283E+02  0.36972355930E+02  0.46142317644E+02  0.99999989309E+01 0.  0.
         12    1    1    2    0    0  0.14724561134E+02  0.21103215283E+02 -0.36972355930E+02  0.45045682356E+02  0.00000000000E+00 0. -1.
         11    1    3    3    0    0 -0.62976757073E+01 -0.36182850521E+01  0.76026706328E+01  0.10514433273E+02  0.51100000000E-03 0. -1.
        -11    1    3    3    0    0  0.68427996505E+00 -0.81135775070E+00  0.85651416081E+00  0.13638758151E+01  0.51100000000E-03 0.  1.
        -12    1    3    3    0    0 -0.91111653921E+01 -0.16673572480E+02  0.28513171137E+02  0.34264008556E+02  0.00000000000E+00 0.  1.
</event>
<event>
 7    1  0.1466590E-008  0.4614232E+02  0.7816164E-02  0.1320468E+00
        -11   -1    0    0    0    0  0.00000000000E+00  0.00000000000E+00  0.45593999997E+02  0.45594000000E+02  0.51100000000E-03 0.  1.
         11   -1    0    0    0    0 -0.00000000000E+00 -0.00000000000E+00 -0.45593999997E+02  0.45594000000E+02  0.51100000000E-03 0. -1.
    9900012    2    1    2    0    0 -0.13292744071E+01  0.16649062152E+02  0.41834849388E+02  0.46142324688E+02  0.10000063167E+02 0.  0.
         12    1    1    2    0    0  0.13292744071E+01 -0.16649062152E+02 -0.41834849388E+02  0.45045675312E+02  0.00000000000E+00 0. -1.
         11    1    3    3    0    0 -0.23178223374E+01  0.20676497607E+01  0.51350881170E+01  0.60013836864E+01  0.51100000000E-03 0. -1.
        -11    1    3    3    0    0  0.24234637402E+01  0.64016901361E+01  0.24078539737E+02  0.25032596534E+02  0.51100000000E-03 0.  1.
        -12    1    3    3    0    0 -0.14349158099E+01  0.81797222557E+01  0.12621221533E+02  0.15108344468E+02  0.00000000000E+00 0.  1.
</event>
<event>
 7    1  0.1466590E-008  0.4614232E+02  0.7816164E-02  0.1320468E+00
        -11   -1    0    0    0    0  0.00000000000E+00  0.00000000000E+00  0.45593999997E+02  0.45594000000E+02  0.51100000000E-03 0.  1.
         11   -1    0    0    0    0 -0.00000000000E+00 -0.00000000000E+00 -0.45593999997E+02  0.45594000000E+02  0.51100000000E-03 0. -1.
    9900012    2    1    2    0    0 -0.25540188619E+02 -0.51476978855E+01  0.36746612186E+02  0.46142317240E+02  0.99999952461E+01 0.  0.
         12    1    1    2    0    0  0.25540188619E+02  0.51476978855E+01 -0.36746612186E+02  0.45045682760E+02  0.00000000000E+00 0. -1.
         11    1    3    3    0    0 -0.27309931678E+01 -0.30869666466E+01  0.10205964533E+02  0.11006788772E+02  0.51100000000E-03 0. -1.
        -11    1    3    3    0    0 -0.16614019066E+02 -0.47806707940E+00  0.19598853409E+02  0.25697650338E+02  0.51100000000E-03 0.  1.
         12    1    3    3    0    0 -0.61951763846E+01 -0.15826641596E+01  0.69417942440E+01  0.94378781304E+01  0.00000000000E+00 0. -1.
</event>
<event>
 7    1  0.1466590E-008  0.4614232E+02  0.7816164E-02  0.1320468E+00
        -11   -1    0    0    0    0  0.00000000000E+00  0.00000000000E+00  0.45593999997E+02  0.45594000000E+02  0.51100000000E-03 0.  1.
         11   -1    0    0    0    0 -0.00000000000E+00 -0.00000000000E+00 -0.45593999997E+02  0.45594000000E+02  0.51100000000E-03 0. -1.
    9900012    2    1    2    0    0  0.34273690435E+02  0.17908037890E+02  0.23102592579E+02  0.46142318065E+02  0.10000002769E+02 0.  0.
         12    1    1    2    0    0 -0.34273690435E+02 -0.17908037890E+02 -0.23102592579E+02  0.45045681935E+02  0.00000000000E+00 0. -1.
         11    1    3    3    0    0  0.24252069492E+01 -0.60913581833E+00  0.82238283647E+00  0.26322972823E+01  0.51100000000E-03 0. -1.
        -11    1    3    3    0    0  0.11668135700E+02  0.54952068831E+01  0.11108583148E+02  0.17021847996E+02  0.51100000000E-03 0.  1.
        -12    1    3    3    0    0  0.20180347786E+02  0.13021966825E+02  0.11171626595E+02  0.26488172786E+02  0.00000000000E+00 0.  1.
</event>
<event>
 7    1  0.1466590E-008  0.4614232E+02  0.7816164E-02  0.1320468E+00
        -11   -1    0    0    0    0  0.00000000000E+00  0.00000000000E+00  0.45593999997E+02  0.45594000000E+02  0.51100000000E-03 0. -1.
         11   -1    0    0    0    0 -0.00000000000E+00 -0.00000000000E+00 -0.45593999997E+02  0.45594000000E+02  0.51100000000E-03 0.  1.
    9900012    2    1    2    0    0 -0.26717856790E+02  0.85041081190E+01 -0.35255495842E+02  0.46142315263E+02  0.99999772197E+01 0.  0.
         12    1    1    2    0    0  0.26717856790E+02 -0.85041081190E+01  0.35255495842E+02  0.45045684737E+02  0.00000000000E+00 0. -1.
         11    1    3    3    0    0 -0.92456274677E+01  0.31929163450E+01 -0.73235229677E+01  0.12219260656E+02  0.51100000000E-03 0.  1.
        -11    1    3    3    0    0 -0.14013681226E+02  0.20358078266E+01 -0.23382017697E+02  0.27335810338E+02  0.51100000000E-03 0. -1.
         12    1    3    3    0    0 -0.34585480968E+01  0.32753839474E+01 -0.45499551769E+01  0.65872442685E+01  0.00000000000E+00 0. -1.
</event>
<event>
 7    1  0.1466590E-008  0.4614232E+02  0.7816164E-02  0.1320468E+00
        -11   -1    0    0    0    0  0.00000000000E+00  0.00000000000E+00  0.45593999997E+02  0.45594000000E+02  0.51100000000E-03 0.  1.
         11   -1    0    0    0    0 -0.00000000000E+00 -0.00000000000E+00 -0.45593999997E+02  0.45594000000E+02  0.51100000000E-03 0. -1.
    9900012    2    1    2    0    0  0.69263743612E+01 -0.78883282011E+01  0.43805400713E+02  0.46142317463E+02  0.99999972858E+01 0.  0.
         12    1    1    2    0    0 -0.69263743612E+01  0.78883282011E+01 -0.43805400713E+02  0.45045682537E+02  0.00000000000E+00 0. -1.
         11    1    3    3    0    0  0.33826183960E+01 -0.67032639956E+01  0.22505520061E+02  0.23724971842E+02  0.51100000000E-03 0. -1.
        -11    1    3    3    0    0  0.99045888804E+00 -0.32116692354E+01  0.14387864964E+02  0.14775198360E+02  0.51100000000E-03 0.  1.
         12    1    3    3    0    0  0.25532970772E+01  0.20266050299E+01  0.69120156872E+01  0.76421472618E+01  0.00000000000E+00 0. -1.
</event>
<event>
 7    1  0.1466590E-008  0.4614232E+02  0.7816164E-02  0.1320468E+00
        -11   -1    0    0    0    0  0.00000000000E+00  0.00000000000E+00  0.45593999997E+02  0.45594000000E+02  0.51100000000E-03 0. -1.
         11   -1    0    0    0    0 -0.00000000000E+00 -0.00000000000E+00 -0.45593999997E+02  0.45594000000E+02  0.51100000000E-03 0.  1.
    9900012    2    1    2    0    0  0.28992201115E+02 -0.20584111911E+02  0.27656105067E+02  0.46142317231E+02  0.99999951646E+01 0.  0.
         12    1    1    2    0    0 -0.28992201115E+02  0.20584111911E+02 -0.27656105067E+02  0.45045682769E+02  0.00000000000E+00 0. -1.
         11    1    3    3    0    0 -0.19020248512E+00 -0.10177357061E+01  0.61503615359E+00  0.12042560709E+01  0.51100000000E-03 0. -1.
        -11    1    3    3    0    0  0.16279174879E+02 -0.82010225030E+01  0.17521823074E+02  0.25284038224E+02  0.51100000000E-03 0.  1.
        -12    1    3    3    0    0  0.12903228721E+02 -0.11365353702E+02  0.95192458397E+01  0.19654022936E+02  0.00000000000E+00 0.  1.
</event>
<event>
 7    1  0.1466590E-008  0.4614232E+02  0.7816164E-02  0.1320468E+00
        -11   -1    0    0    0    0  0.00000000000E+00  0.00000000000E+00  0.45593999997E+02  0.45594000000E+02  0.51100000000E-03 0.  1.
         11   -1    0    0    0    0 -0.00000000000E+00 -0.00000000000E+00 -0.45593999997E+02  0.45594000000E+02  0.51100000000E-03 0. -1.
    9900012    2    1    2    0    0  0.42577089732E+02  0.14681179006E+02  0.87629118387E+00  0.46142317929E+02  0.10000001528E+02 0.  0.
         12    1    1    2    0    0 -0.42577089732E+02 -0.14681179006E+02 -0.87629118387E+00  0.45045682071E+02  0.00000000000E+00 0. -1.
         11    1    3    3    0    0  0.94715996721E+01  0.90354519990E+00 -0.74283593998E+00  0.95435527856E+01  0.51100000000E-03 0. -1.
        -11    1    3    3    0    0  0.24742063125E+02  0.70153542824E+01 -0.32608198436E-01  0.25717424967E+02  0.51100000000E-03 0.  1.
         12    1    3    3    0    0  0.83634269349E+01  0.67622795241E+01  0.16517353223E+01  0.10881340176E+02  0.00000000000E+00 0. -1.
</event>
<event>
 7    1  0.1466590E-008  0.4614232E+02  0.7816164E-02  0.1320468E+00
        -11   -1    0    0    0    0  0.00000000000E+00  0.00000000000E+00  0.45593999997E+02  0.45594000000E+02  0.51100000000E-03 0.  1.
         11   -1    0    0    0    0 -0.00000000000E+00 -0.00000000000E+00 -0.45593999997E+02  0.45594000000E+02  0.51100000000E-03 0. -1.
    9900012    2    1    2    0    0  0.29979288094E+02  0.23141826405E+02  0.24388759597E+02  0.46142318313E+02  0.10000005031E+02 0.  0.
         12    1    1    2    0    0 -0.29979288094E+02 -0.23141826405E+02 -0.24388759597E+02  0.45045681687E+02  0.00000000000E+00 0. -1.
         11    1    3    3    0    0  0.71933361388E+01  0.32887218703E+01  0.68716535424E+01  0.10477566464E+02  0.51100000000E-03 0. -1.
        -11    1    3    3    0    0  0.21183547155E+02  0.16370845007E+02  0.17193938397E+02  0.31817899902E+02  0.51100000000E-03 0.  1.
        -12    1    3    3    0    0  0.16024048010E+01  0.34822595278E+01  0.32316765675E+00  0.38468519466E+01  0.00000000000E+00 0.  1.
</event>
<event>
 7    1  0.1466590E-008  0.4614232E+02  0.7816164E-02  0.1320468E+00
        -11   -1    0    0    0    0  0.00000000000E+00  0.00000000000E+00  0.45593999997E+02  0.45594000000E+02  0.51100000000E-03 0.  1.
         11   -1    0    0    0    0 -0.00000000000E+00 -0.00000000000E+00 -0.45593999997E+02  0.45594000000E+02  0.51100000000E-03 0. -1.
    9900012    2    1    2    0    0 -0.13413032097E+02 -0.59197040951E+01  0.42592970957E+02  0.46142317615E+02  0.99999986698E+01 0.  0.
         12    1    1    2    0    0  0.13413032097E+02  0.59197040951E+01 -0.42592970957E+02  0.45045682385E+02  0.00000000000E+00 0. -1.
         11    1    3    3    0    0 -0.92514341747E+00 -0.53591998096E+00  0.90880394509E+01  0.91507137367E+01  0.51100000000E-03 0. -1.
        -11    1    3    3    0    0 -0.93808406036E+01 -0.35545256599E+01  0.14402201431E+02  0.17551587661E+02  0.51100000000E-03 0.  1.
        -12    1    3    3    0    0 -0.31070480755E+01 -0.18292584542E+01  0.19102730075E+02  0.19440016218E+02  0.00000000000E+00 0.  1.
</event>
<event>
 7    1  0.1466590E-008  0.4614232E+02  0.7816164E-02  0.1320468E+00
        -11   -1    0    0    0    0  0.00000000000E+00  0.00000000000E+00  0.45593999997E+02  0.45594000000E+02  0.51100000000E-03 0.  1.
         11   -1    0    0    0    0 -0.00000000000E+00 -0.00000000000E+00 -0.45593999997E+02  0.45594000000E+02  0.51100000000E-03 0. -1.
    9900012    2    1    2    0    0  0.15690842208E+02  0.84274658885E+01  0.41374976907E+02  0.46142318469E+02  0.10000006459E+02 0.  0.
         12    1    1    2    0    0 -0.15690842208E+02 -0.84274658885E+01 -0.41374976907E+02  0.45045681531E+02  0.00000000000E+00 0. -1.
         11    1    3    3    0    0  0.32008920139E+01  0.66425868462E+00  0.16903756332E+01  0.36802607689E+01  0.51100000000E-03 0. -1.
        -11    1    3    3    0    0  0.10752510242E+02  0.61086204221E+01  0.36003077740E+02  0.38067746544E+02  0.51100000000E-03 0.  1.
         12    1    3    3    0    0  0.17374399523E+01  0.16545867818E+01  0.36815235342E+01  0.43943111564E+01  0.00000000000E+00 0. -1.
</event>
<event>
 7    1  0.1466590E-008  0.4614231E+02  0.7816164E-02  0.1320468E+00
        -11   -1    0    0    0    0  0.00000000000E+00  0.00000000000E+00  0.45593999997E+02  0.45594000000E+02  0.51100000000E-03 0.  1.
         11   -1    0    0    0    0 -0.00000000000E+00 -0.00000000000E+00 -0.45593999997E+02  0.45594000000E+02  0.51100000000E-03 0. -1.
    9900012    2    1    2    0    0 -0.30212676198E+02  0.20897444070E+02  0.26069239347E+02  0.46142309731E+02  0.99999267760E+01 0.  0.
         12    1    1    2    0    0  0.30212676198E+02 -0.20897444070E+02 -0.26069239347E+02  0.45045690269E+02  0.00000000000E+00 0. -1.
         11    1    3    3    0    0 -0.51234725200E+01  0.54663110498E+01  0.57831403570E+01  0.94644196761E+01  0.51100000000E-03 0. -1.
        -11    1    3    3    0    0 -0.81121518342E+01  0.94521493504E+00  0.43355479233E+01  0.92464812069E+01  0.51100000000E-03 0.  1.
        -12    1    3    3    0    0 -0.16977051843E+02  0.14485918085E+02  0.15950551067E+02  0.27431408848E+02  0.00000000000E+00 0.  1.
</event>
<event>
 7    1  0.1466590E-008  0.4614233E+02  0.7816164E-02  0.1320468E+00
        -11   -1    0    0    0    0  0.00000000000E+00  0.00000000000E+00  0.45593999997E+02  0.45594000000E+02  0.51100000000E-03 0. -1.
         11   -1    0    0    0    0 -0.00000000000E+00 -0.00000000000E+00 -0.45593999997E+02  0.45594000000E+02  0.51100000000E-03 0.  1.
    9900012    2    1    2    0    0  0.31477415090E+02  0.12408023542E+02 -0.29737614187E+02  0.46142329770E+02  0.10000109502E+02 0.  0.
         12    1    1    2    0    0 -0.31477415090E+02 -0.12408023542E+02  0.29737614187E+02  0.45045670230E+02  0.00000000000E+00 0. -1.
         11    1    3    3    0    0  0.19598338871E+02  0.56963563070E+01 -0.20605599226E+02  0.29002311656E+02  0.51100000000E-03 0.  1.
        -11    1    3    3    0    0  0.23097366049E+01  0.51824286634E+00  0.24521286743E+00  0.23798295031E+01  0.51100000000E-03 0. -1.
         12    1    3    3    0    0  0.95693396145E+01  0.61934243685E+01 -0.93772278281E+01  0.14760188610E+02  0.00000000000E+00 0. -1.
</event>
<event>
 7    1  0.1466590E-008  0.4614232E+02  0.7816164E-02  0.1320468E+00
        -11   -1    0    0    0    0  0.00000000000E+00  0.00000000000E+00  0.45593999997E+02  0.45594000000E+02  0.51100000000E-03 0.  1.
         11   -1    0    0    0    0 -0.00000000000E+00 -0.00000000000E+00 -0.45593999997E+02  0.45594000000E+02  0.51100000000E-03 0. -1.
    9900012    2    1    2    0    0 -0.47899137924E+01  0.10047536388E+02  0.43648794492E+02  0.46142317386E+02  0.99999965752E+01 0.  0.
         12    1    1    2    0    0  0.47899137924E+01 -0.10047536388E+02 -0.43648794492E+02  0.45045682614E+02  0.00000000000E+00 0. -1.
         11    1    3    3    0    0 -0.35602625935E+01  0.58530383899E+01  0.14955008506E+02  0.16449492630E+02  0.51100000000E-03 0. -1.
        -11    1    3    3    0    0 -0.98498047617E+00 -0.37551832453E+00  0.56857862573E+00  0.11976988208E+01  0.51100000000E-03 0.  1.
        -12    1    3    3    0    0 -0.24467072274E+00  0.45700163230E+01  0.28125207361E+02  0.28495125935E+02  0.00000000000E+00 0.  1.
</event>
<event>
 7    1  0.1466590E-008  0.4614232E+02  0.7816164E-02  0.1320468E+00
        -11   -1    0    0    0    0  0.00000000000E+00  0.00000000000E+00  0.45593999997E+02  0.45594000000E+02  0.51100000000E-03 0. -1.
         11   -1    0    0    0    0 -0.00000000000E+00 -0.00000000000E+00 -0.45593999997E+02  0.45594000000E+02  0.51100000000E-03 0.  1.
    9900012    2    1    2    0    0 -0.44495201854E+02  0.50002411844E+01  0.49282892718E+01  0.46142318353E+02  0.10000005393E+02 0.  0.
         12    1    1    2    0    0  0.44495201854E+02 -0.50002411844E+01 -0.49282892718E+01  0.45045681647E+02  0.00000000000E+00 0. -1.
         11    1    3    3    0    0 -0.18514880796E+02  0.19436242172E+01  0.56828968947E+01  0.19464680921E+02  0.51100000000E-03 0. -1.
        -11    1    3    3    0    0 -0.24803443330E+02  0.21209119510E+01  0.20349793939E+00  0.24894788214E+02  0.51100000000E-03 0.  1.
         12    1    3    3    0    0 -0.11768777278E+01  0.93570501623E+00 -0.95810556232E+00  0.17828492175E+01  0.00000000000E+00 0. -1.
</event>
<event>
 7    1  0.1466590E-008  0.4614232E+02  0.7816164E-02  0.1320468E+00
        -11   -1    0    0    0    0  0.00000000000E+00  0.00000000000E+00  0.45593999997E+02  0.45594000000E+02  0.51100000000E-03 0.  1.
         11   -1    0    0    0    0 -0.00000000000E+00 -0.00000000000E+00 -0.45593999997E+02  0.45594000000E+02  0.51100000000E-03 0. -1.
    9900012    2    1    2    0    0  0.23691455927E+02 -0.23083232687E+01  0.38242649091E+02  0.46142315969E+02  0.99999836610E+01 0.  0.
         12    1    1    2    0    0 -0.23691455927E+02  0.23083232687E+01 -0.38242649091E+02  0.45045684031E+02  0.00000000000E+00 0. -1.
         11    1    3    3    0    0  0.17616953235E+02 -0.10611979774E+01  0.32750791775E+02  0.37203461460E+02  0.51100000000E-03 0. -1.
        -11    1    3    3    0    0  0.39625854484E+01 -0.19140389647E+01  0.50175154041E+01  0.66739111236E+01  0.51100000000E-03 0.  1.
         12    1    3    3    0    0  0.21119172436E+01  0.66691367334E+00  0.47434191223E+00  0.22649433859E+01  0.00000000000E+00 0. -1.
</event>
<event>
 7    1  0.1466590E-008  0.4614232E+02  0.7816164E-02  0.1320468E+00
        -11   -1    0    0    0    0  0.00000000000E+00  0.00000000000E+00  0.45593999997E+02  0.45594000000E+02  0.51100000000E-03 0.  1.
         11   -1    0    0    0    0 -0.00000000000E+00 -0.00000000000E+00 -0.45593999997E+02  0.45594000000E+02  0.51100000000E-03 0. -1.
    9900012    2    1    2    0    0  0.18405908062E+02 -0.44340361741E+01  0.40873895151E+02  0.46142318374E+02  0.10000005585E+02 0.  0.
         12    1    1    2    0    0 -0.18405908062E+02  0.44340361741E+01 -0.40873895151E+02  0.45045681626E+02  0.00000000000E+00 0. -1.
         11    1    3    3    0    0  0.59009999004E+01 -0.41489779139E+01  0.15828850962E+02  0.17395066559E+02  0.51100000000E-03 0. -1.
        -11    1    3    3    0    0  0.89705629209E+00  0.10559853079E+01  0.35289785103E+00  0.14298084194E+01  0.51100000000E-03 0.  1.
        -12    1    3    3    0    0  0.11607851869E+02 -0.13410435681E+01  0.24692146338E+02  0.27317443395E+02  0.00000000000E+00 0.  1.
</event>
<event>
 7    1  0.1466590E-008  0.4614232E+02  0.7816164E-02  0.1320468E+00
        -11   -1    0    0    0    0  0.00000000000E+00  0.00000000000E+00  0.45593999997E+02  0.45594000000E+02  0.51100000000E-03 0.  1.
         11   -1    0    0    0    0 -0.00000000000E+00 -0.00000000000E+00 -0.45593999997E+02  0.45594000000E+02  0.51100000000E-03 0. -1.
    9900012    2    1    2    0    0  0.17281331535E+02 -0.26598583609E+02  0.31984127386E+02  0.46142317917E+02  0.10000001424E+02 0.  0.
         12    1    1    2    0    0 -0.17281331535E+02  0.26598583609E+02 -0.31984127386E+02  0.45045682083E+02  0.00000000000E+00 0. -1.
         11    1    3    3    0    0  0.11799300495E+02 -0.13865322305E+02  0.17846886042E+02  0.25494744487E+02  0.51100000000E-03 0. -1.
        -11    1    3    3    0    0  0.72645923252E+00 -0.13312999810E+01  0.51547829599E+01  0.53732569528E+01  0.51100000000E-03 0.  1.
         12    1    3    3    0    0  0.47555718075E+01 -0.11401961323E+02  0.89824583844E+01  0.15274316478E+02  0.00000000000E+00 0. -1.
</event>
<event>
 7    1  0.1466590E-008  0.4614232E+02  0.7816164E-02  0.1320468E+00
        -11   -1    0    0    0    0  0.00000000000E+00  0.00000000000E+00  0.45593999997E+02  0.45594000000E+02  0.51100000000E-03 0.  1.
         11   -1    0    0    0    0 -0.00000000000E+00 -0.00000000000E+00 -0.45593999997E+02  0.45594000000E+02  0.51100000000E-03 0. -1.
    9900012    2    1    2    0    0  0.27681428964E+01 -0.38014521838E+02 -0.24007226638E+02  0.46142318559E+02  0.10000007274E+02 0.  0.
         12    1    1    2    0    0 -0.27681428964E+01  0.38014521838E+02  0.24007226638E+02  0.45045681441E+02  0.00000000000E+00 0. -1.
         11    1    3    3    0    0 -0.18761885249E+01 -0.34291898686E+01 -0.34504409832E+01  0.52139207680E+01  0.51100000000E-03 0. -1.
        -11    1    3    3    0    0 -0.40721267180E+00 -0.13571989687E+02 -0.10081176720E+02  0.16911382278E+02  0.51100000000E-03 0.  1.
         12    1    3    3    0    0  0.50515440931E+01 -0.21013342282E+02 -0.10475608935E+02  0.24017015513E+02  0.00000000000E+00 0. -1.
</event>
<event>
 7    1  0.1466590E-008  0.4614232E+02  0.7816164E-02  0.1320468E+00
        -11   -1    0    0    0    0  0.00000000000E+00  0.00000000000E+00  0.45593999997E+02  0.45594000000E+02  0.51100000000E-03 0. -1.
         11   -1    0    0    0    0 -0.00000000000E+00 -0.00000000000E+00 -0.45593999997E+02  0.45594000000E+02  0.51100000000E-03 0.  1.
    9900012    2    1    2    0    0 -0.41133596765E+01  0.28218213336E+02  0.34870133167E+02  0.46142317868E+02  0.10000000970E+02 0.  0.
         12    1    1    2    0    0  0.41133596765E+01 -0.28218213336E+02 -0.34870133167E+02  0.45045682132E+02  0.00000000000E+00 0. -1.
         11    1    3    3    0    0 -0.14173339183E+01  0.15032507391E+02  0.20652321697E+02  0.25583266125E+02  0.51100000000E-03 0. -1.
        -11    1    3    3    0    0  0.71705030810E+00  0.55630800432E+01  0.93180044779E+01  0.10875993215E+02  0.51100000000E-03 0.  1.
        -12    1    3    3    0    0 -0.34130760664E+01  0.76226259019E+01  0.48998069917E+01  0.96830585267E+01  0.00000000000E+00 0.  1.
</event>
<event>
 7    1  0.1466590E-008  0.4614232E+02  0.7816164E-02  0.1320468E+00
        -11   -1    0    0    0    0  0.00000000000E+00  0.00000000000E+00  0.45593999997E+02  0.45594000000E+02  0.51100000000E-03 0.  1.
         11   -1    0    0    0    0 -0.00000000000E+00 -0.00000000000E+00 -0.45593999997E+02  0.45594000000E+02  0.51100000000E-03 0. -1.
    9900012    2    1    2    0    0  0.39152191130E+02  0.21714366870E+02 -0.49704981724E+01  0.46142315957E+02  0.99999835490E+01 0.  0.
         12    1    1    2    0    0 -0.39152191130E+02 -0.21714366870E+02  0.49704981724E+01  0.45045684043E+02  0.00000000000E+00 0. -1.
         11    1    3    3    0    0  0.17087842774E+02  0.97814104366E+01  0.20559445396E+00  0.19690419756E+02  0.51100000000E-03 0. -1.
        -11    1    3    3    0    0  0.18421573499E+02  0.69427668611E+01 -0.30695812138E+01  0.19924324605E+02  0.51100000000E-03 0.  1.
         12    1    3    3    0    0  0.36427748566E+01  0.49901895721E+01 -0.21065114125E+01  0.65275715969E+01  0.00000000000E+00 0. -1.
</event>
<event>
 7    1  0.1466590E-008  0.4614232E+02  0.7816164E-02  0.1320468E+00
        -11   -1    0    0    0    0  0.00000000000E+00  0.00000000000E+00  0.45593999997E+02  0.45594000000E+02  0.51100000000E-03 0. -1.
         11   -1    0    0    0    0 -0.00000000000E+00 -0.00000000000E+00 -0.45593999997E+02  0.45594000000E+02  0.51100000000E-03 0.  1.
    9900012    2    1    2    0    0 -0.33641847428E+02 -0.29904603561E+02 -0.17476506352E+01  0.46142317685E+02  0.99999993020E+01 0.  0.
         12    1    1    2    0    0  0.33641847428E+02  0.29904603561E+02  0.17476506352E+01  0.45045682315E+02  0.00000000000E+00 0. -1.
         11    1    3    3    0    0 -0.72229562490E+01 -0.10953864542E+02 -0.18980103966E+01  0.13257476724E+02  0.51100000000E-03 0. -1.
        -11    1    3    3    0    0 -0.11386741256E+02 -0.52336008864E+01  0.25534599281E+00  0.12534498654E+02  0.51100000000E-03 0.  1.
        -12    1    3    3    0    0 -0.15032149924E+02 -0.13717138133E+02 -0.10498623143E+00  0.20350342306E+02  0.00000000000E+00 0.  1.
</event>
<event>
 7    1  0.1466590E-008  0.4614232E+02  0.7816164E-02  0.1320468E+00
        -11   -1    0    0    0    0  0.00000000000E+00  0.00000000000E+00  0.45593999997E+02  0.45594000000E+02  0.51100000000E-03 0.  1.
         11   -1    0    0    0    0 -0.00000000000E+00 -0.00000000000E+00 -0.45593999997E+02  0.45594000000E+02  0.51100000000E-03 0. -1.
    9900012    2    1    2    0    0  0.31036748587E+02  0.18723752033E+02 -0.26744249181E+02  0.46142317440E+02  0.99999970726E+01 0.  0.
         12    1    1    2    0    0 -0.31036748587E+02 -0.18723752033E+02  0.26744249181E+02  0.45045682560E+02  0.00000000000E+00 0. -1.
         11    1    3    3    0    0  0.72148524746E+01  0.50896083444E+01 -0.93551456152E+01  0.12863784788E+02  0.51100000000E-03 0. -1.
        -11    1    3    3    0    0  0.20699374292E+02  0.11725617100E+02 -0.17631057891E+02  0.29610950594E+02  0.51100000000E-03 0.  1.
         12    1    3    3    0    0  0.31225218202E+01  0.19085265881E+01  0.24195432548E+00  0.36675820578E+01  0.00000000000E+00 0. -1.
</event>
<event>
 7    1  0.1466590E-008  0.4614232E+02  0.7816164E-02  0.1320468E+00
        -11   -1    0    0    0    0  0.00000000000E+00  0.00000000000E+00  0.45593999997E+02  0.45594000000E+02  0.51100000000E-03 0.  1.
         11   -1    0    0    0    0 -0.00000000000E+00 -0.00000000000E+00 -0.45593999997E+02  0.45594000000E+02  0.51100000000E-03 0. -1.
    9900012    2    1    2    0    0 -0.22129277013E+02 -0.28938314203E+02  0.26494952737E+02  0.46142318181E+02  0.10000003827E+02 0.  0.
         12    1    1    2    0    0  0.22129277013E+02  0.28938314203E+02 -0.26494952737E+02  0.45045681819E+02  0.00000000000E+00 0. -1.
         11    1    3    3    0    0 -0.33120526237E+01 -0.84170355414E+01  0.79819149046E+01  0.12063463255E+02  0.51100000000E-03 0. -1.
        -11    1    3    3    0    0 -0.11833347165E+02 -0.10863230220E+02  0.70503790105E+01  0.17542682816E+02  0.51100000000E-03 0.  1.
        -12    1    3    3    0    0 -0.69838772240E+01 -0.96580484420E+01  0.11462658822E+02  0.16536172110E+02  0.00000000000E+00 0.  1.
</event>
<event>
 7    1  0.1466590E-008  0.4614231E+02  0.7816164E-02  0.1320468E+00
        -11   -1    0    0    0    0  0.00000000000E+00  0.00000000000E+00  0.45593999997E+02  0.45594000000E+02  0.51100000000E-03 0.  1.
         11   -1    0    0    0    0 -0.00000000000E+00 -0.00000000000E+00 -0.45593999997E+02  0.45594000000E+02  0.51100000000E-03 0. -1.
    9900012    2    1    2    0    0 -0.50054439467E+00  0.45013919137E+02 -0.16156591859E+01  0.46142314131E+02  0.99999669016E+01 0.  0.
         12    1    1    2    0    0  0.50054439467E+00 -0.45013919137E+02  0.16156591859E+01  0.45045685869E+02  0.00000000000E+00 0. -1.
         11    1    3    3    0    0  0.27179937523E+01  0.12947396643E+02 -0.30989317769E+01  0.13587713137E+02  0.51100000000E-03 0. -1.
        -11    1    3    3    0    0 -0.11468622965E+01  0.22076491242E+02 -0.71527985156E+00  0.22117829554E+02  0.51100000000E-03 0.  1.
         12    1    3    3    0    0 -0.20716758505E+01  0.99900312524E+01  0.21985524426E+01  0.10436771440E+02  0.00000000000E+00 0. -1.
</event>
<event>
 7    1  0.1466590E-008  0.4614232E+02  0.7816164E-02  0.1320468E+00
        -11   -1    0    0    0    0  0.00000000000E+00  0.00000000000E+00  0.45593999997E+02  0.45594000000E+02  0.51100000000E-03 0. -1.
         11   -1    0    0    0    0 -0.00000000000E+00 -0.00000000000E+00 -0.45593999997E+02  0.45594000000E+02  0.51100000000E-03 0.  1.
    9900012    2    1    2    0    0  0.28567417671E+02  0.34226030317E+02  0.64494183469E+01  0.46142317624E+02  0.99999987511E+01 0.  0.
         12    1    1    2    0    0 -0.28567417671E+02 -0.34226030317E+02 -0.64494183469E+01  0.45045682376E+02  0.00000000000E+00 0. -1.
         11    1    3    3    0    0  0.28376850369E+01  0.61073758865E+01  0.31251948963E+01  0.74242400277E+01  0.51100000000E-03 0. -1.
        -11    1    3    3    0    0  0.40552933815E+01  0.80623720722E+01  0.13075794376E+01  0.91190466655E+01  0.51100000000E-03 0.  1.
        -12    1    3    3    0    0  0.21674439253E+02  0.20056282359E+02  0.20166440131E+01  0.29599030931E+02  0.00000000000E+00 0.  1.
</event>
<event>
 7    1  0.1466590E-008  0.4614232E+02  0.7816164E-02  0.1320468E+00
        -11   -1    0    0    0    0  0.00000000000E+00  0.00000000000E+00  0.45593999997E+02  0.45594000000E+02  0.51100000000E-03 0. -1.
         11   -1    0    0    0    0 -0.00000000000E+00 -0.00000000000E+00 -0.45593999997E+02  0.45594000000E+02  0.51100000000E-03 0.  1.
    9900012    2    1    2    0    0  0.39696332480E+02  0.10262949903E+02 -0.18654397451E+02  0.46142317661E+02  0.99999990903E+01 0.  0.
         12    1    1    2    0    0 -0.39696332480E+02 -0.10262949903E+02  0.18654397451E+02  0.45045682339E+02  0.00000000000E+00 0. -1.
         11    1    3    3    0    0  0.12653013759E+02 -0.12756676575E+01 -0.60936671837E+01  0.14101732701E+02  0.51100000000E-03 0. -1.
        -11    1    3    3    0    0  0.14261649107E+02  0.71863605399E+01 -0.65562053939E+01  0.17263320726E+02  0.51100000000E-03 0.  1.
         12    1    3    3    0    0  0.12781669614E+02  0.43522570209E+01 -0.60045248729E+01  0.14777264234E+02  0.00000000000E+00 0. -1.
</event>
<event>
 7    1  0.1466590E-008  0.4614232E+02  0.7816164E-02  0.1320468E+00
        -11   -1    0    0    0    0  0.00000000000E+00  0.00000000000E+00  0.45593999997E+02  0.45594000000E+02  0.51100000000E-03 0.  1.
         11   -1    0    0    0    0 -0.00000000000E+00 -0.00000000000E+00 -0.45593999997E+02  0.45594000000E+02  0.51100000000E-03 0. -1.
    9900012    2    1    2    0    0  0.32548928317E+02 -0.11380867924E+02  0.28985454692E+02  0.46142317932E+02  0.10000001555E+02 0.  0.
         12    1    1    2    0    0 -0.32548928317E+02  0.11380867924E+02 -0.28985454692E+02  0.45045682068E+02  0.00000000000E+00 0. -1.
         11    1    3    3    0    0  0.78159104891E+01 -0.42975090558E+01  0.39236854139E+01  0.97443495599E+01  0.51100000000E-03 0. -1.
        -11    1    3    3    0    0  0.23022668256E+02 -0.52869370007E+01  0.20836708724E+02  0.31498625164E+02  0.51100000000E-03 0.  1.
         12    1    3    3    0    0  0.17103495716E+01 -0.17964218674E+01  0.42250605545E+01  0.48993432082E+01  0.00000000000E+00 0. -1.
</event>
<event>
 7    1  0.1466590E-008  0.4614232E+02  0.7816164E-02  0.1320468E+00
        -11   -1    0    0    0    0  0.00000000000E+00  0.00000000000E+00  0.45593999997E+02  0.45594000000E+02  0.51100000000E-03 0.  1.
         11   -1    0    0    0    0 -0.00000000000E+00 -0.00000000000E+00 -0.45593999997E+02  0.45594000000E+02  0.51100000000E-03 0. -1.
    9900012    2    1    2    0    0 -0.81828154606E+01 -0.44248107911E+02 -0.20639749996E+01  0.46142317461E+02  0.99999972649E+01 0.  0.
         12    1    1    2    0    0  0.81828154606E+01  0.44248107911E+02  0.20639749996E+01  0.45045682539E+02  0.00000000000E+00 0. -1.
         11    1    3    3    0    0  0.32805960203E+00 -0.33167402780E+01  0.15803843060E+01  0.36886317233E+01  0.51100000000E-03 0. -1.
        -11    1    3    3    0    0 -0.77115275429E+01 -0.39119051599E+02 -0.20737418228E+01  0.39925784406E+02  0.51100000000E-03 0.  1.
         12    1    3    3    0    0 -0.79934751977E+00 -0.18123160346E+01 -0.15706174828E+01  0.25279013319E+01  0.00000000000E+00 0. -1.
</event>
<event>
 7    1  0.1466590E-008  0.4614232E+02  0.7816164E-02  0.1320468E+00
        -11   -1    0    0    0    0  0.00000000000E+00  0.00000000000E+00  0.45593999997E+02  0.45594000000E+02  0.51100000000E-03 0.  1.
         11   -1    0    0    0    0 -0.00000000000E+00 -0.00000000000E+00 -0.45593999997E+02  0.45594000000E+02  0.51100000000E-03 0. -1.
    9900012    2    1    2    0    0 -0.12566051816E+02 -0.18111037090E+02  0.39283560240E+02  0.46142318432E+02  0.10000006122E+02 0.  0.
         12    1    1    2    0    0  0.12566051816E+02  0.18111037090E+02 -0.39283560240E+02  0.45045681568E+02  0.00000000000E+00 0. -1.
         11    1    3    3    0    0 -0.19097007830E+01  0.86461567993E-01  0.67827780893E+01  0.70470214667E+01  0.51100000000E-03 0. -1.
        -11    1    3    3    0    0 -0.69876440620E+00 -0.38953941251E+01  0.36172939477E+01  0.53616399404E+01  0.51100000000E-03 0.  1.
        -12    1    3    3    0    0 -0.99575866267E+01 -0.14302104533E+02  0.28883488203E+02  0.33733657025E+02  0.00000000000E+00 0.  1.
</event>
<event>
 7    1  0.1466590E-008  0.4614232E+02  0.7816164E-02  0.1320468E+00
        -11   -1    0    0    0    0  0.00000000000E+00  0.00000000000E+00  0.45593999997E+02  0.45594000000E+02  0.51100000000E-03 0. -1.
         11   -1    0    0    0    0 -0.00000000000E+00 -0.00000000000E+00 -0.45593999997E+02  0.45594000000E+02  0.51100000000E-03 0.  1.
    9900012    2    1    2    0    0 -0.18304131536E+02  0.25122266213E+02 -0.32602820494E+02  0.46142318796E+02  0.10000009440E+02 0.  0.
         12    1    1    2    0    0  0.18304131536E+02 -0.25122266213E+02  0.32602820494E+02  0.45045681204E+02  0.00000000000E+00 0. -1.
         11    1    3    3    0    0 -0.79495500888E-01  0.46676554919E+01 -0.73526390735E+01  0.87094562937E+01  0.51100000000E-03 0. -1.
        -11    1    3    3    0    0 -0.12087746677E+02  0.11477770125E+02 -0.13778269735E+02  0.21626223524E+02  0.51100000000E-03 0.  1.
        -12    1    3    3    0    0 -0.61368893588E+01  0.89768405964E+01 -0.11471911685E+02  0.15806638978E+02  0.00000000000E+00 0.  1.
</event>
<event>
 7    1  0.1466590E-008  0.4614232E+02  0.7816164E-02  0.1320468E+00
        -11   -1    0    0    0    0  0.00000000000E+00  0.00000000000E+00  0.45593999997E+02  0.45594000000E+02  0.51100000000E-03 0.  1.
         11   -1    0    0    0    0 -0.00000000000E+00 -0.00000000000E+00 -0.45593999997E+02  0.45594000000E+02  0.51100000000E-03 0. -1.
    9900012    2    1    2    0    0 -0.17145805003E+01 -0.25660857974E+02  0.36982347884E+02  0.46142317928E+02  0.10000001523E+02 0.  0.
         12    1    1    2    0    0  0.17145805003E+01  0.25660857974E+02 -0.36982347884E+02  0.45045682072E+02  0.00000000000E+00 0. -1.
         11    1    3    3    0    0 -0.14624876182E+01 -0.11051822607E+02  0.14015822116E+02  0.17908794566E+02  0.51100000000E-03 0. -1.
        -11    1    3    3    0    0 -0.31788814879E+01 -0.11537881182E+02  0.18808467811E+02  0.22293192938E+02  0.51100000000E-03 0.  1.
         12    1    3    3    0    0  0.29267886058E+01 -0.30711541852E+01  0.41580579573E+01  0.59403304242E+01  0.00000000000E+00 0. -1.
</event>
<event>
 7    1  0.1466590E-008  0.4614232E+02  0.7816164E-02  0.1320468E+00
        -11   -1    0    0    0    0  0.00000000000E+00  0.00000000000E+00  0.45593999997E+02  0.45594000000E+02  0.51100000000E-03 0.  1.
         11   -1    0    0    0    0 -0.00000000000E+00 -0.00000000000E+00 -0.45593999997E+02  0.45594000000E+02  0.51100000000E-03 0. -1.
    9900012    2    1    2    0    0 -0.23357559659E+02  0.28852675364E+02  0.25515898225E+02  0.46142317287E+02  0.99999956733E+01 0.  0.
         12    1    1    2    0    0  0.23357559659E+02 -0.28852675364E+02 -0.25515898225E+02  0.45045682713E+02  0.00000000000E+00 0. -1.
         11    1    3    3    0    0 -0.17477023333E+02  0.16164948730E+02  0.16860415687E+02  0.29172341857E+02  0.51100000000E-03 0. -1.
        -11    1    3    3    0    0 -0.44796680347E+01  0.11466128300E+02  0.87592212953E+01  0.15108391107E+02  0.51100000000E-03 0.  1.
         12    1    3    3    0    0 -0.14008682909E+01  0.12215983345E+01 -0.10373875726E+00  0.18615843223E+01  0.00000000000E+00 0. -1.
</event>
<event>
 7    1  0.1466590E-008  0.4614232E+02  0.7816164E-02  0.1320468E+00
        -11   -1    0    0    0    0  0.00000000000E+00  0.00000000000E+00  0.45593999997E+02  0.45594000000E+02  0.51100000000E-03 0. -1.
         11   -1    0    0    0    0 -0.00000000000E+00 -0.00000000000E+00 -0.45593999997E+02  0.45594000000E+02  0.51100000000E-03 0.  1.
    9900012    2    1    2    0    0 -0.96343610570E+01 -0.43952109788E+02 -0.21224023548E+01  0.46142318081E+02  0.10000002921E+02 0.  0.
         12    1    1    2    0    0  0.96343610570E+01  0.43952109788E+02  0.21224023548E+01  0.45045681919E+02  0.00000000000E+00 0. -1.
         11    1    3    3    0    0 -0.40794066894E+01 -0.18231765736E+02  0.31409432077E+01  0.18944771449E+02  0.51100000000E-03 0. -1.
        -11    1    3    3    0    0 -0.39587198381E+01 -0.24001784291E+02 -0.45690012479E+01  0.24751421870E+02  0.51100000000E-03 0.  1.
         12    1    3    3    0    0 -0.15962345294E+01 -0.17185597604E+01 -0.69434431470E+00  0.24461247618E+01  0.00000000000E+00 0. -1.
</event>
<event>
 7    1  0.1466590E-008  0.4614232E+02  0.7816164E-02  0.1320468E+00
        -11   -1    0    0    0    0  0.00000000000E+00  0.00000000000E+00  0.45593999997E+02  0.45594000000E+02  0.51100000000E-03 0.  1.
         11   -1    0    0    0    0 -0.00000000000E+00 -0.00000000000E+00 -0.45593999997E+02  0.45594000000E+02  0.51100000000E-03 0. -1.
    9900012    2    1    2    0    0 -0.42779624347E+02 -0.12070096998E+01  0.14055617273E+02  0.46142317536E+02  0.99999979478E+01 0.  0.
         12    1    1    2    0    0  0.42779624347E+02  0.12070096998E+01 -0.14055617273E+02  0.45045682464E+02  0.00000000000E+00 0. -1.
         11    1    3    3    0    0 -0.51556374817E+01 -0.33592843841E+01  0.14651903728E+01  0.63255175682E+01  0.51100000000E-03 0. -1.
        -11    1    3    3    0    0 -0.15285198226E+02 -0.35858457852E+00  0.47815207940E+01  0.16019638232E+02  0.51100000000E-03 0.  1.
         12    1    3    3    0    0 -0.22338788639E+02  0.25108592627E+01  0.78089061059E+01  0.23797161736E+02  0.00000000000E+00 0. -1.
</event>
<event>
 7    1  0.1466590E-008  0.4614232E+02  0.7816164E-02  0.1320468E+00
        -11   -1    0    0    0    0  0.00000000000E+00  0.00000000000E+00  0.45593999997E+02  0.45594000000E+02  0.51100000000E-03 0.  1.
         11   -1    0    0    0    0 -0.00000000000E+00 -0.00000000000E+00 -0.45593999997E+02  0.45594000000E+02  0.51100000000E-03 0. -1.
    9900012    2    1    2    0    0 -0.15400172387E+02 -0.34024659259E+01  0.42194447359E+02  0.46142317944E+02  0.10000001671E+02 0.  0.
         12    1    1    2    0    0  0.15400172387E+02  0.34024659259E+01 -0.42194447359E+02  0.45045682056E+02  0.00000000000E+00 0. -1.
         11    1    3    3    0    0 -0.69155853859E+01  0.24395420645E+01  0.18194644507E+02  0.19616874769E+02  0.51100000000E-03 0. -1.
        -11    1    3    3    0    0 -0.77788233908E+01 -0.55577279051E+01  0.17159762565E+02  0.19643214715E+02  0.51100000000E-03 0.  1.
         12    1    3    3    0    0 -0.70576361045E+00 -0.28428008530E+00  0.68400402877E+01  0.68822284602E+01  0.00000000000E+00 0. -1.
</event>
<event>
 7    1  0.1466590E-008  0.4614232E+02  0.7816164E-02  0.1320468E+00
        -11   -1    0    0    0    0  0.00000000000E+00  0.00000000000E+00  0.45593999997E+02  0.45594000000E+02  0.51100000000E-03 0.  1.
         11   -1    0    0    0    0 -0.00000000000E+00 -0.00000000000E+00 -0.45593999997E+02  0.45594000000E+02  0.51100000000E-03 0. -1.
    9900012    2    1    2    0    0  0.36618744345E+02  0.32852200180E+01  0.26026689645E+02  0.46142315613E+02  0.99999804151E+01 0.  0.
         12    1    1    2    0    0 -0.36618744345E+02 -0.32852200180E+01 -0.26026689645E+02  0.45045684387E+02  0.00000000000E+00 0. -1.
         11    1    3    3    0    0  0.15669145700E+02 -0.32630674922E+01  0.10456676023E+02  0.19118363166E+02  0.51100000000E-03 0. -1.
        -11    1    3    3    0    0  0.98583430503E+01  0.35018058404E+01  0.88479604656E+01  0.13701677872E+02  0.51100000000E-03 0.  1.
         12    1    3    3    0    0  0.11091255595E+02  0.30464816698E+01  0.67220531562E+01  0.13322274576E+02  0.00000000000E+00 0. -1.
</event>
<event>
 7    1  0.1466590E-008  0.4614232E+02  0.7816164E-02  0.1320468E+00
        -11   -1    0    0    0    0  0.00000000000E+00  0.00000000000E+00  0.45593999997E+02  0.45594000000E+02  0.51100000000E-03 0.  1.
         11   -1    0    0    0    0 -0.00000000000E+00 -0.00000000000E+00 -0.45593999997E+02  0.45594000000E+02  0.51100000000E-03 0. -1.
    9900012    2    1    2    0    0 -0.17347602034E+01  0.87484370400E+01  0.44153923532E+02  0.46142317555E+02  0.99999981227E+01 0.  0.
         12    1    1    2    0    0  0.17347602034E+01 -0.87484370400E+01 -0.44153923532E+02  0.45045682445E+02  0.00000000000E+00 0. -1.
         11    1    3    3    0    0  0.78333327324E+00  0.49721801347E+01  0.87325519928E+01  0.10079367583E+02  0.51100000000E-03 0. -1.
        -11    1    3    3    0    0 -0.34114946099E+00  0.33637340990E+01  0.10227883929E+02  0.10772218898E+02  0.51100000000E-03 0.  1.
         12    1    3    3    0    0 -0.21769440157E+01  0.41252280625E+00  0.25193487610E+02  0.25290731074E+02  0.00000000000E+00 0. -1.
</event>
<event>
 7    1  0.1466590E-008  0.4614232E+02  0.7816164E-02  0.1320468E+00
        -11   -1    0    0    0    0  0.00000000000E+00  0.00000000000E+00  0.45593999997E+02  0.45594000000E+02  0.51100000000E-03 0.  1.
         11   -1    0    0    0    0 -0.00000000000E+00 -0.00000000000E+00 -0.45593999997E+02  0.45594000000E+02  0.51100000000E-03 0. -1.
    9900012    2    1    2    0    0 -0.24680172297E+02  0.31868666538E+02  0.20109467894E+02  0.46142317516E+02  0.99999977624E+01 0.  0.
         12    1    1    2    0    0  0.24680172297E+02 -0.31868666538E+02 -0.20109467894E+02  0.45045682484E+02  0.00000000000E+00 0. -1.
         11    1    3    3    0    0 -0.19035073629E+02  0.19398667708E+02  0.16234273214E+02  0.31657447212E+02  0.51100000000E-03 0. -1.
        -11    1    3    3    0    0 -0.24143280784E+01  0.40605835397E+01  0.12216166986E+00  0.47257002114E+01  0.51100000000E-03 0.  1.
         12    1    3    3    0    0 -0.32307705890E+01  0.84094152900E+01  0.37530330097E+01  0.97591700923E+01  0.00000000000E+00 0. -1.
</event>
<event>
 7    1  0.1466590E-008  0.4614232E+02  0.7816164E-02  0.1320468E+00
        -11   -1    0    0    0    0  0.00000000000E+00  0.00000000000E+00  0.45593999997E+02  0.45594000000E+02  0.51100000000E-03 0.  1.
         11   -1    0    0    0    0 -0.00000000000E+00 -0.00000000000E+00 -0.45593999997E+02  0.45594000000E+02  0.51100000000E-03 0. -1.
    9900012    2    1    2    0    0  0.25350482802E+02 -0.22688083541E+02  0.29524856301E+02  0.46142320378E+02  0.10000023858E+02 0.  0.
         12    1    1    2    0    0 -0.25350482802E+02  0.22688083541E+02 -0.29524856301E+02  0.45045679622E+02  0.00000000000E+00 0. -1.
         11    1    3    3    0    0  0.15931423875E+01 -0.89059629721E+00  0.55503813361E-01  0.18260189938E+01  0.51100000000E-03 0. -1.
        -11    1    3    3    0    0  0.17133655337E+02 -0.11721744799E+02  0.21353871821E+02  0.29781693846E+02  0.51100000000E-03 0.  1.
         12    1    3    3    0    0  0.66236850776E+01 -0.10075742445E+02  0.81154806666E+01  0.14534607538E+02  0.00000000000E+00 0. -1.
</event>
<event>
 7    1  0.1466590E-008  0.4614231E+02  0.7816164E-02  0.1320468E+00
        -11   -1    0    0    0    0  0.00000000000E+00  0.00000000000E+00  0.45593999997E+02  0.45594000000E+02  0.51100000000E-03 0. -1.
         11   -1    0    0    0    0 -0.00000000000E+00 -0.00000000000E+00 -0.45593999997E+02  0.45594000000E+02  0.51100000000E-03 0.  1.
    9900012    2    1    2    0    0 -0.54854832238E+01  0.10337203484E+02 -0.43499029228E+02  0.46142313793E+02  0.99999638198E+01 0.  0.
         12    1    1    2    0    0  0.54854832238E+01 -0.10337203484E+02  0.43499029228E+02  0.45045686207E+02  0.00000000000E+00 0. -1.
         11    1    3    3    0    0 -0.24624531154E+01  0.50883051278E+01 -0.79570879802E+01  0.97606236382E+01  0.51100000000E-03 0. -1.
        -11    1    3    3    0    0 -0.15457043651E+01  0.46949422930E+01 -0.15305677274E+02  0.16084012006E+02  0.51100000000E-03 0.  1.
        -12    1    3    3    0    0 -0.14773257434E+01  0.55395606358E+00 -0.20236263973E+02  0.20297678149E+02  0.00000000000E+00 0.  1.
</event>
<event>
 7    1  0.1466590E-008  0.4614232E+02  0.7816164E-02  0.1320468E+00
        -11   -1    0    0    0    0  0.00000000000E+00  0.00000000000E+00  0.45593999997E+02  0.45594000000E+02  0.51100000000E-03 0.  1.
         11   -1    0    0    0    0 -0.00000000000E+00 -0.00000000000E+00 -0.45593999997E+02  0.45594000000E+02  0.51100000000E-03 0. -1.
    9900012    2    1    2    0    0  0.18051156683E+02  0.21258607079E+02  0.35374295875E+02  0.46142318285E+02  0.10000004776E+02 0.  0.
         12    1    1    2    0    0 -0.18051156683E+02 -0.21258607079E+02 -0.35374295875E+02  0.45045681715E+02  0.00000000000E+00 0. -1.
         11    1    3    3    0    0  0.34144806739E+01  0.58301153745E+01  0.42420467159E+01  0.79777117116E+01  0.51100000000E-03 0. -1.
        -11    1    3    3    0    0  0.84091590881E+01  0.52992895307E+01  0.17031231384E+02  0.19719514923E+02  0.51100000000E-03 0.  1.
        -12    1    3    3    0    0  0.62275169210E+01  0.10129202174E+02  0.14101017775E+02  0.18445091650E+02  0.00000000000E+00 0.  1.
</event>
<event>
 7    1  0.1466590E-008  0.4614232E+02  0.7816164E-02  0.1320468E+00
        -11   -1    0    0    0    0  0.00000000000E+00  0.00000000000E+00  0.45593999997E+02  0.45594000000E+02  0.51100000000E-03 0.  1.
         11   -1    0    0    0    0 -0.00000000000E+00 -0.00000000000E+00 -0.45593999997E+02  0.45594000000E+02  0.51100000000E-03 0. -1.
    9900012    2    1    2    0    0 -0.93814014774E+01  0.36601757339E+01  0.43905647792E+02  0.46142317764E+02  0.10000000023E+02 0.  0.
         12    1    1    2    0    0  0.93814014774E+01 -0.36601757339E+01 -0.43905647792E+02  0.45045682236E+02  0.00000000000E+00 0. -1.
         11    1    3    3    0    0 -0.60203068323E+01  0.26638630100E+01  0.15595633987E+02  0.16928203101E+02  0.51100000000E-03 0. -1.
        -11    1    3    3    0    0  0.14330588544E+01  0.48101768571E+00  0.14655631867E+02  0.14733383229E+02  0.51100000000E-03 0.  1.
        -12    1    3    3    0    0 -0.47941534995E+01  0.51529503818E+00  0.13654381938E+02  0.14480731433E+02  0.00000000000E+00 0.  1.
</event>
<event>
 7    1  0.1466590E-008  0.4614232E+02  0.7816164E-02  0.1320468E+00
        -11   -1    0    0    0    0  0.00000000000E+00  0.00000000000E+00  0.45593999997E+02  0.45594000000E+02  0.51100000000E-03 0.  1.
         11   -1    0    0    0    0 -0.00000000000E+00 -0.00000000000E+00 -0.45593999997E+02  0.45594000000E+02  0.51100000000E-03 0. -1.
    9900012    2    1    2    0    0 -0.17323148479E+02  0.29333447725E+02  0.29471526387E+02  0.46142317674E+02  0.99999992056E+01 0.  0.
         12    1    1    2    0    0  0.17323148479E+02 -0.29333447725E+02 -0.29471526387E+02  0.45045682326E+02  0.00000000000E+00 0. -1.
         11    1    3    3    0    0 -0.58673018031E+01  0.36219383760E+01  0.83978290766E+01  0.10865873251E+02  0.51100000000E-03 0. -1.
        -11    1    3    3    0    0 -0.72379020318E+01  0.16356764903E+02  0.11664411577E+02  0.21353910219E+02  0.51100000000E-03 0.  1.
        -12    1    3    3    0    0 -0.42179446436E+01  0.93547444457E+01  0.94092857329E+01  0.13922534204E+02  0.00000000000E+00 0.  1.
</event>
<event>
 7    1  0.1466590E-008  0.4614232E+02  0.7816164E-02  0.1320468E+00
        -11   -1    0    0    0    0  0.00000000000E+00  0.00000000000E+00  0.45593999997E+02  0.45594000000E+02  0.51100000000E-03 0. -1.
         11   -1    0    0    0    0 -0.00000000000E+00 -0.00000000000E+00 -0.45593999997E+02  0.45594000000E+02  0.51100000000E-03 0.  1.
    9900012    2    1    2    0    0  0.23622222638E+02 -0.33071006914E+02 -0.19427107658E+02  0.46142318601E+02  0.10000007663E+02 0.  0.
         12    1    1    2    0    0 -0.23622222638E+02  0.33071006914E+02  0.19427107658E+02  0.45045681399E+02  0.00000000000E+00 0. -1.
         11    1    3    3    0    0  0.10543585179E+02 -0.15098309888E+02 -0.66995545592E+01  0.19596177725E+02  0.51100000000E-03 0. -1.
        -11    1    3    3    0    0 -0.10793059566E+00 -0.42960755362E+01 -0.22925967316E+01  0.48707200762E+01  0.51100000000E-03 0.  1.
        -12    1    3    3    0    0  0.13186568055E+02 -0.13676621490E+02 -0.10434956368E+02  0.21675420800E+02  0.00000000000E+00 0.  1.
</event>
<event>
 7    1  0.1466590E-008  0.4614232E+02  0.7816164E-02  0.1320468E+00
        -11   -1    0    0    0    0  0.00000000000E+00  0.00000000000E+00  0.45593999997E+02  0.45594000000E+02  0.51100000000E-03 0.  1.
         11   -1    0    0    0    0 -0.00000000000E+00 -0.00000000000E+00 -0.45593999997E+02  0.45594000000E+02  0.51100000000E-03 0. -1.
    9900012    2    1    2    0    0 -0.16375809048E+02 -0.36412469885E+02 -0.20858533630E+02  0.46142317518E+02  0.99999977831E+01 0.  0.
         12    1    1    2    0    0  0.16375809048E+02  0.36412469885E+02  0.20858533630E+02  0.45045682482E+02  0.00000000000E+00 0. -1.
         11    1    3    3    0    0 -0.13856458452E+02 -0.26046966107E+02 -0.11622818744E+02  0.31710184484E+02  0.51100000000E-03 0. -1.
        -11    1    3    3    0    0 -0.17386088145E+01 -0.19676982972E+01 -0.17523914670E+01  0.31568137914E+01  0.51100000000E-03 0.  1.
         12    1    3    3    0    0 -0.78074178092E+00 -0.83978054804E+01 -0.74833234193E+01  0.11275319242E+02  0.00000000000E+00 0. -1.
</event>
<event>
 7    1  0.1466590E-008  0.4614232E+02  0.7816164E-02  0.1320468E+00
        -11   -1    0    0    0    0  0.00000000000E+00  0.00000000000E+00  0.45593999997E+02  0.45594000000E+02  0.51100000000E-03 0.  1.
         11   -1    0    0    0    0 -0.00000000000E+00 -0.00000000000E+00 -0.45593999997E+02  0.45594000000E+02  0.51100000000E-03 0. -1.
    9900012    2    1    2    0    0  0.20701214975E+02  0.28813876163E+02  0.27754886574E+02  0.46142317746E+02  0.99999998584E+01 0.  0.
         12    1    1    2    0    0 -0.20701214975E+02 -0.28813876163E+02 -0.27754886574E+02  0.45045682254E+02  0.00000000000E+00 0. -1.
         11    1    3    3    0    0  0.15716436360E+00 -0.31616957107E-01  0.24060758409E+01  0.24114106831E+01  0.51100000000E-03 0. -1.
        -11    1    3    3    0    0  0.12744999880E+02  0.14607932665E+02  0.14421056733E+02  0.24161821045E+02  0.51100000000E-03 0.  1.
        -12    1    3    3    0    0  0.77990507323E+01  0.14237560456E+02  0.10927754000E+02  0.19569086017E+02  0.00000000000E+00 0.  1.
</event>
<event>
 7    1  0.1466590E-008  0.4614232E+02  0.7816164E-02  0.1320468E+00
        -11   -1    0    0    0    0  0.00000000000E+00  0.00000000000E+00  0.45593999997E+02  0.45594000000E+02  0.51100000000E-03 0.  1.
         11   -1    0    0    0    0 -0.00000000000E+00 -0.00000000000E+00 -0.45593999997E+02  0.45594000000E+02  0.51100000000E-03 0. -1.
    9900012    2    1    2    0    0 -0.28684503721E+01 -0.31707975986E+02  0.31866750412E+02  0.46142317294E+02  0.99999957389E+01 0.  0.
         12    1    1    2    0    0  0.28684503721E+01  0.31707975986E+02 -0.31866750412E+02  0.45045682706E+02  0.00000000000E+00 0. -1.
         11    1    3    3    0    0  0.17627827032E+01 -0.16358634369E+01  0.24388020025E+01  0.34250850371E+01  0.51100000000E-03 0. -1.
        -11    1    3    3    0    0 -0.25740785493E+01 -0.20630430461E+02  0.16311012174E+02  0.26425170951E+02  0.51100000000E-03 0.  1.
        -12    1    3    3    0    0 -0.20571545260E+01 -0.94416820881E+01  0.13116936235E+02  0.16292061306E+02  0.00000000000E+00 0.  1.
</event>
<event>
 7    1  0.1466590E-008  0.4614232E+02  0.7816164E-02  0.1320468E+00
        -11   -1    0    0    0    0  0.00000000000E+00  0.00000000000E+00  0.45593999997E+02  0.45594000000E+02  0.51100000000E-03 0. -1.
         11   -1    0    0    0    0 -0.00000000000E+00 -0.00000000000E+00 -0.45593999997E+02  0.45594000000E+02  0.51100000000E-03 0.  1.
    9900012    2    1    2    0    0  0.52386392299E+01 -0.79080668667E+01 -0.44035583535E+02  0.46142317856E+02  0.10000000863E+02 0.  0.
         12    1    1    2    0    0 -0.52386392299E+01  0.79080668667E+01  0.44035583535E+02  0.45045682144E+02  0.00000000000E+00 0. -1.
         11    1    3    3    0    0  0.25220237891E+01 -0.17676789753E+01 -0.33286179436E+01  0.45348639040E+01  0.51100000000E-03 0. -1.
        -11    1    3    3    0    0  0.37454619937E+01 -0.58741163332E+01 -0.38834408880E+02  0.39454341226E+02  0.51100000000E-03 0.  1.
         12    1    3    3    0    0 -0.10288465529E+01 -0.26627155819E+00 -0.18725567114E+01  0.21531127257E+01  0.00000000000E+00 0. -1.
</event>
<event>
 7    1  0.1466590E-008  0.4614232E+02  0.7816164E-02  0.1320468E+00
        -11   -1    0    0    0    0  0.00000000000E+00  0.00000000000E+00  0.45593999997E+02  0.45594000000E+02  0.51100000000E-03 0.  1.
         11   -1    0    0    0    0 -0.00000000000E+00 -0.00000000000E+00 -0.45593999997E+02  0.45594000000E+02  0.51100000000E-03 0. -1.
    9900012    2    1    2    0    0  0.19094328442E+02  0.23443249755E+02  0.33390630013E+02  0.46142317517E+02  0.99999977708E+01 0.  0.
         12    1    1    2    0    0 -0.19094328442E+02 -0.23443249755E+02 -0.33390630013E+02  0.45045682483E+02  0.00000000000E+00 0. -1.
         11    1    3    3    0    0  0.50208910160E+01  0.40468694456E+01  0.98497351564E+01  0.11773010737E+02  0.51100000000E-03 0. -1.
        -11    1    3    3    0    0  0.53320614540E+01  0.54922438432E+01  0.33862099890E+01  0.83703070513E+01  0.51100000000E-03 0.  1.
        -12    1    3    3    0    0  0.87413759718E+01  0.13904136467E+02  0.20154684867E+02  0.25998999728E+02  0.00000000000E+00 0.  1.
</event>
<event>
 7    1  0.1466590E-008  0.4614232E+02  0.7816164E-02  0.1320468E+00
        -11   -1    0    0    0    0  0.00000000000E+00  0.00000000000E+00  0.45593999997E+02  0.45594000000E+02  0.51100000000E-03 0.  1.
         11   -1    0    0    0    0 -0.00000000000E+00 -0.00000000000E+00 -0.45593999997E+02  0.45594000000E+02  0.51100000000E-03 0. -1.
    9900012    2    1    2    0    0 -0.24545922081E+02 -0.37149226572E+02  0.68224662351E+01  0.46142319061E+02  0.10000011856E+02 0.  0.
         12    1    1    2    0    0  0.24545922081E+02  0.37149226572E+02 -0.68224662351E+01  0.45045680939E+02  0.00000000000E+00 0. -1.
         11    1    3    3    0    0 -0.38135438447E+01 -0.10306457114E+02  0.27271643726E+01  0.11322702887E+02  0.51100000000E-03 0. -1.
        -11    1    3    3    0    0 -0.91870569084E+01 -0.67822199509E+01  0.18027492159E+01  0.11560727793E+02  0.51100000000E-03 0.  1.
         12    1    3    3    0    0 -0.11545321328E+02 -0.20060549507E+02  0.22925526466E+01  0.23258888381E+02  0.00000000000E+00 0. -1.
</event>
<event>
 7    1  0.1466590E-008  0.4614232E+02  0.7816164E-02  0.1320468E+00
        -11   -1    0    0    0    0  0.00000000000E+00  0.00000000000E+00  0.45593999997E+02  0.45594000000E+02  0.51100000000E-03 0.  1.
         11   -1    0    0    0    0 -0.00000000000E+00 -0.00000000000E+00 -0.45593999997E+02  0.45594000000E+02  0.51100000000E-03 0. -1.
    9900012    2    1    2    0    0  0.79247928469E+01  0.23771061125E+02  0.37433243721E+02  0.46142318474E+02  0.10000006501E+02 0.  0.
         12    1    1    2    0    0 -0.79247928469E+01 -0.23771061125E+02 -0.37433243721E+02  0.45045681526E+02  0.00000000000E+00 0. -1.
         11    1    3    3    0    0 -0.32614631585E+00  0.11240571536E+02  0.15750591519E+02  0.19352983060E+02  0.51100000000E-03 0. -1.
        -11    1    3    3    0    0  0.84400392364E+01  0.97198902638E+01  0.16987726209E+02  0.21314158934E+02  0.51100000000E-03 0.  1.
        -12    1    3    3    0    0 -0.18910007369E+00  0.28105993253E+01  0.46949259932E+01  0.54751764800E+01  0.00000000000E+00 0.  1.
</event>
<event>
 7    1  0.1466590E-008  0.4614232E+02  0.7816164E-02  0.1320468E+00
        -11   -1    0    0    0    0  0.00000000000E+00  0.00000000000E+00  0.45593999997E+02  0.45594000000E+02  0.51100000000E-03 0. -1.
         11   -1    0    0    0    0 -0.00000000000E+00 -0.00000000000E+00 -0.45593999997E+02  0.45594000000E+02  0.51100000000E-03 0.  1.
    9900012    2    1    2    0    0  0.33987694491E+02  0.22916958361E+02 -0.18675203138E+02  0.46142316860E+02  0.99999917842E+01 0.  0.
         12    1    1    2    0    0 -0.33987694491E+02 -0.22916958361E+02  0.18675203138E+02  0.45045683140E+02  0.00000000000E+00 0. -1.
         11    1    3    3    0    0  0.18546931671E+01  0.89730898031E+00  0.71279322070E+00  0.21801661833E+01  0.51100000000E-03 0. -1.
        -11    1    3    3    0    0  0.23454946847E+02  0.16826102508E+02 -0.17242178253E+02  0.33623577566E+02  0.51100000000E-03 0.  1.
        -12    1    3    3    0    0  0.86780544767E+01  0.51935468728E+01 -0.21458181056E+01  0.10338573111E+02  0.00000000000E+00 0.  1.
</event>
<event>
 7    1  0.1466590E-008  0.4614232E+02  0.7816164E-02  0.1320468E+00
        -11   -1    0    0    0    0  0.00000000000E+00  0.00000000000E+00  0.45593999997E+02  0.45594000000E+02  0.51100000000E-03 0.  1.
         11   -1    0    0    0    0 -0.00000000000E+00 -0.00000000000E+00 -0.45593999997E+02  0.45594000000E+02  0.51100000000E-03 0. -1.
    9900012    2    1    2    0    0  0.15799294408E+02  0.14265216799E+02  0.39698858117E+02  0.46142318188E+02  0.10000003891E+02 0.  0.
         12    1    1    2    0    0 -0.15799294408E+02 -0.14265216799E+02 -0.39698858117E+02  0.45045681812E+02  0.00000000000E+00 0. -1.
         11    1    3    3    0    0  0.28433294549E+01 -0.94914878134E+00  0.64149145041E+01  0.70807156526E+01  0.51100000000E-03 0. -1.
        -11    1    3    3    0    0  0.16924090067E+01  0.45713237714E+01  0.94424248709E+01  0.10626412234E+02  0.51100000000E-03 0.  1.
         12    1    3    3    0    0  0.11263555947E+02  0.10643041809E+02  0.23841518742E+02  0.28435190301E+02  0.00000000000E+00 0. -1.
</event>
<event>
 7    1  0.1466590E-008  0.4614232E+02  0.7816164E-02  0.1320468E+00
        -11   -1    0    0    0    0  0.00000000000E+00  0.00000000000E+00  0.45593999997E+02  0.45594000000E+02  0.51100000000E-03 0.  1.
         11   -1    0    0    0    0 -0.00000000000E+00 -0.00000000000E+00 -0.45593999997E+02  0.45594000000E+02  0.51100000000E-03 0. -1.
    9900012    2    1    2    0    0  0.14908024478E+02 -0.82754436416E+00  0.42499167508E+02  0.46142320270E+02  0.10000022874E+02 0.  0.
         12    1    1    2    0    0 -0.14908024478E+02  0.82754436416E+00 -0.42499167508E+02  0.45045679730E+02  0.00000000000E+00 0. -1.
         11    1    3    3    0    0  0.20294571764E+01 -0.15384704570E+01  0.18775216575E+02  0.18947146104E+02  0.51100000000E-03 0. -1.
        -11    1    3    3    0    0  0.95271838638E+01 -0.25310279390E+00  0.19600956021E+02  0.21795154751E+02  0.51100000000E-03 0.  1.
         12    1    3    3    0    0  0.33513834378E+01  0.96402888675E+00  0.41229949119E+01  0.54000194152E+01  0.00000000000E+00 0. -1.
</event>
<event>
 7    1  0.1466590E-008  0.4614232E+02  0.7816164E-02  0.1320468E+00
        -11   -1    0    0    0    0  0.00000000000E+00  0.00000000000E+00  0.45593999997E+02  0.45594000000E+02  0.51100000000E-03 0.  1.
         11   -1    0    0    0    0 -0.00000000000E+00 -0.00000000000E+00 -0.45593999997E+02  0.45594000000E+02  0.51100000000E-03 0. -1.
    9900012    2    1    2    0    0 -0.16973396530E+02 -0.30208622207E+02  0.28782918319E+02  0.46142318382E+02  0.10000005664E+02 0.  0.
         12    1    1    2    0    0  0.16973396530E+02  0.30208622207E+02 -0.28782918319E+02  0.45045681618E+02  0.00000000000E+00 0. -1.
         11    1    3    3    0    0 -0.24634552252E+01 -0.11805244208E+01  0.65914912481E+00  0.28101116321E+01  0.51100000000E-03 0. -1.
        -11    1    3    3    0    0 -0.62159201484E+01 -0.15408834332E+02  0.17725993954E+02  0.24295693048E+02  0.51100000000E-03 0.  1.
         12    1    3    3    0    0 -0.82940211561E+01 -0.13619263454E+02  0.10397775241E+02  0.19036513702E+02  0.00000000000E+00 0. -1.
</event>
<event>
 7    1  0.1466590E-008  0.4614232E+02  0.7816164E-02  0.1320468E+00
        -11   -1    0    0    0    0  0.00000000000E+00  0.00000000000E+00  0.45593999997E+02  0.45594000000E+02  0.51100000000E-03 0.  1.
         11   -1    0    0    0    0 -0.00000000000E+00 -0.00000000000E+00 -0.45593999997E+02  0.45594000000E+02  0.51100000000E-03 0. -1.
    9900012    2    1    2    0    0 -0.68419361762E+01 -0.11357258873E+02  0.43050133860E+02  0.46142318242E+02  0.10000004381E+02 0.  0.
         12    1    1    2    0    0  0.68419361762E+01  0.11357258873E+02 -0.43050133860E+02  0.45045681758E+02  0.00000000000E+00 0. -1.
         11    1    3    3    0    0 -0.10212479922E+01 -0.24778653566E+01  0.21889495981E+02  0.22052954422E+02  0.51100000000E-03 0. -1.
        -11    1    3    3    0    0 -0.49342728794E+00 -0.44395614407E+01  0.99579075649E+01  0.10913894795E+02  0.51100000000E-03 0.  1.
         12    1    3    3    0    0 -0.53272608961E+01 -0.44398320756E+01  0.11202730314E+02  0.13175469024E+02  0.00000000000E+00 0. -1.
</event>
<event>
 7    1  0.1466590E-008  0.4614232E+02  0.7816164E-02  0.1320468E+00
        -11   -1    0    0    0    0  0.00000000000E+00  0.00000000000E+00  0.45593999997E+02  0.45594000000E+02  0.51100000000E-03 0. -1.
         11   -1    0    0    0    0 -0.00000000000E+00 -0.00000000000E+00 -0.45593999997E+02  0.45594000000E+02  0.51100000000E-03 0.  1.
    9900012    2    1    2    0    0  0.19408147895E+01 -0.44890216040E+02  0.31961336595E+01  0.46142317315E+02  0.99999959343E+01 0.  0.
         12    1    1    2    0    0 -0.19408147895E+01  0.44890216040E+02 -0.31961336595E+01  0.45045682685E+02  0.00000000000E+00 0. -1.
         11    1    3    3    0    0  0.10846732955E+01 -0.20739793014E+02 -0.20615249974E+01  0.20870204024E+02  0.51100000000E-03 0. -1.
        -11    1    3    3    0    0 -0.93842942097E+00 -0.95874399094E+01 -0.14942891915E+00  0.96344165915E+01  0.51100000000E-03 0.  1.
         12    1    3    3    0    0  0.17945709150E+01 -0.14562983117E+02  0.54070875761E+01  0.15637696700E+02  0.00000000000E+00 0. -1.
</event>
<event>
 7    1  0.1466590E-008  0.4614232E+02  0.7816164E-02  0.1320468E+00
        -11   -1    0    0    0    0  0.00000000000E+00  0.00000000000E+00  0.45593999997E+02  0.45594000000E+02  0.51100000000E-03 0. -1.
         11   -1    0    0    0    0 -0.00000000000E+00 -0.00000000000E+00 -0.45593999997E+02  0.45594000000E+02  0.51100000000E-03 0.  1.
    9900012    2    1    2    0    0 -0.98494200027E+01 -0.97670581622E+00 -0.43944835999E+02  0.46142316082E+02  0.99999846904E+01 0.  0.
         12    1    1    2    0    0  0.98494200027E+01  0.97670581622E+00  0.43944835999E+02  0.45045683918E+02  0.00000000000E+00 0. -1.
         11    1    3    3    0    0 -0.91039525043E+00 -0.20444217823E+01 -0.15123893853E+02  0.15288578923E+02  0.51100000000E-03 0. -1.
        -11    1    3    3    0    0 -0.91674642233E+01 -0.23243001874E+00 -0.27489728563E+02  0.28978985502E+02  0.51100000000E-03 0.  1.
        -12    1    3    3    0    0  0.22843947097E+00  0.13001459849E+01 -0.13312135831E+01  0.18747516576E+01  0.00000000000E+00 0.  1.
</event>
<event>
 7    1  0.1466590E-008  0.4614232E+02  0.7816164E-02  0.1320468E+00
        -11   -1    0    0    0    0  0.00000000000E+00  0.00000000000E+00  0.45593999997E+02  0.45594000000E+02  0.51100000000E-03 0.  1.
         11   -1    0    0    0    0 -0.00000000000E+00 -0.00000000000E+00 -0.45593999997E+02  0.45594000000E+02  0.51100000000E-03 0. -1.
    9900012    2    1    2    0    0  0.55221416825E-02  0.23276554018E+02  0.38565729102E+02  0.46142318091E+02  0.10000003009E+02 0.  0.
         12    1    1    2    0    0 -0.55221416825E-02 -0.23276554018E+02 -0.38565729102E+02  0.45045681909E+02  0.00000000000E+00 0. -1.
         11    1    3    3    0    0  0.13780710424E+01  0.16389529291E+02  0.25137236048E+02  0.30039913225E+02  0.51100000000E-03 0. -1.
        -11    1    3    3    0    0 -0.10677314981E+01  0.78113647400E+01  0.11511729811E+02  0.13952684084E+02  0.51100000000E-03 0.  1.
         12    1    3    3    0    0 -0.30481740263E+00 -0.92434001294E+00  0.19167632434E+01  0.21497207818E+01  0.00000000000E+00 0. -1.
</event>
<event>
 7    1  0.1466590E-008  0.4614232E+02  0.7816164E-02  0.1320468E+00
        -11   -1    0    0    0    0  0.00000000000E+00  0.00000000000E+00  0.45593999997E+02  0.45594000000E+02  0.51100000000E-03 0.  1.
         11   -1    0    0    0    0 -0.00000000000E+00 -0.00000000000E+00 -0.45593999997E+02  0.45594000000E+02  0.51100000000E-03 0. -1.
    9900012    2    1    2    0    0 -0.22650987235E+02  0.30643510400E+01  0.38815667376E+02  0.46142317589E+02  0.99999984312E+01 0.  0.
         12    1    1    2    0    0  0.22650987235E+02 -0.30643510400E+01 -0.38815667376E+02  0.45045682411E+02  0.00000000000E+00 0. -1.
         11    1    3    3    0    0 -0.51163583885E+01  0.82337829504E+00  0.17328579003E+02  0.18086866105E+02  0.51100000000E-03 0. -1.
        -11    1    3    3    0    0 -0.11627292754E+02  0.30196443488E+01  0.15480321220E+02  0.19594706788E+02  0.51100000000E-03 0.  1.
         12    1    3    3    0    0 -0.59073360933E+01 -0.77867160383E+00  0.60067671533E+01  0.84607446965E+01  0.00000000000E+00 0. -1.
</event>
<event>
 7    1  0.1466590E-008  0.4614232E+02  0.7816164E-02  0.1320468E+00
        -11   -1    0    0    0    0  0.00000000000E+00  0.00000000000E+00  0.45593999997E+02  0.45594000000E+02  0.51100000000E-03 0. -1.
         11   -1    0    0    0    0 -0.00000000000E+00 -0.00000000000E+00 -0.45593999997E+02  0.45594000000E+02  0.51100000000E-03 0.  1.
    9900012    2    1    2    0    0 -0.44337114771E+02  0.71013451982E+01  0.35923342582E+01  0.46142315242E+02  0.99999770303E+01 0.  0.
         12    1    1    2    0    0  0.44337114771E+02 -0.71013451982E+01 -0.35923342582E+01  0.45045684758E+02  0.00000000000E+00 0. -1.
         11    1    3    3    0    0 -0.10332950941E+02  0.17579387090E+00  0.23897274589E+01  0.10607147412E+02  0.51100000000E-03 0. -1.
        -11    1    3    3    0    0 -0.97028413709E+01  0.45196654327E+01  0.27963340159E+01  0.11063091362E+02  0.51100000000E-03 0.  1.
        -12    1    3    3    0    0 -0.24301322459E+02  0.24058858945E+01 -0.15937272165E+01  0.24472076468E+02  0.00000000000E+00 0.  1.
</event>
<event>
 7    1  0.1466590E-008  0.4614232E+02  0.7816164E-02  0.1320468E+00
        -11   -1    0    0    0    0  0.00000000000E+00  0.00000000000E+00  0.45593999997E+02  0.45594000000E+02  0.51100000000E-03 0.  1.
         11   -1    0    0    0    0 -0.00000000000E+00 -0.00000000000E+00 -0.45593999997E+02  0.45594000000E+02  0.51100000000E-03 0. -1.
    9900012    2    1    2    0    0  0.16559996190E+02  0.96481800786E+01  0.40765086343E+02  0.46142321881E+02  0.10000037569E+02 0.  0.
         12    1    1    2    0    0 -0.16559996190E+02 -0.96481800786E+01 -0.40765086343E+02  0.45045678119E+02  0.00000000000E+00 0. -1.
         11    1    3    3    0    0  0.29399191262E+01  0.58562655592E+01  0.87433701227E+01  0.10926366831E+02  0.51100000000E-03 0. -1.
        -11    1    3    3    0    0  0.60573379859E+01  0.30605877628E+01  0.18502941860E+02  0.19708307859E+02  0.51100000000E-03 0.  1.
         12    1    3    3    0    0  0.75627390784E+01  0.73132675659E+00  0.13518774361E+02  0.15507647191E+02  0.00000000000E+00 0. -1.
</event>
<event>
 7    1  0.1466590E-008  0.4614232E+02  0.7816164E-02  0.1320468E+00
        -11   -1    0    0    0    0  0.00000000000E+00  0.00000000000E+00  0.45593999997E+02  0.45594000000E+02  0.51100000000E-03 0.  1.
         11   -1    0    0    0    0 -0.00000000000E+00 -0.00000000000E+00 -0.45593999997E+02  0.45594000000E+02  0.51100000000E-03 0. -1.
    9900012    2    1    2    0    0  0.28515282772E+02 -0.23670679376E+02  0.25606463647E+02  0.46142318806E+02  0.10000009530E+02 0.  0.
         12    1    1    2    0    0 -0.28515282772E+02  0.23670679376E+02 -0.25606463647E+02  0.45045681194E+02  0.00000000000E+00 0. -1.
         11    1    3    3    0    0  0.63017332648E+01 -0.42053568818E+01  0.79448543732E+01  0.10978049914E+02  0.51100000000E-03 0. -1.
        -11    1    3    3    0    0  0.74504902018E+00 -0.11281312104E+01 -0.66230676526E+00  0.15054662344E+01  0.51100000000E-03 0.  1.
        -12    1    3    3    0    0  0.21468500487E+02 -0.18337191284E+02  0.18323916039E+02  0.33658802658E+02  0.00000000000E+00 0.  1.
</event>
<event>
 7    1  0.1466590E-008  0.4614232E+02  0.7816164E-02  0.1320468E+00
        -11   -1    0    0    0    0  0.00000000000E+00  0.00000000000E+00  0.45593999997E+02  0.45594000000E+02  0.51100000000E-03 0. -1.
         11   -1    0    0    0    0 -0.00000000000E+00 -0.00000000000E+00 -0.45593999997E+02  0.45594000000E+02  0.51100000000E-03 0.  1.
    9900012    2    1    2    0    0 -0.37612464581E+02 -0.15171422204E+02 -0.19602146698E+02  0.46142315426E+02  0.99999787100E+01 0.  0.
         12    1    1    2    0    0  0.37612464581E+02  0.15171422204E+02  0.19602146698E+02  0.45045684574E+02  0.00000000000E+00 0. -1.
         11    1    3    3    0    0 -0.23863931987E-01  0.77631548772E+00 -0.71825109615E-01  0.77999636615E+00  0.51100000000E-03 0. -1.
        -11    1    3    3    0    0 -0.16996010340E+02 -0.56663733955E+01 -0.90581370628E+01  0.20075407897E+02  0.51100000000E-03 0.  1.
         12    1    3    3    0    0 -0.20592590309E+02 -0.10281364297E+02 -0.10472184525E+02  0.25286911163E+02  0.00000000000E+00 0. -1.
</event>
<event>
 7    1  0.1466590E-008  0.4614232E+02  0.7816164E-02  0.1320468E+00
        -11   -1    0    0    0    0  0.00000000000E+00  0.00000000000E+00  0.45593999997E+02  0.45594000000E+02  0.51100000000E-03 0.  1.
         11   -1    0    0    0    0 -0.00000000000E+00 -0.00000000000E+00 -0.45593999997E+02  0.45594000000E+02  0.51100000000E-03 0. -1.
    9900012    2    1    2    0    0  0.14736642998E+02 -0.42529536873E+02  0.17841568798E+01  0.46142319083E+02  0.10000012053E+02 0.  0.
         12    1    1    2    0    0 -0.14736642998E+02  0.42529536873E+02 -0.17841568798E+01  0.45045680917E+02  0.00000000000E+00 0. -1.
         11    1    3    3    0    0  0.11366002014E+01 -0.95704606425E+00  0.18230000972E+01  0.23518347737E+01  0.51100000000E-03 0. -1.
        -11    1    3    3    0    0  0.22092081694E+01 -0.64575662496E+01  0.74784019636E+00  0.68658595837E+01  0.51100000000E-03 0.  1.
         12    1    3    3    0    0  0.11390834627E+02 -0.35114924559E+02 -0.78668341375E+00  0.36924624725E+02  0.00000000000E+00 0. -1.
</event>
<event>
 7    1  0.1466590E-008  0.4614232E+02  0.7816164E-02  0.1320468E+00
        -11   -1    0    0    0    0  0.00000000000E+00  0.00000000000E+00  0.45593999997E+02  0.45594000000E+02  0.51100000000E-03 0.  1.
         11   -1    0    0    0    0 -0.00000000000E+00 -0.00000000000E+00 -0.45593999997E+02  0.45594000000E+02  0.51100000000E-03 0. -1.
    9900012    2    1    2    0    0 -0.14754381709E+02 -0.33573289469E+02  0.26158285484E+02  0.46142318244E+02  0.10000004402E+02 0.  0.
         12    1    1    2    0    0  0.14754381709E+02  0.33573289469E+02 -0.26158285484E+02  0.45045681756E+02  0.00000000000E+00 0. -1.
         11    1    3    3    0    0  0.58995080676E+00 -0.75409815697E+00  0.10415978353E+00  0.96309683125E+00  0.51100000000E-03 0. -1.
        -11    1    3    3    0    0 -0.12644580093E+02 -0.19174902592E+02  0.15304411399E+02  0.27600494627E+02  0.51100000000E-03 0.  1.
        -12    1    3    3    0    0 -0.26997524231E+01 -0.13644288720E+02  0.10749714302E+02  0.17578726786E+02  0.00000000000E+00 0.  1.
</event>
<event>
 7    1  0.1466590E-008  0.4614232E+02  0.7816164E-02  0.1320468E+00
        -11   -1    0    0    0    0  0.00000000000E+00  0.00000000000E+00  0.45593999997E+02  0.45594000000E+02  0.51100000000E-03 0.  1.
         11   -1    0    0    0    0 -0.00000000000E+00 -0.00000000000E+00 -0.45593999997E+02  0.45594000000E+02  0.51100000000E-03 0. -1.
    9900012    2    1    2    0    0 -0.23319871500E+02  0.93787200985E+00  0.38528139280E+02  0.46142317331E+02  0.99999960818E+01 0.  0.
         12    1    1    2    0    0  0.23319871500E+02 -0.93787200985E+00 -0.38528139280E+02  0.45045682669E+02  0.00000000000E+00 0. -1.
         11    1    3    3    0    0 -0.32576884523E+01  0.25468228778E+01  0.61968035752E+01  0.74497795695E+01  0.51100000000E-03 0. -1.
        -11    1    3    3    0    0 -0.47187274023E+01 -0.25293112610E+01  0.12526238308E+02  0.13622424534E+02  0.51100000000E-03 0.  1.
         12    1    3    3    0    0 -0.15343455646E+02  0.92036039306E+00  0.19805097396E+02  0.25070113228E+02  0.00000000000E+00 0. -1.
</event>
<event>
 7    1  0.1466590E-008  0.4614232E+02  0.7816164E-02  0.1320468E+00
        -11   -1    0    0    0    0  0.00000000000E+00  0.00000000000E+00  0.45593999997E+02  0.45594000000E+02  0.51100000000E-03 0. -1.
         11   -1    0    0    0    0 -0.00000000000E+00 -0.00000000000E+00 -0.45593999997E+02  0.45594000000E+02  0.51100000000E-03 0.  1.
    9900012    2    1    2    0    0  0.15755759754E+01  0.32286880091E+02 -0.31371775693E+02  0.46142319011E+02  0.10000011396E+02 0.  0.
         12    1    1    2    0    0 -0.15755759754E+01 -0.32286880091E+02  0.31371775693E+02  0.45045680989E+02  0.00000000000E+00 0. -1.
         11    1    3    3    0    0 -0.20705428476E+01  0.66309218568E+01 -0.58754291885E+01  0.90981833771E+01  0.51100000000E-03 0. -1.
        -11    1    3    3    0    0  0.58760700991E+00  0.22392272970E+02 -0.21374261691E+02  0.30961560585E+02  0.51100000000E-03 0.  1.
        -12    1    3    3    0    0  0.30585118131E+01  0.32636852641E+01 -0.41220848135E+01  0.60825750488E+01  0.00000000000E+00 0.  1.
</event>
<event>
 7    1  0.1466590E-008  0.4614232E+02  0.7816164E-02  0.1320468E+00
        -11   -1    0    0    0    0  0.00000000000E+00  0.00000000000E+00  0.45593999997E+02  0.45594000000E+02  0.51100000000E-03 0. -1.
         11   -1    0    0    0    0 -0.00000000000E+00 -0.00000000000E+00 -0.45593999997E+02  0.45594000000E+02  0.51100000000E-03 0.  1.
    9900012    2    1    2    0    0 -0.35859233517E+02 -0.25124377599E+02  0.10582747371E+02  0.46142317409E+02  0.99999967881E+01 0.  0.
         12    1    1    2    0    0  0.35859233517E+02  0.25124377599E+02 -0.10582747371E+02  0.45045682591E+02  0.00000000000E+00 0. -1.
         11    1    3    3    0    0 -0.11125483530E+02 -0.85797146834E+01  0.76686379100E+01  0.16006120563E+02  0.51100000000E-03 0. -1.
        -11    1    3    3    0    0 -0.17099885713E+02 -0.97532390981E+01  0.30317968810E+01  0.19917920496E+02  0.51100000000E-03 0.  1.
         12    1    3    3    0    0 -0.76338642737E+01 -0.67914238179E+01 -0.11768742031E+00  0.10218276349E+02  0.00000000000E+00 0. -1.
</event>
<event>
 7    1  0.1466590E-008  0.4614232E+02  0.7816164E-02  0.1320468E+00
        -11   -1    0    0    0    0  0.00000000000E+00  0.00000000000E+00  0.45593999997E+02  0.45594000000E+02  0.51100000000E-03 0. -1.
         11   -1    0    0    0    0 -0.00000000000E+00 -0.00000000000E+00 -0.45593999997E+02  0.45594000000E+02  0.51100000000E-03 0.  1.
    9900012    2    1    2    0    0  0.15127393176E+02 -0.19124454989E+02 -0.37875198420E+02  0.46142318096E+02  0.10000003049E+02 0.  0.
         12    1    1    2    0    0 -0.15127393176E+02  0.19124454989E+02  0.37875198420E+02  0.45045681904E+02  0.00000000000E+00 0. -1.
         11    1    3    3    0    0  0.45620836260E+00 -0.32613541182E+00 -0.28763844138E+01  0.29305422594E+01  0.51100000000E-03 0. -1.
        -11    1    3    3    0    0  0.31544453763E+00  0.82987343273E+00 -0.22717404921E+01  0.24390572555E+01  0.51100000000E-03 0.  1.
        -12    1    3    3    0    0  0.14355740276E+02 -0.19628193010E+02 -0.32727073514E+02  0.40772718581E+02  0.00000000000E+00 0.  1.
</event>
<event>
 7    1  0.1466590E-008  0.4614232E+02  0.7816164E-02  0.1320468E+00
        -11   -1    0    0    0    0  0.00000000000E+00  0.00000000000E+00  0.45593999997E+02  0.45594000000E+02  0.51100000000E-03 0. -1.
         11   -1    0    0    0    0 -0.00000000000E+00 -0.00000000000E+00 -0.45593999997E+02  0.45594000000E+02  0.51100000000E-03 0.  1.
    9900012    2    1    2    0    0 -0.29056746957E+02  0.30670538576E+02 -0.15624881801E+02  0.46142318614E+02  0.10000007774E+02 0.  0.
         12    1    1    2    0    0  0.29056746957E+02 -0.30670538576E+02  0.15624881801E+02  0.45045681386E+02  0.00000000000E+00 0. -1.
         11    1    3    3    0    0 -0.71725531765E+01  0.13158981913E+02 -0.30337953090E+01  0.15290789329E+02  0.51100000000E-03 0. -1.
        -11    1    3    3    0    0 -0.11691944341E+02  0.86935340610E+01 -0.51287182998E+01  0.15446127301E+02  0.51100000000E-03 0.  1.
         12    1    3    3    0    0 -0.10192249439E+02  0.88180226019E+01 -0.74623681917E+01  0.15405401983E+02  0.00000000000E+00 0. -1.
</event>
<event>
 7    1  0.1466590E-008  0.4614232E+02  0.7816164E-02  0.1320468E+00
        -11   -1    0    0    0    0  0.00000000000E+00  0.00000000000E+00  0.45593999997E+02  0.45594000000E+02  0.51100000000E-03 0. -1.
         11   -1    0    0    0    0 -0.00000000000E+00 -0.00000000000E+00 -0.45593999997E+02  0.45594000000E+02  0.51100000000E-03 0.  1.
    9900012    2    1    2    0    0 -0.23543691984E+02 -0.28206721131E+02 -0.26061253138E+02  0.46142318028E+02  0.10000002435E+02 0.  0.
         12    1    1    2    0    0  0.23543691984E+02  0.28206721131E+02  0.26061253138E+02  0.45045681972E+02  0.00000000000E+00 0. -1.
         11    1    3    3    0    0 -0.13170074084E+02 -0.10179580158E+02 -0.93406663010E+01  0.19087240522E+02  0.51100000000E-03 0.  1.
        -11    1    3    3    0    0 -0.44960499233E+01 -0.11870348910E+02 -0.89665619722E+01  0.15540877775E+02  0.51100000000E-03 0. -1.
         12    1    3    3    0    0 -0.58775679769E+01 -0.61567920634E+01 -0.77540248648E+01  0.11514199731E+02  0.00000000000E+00 0. -1.
</event>
<event>
 7    1  0.1466590E-008  0.4614232E+02  0.7816164E-02  0.1320468E+00
        -11   -1    0    0    0    0  0.00000000000E+00  0.00000000000E+00  0.45593999997E+02  0.45594000000E+02  0.51100000000E-03 0. -1.
         11   -1    0    0    0    0 -0.00000000000E+00 -0.00000000000E+00 -0.45593999997E+02  0.45594000000E+02  0.51100000000E-03 0.  1.
    9900012    2    1    2    0    0  0.78143938053E+01  0.36879187425E+02  0.24657134226E+02  0.46142317811E+02  0.10000000454E+02 0.  0.
         12    1    1    2    0    0 -0.78143938053E+01 -0.36879187425E+02 -0.24657134226E+02  0.45045682189E+02  0.00000000000E+00 0. -1.
         11    1    3    3    0    0  0.43549307022E+01  0.52021269566E+01  0.28290808256E+01  0.73505948653E+01  0.51100000000E-03 0. -1.
        -11    1    3    3    0    0  0.38449449547E+01  0.30769530899E+02  0.20649918146E+02  0.37255425821E+02  0.51100000000E-03 0.  1.
        -12    1    3    3    0    0 -0.38548185167E+00  0.90752956972E+00  0.11781352540E+01  0.15362971244E+01  0.00000000000E+00 0.  1.
</event>
<event>
 7    1  0.1466590E-008  0.4614232E+02  0.7816164E-02  0.1320468E+00
        -11   -1    0    0    0    0  0.00000000000E+00  0.00000000000E+00  0.45593999997E+02  0.45594000000E+02  0.51100000000E-03 0. -1.
         11   -1    0    0    0    0 -0.00000000000E+00 -0.00000000000E+00 -0.45593999997E+02  0.45594000000E+02  0.51100000000E-03 0.  1.
    9900012    2    1    2    0    0 -0.30831988492E+02  0.27663844446E+02 -0.17697841936E+02  0.46142318596E+02  0.10000007616E+02 0.  0.
         12    1    1    2    0    0  0.30831988492E+02 -0.27663844446E+02  0.17697841936E+02  0.45045681404E+02  0.00000000000E+00 0. -1.
         11    1    3    3    0    0 -0.32890754403E+00  0.40034611687E-01 -0.14495335589E+01  0.14869198843E+01  0.51100000000E-03 0. -1.
        -11    1    3    3    0    0 -0.82877197086E+01  0.11360559801E+02 -0.55230726807E+01  0.15108042529E+02  0.51100000000E-03 0.  1.
        -12    1    3    3    0    0 -0.22215361240E+02  0.16263250033E+02 -0.10725235696E+02  0.29547356183E+02  0.00000000000E+00 0.  1.
</event>
<event>
 7    1  0.1466590E-008  0.4614232E+02  0.7816164E-02  0.1320468E+00
        -11   -1    0    0    0    0  0.00000000000E+00  0.00000000000E+00  0.45593999997E+02  0.45594000000E+02  0.51100000000E-03 0. -1.
         11   -1    0    0    0    0 -0.00000000000E+00 -0.00000000000E+00 -0.45593999997E+02  0.45594000000E+02  0.51100000000E-03 0.  1.
    9900012    2    1    2    0    0  0.26886759841E+02  0.14692044891E+02 -0.33020591691E+02  0.46142317483E+02  0.99999974658E+01 0.  0.
         12    1    1    2    0    0 -0.26886759841E+02 -0.14692044891E+02  0.33020591691E+02  0.45045682517E+02  0.00000000000E+00 0. -1.
         11    1    3    3    0    0  0.73044008620E+01  0.21213619658E+01 -0.70290599249E+01  0.10356743322E+02  0.51100000000E-03 0. -1.
        -11    1    3    3    0    0  0.60207677636E+01  0.73055280133E+01 -0.14164268645E+02  0.17036633779E+02  0.51100000000E-03 0.  1.
        -12    1    3    3    0    0  0.13561591215E+02  0.52651549116E+01 -0.11827263120E+02  0.18748940382E+02  0.00000000000E+00 0.  1.
</event>
<event>
 7    1  0.1466590E-008  0.4614231E+02  0.7816164E-02  0.1320468E+00
        -11   -1    0    0    0    0  0.00000000000E+00  0.00000000000E+00  0.45593999997E+02  0.45594000000E+02  0.51100000000E-03 0.  1.
         11   -1    0    0    0    0 -0.00000000000E+00 -0.00000000000E+00 -0.45593999997E+02  0.45594000000E+02  0.51100000000E-03 0. -1.
    9900012    2    1    2    0    0 -0.24438064188E+02 -0.25977691666E+02  0.27514631368E+02  0.46142307810E+02  0.99999092575E+01 0.  0.
         12    1    1    2    0    0  0.24438064188E+02  0.25977691666E+02 -0.27514631368E+02  0.45045692190E+02  0.00000000000E+00 0. -1.
         11    1    3    3    0    0 -0.16538844440E+01  0.25584976702E+00  0.35571562507E+00  0.17109432266E+01  0.51100000000E-03 0. -1.
        -11    1    3    3    0    0 -0.10871168309E+02 -0.14727351561E+02  0.11369172860E+02  0.21548440226E+02  0.51100000000E-03 0.  1.
        -12    1    3    3    0    0 -0.11913011436E+02 -0.11506189872E+02  0.15789742883E+02  0.22882924358E+02  0.00000000000E+00 0.  1.
</event>
<event>
 7    1  0.1466590E-008  0.4614232E+02  0.7816164E-02  0.1320468E+00
        -11   -1    0    0    0    0  0.00000000000E+00  0.00000000000E+00  0.45593999997E+02  0.45594000000E+02  0.51100000000E-03 0. -1.
         11   -1    0    0    0    0 -0.00000000000E+00 -0.00000000000E+00 -0.45593999997E+02  0.45594000000E+02  0.51100000000E-03 0.  1.
    9900012    2    1    2    0    0 -0.41769422152E+02 -0.14232346484E+02  0.90481569795E+01  0.46142318097E+02  0.10000003066E+02 0.  0.
         12    1    1    2    0    0  0.41769422152E+02  0.14232346484E+02 -0.90481569795E+01  0.45045681903E+02  0.00000000000E+00 0. -1.
         11    1    3    3    0    0 -0.16479067976E+02 -0.31200729412E+01 -0.61166292802E+00  0.16782987467E+02  0.51100000000E-03 0. -1.
        -11    1    3    3    0    0 -0.14134643646E+02 -0.57862144029E+01  0.41623954350E+01  0.15830159952E+02  0.51100000000E-03 0.  1.
        -12    1    3    3    0    0 -0.11155710531E+02 -0.53260591403E+01  0.54974244725E+01  0.13529170678E+02  0.00000000000E+00 0.  1.
</event>
<event>
 7    1  0.1466590E-008  0.4614232E+02  0.7816164E-02  0.1320468E+00
        -11   -1    0    0    0    0  0.00000000000E+00  0.00000000000E+00  0.45593999997E+02  0.45594000000E+02  0.51100000000E-03 0. -1.
         11   -1    0    0    0    0 -0.00000000000E+00 -0.00000000000E+00 -0.45593999997E+02  0.45594000000E+02  0.51100000000E-03 0.  1.
    9900012    2    1    2    0    0  0.29243596753E+02 -0.18853547031E+02 -0.28608901608E+02  0.46142318321E+02  0.10000005102E+02 0.  0.
         12    1    1    2    0    0 -0.29243596753E+02  0.18853547031E+02  0.28608901608E+02  0.45045681679E+02  0.00000000000E+00 0. -1.
         11    1    3    3    0    0  0.19784699719E+01  0.53787990553E+00 -0.36198684684E+01  0.41601810312E+01  0.51100000000E-03 0. -1.
        -11    1    3    3    0    0  0.40315600770E+01 -0.47013528357E+01 -0.37025582278E+01  0.72156172869E+01  0.51100000000E-03 0.  1.
        -12    1    3    3    0    0  0.23233566704E+02 -0.14690074101E+02 -0.21286474912E+02  0.34766520003E+02  0.00000000000E+00 0.  1.
</event>
<event>
 7    1  0.1466590E-008  0.4614232E+02  0.7816164E-02  0.1320468E+00
        -11   -1    0    0    0    0  0.00000000000E+00  0.00000000000E+00  0.45593999997E+02  0.45594000000E+02  0.51100000000E-03 0.  1.
         11   -1    0    0    0    0 -0.00000000000E+00 -0.00000000000E+00 -0.45593999997E+02  0.45594000000E+02  0.51100000000E-03 0. -1.
    9900012    2    1    2    0    0  0.12091274781E+02 -0.37601819065E+02  0.21656814884E+02  0.46142319255E+02  0.10000013627E+02 0.  0.
         12    1    1    2    0    0 -0.12091274781E+02  0.37601819065E+02 -0.21656814884E+02  0.45045680745E+02  0.00000000000E+00 0. -1.
         11    1    3    3    0    0  0.10148921635E+02 -0.23247265118E+02  0.14918551830E+02  0.29427863238E+02  0.51100000000E-03 0.  1.
        -11    1    3    3    0    0  0.21207564807E-01 -0.31943070777E+01 -0.55849729808E+00  0.32428331688E+01  0.51100000000E-03 0. -1.
        -12    1    3    3    0    0  0.19211455810E+01 -0.11160246870E+02  0.72967603524E+01  0.13471622849E+02  0.00000000000E+00 0.  1.
</event>
<event>
 7    1  0.1466590E-008  0.4614232E+02  0.7816164E-02  0.1320468E+00
        -11   -1    0    0    0    0  0.00000000000E+00  0.00000000000E+00  0.45593999997E+02  0.45594000000E+02  0.51100000000E-03 0.  1.
         11   -1    0    0    0    0 -0.00000000000E+00 -0.00000000000E+00 -0.45593999997E+02  0.45594000000E+02  0.51100000000E-03 0. -1.
    9900012    2    1    2    0    0  0.40121066393E+02  0.14613432709E+02 -0.14347861841E+02  0.46142317371E+02  0.99999964466E+01 0.  0.
         12    1    1    2    0    0 -0.40121066393E+02 -0.14613432709E+02  0.14347861841E+02  0.45045682629E+02  0.00000000000E+00 0. -1.
         11    1    3    3    0    0  0.84981044726E+01  0.27202623889E+01 -0.56294977713E+01  0.10550301062E+02  0.51100000000E-03 0. -1.
        -11    1    3    3    0    0  0.17147592152E+01  0.27356086621E+01 -0.86039659786E+00  0.33412926368E+01  0.51100000000E-03 0.  1.
         12    1    3    3    0    0  0.29908202705E+02  0.91575616583E+01 -0.78579674720E+01  0.32250723672E+02  0.00000000000E+00 0. -1.
</event>
<event>
 7    1  0.1466590E-008  0.4614232E+02  0.7816164E-02  0.1320468E+00
        -11   -1    0    0    0    0  0.00000000000E+00  0.00000000000E+00  0.45593999997E+02  0.45594000000E+02  0.51100000000E-03 0. -1.
         11   -1    0    0    0    0 -0.00000000000E+00 -0.00000000000E+00 -0.45593999997E+02  0.45594000000E+02  0.51100000000E-03 0.  1.
    9900012    2    1    2    0    0 -0.21893054750E+02 -0.36727764585E+02 -0.14173175054E+02  0.46142318423E+02  0.10000006032E+02 0.  0.
         12    1    1    2    0    0  0.21893054750E+02  0.36727764585E+02  0.14173175054E+02  0.45045681577E+02  0.00000000000E+00 0. -1.
         11    1    3    3    0    0 -0.15314770656E+02 -0.19340203524E+02 -0.10442548989E+02  0.26788663689E+02  0.51100000000E-03 0. -1.
        -11    1    3    3    0    0 -0.62399895437E+01 -0.11443738586E+02 -0.24062570733E+01  0.13254685801E+02  0.51100000000E-03 0.  1.
         12    1    3    3    0    0 -0.33829455063E+00 -0.59438224744E+01 -0.13243689910E+01  0.60989689321E+01  0.00000000000E+00 0. -1.
</event>
<event>
 7    1  0.1466590E-008  0.4614232E+02  0.7816164E-02  0.1320468E+00
        -11   -1    0    0    0    0  0.00000000000E+00  0.00000000000E+00  0.45593999997E+02  0.45594000000E+02  0.51100000000E-03 0. -1.
         11   -1    0    0    0    0 -0.00000000000E+00 -0.00000000000E+00 -0.45593999997E+02  0.45594000000E+02  0.51100000000E-03 0.  1.
    9900012    2    1    2    0    0  0.29116655147E+02  0.12011116955E+02 -0.32203524399E+02  0.46142317397E+02  0.99999966775E+01 0.  0.
         12    1    1    2    0    0 -0.29116655147E+02 -0.12011116955E+02  0.32203524399E+02  0.45045682603E+02  0.00000000000E+00 0. -1.
         11    1    3    3    0    0  0.11263926640E+01  0.17099798063E+01 -0.51988048274E+01  0.55875185249E+01  0.51100000000E-03 0. -1.
        -11    1    3    3    0    0  0.14648378261E+02  0.55939609716E+01 -0.17571181397E+02  0.23550239934E+02  0.51100000000E-03 0.  1.
        -12    1    3    3    0    0  0.13341884222E+02  0.47071761771E+01 -0.94335381753E+01  0.17004558938E+02  0.00000000000E+00 0.  1.
</event>
<event>
 7    1  0.1466590E-008  0.4614232E+02  0.7816164E-02  0.1320468E+00
        -11   -1    0    0    0    0  0.00000000000E+00  0.00000000000E+00  0.45593999997E+02  0.45594000000E+02  0.51100000000E-03 0.  1.
         11   -1    0    0    0    0 -0.00000000000E+00 -0.00000000000E+00 -0.45593999997E+02  0.45594000000E+02  0.51100000000E-03 0. -1.
    9900012    2    1    2    0    0 -0.31749809636E+02 -0.10686793180E+02  0.30114040330E+02  0.46142318904E+02  0.10000010426E+02 0.  0.
         12    1    1    2    0    0  0.31749809636E+02  0.10686793180E+02 -0.30114040330E+02  0.45045681096E+02  0.00000000000E+00 0. -1.
         11    1    3    3    0    0 -0.37556364090E+01  0.15300064194E+01  0.22578932869E+01  0.46415306566E+01  0.51100000000E-03 0. -1.
        -11    1    3    3    0    0 -0.26683994463E+02 -0.11484566316E+02  0.27396228273E+02  0.39930992322E+02  0.51100000000E-03 0.  1.
        -12    1    3    3    0    0 -0.13101787638E+01 -0.73223328317E+00  0.45991876975E+00  0.15697959258E+01  0.00000000000E+00 0.  1.
</event>
<event>
 7    1  0.1466590E-008  0.4614232E+02  0.7816164E-02  0.1320468E+00
        -11   -1    0    0    0    0  0.00000000000E+00  0.00000000000E+00  0.45593999997E+02  0.45594000000E+02  0.51100000000E-03 0. -1.
         11   -1    0    0    0    0 -0.00000000000E+00 -0.00000000000E+00 -0.45593999997E+02  0.45594000000E+02  0.51100000000E-03 0.  1.
    9900012    2    1    2    0    0 -0.33814979479E+02 -0.24036300770E+02  0.17547561347E+02  0.46142317620E+02  0.99999987134E+01 0.  0.
         12    1    1    2    0    0  0.33814979479E+02  0.24036300770E+02 -0.17547561347E+02  0.45045682380E+02  0.00000000000E+00 0. -1.
         11    1    3    3    0    0 -0.73404457189E+00 -0.66870756952E-01  0.14021848293E+01  0.15841135339E+01  0.51100000000E-03 0. -1.
        -11    1    3    3    0    0 -0.23008542288E+02 -0.12697394768E+02  0.11958238024E+02  0.28872414326E+02  0.51100000000E-03 0.  1.
         12    1    3    3    0    0 -0.10072392619E+02 -0.11272035245E+02  0.41871384937E+01  0.15685789760E+02  0.00000000000E+00 0. -1.
</event>
<event>
 7    1  0.1466590E-008  0.4614232E+02  0.7816164E-02  0.1320468E+00
        -11   -1    0    0    0    0  0.00000000000E+00  0.00000000000E+00  0.45593999997E+02  0.45594000000E+02  0.51100000000E-03 0.  1.
         11   -1    0    0    0    0 -0.00000000000E+00 -0.00000000000E+00 -0.45593999997E+02  0.45594000000E+02  0.51100000000E-03 0. -1.
    9900012    2    1    2    0    0  0.23476737907E+00  0.20300673700E+02  0.40211205117E+02  0.46142317794E+02  0.10000000304E+02 0.  0.
         12    1    1    2    0    0 -0.23476737907E+00 -0.20300673700E+02 -0.40211205117E+02  0.45045682206E+02  0.00000000000E+00 0. -1.
         11    1    3    3    0    0 -0.69816996408E-01 -0.21939033864E+00  0.24920769718E+00  0.33928051982E+00  0.51100000000E-03 0. -1.
        -11    1    3    3    0    0  0.18571295688E+01  0.20691641228E+02  0.37844751534E+02  0.43171960413E+02  0.51100000000E-03 0.  1.
        -12    1    3    3    0    0 -0.15525451934E+01 -0.17157719023E+00  0.21172458859E+01  0.26310768615E+01  0.00000000000E+00 0.  1.
</event>
<event>
 7    1  0.1466590E-008  0.4614232E+02  0.7816164E-02  0.1320468E+00
        -11   -1    0    0    0    0  0.00000000000E+00  0.00000000000E+00  0.45593999997E+02  0.45594000000E+02  0.51100000000E-03 0.  1.
         11   -1    0    0    0    0 -0.00000000000E+00 -0.00000000000E+00 -0.45593999997E+02  0.45594000000E+02  0.51100000000E-03 0. -1.
    9900012    2    1    2    0    0 -0.14982814834E+02 -0.90481486933E+01  0.41506141155E+02  0.46142317757E+02  0.99999999632E+01 0.  0.
         12    1    1    2    0    0  0.14982814834E+02  0.90481486933E+01 -0.41506141155E+02  0.45045682243E+02  0.00000000000E+00 0. -1.
         11    1    3    3    0    0 -0.31780807489E+01 -0.60190028118E+01  0.90192007985E+01  0.11299317475E+02  0.51100000000E-03 0. -1.
        -11    1    3    3    0    0 -0.11877549425E+02 -0.31480268530E+01  0.30953474869E+02  0.33303210959E+02  0.51100000000E-03 0.  1.
         12    1    3    3    0    0  0.72815340066E-01  0.11888097148E+00  0.15334654874E+01  0.15397893233E+01  0.00000000000E+00 0. -1.
</event>
<event>
 7    1  0.1466590E-008  0.4614232E+02  0.7816164E-02  0.1320468E+00
        -11   -1    0    0    0    0  0.00000000000E+00  0.00000000000E+00  0.45593999997E+02  0.45594000000E+02  0.51100000000E-03 0. -1.
         11   -1    0    0    0    0 -0.00000000000E+00 -0.00000000000E+00 -0.45593999997E+02  0.45594000000E+02  0.51100000000E-03 0.  1.
    9900012    2    1    2    0    0 -0.33158609831E+02  0.30444774958E+02  0.16540040954E+01  0.46142318101E+02  0.10000003102E+02 0.  0.
         12    1    1    2    0    0  0.33158609831E+02 -0.30444774958E+02 -0.16540040954E+01  0.45045681899E+02  0.00000000000E+00 0. -1.
         11    1    3    3    0    0 -0.20177494476E+02  0.23718686417E+02  0.11889462888E+01  0.31162813772E+02  0.51100000000E-03 0. -1.
        -11    1    3    3    0    0 -0.83342334772E+01  0.28624589803E+01  0.11932284920E+01  0.88925200906E+01  0.51100000000E-03 0.  1.
        -12    1    3    3    0    0 -0.46468818777E+01  0.38636295611E+01 -0.72817068539E+00  0.60869842383E+01  0.00000000000E+00 0.  1.
</event>
<event>
 7    1  0.1466590E-008  0.4614232E+02  0.7816164E-02  0.1320468E+00
        -11   -1    0    0    0    0  0.00000000000E+00  0.00000000000E+00  0.45593999997E+02  0.45594000000E+02  0.51100000000E-03 0. -1.
         11   -1    0    0    0    0 -0.00000000000E+00 -0.00000000000E+00 -0.45593999997E+02  0.45594000000E+02  0.51100000000E-03 0.  1.
    9900012    2    1    2    0    0  0.15796517721E+02  0.37513764533E+02  0.19295101982E+02  0.46142318053E+02  0.10000002665E+02 0.  0.
         12    1    1    2    0    0 -0.15796517721E+02 -0.37513764533E+02 -0.19295101982E+02  0.45045681947E+02  0.00000000000E+00 0. -1.
         11    1    3    3    0    0  0.11712289200E+01  0.96270587529E+01  0.74873950165E+01  0.12252066022E+02  0.51100000000E-03 0. -1.
        -11    1    3    3    0    0  0.13239931683E+02  0.25445689328E+02  0.11963940957E+02  0.31079169549E+02  0.51100000000E-03 0.  1.
        -12    1    3    3    0    0  0.13853571178E+01  0.24410164519E+01 -0.15623399190E+00  0.28110824824E+01  0.00000000000E+00 0.  1.
</event>
<event>
 7    1  0.1466590E-008  0.4614232E+02  0.7816164E-02  0.1320468E+00
        -11   -1    0    0    0    0  0.00000000000E+00  0.00000000000E+00  0.45593999997E+02  0.45594000000E+02  0.51100000000E-03 0.  1.
         11   -1    0    0    0    0 -0.00000000000E+00 -0.00000000000E+00 -0.45593999997E+02  0.45594000000E+02  0.51100000000E-03 0. -1.
    9900012    2    1    2    0    0  0.87042816076E+01 -0.29302679222E+02  0.33086280621E+02  0.46142317707E+02  0.99999995105E+01 0.  0.
         12    1    1    2    0    0 -0.87042816076E+01  0.29302679222E+02 -0.33086280621E+02  0.45045682293E+02  0.00000000000E+00 0. -1.
         11    1    3    3    0    0 -0.61543121733E-02 -0.20864009278E+01  0.68837876534E+01  0.71930271392E+01  0.51100000000E-03 0. -1.
        -11    1    3    3    0    0  0.90517367799E+01 -0.26557509596E+02  0.25290254783E+02  0.37773433018E+02  0.51100000000E-03 0.  1.
        -12    1    3    3    0    0 -0.34130086015E+00 -0.65876869818E+00  0.91223818422E+00  0.11758575507E+01  0.00000000000E+00 0.  1.
</event>
<event>
 7    1  0.1466590E-008  0.4614232E+02  0.7816164E-02  0.1320468E+00
        -11   -1    0    0    0    0  0.00000000000E+00  0.00000000000E+00  0.45593999997E+02  0.45594000000E+02  0.51100000000E-03 0.  1.
         11   -1    0    0    0    0 -0.00000000000E+00 -0.00000000000E+00 -0.45593999997E+02  0.45594000000E+02  0.51100000000E-03 0. -1.
    9900012    2    1    2    0    0 -0.39263992764E+02 -0.21805323844E+02  0.34611727914E+01  0.46142323262E+02  0.10000050158E+02 0.  0.
         12    1    1    2    0    0  0.39263992764E+02  0.21805323844E+02 -0.34611727914E+01  0.45045676738E+02  0.00000000000E+00 0. -1.
         11    1    3    3    0    0 -0.66300130728E+01 -0.38095359907E+01  0.28825117368E+01  0.81718120380E+01  0.51100000000E-03 0. -1.
        -11    1    3    3    0    0 -0.16151267446E+01 -0.31932992755E+01 -0.28515014015E+00  0.35898614914E+01  0.51100000000E-03 0.  1.
        -12    1    3    3    0    0 -0.31018852947E+02 -0.14802488578E+02  0.86381119476E+00  0.34380649732E+02  0.00000000000E+00 0.  1.
</event>
<event>
 7    1  0.1466590E-008  0.4614232E+02  0.7816164E-02  0.1320468E+00
        -11   -1    0    0    0    0  0.00000000000E+00  0.00000000000E+00  0.45593999997E+02  0.45594000000E+02  0.51100000000E-03 0.  1.
         11   -1    0    0    0    0 -0.00000000000E+00 -0.00000000000E+00 -0.45593999997E+02  0.45594000000E+02  0.51100000000E-03 0. -1.
    9900012    2    1    2    0    0  0.10165911967E+02  0.41390692603E+02 -0.14580062284E+02  0.46142318559E+02  0.10000007273E+02 0.  0.
         12    1    1    2    0    0 -0.10165911967E+02 -0.41390692603E+02  0.14580062284E+02  0.45045681441E+02  0.00000000000E+00 0. -1.
         11    1    3    3    0    0 -0.51891002646E-01  0.74921669418E+01  0.18570248829E+00  0.74946476792E+01  0.51100000000E-03 0. -1.
        -11    1    3    3    0    0  0.65458887831E+01  0.23714067186E+02 -0.12469359870E+02  0.27580619614E+02  0.51100000000E-03 0.  1.
        -12    1    3    3    0    0  0.36719141869E+01  0.10184458476E+02 -0.22964049016E+01  0.11067051265E+02  0.00000000000E+00 0.  1.
</event>
<event>
 7    1  0.1466590E-008  0.4614232E+02  0.7816164E-02  0.1320468E+00
        -11   -1    0    0    0    0  0.00000000000E+00  0.00000000000E+00  0.45593999997E+02  0.45594000000E+02  0.51100000000E-03 0.  1.
         11   -1    0    0    0    0 -0.00000000000E+00 -0.00000000000E+00 -0.45593999997E+02  0.45594000000E+02  0.51100000000E-03 0. -1.
    9900012    2    1    2    0    0 -0.30465102619E+02 -0.11314181681E+02  0.31192631423E+02  0.46142318301E+02  0.10000004920E+02 0.  0.
         12    1    1    2    0    0  0.30465102619E+02  0.11314181681E+02 -0.31192631423E+02  0.45045681699E+02  0.00000000000E+00 0. -1.
         11    1    3    3    0    0 -0.27497593217E+02 -0.70675926255E+01  0.25981813422E+02  0.38485362506E+02  0.51100000000E-03 0.  1.
        -11    1    3    3    0    0 -0.70303185297E+00 -0.18724394152E+01  0.78715649873E+00  0.21493949764E+01  0.51100000000E-03 0. -1.
        -12    1    3    3    0    0 -0.22644775484E+01 -0.23741496407E+01  0.44236615015E+01  0.55075608179E+01  0.00000000000E+00 0.  1.
</event>
<event>
 7    1  0.1466590E-008  0.4614232E+02  0.7816164E-02  0.1320468E+00
        -11   -1    0    0    0    0  0.00000000000E+00  0.00000000000E+00  0.45593999997E+02  0.45594000000E+02  0.51100000000E-03 0.  1.
         11   -1    0    0    0    0 -0.00000000000E+00 -0.00000000000E+00 -0.45593999997E+02  0.45594000000E+02  0.51100000000E-03 0. -1.
    9900012    2    1    2    0    0  0.26680226436E+02  0.34025154952E+02  0.12632013635E+02  0.46142318513E+02  0.10000006853E+02 0.  0.
         12    1    1    2    0    0 -0.26680226436E+02 -0.34025154952E+02 -0.12632013635E+02  0.45045681487E+02  0.00000000000E+00 0. -1.
         11    1    3    3    0    0  0.10536414547E+02  0.19016093033E+02  0.59566372337E+01  0.22541281089E+02  0.51100000000E-03 0. -1.
        -11    1    3    3    0    0  0.12898905960E+01  0.55535194670E-01 -0.42625740158E+00  0.13596313989E+01  0.51100000000E-03 0.  1.
        -12    1    3    3    0    0  0.14853921293E+02  0.14953526725E+02  0.71016338028E+01  0.22241406025E+02  0.00000000000E+00 0.  1.
</event>
<event>
 7    1  0.1466590E-008  0.4614232E+02  0.7816164E-02  0.1320468E+00
        -11   -1    0    0    0    0  0.00000000000E+00  0.00000000000E+00  0.45593999997E+02  0.45594000000E+02  0.51100000000E-03 0.  1.
         11   -1    0    0    0    0 -0.00000000000E+00 -0.00000000000E+00 -0.45593999997E+02  0.45594000000E+02  0.51100000000E-03 0. -1.
    9900012    2    1    2    0    0  0.82866386189E+01 -0.22502807546E+02  0.38132252892E+02  0.46142318324E+02  0.10000005134E+02 0.  0.
         12    1    1    2    0    0 -0.82866386189E+01  0.22502807546E+02 -0.38132252892E+02  0.45045681676E+02  0.00000000000E+00 0. -1.
         11    1    3    3    0    0 -0.28438343600E-01 -0.11561348780E+02  0.16244824012E+02  0.19938904227E+02  0.51100000000E-03 0. -1.
        -11    1    3    3    0    0  0.75165595027E+01 -0.11122926168E+02  0.19457492300E+02  0.23639208112E+02  0.51100000000E-03 0.  1.
        -12    1    3    3    0    0  0.79851745986E+00  0.18146740177E+00  0.24299365799E+01  0.25642059850E+01  0.00000000000E+00 0.  1.
</event>
<event>
 7    1  0.1466590E-008  0.4614232E+02  0.7816164E-02  0.1320468E+00
        -11   -1    0    0    0    0  0.00000000000E+00  0.00000000000E+00  0.45593999997E+02  0.45594000000E+02  0.51100000000E-03 0. -1.
         11   -1    0    0    0    0 -0.00000000000E+00 -0.00000000000E+00 -0.45593999997E+02  0.45594000000E+02  0.51100000000E-03 0.  1.
    9900012    2    1    2    0    0 -0.36997181617E+01 -0.43814967377E+02 -0.97813205373E+01  0.46142317497E+02  0.99999975897E+01 0.  0.
         12    1    1    2    0    0  0.36997181617E+01  0.43814967377E+02  0.97813205373E+01  0.45045682503E+02  0.00000000000E+00 0. -1.
         11    1    3    3    0    0 -0.22616286002E+01 -0.13878647682E+02 -0.66479756720E+00  0.14077420981E+02  0.51100000000E-03 0. -1.
        -11    1    3    3    0    0  0.38162976374E+00 -0.28123397742E+02 -0.78497733868E+01  0.29200857596E+02  0.51100000000E-03 0.  1.
         12    1    3    3    0    0 -0.18197193252E+01 -0.18129219529E+01 -0.12667495834E+01  0.28640389202E+01  0.00000000000E+00 0. -1.
</event>
<event>
 7    1  0.1466590E-008  0.4614232E+02  0.7816164E-02  0.1320468E+00
        -11   -1    0    0    0    0  0.00000000000E+00  0.00000000000E+00  0.45593999997E+02  0.45594000000E+02  0.51100000000E-03 0.  1.
         11   -1    0    0    0    0 -0.00000000000E+00 -0.00000000000E+00 -0.45593999997E+02  0.45594000000E+02  0.51100000000E-03 0. -1.
    9900012    2    1    2    0    0  0.10492569133E+02  0.15720781850E+02  0.40888586747E+02  0.46142317464E+02  0.99999972863E+01 0.  0.
         12    1    1    2    0    0 -0.10492569133E+02 -0.15720781850E+02 -0.40888586747E+02  0.45045682536E+02  0.00000000000E+00 0. -1.
         11    1    3    3    0    0  0.25051544444E+01  0.30328230584E+00  0.30119605848E+01  0.39293365563E+01  0.51100000000E-03 0. -1.
        -11    1    3    3    0    0  0.80921405845E+01  0.10732112889E+02  0.31914366978E+02  0.34629291159E+02  0.51100000000E-03 0.  1.
        -12    1    3    3    0    0 -0.10472589551E+00  0.46853866542E+01  0.59622591850E+01  0.75836897485E+01  0.00000000000E+00 0.  1.
</event>
<event>
 7    1  0.1466590E-008  0.4614232E+02  0.7816164E-02  0.1320468E+00
        -11   -1    0    0    0    0  0.00000000000E+00  0.00000000000E+00  0.45593999997E+02  0.45594000000E+02  0.51100000000E-03 0.  1.
         11   -1    0    0    0    0 -0.00000000000E+00 -0.00000000000E+00 -0.45593999997E+02  0.45594000000E+02  0.51100000000E-03 0. -1.
    9900012    2    1    2    0    0 -0.14335604540E+02  0.16495412334E+02  0.39389151163E+02  0.46142318576E+02  0.10000007433E+02 0.  0.
         12    1    1    2    0    0  0.14335604540E+02 -0.16495412334E+02 -0.39389151163E+02  0.45045681424E+02  0.00000000000E+00 0. -1.
         11    1    3    3    0    0 -0.43173449809E+00  0.66740748111E+01  0.14480506481E+02  0.15950383615E+02  0.51100000000E-03 0. -1.
        -11    1    3    3    0    0 -0.21922108987E+01  0.20800691628E+01  0.45460844951E+01  0.54588790831E+01  0.51100000000E-03 0.  1.
         12    1    3    3    0    0 -0.11711659143E+02  0.77412683600E+01  0.20362560187E+02  0.24733055878E+02  0.00000000000E+00 0. -1.
</event>
<event>
 7    1  0.1466590E-008  0.4614232E+02  0.7816164E-02  0.1320468E+00
        -11   -1    0    0    0    0  0.00000000000E+00  0.00000000000E+00  0.45593999997E+02  0.45594000000E+02  0.51100000000E-03 0.  1.
         11   -1    0    0    0    0 -0.00000000000E+00 -0.00000000000E+00 -0.45593999997E+02  0.45594000000E+02  0.51100000000E-03 0. -1.
    9900012    2    1    2    0    0  0.33769665865E+02 -0.20759354738E+02  0.21395613860E+02  0.46142318362E+02  0.10000005476E+02 0.  0.
         12    1    1    2    0    0 -0.33769665865E+02  0.20759354738E+02 -0.21395613860E+02  0.45045681638E+02  0.00000000000E+00 0. -1.
         11    1    3    3    0    0  0.12332128562E+01  0.10648113220E+00  0.91232230750E+00  0.15376880158E+01  0.51100000000E-03 0. -1.
        -11    1    3    3    0    0  0.13962269221E+02 -0.13635126037E+02  0.12232208411E+02  0.23032336979E+02  0.51100000000E-03 0.  1.
        -12    1    3    3    0    0  0.18574183788E+02 -0.72307098338E+01  0.82510831419E+01  0.21572293367E+02  0.00000000000E+00 0.  1.
</event>
<event>
 7    1  0.1466590E-008  0.4614232E+02  0.7816164E-02  0.1320468E+00
        -11   -1    0    0    0    0  0.00000000000E+00  0.00000000000E+00  0.45593999997E+02  0.45594000000E+02  0.51100000000E-03 0.  1.
         11   -1    0    0    0    0 -0.00000000000E+00 -0.00000000000E+00 -0.45593999997E+02  0.45594000000E+02  0.51100000000E-03 0. -1.
    9900012    2    1    2    0    0 -0.24162219760E+02 -0.15827522527E+02  0.34565736366E+02  0.46142318036E+02  0.10000002510E+02 0.  0.
         12    1    1    2    0    0  0.24162219760E+02  0.15827522527E+02 -0.34565736366E+02  0.45045681964E+02  0.00000000000E+00 0. -1.
         11    1    3    3    0    0 -0.19195458877E+02 -0.10308473294E+02  0.24559554392E+02  0.32831417505E+02  0.51100000000E-03 0.  1.
        -11    1    3    3    0    0 -0.58103298085E+00 -0.41197248689E+01  0.51279119378E+01  0.66034243709E+01  0.51100000000E-03 0. -1.
         12    1    3    3    0    0 -0.43857279019E+01 -0.13993243641E+01  0.48782700358E+01  0.67074761608E+01  0.00000000000E+00 0. -1.
</event>
<event>
 7    1  0.1466590E-008  0.4614232E+02  0.7816164E-02  0.1320468E+00
        -11   -1    0    0    0    0  0.00000000000E+00  0.00000000000E+00  0.45593999997E+02  0.45594000000E+02  0.51100000000E-03 0.  1.
         11   -1    0    0    0    0 -0.00000000000E+00 -0.00000000000E+00 -0.45593999997E+02  0.45594000000E+02  0.51100000000E-03 0. -1.
    9900012    2    1    2    0    0 -0.25301685938E+02 -0.35856351819E+02 -0.10161705102E+02  0.46142317325E+02  0.99999960245E+01 0.  0.
         12    1    1    2    0    0  0.25301685938E+02  0.35856351819E+02  0.10161705102E+02  0.45045682675E+02  0.00000000000E+00 0. -1.
         11    1    3    3    0    0 -0.24012062531E+01 -0.57405148387E+01  0.70975197167E+00  0.62628308460E+01  0.51100000000E-03 0. -1.
        -11    1    3    3    0    0 -0.13481320713E+02 -0.14476149376E+02 -0.82595477719E+01  0.21436535135E+02  0.51100000000E-03 0.  1.
        -12    1    3    3    0    0 -0.94191589721E+01 -0.15639687604E+02 -0.26119093021E+01  0.18442951345E+02  0.00000000000E+00 0.  1.
</event>
<event>
 7    1  0.1466590E-008  0.4614232E+02  0.7816164E-02  0.1320468E+00
        -11   -1    0    0    0    0  0.00000000000E+00  0.00000000000E+00  0.45593999997E+02  0.45594000000E+02  0.51100000000E-03 0.  1.
         11   -1    0    0    0    0 -0.00000000000E+00 -0.00000000000E+00 -0.45593999997E+02  0.45594000000E+02  0.51100000000E-03 0. -1.
    9900012    2    1    2    0    0 -0.28164780536E+02  0.34676580762E+02 -0.57787028612E+01  0.46142317380E+02  0.99999965208E+01 0.  0.
         12    1    1    2    0    0  0.28164780536E+02 -0.34676580762E+02  0.57787028612E+01  0.45045682620E+02  0.00000000000E+00 0. -1.
         11    1    3    3    0    0 -0.46521872965E+01  0.38407668071E+01 -0.24883336194E+01  0.65258057564E+01  0.51100000000E-03 0. -1.
        -11    1    3    3    0    0 -0.30400467761E+01  0.49079243631E+01  0.21006557609E+01  0.61434811663E+01  0.51100000000E-03 0.  1.
        -12    1    3    3    0    0 -0.20472546463E+02  0.25927889592E+02 -0.53910250027E+01  0.33473030457E+02  0.00000000000E+00 0.  1.
</event>
<event>
 7    1  0.1466590E-008  0.4614233E+02  0.7816164E-02  0.1320468E+00
        -11   -1    0    0    0    0  0.00000000000E+00  0.00000000000E+00  0.45593999997E+02  0.45594000000E+02  0.51100000000E-03 0.  1.
         11   -1    0    0    0    0 -0.00000000000E+00 -0.00000000000E+00 -0.45593999997E+02  0.45594000000E+02  0.51100000000E-03 0. -1.
    9900012    2    1    2    0    0 -0.27838521439E+02  0.20421258067E+02  0.28932706543E+02  0.46142328012E+02  0.10000093471E+02 0.  0.
         12    1    1    2    0    0  0.27838521439E+02 -0.20421258067E+02 -0.28932706543E+02  0.45045671988E+02  0.00000000000E+00 0. -1.
         11    1    3    3    0    0 -0.78711212026E+01  0.28721727126E+01  0.74011127312E+01  0.11179463091E+02  0.51100000000E-03 0. -1.
        -11    1    3    3    0    0 -0.16771974950E+02  0.11215563151E+02  0.17999126627E+02  0.27038057624E+02  0.51100000000E-03 0.  1.
        -12    1    3    3    0    0 -0.31954252867E+01  0.63335222039E+01  0.35324671852E+01  0.79248072964E+01  0.00000000000E+00 0.  1.
</event>
<event>
 7    1  0.1466590E-008  0.4614232E+02  0.7816164E-02  0.1320468E+00
        -11   -1    0    0    0    0  0.00000000000E+00  0.00000000000E+00  0.45593999997E+02  0.45594000000E+02  0.51100000000E-03 0.  1.
         11   -1    0    0    0    0 -0.00000000000E+00 -0.00000000000E+00 -0.45593999997E+02  0.45594000000E+02  0.51100000000E-03 0. -1.
    9900012    2    1    2    0    0 -0.11426793125E+02 -0.31505795457E+02  0.30098615199E+02  0.46142318904E+02  0.10000010422E+02 0.  0.
         12    1    1    2    0    0  0.11426793125E+02  0.31505795457E+02 -0.30098615199E+02  0.45045681096E+02  0.00000000000E+00 0. -1.
         11    1    3    3    0    0 -0.98318706309E+01 -0.18823044407E+02  0.17416395294E+02  0.27464586400E+02  0.51100000000E-03 0. -1.
        -11    1    3    3    0    0 -0.10228707456E+01 -0.12336624273E+02  0.10000110886E+02  0.15913540807E+02  0.51100000000E-03 0.  1.
         12    1    3    3    0    0 -0.57205174818E+00 -0.34612677758E+00  0.26821090188E+01  0.27641916969E+01  0.00000000000E+00 0. -1.
</event>
<event>
 7    1  0.1466590E-008  0.4614232E+02  0.7816164E-02  0.1320468E+00
        -11   -1    0    0    0    0  0.00000000000E+00  0.00000000000E+00  0.45593999997E+02  0.45594000000E+02  0.51100000000E-03 0.  1.
         11   -1    0    0    0    0 -0.00000000000E+00 -0.00000000000E+00 -0.45593999997E+02  0.45594000000E+02  0.51100000000E-03 0. -1.
    9900012    2    1    2    0    0  0.22924638833E+02  0.57264238219E+01  0.38350779776E+02  0.46142319798E+02  0.10000018573E+02 0.  0.
         12    1    1    2    0    0 -0.22924638833E+02 -0.57264238219E+01 -0.38350779776E+02  0.45045680202E+02  0.00000000000E+00 0. -1.
         11    1    3    3    0    0  0.96152913154E+01  0.36026966499E+01  0.12363781279E+02  0.16071600356E+02  0.51100000000E-03 0. -1.
        -11    1    3    3    0    0  0.94446069012E+01 -0.13448613813E+01  0.19907273651E+02  0.22075071826E+02  0.51100000000E-03 0.  1.
        -12    1    3    3    0    0  0.38647406163E+01  0.34685885534E+01  0.60797248460E+01  0.79956476152E+01  0.00000000000E+00 0.  1.
</event>
<event>
 7    1  0.1466590E-008  0.4614232E+02  0.7816164E-02  0.1320468E+00
        -11   -1    0    0    0    0  0.00000000000E+00  0.00000000000E+00  0.45593999997E+02  0.45594000000E+02  0.51100000000E-03 0.  1.
         11   -1    0    0    0    0 -0.00000000000E+00 -0.00000000000E+00 -0.45593999997E+02  0.45594000000E+02  0.51100000000E-03 0. -1.
    9900012    2    1    2    0    0  0.33526166589E+02  0.18226723805E+02  0.23935246260E+02  0.46142319626E+02  0.10000017009E+02 0.  0.
         12    1    1    2    0    0 -0.33526166589E+02 -0.18226723805E+02 -0.23935246260E+02  0.45045680374E+02  0.00000000000E+00 0. -1.
         11    1    3    3    0    0  0.26521572705E+01  0.23234187349E+01  0.58671039229E+01  0.68450800951E+01  0.51100000000E-03 0. -1.
        -11    1    3    3    0    0  0.60990744926E+01  0.23449859086E+01  0.47117323297E+01  0.80559351031E+01  0.51100000000E-03 0.  1.
         12    1    3    3    0    0  0.24774934825E+02  0.13558319161E+02  0.13356410008E+02  0.31241304428E+02  0.00000000000E+00 0. -1.
</event>
<event>
 7    1  0.1466590E-008  0.4614232E+02  0.7816164E-02  0.1320468E+00
        -11   -1    0    0    0    0  0.00000000000E+00  0.00000000000E+00  0.45593999997E+02  0.45594000000E+02  0.51100000000E-03 0.  1.
         11   -1    0    0    0    0 -0.00000000000E+00 -0.00000000000E+00 -0.45593999997E+02  0.45594000000E+02  0.51100000000E-03 0. -1.
    9900012    2    1    2    0    0 -0.22413206965E+02 -0.17564993140E+02  0.34903189115E+02  0.46142318288E+02  0.10000004806E+02 0.  0.
         12    1    1    2    0    0  0.22413206965E+02  0.17564993140E+02 -0.34903189115E+02  0.45045681712E+02  0.00000000000E+00 0. -1.
         11    1    3    3    0    0  0.10686749828E+00  0.43849690474E+00 -0.42986855804E-01  0.45337438012E+00  0.51100000000E-03 0. -1.
        -11    1    3    3    0    0 -0.17233263778E+01 -0.22629607763E+01  0.65020750499E+01  0.70970293430E+01  0.51100000000E-03 0.  1.
        -12    1    3    3    0    0 -0.20796748085E+02 -0.15740529269E+02  0.28444100921E+02  0.38591914565E+02  0.00000000000E+00 0.  1.
</event>
<event>
 7    1  0.1466590E-008  0.4614231E+02  0.7816164E-02  0.1320468E+00
        -11   -1    0    0    0    0  0.00000000000E+00  0.00000000000E+00  0.45593999997E+02  0.45594000000E+02  0.51100000000E-03 0.  1.
         11   -1    0    0    0    0 -0.00000000000E+00 -0.00000000000E+00 -0.45593999997E+02  0.45594000000E+02  0.51100000000E-03 0. -1.
    9900012    2    1    2    0    0  0.27395894396E+02  0.38209417875E+01  0.35552494275E+02  0.46142306809E+02  0.99999001261E+01 0.  0.
         12    1    1    2    0    0 -0.27395894396E+02 -0.38209417875E+01 -0.35552494275E+02  0.45045693191E+02  0.00000000000E+00 0. -1.
         11    1    3    3    0    0  0.12927525738E+02  0.60139566532E+01  0.21686579455E+02  0.25953734318E+02  0.51100000000E-03 0. -1.
        -11    1    3    3    0    0  0.13734318659E+02 -0.19127003347E+01  0.12860085537E+02  0.18912211184E+02  0.51100000000E-03 0.  1.
         12    1    3    3    0    0  0.73404999921E+00 -0.28031453095E+00  0.10058292834E+01  0.12763613066E+01  0.00000000000E+00 0. -1.
</event>
<event>
 7    1  0.1466590E-008  0.4614233E+02  0.7816164E-02  0.1320468E+00
        -11   -1    0    0    0    0  0.00000000000E+00  0.00000000000E+00  0.45593999997E+02  0.45594000000E+02  0.51100000000E-03 0.  1.
         11   -1    0    0    0    0 -0.00000000000E+00 -0.00000000000E+00 -0.45593999997E+02  0.45594000000E+02  0.51100000000E-03 0. -1.
    9900012    2    1    2    0    0  0.42179664023E+02  0.40741459279E+01  0.15277100095E+02  0.46142328627E+02  0.10000099088E+02 0.  0.
         12    1    1    2    0    0 -0.42179664023E+02 -0.40741459279E+01 -0.15277100095E+02  0.45045671373E+02  0.00000000000E+00 0. -1.
         11    1    3    3    0    0  0.54113817229E+01  0.11211364028E+01  0.31127348309E+01  0.63426427752E+01  0.51100000000E-03 0.  1.
        -11    1    3    3    0    0  0.30199326327E+02  0.57443272281E+01  0.94032144132E+01  0.32146804623E+02  0.51100000000E-03 0. -1.
        -12    1    3    3    0    0  0.65689559725E+01 -0.27913177030E+01  0.27611508506E+01  0.76528812291E+01  0.00000000000E+00 0.  1.
</event>
<event>
 7    1  0.1466590E-008  0.4614232E+02  0.7816164E-02  0.1320468E+00
        -11   -1    0    0    0    0  0.00000000000E+00  0.00000000000E+00  0.45593999997E+02  0.45594000000E+02  0.51100000000E-03 0. -1.
         11   -1    0    0    0    0 -0.00000000000E+00 -0.00000000000E+00 -0.45593999997E+02  0.45594000000E+02  0.51100000000E-03 0.  1.
    9900012    2    1    2    0    0  0.15275971168E+02  0.39219956023E+02 -0.16048472035E+02  0.46142315410E+02  0.99999785568E+01 0.  0.
         12    1    1    2    0    0 -0.15275971168E+02 -0.39219956023E+02  0.16048472035E+02  0.45045684590E+02  0.00000000000E+00 0. -1.
         11    1    3    3    0    0  0.64596054709E+01  0.66447011873E+01 -0.37827979016E+01  0.10009401427E+02  0.51100000000E-03 0. -1.
        -11    1    3    3    0    0  0.86316924108E+01  0.29830711145E+02 -0.12246925335E+02  0.33382100319E+02  0.51100000000E-03 0.  1.
         12    1    3    3    0    0  0.18467328677E+00  0.27445436901E+01 -0.18748797959E-01  0.27508136628E+01  0.00000000000E+00 0. -1.
</event>
<event>
 7    1  0.1466590E-008  0.4614232E+02  0.7816164E-02  0.1320468E+00
        -11   -1    0    0    0    0  0.00000000000E+00  0.00000000000E+00  0.45593999997E+02  0.45594000000E+02  0.51100000000E-03 0. -1.
         11   -1    0    0    0    0 -0.00000000000E+00 -0.00000000000E+00 -0.45593999997E+02  0.45594000000E+02  0.51100000000E-03 0.  1.
    9900012    2    1    2    0    0 -0.18461913888E+01  0.24078193837E+02 -0.38025593134E+02  0.46142316807E+02  0.99999913025E+01 0.  0.
         12    1    1    2    0    0  0.18461913888E+01 -0.24078193837E+02  0.38025593134E+02  0.45045683193E+02  0.00000000000E+00 0. -1.
         11    1    3    3    0    0 -0.37916659512E+01  0.91293615836E+01 -0.13059905841E+02  0.16379350245E+02  0.51100000000E-03 0. -1.
        -11    1    3    3    0    0  0.12549524147E+00  0.56377076429E+01 -0.45331701092E+01  0.72352697270E+01  0.51100000000E-03 0.  1.
         12    1    3    3    0    0  0.18199793209E+01  0.93111246109E+01 -0.20432517183E+02  0.22527696835E+02  0.00000000000E+00 0. -1.
</event>
<event>
 7    1  0.1466590E-008  0.4614232E+02  0.7816164E-02  0.1320468E+00
        -11   -1    0    0    0    0  0.00000000000E+00  0.00000000000E+00  0.45593999997E+02  0.45594000000E+02  0.51100000000E-03 0.  1.
         11   -1    0    0    0    0 -0.00000000000E+00 -0.00000000000E+00 -0.45593999997E+02  0.45594000000E+02  0.51100000000E-03 0. -1.
    9900012    2    1    2    0    0 -0.35010967751E+02 -0.21322081065E+02 -0.18673900609E+02  0.46142316880E+02  0.99999919625E+01 0.  0.
         12    1    1    2    0    0  0.35010967751E+02  0.21322081065E+02  0.18673900609E+02  0.45045683120E+02  0.00000000000E+00 0. -1.
         11    1    3    3    0    0 -0.10877161599E+02 -0.67960453424E+01 -0.57673225064E+01  0.14062748163E+02  0.51100000000E-03 0. -1.
        -11    1    3    3    0    0 -0.13745345688E+02 -0.99151645777E+01 -0.34538209674E+01  0.17296644074E+02  0.51100000000E-03 0.  1.
         12    1    3    3    0    0 -0.10388460465E+02 -0.46108711454E+01 -0.94527571354E+01  0.14782924643E+02  0.00000000000E+00 0. -1.
</event>
<event>
 7    1  0.1466590E-008  0.4614232E+02  0.7816164E-02  0.1320468E+00
        -11   -1    0    0    0    0  0.00000000000E+00  0.00000000000E+00  0.45593999997E+02  0.45594000000E+02  0.51100000000E-03 0.  1.
         11   -1    0    0    0    0 -0.00000000000E+00 -0.00000000000E+00 -0.45593999997E+02  0.45594000000E+02  0.51100000000E-03 0. -1.
    9900012    2    1    2    0    0 -0.35410580035E+02  0.70918218082E+01  0.26924160005E+02  0.46142317554E+02  0.99999981143E+01 0.  0.
         12    1    1    2    0    0  0.35410580035E+02 -0.70918218082E+01 -0.26924160005E+02  0.45045682446E+02  0.00000000000E+00 0. -1.
         11    1    3    3    0    0 -0.31072920345E+02  0.80683482209E+01  0.21643480152E+02  0.38717758912E+02  0.51100000000E-03 0. -1.
        -11    1    3    3    0    0 -0.36386219095E+01 -0.16966451803E+01  0.49378714655E+01  0.63640198884E+01  0.51100000000E-03 0.  1.
         12    1    3    3    0    0 -0.69903778048E+00  0.72011876764E+00  0.34280838758E+00  0.10605387540E+01  0.00000000000E+00 0. -1.
</event>
<event>
 7    1  0.1466590E-008  0.4614232E+02  0.7816164E-02  0.1320468E+00
        -11   -1    0    0    0    0  0.00000000000E+00  0.00000000000E+00  0.45593999997E+02  0.45594000000E+02  0.51100000000E-03 0. -1.
         11   -1    0    0    0    0 -0.00000000000E+00 -0.00000000000E+00 -0.45593999997E+02  0.45594000000E+02  0.51100000000E-03 0.  1.
    9900012    2    1    2    0    0  0.30521115289E+02  0.22670460828E+02 -0.24158337520E+02  0.46142317139E+02  0.99999943282E+01 0.  0.
         12    1    1    2    0    0 -0.30521115289E+02 -0.22670460828E+02  0.24158337520E+02  0.45045682861E+02  0.00000000000E+00 0. -1.
         11    1    3    3    0    0  0.45895098638E+01  0.41839503884E+01 -0.59339654380E+01  0.85895860041E+01  0.51100000000E-03 0. -1.
        -11    1    3    3    0    0  0.26223745586E+01  0.17951276968E+00  0.22928875158E+00  0.26384932732E+01  0.51100000000E-03 0.  1.
        -12    1    3    3    0    0  0.23309230867E+02  0.18306997670E+02 -0.18453660834E+02  0.34914237862E+02  0.00000000000E+00 0.  1.
</event>
<event>
 7    1  0.1466590E-008  0.4614232E+02  0.7816164E-02  0.1320468E+00
        -11   -1    0    0    0    0  0.00000000000E+00  0.00000000000E+00  0.45593999997E+02  0.45594000000E+02  0.51100000000E-03 0.  1.
         11   -1    0    0    0    0 -0.00000000000E+00 -0.00000000000E+00 -0.45593999997E+02  0.45594000000E+02  0.51100000000E-03 0. -1.
    9900012    2    1    2    0    0 -0.27130779417E+02 -0.33142825210E+02  0.13949456787E+02  0.46142318749E+02  0.10000009013E+02 0.  0.
         12    1    1    2    0    0  0.27130779417E+02  0.33142825210E+02 -0.13949456787E+02  0.45045681251E+02  0.00000000000E+00 0. -1.
         11    1    3    3    0    0 -0.73167518200E+01 -0.49085017930E+01  0.26138094270E+01  0.91902256245E+01  0.51100000000E-03 0. -1.
        -11    1    3    3    0    0 -0.12403047635E+02 -0.20681205887E+02  0.10608182650E+02  0.26345424783E+02  0.51100000000E-03 0.  1.
        -12    1    3    3    0    0 -0.74109799618E+01 -0.75531175302E+01  0.72746470931E+00  0.10606668342E+02  0.00000000000E+00 0.  1.
</event>
<event>
 7    1  0.1466590E-008  0.4614232E+02  0.7816164E-02  0.1320468E+00
        -11   -1    0    0    0    0  0.00000000000E+00  0.00000000000E+00  0.45593999997E+02  0.45594000000E+02  0.51100000000E-03 0.  1.
         11   -1    0    0    0    0 -0.00000000000E+00 -0.00000000000E+00 -0.45593999997E+02  0.45594000000E+02  0.51100000000E-03 0. -1.
    9900012    2    1    2    0    0  0.30151052951E+02  0.15672589676E+02  0.29570212271E+02  0.46142317466E+02  0.99999973085E+01 0.  0.
         12    1    1    2    0    0 -0.30151052951E+02 -0.15672589676E+02 -0.29570212271E+02  0.45045682534E+02  0.00000000000E+00 0. -1.
         11    1    3    3    0    0  0.82659960307E+01  0.17411075358E+01  0.12345810975E+02  0.14959184293E+02  0.51100000000E-03 0. -1.
        -11    1    3    3    0    0  0.16316269488E+02  0.97270369115E+01  0.13145819145E+02  0.23100832416E+02  0.51100000000E-03 0.  1.
         12    1    3    3    0    0  0.55687874331E+01  0.42044452290E+01  0.40785821502E+01  0.80823007563E+01  0.00000000000E+00 0. -1.
</event>
<event>
 7    1  0.1466590E-008  0.4614232E+02  0.7816164E-02  0.1320468E+00
        -11   -1    0    0    0    0  0.00000000000E+00  0.00000000000E+00  0.45593999997E+02  0.45594000000E+02  0.51100000000E-03 0.  1.
         11   -1    0    0    0    0 -0.00000000000E+00 -0.00000000000E+00 -0.45593999997E+02  0.45594000000E+02  0.51100000000E-03 0. -1.
    9900012    2    1    2    0    0  0.42415127054E+02 -0.46808400968E+00  0.15160851234E+02  0.46142317457E+02  0.99999972302E+01 0.  0.
         12    1    1    2    0    0 -0.42415127054E+02  0.46808400968E+00 -0.15160851234E+02  0.45045682543E+02  0.00000000000E+00 0. -1.
         11    1    3    3    0    0  0.33570157301E+02 -0.25631549786E+01  0.12846605546E+02  0.36035544938E+02  0.51100000000E-03 0. -1.
        -11    1    3    3    0    0  0.47173982377E+01 -0.80848835580E+00  0.95707702376E+00  0.48809319034E+01  0.51100000000E-03 0.  1.
         12    1    3    3    0    0  0.41275715148E+01  0.29035593248E+01  0.13571686634E+01  0.52258406159E+01  0.00000000000E+00 0. -1.
</event>
<event>
 7    1  0.1466590E-008  0.4614232E+02  0.7816164E-02  0.1320468E+00
        -11   -1    0    0    0    0  0.00000000000E+00  0.00000000000E+00  0.45593999997E+02  0.45594000000E+02  0.51100000000E-03 0.  1.
         11   -1    0    0    0    0 -0.00000000000E+00 -0.00000000000E+00 -0.45593999997E+02  0.45594000000E+02  0.51100000000E-03 0. -1.
    9900012    2    1    2    0    0 -0.30987321804E+01 -0.43944745711E+02 -0.94005672683E+01  0.46142317835E+02  0.10000000675E+02 0.  0.
         12    1    1    2    0    0  0.30987321804E+01  0.43944745711E+02  0.94005672683E+01  0.45045682165E+02  0.00000000000E+00 0. -1.
         11    1    3    3    0    0 -0.37242633146E+01 -0.69308005119E+01 -0.25061293187E+01  0.82575309503E+01  0.51100000000E-03 0. -1.
        -11    1    3    3    0    0 -0.17678103346E+01 -0.17510602380E+02 -0.34939333786E+01  0.17943074425E+02  0.51100000000E-03 0.  1.
         12    1    3    3    0    0  0.23933414688E+01 -0.19503342819E+02 -0.34005045710E+01  0.19941712460E+02  0.00000000000E+00 0. -1.
</event>
<event>
 7    1  0.1466590E-008  0.4614232E+02  0.7816164E-02  0.1320468E+00
        -11   -1    0    0    0    0  0.00000000000E+00  0.00000000000E+00  0.45593999997E+02  0.45594000000E+02  0.51100000000E-03 0. -1.
         11   -1    0    0    0    0 -0.00000000000E+00 -0.00000000000E+00 -0.45593999997E+02  0.45594000000E+02  0.51100000000E-03 0.  1.
    9900012    2    1    2    0    0 -0.32554400602E+02 -0.42708587426E+01 -0.30839653453E+02  0.46142318098E+02  0.10000003068E+02 0.  0.
         12    1    1    2    0    0  0.32554400602E+02  0.42708587426E+01  0.30839653453E+02  0.45045681902E+02  0.00000000000E+00 0. -1.
         11    1    3    3    0    0 -0.62399010636E+01  0.28109866023E+01 -0.72914761218E+01  0.10000181761E+02  0.51100000000E-03 0. -1.
        -11    1    3    3    0    0 -0.12042957103E+02 -0.45895592504E+01 -0.10084765546E+02  0.16364576568E+02  0.51100000000E-03 0.  1.
         12    1    3    3    0    0 -0.14271542436E+02 -0.24922860946E+01 -0.13463411785E+02  0.19777559768E+02  0.00000000000E+00 0. -1.
</event>
<event>
 7    1  0.1466590E-008  0.4614232E+02  0.7816164E-02  0.1320468E+00
        -11   -1    0    0    0    0  0.00000000000E+00  0.00000000000E+00  0.45593999997E+02  0.45594000000E+02  0.51100000000E-03 0.  1.
         11   -1    0    0    0    0 -0.00000000000E+00 -0.00000000000E+00 -0.45593999997E+02  0.45594000000E+02  0.51100000000E-03 0. -1.
    9900012    2    1    2    0    0 -0.18444937186E+02 -0.21257877811E+02  0.35171016699E+02  0.46142317716E+02  0.99999995854E+01 0.  0.
         12    1    1    2    0    0  0.18444937186E+02  0.21257877811E+02 -0.35171016699E+02  0.45045682284E+02  0.00000000000E+00 0. -1.
         11    1    3    3    0    0 -0.19719066206E+01 -0.78917049331E+01  0.94962900886E+01  0.12503877326E+02  0.51100000000E-03 0. -1.
        -11    1    3    3    0    0 -0.73087727193E+01 -0.68248102458E+01  0.86200955342E+01  0.13202357397E+02  0.51100000000E-03 0.  1.
         12    1    3    3    0    0 -0.91642578459E+01 -0.65413626324E+01  0.17054631076E+02  0.20436082993E+02  0.00000000000E+00 0. -1.
</event>
<event>
 7    1  0.1466590E-008  0.4614232E+02  0.7816164E-02  0.1320468E+00
        -11   -1    0    0    0    0  0.00000000000E+00  0.00000000000E+00  0.45593999997E+02  0.45594000000E+02  0.51100000000E-03 0.  1.
         11   -1    0    0    0    0 -0.00000000000E+00 -0.00000000000E+00 -0.45593999997E+02  0.45594000000E+02  0.51100000000E-03 0. -1.
    9900012    2    1    2    0    0  0.21120658247E+02  0.39074551688E+02  0.74973746587E+01  0.46142318507E+02  0.10000006802E+02 0.  0.
         12    1    1    2    0    0 -0.21120658247E+02 -0.39074551688E+02 -0.74973746587E+01  0.45045681493E+02  0.00000000000E+00 0. -1.
         11    1    3    3    0    0  0.18639178874E+02  0.26788850321E+02  0.57201176936E+01  0.33132781913E+02  0.51100000000E-03 0. -1.
        -11    1    3    3    0    0  0.13845107901E+01  0.52586934560E+01  0.22426879373E+01  0.58822084659E+01  0.51100000000E-03 0.  1.
         12    1    3    3    0    0  0.10969685827E+01  0.70270079108E+01 -0.46543097225E+00  0.71273281277E+01  0.00000000000E+00 0. -1.
</event>
<event>
 7    1  0.1466590E-008  0.4614232E+02  0.7816164E-02  0.1320468E+00
        -11   -1    0    0    0    0  0.00000000000E+00  0.00000000000E+00  0.45593999997E+02  0.45594000000E+02  0.51100000000E-03 0.  1.
         11   -1    0    0    0    0 -0.00000000000E+00 -0.00000000000E+00 -0.45593999997E+02  0.45594000000E+02  0.51100000000E-03 0. -1.
    9900012    2    1    2    0    0  0.19265909566E+02  0.24264254509E+01  0.40645428626E+02  0.46142315634E+02  0.99999805989E+01 0.  0.
         12    1    1    2    0    0 -0.19265909566E+02 -0.24264254509E+01 -0.40645428626E+02  0.45045684366E+02  0.00000000000E+00 0. -1.
         11    1    3    3    0    0  0.81954454022E+01  0.52739775201E+00  0.14318757678E+02  0.16506674269E+02  0.51100000000E-03 0. -1.
        -11    1    3    3    0    0  0.26966247378E+01 -0.74615300039E+00  0.15228200300E+02  0.15483107372E+02  0.51100000000E-03 0.  1.
        -12    1    3    3    0    0  0.83738394263E+01  0.26451806993E+01  0.11098470648E+02  0.14152533992E+02  0.00000000000E+00 0.  1.
</event>
<event>
 7    1  0.1466590E-008  0.4614231E+02  0.7816164E-02  0.1320468E+00
        -11   -1    0    0    0    0  0.00000000000E+00  0.00000000000E+00  0.45593999997E+02  0.45594000000E+02  0.51100000000E-03 0.  1.
         11   -1    0    0    0    0 -0.00000000000E+00 -0.00000000000E+00 -0.45593999997E+02  0.45594000000E+02  0.51100000000E-03 0. -1.
    9900012    2    1    2    0    0  0.37278610950E+01  0.28329198803E+02  0.34823459141E+02  0.46142314749E+02  0.99999725323E+01 0.  0.
         12    1    1    2    0    0 -0.37278610950E+01 -0.28329198803E+02 -0.34823459141E+02  0.45045685251E+02  0.00000000000E+00 0. -1.
         11    1    3    3    0    0  0.48733252857E+01  0.20228138880E+02  0.27763795128E+02  0.34695175775E+02  0.51100000000E-03 0.  1.
        -11    1    3    3    0    0 -0.12394169206E+01  0.67074717816E+01  0.35925742031E+01  0.77092750418E+01  0.51100000000E-03 0. -1.
        -12    1    3    3    0    0  0.93952729868E-01  0.13935881421E+01  0.34670898102E+01  0.37378639324E+01  0.00000000000E+00 0.  1.
</event>
<event>
 7    1  0.1466590E-008  0.4614232E+02  0.7816164E-02  0.1320468E+00
        -11   -1    0    0    0    0  0.00000000000E+00  0.00000000000E+00  0.45593999997E+02  0.45594000000E+02  0.51100000000E-03 0.  1.
         11   -1    0    0    0    0 -0.00000000000E+00 -0.00000000000E+00 -0.45593999997E+02  0.45594000000E+02  0.51100000000E-03 0. -1.
    9900012    2    1    2    0    0  0.24517433938E+02  0.11052628296E+02  0.36136524213E+02  0.46142317173E+02  0.99999946333E+01 0.  0.
         12    1    1    2    0    0 -0.24517433938E+02 -0.11052628296E+02 -0.36136524213E+02  0.45045682827E+02  0.00000000000E+00 0. -1.
         11    1    3    3    0    0  0.26483829237E+01  0.25909086964E+00  0.93820949125E+01  0.97521672154E+01  0.51100000000E-03 0. -1.
        -11    1    3    3    0    0  0.13962057774E+02  0.49008566552E+01  0.16512498624E+02  0.22172506947E+02  0.51100000000E-03 0.  1.
        -12    1    3    3    0    0  0.79069932406E+01  0.58926807716E+01  0.10241930676E+02  0.14217643010E+02  0.00000000000E+00 0.  1.
</event>
<event>
 7    1  0.1466590E-008  0.4614232E+02  0.7816164E-02  0.1320468E+00
        -11   -1    0    0    0    0  0.00000000000E+00  0.00000000000E+00  0.45593999997E+02  0.45594000000E+02  0.51100000000E-03 0.  1.
         11   -1    0    0    0    0 -0.00000000000E+00 -0.00000000000E+00 -0.45593999997E+02  0.45594000000E+02  0.51100000000E-03 0. -1.
    9900012    2    1    2    0    0  0.30368434293E+02 -0.32634857018E+01  0.33109234600E+02  0.46142317009E+02  0.99999931394E+01 0.  0.
         12    1    1    2    0    0 -0.30368434293E+02  0.32634857018E+01 -0.33109234600E+02  0.45045682991E+02  0.00000000000E+00 0. -1.
         11    1    3    3    0    0  0.14179987914E+01 -0.81233541640E+00  0.26842420255E+00  0.16560981899E+01  0.51100000000E-03 0. -1.
        -11    1    3    3    0    0  0.27008896137E+02 -0.32994050345E+01  0.27256234652E+02  0.38513229828E+02  0.51100000000E-03 0.  1.
        -12    1    3    3    0    0  0.19415393643E+01  0.84825474913E+00  0.55845757454E+01  0.59729889904E+01  0.00000000000E+00 0.  1.
</event>
<event>
 7    1  0.1466590E-008  0.4614232E+02  0.7816164E-02  0.1320468E+00
        -11   -1    0    0    0    0  0.00000000000E+00  0.00000000000E+00  0.45593999997E+02  0.45594000000E+02  0.51100000000E-03 0. -1.
         11   -1    0    0    0    0 -0.00000000000E+00 -0.00000000000E+00 -0.45593999997E+02  0.45594000000E+02  0.51100000000E-03 0.  1.
    9900012    2    1    2    0    0 -0.88073583322E+00  0.35712075490E+02 -0.27440575370E+02  0.46142320872E+02  0.10000028372E+02 0.  0.
         12    1    1    2    0    0  0.88073583322E+00 -0.35712075490E+02  0.27440575370E+02  0.45045679128E+02  0.00000000000E+00 0. -1.
         11    1    3    3    0    0  0.47112277554E+00  0.84048678322E+01 -0.11929811570E+02  0.14600827521E+02  0.51100000000E-03 0. -1.
        -11    1    3    3    0    0 -0.12335822029E+01  0.27134871544E+02 -0.15588939053E+02  0.31318333286E+02  0.51100000000E-03 0.  1.
         12    1    3    3    0    0 -0.11827640582E+00  0.17233611407E+00  0.78175253195E-01  0.22316006497E+00  0.00000000000E+00 0. -1.
</event>
<event>
 7    1  0.1466590E-008  0.4614232E+02  0.7816164E-02  0.1320468E+00
        -11   -1    0    0    0    0  0.00000000000E+00  0.00000000000E+00  0.45593999997E+02  0.45594000000E+02  0.51100000000E-03 0.  1.
         11   -1    0    0    0    0 -0.00000000000E+00 -0.00000000000E+00 -0.45593999997E+02  0.45594000000E+02  0.51100000000E-03 0. -1.
    9900012    2    1    2    0    0 -0.66197482579E+01 -0.26194539142E+01  0.44479557936E+02  0.46142315634E+02  0.99999806010E+01 0.  0.
         12    1    1    2    0    0  0.66197482579E+01  0.26194539142E+01 -0.44479557936E+02  0.45045684366E+02  0.00000000000E+00 0. -1.
         11    1    3    3    0    0 -0.61499373934E+00 -0.46247838598E+01  0.10248768333E+02  0.11260732465E+02  0.51100000000E-03 0. -1.
        -11    1    3    3    0    0 -0.17786505288E+01  0.15612221318E+01  0.96342404965E+01  0.99206654240E+01  0.51100000000E-03 0.  1.
         12    1    3    3    0    0 -0.42261039898E+01  0.44410781376E+00  0.24596549107E+02  0.24960917744E+02  0.00000000000E+00 0. -1.
</event>
<event>
 7    1  0.1466590E-008  0.4614232E+02  0.7816164E-02  0.1320468E+00
        -11   -1    0    0    0    0  0.00000000000E+00  0.00000000000E+00  0.45593999997E+02  0.45594000000E+02  0.51100000000E-03 0. -1.
         11   -1    0    0    0    0 -0.00000000000E+00 -0.00000000000E+00 -0.45593999997E+02  0.45594000000E+02  0.51100000000E-03 0.  1.
    9900012    2    1    2    0    0  0.35969054284E+02  0.16155949132E+02 -0.21779029909E+02  0.46142315388E+02  0.99999783558E+01 0.  0.
         12    1    1    2    0    0 -0.35969054284E+02 -0.16155949132E+02  0.21779029909E+02  0.45045684612E+02  0.00000000000E+00 0. -1.
         11    1    3    3    0    0  0.67446928461E+01  0.38776222158E+00 -0.20603317672E+01  0.70630169461E+01  0.51100000000E-03 0. -1.
        -11    1    3    3    0    0  0.64663552552E+01  0.48045848992E+01 -0.75464414325E+01  0.11038413151E+02  0.51100000000E-03 0.  1.
        -12    1    3    3    0    0  0.22758006183E+02  0.10963602011E+02 -0.12172256709E+02  0.28040885290E+02  0.00000000000E+00 0.  1.
</event>
<event>
 7    1  0.1466590E-008  0.4614232E+02  0.7816164E-02  0.1320468E+00
        -11   -1    0    0    0    0  0.00000000000E+00  0.00000000000E+00  0.45593999997E+02  0.45594000000E+02  0.51100000000E-03 0.  1.
         11   -1    0    0    0    0 -0.00000000000E+00 -0.00000000000E+00 -0.45593999997E+02  0.45594000000E+02  0.51100000000E-03 0. -1.
    9900012    2    1    2    0    0  0.12122505900E+02 -0.38716406487E+02  0.19575448848E+02  0.46142317874E+02  0.10000001031E+02 0.  0.
         12    1    1    2    0    0 -0.12122505900E+02  0.38716406487E+02 -0.19575448848E+02  0.45045682126E+02  0.00000000000E+00 0. -1.
         11    1    3    3    0    0  0.56019747136E+01 -0.64043015248E+01  0.29880676893E+01  0.90180789245E+01  0.51100000000E-03 0. -1.
        -11    1    3    3    0    0  0.61232408479E+01 -0.32156890080E+02  0.16588003353E+02  0.36697704473E+02  0.51100000000E-03 0.  1.
        -12    1    3    3    0    0  0.39729033830E+00 -0.15521488259E+00 -0.62219381633E-03  0.42653447670E+00  0.00000000000E+00 0.  1.
</event>
<event>
 7    1  0.1466590E-008  0.4614232E+02  0.7816164E-02  0.1320468E+00
        -11   -1    0    0    0    0  0.00000000000E+00  0.00000000000E+00  0.45593999997E+02  0.45594000000E+02  0.51100000000E-03 0. -1.
         11   -1    0    0    0    0 -0.00000000000E+00 -0.00000000000E+00 -0.45593999997E+02  0.45594000000E+02  0.51100000000E-03 0.  1.
    9900012    2    1    2    0    0  0.33435697291E+02  0.25985078987E+02 -0.15360446359E+02  0.46142317680E+02  0.99999992595E+01 0.  0.
         12    1    1    2    0    0 -0.33435697291E+02 -0.25985078987E+02  0.15360446359E+02  0.45045682320E+02  0.00000000000E+00 0. -1.
         11    1    3    3    0    0  0.33639485730E+01  0.10684841110E+01 -0.25647752489E+01  0.43630127935E+01  0.51100000000E-03 0. -1.
        -11    1    3    3    0    0  0.21429367454E+02  0.18293915038E+02 -0.12662191808E+02  0.30890390392E+02  0.51100000000E-03 0.  1.
        -12    1    3    3    0    0  0.86423812639E+01  0.66226798381E+01 -0.13347930262E+00  0.10888914495E+02  0.00000000000E+00 0.  1.
</event>
<event>
 7    1  0.1466590E-008  0.4614232E+02  0.7816164E-02  0.1320468E+00
        -11   -1    0    0    0    0  0.00000000000E+00  0.00000000000E+00  0.45593999997E+02  0.45594000000E+02  0.51100000000E-03 0.  1.
         11   -1    0    0    0    0 -0.00000000000E+00 -0.00000000000E+00 -0.45593999997E+02  0.45594000000E+02  0.51100000000E-03 0. -1.
    9900012    2    1    2    0    0 -0.94302777265E+01 -0.73277243822E+01  0.43433718437E+02  0.46142316745E+02  0.99999907358E+01 0.  0.
         12    1    1    2    0    0  0.94302777265E+01  0.73277243822E+01 -0.43433718437E+02  0.45045683255E+02  0.00000000000E+00 0. -1.
         11    1    3    3    0    0  0.45127181395E+00 -0.12320112503E+00  0.11372127572E+02  0.11381744618E+02  0.51100000000E-03 0. -1.
        -11    1    3    3    0    0 -0.17629843314E+01 -0.23028865365E+01  0.14645005186E+02  0.14929419859E+02  0.51100000000E-03 0.  1.
         12    1    3    3    0    0 -0.81185652091E+01 -0.49016367207E+01  0.17416585679E+02  0.19831152269E+02  0.00000000000E+00 0. -1.
</event>
<event>
 7    1  0.1466590E-008  0.4614232E+02  0.7816164E-02  0.1320468E+00
        -11   -1    0    0    0    0  0.00000000000E+00  0.00000000000E+00  0.45593999997E+02  0.45594000000E+02  0.51100000000E-03 0. -1.
         11   -1    0    0    0    0 -0.00000000000E+00 -0.00000000000E+00 -0.45593999997E+02  0.45594000000E+02  0.51100000000E-03 0.  1.
    9900012    2    1    2    0    0  0.31260687801E+02  0.58541272003E+01 -0.31900031729E+02  0.46142318394E+02  0.10000005767E+02 0.  0.
         12    1    1    2    0    0 -0.31260687801E+02 -0.58541272003E+01  0.31900031729E+02  0.45045681606E+02  0.00000000000E+00 0. -1.
         11    1    3    3    0    0  0.36583107074E+01  0.20679430823E+01 -0.45381799848E+01  0.61850386950E+01  0.51100000000E-03 0. -1.
        -11    1    3    3    0    0  0.12485631847E+02  0.58381409470E+01 -0.14473183040E+02  0.19986193232E+02  0.51100000000E-03 0.  1.
        -12    1    3    3    0    0  0.15116745247E+02 -0.20519568290E+01 -0.12888668704E+02  0.19971086467E+02  0.00000000000E+00 0.  1.
</event>
<event>
 7    1  0.1466590E-008  0.4614232E+02  0.7816164E-02  0.1320468E+00
        -11   -1    0    0    0    0  0.00000000000E+00  0.00000000000E+00  0.45593999997E+02  0.45594000000E+02  0.51100000000E-03 0.  1.
         11   -1    0    0    0    0 -0.00000000000E+00 -0.00000000000E+00 -0.45593999997E+02  0.45594000000E+02  0.51100000000E-03 0. -1.
    9900012    2    1    2    0    0 -0.26729524556E+02  0.14385392374E+02  0.33282224194E+02  0.46142318253E+02  0.10000004487E+02 0.  0.
         12    1    1    2    0    0  0.26729524556E+02 -0.14385392374E+02 -0.33282224194E+02  0.45045681747E+02  0.00000000000E+00 0. -1.
         11    1    3    3    0    0  0.11041208480E+00 -0.26667659096E+00  0.11622424219E+00  0.31115200180E+00  0.51100000000E-03 0. -1.
        -11    1    3    3    0    0 -0.22335300254E+02  0.92917869767E+01  0.22279116389E+02  0.32887109480E+02  0.51100000000E-03 0.  1.
        -12    1    3    3    0    0 -0.45046363865E+01  0.53602819879E+01  0.10886883564E+02  0.12944056771E+02  0.00000000000E+00 0.  1.
</event>
<event>
 7    1  0.1466590E-008  0.4614232E+02  0.7816164E-02  0.1320468E+00
        -11   -1    0    0    0    0  0.00000000000E+00  0.00000000000E+00  0.45593999997E+02  0.45594000000E+02  0.51100000000E-03 0.  1.
         11   -1    0    0    0    0 -0.00000000000E+00 -0.00000000000E+00 -0.45593999997E+02  0.45594000000E+02  0.51100000000E-03 0. -1.
    9900012    2    1    2    0    0 -0.55539342815E+00 -0.77597809436E+01  0.44368805235E+02  0.46142317186E+02  0.99999947560E+01 0.  0.
         12    1    1    2    0    0  0.55539342815E+00  0.77597809436E+01 -0.44368805235E+02  0.45045682814E+02  0.00000000000E+00 0. -1.
         11    1    3    3    0    0  0.92820560335E+00 -0.23896276088E+01  0.66940482597E+01  0.71681356094E+01  0.51100000000E-03 0. -1.
        -11    1    3    3    0    0 -0.37305101772E+01  0.15374463659E+00  0.19238431038E+02  0.19597386884E+02  0.51100000000E-03 0.  1.
        -12    1    3    3    0    0  0.22469111457E+01 -0.55238979713E+01  0.18436325938E+02  0.19376794693E+02  0.00000000000E+00 0.  1.
</event>
<event>
 7    1  0.1466590E-008  0.4614232E+02  0.7816164E-02  0.1320468E+00
        -11   -1    0    0    0    0  0.00000000000E+00  0.00000000000E+00  0.45593999997E+02  0.45594000000E+02  0.51100000000E-03 0.  1.
         11   -1    0    0    0    0 -0.00000000000E+00 -0.00000000000E+00 -0.45593999997E+02  0.45594000000E+02  0.51100000000E-03 0. -1.
    9900012    2    1    2    0    0  0.21115675761E+02 -0.24218621683E+02  0.31570560837E+02  0.46142315294E+02  0.99999775066E+01 0.  0.
         12    1    1    2    0    0 -0.21115675761E+02  0.24218621683E+02 -0.31570560837E+02  0.45045684706E+02  0.00000000000E+00 0. -1.
         11    1    3    3    0    0  0.15109966604E+01  0.19620406049E+00  0.17175594549E+00  0.15333320928E+01  0.51100000000E-03 0. -1.
        -11    1    3    3    0    0  0.77535857407E+01 -0.10716241078E+02  0.16555279562E+02  0.21190403401E+02  0.51100000000E-03 0.  1.
        -12    1    3    3    0    0  0.11851093360E+02 -0.13698584665E+02  0.14843525329E+02  0.23418579800E+02  0.00000000000E+00 0.  1.
</event>
<event>
 7    1  0.1466590E-008  0.4614232E+02  0.7816164E-02  0.1320468E+00
        -11   -1    0    0    0    0  0.00000000000E+00  0.00000000000E+00  0.45593999997E+02  0.45594000000E+02  0.51100000000E-03 0.  1.
         11   -1    0    0    0    0 -0.00000000000E+00 -0.00000000000E+00 -0.45593999997E+02  0.45594000000E+02  0.51100000000E-03 0. -1.
    9900012    2    1    2    0    0  0.16217498005E+02  0.56761014227E+01  0.41639982483E+02  0.46142317520E+02  0.99999978001E+01 0.  0.
         12    1    1    2    0    0 -0.16217498005E+02 -0.56761014227E+01 -0.41639982483E+02  0.45045682480E+02  0.00000000000E+00 0. -1.
         11    1    3    3    0    0 -0.12675942999E+00  0.30001143338E+01  0.90284441984E+01  0.95147022483E+01  0.51100000000E-03 0. -1.
        -11    1    3    3    0    0  0.88498836170E+01  0.63867793930E+00  0.18588347412E+02  0.20597451524E+02  0.51100000000E-03 0.  1.
         12    1    3    3    0    0  0.74943738182E+01  0.20373091496E+01  0.14023190873E+02  0.16030163747E+02  0.00000000000E+00 0. -1.
</event>
<event>
 7    1  0.1466590E-008  0.4614232E+02  0.7816164E-02  0.1320468E+00
        -11   -1    0    0    0    0  0.00000000000E+00  0.00000000000E+00  0.45593999997E+02  0.45594000000E+02  0.51100000000E-03 0.  1.
         11   -1    0    0    0    0 -0.00000000000E+00 -0.00000000000E+00 -0.45593999997E+02  0.45594000000E+02  0.51100000000E-03 0. -1.
    9900012    2    1    2    0    0  0.13893647684E+02  0.83497063052E+01  0.42028115140E+02  0.46142317592E+02  0.99999984590E+01 0.  0.
         12    1    1    2    0    0 -0.13893647684E+02 -0.83497063052E+01 -0.42028115140E+02  0.45045682408E+02  0.00000000000E+00 0. -1.
         11    1    3    3    0    0  0.17253515824E+01 -0.19649766609E+00  0.92108337308E+01  0.93730948834E+01  0.51100000000E-03 0. -1.
        -11    1    3    3    0    0  0.99828604764E+01  0.96694702116E+01  0.29772358422E+02  0.32856498348E+02  0.51100000000E-03 0.  1.
        -12    1    3    3    0    0  0.21854356254E+01 -0.11232662403E+01  0.30449229878E+01  0.39127243605E+01  0.00000000000E+00 0.  1.
</event>
<event>
 7    1  0.1466590E-008  0.4614232E+02  0.7816164E-02  0.1320468E+00
        -11   -1    0    0    0    0  0.00000000000E+00  0.00000000000E+00  0.45593999997E+02  0.45594000000E+02  0.51100000000E-03 0.  1.
         11   -1    0    0    0    0 -0.00000000000E+00 -0.00000000000E+00 -0.45593999997E+02  0.45594000000E+02  0.51100000000E-03 0. -1.
    9900012    2    1    2    0    0  0.26964058096E+02  0.35844868741E+02  0.41471017151E+01  0.46142317669E+02  0.99999991566E+01 0.  0.
         12    1    1    2    0    0 -0.26964058096E+02 -0.35844868741E+02 -0.41471017151E+01  0.45045682331E+02  0.00000000000E+00 0. -1.
         11    1    3    3    0    0  0.94525178440E+01  0.10477086535E+02 -0.20833482767E+01  0.14263932703E+02  0.51100000000E-03 0. -1.
        -11    1    3    3    0    0  0.94758200456E+01  0.15870188269E+02  0.60068248725E+01  0.19435431216E+02  0.51100000000E-03 0.  1.
        -12    1    3    3    0    0  0.80357202063E+01  0.94975939362E+01  0.22362511923E+00  0.12442953749E+02  0.00000000000E+00 0.  1.
</event>
<event>
 7    1  0.1466590E-008  0.4614232E+02  0.7816164E-02  0.1320468E+00
        -11   -1    0    0    0    0  0.00000000000E+00  0.00000000000E+00  0.45593999997E+02  0.45594000000E+02  0.51100000000E-03 0. -1.
         11   -1    0    0    0    0 -0.00000000000E+00 -0.00000000000E+00 -0.45593999997E+02  0.45594000000E+02  0.51100000000E-03 0.  1.
    9900012    2    1    2    0    0  0.16488820231E+02 -0.32174745040E+02 -0.26870394749E+02  0.46142317355E+02  0.99999962931E+01 0.  0.
         12    1    1    2    0    0 -0.16488820231E+02  0.32174745040E+02  0.26870394749E+02  0.45045682645E+02  0.00000000000E+00 0. -1.
         11    1    3    3    0    0  0.77840877127E+00 -0.16328058490E+00 -0.16794005301E+01  0.18582161247E+01  0.51100000000E-03 0. -1.
        -11    1    3    3    0    0  0.99604534252E+01 -0.26960490828E+02 -0.19199715584E+02  0.34564545084E+02  0.51100000000E-03 0.  1.
         12    1    3    3    0    0  0.57499580346E+01 -0.50509736276E+01 -0.59912786355E+01  0.97195561460E+01  0.00000000000E+00 0. -1.
</event>
<event>
 7    1  0.1466590E-008  0.4614232E+02  0.7816164E-02  0.1320468E+00
        -11   -1    0    0    0    0  0.00000000000E+00  0.00000000000E+00  0.45593999997E+02  0.45594000000E+02  0.51100000000E-03 0. -1.
         11   -1    0    0    0    0 -0.00000000000E+00 -0.00000000000E+00 -0.45593999997E+02  0.45594000000E+02  0.51100000000E-03 0.  1.
    9900012    2    1    2    0    0  0.99705602191E+01 -0.32813938404E+02 -0.29205254271E+02  0.46142317614E+02  0.99999986543E+01 0.  0.
         12    1    1    2    0    0 -0.99705602191E+01  0.32813938404E+02  0.29205254271E+02  0.45045682386E+02  0.00000000000E+00 0. -1.
         11    1    3    3    0    0  0.73924302807E+00 -0.95168711079E+01 -0.44752634072E+01  0.10542547072E+02  0.51100000000E-03 0. -1.
        -11    1    3    3    0    0  0.80627866962E+01 -0.18749529321E+02 -0.17031454188E+02  0.26582396640E+02  0.51100000000E-03 0.  1.
         12    1    3    3    0    0  0.11685304948E+01 -0.45475379742E+01 -0.76985366751E+01  0.90173739017E+01  0.00000000000E+00 0. -1.
</event>
<event>
 7    1  0.1466590E-008  0.4614232E+02  0.7816164E-02  0.1320468E+00
        -11   -1    0    0    0    0  0.00000000000E+00  0.00000000000E+00  0.45593999997E+02  0.45594000000E+02  0.51100000000E-03 0.  1.
         11   -1    0    0    0    0 -0.00000000000E+00 -0.00000000000E+00 -0.45593999997E+02  0.45594000000E+02  0.51100000000E-03 0. -1.
    9900012    2    1    2    0    0  0.19787519682E+02  0.28668332952E+02  0.28560359031E+02  0.46142319215E+02  0.10000013257E+02 0.  0.
         12    1    1    2    0    0 -0.19787519682E+02 -0.28668332952E+02 -0.28560359031E+02  0.45045680785E+02  0.00000000000E+00 0. -1.
         11    1    3    3    0    0  0.99980242573E+01  0.18797743055E+02  0.16707834733E+02  0.27064134472E+02  0.51100000000E-03 0. -1.
        -11    1    3    3    0    0  0.24517073295E+01  0.53511104300E+01  0.71487525053E+01  0.92601249618E+01  0.51100000000E-03 0.  1.
         12    1    3    3    0    0  0.73377880954E+01  0.45194794672E+01  0.47037717927E+01  0.98180597811E+01  0.00000000000E+00 0. -1.
</event>
<event>
 7    1  0.1466590E-008  0.4614232E+02  0.7816164E-02  0.1320468E+00
        -11   -1    0    0    0    0  0.00000000000E+00  0.00000000000E+00  0.45593999997E+02  0.45594000000E+02  0.51100000000E-03 0.  1.
         11   -1    0    0    0    0 -0.00000000000E+00 -0.00000000000E+00 -0.45593999997E+02  0.45594000000E+02  0.51100000000E-03 0. -1.
    9900012    2    1    2    0    0  0.47681564762E+01 -0.81905608482E+00  0.44785122444E+02  0.46142319171E+02  0.10000012857E+02 0.  0.
         12    1    1    2    0    0 -0.47681564762E+01  0.81905608482E+00 -0.44785122444E+02  0.45045680829E+02  0.00000000000E+00 0. -1.
         11    1    3    3    0    0 -0.80989164090E+00 -0.14269521731E+01  0.12937001035E+01  0.20894442307E+01  0.51100000000E-03 0. -1.
        -11    1    3    3    0    0  0.46905000965E+01 -0.97101087418E+00  0.23729111592E+02  0.24207734104E+02  0.51100000000E-03 0.  1.
         12    1    3    3    0    0  0.88754802057E+00  0.15789069625E+01  0.19762310748E+02  0.19845140836E+02  0.00000000000E+00 0. -1.
</event>
<event>
 7    1  0.1466590E-008  0.4614232E+02  0.7816164E-02  0.1320468E+00
        -11   -1    0    0    0    0  0.00000000000E+00  0.00000000000E+00  0.45593999997E+02  0.45594000000E+02  0.51100000000E-03 0.  1.
         11   -1    0    0    0    0 -0.00000000000E+00 -0.00000000000E+00 -0.45593999997E+02  0.45594000000E+02  0.51100000000E-03 0. -1.
    9900012    2    1    2    0    0  0.14692176828E+02 -0.27018939312E+02  0.32912466619E+02  0.46142316517E+02  0.99999886589E+01 0.  0.
         12    1    1    2    0    0 -0.14692176828E+02  0.27018939312E+02 -0.32912466619E+02  0.45045683483E+02  0.00000000000E+00 0. -1.
         11    1    3    3    0    0  0.14754838173E+01 -0.66429053755E+01  0.60915877616E+01  0.91330545844E+01  0.51100000000E-03 0. -1.
        -11    1    3    3    0    0  0.13968593876E+01 -0.88126589382E+01  0.83841267637E+01  0.12243682271E+02  0.51100000000E-03 0.  1.
         12    1    3    3    0    0  0.11819833623E+02 -0.11563374998E+02  0.18436752094E+02  0.24765579662E+02  0.00000000000E+00 0. -1.
</event>
<event>
 7    1  0.1466590E-008  0.4614232E+02  0.7816164E-02  0.1320468E+00
        -11   -1    0    0    0    0  0.00000000000E+00  0.00000000000E+00  0.45593999997E+02  0.45594000000E+02  0.51100000000E-03 0.  1.
         11   -1    0    0    0    0 -0.00000000000E+00 -0.00000000000E+00 -0.45593999997E+02  0.45594000000E+02  0.51100000000E-03 0. -1.
    9900012    2    1    2    0    0  0.18584606928E+02  0.34510565691E+02  0.22197899474E+02  0.46142317632E+02  0.99999988193E+01 0.  0.
         12    1    1    2    0    0 -0.18584606928E+02 -0.34510565691E+02 -0.22197899474E+02  0.45045682368E+02  0.00000000000E+00 0. -1.
         11    1    3    3    0    0  0.43961141055E+01  0.42191079716E+01  0.50566108461E+01  0.79180808795E+01  0.51100000000E-03 0. -1.
        -11    1    3    3    0    0  0.67984317116E+01  0.10406880326E+02  0.96148916690E+01  0.15715214727E+02  0.51100000000E-03 0.  1.
         12    1    3    3    0    0  0.73900611112E+01  0.19884577393E+02  0.75263969590E+01  0.22509022025E+02  0.00000000000E+00 0. -1.
</event>
<event>
 7    1  0.1466590E-008  0.4614232E+02  0.7816164E-02  0.1320468E+00
        -11   -1    0    0    0    0  0.00000000000E+00  0.00000000000E+00  0.45593999997E+02  0.45594000000E+02  0.51100000000E-03 0. -1.
         11   -1    0    0    0    0 -0.00000000000E+00 -0.00000000000E+00 -0.45593999997E+02  0.45594000000E+02  0.51100000000E-03 0.  1.
    9900012    2    1    2    0    0 -0.39049354285E+02 -0.59930466860E+01 -0.21641275302E+02  0.46142317906E+02  0.10000001317E+02 0.  0.
         12    1    1    2    0    0  0.39049354285E+02  0.59930466860E+01  0.21641275302E+02  0.45045682094E+02  0.00000000000E+00 0. -1.
         11    1    3    3    0    0 -0.20678670514E+02 -0.24168470787E+01 -0.70925949331E+01  0.21994396267E+02  0.51100000000E-03 0. -1.
        -11    1    3    3    0    0  0.57823371932E-01 -0.58783784959E-02 -0.99081069757E+00  0.99251407910E+00  0.51100000000E-03 0.  1.
         12    1    3    3    0    0 -0.18428507143E+02 -0.35703212288E+01 -0.13557869671E+02  0.23155407559E+02  0.00000000000E+00 0. -1.
</event>
<event>
 7    1  0.1466590E-008  0.4614232E+02  0.7816164E-02  0.1320468E+00
        -11   -1    0    0    0    0  0.00000000000E+00  0.00000000000E+00  0.45593999997E+02  0.45594000000E+02  0.51100000000E-03 0.  1.
         11   -1    0    0    0    0 -0.00000000000E+00 -0.00000000000E+00 -0.45593999997E+02  0.45594000000E+02  0.51100000000E-03 0. -1.
    9900012    2    1    2    0    0  0.37825326777E+02 -0.70388879511E+01  0.23426741496E+02  0.46142317560E+02  0.99999981620E+01 0.  0.
         12    1    1    2    0    0 -0.37825326777E+02  0.70388879511E+01 -0.23426741496E+02  0.45045682440E+02  0.00000000000E+00 0. -1.
         11    1    3    3    0    0  0.21003215193E+02 -0.22915321135E+01  0.17590550532E+02  0.27492064967E+02  0.51100000000E-03 0.  1.
        -11    1    3    3    0    0  0.14694516723E+02 -0.34652709634E+01  0.57782345199E+01  0.16165547284E+02  0.51100000000E-03 0. -1.
         12    1    3    3    0    0  0.21275948612E+01 -0.12820848742E+01  0.57956443896E-01  0.24847053080E+01  0.00000000000E+00 0. -1.
</event>
<event>
 7    1  0.1466590E-008  0.4614232E+02  0.7816164E-02  0.1320468E+00
        -11   -1    0    0    0    0  0.00000000000E+00  0.00000000000E+00  0.45593999997E+02  0.45594000000E+02  0.51100000000E-03 0.  1.
         11   -1    0    0    0    0 -0.00000000000E+00 -0.00000000000E+00 -0.45593999997E+02  0.45594000000E+02  0.51100000000E-03 0. -1.
    9900012    2    1    2    0    0 -0.12136531630E+02 -0.43078342684E+02  0.51063239117E+01  0.46142317052E+02  0.99999935297E+01 0.  0.
         12    1    1    2    0    0  0.12136531630E+02  0.43078342684E+02 -0.51063239117E+01  0.45045682948E+02  0.00000000000E+00 0. -1.
         11    1    3    3    0    0 -0.14878019715E+01 -0.31821417156E+01  0.13743288509E+01  0.37720499275E+01  0.51100000000E-03 0. -1.
        -11    1    3    3    0    0 -0.89206831041E+00 -0.10997282215E+02 -0.23187535464E+01  0.11274423278E+02  0.51100000000E-03 0.  1.
        -12    1    3    3    0    0 -0.97566613477E+01 -0.28898918754E+02  0.60507486072E+01  0.31095843846E+02  0.00000000000E+00 0.  1.
</event>
<event>
 7    1  0.1466590E-008  0.4614232E+02  0.7816164E-02  0.1320468E+00
        -11   -1    0    0    0    0  0.00000000000E+00  0.00000000000E+00  0.45593999997E+02  0.45594000000E+02  0.51100000000E-03 0.  1.
         11   -1    0    0    0    0 -0.00000000000E+00 -0.00000000000E+00 -0.45593999997E+02  0.45594000000E+02  0.51100000000E-03 0. -1.
    9900012    2    1    2    0    0 -0.22204154288E+02  0.31441851500E+02  0.23398693995E+02  0.46142319030E+02  0.10000011574E+02 0.  0.
         12    1    1    2    0    0  0.22204154288E+02 -0.31441851500E+02 -0.23398693995E+02  0.45045680970E+02  0.00000000000E+00 0. -1.
         11    1    3    3    0    0 -0.14147645997E+01  0.24447655251E+01  0.44780451080E+01  0.52944617853E+01  0.51100000000E-03 0. -1.
        -11    1    3    3    0    0 -0.14859304126E+02  0.24491798740E+02  0.13710203011E+02  0.31758727801E+02  0.51100000000E-03 0.  1.
        -12    1    3    3    0    0 -0.59300855616E+01  0.45052872344E+01  0.52104458759E+01  0.90891294444E+01  0.00000000000E+00 0.  1.
</event>
<event>
 7    1  0.1466590E-008  0.4614232E+02  0.7816164E-02  0.1320468E+00
        -11   -1    0    0    0    0  0.00000000000E+00  0.00000000000E+00  0.45593999997E+02  0.45594000000E+02  0.51100000000E-03 0. -1.
         11   -1    0    0    0    0 -0.00000000000E+00 -0.00000000000E+00 -0.45593999997E+02  0.45594000000E+02  0.51100000000E-03 0.  1.
    9900012    2    1    2    0    0 -0.13448744680E+02 -0.34563603689E+02 -0.25565642531E+02  0.46142317505E+02  0.99999976630E+01 0.  0.
         12    1    1    2    0    0  0.13448744680E+02  0.34563603689E+02  0.25565642531E+02  0.45045682495E+02  0.00000000000E+00 0. -1.
         11    1    3    3    0    0 -0.23167541828E+01 -0.15648813940E+02 -0.96424031192E+01  0.18526431547E+02  0.51100000000E-03 0. -1.
        -11    1    3    3    0    0 -0.79985730319E+01 -0.17115101506E+02 -0.12613499856E+02  0.22715726909E+02  0.51100000000E-03 0.  1.
        -12    1    3    3    0    0 -0.31334174656E+01 -0.17996882426E+01 -0.33097395553E+01  0.49001590493E+01  0.00000000000E+00 0.  1.
</event>
<event>
 7    1  0.1466590E-008  0.4614232E+02  0.7816164E-02  0.1320468E+00
        -11   -1    0    0    0    0  0.00000000000E+00  0.00000000000E+00  0.45593999997E+02  0.45594000000E+02  0.51100000000E-03 0.  1.
         11   -1    0    0    0    0 -0.00000000000E+00 -0.00000000000E+00 -0.45593999997E+02  0.45594000000E+02  0.51100000000E-03 0. -1.
    9900012    2    1    2    0    0 -0.12369342592E+02 -0.29072908337E+02  0.32107301544E+02  0.46142318211E+02  0.10000004106E+02 0.  0.
         12    1    1    2    0    0  0.12369342592E+02  0.29072908337E+02 -0.32107301544E+02  0.45045681789E+02  0.00000000000E+00 0. -1.
         11    1    3    3    0    0 -0.27530609282E-01 -0.30071446096E-01  0.11246060212E+01  0.11253449207E+01  0.51100000000E-03 0. -1.
        -11    1    3    3    0    0 -0.21961142622E+00 -0.10927498298E+01 -0.48697951554E+00  0.12163390476E+01  0.51100000000E-03 0.  1.
        -12    1    3    3    0    0 -0.12122200556E+02 -0.27950087061E+02  0.31469675039E+02  0.43800634243E+02  0.00000000000E+00 0.  1.
</event>
<event>
 7    1  0.1466590E-008  0.4614232E+02  0.7816164E-02  0.1320468E+00
        -11   -1    0    0    0    0  0.00000000000E+00  0.00000000000E+00  0.45593999997E+02  0.45594000000E+02  0.51100000000E-03 0.  1.
         11   -1    0    0    0    0 -0.00000000000E+00 -0.00000000000E+00 -0.45593999997E+02  0.45594000000E+02  0.51100000000E-03 0. -1.
    9900012    2    1    2    0    0 -0.33999063635E+02  0.14113582191E+02  0.25961195339E+02  0.46142321031E+02  0.10000029822E+02 0.  0.
         12    1    1    2    0    0  0.33999063635E+02 -0.14113582191E+02 -0.25961195339E+02  0.45045678969E+02  0.00000000000E+00 0. -1.
         11    1    3    3    0    0  0.43850556787E+00 -0.38748619020E+00  0.46821969647E+00  0.74944154271E+00  0.51100000000E-03 0. -1.
        -11    1    3    3    0    0 -0.28368116454E+02  0.11183437689E+02  0.22284601778E+02  0.37768012740E+02  0.51100000000E-03 0.  1.
         12    1    3    3    0    0 -0.60694527491E+01  0.33176306918E+01  0.32083738650E+01  0.76248667489E+01  0.00000000000E+00 0. -1.
</event>
<event>
 7    1  0.1466590E-008  0.4614232E+02  0.7816164E-02  0.1320468E+00
        -11   -1    0    0    0    0  0.00000000000E+00  0.00000000000E+00  0.45593999997E+02  0.45594000000E+02  0.51100000000E-03 0.  1.
         11   -1    0    0    0    0 -0.00000000000E+00 -0.00000000000E+00 -0.45593999997E+02  0.45594000000E+02  0.51100000000E-03 0. -1.
    9900012    2    1    2    0    0 -0.22863578981E+02  0.68251397172E+01  0.38207165027E+02  0.46142320569E+02  0.10000025606E+02 0.  0.
         12    1    1    2    0    0  0.22863578981E+02 -0.68251397172E+01 -0.38207165027E+02  0.45045679431E+02  0.00000000000E+00 0. -1.
         11    1    3    3    0    0 -0.11149979438E+01 -0.60060555820E+00  0.74448317838E-01  0.12686568742E+01  0.51100000000E-03 0. -1.
        -11    1    3    3    0    0 -0.13102674134E+02  0.65170661413E+01  0.20188733083E+02  0.24934657894E+02  0.51100000000E-03 0.  1.
        -12    1    3    3    0    0 -0.86459069041E+01  0.90867913413E+00  0.17943983626E+02  0.19939005801E+02  0.00000000000E+00 0.  1.
</event>
<event>
 7    1  0.1466590E-008  0.4614232E+02  0.7816164E-02  0.1320468E+00
        -11   -1    0    0    0    0  0.00000000000E+00  0.00000000000E+00  0.45593999997E+02  0.45594000000E+02  0.51100000000E-03 0.  1.
         11   -1    0    0    0    0 -0.00000000000E+00 -0.00000000000E+00 -0.45593999997E+02  0.45594000000E+02  0.51100000000E-03 0. -1.
    9900012    2    1    2    0    0 -0.14361625244E+01  0.29650180704E+02  0.33880931060E+02  0.46142320206E+02  0.10000022299E+02 0.  0.
         12    1    1    2    0    0  0.14361625244E+01 -0.29650180704E+02 -0.33880931060E+02  0.45045679794E+02  0.00000000000E+00 0. -1.
         11    1    3    3    0    0 -0.41011433483E+01  0.15723150342E+02  0.14583477157E+02  0.21833795815E+02  0.51100000000E-03 0. -1.
        -11    1    3    3    0    0  0.15367515395E+01  0.53332596795E+01  0.44400094898E+01  0.71076682979E+01  0.51100000000E-03 0.  1.
         12    1    3    3    0    0  0.11282292844E+01  0.85937706819E+01  0.14857444413E+02  0.17200856093E+02  0.00000000000E+00 0. -1.
</event>
<event>
 7    1  0.1466590E-008  0.4614232E+02  0.7816164E-02  0.1320468E+00
        -11   -1    0    0    0    0  0.00000000000E+00  0.00000000000E+00  0.45593999997E+02  0.45594000000E+02  0.51100000000E-03 0.  1.
         11   -1    0    0    0    0 -0.00000000000E+00 -0.00000000000E+00 -0.45593999997E+02  0.45594000000E+02  0.51100000000E-03 0. -1.
    9900012    2    1    2    0    0 -0.33750406504E+02  0.26127158677E+02  0.14401219607E+02  0.46142317789E+02  0.10000000254E+02 0.  0.
         12    1    1    2    0    0  0.33750406504E+02 -0.26127158677E+02 -0.14401219607E+02  0.45045682211E+02  0.00000000000E+00 0. -1.
         11    1    3    3    0    0 -0.96679223806E+00  0.29542477534E+01  0.72795626301E-01  0.31092710535E+01  0.51100000000E-03 0. -1.
        -11    1    3    3    0    0 -0.27131044322E+02  0.17107350335E+02  0.95605409113E+01  0.33468775661E+02  0.51100000000E-03 0.  1.
        -12    1    3    3    0    0 -0.56525699438E+01  0.60655605882E+01  0.47678830693E+01  0.95642710742E+01  0.00000000000E+00 0.  1.
</event>
<event>
 7    1  0.1466590E-008  0.4614232E+02  0.7816164E-02  0.1320468E+00
        -11   -1    0    0    0    0  0.00000000000E+00  0.00000000000E+00  0.45593999997E+02  0.45594000000E+02  0.51100000000E-03 0.  1.
         11   -1    0    0    0    0 -0.00000000000E+00 -0.00000000000E+00 -0.45593999997E+02  0.45594000000E+02  0.51100000000E-03 0. -1.
    9900012    2    1    2    0    0 -0.71422076939E+01  0.90770875504E+01  0.43539739662E+02  0.46142316755E+02  0.99999908268E+01 0.  0.
         12    1    1    2    0    0  0.71422076939E+01 -0.90770875504E+01 -0.43539739662E+02  0.45045683245E+02  0.00000000000E+00 0. -1.
         11    1    3    3    0    0 -0.47518604420E+01  0.10663534974E+00  0.12538850471E+02  0.13409486200E+02  0.51100000000E-03 0. -1.
        -11    1    3    3    0    0 -0.19638977004E+00  0.80707541234E+01  0.22372790484E+02  0.23784814385E+02  0.51100000000E-03 0.  1.
        -12    1    3    3    0    0 -0.21939574819E+01  0.89969807725E+00  0.86280987075E+01  0.89480161695E+01  0.00000000000E+00 0.  1.
</event>
<event>
 7    1  0.1466590E-008  0.4614232E+02  0.7816164E-02  0.1320468E+00
        -11   -1    0    0    0    0  0.00000000000E+00  0.00000000000E+00  0.45593999997E+02  0.45594000000E+02  0.51100000000E-03 0. -1.
         11   -1    0    0    0    0 -0.00000000000E+00 -0.00000000000E+00 -0.45593999997E+02  0.45594000000E+02  0.51100000000E-03 0.  1.
    9900012    2    1    2    0    0 -0.10062880876E+02 -0.33913428217E+02 -0.27887834387E+02  0.46142317724E+02  0.99999996622E+01 0.  0.
         12    1    1    2    0    0  0.10062880876E+02  0.33913428217E+02  0.27887834387E+02  0.45045682276E+02  0.00000000000E+00 0. -1.
         11    1    3    3    0    0 -0.41479169524E+01 -0.54819165536E+01 -0.84172068645E+01  0.10867658248E+02  0.51100000000E-03 0. -1.
        -11    1    3    3    0    0 -0.42402874091E+01 -0.26569272451E+02 -0.17643385908E+02  0.32174451704E+02  0.51100000000E-03 0.  1.
        -12    1    3    3    0    0 -0.16746765142E+01 -0.18622392117E+01 -0.18272416146E+01  0.31002077715E+01  0.00000000000E+00 0.  1.
</event>
<event>
 7    1  0.1466590E-008  0.4614232E+02  0.7816164E-02  0.1320468E+00
        -11   -1    0    0    0    0  0.00000000000E+00  0.00000000000E+00  0.45593999997E+02  0.45594000000E+02  0.51100000000E-03 0. -1.
         11   -1    0    0    0    0 -0.00000000000E+00 -0.00000000000E+00 -0.45593999997E+02  0.45594000000E+02  0.51100000000E-03 0.  1.
    9900012    2    1    2    0    0 -0.37904380078E+01  0.38132085117E+02 -0.23678897596E+02  0.46142317332E+02  0.99999960894E+01 0.  0.
         12    1    1    2    0    0  0.37904380078E+01 -0.38132085117E+02  0.23678897596E+02  0.45045682668E+02  0.00000000000E+00 0. -1.
         11    1    3    3    0    0 -0.21889872422E+01  0.60859762718E+01 -0.52021290711E+01  0.83001758692E+01  0.51100000000E-03 0. -1.
        -11    1    3    3    0    0 -0.46365877752E+00  0.34829634283E+01  0.47355347164E+00  0.35454572140E+01  0.51100000000E-03 0.  1.
        -12    1    3    3    0    0 -0.11377919881E+01  0.28563145417E+02 -0.18950321997E+02  0.34296684249E+02  0.00000000000E+00 0.  1.
</event>
<event>
 7    1  0.1466590E-008  0.4614232E+02  0.7816164E-02  0.1320468E+00
        -11   -1    0    0    0    0  0.00000000000E+00  0.00000000000E+00  0.45593999997E+02  0.45594000000E+02  0.51100000000E-03 0.  1.
         11   -1    0    0    0    0 -0.00000000000E+00 -0.00000000000E+00 -0.45593999997E+02  0.45594000000E+02  0.51100000000E-03 0. -1.
    9900012    2    1    2    0    0 -0.19296741987E+02  0.27944479816E+01  0.40607146720E+02  0.46142317015E+02  0.99999931938E+01 0.  0.
         12    1    1    2    0    0  0.19296741987E+02 -0.27944479816E+01 -0.40607146720E+02  0.45045682985E+02  0.00000000000E+00 0. -1.
         11    1    3    3    0    0 -0.41738803707E+01  0.25892105055E+01  0.46548517733E+01  0.67670476341E+01  0.51100000000E-03 0. -1.
        -11    1    3    3    0    0 -0.90017535385E+01  0.25136019074E+01  0.23891597412E+02  0.25654593906E+02  0.51100000000E-03 0.  1.
        -12    1    3    3    0    0 -0.61211080777E+01 -0.23083644313E+01  0.12060697535E+02  0.13720675475E+02  0.00000000000E+00 0.  1.
</event>
<event>
 7    1  0.1466590E-008  0.4614232E+02  0.7816164E-02  0.1320468E+00
        -11   -1    0    0    0    0  0.00000000000E+00  0.00000000000E+00  0.45593999997E+02  0.45594000000E+02  0.51100000000E-03 0.  1.
         11   -1    0    0    0    0 -0.00000000000E+00 -0.00000000000E+00 -0.45593999997E+02  0.45594000000E+02  0.51100000000E-03 0. -1.
    9900012    2    1    2    0    0  0.37501846586E+00 -0.42044358192E+02  0.16163061958E+02  0.46142320224E+02  0.10000022458E+02 0.  0.
         12    1    1    2    0    0 -0.37501846586E+00  0.42044358192E+02 -0.16163061958E+02  0.45045679776E+02  0.00000000000E+00 0. -1.
         11    1    3    3    0    0 -0.62777751103E+00 -0.95894622063E+01 -0.38985671596E+00  0.96178936638E+01  0.51100000000E-03 0. -1.
        -11    1    3    3    0    0  0.74336348575E+00 -0.28356291740E+02  0.15308376954E+02  0.32233185939E+02  0.51100000000E-03 0.  1.
         12    1    3    3    0    0  0.25943249114E+00 -0.40986042454E+01  0.12445417198E+01  0.42912406213E+01  0.00000000000E+00 0. -1.
</event>
<event>
 7    1  0.1466590E-008  0.4614232E+02  0.7816164E-02  0.1320468E+00
        -11   -1    0    0    0    0  0.00000000000E+00  0.00000000000E+00  0.45593999997E+02  0.45594000000E+02  0.51100000000E-03 0.  1.
         11   -1    0    0    0    0 -0.00000000000E+00 -0.00000000000E+00 -0.45593999997E+02  0.45594000000E+02  0.51100000000E-03 0. -1.
    9900012    2    1    2    0    0  0.43336763265E+02  0.12286955976E+02  0.26293870491E+00  0.46142317918E+02  0.10000001431E+02 0.  0.
         12    1    1    2    0    0 -0.43336763265E+02 -0.12286955976E+02 -0.26293870491E+00  0.45045682082E+02  0.00000000000E+00 0. -1.
         11    1    3    3    0    0  0.93369311950E+01  0.52568465891E+00  0.31705962385E+01  0.98745789413E+01  0.51100000000E-03 0. -1.
        -11    1    3    3    0    0  0.91170629070E+01  0.15682577134E+01 -0.36411528895E+00  0.92581233795E+01  0.51100000000E-03 0.  1.
         12    1    3    3    0    0  0.24882769163E+02  0.10193013604E+02 -0.25435422446E+01  0.27009615597E+02  0.00000000000E+00 0. -1.
</event>
<event>
 7    1  0.1466590E-008  0.4614232E+02  0.7816164E-02  0.1320468E+00
        -11   -1    0    0    0    0  0.00000000000E+00  0.00000000000E+00  0.45593999997E+02  0.45594000000E+02  0.51100000000E-03 0. -1.
         11   -1    0    0    0    0 -0.00000000000E+00 -0.00000000000E+00 -0.45593999997E+02  0.45594000000E+02  0.51100000000E-03 0.  1.
    9900012    2    1    2    0    0  0.35312569642E+02  0.86709633574E+01 -0.26588534629E+02  0.46142319253E+02  0.10000013601E+02 0.  0.
         12    1    1    2    0    0 -0.35312569642E+02 -0.86709633574E+01  0.26588534629E+02  0.45045680747E+02  0.00000000000E+00 0. -1.
         11    1    3    3    0    0  0.15640937821E+02 -0.79839918587E+00 -0.12005352426E+02  0.19733343972E+02  0.51100000000E-03 0.  1.
        -11    1    3    3    0    0  0.12397168836E+02  0.55516719861E+01 -0.10636528421E+02  0.17252437338E+02  0.51100000000E-03 0. -1.
         12    1    3    3    0    0  0.72744629846E+01  0.39176905572E+01 -0.39466537825E+01  0.91565379426E+01  0.00000000000E+00 0. -1.
</event>
<event>
 7    1  0.1466590E-008  0.4614232E+02  0.7816164E-02  0.1320468E+00
        -11   -1    0    0    0    0  0.00000000000E+00  0.00000000000E+00  0.45593999997E+02  0.45594000000E+02  0.51100000000E-03 0.  1.
         11   -1    0    0    0    0 -0.00000000000E+00 -0.00000000000E+00 -0.45593999997E+02  0.45594000000E+02  0.51100000000E-03 0. -1.
    9900012    2    1    2    0    0 -0.40637830180E+02  0.17787792582E+02  0.78278162816E+01  0.46142317472E+02  0.99999973640E+01 0.  0.
         12    1    1    2    0    0  0.40637830180E+02 -0.17787792582E+02 -0.78278162816E+01  0.45045682528E+02  0.00000000000E+00 0. -1.
         11    1    3    3    0    0 -0.83352830545E+01  0.65330170790E+01 -0.10641521027E+01  0.10643762291E+02  0.51100000000E-03 0. -1.
        -11    1    3    3    0    0 -0.13659799782E+02  0.64927568887E+01  0.40585094014E+01  0.15659422752E+02  0.51100000000E-03 0.  1.
        -12    1    3    3    0    0 -0.18642747343E+02  0.47620186140E+01  0.48334589828E+01  0.19839132429E+02  0.00000000000E+00 0.  1.
</event>
<event>
 7    1  0.1466590E-008  0.4614232E+02  0.7816164E-02  0.1320468E+00
        -11   -1    0    0    0    0  0.00000000000E+00  0.00000000000E+00  0.45593999997E+02  0.45594000000E+02  0.51100000000E-03 0.  1.
         11   -1    0    0    0    0 -0.00000000000E+00 -0.00000000000E+00 -0.45593999997E+02  0.45594000000E+02  0.51100000000E-03 0. -1.
    9900012    2    1    2    0    0  0.13666136644E+01  0.44898984745E+02  0.33655648489E+01  0.46142317735E+02  0.99999997590E+01 0.  0.
         12    1    1    2    0    0 -0.13666136644E+01 -0.44898984745E+02 -0.33655648489E+01  0.45045682265E+02  0.00000000000E+00 0. -1.
         11    1    3    3    0    0  0.28046019115E+01  0.12533421140E+02  0.55593873264E+00  0.12855407636E+02  0.51100000000E-03 0. -1.
        -11    1    3    3    0    0 -0.21234873179E+01  0.29962949920E+02  0.74760298716E+00  0.30047403828E+02  0.51100000000E-03 0.  1.
        -12    1    3    3    0    0  0.68549907086E+00  0.24026136838E+01  0.20620231291E+01  0.32395062702E+01  0.00000000000E+00 0.  1.
</event>
<event>
 7    1  0.1466590E-008  0.4614232E+02  0.7816164E-02  0.1320468E+00
        -11   -1    0    0    0    0  0.00000000000E+00  0.00000000000E+00  0.45593999997E+02  0.45594000000E+02  0.51100000000E-03 0.  1.
         11   -1    0    0    0    0 -0.00000000000E+00 -0.00000000000E+00 -0.45593999997E+02  0.45594000000E+02  0.51100000000E-03 0. -1.
    9900012    2    1    2    0    0 -0.15907914961E+02 -0.31589085930E+02  0.27895903062E+02  0.46142317455E+02  0.99999972107E+01 0.  0.
         12    1    1    2    0    0  0.15907914961E+02  0.31589085930E+02 -0.27895903062E+02  0.45045682545E+02  0.00000000000E+00 0. -1.
         11    1    3    3    0    0 -0.12273890873E+01 -0.78510143372E+01  0.42522316933E+01  0.90125681540E+01  0.51100000000E-03 0. -1.
        -11    1    3    3    0    0 -0.56879166321E+01 -0.94119820276E+01  0.13478606904E+02  0.17395707679E+02  0.51100000000E-03 0.  1.
        -12    1    3    3    0    0 -0.89926092415E+01 -0.14326089565E+02  0.10165064464E+02  0.19734041622E+02  0.00000000000E+00 0.  1.
</event>
<event>
 7    1  0.1466590E-008  0.4614231E+02  0.7816164E-02  0.1320468E+00
        -11   -1    0    0    0    0  0.00000000000E+00  0.00000000000E+00  0.45593999997E+02  0.45594000000E+02  0.51100000000E-03 0.  1.
         11   -1    0    0    0    0 -0.00000000000E+00 -0.00000000000E+00 -0.45593999997E+02  0.45594000000E+02  0.51100000000E-03 0. -1.
    9900012    2    1    2    0    0  0.16599741448E+02  0.31377984847E+02  0.27730573234E+02  0.46142311626E+02  0.99999440572E+01 0.  0.
         12    1    1    2    0    0 -0.16599741448E+02 -0.31377984847E+02 -0.27730573234E+02  0.45045688374E+02  0.00000000000E+00 0. -1.
         11    1    3    3    0    0  0.15237559331E+01  0.42943954212E+01  0.52491006113E+01  0.69510230661E+01  0.51100000000E-03 0. -1.
        -11    1    3    3    0    0  0.12495722048E+02  0.24526029505E+02  0.16211978641E+02  0.31945225692E+02  0.51100000000E-03 0.  1.
        -12    1    3    3    0    0  0.25802634672E+01  0.25575599206E+01  0.62694939817E+01  0.72460628685E+01  0.00000000000E+00 0.  1.
</event>
<event>
 7    1  0.1466590E-008  0.4614232E+02  0.7816164E-02  0.1320468E+00
        -11   -1    0    0    0    0  0.00000000000E+00  0.00000000000E+00  0.45593999997E+02  0.45594000000E+02  0.51100000000E-03 0.  1.
         11   -1    0    0    0    0 -0.00000000000E+00 -0.00000000000E+00 -0.45593999997E+02  0.45594000000E+02  0.51100000000E-03 0. -1.
    9900012    2    1    2    0    0 -0.95147344850E+01 -0.54474195976E+01  0.43691062456E+02  0.46142317730E+02  0.99999997205E+01 0.  0.
         12    1    1    2    0    0  0.95147344850E+01  0.54474195976E+01 -0.43691062456E+02  0.45045682270E+02  0.00000000000E+00 0. -1.
         11    1    3    3    0    0  0.15793840878E+01 -0.17714023185E+01  0.31767092602E+01  0.39653249874E+01  0.51100000000E-03 0. -1.
        -11    1    3    3    0    0 -0.28147827601E+01 -0.50997431340E+00  0.10096356397E+02  0.10493783328E+02  0.51100000000E-03 0.  1.
         12    1    3    3    0    0 -0.82793358127E+01 -0.31660429656E+01  0.30417996799E+02  0.31683209415E+02  0.00000000000E+00 0. -1.
</event>
<event>
 7    1  0.1466590E-008  0.4614231E+02  0.7816164E-02  0.1320468E+00
        -11   -1    0    0    0    0  0.00000000000E+00  0.00000000000E+00  0.45593999997E+02  0.45594000000E+02  0.51100000000E-03 0.  1.
         11   -1    0    0    0    0 -0.00000000000E+00 -0.00000000000E+00 -0.45593999997E+02  0.45594000000E+02  0.51100000000E-03 0. -1.
    9900012    2    1    2    0    0  0.41742131744E+01  0.63059577059E+01  0.44406359107E+02  0.46142313333E+02  0.99999596167E+01 0.  0.
         12    1    1    2    0    0 -0.41742131744E+01 -0.63059577059E+01 -0.44406359107E+02  0.45045686667E+02  0.00000000000E+00 0. -1.
         11    1    3    3    0    0 -0.15360845986E+01 -0.67355463808E+00  0.87043145652E+01  0.88644415535E+01  0.51100000000E-03 0. -1.
        -11    1    3    3    0    0  0.33160108919E+01  0.55338416527E+01  0.31968257621E+02  0.32612709597E+02  0.51100000000E-03 0.  1.
         12    1    3    3    0    0  0.23942868811E+01  0.14456706913E+01  0.37337869210E+01  0.46651621824E+01  0.00000000000E+00 0. -1.
</event>
<event>
 7    1  0.1466590E-008  0.4614232E+02  0.7816164E-02  0.1320468E+00
        -11   -1    0    0    0    0  0.00000000000E+00  0.00000000000E+00  0.45593999997E+02  0.45594000000E+02  0.51100000000E-03 0.  1.
         11   -1    0    0    0    0 -0.00000000000E+00 -0.00000000000E+00 -0.45593999997E+02  0.45594000000E+02  0.51100000000E-03 0. -1.
    9900012    2    1    2    0    0  0.28918554713E+02  0.22807891892E+02  0.25935125877E+02  0.46142317704E+02  0.99999994817E+01 0.  0.
         12    1    1    2    0    0 -0.28918554713E+02 -0.22807891892E+02 -0.25935125877E+02  0.45045682296E+02  0.00000000000E+00 0. -1.
         11    1    3    3    0    0  0.74710425816E+01  0.28663089661E+01  0.79713727974E+01  0.11294909866E+02  0.51100000000E-03 0. -1.
        -11    1    3    3    0    0  0.13235662720E+02  0.15809951527E+02  0.13334281527E+02  0.24554844716E+02  0.51100000000E-03 0.  1.
         12    1    3    3    0    0  0.82118494116E+01  0.41316313992E+01  0.46294715522E+01  0.10292563122E+02  0.00000000000E+00 0. -1.
</event>
<event>
 7    1  0.1466590E-008  0.4614232E+02  0.7816164E-02  0.1320468E+00
        -11   -1    0    0    0    0  0.00000000000E+00  0.00000000000E+00  0.45593999997E+02  0.45594000000E+02  0.51100000000E-03 0. -1.
         11   -1    0    0    0    0 -0.00000000000E+00 -0.00000000000E+00 -0.45593999997E+02  0.45594000000E+02  0.51100000000E-03 0.  1.
    9900012    2    1    2    0    0  0.14514778348E+02  0.38910543003E+02  0.17447187971E+02  0.46142317461E+02  0.99999972630E+01 0.  0.
         12    1    1    2    0    0 -0.14514778348E+02 -0.38910543003E+02 -0.17447187971E+02  0.45045682539E+02  0.00000000000E+00 0. -1.
         11    1    3    3    0    0  0.91115490865E+01  0.13448288417E+02  0.67261813375E+01  0.17581760542E+02  0.51100000000E-03 0. -1.
        -11    1    3    3    0    0  0.26722619951E+01  0.75322271145E+01  0.12165844725E+01  0.80842753241E+01  0.51100000000E-03 0.  1.
        -12    1    3    3    0    0  0.27309672669E+01  0.17930027472E+02  0.95044221609E+01  0.20476281595E+02  0.00000000000E+00 0.  1.
</event>
<event>
 7    1  0.1466590E-008  0.4614232E+02  0.7816164E-02  0.1320468E+00
        -11   -1    0    0    0    0  0.00000000000E+00  0.00000000000E+00  0.45593999997E+02  0.45594000000E+02  0.51100000000E-03 0.  1.
         11   -1    0    0    0    0 -0.00000000000E+00 -0.00000000000E+00 -0.45593999997E+02  0.45594000000E+02  0.51100000000E-03 0. -1.
    9900012    2    1    2    0    0 -0.60340766106E+01  0.43902791166E+02 -0.80776571798E+01  0.46142315432E+02  0.99999787617E+01 0.  0.
         12    1    1    2    0    0  0.60340766106E+01 -0.43902791166E+02  0.80776571798E+01  0.45045684568E+02  0.00000000000E+00 0. -1.
         11    1    3    3    0    0 -0.14108300997E+01  0.52877492322E+01 -0.35616556498E+01  0.65296343498E+01  0.51100000000E-03 0. -1.
        -11    1    3    3    0    0 -0.18880243592E+01  0.29314105911E+02 -0.54387089216E+01  0.29874085698E+02  0.51100000000E-03 0.  1.
        -12    1    3    3    0    0 -0.27352221517E+01  0.93009360228E+01  0.92270739152E+00  0.97385953838E+01  0.00000000000E+00 0.  1.
</event>
<event>
 7    1  0.1466590E-008  0.4614232E+02  0.7816164E-02  0.1320468E+00
        -11   -1    0    0    0    0  0.00000000000E+00  0.00000000000E+00  0.45593999997E+02  0.45594000000E+02  0.51100000000E-03 0.  1.
         11   -1    0    0    0    0 -0.00000000000E+00 -0.00000000000E+00 -0.45593999997E+02  0.45594000000E+02  0.51100000000E-03 0. -1.
    9900012    2    1    2    0    0  0.40751313973E+02 -0.12598464105E+02  0.14481803639E+02  0.46142317354E+02  0.99999962922E+01 0.  0.
         12    1    1    2    0    0 -0.40751313973E+02  0.12598464105E+02 -0.14481803639E+02  0.45045682646E+02  0.00000000000E+00 0. -1.
         11    1    3    3    0    0  0.11466075503E+02 -0.40576159231E+01  0.40703536657E+00  0.12169667723E+02  0.51100000000E-03 0. -1.
        -11    1    3    3    0    0  0.13028581675E+02 -0.18855177607E+01  0.41835905952E+01  0.13813093362E+02  0.51100000000E-03 0.  1.
         12    1    3    3    0    0  0.16256656795E+02 -0.66553304210E+01  0.98911776777E+01  0.20159556270E+02  0.00000000000E+00 0. -1.
</event>
<event>
 7    1  0.1466590E-008  0.4614232E+02  0.7816164E-02  0.1320468E+00
        -11   -1    0    0    0    0  0.00000000000E+00  0.00000000000E+00  0.45593999997E+02  0.45594000000E+02  0.51100000000E-03 0.  1.
         11   -1    0    0    0    0 -0.00000000000E+00 -0.00000000000E+00 -0.45593999997E+02  0.45594000000E+02  0.51100000000E-03 0. -1.
    9900012    2    1    2    0    0  0.32430226661E+02  0.57495396831E+00  0.31258011844E+02  0.46142317878E+02  0.10000001068E+02 0.  0.
         12    1    1    2    0    0 -0.32430226661E+02 -0.57495396831E+00 -0.31258011844E+02  0.45045682122E+02  0.00000000000E+00 0. -1.
         11    1    3    3    0    0  0.47465491007E+01  0.22980206223E+01  0.29456302565E+01  0.60404772175E+01  0.51100000000E-03 0. -1.
        -11    1    3    3    0    0  0.14996029621E+02  0.52878043231E+00  0.11425691438E+02  0.18860194544E+02  0.51100000000E-03 0.  1.
         12    1    3    3    0    0  0.12687647939E+02 -0.22518470863E+01  0.16886690150E+02  0.21241646117E+02  0.00000000000E+00 0. -1.
</event>
<event>
 7    1  0.1466590E-008  0.4614232E+02  0.7816164E-02  0.1320468E+00
        -11   -1    0    0    0    0  0.00000000000E+00  0.00000000000E+00  0.45593999997E+02  0.45594000000E+02  0.51100000000E-03 0.  1.
         11   -1    0    0    0    0 -0.00000000000E+00 -0.00000000000E+00 -0.45593999997E+02  0.45594000000E+02  0.51100000000E-03 0. -1.
    9900012    2    1    2    0    0  0.17868489288E+01  0.18867792056E+02  0.40864741156E+02  0.46142317900E+02  0.10000001263E+02 0.  0.
         12    1    1    2    0    0 -0.17868489288E+01 -0.18867792056E+02 -0.40864741156E+02  0.45045682100E+02  0.00000000000E+00 0. -1.
         11    1    3    3    0    0  0.22934334217E+01  0.11524054713E+01  0.31819417149E+01  0.40881081894E+01  0.51100000000E-03 0. -1.
        -11    1    3    3    0    0 -0.10866950835E+01  0.13381851602E+02  0.33105280522E+02  0.35724143897E+02  0.51100000000E-03 0.  1.
         12    1    3    3    0    0  0.58011059064E+00  0.43335349824E+01  0.45775189189E+01  0.63300658128E+01  0.00000000000E+00 0. -1.
</event>
<event>
 7    1  0.1466590E-008  0.4614232E+02  0.7816164E-02  0.1320468E+00
        -11   -1    0    0    0    0  0.00000000000E+00  0.00000000000E+00  0.45593999997E+02  0.45594000000E+02  0.51100000000E-03 0. -1.
         11   -1    0    0    0    0 -0.00000000000E+00 -0.00000000000E+00 -0.45593999997E+02  0.45594000000E+02  0.51100000000E-03 0.  1.
    9900012    2    1    2    0    0  0.41821119777E+02  0.16683182483E+02  0.13337481546E+01  0.46142317396E+02  0.99999966714E+01 0.  0.
         12    1    1    2    0    0 -0.41821119777E+02 -0.16683182483E+02 -0.13337481546E+01  0.45045682604E+02  0.00000000000E+00 0. -1.
         11    1    3    3    0    0  0.25742364548E+01 -0.57443493365E+00 -0.10597156337E+01  0.28424753831E+01  0.51100000000E-03 0. -1.
        -11    1    3    3    0    0  0.13644016798E+02  0.33586241629E+01 -0.19634350896E+00  0.14052690194E+02  0.51100000000E-03 0.  1.
        -12    1    3    3    0    0  0.25602866524E+02  0.13898993253E+02  0.25898072973E+01  0.29247151819E+02  0.00000000000E+00 0.  1.
</event>
<event>
 7    1  0.1466590E-008  0.4614232E+02  0.7816164E-02  0.1320468E+00
        -11   -1    0    0    0    0  0.00000000000E+00  0.00000000000E+00  0.45593999997E+02  0.45594000000E+02  0.51100000000E-03 0. -1.
         11   -1    0    0    0    0 -0.00000000000E+00 -0.00000000000E+00 -0.45593999997E+02  0.45594000000E+02  0.51100000000E-03 0.  1.
    9900012    2    1    2    0    0  0.42463046400E+02 -0.14971512979E+02  0.13627002215E+01  0.46142318050E+02  0.10000002638E+02 0.  0.
         12    1    1    2    0    0 -0.42463046400E+02  0.14971512979E+02 -0.13627002215E+01  0.45045681950E+02  0.00000000000E+00 0. -1.
         11    1    3    3    0    0  0.34450929864E+01 -0.32201992661E+01  0.20930660034E+01  0.51593870328E+01  0.51100000000E-03 0. -1.
        -11    1    3    3    0    0  0.30233188485E+02 -0.97669190867E+01 -0.22427656104E+01  0.31850720435E+02  0.51100000000E-03 0.  1.
        -12    1    3    3    0    0  0.87847649286E+01 -0.19843946259E+01  0.15123998286E+01  0.91322105825E+01  0.00000000000E+00 0.  1.
</event>
<event>
 7    1  0.1466590E-008  0.4614232E+02  0.7816164E-02  0.1320468E+00
        -11   -1    0    0    0    0  0.00000000000E+00  0.00000000000E+00  0.45593999997E+02  0.45594000000E+02  0.51100000000E-03 0.  1.
         11   -1    0    0    0    0 -0.00000000000E+00 -0.00000000000E+00 -0.45593999997E+02  0.45594000000E+02  0.51100000000E-03 0. -1.
    9900012    2    1    2    0    0  0.93395086850E+01  0.43568779941E+02  0.66066928147E+01  0.46142318764E+02  0.10000009149E+02 0.  0.
         12    1    1    2    0    0 -0.93395086850E+01 -0.43568779941E+02 -0.66066928147E+01  0.45045681236E+02  0.00000000000E+00 0. -1.
         11    1    3    3    0    0  0.47946763649E+01  0.10237619652E+02  0.70215041018E+00  0.11326552567E+02  0.51100000000E-03 0. -1.
        -11    1    3    3    0    0 -0.71581972008E+00  0.10930642261E+02  0.42388676559E+01  0.11745609281E+02  0.51100000000E-03 0.  1.
        -12    1    3    3    0    0  0.52606520402E+01  0.22400518028E+02  0.16656747486E+01  0.23070156917E+02  0.00000000000E+00 0.  1.
</event>
<event>
 7    1  0.1466590E-008  0.4614232E+02  0.7816164E-02  0.1320468E+00
        -11   -1    0    0    0    0  0.00000000000E+00  0.00000000000E+00  0.45593999997E+02  0.45594000000E+02  0.51100000000E-03 0.  1.
         11   -1    0    0    0    0 -0.00000000000E+00 -0.00000000000E+00 -0.45593999997E+02  0.45594000000E+02  0.51100000000E-03 0. -1.
    9900012    2    1    2    0    0  0.22761521554E+02 -0.71433637256E+01  0.38209932154E+02  0.46142318476E+02  0.10000006516E+02 0.  0.
         12    1    1    2    0    0 -0.22761521554E+02  0.71433637256E+01 -0.38209932154E+02  0.45045681524E+02  0.00000000000E+00 0. -1.
         11    1    3    3    0    0  0.12078388064E+02 -0.76670131185E+01  0.25622163799E+02  0.29345627040E+02  0.51100000000E-03 0. -1.
        -11    1    3    3    0    0  0.10506781561E+02  0.47020102740E-01  0.12404921815E+02  0.16256591130E+02  0.51100000000E-03 0.  1.
        -12    1    3    3    0    0  0.17635192941E+00  0.47662929020E+00  0.18284654032E+00  0.54010030604E+00  0.00000000000E+00 0.  1.
</event>
<event>
 7    1  0.1466590E-008  0.4614232E+02  0.7816164E-02  0.1320468E+00
        -11   -1    0    0    0    0  0.00000000000E+00  0.00000000000E+00  0.45593999997E+02  0.45594000000E+02  0.51100000000E-03 0.  1.
         11   -1    0    0    0    0 -0.00000000000E+00 -0.00000000000E+00 -0.45593999997E+02  0.45594000000E+02  0.51100000000E-03 0. -1.
    9900012    2    1    2    0    0 -0.15350247829E+02  0.41967351242E+02 -0.56767053172E+01  0.46142315834E+02  0.99999824266E+01 0.  0.
         12    1    1    2    0    0  0.15350247829E+02 -0.41967351242E+02  0.56767053172E+01  0.45045684166E+02  0.00000000000E+00 0. -1.
         11    1    3    3    0    0 -0.12870695621E+02  0.34413291357E+02 -0.10712626667E+01  0.36756999765E+02  0.51100000000E-03 0.  1.
        -11    1    3    3    0    0  0.22811190814E+00  0.17136383857E+01 -0.11807670357E+01  0.20935144168E+01  0.51100000000E-03 0. -1.
        -12    1    3    3    0    0 -0.27076641166E+01  0.58404214999E+01 -0.34246756149E+01  0.72918016520E+01  0.00000000000E+00 0.  1.
</event>
<event>
 7    1  0.1466590E-008  0.4614232E+02  0.7816164E-02  0.1320468E+00
        -11   -1    0    0    0    0  0.00000000000E+00  0.00000000000E+00  0.45593999997E+02  0.45594000000E+02  0.51100000000E-03 0. -1.
         11   -1    0    0    0    0 -0.00000000000E+00 -0.00000000000E+00 -0.45593999997E+02  0.45594000000E+02  0.51100000000E-03 0.  1.
    9900012    2    1    2    0    0 -0.16453672243E+02 -0.38744460011E+02 -0.16039234632E+02  0.46142316972E+02  0.99999928083E+01 0.  0.
         12    1    1    2    0    0  0.16453672243E+02  0.38744460011E+02  0.16039234632E+02  0.45045683028E+02  0.00000000000E+00 0. -1.
         11    1    3    3    0    0 -0.10785776874E+01 -0.73866362859E+01  0.22426074876E+00  0.74683343921E+01  0.51100000000E-03 0. -1.
        -11    1    3    3    0    0 -0.10572952772E+02 -0.19068589184E+02 -0.11466038727E+02  0.24634700488E+02  0.51100000000E-03 0.  1.
         12    1    3    3    0    0 -0.48021417836E+01 -0.12289234541E+02 -0.47974566542E+01  0.14039282092E+02  0.00000000000E+00 0. -1.
</event>
<event>
 7    1  0.1466590E-008  0.4614232E+02  0.7816164E-02  0.1320468E+00
        -11   -1    0    0    0    0  0.00000000000E+00  0.00000000000E+00  0.45593999997E+02  0.45594000000E+02  0.51100000000E-03 0.  1.
         11   -1    0    0    0    0 -0.00000000000E+00 -0.00000000000E+00 -0.45593999997E+02  0.45594000000E+02  0.51100000000E-03 0. -1.
    9900012    2    1    2    0    0 -0.11323385023E+02  0.34896274933E+02  0.26137032185E+02  0.46142317587E+02  0.99999984158E+01 0.  0.
         12    1    1    2    0    0  0.11323385023E+02 -0.34896274933E+02 -0.26137032185E+02  0.45045682413E+02  0.00000000000E+00 0. -1.
         11    1    3    3    0    0  0.96812229889E+00  0.32726522915E+00  0.82602599253E+00  0.13140329209E+01  0.51100000000E-03 0. -1.
        -11    1    3    3    0    0 -0.27794997325E+01  0.14727742291E+02  0.10708004696E+02  0.18419917931E+02  0.51100000000E-03 0.  1.
         12    1    3    3    0    0 -0.95120075894E+01  0.19841267412E+02  0.14603001497E+02  0.26408366735E+02  0.00000000000E+00 0. -1.
</event>
<event>
 7    1  0.1466590E-008  0.4614233E+02  0.7816164E-02  0.1320468E+00
        -11   -1    0    0    0    0  0.00000000000E+00  0.00000000000E+00  0.45593999997E+02  0.45594000000E+02  0.51100000000E-03 0.  1.
         11   -1    0    0    0    0 -0.00000000000E+00 -0.00000000000E+00 -0.45593999997E+02  0.45594000000E+02  0.51100000000E-03 0. -1.
    9900012    2    1    2    0    0  0.24059064780E+02  0.32608559099E+02  0.19671179230E+02  0.46142334095E+02  0.10000148940E+02 0.  0.
         12    1    1    2    0    0 -0.24059064780E+02 -0.32608559099E+02 -0.19671179230E+02  0.45045665905E+02  0.00000000000E+00 0. -1.
         11    1    3    3    0    0  0.10400404404E+01  0.41539342745E+00  0.11225006230E+01  0.15856366946E+01  0.51100000000E-03 0. -1.
        -11    1    3    3    0    0  0.13816777905E+02  0.13967500474E+02  0.12405157389E+02  0.23235368541E+02  0.51100000000E-03 0.  1.
        -12    1    3    3    0    0  0.92022464346E+01  0.18225665198E+02  0.61435212182E+01  0.21321328859E+02  0.00000000000E+00 0.  1.
</event>
<event>
 7    1  0.1466590E-008  0.4614232E+02  0.7816164E-02  0.1320468E+00
        -11   -1    0    0    0    0  0.00000000000E+00  0.00000000000E+00  0.45593999997E+02  0.45594000000E+02  0.51100000000E-03 0.  1.
         11   -1    0    0    0    0 -0.00000000000E+00 -0.00000000000E+00 -0.45593999997E+02  0.45594000000E+02  0.51100000000E-03 0. -1.
    9900012    2    1    2    0    0 -0.11222128351E+02  0.23750605210E+01  0.43560720720E+02  0.46142318000E+02  0.10000002179E+02 0.  0.
         12    1    1    2    0    0  0.11222128351E+02 -0.23750605210E+01 -0.43560720720E+02  0.45045682000E+02  0.00000000000E+00 0. -1.
         11    1    3    3    0    0 -0.92331946838E+01  0.26131411120E+01  0.28212501830E+02  0.29799759233E+02  0.51100000000E-03 0. -1.
        -11    1    3    3    0    0 -0.37154706290E+01  0.37001974202E+00  0.11268446943E+02  0.11870953348E+02  0.51100000000E-03 0.  1.
         12    1    3    3    0    0  0.17265369620E+01 -0.60810033305E+00  0.40797719462E+01  0.44716054196E+01  0.00000000000E+00 0. -1.
</event>
<event>
 7    1  0.1466590E-008  0.4614232E+02  0.7816164E-02  0.1320468E+00
        -11   -1    0    0    0    0  0.00000000000E+00  0.00000000000E+00  0.45593999997E+02  0.45594000000E+02  0.51100000000E-03 0. -1.
         11   -1    0    0    0    0 -0.00000000000E+00 -0.00000000000E+00 -0.45593999997E+02  0.45594000000E+02  0.51100000000E-03 0.  1.
    9900012    2    1    2    0    0 -0.22023178736E+02 -0.22216082615E+02 -0.32412015845E+02  0.46142317637E+02  0.99999988688E+01 0.  0.
         12    1    1    2    0    0  0.22023178736E+02  0.22216082615E+02  0.32412015845E+02  0.45045682363E+02  0.00000000000E+00 0. -1.
         11    1    3    3    0    0 -0.21992082689E+01 -0.22744903245E+00 -0.49192571632E+01  0.53932681530E+01  0.51100000000E-03 0. -1.
        -11    1    3    3    0    0 -0.14433852268E+02 -0.13492913488E+02 -0.20658040712E+02  0.28585826068E+02  0.51100000000E-03 0.  1.
         12    1    3    3    0    0 -0.53901181994E+01 -0.84957200952E+01 -0.68347179696E+01  0.12163223416E+02  0.00000000000E+00 0. -1.
</event>
<event>
 7    1  0.1466590E-008  0.4614231E+02  0.7816164E-02  0.1320468E+00
        -11   -1    0    0    0    0  0.00000000000E+00  0.00000000000E+00  0.45593999997E+02  0.45594000000E+02  0.51100000000E-03 0. -1.
         11   -1    0    0    0    0 -0.00000000000E+00 -0.00000000000E+00 -0.45593999997E+02  0.45594000000E+02  0.51100000000E-03 0.  1.
    9900012    2    1    2    0    0  0.33462476816E+02 -0.41806593129E+01 -0.29864677895E+02  0.46142309277E+02  0.99999226340E+01 0.  0.
         12    1    1    2    0    0 -0.33462476816E+02  0.41806593129E+01  0.29864677895E+02  0.45045690723E+02  0.00000000000E+00 0. -1.
         11    1    3    3    0    0  0.68618784803E+01 -0.21298066958E+01 -0.27171748094E+01  0.76814381496E+01  0.51100000000E-03 0. -1.
        -11    1    3    3    0    0  0.13694566993E+02  0.15563556412E+01 -0.15048833214E+02  0.20406635915E+02  0.51100000000E-03 0.  1.
         12    1    3    3    0    0  0.12906031342E+02 -0.36072082583E+01 -0.12098669872E+02  0.18054235212E+02  0.00000000000E+00 0. -1.
</event>
<event>
 7    1  0.1466590E-008  0.4614232E+02  0.7816164E-02  0.1320468E+00
        -11   -1    0    0    0    0  0.00000000000E+00  0.00000000000E+00  0.45593999997E+02  0.45594000000E+02  0.51100000000E-03 0.  1.
         11   -1    0    0    0    0 -0.00000000000E+00 -0.00000000000E+00 -0.45593999997E+02  0.45594000000E+02  0.51100000000E-03 0. -1.
    9900012    2    1    2    0    0  0.18395857445E+02  0.16505170896E+02  0.37660128919E+02  0.46142317103E+02  0.99999940024E+01 0.  0.
         12    1    1    2    0    0 -0.18395857445E+02 -0.16505170896E+02 -0.37660128919E+02  0.45045682897E+02  0.00000000000E+00 0. -1.
         11    1    3    3    0    0  0.32631946112E+01  0.66988860493E+01  0.11496413575E+02  0.13700037910E+02  0.51100000000E-03 0. -1.
        -11    1    3    3    0    0  0.66903848632E+01  0.21973159323E+01  0.14699740471E+02  0.16299442233E+02  0.51100000000E-03 0.  1.
        -12    1    3    3    0    0  0.84422779702E+01  0.76089689141E+01  0.11463974873E+02  0.16142836961E+02  0.00000000000E+00 0.  1.
</event>
<event>
 7    1  0.1466590E-008  0.4614232E+02  0.7816164E-02  0.1320468E+00
        -11   -1    0    0    0    0  0.00000000000E+00  0.00000000000E+00  0.45593999997E+02  0.45594000000E+02  0.51100000000E-03 0. -1.
         11   -1    0    0    0    0 -0.00000000000E+00 -0.00000000000E+00 -0.45593999997E+02  0.45594000000E+02  0.51100000000E-03 0.  1.
    9900012    2    1    2    0    0  0.40387587128E+02  0.93712580979E+01 -0.17610673443E+02  0.46142317726E+02  0.99999996828E+01 0.  0.
         12    1    1    2    0    0 -0.40387587128E+02 -0.93712580979E+01  0.17610673443E+02  0.45045682274E+02  0.00000000000E+00 0. -1.
         11    1    3    3    0    0  0.61324227816E+01  0.76839621072E+00 -0.43452678268E+01  0.75550244643E+01  0.51100000000E-03 0. -1.
        -11    1    3    3    0    0  0.78225208587E+01 -0.13168443400E+01 -0.19299453864E+01  0.81639819363E+01  0.51100000000E-03 0.  1.
        -12    1    3    3    0    0  0.26432643488E+02  0.99197062272E+01 -0.11335460229E+02  0.30423311326E+02  0.00000000000E+00 0.  1.
</event>
<event>
 7    1  0.1466590E-008  0.4614232E+02  0.7816164E-02  0.1320468E+00
        -11   -1    0    0    0    0  0.00000000000E+00  0.00000000000E+00  0.45593999997E+02  0.45594000000E+02  0.51100000000E-03 0.  1.
         11   -1    0    0    0    0 -0.00000000000E+00 -0.00000000000E+00 -0.45593999997E+02  0.45594000000E+02  0.51100000000E-03 0. -1.
    9900012    2    1    2    0    0 -0.30730551637E+02  0.24592527411E+02  0.21907857857E+02  0.46142318250E+02  0.10000004460E+02 0.  0.
         12    1    1    2    0    0  0.30730551637E+02 -0.24592527411E+02 -0.21907857857E+02  0.45045681750E+02  0.00000000000E+00 0. -1.
         11    1    3    3    0    0 -0.10183566391E+02  0.78620555482E+01  0.40084382125E+01  0.13475330016E+02  0.51100000000E-03 0. -1.
        -11    1    3    3    0    0 -0.18573343686E+02  0.13419599094E+02  0.12711089155E+02  0.26203559363E+02  0.51100000000E-03 0.  1.
         12    1    3    3    0    0 -0.19736415611E+01  0.33108727687E+01  0.51883304898E+01  0.64634288712E+01  0.00000000000E+00 0. -1.
</event>
<event>
 7    1  0.1466590E-008  0.4614232E+02  0.7816164E-02  0.1320468E+00
        -11   -1    0    0    0    0  0.00000000000E+00  0.00000000000E+00  0.45593999997E+02  0.45594000000E+02  0.51100000000E-03 0.  1.
         11   -1    0    0    0    0 -0.00000000000E+00 -0.00000000000E+00 -0.45593999997E+02  0.45594000000E+02  0.51100000000E-03 0. -1.
    9900012    2    1    2    0    0 -0.87368021516E+01 -0.24687482845E+02  0.36651191206E+02  0.46142319432E+02  0.10000015233E+02 0.  0.
         12    1    1    2    0    0  0.87368021516E+01  0.24687482845E+02 -0.36651191206E+02  0.45045680568E+02  0.00000000000E+00 0. -1.
         11    1    3    3    0    0 -0.75061612328E+01 -0.11420351218E+02  0.15964880540E+02  0.21015334623E+02  0.51100000000E-03 0. -1.
        -11    1    3    3    0    0  0.89344146898E+00 -0.45506308870E+01  0.37609504180E+01  0.59708648817E+01  0.51100000000E-03 0.  1.
         12    1    3    3    0    0 -0.21240823877E+01 -0.87165007405E+01  0.16925360247E+02  0.19156119927E+02  0.00000000000E+00 0. -1.
</event>
<event>
 7    1  0.1466590E-008  0.4614232E+02  0.7816164E-02  0.1320468E+00
        -11   -1    0    0    0    0  0.00000000000E+00  0.00000000000E+00  0.45593999997E+02  0.45594000000E+02  0.51100000000E-03 0. -1.
         11   -1    0    0    0    0 -0.00000000000E+00 -0.00000000000E+00 -0.45593999997E+02  0.45594000000E+02  0.51100000000E-03 0.  1.
    9900012    2    1    2    0    0  0.24316812961E+02  0.37512340697E+02  0.55344790549E+01  0.46142317016E+02  0.99999932023E+01 0.  0.
         12    1    1    2    0    0 -0.24316812961E+02 -0.37512340697E+02 -0.55344790549E+01  0.45045682984E+02  0.00000000000E+00 0. -1.
         11    1    3    3    0    0  0.10275666115E+02  0.10039223218E+02  0.40726194747E+01  0.14931896952E+02  0.51100000000E-03 0. -1.
        -11    1    3    3    0    0  0.78372666039E+01  0.19882322602E+02  0.86232513614E+00  0.21388620918E+02  0.51100000000E-03 0.  1.
         12    1    3    3    0    0  0.62038802419E+01  0.75907948767E+01  0.59953444398E+00  0.98217991461E+01  0.00000000000E+00 0. -1.
</event>
<event>
 7    1  0.1466590E-008  0.4614231E+02  0.7816164E-02  0.1320468E+00
        -11   -1    0    0    0    0  0.00000000000E+00  0.00000000000E+00  0.45593999997E+02  0.45594000000E+02  0.51100000000E-03 0.  1.
         11   -1    0    0    0    0 -0.00000000000E+00 -0.00000000000E+00 -0.45593999997E+02  0.45594000000E+02  0.51100000000E-03 0. -1.
    9900012    2    1    2    0    0  0.37120662438E+02  0.72107834862E+01  0.24478050120E+02  0.46142313015E+02  0.99999567212E+01 0.  0.
         12    1    1    2    0    0 -0.37120662438E+02 -0.72107834862E+01 -0.24478050120E+02  0.45045686985E+02  0.00000000000E+00 0. -1.
         11    1    3    3    0    0  0.27755007430E+01  0.49905452387E+00  0.53417537472E+01  0.60404298811E+01  0.51100000000E-03 0. -1.
        -11    1    3    3    0    0  0.37555958341E+01  0.19786791750E+01  0.29713481023E+01  0.51815616519E+01  0.51100000000E-03 0.  1.
         12    1    3    3    0    0  0.30589565861E+02  0.47330497874E+01  0.16164948270E+02  0.34920321482E+02  0.00000000000E+00 0. -1.
</event>
<event>
 7    1  0.1466590E-008  0.4614232E+02  0.7816164E-02  0.1320468E+00
        -11   -1    0    0    0    0  0.00000000000E+00  0.00000000000E+00  0.45593999997E+02  0.45594000000E+02  0.51100000000E-03 0.  1.
         11   -1    0    0    0    0 -0.00000000000E+00 -0.00000000000E+00 -0.45593999997E+02  0.45594000000E+02  0.51100000000E-03 0. -1.
    9900012    2    1    2    0    0 -0.33447253845E+02  0.13130788227E+02  0.27165732638E+02  0.46142318531E+02  0.10000007022E+02 0.  0.
         12    1    1    2    0    0  0.33447253845E+02 -0.13130788227E+02 -0.27165732638E+02  0.45045681469E+02  0.00000000000E+00 0. -1.
         11    1    3    3    0    0 -0.28853192107E+01 -0.85885816901E+00  0.19194766828E+01  0.35703074516E+01  0.51100000000E-03 0. -1.
        -11    1    3    3    0    0 -0.14545879386E+02  0.81317148433E+01  0.86503958283E+01  0.18775961804E+02  0.51100000000E-03 0.  1.
        -12    1    3    3    0    0 -0.16016055249E+02  0.58579315526E+01  0.16595860127E+02  0.23796049276E+02  0.00000000000E+00 0.  1.
</event>
<event>
 7    1  0.1466590E-008  0.4614232E+02  0.7816164E-02  0.1320468E+00
        -11   -1    0    0    0    0  0.00000000000E+00  0.00000000000E+00  0.45593999997E+02  0.45594000000E+02  0.51100000000E-03 0.  1.
         11   -1    0    0    0    0 -0.00000000000E+00 -0.00000000000E+00 -0.45593999997E+02  0.45594000000E+02  0.51100000000E-03 0. -1.
    9900012    2    1    2    0    0 -0.20292139443E+02  0.14533646705E+02  0.37498209195E+02  0.46142317604E+02  0.99999985677E+01 0.  0.
         12    1    1    2    0    0  0.20292139443E+02 -0.14533646705E+02 -0.37498209195E+02  0.45045682396E+02  0.00000000000E+00 0. -1.
         11    1    3    3    0    0 -0.29336600870E+01  0.30089703477E+01  0.20906794295E+01  0.46937410237E+01  0.51100000000E-03 0. -1.
        -11    1    3    3    0    0 -0.16162984369E+02  0.10516060823E+02  0.28806312118E+02  0.34664581594E+02  0.51100000000E-03 0.  1.
        -12    1    3    3    0    0 -0.11954949875E+01  0.10086155337E+01  0.66012176467E+01  0.67839949867E+01  0.00000000000E+00 0.  1.
</event>
<event>
 7    1  0.1466590E-008  0.4614232E+02  0.7816164E-02  0.1320468E+00
        -11   -1    0    0    0    0  0.00000000000E+00  0.00000000000E+00  0.45593999997E+02  0.45594000000E+02  0.51100000000E-03 0. -1.
         11   -1    0    0    0    0 -0.00000000000E+00 -0.00000000000E+00 -0.45593999997E+02  0.45594000000E+02  0.51100000000E-03 0.  1.
    9900012    2    1    2    0    0  0.65512093389E+00  0.17075570033E+02 -0.41678640496E+02  0.46142319308E+02  0.10000014110E+02 0.  0.
         12    1    1    2    0    0 -0.65512093389E+00 -0.17075570033E+02  0.41678640496E+02  0.45045680692E+02  0.00000000000E+00 0. -1.
         11    1    3    3    0    0  0.92226294318E+00  0.19883630102E+00 -0.31771151675E+00  0.99551277238E+00  0.51100000000E-03 0. -1.
        -11    1    3    3    0    0 -0.31467720434E+01  0.53114684725E+01 -0.14628543870E+02  0.15877914462E+02  0.51100000000E-03 0.  1.
         12    1    3    3    0    0  0.28796300341E+01  0.11565265259E+02 -0.26732385109E+02  0.29268892074E+02  0.00000000000E+00 0. -1.
</event>
<event>
 7    1  0.1466590E-008  0.4614232E+02  0.7816164E-02  0.1320468E+00
        -11   -1    0    0    0    0  0.00000000000E+00  0.00000000000E+00  0.45593999997E+02  0.45594000000E+02  0.51100000000E-03 0.  1.
         11   -1    0    0    0    0 -0.00000000000E+00 -0.00000000000E+00 -0.45593999997E+02  0.45594000000E+02  0.51100000000E-03 0. -1.
    9900012    2    1    2    0    0 -0.48921520008E+01  0.41579186543E+02  0.16623825434E+02  0.46142317889E+02  0.10000001167E+02 0.  0.
         12    1    1    2    0    0  0.48921520008E+01 -0.41579186543E+02 -0.16623825434E+02  0.45045682111E+02  0.00000000000E+00 0. -1.
         11    1    3    3    0    0 -0.29864231776E+01  0.52684041244E+01  0.44217002381E+01  0.74984157440E+01  0.51100000000E-03 0. -1.
        -11    1    3    3    0    0  0.14523015311E+01  0.15747591738E+02  0.46853281675E+01  0.16493881459E+02  0.51100000000E-03 0.  1.
        -12    1    3    3    0    0 -0.33580303543E+01  0.20563190681E+02  0.75167970280E+01  0.22150020686E+02  0.00000000000E+00 0.  1.
</event>
<event>
 7    1  0.1466590E-008  0.4614232E+02  0.7816164E-02  0.1320468E+00
        -11   -1    0    0    0    0  0.00000000000E+00  0.00000000000E+00  0.45593999997E+02  0.45594000000E+02  0.51100000000E-03 0. -1.
         11   -1    0    0    0    0 -0.00000000000E+00 -0.00000000000E+00 -0.45593999997E+02  0.45594000000E+02  0.51100000000E-03 0.  1.
    9900012    2    1    2    0    0  0.29944774745E+02  0.33578732903E+02  0.22119324350E+01  0.46142317820E+02  0.10000000541E+02 0.  0.
         12    1    1    2    0    0 -0.29944774745E+02 -0.33578732903E+02 -0.22119324350E+01  0.45045682180E+02  0.00000000000E+00 0. -1.
         11    1    3    3    0    0  0.58877639512E+01  0.69096691454E+01  0.30007056824E+01  0.95610421450E+01  0.51100000000E-03 0. -1.
        -11    1    3    3    0    0  0.19018334819E+02  0.21215360765E+02 -0.34362425289E+01  0.28698368501E+02  0.51100000000E-03 0.  1.
        -12    1    3    3    0    0  0.50386759755E+01  0.54537029926E+01  0.26474692815E+01  0.78829071740E+01  0.00000000000E+00 0.  1.
</event>
<event>
 7    1  0.1466590E-008  0.4614232E+02  0.7816164E-02  0.1320468E+00
        -11   -1    0    0    0    0  0.00000000000E+00  0.00000000000E+00  0.45593999997E+02  0.45594000000E+02  0.51100000000E-03 0. -1.
         11   -1    0    0    0    0 -0.00000000000E+00 -0.00000000000E+00 -0.45593999997E+02  0.45594000000E+02  0.51100000000E-03 0.  1.
    9900012    2    1    2    0    0  0.39275965849E+02 -0.20861912725E+02 -0.71618857826E+01  0.46142317589E+02  0.99999984290E+01 0.  0.
         12    1    1    2    0    0 -0.39275965849E+02  0.20861912725E+02  0.71618857826E+01  0.45045682411E+02  0.00000000000E+00 0. -1.
         11    1    3    3    0    0  0.11856655367E+02 -0.22014038588E+01 -0.30149641509E+01  0.12430465178E+02  0.51100000000E-03 0. -1.
        -11    1    3    3    0    0  0.17288846609E+02 -0.13082183787E+02 -0.44958079010E+01  0.22141816517E+02  0.51100000000E-03 0.  1.
        -12    1    3    3    0    0  0.10130463872E+02 -0.55783250790E+01  0.34888626939E+00  0.11570035894E+02  0.00000000000E+00 0.  1.
</event>
<event>
 7    1  0.1692874E-008  0.4614232E+02  0.7816164E-02  0.1320468E+00
        -11   -1    0    0    0    0  0.00000000000E+00  0.00000000000E+00  0.45593999997E+02  0.45594000000E+02  0.51100000000E-03 0.  1.
         11   -1    0    0    0    0 -0.00000000000E+00 -0.00000000000E+00 -0.45593999997E+02  0.45594000000E+02  0.51100000000E-03 0. -1.
    9900012    2    1    2    0    0  0.39604787137E+02 -0.14591681943E+02  0.15737119318E+02  0.46142320179E+02  0.10000022051E+02 0.  0.
         12    1    1    2    0    0 -0.39604787137E+02  0.14591681943E+02 -0.15737119318E+02  0.45045679821E+02  0.00000000000E+00 0. -1.
         11    1    3    3    0    0  0.12034260125E+01 -0.12823725022E+01  0.23489647972E+01  0.29343396670E+01  0.51100000000E-03 0. -1.
        -11    1    3    3    0    0  0.27609165460E+02 -0.75654689586E+01  0.72632310126E+01  0.29533995039E+02  0.51100000000E-03 0.  1.
        -12    1    3    3    0    0  0.10792195665E+02 -0.57438404821E+01  0.61249235081E+01  0.13673985473E+02  0.00000000000E+00 0.  1.
</event>
<event>
 7    1  0.1502098E-008  0.4614232E+02  0.7816164E-02  0.1320468E+00
        -11   -1    0    0    0    0  0.00000000000E+00  0.00000000000E+00  0.45593999997E+02  0.45594000000E+02  0.51100000000E-03 0. -1.
         11   -1    0    0    0    0 -0.00000000000E+00 -0.00000000000E+00 -0.45593999997E+02  0.45594000000E+02  0.51100000000E-03 0.  1.
    9900012    2    1    2    0    0  0.67645981146E+01  0.43295528682E+02 -0.10433163666E+02  0.46142317681E+02  0.99999992702E+01 0.  0.
         12    1    1    2    0    0 -0.67645981146E+01 -0.43295528682E+02  0.10433163666E+02  0.45045682319E+02  0.00000000000E+00 0. -1.
         11    1    3    3    0    0 -0.57476222152E+00  0.36912304841E+01  0.11332146298E+01  0.39038070850E+01  0.51100000000E-03 0. -1.
        -11    1    3    3    0    0  0.70923347054E+01  0.27549844059E+02 -0.95872662881E+01  0.30020173124E+02  0.51100000000E-03 0.  1.
        -12    1    3    3    0    0  0.24702563072E+00  0.12054454139E+02 -0.19791120076E+01  0.12218337472E+02  0.00000000000E+00 0.  1.
</event>
<event>
 7    1  0.1466590E-008  0.4614232E+02  0.7816164E-02  0.1320468E+00
        -11   -1    0    0    0    0  0.00000000000E+00  0.00000000000E+00  0.45593999997E+02  0.45594000000E+02  0.51100000000E-03 0. -1.
         11   -1    0    0    0    0 -0.00000000000E+00 -0.00000000000E+00 -0.45593999997E+02  0.45594000000E+02  0.51100000000E-03 0.  1.
    9900012    2    1    2    0    0 -0.22891319583E+02 -0.17776012757E+02 -0.34483537385E+02  0.46142317716E+02  0.99999995923E+01 0.  0.
         12    1    1    2    0    0  0.22891319583E+02  0.17776012757E+02  0.34483537385E+02  0.45045682284E+02  0.00000000000E+00 0. -1.
         11    1    3    3    0    0 -0.17508270707E+01 -0.20597050447E+01 -0.14774703768E+01  0.30806978557E+01  0.51100000000E-03 0. -1.
        -11    1    3    3    0    0 -0.15596872151E+02 -0.12015882978E+02 -0.29669547795E+02  0.35607947586E+02  0.51100000000E-03 0.  1.
        -12    1    3    3    0    0 -0.55436203604E+01 -0.37004247343E+01 -0.33365192132E+01  0.74536722744E+01  0.00000000000E+00 0.  1.
</event>
<event>
 7    1  0.1466590E-008  0.4614232E+02  0.7816164E-02  0.1320468E+00
        -11   -1    0    0    0    0  0.00000000000E+00  0.00000000000E+00  0.45593999997E+02  0.45594000000E+02  0.51100000000E-03 0.  1.
         11   -1    0    0    0    0 -0.00000000000E+00 -0.00000000000E+00 -0.45593999997E+02  0.45594000000E+02  0.51100000000E-03 0. -1.
    9900012    2    1    2    0    0  0.12229071255E+01 -0.41465222728E+02  0.17557143895E+02  0.46142317638E+02  0.99999988767E+01 0.  0.
         12    1    1    2    0    0 -0.12229071255E+01  0.41465222728E+02 -0.17557143895E+02  0.45045682362E+02  0.00000000000E+00 0. -1.
         11    1    3    3    0    0 -0.29519112005E+01 -0.13802633560E+02  0.50302460519E+01  0.14984320089E+02  0.51100000000E-03 0.  1.
        -11    1    3    3    0    0 -0.42243488964E+00  0.59582653482E-01  0.14916170922E+00  0.45194115237E+00  0.51100000000E-03 0. -1.
         12    1    3    3    0    0  0.45972532157E+01 -0.27722171821E+02  0.12377736134E+02  0.30706056396E+02  0.00000000000E+00 0. -1.
</event>
<event>
 7    1  0.1466590E-008  0.4614232E+02  0.7816164E-02  0.1320468E+00
        -11   -1    0    0    0    0  0.00000000000E+00  0.00000000000E+00  0.45593999997E+02  0.45594000000E+02  0.51100000000E-03 0.  1.
         11   -1    0    0    0    0 -0.00000000000E+00 -0.00000000000E+00 -0.45593999997E+02  0.45594000000E+02  0.51100000000E-03 0. -1.
    9900012    2    1    2    0    0 -0.42827436566E+02 -0.66811602840E+01  0.12259130556E+02  0.46142317548E+02  0.99999980552E+01 0.  0.
         12    1    1    2    0    0  0.42827436566E+02  0.66811602840E+01 -0.12259130556E+02  0.45045682452E+02  0.00000000000E+00 0. -1.
         11    1    3    3    0    0 -0.16121181278E+01 -0.16547022030E+01  0.56166850017E+00  0.23774852269E+01  0.51100000000E-03 0. -1.
        -11    1    3    3    0    0 -0.86192617670E+01  0.15207694851E+01  0.40780515935E+01  0.96558230253E+01  0.51100000000E-03 0.  1.
        -12    1    3    3    0    0 -0.32596056672E+02 -0.65472275661E+01  0.76194104624E+01  0.34109009296E+02  0.00000000000E+00 0.  1.
</event>
<event>
 7    1  0.1466590E-008  0.4614232E+02  0.7816164E-02  0.1320468E+00
        -11   -1    0    0    0    0  0.00000000000E+00  0.00000000000E+00  0.45593999997E+02  0.45594000000E+02  0.51100000000E-03 0.  1.
         11   -1    0    0    0    0 -0.00000000000E+00 -0.00000000000E+00 -0.45593999997E+02  0.45594000000E+02  0.51100000000E-03 0. -1.
    9900012    2    1    2    0    0  0.22011594510E+02 -0.26983379246E+02  0.28574469502E+02  0.46142319233E+02  0.10000013426E+02 0.  0.
         12    1    1    2    0    0 -0.22011594510E+02  0.26983379246E+02 -0.28574469502E+02  0.45045680767E+02  0.00000000000E+00 0. -1.
         11    1    3    3    0    0  0.45814974940E+01 -0.62812378726E+01  0.40714311552E+01  0.87761392658E+01  0.51100000000E-03 0. -1.
        -11    1    3    3    0    0  0.16522087764E+02 -0.21418077730E+02  0.23370597837E+02  0.35747703160E+02  0.51100000000E-03 0.  1.
        -12    1    3    3    0    0  0.90800925110E+00  0.71593635640E+00  0.11324405104E+01  0.16184768074E+01  0.00000000000E+00 0.  1.
</event>
<event>
 7    1  0.1466590E-008  0.4614232E+02  0.7816164E-02  0.1320468E+00
        -11   -1    0    0    0    0  0.00000000000E+00  0.00000000000E+00  0.45593999997E+02  0.45594000000E+02  0.51100000000E-03 0.  1.
         11   -1    0    0    0    0 -0.00000000000E+00 -0.00000000000E+00 -0.45593999997E+02  0.45594000000E+02  0.51100000000E-03 0. -1.
    9900012    2    1    2    0    0 -0.12227022482E+02  0.22903956771E+02  0.36810624564E+02  0.46142318794E+02  0.10000009417E+02 0.  0.
         12    1    1    2    0    0  0.12227022482E+02 -0.22903956771E+02 -0.36810624564E+02  0.45045681206E+02  0.00000000000E+00 0. -1.
         11    1    3    3    0    0 -0.18892444815E+01  0.64358138493E+00  0.47238767297E+00  0.20509978265E+01  0.51100000000E-03 0. -1.
        -11    1    3    3    0    0 -0.73529860233E+01  0.16176743518E+02  0.29670557131E+02  0.34584612114E+02  0.51100000000E-03 0.  1.
         12    1    3    3    0    0 -0.29847919768E+01  0.60836318674E+01  0.66676797598E+01  0.95067088533E+01  0.00000000000E+00 0. -1.
</event>
<event>
 7    1  0.1466590E-008  0.4614232E+02  0.7816164E-02  0.1320468E+00
        -11   -1    0    0    0    0  0.00000000000E+00  0.00000000000E+00  0.45593999997E+02  0.45594000000E+02  0.51100000000E-03 0. -1.
         11   -1    0    0    0    0 -0.00000000000E+00 -0.00000000000E+00 -0.45593999997E+02  0.45594000000E+02  0.51100000000E-03 0.  1.
    9900012    2    1    2    0    0  0.36812721809E+02 -0.15083136572E+02  0.21129035782E+02  0.46142315979E+02  0.99999837521E+01 0.  0.
         12    1    1    2    0    0 -0.36812721809E+02  0.15083136572E+02 -0.21129035782E+02  0.45045684021E+02  0.00000000000E+00 0. -1.
         11    1    3    3    0    0  0.27903793571E+01 -0.16898862201E+01  0.31476881864E+01  0.45331968381E+01  0.51100000000E-03 0. -1.
        -11    1    3    3    0    0  0.18080144801E+01 -0.22939430069E+01  0.35734662013E+01  0.46152737548E+01  0.51100000000E-03 0.  1.
        -12    1    3    3    0    0  0.32214327972E+02 -0.11099307345E+02  0.14407881394E+02  0.36993845386E+02  0.00000000000E+00 0.  1.
</event>
<event>
 7    1  0.1466590E-008  0.4614232E+02  0.7816164E-02  0.1320468E+00
        -11   -1    0    0    0    0  0.00000000000E+00  0.00000000000E+00  0.45593999997E+02  0.45594000000E+02  0.51100000000E-03 0.  1.
         11   -1    0    0    0    0 -0.00000000000E+00 -0.00000000000E+00 -0.45593999997E+02  0.45594000000E+02  0.51100000000E-03 0. -1.
    9900012    2    1    2    0    0 -0.11896438122E+02 -0.16861087716E+02  0.40041127772E+02  0.46142318384E+02  0.10000005680E+02 0.  0.
         12    1    1    2    0    0  0.11896438122E+02  0.16861087716E+02 -0.40041127772E+02  0.45045681616E+02  0.00000000000E+00 0. -1.
         11    1    3    3    0    0 -0.26930679213E+01  0.13431576150E+00  0.19709180020E+01  0.33399361647E+01  0.51100000000E-03 0. -1.
        -11    1    3    3    0    0 -0.69843639227E+01 -0.11173061335E+02  0.23222118583E+02  0.26699914433E+02  0.51100000000E-03 0.  1.
         12    1    3    3    0    0 -0.22190062779E+01 -0.58223421430E+01  0.14848091187E+02  0.16102467786E+02  0.00000000000E+00 0. -1.
</event>
<event>
 7    1  0.1466590E-008  0.4614232E+02  0.7816164E-02  0.1320468E+00
        -11   -1    0    0    0    0  0.00000000000E+00  0.00000000000E+00  0.45593999997E+02  0.45594000000E+02  0.51100000000E-03 0.  1.
         11   -1    0    0    0    0 -0.00000000000E+00 -0.00000000000E+00 -0.45593999997E+02  0.45594000000E+02  0.51100000000E-03 0. -1.
    9900012    2    1    2    0    0 -0.42233119932E+02  0.14860696772E+02 -0.49634806419E+01  0.46142324649E+02  0.10000062808E+02 0.  0.
         12    1    1    2    0    0  0.42233119932E+02 -0.14860696772E+02  0.49634806419E+01  0.45045675351E+02  0.00000000000E+00 0. -1.
         11    1    3    3    0    0 -0.12458476633E+01 -0.35867812090E+00  0.12921857083E+01  0.18304454541E+01  0.51100000000E-03 0. -1.
        -11    1    3    3    0    0 -0.33130825624E+02  0.13730373680E+02 -0.54513491774E+01  0.36275225375E+02  0.51100000000E-03 0.  1.
        -12    1    3    3    0    0 -0.78564466452E+01  0.14890012122E+01 -0.80431717274E+00  0.80366538194E+01  0.00000000000E+00 0.  1.
</event>
<event>
 7    1  0.1466590E-008  0.4614232E+02  0.7816164E-02  0.1320468E+00
        -11   -1    0    0    0    0  0.00000000000E+00  0.00000000000E+00  0.45593999997E+02  0.45594000000E+02  0.51100000000E-03 0. -1.
         11   -1    0    0    0    0 -0.00000000000E+00 -0.00000000000E+00 -0.45593999997E+02  0.45594000000E+02  0.51100000000E-03 0.  1.
    9900012    2    1    2    0    0  0.44787535476E+02 -0.32910023069E+01 -0.35155991292E+01  0.46142317994E+02  0.10000002122E+02 0.  0.
         12    1    1    2    0    0 -0.44787535476E+02  0.32910023069E+01  0.35155991292E+01  0.45045682006E+02  0.00000000000E+00 0. -1.
         11    1    3    3    0    0  0.17277383180E+02 -0.12084171719E+01  0.31789254445E+01  0.17608912767E+02  0.51100000000E-03 0. -1.
        -11    1    3    3    0    0  0.16932679295E+02 -0.15188082134E-01 -0.46989728292E+01  0.17572598121E+02  0.51100000000E-03 0.  1.
        -12    1    3    3    0    0  0.10577473000E+02 -0.20673970529E+01 -0.19955517445E+01  0.10960807106E+02  0.00000000000E+00 0.  1.
</event>
<event>
 7    1  0.1466590E-008  0.4614232E+02  0.7816164E-02  0.1320468E+00
        -11   -1    0    0    0    0  0.00000000000E+00  0.00000000000E+00  0.45593999997E+02  0.45594000000E+02  0.51100000000E-03 0.  1.
         11   -1    0    0    0    0 -0.00000000000E+00 -0.00000000000E+00 -0.45593999997E+02  0.45594000000E+02  0.51100000000E-03 0. -1.
    9900012    2    1    2    0    0  0.23157297685E+02 -0.12173517004E+02  0.36669585740E+02  0.46142317957E+02  0.10000001791E+02 0.  0.
         12    1    1    2    0    0 -0.23157297685E+02  0.12173517004E+02 -0.36669585740E+02  0.45045682043E+02  0.00000000000E+00 0. -1.
         11    1    3    3    0    0  0.14104907340E+02 -0.39322065945E+01  0.16265255384E+02  0.21885364807E+02  0.51100000000E-03 0. -1.
        -11    1    3    3    0    0  0.56766726606E+01 -0.44148460392E+01  0.15899810540E+02  0.17450485767E+02  0.51100000000E-03 0.  1.
        -12    1    3    3    0    0  0.33757176844E+01 -0.38264643705E+01  0.45045198165E+01  0.68064673833E+01  0.00000000000E+00 0.  1.
</event>
<event>
 7    1  0.1466590E-008  0.4614232E+02  0.7816164E-02  0.1320468E+00
        -11   -1    0    0    0    0  0.00000000000E+00  0.00000000000E+00  0.45593999997E+02  0.45594000000E+02  0.51100000000E-03 0.  1.
         11   -1    0    0    0    0 -0.00000000000E+00 -0.00000000000E+00 -0.45593999997E+02  0.45594000000E+02  0.51100000000E-03 0. -1.
    9900012    2    1    2    0    0 -0.35943589102E+02 -0.23343092898E+01  0.27050376728E+02  0.46142317870E+02  0.10000000995E+02 0.  0.
         12    1    1    2    0    0  0.35943589102E+02  0.23343092898E+01 -0.27050376728E+02  0.45045682130E+02  0.00000000000E+00 0. -1.
         11    1    3    3    0    0 -0.37382228029E+01 -0.95150284259E+00  0.67195253530E+01  0.77480119137E+01  0.51100000000E-03 0. -1.
        -11    1    3    3    0    0 -0.20471373022E+02  0.13595543959E+01  0.12558390787E+02  0.24054909706E+02  0.51100000000E-03 0.  1.
        -12    1    3    3    0    0 -0.11733993277E+02 -0.27423608431E+01  0.77724605885E+01  0.14339396250E+02  0.00000000000E+00 0.  1.
</event>
<event>
 7    1  0.1466590E-008  0.4614232E+02  0.7816164E-02  0.1320468E+00
        -11   -1    0    0    0    0  0.00000000000E+00  0.00000000000E+00  0.45593999997E+02  0.45594000000E+02  0.51100000000E-03 0.  1.
         11   -1    0    0    0    0 -0.00000000000E+00 -0.00000000000E+00 -0.45593999997E+02  0.45594000000E+02  0.51100000000E-03 0. -1.
    9900012    2    1    2    0    0  0.86849642050E+00 -0.28924434549E+02  0.34521534070E+02  0.46142317470E+02  0.99999973464E+01 0.  0.
         12    1    1    2    0    0 -0.86849642050E+00  0.28924434549E+02 -0.34521534070E+02  0.45045682530E+02  0.00000000000E+00 0. -1.
         11    1    3    3    0    0 -0.87699296965E+00 -0.94575836420E+01  0.16373726352E+02  0.18929181702E+02  0.51100000000E-03 0.  1.
        -11    1    3    3    0    0  0.28690725624E+01 -0.15222667478E+02  0.16186570932E+02  0.22404603574E+02  0.51100000000E-03 0. -1.
         12    1    3    3    0    0 -0.11235831722E+01 -0.42441834292E+01  0.19612367863E+01  0.48085321937E+01  0.00000000000E+00 0. -1.
</event>
<event>
 7    1  0.1466590E-008  0.4614232E+02  0.7816164E-02  0.1320468E+00
        -11   -1    0    0    0    0  0.00000000000E+00  0.00000000000E+00  0.45593999997E+02  0.45594000000E+02  0.51100000000E-03 0.  1.
         11   -1    0    0    0    0 -0.00000000000E+00 -0.00000000000E+00 -0.45593999997E+02  0.45594000000E+02  0.51100000000E-03 0. -1.
    9900012    2    1    2    0    0 -0.36408834380E+02  0.52238170918E+01  0.26004270863E+02  0.46142316643E+02  0.99999898053E+01 0.  0.
         12    1    1    2    0    0  0.36408834380E+02 -0.52238170918E+01 -0.26004270863E+02  0.45045683357E+02  0.00000000000E+00 0. -1.
         11    1    3    3    0    0 -0.72047847570E+01 -0.55274270566E+00  0.19581576847E+01  0.74865766324E+01  0.51100000000E-03 0. -1.
        -11    1    3    3    0    0 -0.26083610223E+02  0.36652620413E+01  0.22260180810E+02  0.34486294641E+02  0.51100000000E-03 0.  1.
         12    1    3    3    0    0 -0.31204394005E+01  0.21112977561E+01  0.17859323684E+01  0.41694453698E+01  0.00000000000E+00 0. -1.
</event>
<event>
 7    1  0.1466590E-008  0.4614232E+02  0.7816164E-02  0.1320468E+00
        -11   -1    0    0    0    0  0.00000000000E+00  0.00000000000E+00  0.45593999997E+02  0.45594000000E+02  0.51100000000E-03 0. -1.
         11   -1    0    0    0    0 -0.00000000000E+00 -0.00000000000E+00 -0.45593999997E+02  0.45594000000E+02  0.51100000000E-03 0.  1.
    9900012    2    1    2    0    0 -0.39835509892E+02  0.20943458464E+02  0.19018712880E+01  0.46142318573E+02  0.10000007407E+02 0.  0.
         12    1    1    2    0    0  0.39835509892E+02 -0.20943458464E+02 -0.19018712880E+01  0.45045681427E+02  0.00000000000E+00 0. -1.
         11    1    3    3    0    0  0.47625775048E+00  0.12535587941E+00  0.30230367898E+00  0.57786098401E+00  0.51100000000E-03 0. -1.
        -11    1    3    3    0    0 -0.27775251969E+02  0.14001848813E+02  0.28767656768E+01  0.31237672339E+02  0.51100000000E-03 0.  1.
        -12    1    3    3    0    0 -0.12536515673E+02  0.68162537716E+01 -0.12771980677E+01  0.14326785251E+02  0.00000000000E+00 0.  1.
</event>
<event>
 7    1  0.1466590E-008  0.4614232E+02  0.7816164E-02  0.1320468E+00
        -11   -1    0    0    0    0  0.00000000000E+00  0.00000000000E+00  0.45593999997E+02  0.45594000000E+02  0.51100000000E-03 0. -1.
         11   -1    0    0    0    0 -0.00000000000E+00 -0.00000000000E+00 -0.45593999997E+02  0.45594000000E+02  0.51100000000E-03 0.  1.
    9900012    2    1    2    0    0 -0.24152540141E+02 -0.14499549495E+02 -0.35150125501E+02  0.46142318147E+02  0.10000003523E+02 0.  0.
         12    1    1    2    0    0  0.24152540141E+02  0.14499549495E+02  0.35150125501E+02  0.45045681853E+02  0.00000000000E+00 0. -1.
         11    1    3    3    0    0 -0.16305940854E+02 -0.10354959204E+02 -0.24082491606E+02  0.30871917489E+02  0.51100000000E-03 0. -1.
        -11    1    3    3    0    0 -0.83539524312E+01 -0.44026939485E+01 -0.87155292351E+01  0.12850396310E+02  0.51100000000E-03 0.  1.
         12    1    3    3    0    0  0.50735314443E+00  0.25810365719E+00 -0.23521046604E+01  0.24200043481E+01  0.00000000000E+00 0. -1.
</event>
<event>
 7    1  0.1466590E-008  0.4614232E+02  0.7816164E-02  0.1320468E+00
        -11   -1    0    0    0    0  0.00000000000E+00  0.00000000000E+00  0.45593999997E+02  0.45594000000E+02  0.51100000000E-03 0.  1.
         11   -1    0    0    0    0 -0.00000000000E+00 -0.00000000000E+00 -0.45593999997E+02  0.45594000000E+02  0.51100000000E-03 0. -1.
    9900012    2    1    2    0    0 -0.31152714266E+02  0.23410358956E+02  0.22595951582E+02  0.46142317182E+02  0.99999947220E+01 0.  0.
         12    1    1    2    0    0  0.31152714266E+02 -0.23410358956E+02 -0.22595951582E+02  0.45045682818E+02  0.00000000000E+00 0. -1.
         11    1    3    3    0    0 -0.10995218489E+02  0.79396422683E+01  0.11059048255E+02  0.17499579925E+02  0.51100000000E-03 0. -1.
        -11    1    3    3    0    0 -0.16827496156E+02  0.96692109999E+01  0.97488251517E+01  0.21718606317E+02  0.51100000000E-03 0.  1.
        -12    1    3    3    0    0 -0.33299996207E+01  0.58015056878E+01  0.17880781753E+01  0.69241309405E+01  0.00000000000E+00 0.  1.
</event>
<event>
 7    1  0.1466590E-008  0.4614232E+02  0.7816164E-02  0.1320468E+00
        -11   -1    0    0    0    0  0.00000000000E+00  0.00000000000E+00  0.45593999997E+02  0.45594000000E+02  0.51100000000E-03 0. -1.
         11   -1    0    0    0    0 -0.00000000000E+00 -0.00000000000E+00 -0.45593999997E+02  0.45594000000E+02  0.51100000000E-03 0.  1.
    9900012    2    1    2    0    0  0.42375965989E+02 -0.15255041744E+02 -0.82137422612E+00  0.46142318212E+02  0.10000004116E+02 0.  0.
         12    1    1    2    0    0 -0.42375965989E+02  0.15255041744E+02  0.82137422612E+00  0.45045681788E+02  0.00000000000E+00 0. -1.
         11    1    3    3    0    0  0.10703936214E+02 -0.41840110480E+01 -0.43847994152E+01  0.12300677424E+02  0.51100000000E-03 0. -1.
        -11    1    3    3    0    0  0.25911173416E+02 -0.10075850442E+02  0.27009707535E+01  0.27932184183E+02  0.51100000000E-03 0.  1.
         12    1    3    3    0    0  0.57608563585E+01 -0.99518025361E+00  0.86245443558E+00  0.59094566056E+01  0.00000000000E+00 0. -1.
</event>
<event>
 7    1  0.1466590E-008  0.4614232E+02  0.7816164E-02  0.1320468E+00
        -11   -1    0    0    0    0  0.00000000000E+00  0.00000000000E+00  0.45593999997E+02  0.45594000000E+02  0.51100000000E-03 0. -1.
         11   -1    0    0    0    0 -0.00000000000E+00 -0.00000000000E+00 -0.45593999997E+02  0.45594000000E+02  0.51100000000E-03 0.  1.
    9900012    2    1    2    0    0 -0.27699395232E+02 -0.21628413448E+02 -0.28179225366E+02  0.46142317557E+02  0.99999981412E+01 0.  0.
         12    1    1    2    0    0  0.27699395232E+02  0.21628413448E+02  0.28179225366E+02  0.45045682443E+02  0.00000000000E+00 0. -1.
         11    1    3    3    0    0 -0.20634925527E+01 -0.69876494374E+00 -0.49393127972E-01  0.21791544011E+01  0.51100000000E-03 0. -1.
        -11    1    3    3    0    0 -0.24977662640E+01 -0.24753060486E+01 -0.64906318985E+00  0.35759277998E+01  0.51100000000E-03 0.  1.
        -12    1    3    3    0    0 -0.23138136415E+02 -0.18454342455E+02 -0.27480769048E+02  0.40387235356E+02  0.00000000000E+00 0.  1.
</event>
<event>
 7    1  0.1466590E-008  0.4614232E+02  0.7816164E-02  0.1320468E+00
        -11   -1    0    0    0    0  0.00000000000E+00  0.00000000000E+00  0.45593999997E+02  0.45594000000E+02  0.51100000000E-03 0.  1.
         11   -1    0    0    0    0 -0.00000000000E+00 -0.00000000000E+00 -0.45593999997E+02  0.45594000000E+02  0.51100000000E-03 0. -1.
    9900012    2    1    2    0    0 -0.28587032872E+02 -0.17118892591E+02  0.30312350936E+02  0.46142317064E+02  0.99999936398E+01 0.  0.
         12    1    1    2    0    0  0.28587032872E+02  0.17118892591E+02 -0.30312350936E+02  0.45045682936E+02  0.00000000000E+00 0. -1.
         11    1    3    3    0    0 -0.32734194790E+01 -0.18047366814E+01  0.12270636338E+01  0.39342133899E+01  0.51100000000E-03 0. -1.
        -11    1    3    3    0    0 -0.50865794300E+01 -0.33049787047E+01  0.10902943263E+02  0.12476792320E+02  0.51100000000E-03 0.  1.
        -12    1    3    3    0    0 -0.20227033963E+02 -0.12009177205E+02  0.18182344039E+02  0.29731311354E+02  0.00000000000E+00 0.  1.
</event>
<event>
 7    1  0.1466590E-008  0.4614232E+02  0.7816164E-02  0.1320468E+00
        -11   -1    0    0    0    0  0.00000000000E+00  0.00000000000E+00  0.45593999997E+02  0.45594000000E+02  0.51100000000E-03 0. -1.
         11   -1    0    0    0    0 -0.00000000000E+00 -0.00000000000E+00 -0.45593999997E+02  0.45594000000E+02  0.51100000000E-03 0.  1.
    9900012    2    1    2    0    0 -0.19351930834E+02  0.12347966921E+02 -0.38757502578E+02  0.46142317408E+02  0.99999967800E+01 0.  0.
         12    1    1    2    0    0  0.19351930834E+02 -0.12347966921E+02  0.38757502578E+02  0.45045682592E+02  0.00000000000E+00 0. -1.
         11    1    3    3    0    0  0.88273986276E+00  0.62421603282E+00 -0.54211678080E+00  0.12094487116E+01  0.51100000000E-03 0. -1.
        -11    1    3    3    0    0 -0.14288701333E+02  0.69897624215E+01 -0.23613827454E+02  0.28471680874E+02  0.51100000000E-03 0.  1.
        -12    1    3    3    0    0 -0.59459693642E+01  0.47339884665E+01 -0.14601558343E+02  0.16461187822E+02  0.00000000000E+00 0.  1.
</event>
<event>
 7    1  0.1466590E-008  0.4614231E+02  0.7816164E-02  0.1320468E+00
        -11   -1    0    0    0    0  0.00000000000E+00  0.00000000000E+00  0.45593999997E+02  0.45594000000E+02  0.51100000000E-03 0. -1.
         11   -1    0    0    0    0 -0.00000000000E+00 -0.00000000000E+00 -0.45593999997E+02  0.45594000000E+02  0.51100000000E-03 0.  1.
    9900012    2    1    2    0    0  0.40627301320E+02  0.10847047127E+02 -0.16151712473E+02  0.46142313639E+02  0.99999624104E+01 0.  0.
         12    1    1    2    0    0 -0.40627301320E+02 -0.10847047127E+02  0.16151712473E+02  0.45045686361E+02  0.00000000000E+00 0. -1.
         11    1    3    3    0    0  0.10342944006E+02  0.28418496175E+00 -0.21254236191E+01  0.10562891537E+02  0.51100000000E-03 0. -1.
        -11    1    3    3    0    0  0.29117650852E+02  0.11384849328E+02 -0.13265553617E+02  0.33962145080E+02  0.51100000000E-03 0.  1.
        -12    1    3    3    0    0  0.11667064622E+01 -0.82198716365E+00 -0.76073523694E+00  0.16172770223E+01  0.00000000000E+00 0.  1.
</event>
<event>
 7    1  0.1466590E-008  0.4614232E+02  0.7816164E-02  0.1320468E+00
        -11   -1    0    0    0    0  0.00000000000E+00  0.00000000000E+00  0.45593999997E+02  0.45594000000E+02  0.51100000000E-03 0.  1.
         11   -1    0    0    0    0 -0.00000000000E+00 -0.00000000000E+00 -0.45593999997E+02  0.45594000000E+02  0.51100000000E-03 0. -1.
    9900012    2    1    2    0    0  0.79909906293E+01  0.39966090773E+02  0.19182520880E+02  0.46142318184E+02  0.10000003861E+02 0.  0.
         12    1    1    2    0    0 -0.79909906293E+01 -0.39966090773E+02 -0.19182520880E+02  0.45045681816E+02  0.00000000000E+00 0. -1.
         11    1    3    3    0    0  0.32933623707E+01  0.99459038623E+01  0.74069717071E+01  0.12830840560E+02  0.51100000000E-03 0.  1.
        -11    1    3    3    0    0 -0.82113958319E+00  0.13682023176E+02  0.33102202647E+01  0.14100694553E+02  0.51100000000E-03 0. -1.
         12    1    3    3    0    0  0.55187678417E+01  0.16338163734E+02  0.84653289086E+01  0.19210783072E+02  0.00000000000E+00 0. -1.
</event>
<event>
 7    1  0.1466590E-008  0.4614232E+02  0.7816164E-02  0.1320468E+00
        -11   -1    0    0    0    0  0.00000000000E+00  0.00000000000E+00  0.45593999997E+02  0.45594000000E+02  0.51100000000E-03 0. -1.
         11   -1    0    0    0    0 -0.00000000000E+00 -0.00000000000E+00 -0.45593999997E+02  0.45594000000E+02  0.51100000000E-03 0.  1.
    9900012    2    1    2    0    0  0.58153645073E+01 -0.26067038330E+02 -0.36274021043E+02  0.46142317029E+02  0.99999933282E+01 0.  0.
         12    1    1    2    0    0 -0.58153645073E+01  0.26067038330E+02  0.36274021043E+02  0.45045682971E+02  0.00000000000E+00 0. -1.
         11    1    3    3    0    0  0.40408716680E+01 -0.66299227856E+01 -0.14739843745E+02  0.16659757318E+02  0.51100000000E-03 0. -1.
        -11    1    3    3    0    0  0.32411946607E+01 -0.12700173685E+02 -0.15687836799E+02  0.20442797708E+02  0.51100000000E-03 0.  1.
         12    1    3    3    0    0 -0.14667018213E+01 -0.67369418600E+01 -0.58463404985E+01  0.90397620036E+01  0.00000000000E+00 0. -1.
</event>
<event>
 7    1  0.1466590E-008  0.4614232E+02  0.7816164E-02  0.1320468E+00
        -11   -1    0    0    0    0  0.00000000000E+00  0.00000000000E+00  0.45593999997E+02  0.45594000000E+02  0.51100000000E-03 0.  1.
         11   -1    0    0    0    0 -0.00000000000E+00 -0.00000000000E+00 -0.45593999997E+02  0.45594000000E+02  0.51100000000E-03 0. -1.
    9900012    2    1    2    0    0 -0.75354820279E+01 -0.33421262290E+01  0.44284987943E+02  0.46142318140E+02  0.10000003457E+02 0.  0.
         12    1    1    2    0    0  0.75354820279E+01  0.33421262290E+01 -0.44284987943E+02  0.45045681860E+02  0.00000000000E+00 0. -1.
         11    1    3    3    0    0 -0.32861624197E+01 -0.11799223321E+01  0.15425975956E+02  0.15816188372E+02  0.51100000000E-03 0. -1.
        -11    1    3    3    0    0 -0.34430691330E+01 -0.27535069362E+01  0.28985013375E+02  0.29318382051E+02  0.51100000000E-03 0.  1.
         12    1    3    3    0    0 -0.80625047521E+00  0.59130303923E+00 -0.12600138744E+00  0.10077477177E+01  0.00000000000E+00 0. -1.
</event>
<event>
 7    1  0.1466590E-008  0.4614232E+02  0.7816164E-02  0.1320468E+00
        -11   -1    0    0    0    0  0.00000000000E+00  0.00000000000E+00  0.45593999997E+02  0.45594000000E+02  0.51100000000E-03 0. -1.
         11   -1    0    0    0    0 -0.00000000000E+00 -0.00000000000E+00 -0.45593999997E+02  0.45594000000E+02  0.51100000000E-03 0.  1.
    9900012    2    1    2    0    0 -0.29687162696E+02 -0.33858716924E+02  0.11718135926E+01  0.46142317767E+02  0.10000000057E+02 0.  0.
         12    1    1    2    0    0  0.29687162696E+02  0.33858716924E+02 -0.11718135926E+01  0.45045682233E+02  0.00000000000E+00 0. -1.
         11    1    3    3    0    0 -0.18106485722E+02 -0.17420730481E+02 -0.28257604238E+01  0.25284611880E+02  0.51100000000E-03 0. -1.
        -11    1    3    3    0    0 -0.79378358610E+01 -0.83756217441E+01  0.31982793745E+01  0.11974525835E+02  0.51100000000E-03 0.  1.
         12    1    3    3    0    0 -0.36428411138E+01 -0.80623646987E+01  0.79929464187E+00  0.88831800522E+01  0.00000000000E+00 0. -1.
</event>
<event>
 7    1  0.1466590E-008  0.4614232E+02  0.7816164E-02  0.1320468E+00
        -11   -1    0    0    0    0  0.00000000000E+00  0.00000000000E+00  0.45593999997E+02  0.45594000000E+02  0.51100000000E-03 0.  1.
         11   -1    0    0    0    0 -0.00000000000E+00 -0.00000000000E+00 -0.45593999997E+02  0.45594000000E+02  0.51100000000E-03 0. -1.
    9900012    2    1    2    0    0  0.29174192217E+02  0.24706247947E+02  0.23823964324E+02  0.46142318128E+02  0.10000003350E+02 0.  0.
         12    1    1    2    0    0 -0.29174192217E+02 -0.24706247947E+02 -0.23823964324E+02  0.45045681872E+02  0.00000000000E+00 0. -1.
         11    1    3    3    0    0  0.29848473738E+01  0.63191520097E+01  0.28817184455E+01  0.75594508681E+01  0.51100000000E-03 0. -1.
        -11    1    3    3    0    0  0.13940495821E+02  0.12464723895E+02  0.10626569350E+02  0.21508852641E+02  0.51100000000E-03 0.  1.
         12    1    3    3    0    0  0.12248849023E+02  0.59223720419E+01  0.10315676528E+02  0.17074014619E+02  0.00000000000E+00 0. -1.
</event>
<event>
 7    1  0.1466590E-008  0.4614232E+02  0.7816164E-02  0.1320468E+00
        -11   -1    0    0    0    0  0.00000000000E+00  0.00000000000E+00  0.45593999997E+02  0.45594000000E+02  0.51100000000E-03 0.  1.
         11   -1    0    0    0    0 -0.00000000000E+00 -0.00000000000E+00 -0.45593999997E+02  0.45594000000E+02  0.51100000000E-03 0. -1.
    9900012    2    1    2    0    0 -0.16922824390E+02  0.69542126637E+01  0.41162731385E+02  0.46142317475E+02  0.99999973866E+01 0.  0.
         12    1    1    2    0    0  0.16922824390E+02 -0.69542126637E+01 -0.41162731385E+02  0.45045682525E+02  0.00000000000E+00 0. -1.
         11    1    3    3    0    0 -0.55668408382E+01  0.25679603431E+00  0.52852121920E+01  0.76804380927E+01  0.51100000000E-03 0. -1.
        -11    1    3    3    0    0 -0.87098325343E+01  0.33451249257E+01  0.20913703340E+02  0.22900524693E+02  0.51100000000E-03 0.  1.
         12    1    3    3    0    0 -0.26461510173E+01  0.33522917036E+01  0.14963815853E+02  0.15561354689E+02  0.00000000000E+00 0. -1.
</event>
<event>
 7    1  0.1466590E-008  0.4614232E+02  0.7816164E-02  0.1320468E+00
        -11   -1    0    0    0    0  0.00000000000E+00  0.00000000000E+00  0.45593999997E+02  0.45594000000E+02  0.51100000000E-03 0. -1.
         11   -1    0    0    0    0 -0.00000000000E+00 -0.00000000000E+00 -0.45593999997E+02  0.45594000000E+02  0.51100000000E-03 0.  1.
    9900012    2    1    2    0    0 -0.19118893002E+02 -0.16970259449E+02 -0.37088970288E+02  0.46142317716E+02  0.99999995854E+01 0.  0.
         12    1    1    2    0    0  0.19118893002E+02  0.16970259449E+02  0.37088970288E+02  0.45045682284E+02  0.00000000000E+00 0. -1.
         11    1    3    3    0    0 -0.89587047882E+01 -0.65512573938E+01 -0.91641872851E+01  0.14393043242E+02  0.51100000000E-03 0. -1.
        -11    1    3    3    0    0 -0.10403496025E+02 -0.10106419800E+02 -0.27758986191E+02  0.31319862154E+02  0.51100000000E-03 0.  1.
        -12    1    3    3    0    0  0.24330781061E+00 -0.31258225560E+00 -0.16579681224E+00  0.42941231954E+00  0.00000000000E+00 0.  1.
</event>
<event>
 7    1  0.1466590E-008  0.4614232E+02  0.7816164E-02  0.1320468E+00
        -11   -1    0    0    0    0  0.00000000000E+00  0.00000000000E+00  0.45593999997E+02  0.45594000000E+02  0.51100000000E-03 0. -1.
         11   -1    0    0    0    0 -0.00000000000E+00 -0.00000000000E+00 -0.45593999997E+02  0.45594000000E+02  0.51100000000E-03 0.  1.
    9900012    2    1    2    0    0  0.27163866768E+02 -0.31213176696E+02 -0.17803802181E+02  0.46142318416E+02  0.10000005974E+02 0.  0.
         12    1    1    2    0    0 -0.27163866768E+02  0.31213176696E+02  0.17803802181E+02  0.45045681584E+02  0.00000000000E+00 0. -1.
         11    1    3    3    0    0  0.62371099195E+01 -0.12996189177E+02 -0.64481516423E+01  0.15791805885E+02  0.51100000000E-03 0. -1.
        -11    1    3    3    0    0  0.68535237306E+01 -0.86043312450E+01 -0.57301349803E+01  0.12403215343E+02  0.51100000000E-03 0.  1.
         12    1    3    3    0    0  0.14073233118E+02 -0.96126562743E+01 -0.56255155589E+01  0.17947297188E+02  0.00000000000E+00 0. -1.
</event>
<event>
 7    1  0.1466590E-008  0.4614232E+02  0.7816164E-02  0.1320468E+00
        -11   -1    0    0    0    0  0.00000000000E+00  0.00000000000E+00  0.45593999997E+02  0.45594000000E+02  0.51100000000E-03 0. -1.
         11   -1    0    0    0    0 -0.00000000000E+00 -0.00000000000E+00 -0.45593999997E+02  0.45594000000E+02  0.51100000000E-03 0.  1.
    9900012    2    1    2    0    0  0.31533982009E+02  0.31326239364E+02 -0.73067249453E+01  0.46142317372E+02  0.99999964482E+01 0.  0.
         12    1    1    2    0    0 -0.31533982009E+02 -0.31326239364E+02  0.73067249453E+01  0.45045682628E+02  0.00000000000E+00 0. -1.
         11    1    3    3    0    0  0.87114581952E+01  0.11688179016E+02 -0.40382587768E+01  0.15126485606E+02  0.51100000000E-03 0. -1.
        -11    1    3    3    0    0  0.17595216565E+02  0.14157410424E+02  0.42880286965E+00  0.22587779618E+02  0.51100000000E-03 0.  1.
        -12    1    3    3    0    0  0.52273072481E+01  0.54806499244E+01 -0.36972690381E+01  0.84280521475E+01  0.00000000000E+00 0.  1.
</event>
<event>
 7    1  0.1466590E-008  0.4614232E+02  0.7816164E-02  0.1320468E+00
        -11   -1    0    0    0    0  0.00000000000E+00  0.00000000000E+00  0.45593999997E+02  0.45594000000E+02  0.51100000000E-03 0.  1.
         11   -1    0    0    0    0 -0.00000000000E+00 -0.00000000000E+00 -0.45593999997E+02  0.45594000000E+02  0.51100000000E-03 0. -1.
    9900012    2    1    2    0    0  0.14654128773E+02  0.23694980529E+02  0.35396582129E+02  0.46142316314E+02  0.99999868016E+01 0.  0.
         12    1    1    2    0    0 -0.14654128773E+02 -0.23694980529E+02 -0.35396582129E+02  0.45045683686E+02  0.00000000000E+00 0. -1.
         11    1    3    3    0    0 -0.15148159536E+00  0.13908234450E+01  0.40292147532E+01  0.42651973362E+01  0.51100000000E-03 0. -1.
        -11    1    3    3    0    0  0.67322302045E+01  0.90550944945E+01  0.18731868106E+02  0.21867796936E+02  0.51100000000E-03 0.  1.
         12    1    3    3    0    0  0.80733801636E+01  0.13249062590E+02  0.12635499270E+02  0.20009322042E+02  0.00000000000E+00 0. -1.
</event>
<event>
 7    1  0.1466590E-008  0.4614231E+02  0.7816164E-02  0.1320468E+00
        -11   -1    0    0    0    0  0.00000000000E+00  0.00000000000E+00  0.45593999997E+02  0.45594000000E+02  0.51100000000E-03 0. -1.
         11   -1    0    0    0    0 -0.00000000000E+00 -0.00000000000E+00 -0.45593999997E+02  0.45594000000E+02  0.51100000000E-03 0.  1.
    9900012    2    1    2    0    0 -0.98317352328E+01  0.40464206585E+02 -0.17178446887E+02  0.46142311309E+02  0.99999411606E+01 0.  0.
         12    1    1    2    0    0  0.98317352328E+01 -0.40464206585E+02  0.17178446887E+02  0.45045688691E+02  0.00000000000E+00 0. -1.
         11    1    3    3    0    0 -0.24412404763E+01  0.73069987886E+01 -0.60160596879E+01  0.97747051510E+01  0.51100000000E-03 0. -1.
        -11    1    3    3    0    0 -0.60757891144E+00  0.17654574984E+02 -0.50019806729E+01  0.18359547405E+02  0.51100000000E-03 0.  1.
        -12    1    3    3    0    0 -0.67829158450E+01  0.15502632813E+02 -0.61604065263E+01  0.18008058753E+02  0.00000000000E+00 0.  1.
</event>
<event>
 7    1  0.1466590E-008  0.4614232E+02  0.7816164E-02  0.1320468E+00
        -11   -1    0    0    0    0  0.00000000000E+00  0.00000000000E+00  0.45593999997E+02  0.45594000000E+02  0.51100000000E-03 0.  1.
         11   -1    0    0    0    0 -0.00000000000E+00 -0.00000000000E+00 -0.45593999997E+02  0.45594000000E+02  0.51100000000E-03 0. -1.
    9900012    2    1    2    0    0 -0.10209598936E+02  0.23531349611E+02  0.37029085513E+02  0.46142317645E+02  0.99999989381E+01 0.  0.
         12    1    1    2    0    0  0.10209598936E+02 -0.23531349611E+02 -0.37029085513E+02  0.45045682355E+02  0.00000000000E+00 0. -1.
         11    1    3    3    0    0 -0.30977669795E+01  0.11799153108E+02  0.11575096754E+02  0.16816629848E+02  0.51100000000E-03 0. -1.
        -11    1    3    3    0    0 -0.39878880072E+01  0.94991147653E+01  0.21347995839E+02  0.23703868011E+02  0.51100000000E-03 0.  1.
         12    1    3    3    0    0 -0.31239439488E+01  0.22330817379E+01  0.41059929199E+01  0.56218197856E+01  0.00000000000E+00 0. -1.
</event>
<event>
 7    1  0.1466590E-008  0.4614232E+02  0.7816164E-02  0.1320468E+00
        -11   -1    0    0    0    0  0.00000000000E+00  0.00000000000E+00  0.45593999997E+02  0.45594000000E+02  0.51100000000E-03 0.  1.
         11   -1    0    0    0    0 -0.00000000000E+00 -0.00000000000E+00 -0.45593999997E+02  0.45594000000E+02  0.51100000000E-03 0. -1.
    9900012    2    1    2    0    0  0.28530544786E+02  0.11098834979E+02  0.33044473414E+02  0.46142319332E+02  0.10000014321E+02 0.  0.
         12    1    1    2    0    0 -0.28530544786E+02 -0.11098834979E+02 -0.33044473414E+02  0.45045680668E+02  0.00000000000E+00 0. -1.
         11    1    3    3    0    0  0.18734002704E+02  0.73387771526E+01  0.16503284633E+02  0.26022661496E+02  0.51100000000E-03 0. -1.
        -11    1    3    3    0    0  0.51321492453E+01  0.15459302086E+01  0.12372579433E+02  0.13483678214E+02  0.51100000000E-03 0.  1.
        -12    1    3    3    0    0  0.46643928367E+01  0.22141276174E+01  0.41686093485E+01  0.66359796218E+01  0.00000000000E+00 0.  1.
</event>
<event>
 7    1  0.1466590E-008  0.4614231E+02  0.7816164E-02  0.1320468E+00
        -11   -1    0    0    0    0  0.00000000000E+00  0.00000000000E+00  0.45593999997E+02  0.45594000000E+02  0.51100000000E-03 0.  1.
         11   -1    0    0    0    0 -0.00000000000E+00 -0.00000000000E+00 -0.45593999997E+02  0.45594000000E+02  0.51100000000E-03 0. -1.
    9900012    2    1    2    0    0 -0.12833422181E+02 -0.41772960935E+02  0.10928722107E+02  0.46142312559E+02  0.99999525586E+01 0.  0.
         12    1    1    2    0    0  0.12833422181E+02  0.41772960935E+02 -0.10928722107E+02  0.45045687441E+02  0.00000000000E+00 0. -1.
         11    1    3    3    0    0 -0.38636195262E+01 -0.69438565443E+01  0.26894266206E+01  0.83891427070E+01  0.51100000000E-03 0. -1.
        -11    1    3    3    0    0 -0.80256498474E+01 -0.21567296691E+02  0.20969210573E+01  0.23107497056E+02  0.51100000000E-03 0.  1.
        -12    1    3    3    0    0 -0.94415280788E+00 -0.13261807700E+02  0.61423744288E+01  0.14645672795E+02  0.00000000000E+00 0.  1.
</event>
<event>
 7    1  0.1466590E-008  0.4614232E+02  0.7816164E-02  0.1320468E+00
        -11   -1    0    0    0    0  0.00000000000E+00  0.00000000000E+00  0.45593999997E+02  0.45594000000E+02  0.51100000000E-03 0.  1.
         11   -1    0    0    0    0 -0.00000000000E+00 -0.00000000000E+00 -0.45593999997E+02  0.45594000000E+02  0.51100000000E-03 0. -1.
    9900012    2    1    2    0    0  0.21961054373E+02  0.16669053282E+02  0.35622581936E+02  0.46142316630E+02  0.99999896818E+01 0.  0.
         12    1    1    2    0    0 -0.21961054373E+02 -0.16669053282E+02 -0.35622581936E+02  0.45045683370E+02  0.00000000000E+00 0. -1.
         11    1    3    3    0    0  0.38115308984E+01 -0.47918433560E+00  0.39819029365E+01  0.55328958669E+01  0.51100000000E-03 0. -1.
        -11    1    3    3    0    0  0.51970514069E+01  0.55332179097E+01  0.13410146489E+02  0.15409668162E+02  0.51100000000E-03 0.  1.
        -12    1    3    3    0    0  0.12952472068E+02  0.11615019708E+02  0.18230532511E+02  0.25199752600E+02  0.00000000000E+00 0.  1.
</event>
<event>
 7    1  0.1466590E-008  0.4614232E+02  0.7816164E-02  0.1320468E+00
        -11   -1    0    0    0    0  0.00000000000E+00  0.00000000000E+00  0.45593999997E+02  0.45594000000E+02  0.51100000000E-03 0.  1.
         11   -1    0    0    0    0 -0.00000000000E+00 -0.00000000000E+00 -0.45593999997E+02  0.45594000000E+02  0.51100000000E-03 0. -1.
    9900012    2    1    2    0    0  0.13885476205E+02  0.24180646832E+02  0.35378007245E+02  0.46142317329E+02  0.99999960614E+01 0.  0.
         12    1    1    2    0    0 -0.13885476205E+02 -0.24180646832E+02 -0.35378007245E+02  0.45045682671E+02  0.00000000000E+00 0. -1.
         11    1    3    3    0    0  0.46551043685E+01  0.43589102201E+01  0.98613210544E+01  0.11743753582E+02  0.51100000000E-03 0. -1.
        -11    1    3    3    0    0  0.75242433860E+01  0.18254459703E+02  0.25269806995E+02  0.32068718144E+02  0.51100000000E-03 0.  1.
        -12    1    3    3    0    0  0.17061284504E+01  0.15672769096E+01  0.24687919576E+00  0.23298456039E+01  0.00000000000E+00 0.  1.
</event>
<event>
 7    1  0.1466590E-008  0.4614232E+02  0.7816164E-02  0.1320468E+00
        -11   -1    0    0    0    0  0.00000000000E+00  0.00000000000E+00  0.45593999997E+02  0.45594000000E+02  0.51100000000E-03 0.  1.
         11   -1    0    0    0    0 -0.00000000000E+00 -0.00000000000E+00 -0.45593999997E+02  0.45594000000E+02  0.51100000000E-03 0. -1.
    9900012    2    1    2    0    0 -0.10790060305E+02 -0.32578178497E+02  0.29177909516E+02  0.46142317418E+02  0.99999968721E+01 0.  0.
         12    1    1    2    0    0  0.10790060305E+02  0.32578178497E+02 -0.29177909516E+02  0.45045682582E+02  0.00000000000E+00 0. -1.
         11    1    3    3    0    0  0.38913731474E+00 -0.11598982258E+01  0.20646925980E+01  0.23999474014E+01  0.51100000000E-03 0. -1.
        -11    1    3    3    0    0 -0.54191033923E+01 -0.25472644014E+02  0.20252925112E+02  0.32990957102E+02  0.51100000000E-03 0.  1.
        -12    1    3    3    0    0 -0.57600942270E+01 -0.59456362571E+01  0.68602918059E+01  0.10751412915E+02  0.00000000000E+00 0.  1.
</event>
<event>
 7    1  0.1466590E-008  0.4614232E+02  0.7816164E-02  0.1320468E+00
        -11   -1    0    0    0    0  0.00000000000E+00  0.00000000000E+00  0.45593999997E+02  0.45594000000E+02  0.51100000000E-03 0.  1.
         11   -1    0    0    0    0 -0.00000000000E+00 -0.00000000000E+00 -0.45593999997E+02  0.45594000000E+02  0.51100000000E-03 0. -1.
    9900012    2    1    2    0    0  0.25351207915E+02  0.21396450893E+02  0.30473295456E+02  0.46142316638E+02  0.99999897569E+01 0.  0.
         12    1    1    2    0    0 -0.25351207915E+02 -0.21396450893E+02 -0.30473295456E+02  0.45045683362E+02  0.00000000000E+00 0. -1.
         11    1    3    3    0    0  0.10378992028E+02  0.93047899506E+01  0.78395516566E+01  0.15992534570E+02  0.51100000000E-03 0. -1.
        -11    1    3    3    0    0  0.29960570813E+01  0.45937872502E+01  0.88428340294E+01  0.10405525132E+02  0.51100000000E-03 0.  1.
        -12    1    3    3    0    0  0.11976158806E+02  0.74978736925E+01  0.13790909770E+02  0.19744256936E+02  0.00000000000E+00 0.  1.
</event>
<event>
 7    1  0.1466590E-008  0.4614232E+02  0.7816164E-02  0.1320468E+00
        -11   -1    0    0    0    0  0.00000000000E+00  0.00000000000E+00  0.45593999997E+02  0.45594000000E+02  0.51100000000E-03 0.  1.
         11   -1    0    0    0    0 -0.00000000000E+00 -0.00000000000E+00 -0.45593999997E+02  0.45594000000E+02  0.51100000000E-03 0. -1.
    9900012    2    1    2    0    0 -0.93402547921E+01 -0.39601363116E+02  0.19328862483E+02  0.46142320461E+02  0.10000024619E+02 0.  0.
         12    1    1    2    0    0  0.93402547921E+01  0.39601363116E+02 -0.19328862483E+02  0.45045679539E+02  0.00000000000E+00 0. -1.
         11    1    3    3    0    0  0.30158536941E+00  0.22137178243E-01 -0.67090058176E-01  0.30975010368E+00  0.51100000000E-03 0. -1.
        -11    1    3    3    0    0 -0.84537207499E+01 -0.22644119703E+02  0.14214087711E+02  0.28040360935E+02  0.51100000000E-03 0.  1.
        -12    1    3    3    0    0 -0.11881194116E+01 -0.16979380591E+02  0.51818648296E+01  0.17792209422E+02  0.00000000000E+00 0.  1.
</event>
<event>
 7    1  0.1466590E-008  0.4614232E+02  0.7816164E-02  0.1320468E+00
        -11   -1    0    0    0    0  0.00000000000E+00  0.00000000000E+00  0.45593999997E+02  0.45594000000E+02  0.51100000000E-03 0. -1.
         11   -1    0    0    0    0 -0.00000000000E+00 -0.00000000000E+00 -0.45593999997E+02  0.45594000000E+02  0.51100000000E-03 0.  1.
    9900012    2    1    2    0    0  0.21212401138E+01  0.27419259506E+02 -0.35676295375E+02  0.46142317597E+02  0.99999984995E+01 0.  0.
         12    1    1    2    0    0 -0.21212401138E+01 -0.27419259506E+02  0.35676295375E+02  0.45045682403E+02  0.00000000000E+00 0. -1.
         11    1    3    3    0    0  0.15439388785E+01  0.14494368751E+02 -0.17540632484E+02  0.22806671413E+02  0.51100000000E-03 0. -1.
        -11    1    3    3    0    0 -0.42422064643E+00  0.52256516587E+01 -0.23530615113E+01  0.57466770531E+01  0.51100000000E-03 0.  1.
        -12    1    3    3    0    0  0.10015218818E+01  0.76992390964E+01 -0.15782601380E+02  0.17588969130E+02  0.00000000000E+00 0.  1.
</event>
<event>
 7    1  0.1466590E-008  0.4614232E+02  0.7816164E-02  0.1320468E+00
        -11   -1    0    0    0    0  0.00000000000E+00  0.00000000000E+00  0.45593999997E+02  0.45594000000E+02  0.51100000000E-03 0. -1.
         11   -1    0    0    0    0 -0.00000000000E+00 -0.00000000000E+00 -0.45593999997E+02  0.45594000000E+02  0.51100000000E-03 0.  1.
    9900012    2    1    2    0    0  0.34297221700E+02 -0.29090686548E+02  0.25585136718E+01  0.46142318160E+02  0.10000003640E+02 0.  0.
         12    1    1    2    0    0 -0.34297221700E+02  0.29090686548E+02 -0.25585136718E+01  0.45045681840E+02  0.00000000000E+00 0. -1.
         11    1    3    3    0    0  0.13377292075E+02 -0.10455923286E+02  0.37263674313E+01  0.17382867701E+02  0.51100000000E-03 0. -1.
        -11    1    3    3    0    0  0.20146840766E+02 -0.19158364951E+02 -0.11087119816E+01  0.27823863552E+02  0.51100000000E-03 0.  1.
         12    1    3    3    0    0  0.77308885932E+00  0.52360168796E+00 -0.59141777865E-01  0.93558690773E+00  0.00000000000E+00 0. -1.
</event>
<event>
 7    1  0.1466590E-008  0.4614232E+02  0.7816164E-02  0.1320468E+00
        -11   -1    0    0    0    0  0.00000000000E+00  0.00000000000E+00  0.45593999997E+02  0.45594000000E+02  0.51100000000E-03 0.  1.
         11   -1    0    0    0    0 -0.00000000000E+00 -0.00000000000E+00 -0.45593999997E+02  0.45594000000E+02  0.51100000000E-03 0. -1.
    9900012    2    1    2    0    0 -0.12261471244E+02  0.15415145248E+02  0.40511024530E+02  0.46142317759E+02  0.99999999794E+01 0.  0.
         12    1    1    2    0    0  0.12261471244E+02 -0.15415145248E+02 -0.40511024530E+02  0.45045682241E+02  0.00000000000E+00 0. -1.
         11    1    3    3    0    0 -0.35827312343E+01  0.67434429589E+01  0.10315924303E+02  0.12834651554E+02  0.51100000000E-03 0. -1.
        -11    1    3    3    0    0 -0.26276640225E+01  0.26195098896E+01  0.18188455985E+02  0.18563038050E+02  0.51100000000E-03 0.  1.
        -12    1    3    3    0    0 -0.60510759873E+01  0.60521923998E+01  0.12006644242E+02  0.14744628154E+02  0.00000000000E+00 0.  1.
</event>
<event>
 7    1  0.1466590E-008  0.4614232E+02  0.7816164E-02  0.1320468E+00
        -11   -1    0    0    0    0  0.00000000000E+00  0.00000000000E+00  0.45593999997E+02  0.45594000000E+02  0.51100000000E-03 0.  1.
         11   -1    0    0    0    0 -0.00000000000E+00 -0.00000000000E+00 -0.45593999997E+02  0.45594000000E+02  0.51100000000E-03 0. -1.
    9900012    2    1    2    0    0  0.32853835959E+02 -0.19793595496E+02  0.23621020288E+02  0.46142316974E+02  0.99999928186E+01 0.  0.
         12    1    1    2    0    0 -0.32853835959E+02  0.19793595496E+02 -0.23621020288E+02  0.45045683026E+02  0.00000000000E+00 0. -1.
         11    1    3    3    0    0  0.84314242816E+01 -0.13898493357E+01  0.45591920705E+01  0.96853925676E+01  0.51100000000E-03 0. -1.
        -11    1    3    3    0    0  0.21662453774E+02 -0.13801438028E+02  0.15207663687E+02  0.29849868178E+02  0.51100000000E-03 0.  1.
        -12    1    3    3    0    0  0.27599579030E+01 -0.46023081325E+01  0.38541645306E+01  0.66070562282E+01  0.00000000000E+00 0.  1.
</event>
<event>
 7    1  0.1466590E-008  0.4614232E+02  0.7816164E-02  0.1320468E+00
        -11   -1    0    0    0    0  0.00000000000E+00  0.00000000000E+00  0.45593999997E+02  0.45594000000E+02  0.51100000000E-03 0.  1.
         11   -1    0    0    0    0 -0.00000000000E+00 -0.00000000000E+00 -0.45593999997E+02  0.45594000000E+02  0.51100000000E-03 0. -1.
    9900012    2    1    2    0    0  0.16086416142E+02 -0.42033320938E+02 -0.18815571914E+01  0.46142321952E+02  0.10000038213E+02 0.  0.
         12    1    1    2    0    0 -0.16086416142E+02  0.42033320938E+02  0.18815571914E+01  0.45045678048E+02  0.00000000000E+00 0. -1.
         11    1    3    3    0    0  0.67605701706E+00 -0.20140695348E+01  0.70706067535E+00  0.22390766492E+01  0.51100000000E-03 0. -1.
        -11    1    3    3    0    0  0.11078932427E+02 -0.34457841134E+02  0.52059430235E+00  0.36198847744E+02  0.51100000000E-03 0.  1.
        -12    1    3    3    0    0  0.43314266982E+01 -0.55614102695E+01 -0.31092121691E+01  0.77043975585E+01  0.00000000000E+00 0.  1.
</event>
<event>
 7    1  0.1466590E-008  0.4614232E+02  0.7816164E-02  0.1320468E+00
        -11   -1    0    0    0    0  0.00000000000E+00  0.00000000000E+00  0.45593999997E+02  0.45594000000E+02  0.51100000000E-03 0.  1.
         11   -1    0    0    0    0 -0.00000000000E+00 -0.00000000000E+00 -0.45593999997E+02  0.45594000000E+02  0.51100000000E-03 0. -1.
    9900012    2    1    2    0    0  0.22683915387E+02  0.13857406152E+02  0.36366546998E+02  0.46142318042E+02  0.10000002560E+02 0.  0.
         12    1    1    2    0    0 -0.22683915387E+02 -0.13857406152E+02 -0.36366546998E+02  0.45045681958E+02  0.00000000000E+00 0. -1.
         11    1    3    3    0    0  0.74973348759E+01  0.13478956545E+01  0.55821667684E+01  0.94439101557E+01  0.51100000000E-03 0. -1.
        -11    1    3    3    0    0  0.15274071434E+02  0.12065393792E+02  0.30433272494E+02  0.36125545815E+02  0.51100000000E-03 0.  1.
        -12    1    3    3    0    0 -0.87490923337E-01  0.44411670592E+00  0.35110773566E+00  0.57286207082E+00  0.00000000000E+00 0.  1.
</event>
<event>
 7    1  0.1466590E-008  0.4614232E+02  0.7816164E-02  0.1320468E+00
        -11   -1    0    0    0    0  0.00000000000E+00  0.00000000000E+00  0.45593999997E+02  0.45594000000E+02  0.51100000000E-03 0. -1.
         11   -1    0    0    0    0 -0.00000000000E+00 -0.00000000000E+00 -0.45593999997E+02  0.45594000000E+02  0.51100000000E-03 0.  1.
    9900012    2    1    2    0    0 -0.42828431571E+02  0.27057854132E+01 -0.13693709421E+02  0.46142317596E+02  0.99999984979E+01 0.  0.
         12    1    1    2    0    0  0.42828431571E+02 -0.27057854132E+01  0.13693709421E+02  0.45045682404E+02  0.00000000000E+00 0. -1.
         11    1    3    3    0    0 -0.71706611439E+01  0.35881934658E+01 -0.46973094113E+01  0.92929128671E+01  0.51100000000E-03 0. -1.
        -11    1    3    3    0    0 -0.15673729177E+02 -0.10527786588E+01 -0.30895952423E+01  0.16009988390E+02  0.51100000000E-03 0.  1.
         12    1    3    3    0    0 -0.19984041250E+02  0.17037060623E+00 -0.59068047677E+01  0.20839416339E+02  0.00000000000E+00 0. -1.
</event>
<event>
 7    1  0.1466590E-008  0.4614232E+02  0.7816164E-02  0.1320468E+00
        -11   -1    0    0    0    0  0.00000000000E+00  0.00000000000E+00  0.45593999997E+02  0.45594000000E+02  0.51100000000E-03 0. -1.
         11   -1    0    0    0    0 -0.00000000000E+00 -0.00000000000E+00 -0.45593999997E+02  0.45594000000E+02  0.51100000000E-03 0.  1.
    9900012    2    1    2    0    0  0.20553982779E+02  0.22912122937E+02 -0.32888932973E+02  0.46142317658E+02  0.99999990619E+01 0.  0.
         12    1    1    2    0    0 -0.20553982779E+02 -0.22912122937E+02  0.32888932973E+02  0.45045682342E+02  0.00000000000E+00 0. -1.
         11    1    3    3    0    0  0.64748385795E+01  0.16352455272E+01 -0.63540164828E+01  0.92179763663E+01  0.51100000000E-03 0. -1.
        -11    1    3    3    0    0  0.11540042781E+02  0.16749352594E+02 -0.22638383254E+02  0.30433695082E+02  0.51100000000E-03 0.  1.
         12    1    3    3    0    0  0.25391014185E+01  0.45275248151E+01 -0.38965332358E+01  0.64906462099E+01  0.00000000000E+00 0. -1.
</event>
<event>
 7    1  0.1466590E-008  0.4614232E+02  0.7816164E-02  0.1320468E+00
        -11   -1    0    0    0    0  0.00000000000E+00  0.00000000000E+00  0.45593999997E+02  0.45594000000E+02  0.51100000000E-03 0.  1.
         11   -1    0    0    0    0 -0.00000000000E+00 -0.00000000000E+00 -0.45593999997E+02  0.45594000000E+02  0.51100000000E-03 0. -1.
    9900012    2    1    2    0    0 -0.18839962831E+01  0.14379150725E+01  0.44983291481E+02  0.46142317031E+02  0.99999933396E+01 0.  0.
         12    1    1    2    0    0  0.18839962831E+01 -0.14379150725E+01 -0.44983291481E+02  0.45045682969E+02  0.00000000000E+00 0. -1.
         11    1    3    3    0    0  0.50940299584E-01 -0.10948580601E+01  0.16255634401E+01  0.19605524336E+01  0.51100000000E-03 0. -1.
        -11    1    3    3    0    0 -0.12749219745E+01  0.39108360613E+01  0.10332075749E+02  0.11120784787E+02  0.51100000000E-03 0.  1.
        -12    1    3    3    0    0 -0.66001460815E+00 -0.13780629288E+01  0.33025652291E+02  0.33060979810E+02  0.00000000000E+00 0.  1.
</event>
<event>
 7    1  0.1466590E-008  0.4614232E+02  0.7816164E-02  0.1320468E+00
        -11   -1    0    0    0    0  0.00000000000E+00  0.00000000000E+00  0.45593999997E+02  0.45594000000E+02  0.51100000000E-03 0.  1.
         11   -1    0    0    0    0 -0.00000000000E+00 -0.00000000000E+00 -0.45593999997E+02  0.45594000000E+02  0.51100000000E-03 0. -1.
    9900012    2    1    2    0    0  0.31391958650E+02  0.28445530889E+02  0.15313724967E+02  0.46142317990E+02  0.10000002085E+02 0.  0.
         12    1    1    2    0    0 -0.31391958650E+02 -0.28445530889E+02 -0.15313724967E+02  0.45045682010E+02  0.00000000000E+00 0. -1.
         11    1    3    3    0    0  0.28627043485E+01  0.24990592019E+01  0.41090581577E+01  0.55968502111E+01  0.51100000000E-03 0. -1.
        -11    1    3    3    0    0  0.31223054552E+01  0.55323048095E+01  0.23326867718E+01  0.67673196833E+01  0.51100000000E-03 0.  1.
         12    1    3    3    0    0  0.25406948846E+02  0.20414166877E+02  0.88719800373E+01  0.33778148095E+02  0.00000000000E+00 0. -1.
</event>
<event>
 7    1  0.1500562E-008  0.4614232E+02  0.7816164E-02  0.1320468E+00
        -11   -1    0    0    0    0  0.00000000000E+00  0.00000000000E+00  0.45593999997E+02  0.45594000000E+02  0.51100000000E-03 0. -1.
         11   -1    0    0    0    0 -0.00000000000E+00 -0.00000000000E+00 -0.45593999997E+02  0.45594000000E+02  0.51100000000E-03 0.  1.
    9900012    2    1    2    0    0 -0.26242096263E+02 -0.33512164202E+02 -0.14744515191E+02  0.46142317698E+02  0.99999994286E+01 0.  0.
         12    1    1    2    0    0  0.26242096263E+02  0.33512164202E+02  0.14744515191E+02  0.45045682302E+02  0.00000000000E+00 0. -1.
         11    1    3    3    0    0 -0.27992572366E+01 -0.15201926083E+01  0.53602049818E+00  0.32301926999E+01  0.51100000000E-03 0. -1.
        -11    1    3    3    0    0 -0.20007076707E+02 -0.29349012289E+02 -0.15034305295E+02  0.38570428785E+02  0.51100000000E-03 0.  1.
        -12    1    3    3    0    0 -0.34357623194E+01 -0.26429593048E+01 -0.24623039431E+00  0.43416962134E+01  0.00000000000E+00 0.  1.
</event>
<event>
 7    1  0.1466590E-008  0.4614232E+02  0.7816164E-02  0.1320468E+00
        -11   -1    0    0    0    0  0.00000000000E+00  0.00000000000E+00  0.45593999997E+02  0.45594000000E+02  0.51100000000E-03 0.  1.
         11   -1    0    0    0    0 -0.00000000000E+00 -0.00000000000E+00 -0.45593999997E+02  0.45594000000E+02  0.51100000000E-03 0. -1.
    9900012    2    1    2    0    0 -0.44491209001E+02 -0.21315114614E+01 -0.67158312679E+01  0.46142318641E+02  0.10000008022E+02 0.  0.
         12    1    1    2    0    0  0.44491209001E+02  0.21315114614E+01  0.67158312679E+01  0.45045681359E+02  0.00000000000E+00 0. -1.
         11    1    3    3    0    0 -0.20083378099E+02 -0.17476859393E+01 -0.70953873629E+00  0.20171760644E+02  0.51100000000E-03 0. -1.
        -11    1    3    3    0    0 -0.59475065118E+01 -0.23681986696E+01  0.16893196939E+00  0.64038845179E+01  0.51100000000E-03 0.  1.
        -12    1    3    3    0    0 -0.18460324391E+02  0.19843731475E+01 -0.61752245010E+01  0.19566673479E+02  0.00000000000E+00 0.  1.
</event>
<event>
 7    1  0.1466590E-008  0.4614232E+02  0.7816164E-02  0.1320468E+00
        -11   -1    0    0    0    0  0.00000000000E+00  0.00000000000E+00  0.45593999997E+02  0.45594000000E+02  0.51100000000E-03 0.  1.
         11   -1    0    0    0    0 -0.00000000000E+00 -0.00000000000E+00 -0.45593999997E+02  0.45594000000E+02  0.51100000000E-03 0. -1.
    9900012    2    1    2    0    0 -0.22748713527E+02 -0.12602718142E+02  0.36780171533E+02  0.46142317747E+02  0.99999998673E+01 0.  0.
         12    1    1    2    0    0  0.22748713527E+02  0.12602718142E+02 -0.36780171533E+02  0.45045682253E+02  0.00000000000E+00 0. -1.
         11    1    3    3    0    0 -0.36035220651E+01  0.76619785377E+00  0.34776093214E+01  0.50661817257E+01  0.51100000000E-03 0. -1.
        -11    1    3    3    0    0 -0.17352625301E+02 -0.11258626453E+02  0.31772732812E+02  0.37912752802E+02  0.51100000000E-03 0.  1.
        -12    1    3    3    0    0 -0.17925661611E+01 -0.21102895430E+01  0.15298293994E+01  0.31633832187E+01  0.00000000000E+00 0.  1.
</event>
<event>
 7    1  0.1466590E-008  0.4614232E+02  0.7816164E-02  0.1320468E+00
        -11   -1    0    0    0    0  0.00000000000E+00  0.00000000000E+00  0.45593999997E+02  0.45594000000E+02  0.51100000000E-03 0.  1.
         11   -1    0    0    0    0 -0.00000000000E+00 -0.00000000000E+00 -0.45593999997E+02  0.45594000000E+02  0.51100000000E-03 0. -1.
    9900012    2    1    2    0    0 -0.16534901042E+02 -0.18468331559E+02  0.37611584412E+02  0.46142317576E+02  0.99999983130E+01 0.  0.
         12    1    1    2    0    0  0.16534901042E+02  0.18468331559E+02 -0.37611584412E+02  0.45045682424E+02  0.00000000000E+00 0. -1.
         11    1    3    3    0    0 -0.36720934346E+01 -0.51022299054E+01  0.38632840612E+01  0.73784811579E+01  0.51100000000E-03 0. -1.
        -11    1    3    3    0    0 -0.95809342176E+01 -0.70411423658E+01  0.19654873221E+02  0.22971417629E+02  0.51100000000E-03 0.  1.
        -12    1    3    3    0    0 -0.32818733895E+01 -0.63249592880E+01  0.14093427130E+02  0.15792418789E+02  0.00000000000E+00 0.  1.
</event>
<event>
 7    1  0.1466590E-008  0.4614232E+02  0.7816164E-02  0.1320468E+00
        -11   -1    0    0    0    0  0.00000000000E+00  0.00000000000E+00  0.45593999997E+02  0.45594000000E+02  0.51100000000E-03 0.  1.
         11   -1    0    0    0    0 -0.00000000000E+00 -0.00000000000E+00 -0.45593999997E+02  0.45594000000E+02  0.51100000000E-03 0. -1.
    9900012    2    1    2    0    0  0.19369895730E+02  0.22005197509E+02  0.34200759935E+02  0.46142316987E+02  0.99999929394E+01 0.  0.
         12    1    1    2    0    0 -0.19369895730E+02 -0.22005197509E+02 -0.34200759935E+02  0.45045683013E+02  0.00000000000E+00 0. -1.
         11    1    3    3    0    0  0.51073620945E+01  0.18640596306E+01  0.37590854974E+01  0.66098857712E+01  0.51100000000E-03 0. -1.
        -11    1    3    3    0    0  0.55457783874E+01  0.68051385406E+01  0.71965508048E+01  0.11351471809E+02  0.51100000000E-03 0.  1.
         12    1    3    3    0    0  0.87167552485E+01  0.13335999338E+02  0.23245123632E+02  0.28180959407E+02  0.00000000000E+00 0. -1.
</event>
<event>
 7    1  0.1466590E-008  0.4614232E+02  0.7816164E-02  0.1320468E+00
        -11   -1    0    0    0    0  0.00000000000E+00  0.00000000000E+00  0.45593999997E+02  0.45594000000E+02  0.51100000000E-03 0.  1.
         11   -1    0    0    0    0 -0.00000000000E+00 -0.00000000000E+00 -0.45593999997E+02  0.45594000000E+02  0.51100000000E-03 0. -1.
    9900012    2    1    2    0    0  0.19821417101E+02 -0.29673154709E+02  0.27490523422E+02  0.46142316918E+02  0.99999923133E+01 0.  0.
         12    1    1    2    0    0 -0.19821417101E+02  0.29673154709E+02 -0.27490523422E+02  0.45045683082E+02  0.00000000000E+00 0. -1.
         11    1    3    3    0    0  0.10485330517E+01 -0.29843310704E+00  0.79364913125E+00  0.13484669386E+01  0.51100000000E-03 0. -1.
        -11    1    3    3    0    0  0.69790136417E+01 -0.14683986685E+02  0.17302103123E+02  0.23742132784E+02  0.51100000000E-03 0.  1.
        -12    1    3    3    0    0  0.11793870408E+02 -0.14690734917E+02  0.93947711676E+01  0.21051717196E+02  0.00000000000E+00 0.  1.
</event>
<event>
 7    1  0.1466590E-008  0.4614232E+02  0.7816164E-02  0.1320468E+00
        -11   -1    0    0    0    0  0.00000000000E+00  0.00000000000E+00  0.45593999997E+02  0.45594000000E+02  0.51100000000E-03 0.  1.
         11   -1    0    0    0    0 -0.00000000000E+00 -0.00000000000E+00 -0.45593999997E+02  0.45594000000E+02  0.51100000000E-03 0. -1.
    9900012    2    1    2    0    0 -0.42613919353E+02 -0.86546747631E+01 -0.11758573693E+02  0.46142316820E+02  0.99999914196E+01 0.  0.
         12    1    1    2    0    0  0.42613919353E+02  0.86546747631E+01  0.11758573693E+02  0.45045683180E+02  0.00000000000E+00 0. -1.
         11    1    3    3    0    0 -0.24464260080E+02 -0.30294451183E+01 -0.10871575658E+02  0.26941950867E+02  0.51100000000E-03 0. -1.
        -11    1    3    3    0    0 -0.75147702897E+01 -0.34607837326E+01 -0.10945627128E+01  0.83454696898E+01  0.51100000000E-03 0.  1.
         12    1    3    3    0    0 -0.10634888983E+02 -0.21644459122E+01  0.20756467776E+00  0.10854896264E+02  0.00000000000E+00 0. -1.
</event>
<event>
 7    1  0.1466590E-008  0.4614232E+02  0.7816164E-02  0.1320468E+00
        -11   -1    0    0    0    0  0.00000000000E+00  0.00000000000E+00  0.45593999997E+02  0.45594000000E+02  0.51100000000E-03 0.  1.
         11   -1    0    0    0    0 -0.00000000000E+00 -0.00000000000E+00 -0.45593999997E+02  0.45594000000E+02  0.51100000000E-03 0. -1.
    9900012    2    1    2    0    0  0.11635006292E+02  0.38860009011E+02  0.19586726439E+02  0.46142317362E+02  0.99999963562E+01 0.  0.
         12    1    1    2    0    0 -0.11635006292E+02 -0.38860009011E+02 -0.19586726439E+02  0.45045682638E+02  0.00000000000E+00 0. -1.
         11    1    3    3    0    0  0.69770819747E+01  0.10415861616E+02  0.65603568718E+01  0.14149492169E+02  0.51100000000E-03 0. -1.
        -11    1    3    3    0    0  0.10449128114E+01  0.61518122855E+01  0.73973883116E+00  0.62836176665E+01  0.51100000000E-03 0.  1.
         12    1    3    3    0    0  0.36130115057E+01  0.22292335110E+02  0.12286630736E+02  0.25709207526E+02  0.00000000000E+00 0. -1.
</event>
<event>
 7    1  0.1466590E-008  0.4614232E+02  0.7816164E-02  0.1320468E+00
        -11   -1    0    0    0    0  0.00000000000E+00  0.00000000000E+00  0.45593999997E+02  0.45594000000E+02  0.51100000000E-03 0.  1.
         11   -1    0    0    0    0 -0.00000000000E+00 -0.00000000000E+00 -0.45593999997E+02  0.45594000000E+02  0.51100000000E-03 0. -1.
    9900012    2    1    2    0    0  0.98850662862E+01  0.28948802682E+02  0.33066082040E+02  0.46142317702E+02  0.99999994626E+01 0.  0.
         12    1    1    2    0    0 -0.98850662862E+01 -0.28948802682E+02 -0.33066082040E+02  0.45045682298E+02  0.00000000000E+00 0. -1.
         11    1    3    3    0    0  0.52042808729E+01  0.11038587592E+02  0.89295204715E+01  0.15121881217E+02  0.51100000000E-03 0. -1.
        -11    1    3    3    0    0  0.36936123583E-01  0.75151920690E+01  0.13441253358E+02  0.15399570391E+02  0.51100000000E-03 0.  1.
        -12    1    3    3    0    0  0.46438492897E+01  0.10395023021E+02  0.10695308210E+02  0.15620866094E+02  0.00000000000E+00 0.  1.
</event>
<event>
 7    1  0.1466590E-008  0.4614232E+02  0.7816164E-02  0.1320468E+00
        -11   -1    0    0    0    0  0.00000000000E+00  0.00000000000E+00  0.45593999997E+02  0.45594000000E+02  0.51100000000E-03 0.  1.
         11   -1    0    0    0    0 -0.00000000000E+00 -0.00000000000E+00 -0.45593999997E+02  0.45594000000E+02  0.51100000000E-03 0. -1.
    9900012    2    1    2    0    0 -0.21389277135E+02  0.36439462308E+02  0.15613388447E+02  0.46142317760E+02  0.99999999920E+01 0.  0.
         12    1    1    2    0    0  0.21389277135E+02 -0.36439462308E+02 -0.15613388447E+02  0.45045682240E+02  0.00000000000E+00 0. -1.
         11    1    3    3    0    0 -0.93553837791E+00  0.42070581011E+01 -0.76839599505E+00  0.43777851236E+01  0.51100000000E-03 0. -1.
        -11    1    3    3    0    0 -0.16162983464E+02  0.21960092771E+02  0.11045689547E+02  0.29419295824E+02  0.51100000000E-03 0.  1.
        -12    1    3    3    0    0 -0.42907552928E+01  0.10272311436E+02  0.53360948952E+01  0.12345236813E+02  0.00000000000E+00 0.  1.
</event>
<event>
 7    1  0.1466590E-008  0.4614232E+02  0.7816164E-02  0.1320468E+00
        -11   -1    0    0    0    0  0.00000000000E+00  0.00000000000E+00  0.45593999997E+02  0.45594000000E+02  0.51100000000E-03 0.  1.
         11   -1    0    0    0    0 -0.00000000000E+00 -0.00000000000E+00 -0.45593999997E+02  0.45594000000E+02  0.51100000000E-03 0. -1.
    9900012    2    1    2    0    0  0.12913480199E+02  0.43110415986E+02  0.19615163452E+01  0.46142317813E+02  0.10000000474E+02 0.  0.
         12    1    1    2    0    0 -0.12913480199E+02 -0.43110415986E+02 -0.19615163452E+01  0.45045682187E+02  0.00000000000E+00 0. -1.
         11    1    3    3    0    0  0.78548599651E+00  0.78631456493E+01 -0.26753408891E+01  0.83428710219E+01  0.51100000000E-03 0. -1.
        -11    1    3    3    0    0  0.11076038187E+02  0.29769205452E+02  0.26314270458E+01  0.31871752756E+02  0.51100000000E-03 0.  1.
        -12    1    3    3    0    0  0.10519560153E+01  0.54780648846E+01  0.20054301885E+01  0.59276940356E+01  0.00000000000E+00 0.  1.
</event>
<event>
 7    1  0.1466590E-008  0.4614232E+02  0.7816164E-02  0.1320468E+00
        -11   -1    0    0    0    0  0.00000000000E+00  0.00000000000E+00  0.45593999997E+02  0.45594000000E+02  0.51100000000E-03 0.  1.
         11   -1    0    0    0    0 -0.00000000000E+00 -0.00000000000E+00 -0.45593999997E+02  0.45594000000E+02  0.51100000000E-03 0. -1.
    9900012    2    1    2    0    0 -0.10121085434E+02  0.11864234626E+02  0.42260112070E+02  0.46142317568E+02  0.99999982394E+01 0.  0.
         12    1    1    2    0    0  0.10121085434E+02 -0.11864234626E+02 -0.42260112070E+02  0.45045682432E+02  0.00000000000E+00 0. -1.
         11    1    3    3    0    0  0.72501907878E+00 -0.65491333963E+00  0.18261131654E+01  0.20710513516E+01  0.51100000000E-03 0. -1.
        -11    1    3    3    0    0 -0.80998792448E+01  0.10195859569E+02  0.24600500987E+02  0.27834299797E+02  0.51100000000E-03 0.  1.
        -12    1    3    3    0    0 -0.27462252679E+01  0.23232883958E+01  0.15833497918E+02  0.16236966419E+02  0.00000000000E+00 0.  1.
</event>
<event>
 7    1  0.1466590E-008  0.4614232E+02  0.7816164E-02  0.1320468E+00
        -11   -1    0    0    0    0  0.00000000000E+00  0.00000000000E+00  0.45593999997E+02  0.45594000000E+02  0.51100000000E-03 0.  1.
         11   -1    0    0    0    0 -0.00000000000E+00 -0.00000000000E+00 -0.45593999997E+02  0.45594000000E+02  0.51100000000E-03 0. -1.
    9900012    2    1    2    0    0  0.42569880377E+02  0.64976102969E+01  0.13217404621E+02  0.46142318300E+02  0.10000004914E+02 0.  0.
         12    1    1    2    0    0 -0.42569880377E+02 -0.64976102969E+01 -0.13217404621E+02  0.45045681700E+02  0.00000000000E+00 0. -1.
         11    1    3    3    0    0  0.16987956105E+02  0.68795017089E+01  0.64536516788E+01  0.19431104359E+02  0.51100000000E-03 0. -1.
        -11    1    3    3    0    0  0.91826587193E+01  0.13387326009E+01  0.33954424513E+01  0.98814197276E+01  0.51100000000E-03 0.  1.
         12    1    3    3    0    0  0.16399265554E+02 -0.17206240129E+01  0.33683104905E+01  0.16829794213E+02  0.00000000000E+00 0. -1.
</event>
<event>
 7    1  0.1466590E-008  0.4614232E+02  0.7816164E-02  0.1320468E+00
        -11   -1    0    0    0    0  0.00000000000E+00  0.00000000000E+00  0.45593999997E+02  0.45594000000E+02  0.51100000000E-03 0.  1.
         11   -1    0    0    0    0 -0.00000000000E+00 -0.00000000000E+00 -0.45593999997E+02  0.45594000000E+02  0.51100000000E-03 0. -1.
    9900012    2    1    2    0    0 -0.92293677988E+01  0.35885738565E+02  0.25615346006E+02  0.46142318594E+02  0.10000007596E+02 0.  0.
         12    1    1    2    0    0  0.92293677988E+01 -0.35885738565E+02 -0.25615346006E+02  0.45045681406E+02  0.00000000000E+00 0. -1.
         11    1    3    3    0    0 -0.86335675855E+01  0.29067843031E+02  0.19441152101E+02  0.36019944239E+02  0.51100000000E-03 0. -1.
        -11    1    3    3    0    0 -0.12037550298E+01  0.70573433848E+01  0.61966800101E+01  0.94685777830E+01  0.51100000000E-03 0.  1.
         12    1    3    3    0    0  0.60795481652E+00 -0.23944785126E+00 -0.22486104638E-01  0.65379657181E+00  0.00000000000E+00 0. -1.
</event>
<event>
 7    1  0.1466590E-008  0.4614232E+02  0.7816164E-02  0.1320468E+00
        -11   -1    0    0    0    0  0.00000000000E+00  0.00000000000E+00  0.45593999997E+02  0.45594000000E+02  0.51100000000E-03 0.  1.
         11   -1    0    0    0    0 -0.00000000000E+00 -0.00000000000E+00 -0.45593999997E+02  0.45594000000E+02  0.51100000000E-03 0. -1.
    9900012    2    1    2    0    0 -0.29891372994E+02 -0.33051662055E+02 -0.65731920464E+01  0.46142318767E+02  0.10000009171E+02 0.  0.
         12    1    1    2    0    0  0.29891372994E+02  0.33051662055E+02  0.65731920464E+01  0.45045681233E+02  0.00000000000E+00 0. -1.
         11    1    3    3    0    0 -0.45667168153E+01 -0.62726509014E+01 -0.19411169808E+01  0.79980614649E+01  0.51100000000E-03 0. -1.
        -11    1    3    3    0    0  0.39304626499E+00  0.26263126509E+00  0.20231333811E+00  0.51419013577E+00  0.51100000000E-03 0.  1.
        -12    1    3    3    0    0 -0.25717702444E+02 -0.27041642419E+02 -0.48343884037E+01  0.37630067166E+02  0.00000000000E+00 0.  1.
</event>
<event>
 7    1  0.1466590E-008  0.4614232E+02  0.7816164E-02  0.1320468E+00
        -11   -1    0    0    0    0  0.00000000000E+00  0.00000000000E+00  0.45593999997E+02  0.45594000000E+02  0.51100000000E-03 0.  1.
         11   -1    0    0    0    0 -0.00000000000E+00 -0.00000000000E+00 -0.45593999997E+02  0.45594000000E+02  0.51100000000E-03 0. -1.
    9900012    2    1    2    0    0  0.40318896385E+02  0.40554034631E+01  0.19673680425E+02  0.46142318693E+02  0.10000008500E+02 0.  0.
         12    1    1    2    0    0 -0.40318896385E+02 -0.40554034631E+01 -0.19673680425E+02  0.45045681307E+02  0.00000000000E+00 0. -1.
         11    1    3    3    0    0  0.98344999008E+01 -0.39863275785E+00  0.37629912267E+01  0.10537381060E+02  0.51100000000E-03 0. -1.
        -11    1    3    3    0    0  0.30195815679E+02  0.37602294384E+01  0.16531963877E+02  0.34629935603E+02  0.51100000000E-03 0.  1.
        -12    1    3    3    0    0  0.28858080502E+00  0.69380678255E+00 -0.62127467910E+00  0.97500203047E+00  0.00000000000E+00 0.  1.
</event>
<event>
 7    1  0.1466590E-008  0.4614232E+02  0.7816164E-02  0.1320468E+00
        -11   -1    0    0    0    0  0.00000000000E+00  0.00000000000E+00  0.45593999997E+02  0.45594000000E+02  0.51100000000E-03 0. -1.
         11   -1    0    0    0    0 -0.00000000000E+00 -0.00000000000E+00 -0.45593999997E+02  0.45594000000E+02  0.51100000000E-03 0.  1.
    9900012    2    1    2    0    0 -0.11729673307E+02  0.43197248635E+02  0.50523197867E+01  0.46142318068E+02  0.10000002794E+02 0.  0.
         12    1    1    2    0    0  0.11729673307E+02 -0.43197248635E+02 -0.50523197867E+01  0.45045681932E+02  0.00000000000E+00 0. -1.
         11    1    3    3    0    0 -0.24819289048E+01  0.21619834377E+02  0.33536550534E+01  0.22018724124E+02  0.51100000000E-03 0. -1.
        -11    1    3    3    0    0 -0.47917379593E+01  0.16956590847E+02  0.77027220461E+00  0.17637461421E+02  0.51100000000E-03 0.  1.
        -12    1    3    3    0    0 -0.44560064431E+01  0.46208234105E+01  0.92839252863E+00  0.64861325225E+01  0.00000000000E+00 0.  1.
</event>
<event>
 7    1  0.1466590E-008  0.4614232E+02  0.7816164E-02  0.1320468E+00
        -11   -1    0    0    0    0  0.00000000000E+00  0.00000000000E+00  0.45593999997E+02  0.45594000000E+02  0.51100000000E-03 0.  1.
         11   -1    0    0    0    0 -0.00000000000E+00 -0.00000000000E+00 -0.45593999997E+02  0.45594000000E+02  0.51100000000E-03 0. -1.
    9900012    2    1    2    0    0  0.98525632735E+01  0.30413473101E+02  0.31734225256E+02  0.46142318723E+02  0.10000008770E+02 0.  0.
         12    1    1    2    0    0 -0.98525632735E+01 -0.30413473101E+02 -0.31734225256E+02  0.45045681277E+02  0.00000000000E+00 0. -1.
         11    1    3    3    0    0  0.67058663922E+00  0.15458431527E+01  0.10915742816E+00  0.16885594745E+01  0.51100000000E-03 0. -1.
        -11    1    3    3    0    0  0.39817593801E+01  0.49824757568E+01  0.97473405931E+01  0.11648610275E+02  0.51100000000E-03 0.  1.
        -12    1    3    3    0    0  0.52002172541E+01  0.23885154191E+02  0.21877727235E+02  0.32805148974E+02  0.00000000000E+00 0.  1.
</event>
<event>
 7    1  0.1466590E-008  0.4614232E+02  0.7816164E-02  0.1320468E+00
        -11   -1    0    0    0    0  0.00000000000E+00  0.00000000000E+00  0.45593999997E+02  0.45594000000E+02  0.51100000000E-03 0. -1.
         11   -1    0    0    0    0 -0.00000000000E+00 -0.00000000000E+00 -0.45593999997E+02  0.45594000000E+02  0.51100000000E-03 0.  1.
    9900012    2    1    2    0    0  0.73532341575E+01 -0.26548138708E+02 -0.35640421371E+02  0.46142319220E+02  0.10000013307E+02 0.  0.
         12    1    1    2    0    0 -0.73532341575E+01  0.26548138708E+02  0.35640421371E+02  0.45045680780E+02  0.00000000000E+00 0. -1.
         11    1    3    3    0    0 -0.19133258824E+01 -0.42001288497E+01 -0.61779322461E+01  0.77115981084E+01  0.51100000000E-03 0. -1.
        -11    1    3    3    0    0  0.41126180850E+01 -0.15488612363E+02 -0.20545689687E+02  0.26056402388E+02  0.51100000000E-03 0.  1.
        -12    1    3    3    0    0  0.51539419549E+01 -0.68593974946E+01 -0.89167994380E+01  0.12374318724E+02  0.00000000000E+00 0.  1.
</event>
<event>
 7    1  0.1466590E-008  0.4614231E+02  0.7816164E-02  0.1320468E+00
        -11   -1    0    0    0    0  0.00000000000E+00  0.00000000000E+00  0.45593999997E+02  0.45594000000E+02  0.51100000000E-03 0. -1.
         11   -1    0    0    0    0 -0.00000000000E+00 -0.00000000000E+00 -0.45593999997E+02  0.45594000000E+02  0.51100000000E-03 0.  1.
    9900012    2    1    2    0    0 -0.41555361428E+02  0.15838549413E+02  0.71698147901E+01  0.46142312581E+02  0.99999527642E+01 0.  0.
         12    1    1    2    0    0  0.41555361428E+02 -0.15838549413E+02 -0.71698147901E+01  0.45045687419E+02  0.00000000000E+00 0. -1.
         11    1    3    3    0    0 -0.10287895530E+02  0.53730813923E+01  0.34606944083E+01  0.12111449299E+02  0.51100000000E-03 0. -1.
        -11    1    3    3    0    0 -0.29872858165E+02  0.11568817158E+02  0.37398255465E+01  0.32252309696E+02  0.51100000000E-03 0.  1.
         12    1    3    3    0    0 -0.13946077335E+01 -0.11033491374E+01 -0.30705164731E-01  0.17785535855E+01  0.00000000000E+00 0. -1.
</event>
<event>
 7    1  0.1466590E-008  0.4614232E+02  0.7816164E-02  0.1320468E+00
        -11   -1    0    0    0    0  0.00000000000E+00  0.00000000000E+00  0.45593999997E+02  0.45594000000E+02  0.51100000000E-03 0.  1.
         11   -1    0    0    0    0 -0.00000000000E+00 -0.00000000000E+00 -0.45593999997E+02  0.45594000000E+02  0.51100000000E-03 0. -1.
    9900012    2    1    2    0    0  0.66155489603E+01 -0.78045732346E+01  0.43868400941E+02  0.46142318158E+02  0.10000003622E+02 0.  0.
         12    1    1    2    0    0 -0.66155489603E+01  0.78045732346E+01 -0.43868400941E+02  0.45045681842E+02  0.00000000000E+00 0. -1.
         11    1    3    3    0    0  0.56198347139E+01 -0.14384304513E+01  0.12666891963E+02  0.13932041367E+02  0.51100000000E-03 0. -1.
        -11    1    3    3    0    0  0.50833375794E+00 -0.23785791068E+01  0.22443070408E+02  0.22574486736E+02  0.51100000000E-03 0.  1.
         12    1    3    3    0    0  0.48738048838E+00 -0.39875636766E+01  0.87584385700E+01  0.96357900558E+01  0.00000000000E+00 0. -1.
</event>
<event>
 7    1  0.1466590E-008  0.4614232E+02  0.7816164E-02  0.1320468E+00
        -11   -1    0    0    0    0  0.00000000000E+00  0.00000000000E+00  0.45593999997E+02  0.45594000000E+02  0.51100000000E-03 0.  1.
         11   -1    0    0    0    0 -0.00000000000E+00 -0.00000000000E+00 -0.45593999997E+02  0.45594000000E+02  0.51100000000E-03 0. -1.
    9900012    2    1    2    0    0 -0.35827008722E+02  0.84022799844E+01  0.25979619955E+02  0.46142317455E+02  0.99999972109E+01 0.  0.
         12    1    1    2    0    0  0.35827008722E+02 -0.84022799844E+01 -0.25979619955E+02  0.45045682545E+02  0.00000000000E+00 0. -1.
         11    1    3    3    0    0 -0.35539516020E+01  0.45531735537E-01  0.25736494705E+01  0.43882020220E+01  0.51100000000E-03 0. -1.
        -11    1    3    3    0    0 -0.41656620468E+01 -0.19002188202E+01  0.40982984221E+01  0.61448858468E+01  0.51100000000E-03 0.  1.
        -12    1    3    3    0    0 -0.28107395073E+02  0.10256967069E+02  0.19307672063E+02  0.35609229586E+02  0.00000000000E+00 0.  1.
</event>
<event>
 7    1  0.1466590E-008  0.4614232E+02  0.7816164E-02  0.1320468E+00
        -11   -1    0    0    0    0  0.00000000000E+00  0.00000000000E+00  0.45593999997E+02  0.45594000000E+02  0.51100000000E-03 0.  1.
         11   -1    0    0    0    0 -0.00000000000E+00 -0.00000000000E+00 -0.45593999997E+02  0.45594000000E+02  0.51100000000E-03 0. -1.
    9900012    2    1    2    0    0  0.15231308817E+02 -0.38282761616E+02  0.18208530942E+02  0.46142320915E+02  0.10000028758E+02 0.  0.
         12    1    1    2    0    0 -0.15231308817E+02  0.38282761616E+02 -0.18208530942E+02  0.45045679085E+02  0.00000000000E+00 0. -1.
         11    1    3    3    0    0  0.60262217997E+00 -0.11127657394E+01 -0.10482085052E+01  0.16432110072E+01  0.51100000000E-03 0. -1.
        -11    1    3    3    0    0  0.72305188148E+01 -0.22644976336E+02  0.10386694635E+02  0.25941449097E+02  0.51100000000E-03 0.  1.
         12    1    3    3    0    0  0.73981678220E+01 -0.14525019541E+02  0.88700448121E+01  0.18557660810E+02  0.00000000000E+00 0. -1.
</event>
<event>
 7    1  0.1466590E-008  0.4614232E+02  0.7816164E-02  0.1320468E+00
        -11   -1    0    0    0    0  0.00000000000E+00  0.00000000000E+00  0.45593999997E+02  0.45594000000E+02  0.51100000000E-03 0.  1.
         11   -1    0    0    0    0 -0.00000000000E+00 -0.00000000000E+00 -0.45593999997E+02  0.45594000000E+02  0.51100000000E-03 0. -1.
    9900012    2    1    2    0    0  0.15024074929E+01  0.38987818540E+02  0.22512360889E+02  0.46142316349E+02  0.99999871229E+01 0.  0.
         12    1    1    2    0    0 -0.15024074929E+01 -0.38987818540E+02 -0.22512360889E+02  0.45045683651E+02  0.00000000000E+00 0. -1.
         11    1    3    3    0    0  0.53954312110E+01  0.19012063780E+02  0.13146159625E+02  0.23735853898E+02  0.51100000000E-03 0. -1.
        -11    1    3    3    0    0 -0.31327893004E+01  0.15758496727E+02  0.72408882263E+01  0.17623139631E+02  0.51100000000E-03 0.  1.
         12    1    3    3    0    0 -0.76023441783E+00  0.42172580333E+01  0.21253130381E+01  0.47833228199E+01  0.00000000000E+00 0. -1.
</event>
<event>
 7    1  0.1466590E-008  0.4614231E+02  0.7816164E-02  0.1320468E+00
        -11   -1    0    0    0    0  0.00000000000E+00  0.00000000000E+00  0.45593999997E+02  0.45594000000E+02  0.51100000000E-03 0. -1.
         11   -1    0    0    0    0 -0.00000000000E+00 -0.00000000000E+00 -0.45593999997E+02  0.45594000000E+02  0.51100000000E-03 0.  1.
    9900012    2    1    2    0    0 -0.18698187289E+02  0.25245893401E+02 -0.32282144825E+02  0.46142309684E+02  0.99999263503E+01 0.  0.
         12    1    1    2    0    0  0.18698187289E+02 -0.25245893401E+02  0.32282144825E+02  0.45045690316E+02  0.00000000000E+00 0. -1.
         11    1    3    3    0    0 -0.12617609880E+02  0.19084559183E+02 -0.25033808530E+02  0.33913360907E+02  0.51100000000E-03 0. -1.
        -11    1    3    3    0    0 -0.34298477670E+01  0.60692285369E+01 -0.40074462242E+01  0.80410830265E+01  0.51100000000E-03 0.  1.
         12    1    3    3    0    0 -0.26507296420E+01  0.92105681520E-01 -0.32408900713E+01  0.41878657507E+01  0.00000000000E+00 0. -1.
</event>
<event>
 7    1  0.1466590E-008  0.4614232E+02  0.7816164E-02  0.1320468E+00
        -11   -1    0    0    0    0  0.00000000000E+00  0.00000000000E+00  0.45593999997E+02  0.45594000000E+02  0.51100000000E-03 0.  1.
         11   -1    0    0    0    0 -0.00000000000E+00 -0.00000000000E+00 -0.45593999997E+02  0.45594000000E+02  0.51100000000E-03 0. -1.
    9900012    2    1    2    0    0 -0.96460019061E+01 -0.43450125536E+02  0.69393627758E+01  0.46142317437E+02  0.99999970412E+01 0.  0.
         12    1    1    2    0    0  0.96460019061E+01  0.43450125536E+02 -0.69393627758E+01  0.45045682563E+02  0.00000000000E+00 0. -1.
         11    1    3    3    0    0 -0.45556398467E+01 -0.83801171231E+01 -0.12760313510E+01  0.96233296566E+01  0.51100000000E-03 0. -1.
        -11    1    3    3    0    0 -0.36281842164E+01 -0.19548175550E+02  0.60279308905E+01  0.20775727163E+02  0.51100000000E-03 0.  1.
        -12    1    3    3    0    0 -0.14621778430E+01 -0.15521832863E+02  0.21874632363E+01  0.15743260617E+02  0.00000000000E+00 0.  1.
</event>
<event>
 7    1  0.1466590E-008  0.4614232E+02  0.7816164E-02  0.1320468E+00
        -11   -1    0    0    0    0  0.00000000000E+00  0.00000000000E+00  0.45593999997E+02  0.45594000000E+02  0.51100000000E-03 0.  1.
         11   -1    0    0    0    0 -0.00000000000E+00 -0.00000000000E+00 -0.45593999997E+02  0.45594000000E+02  0.51100000000E-03 0. -1.
    9900012    2    1    2    0    0  0.20008683520E+02 -0.27026617312E+02  0.29972121510E+02  0.46142317328E+02  0.99999960519E+01 0.  0.
         12    1    1    2    0    0 -0.20008683520E+02  0.27026617312E+02 -0.29972121510E+02  0.45045682672E+02  0.00000000000E+00 0. -1.
         11    1    3    3    0    0  0.10979213205E+02 -0.17832485324E+02  0.16548763876E+02  0.26690864382E+02  0.51100000000E-03 0.  1.
        -11    1    3    3    0    0  0.69040772678E+00 -0.24622840739E+01  0.40485695019E+00  0.25890954214E+01  0.51100000000E-03 0. -1.
         12    1    3    3    0    0  0.83390625885E+01 -0.67318479145E+01  0.13018500685E+02  0.16862357524E+02  0.00000000000E+00 0. -1.
</event>
<event>
 7    1  0.1466590E-008  0.4614232E+02  0.7816164E-02  0.1320468E+00
        -11   -1    0    0    0    0  0.00000000000E+00  0.00000000000E+00  0.45593999997E+02  0.45594000000E+02  0.51100000000E-03 0.  1.
         11   -1    0    0    0    0 -0.00000000000E+00 -0.00000000000E+00 -0.45593999997E+02  0.45594000000E+02  0.51100000000E-03 0. -1.
    9900012    2    1    2    0    0 -0.35324887852E+02  0.42337846560E+01  0.27628622681E+02  0.46142318458E+02  0.10000006358E+02 0.  0.
         12    1    1    2    0    0  0.35324887852E+02 -0.42337846560E+01 -0.27628622681E+02  0.45045681542E+02  0.00000000000E+00 0. -1.
         11    1    3    3    0    0 -0.61050939699E+01 -0.24421266366E+01  0.25403573166E+01  0.70490829508E+01  0.51100000000E-03 0. -1.
        -11    1    3    3    0    0 -0.21250900744E+02  0.47570846229E+01  0.18614511135E+02  0.28648397191E+02  0.51100000000E-03 0.  1.
         12    1    3    3    0    0 -0.79688931388E+01  0.19188266698E+01  0.64737542292E+01  0.10444838317E+02  0.00000000000E+00 0. -1.
</event>
<event>
 7    1  0.1466590E-008  0.4614232E+02  0.7816164E-02  0.1320468E+00
        -11   -1    0    0    0    0  0.00000000000E+00  0.00000000000E+00  0.45593999997E+02  0.45594000000E+02  0.51100000000E-03 0.  1.
         11   -1    0    0    0    0 -0.00000000000E+00 -0.00000000000E+00 -0.45593999997E+02  0.45594000000E+02  0.51100000000E-03 0. -1.
    9900012    2    1    2    0    0  0.19322103268E+02  0.35907244835E+02  0.19142611281E+02  0.46142317932E+02  0.10000001559E+02 0.  0.
         12    1    1    2    0    0 -0.19322103268E+02 -0.35907244835E+02 -0.19142611281E+02  0.45045682068E+02  0.00000000000E+00 0. -1.
         11    1    3    3    0    0  0.14365391173E+02  0.18515976524E+02  0.94503076450E+01  0.25268837825E+02  0.51100000000E-03 0.  1.
        -11    1    3    3    0    0  0.28666436966E+01  0.47736331510E+01  0.18333963857E+01  0.58623000701E+01  0.51100000000E-03 0. -1.
         12    1    3    3    0    0  0.20900683984E+01  0.12617635160E+02  0.78589072503E+01  0.15011180037E+02  0.00000000000E+00 0. -1.
</event>
<event>
 7    1  0.1466590E-008  0.4614232E+02  0.7816164E-02  0.1320468E+00
        -11   -1    0    0    0    0  0.00000000000E+00  0.00000000000E+00  0.45593999997E+02  0.45594000000E+02  0.51100000000E-03 0.  1.
         11   -1    0    0    0    0 -0.00000000000E+00 -0.00000000000E+00 -0.45593999997E+02  0.45594000000E+02  0.51100000000E-03 0. -1.
    9900012    2    1    2    0    0 -0.34061285973E+02  0.16169209296E+02  0.24647496993E+02  0.46142316084E+02  0.99999847113E+01 0.  0.
         12    1    1    2    0    0  0.34061285973E+02 -0.16169209296E+02 -0.24647496993E+02  0.45045683916E+02  0.00000000000E+00 0. -1.
         11    1    3    3    0    0 -0.27000814535E+02  0.97149842113E+01  0.16414896388E+02  0.33058640738E+02  0.51100000000E-03 0. -1.
        -11    1    3    3    0    0 -0.26151854913E+00  0.58980899512E+00  0.21346099216E+01  0.22299834934E+01  0.51100000000E-03 0.  1.
         12    1    3    3    0    0 -0.67989528888E+01  0.58644160898E+01  0.60979906841E+01  0.10853691853E+02  0.00000000000E+00 0. -1.
</event>
<event>
 7    1  0.1466590E-008  0.4614232E+02  0.7816164E-02  0.1320468E+00
        -11   -1    0    0    0    0  0.00000000000E+00  0.00000000000E+00  0.45593999997E+02  0.45594000000E+02  0.51100000000E-03 0.  1.
         11   -1    0    0    0    0 -0.00000000000E+00 -0.00000000000E+00 -0.45593999997E+02  0.45594000000E+02  0.51100000000E-03 0. -1.
    9900012    2    1    2    0    0  0.33406765569E+02  0.10407101491E+02  0.28368886948E+02  0.46142317700E+02  0.99999994458E+01 0.  0.
         12    1    1    2    0    0 -0.33406765569E+02 -0.10407101491E+02 -0.28368886948E+02  0.45045682300E+02  0.00000000000E+00 0. -1.
         11    1    3    3    0    0  0.12374703985E+02  0.48484735466E+01  0.15948074401E+02  0.20760107702E+02  0.51100000000E-03 0. -1.
        -11    1    3    3    0    0  0.10721183176E+02  0.23827582862E+01  0.85553215524E+01  0.13921739577E+02  0.51100000000E-03 0.  1.
        -12    1    3    3    0    0  0.10310878408E+02  0.31758696582E+01  0.38654909937E+01  0.11460470421E+02  0.00000000000E+00 0.  1.
</event>
<event>
 7    1  0.1466590E-008  0.4614232E+02  0.7816164E-02  0.1320468E+00
        -11   -1    0    0    0    0  0.00000000000E+00  0.00000000000E+00  0.45593999997E+02  0.45594000000E+02  0.51100000000E-03 0. -1.
         11   -1    0    0    0    0 -0.00000000000E+00 -0.00000000000E+00 -0.45593999997E+02  0.45594000000E+02  0.51100000000E-03 0.  1.
    9900012    2    1    2    0    0  0.63014165719E+01  0.27721551183E+02 -0.34941683032E+02  0.46142318033E+02  0.10000002480E+02 0.  0.
         12    1    1    2    0    0 -0.63014165719E+01 -0.27721551183E+02  0.34941683032E+02  0.45045681967E+02  0.00000000000E+00 0. -1.
         11    1    3    3    0    0 -0.89780054133E+00  0.71790192665E+01 -0.11122913612E+02  0.13268894864E+02  0.51100000000E-03 0. -1.
        -11    1    3    3    0    0  0.44828157666E+01  0.12952653931E+02 -0.10345058089E+02  0.17172277315E+02  0.51100000000E-03 0.  1.
         12    1    3    3    0    0  0.27164013467E+01  0.75898779855E+01 -0.13473711331E+02  0.15701145854E+02  0.00000000000E+00 0. -1.
</event>
<event>
 7    1  0.1466590E-008  0.4614232E+02  0.7816164E-02  0.1320468E+00
        -11   -1    0    0    0    0  0.00000000000E+00  0.00000000000E+00  0.45593999997E+02  0.45594000000E+02  0.51100000000E-03 0. -1.
         11   -1    0    0    0    0 -0.00000000000E+00 -0.00000000000E+00 -0.45593999997E+02  0.45594000000E+02  0.51100000000E-03 0.  1.
    9900012    2    1    2    0    0 -0.44447221647E+02 -0.65682322404E+01 -0.32274182835E+01  0.46142318568E+02  0.10000007358E+02 0.  0.
         12    1    1    2    0    0  0.44447221647E+02  0.65682322404E+01  0.32274182835E+01  0.45045681432E+02  0.00000000000E+00 0. -1.
         11    1    3    3    0    0 -0.29872615757E+02 -0.62987191672E+01 -0.26116784946E+00  0.30530562462E+02  0.51100000000E-03 0. -1.
        -11    1    3    3    0    0 -0.14610228528E+02 -0.47367173002E+00 -0.35069566684E+01  0.15032693967E+02  0.51100000000E-03 0.  1.
        -12    1    3    3    0    0  0.35622638759E-01  0.20415865676E+00  0.54070623436E+00  0.57906213950E+00  0.00000000000E+00 0.  1.
</event>
<event>
 7    1  0.1466590E-008  0.4614232E+02  0.7816164E-02  0.1320468E+00
        -11   -1    0    0    0    0  0.00000000000E+00  0.00000000000E+00  0.45593999997E+02  0.45594000000E+02  0.51100000000E-03 0.  1.
         11   -1    0    0    0    0 -0.00000000000E+00 -0.00000000000E+00 -0.45593999997E+02  0.45594000000E+02  0.51100000000E-03 0. -1.
    9900012    2    1    2    0    0 -0.16542386928E+02  0.31773499685E+02  0.27311309239E+02  0.46142318078E+02  0.10000002888E+02 0.  0.
         12    1    1    2    0    0  0.16542386928E+02 -0.31773499685E+02 -0.27311309239E+02  0.45045681922E+02  0.00000000000E+00 0. -1.
         11    1    3    3    0    0 -0.15655733558E+01  0.23341125192E+01 -0.49405883531E+00  0.28536284934E+01  0.51100000000E-03 0. -1.
        -11    1    3    3    0    0 -0.51852431528E+01  0.13602595956E+02  0.12382746497E+02  0.19111508950E+02  0.51100000000E-03 0.  1.
         12    1    3    3    0    0 -0.97915704193E+01  0.15836791209E+02  0.15422621577E+02  0.24177180634E+02  0.00000000000E+00 0. -1.
</event>
<event>
 7    1  0.1466590E-008  0.4614232E+02  0.7816164E-02  0.1320468E+00
        -11   -1    0    0    0    0  0.00000000000E+00  0.00000000000E+00  0.45593999997E+02  0.45594000000E+02  0.51100000000E-03 0. -1.
         11   -1    0    0    0    0 -0.00000000000E+00 -0.00000000000E+00 -0.45593999997E+02  0.45594000000E+02  0.51100000000E-03 0.  1.
    9900012    2    1    2    0    0 -0.27223204460E+02  0.26439231448E+02 -0.24268860830E+02  0.46142318446E+02  0.10000006247E+02 0.  0.
         12    1    1    2    0    0  0.27223204460E+02 -0.26439231448E+02  0.24268860830E+02  0.45045681554E+02  0.00000000000E+00 0. -1.
         11    1    3    3    0    0 -0.12253464699E+02  0.15115007590E+02 -0.74352608456E+01  0.20830121355E+02  0.51100000000E-03 0. -1.
        -11    1    3    3    0    0 -0.50144822465E+01  0.44072720867E+01 -0.47296071908E+01  0.81815807694E+01  0.51100000000E-03 0.  1.
         12    1    3    3    0    0 -0.99552575152E+01  0.69169517711E+01 -0.12103992794E+02  0.17130616321E+02  0.00000000000E+00 0. -1.
</event>
<event>
 7    1  0.1466590E-008  0.4614232E+02  0.7816164E-02  0.1320468E+00
        -11   -1    0    0    0    0  0.00000000000E+00  0.00000000000E+00  0.45593999997E+02  0.45594000000E+02  0.51100000000E-03 0.  1.
         11   -1    0    0    0    0 -0.00000000000E+00 -0.00000000000E+00 -0.45593999997E+02  0.45594000000E+02  0.51100000000E-03 0. -1.
    9900012    2    1    2    0    0 -0.34101189767E+02 -0.28294930254E+02  0.81005720749E+01  0.46142317748E+02  0.99999998785E+01 0.  0.
         12    1    1    2    0    0  0.34101189767E+02  0.28294930254E+02 -0.81005720749E+01  0.45045682252E+02  0.00000000000E+00 0. -1.
         11    1    3    3    0    0 -0.32055681411E+01 -0.30203708669E+01 -0.20417093922E+01  0.48545735945E+01  0.51100000000E-03 0. -1.
        -11    1    3    3    0    0 -0.17678430079E+02 -0.12671268435E+02  0.59505070906E+01  0.22549866268E+02  0.51100000000E-03 0.  1.
         12    1    3    3    0    0 -0.13217191547E+02 -0.12603290953E+02  0.41917743765E+01  0.18737877886E+02  0.00000000000E+00 0. -1.
</event>
<event>
 7    1  0.1466590E-008  0.4614232E+02  0.7816164E-02  0.1320468E+00
        -11   -1    0    0    0    0  0.00000000000E+00  0.00000000000E+00  0.45593999997E+02  0.45594000000E+02  0.51100000000E-03 0.  1.
         11   -1    0    0    0    0 -0.00000000000E+00 -0.00000000000E+00 -0.45593999997E+02  0.45594000000E+02  0.51100000000E-03 0. -1.
    9900012    2    1    2    0    0  0.43995512029E+02 -0.83114752236E+01  0.49424401117E+01  0.46142318594E+02  0.10000007591E+02 0.  0.
         12    1    1    2    0    0 -0.43995512029E+02  0.83114752236E+01 -0.49424401117E+01  0.45045681406E+02  0.00000000000E+00 0. -1.
         11    1    3    3    0    0  0.18960085518E+02 -0.10320684940E+00  0.45894415120E+01  0.19507907837E+02  0.51100000000E-03 0. -1.
        -11    1    3    3    0    0  0.22910501197E+02 -0.69895851686E+01  0.13470002169E+01  0.23990826909E+02  0.51100000000E-03 0.  1.
         12    1    3    3    0    0  0.21249253135E+01 -0.12186832056E+01 -0.99400161714E+00  0.26435838474E+01  0.00000000000E+00 0. -1.
</event>
<event>
 7    1  0.1466590E-008  0.4614230E+02  0.7816164E-02  0.1320468E+00
        -11   -1    0    0    0    0  0.00000000000E+00  0.00000000000E+00  0.45593999997E+02  0.45594000000E+02  0.51100000000E-03 0. -1.
         11   -1    0    0    0    0 -0.00000000000E+00 -0.00000000000E+00 -0.45593999997E+02  0.45594000000E+02  0.51100000000E-03 0.  1.
    9900012    2    1    2    0    0 -0.25207282974E+01 -0.31629315775E+02  0.31974162934E+02  0.46142303392E+02  0.99998689686E+01 0.  0.
         12    1    1    2    0    0  0.25207282974E+01  0.31629315775E+02 -0.31974162934E+02  0.45045696608E+02  0.00000000000E+00 0. -1.
         11    1    3    3    0    0  0.68685306649E+00 -0.20170841315E+02  0.18910185804E+02  0.27657363104E+02  0.51100000000E-03 0.  1.
        -11    1    3    3    0    0 -0.33034611336E+00 -0.65023821576E+00 -0.51493495595E+00  0.89280264439E+00  0.51100000000E-03 0. -1.
         12    1    3    3    0    0 -0.28772352505E+01 -0.10808236245E+02  0.13578912086E+02  0.17592137643E+02  0.00000000000E+00 0. -1.
</event>
<event>
 7    1  0.1466590E-008  0.4614232E+02  0.7816164E-02  0.1320468E+00
        -11   -1    0    0    0    0  0.00000000000E+00  0.00000000000E+00  0.45593999997E+02  0.45594000000E+02  0.51100000000E-03 0.  1.
         11   -1    0    0    0    0 -0.00000000000E+00 -0.00000000000E+00 -0.45593999997E+02  0.45594000000E+02  0.51100000000E-03 0. -1.
    9900012    2    1    2    0    0  0.13362993031E+02 -0.85608188089E+01  0.42157517931E+02  0.46142317415E+02  0.99999968475E+01 0.  0.
         12    1    1    2    0    0 -0.13362993031E+02  0.85608188089E+01 -0.42157517931E+02  0.45045682585E+02  0.00000000000E+00 0. -1.
         11    1    3    3    0    0  0.10107070821E+02 -0.23603222692E+01  0.21199954834E+02  0.23604281116E+02  0.51100000000E-03 0. -1.
        -11    1    3    3    0    0  0.39585133187E+00 -0.47143714705E+01  0.91794522563E+01  0.10326874678E+02  0.51100000000E-03 0.  1.
        -12    1    3    3    0    0  0.28600708780E+01 -0.14861250692E+01  0.11778110841E+02  0.12211161621E+02  0.00000000000E+00 0.  1.
</event>
<event>
 7    1  0.1466590E-008  0.4614232E+02  0.7816164E-02  0.1320468E+00
        -11   -1    0    0    0    0  0.00000000000E+00  0.00000000000E+00  0.45593999997E+02  0.45594000000E+02  0.51100000000E-03 0.  1.
         11   -1    0    0    0    0 -0.00000000000E+00 -0.00000000000E+00 -0.45593999997E+02  0.45594000000E+02  0.51100000000E-03 0. -1.
    9900012    2    1    2    0    0 -0.15691269886E+02 -0.19492554235E+02  0.37455813758E+02  0.46142316460E+02  0.99999881388E+01 0.  0.
         12    1    1    2    0    0  0.15691269886E+02  0.19492554235E+02 -0.37455813758E+02  0.45045683540E+02  0.00000000000E+00 0. -1.
         11    1    3    3    0    0 -0.20599308660E+01 -0.83937697692E+01  0.10362890669E+02  0.13494005684E+02  0.51100000000E-03 0. -1.
        -11    1    3    3    0    0 -0.12137745475E+02 -0.10551228609E+02  0.26400340650E+02  0.30913286417E+02  0.51100000000E-03 0.  1.
        -12    1    3    3    0    0 -0.14935935452E+01 -0.54755585750E+00  0.69258243905E+00  0.17350243601E+01  0.00000000000E+00 0.  1.
</event>
<event>
 7    1  0.1466590E-008  0.4614232E+02  0.7816164E-02  0.1320468E+00
        -11   -1    0    0    0    0  0.00000000000E+00  0.00000000000E+00  0.45593999997E+02  0.45594000000E+02  0.51100000000E-03 0.  1.
         11   -1    0    0    0    0 -0.00000000000E+00 -0.00000000000E+00 -0.45593999997E+02  0.45594000000E+02  0.51100000000E-03 0. -1.
    9900012    2    1    2    0    0  0.38627720660E+02 -0.21394724360E+02  0.89038444253E+01  0.46142317861E+02  0.10000000910E+02 0.  0.
         12    1    1    2    0    0 -0.38627720660E+02  0.21394724360E+02 -0.89038444253E+01  0.45045682139E+02  0.00000000000E+00 0. -1.
         11    1    3    3    0    0  0.23824476416E+02 -0.96910764606E+01  0.49632206911E+01  0.26194583397E+02  0.51100000000E-03 0. -1.
        -11    1    3    3    0    0  0.86970629949E+01 -0.36137367028E+01  0.19980112035E+01  0.96275670200E+01  0.51100000000E-03 0.  1.
         12    1    3    3    0    0  0.61061812486E+01 -0.80899111969E+01  0.19426125307E+01  0.10320167443E+02  0.00000000000E+00 0. -1.
</event>
<event>
 7    1  0.1466590E-008  0.4614233E+02  0.7816164E-02  0.1320468E+00
        -11   -1    0    0    0    0  0.00000000000E+00  0.00000000000E+00  0.45593999997E+02  0.45594000000E+02  0.51100000000E-03 0.  1.
         11   -1    0    0    0    0 -0.00000000000E+00 -0.00000000000E+00 -0.45593999997E+02  0.45594000000E+02  0.51100000000E-03 0. -1.
    9900012    2    1    2    0    0 -0.18983011438E+02 -0.33141270207E+02  0.23883343071E+02  0.46142327727E+02  0.10000090881E+02 0.  0.
         12    1    1    2    0    0  0.18983011438E+02  0.33141270207E+02 -0.23883343071E+02  0.45045672273E+02  0.00000000000E+00 0. -1.
         11    1    3    3    0    0 -0.20373750044E+01 -0.37011002249E+00  0.76528851288E+00  0.22076107234E+01  0.51100000000E-03 0. -1.
        -11    1    3    3    0    0 -0.52435134646E+01 -0.52247676553E+01  0.38994885685E+01  0.83665191007E+01  0.51100000000E-03 0.  1.
         12    1    3    3    0    0 -0.11702122970E+02 -0.27546392530E+02  0.19218565990E+02  0.35568197903E+02  0.00000000000E+00 0. -1.
</event>
<event>
 7    1  0.1466590E-008  0.4614232E+02  0.7816164E-02  0.1320468E+00
        -11   -1    0    0    0    0  0.00000000000E+00  0.00000000000E+00  0.45593999997E+02  0.45594000000E+02  0.51100000000E-03 0.  1.
         11   -1    0    0    0    0 -0.00000000000E+00 -0.00000000000E+00 -0.45593999997E+02  0.45594000000E+02  0.51100000000E-03 0. -1.
    9900012    2    1    2    0    0  0.23796584276E+02  0.19425189805E+02  0.32946897173E+02  0.46142318126E+02  0.10000003328E+02 0.  0.
         12    1    1    2    0    0 -0.23796584276E+02 -0.19425189805E+02 -0.32946897173E+02  0.45045681874E+02  0.00000000000E+00 0. -1.
         11    1    3    3    0    0  0.17004453955E+02  0.15260042032E+02  0.21747257328E+02  0.31543042635E+02  0.51100000000E-03 0. -1.
        -11    1    3    3    0    0  0.71992619993E+01  0.44374909685E+01  0.11284870530E+02  0.14102092135E+02  0.51100000000E-03 0.  1.
         12    1    3    3    0    0 -0.40713167917E+00 -0.27234319460E+00 -0.85230685498E-01  0.49718335610E+00  0.00000000000E+00 0. -1.
</event>
<event>
 7    1  0.1466590E-008  0.4614232E+02  0.7816164E-02  0.1320468E+00
        -11   -1    0    0    0    0  0.00000000000E+00  0.00000000000E+00  0.45593999997E+02  0.45594000000E+02  0.51100000000E-03 0.  1.
         11   -1    0    0    0    0 -0.00000000000E+00 -0.00000000000E+00 -0.45593999997E+02  0.45594000000E+02  0.51100000000E-03 0. -1.
    9900012    2    1    2    0    0  0.16243751627E+02 -0.49190768202E+01  0.41725968960E+02  0.46142320193E+02  0.10000022172E+02 0.  0.
         12    1    1    2    0    0 -0.16243751627E+02  0.49190768202E+01 -0.41725968960E+02  0.45045679807E+02  0.00000000000E+00 0. -1.
         11    1    3    3    0    0 -0.87861749722E-01  0.58832922193E+00  0.21732628367E+01  0.22532027380E+01  0.51100000000E-03 0. -1.
        -11    1    3    3    0    0  0.16493316845E+02 -0.34161348000E+01  0.36320675468E+02  0.40036120495E+02  0.51100000000E-03 0.  1.
        -12    1    3    3    0    0 -0.16170346815E+00 -0.20912712422E+01  0.32320306548E+01  0.38529969600E+01  0.00000000000E+00 0.  1.
</event>
<event>
 7    1  0.1466590E-008  0.4614232E+02  0.7816164E-02  0.1320468E+00
        -11   -1    0    0    0    0  0.00000000000E+00  0.00000000000E+00  0.45593999997E+02  0.45594000000E+02  0.51100000000E-03 0.  1.
         11   -1    0    0    0    0 -0.00000000000E+00 -0.00000000000E+00 -0.45593999997E+02  0.45594000000E+02  0.51100000000E-03 0. -1.
    9900012    2    1    2    0    0  0.88335276195E+01 -0.18851428467E+02  0.39946288245E+02  0.46142317521E+02  0.99999978129E+01 0.  0.
         12    1    1    2    0    0 -0.88335276195E+01  0.18851428467E+02 -0.39946288245E+02  0.45045682479E+02  0.00000000000E+00 0. -1.
         11    1    3    3    0    0  0.12275696102E+01  0.17692821185E+00  0.15464665600E+01  0.19823697492E+01  0.51100000000E-03 0. -1.
        -11    1    3    3    0    0  0.18816711043E+01 -0.67433387475E+01  0.20798539872E+02  0.21945217353E+02  0.51100000000E-03 0.  1.
        -12    1    3    3    0    0  0.57242869050E+01 -0.12285017931E+02  0.17601281813E+02  0.22214730419E+02  0.00000000000E+00 0.  1.
</event>
<event>
 7    1  0.1466590E-008  0.4614232E+02  0.7816164E-02  0.1320468E+00
        -11   -1    0    0    0    0  0.00000000000E+00  0.00000000000E+00  0.45593999997E+02  0.45594000000E+02  0.51100000000E-03 0.  1.
         11   -1    0    0    0    0 -0.00000000000E+00 -0.00000000000E+00 -0.45593999997E+02  0.45594000000E+02  0.51100000000E-03 0. -1.
    9900012    2    1    2    0    0 -0.35501569544E+02 -0.22133631318E+02 -0.16698932689E+02  0.46142318427E+02  0.10000006072E+02 0.  0.
         12    1    1    2    0    0  0.35501569544E+02  0.22133631318E+02  0.16698932689E+02  0.45045681573E+02  0.00000000000E+00 0. -1.
         11    1    3    3    0    0 -0.68377118729E+01 -0.16937669442E+01 -0.32814677331E+01  0.77711762857E+01  0.51100000000E-03 0. -1.
        -11    1    3    3    0    0 -0.24374472513E+02 -0.19011351300E+02 -0.13762168996E+02  0.33837016480E+02  0.51100000000E-03 0.  1.
        -12    1    3    3    0    0 -0.42893851583E+01 -0.14285130737E+01  0.34470403977E+00  0.45341256614E+01  0.00000000000E+00 0.  1.
</event>
<event>
 7    1  0.1466590E-008  0.4614232E+02  0.7816164E-02  0.1320468E+00
        -11   -1    0    0    0    0  0.00000000000E+00  0.00000000000E+00  0.45593999997E+02  0.45594000000E+02  0.51100000000E-03 0.  1.
         11   -1    0    0    0    0 -0.00000000000E+00 -0.00000000000E+00 -0.45593999997E+02  0.45594000000E+02  0.51100000000E-03 0. -1.
    9900012    2    1    2    0    0 -0.12392941789E+02 -0.76231608091E+01  0.42631159557E+02  0.46142319274E+02  0.10000013794E+02 0.  0.
         12    1    1    2    0    0  0.12392941789E+02  0.76231608091E+01 -0.42631159557E+02  0.45045680726E+02  0.00000000000E+00 0. -1.
         11    1    3    3    0    0 -0.47872837889E+01  0.83962008254E+00  0.20394569072E+02  0.20965721925E+02  0.51100000000E-03 0. -1.
        -11    1    3    3    0    0 -0.45564099613E+01 -0.27275483985E+01  0.98639925002E+01  0.11202622028E+02  0.51100000000E-03 0.  1.
         12    1    3    3    0    0 -0.30492480384E+01 -0.57352324931E+01  0.12372597985E+02  0.13973975320E+02  0.00000000000E+00 0. -1.
</event>
<event>
 7    1  0.1466590E-008  0.4614232E+02  0.7816164E-02  0.1320468E+00
        -11   -1    0    0    0    0  0.00000000000E+00  0.00000000000E+00  0.45593999997E+02  0.45594000000E+02  0.51100000000E-03 0.  1.
         11   -1    0    0    0    0 -0.00000000000E+00 -0.00000000000E+00 -0.45593999997E+02  0.45594000000E+02  0.51100000000E-03 0. -1.
    9900012    2    1    2    0    0 -0.36192735960E+02 -0.26520753589E+02 -0.39810579290E+01  0.46142319525E+02  0.10000016087E+02 0.  0.
         12    1    1    2    0    0  0.36192735960E+02  0.26520753589E+02  0.39810579290E+01  0.45045680475E+02  0.00000000000E+00 0. -1.
         11    1    3    3    0    0 -0.89693211653E+00 -0.25236359748E+01  0.13216644863E+01  0.29866407602E+01  0.51100000000E-03 0. -1.
        -11    1    3    3    0    0 -0.32439246214E+02 -0.21058341356E+02 -0.41423318784E+01  0.38896238240E+02  0.51100000000E-03 0.  1.
        -12    1    3    3    0    0 -0.28565576301E+01 -0.29387762582E+01 -0.11603905368E+01  0.42594405252E+01  0.00000000000E+00 0.  1.
</event>
<event>
 7    1  0.1466590E-008  0.4614232E+02  0.7816164E-02  0.1320468E+00
        -11   -1    0    0    0    0  0.00000000000E+00  0.00000000000E+00  0.45593999997E+02  0.45594000000E+02  0.51100000000E-03 0.  1.
         11   -1    0    0    0    0 -0.00000000000E+00 -0.00000000000E+00 -0.45593999997E+02  0.45594000000E+02  0.51100000000E-03 0. -1.
    9900012    2    1    2    0    0 -0.75002984997E+01 -0.22245336147E+02  0.38444819557E+02  0.46142316426E+02  0.99999878261E+01 0.  0.
         12    1    1    2    0    0  0.75002984997E+01  0.22245336147E+02 -0.38444819557E+02  0.45045683574E+02  0.00000000000E+00 0. -1.
         11    1    3    3    0    0  0.15535626005E-01  0.22284581373E+00  0.27718243866E-01  0.22510036547E+00  0.51100000000E-03 0. -1.
        -11    1    3    3    0    0  0.47890652423E-01 -0.12195720414E+02  0.21653511072E+02  0.24851809430E+02  0.51100000000E-03 0.  1.
        -12    1    3    3    0    0 -0.75637247782E+01 -0.10272461546E+02  0.16763590241E+02  0.21065406630E+02  0.00000000000E+00 0.  1.
</event>
<event>
 7    1  0.1466590E-008  0.4614232E+02  0.7816164E-02  0.1320468E+00
        -11   -1    0    0    0    0  0.00000000000E+00  0.00000000000E+00  0.45593999997E+02  0.45594000000E+02  0.51100000000E-03 0.  1.
         11   -1    0    0    0    0 -0.00000000000E+00 -0.00000000000E+00 -0.45593999997E+02  0.45594000000E+02  0.51100000000E-03 0. -1.
    9900012    2    1    2    0    0 -0.43429238812E+02 -0.73118985884E+01  0.94631313198E+01  0.46142317642E+02  0.99999989106E+01 0.  0.
         12    1    1    2    0    0  0.43429238812E+02  0.73118985884E+01 -0.94631313198E+01  0.45045682358E+02  0.00000000000E+00 0. -1.
         11    1    3    3    0    0 -0.38214151453E+01  0.10512408111E+01 -0.57269821521E+00  0.40045354864E+01  0.51100000000E-03 0. -1.
        -11    1    3    3    0    0 -0.15410776780E+02 -0.48118752464E+01  0.65993654422E+01  0.17441267410E+02  0.51100000000E-03 0.  1.
        -12    1    3    3    0    0 -0.24197046887E+02 -0.35512641532E+01  0.34364640928E+01  0.24696514746E+02  0.00000000000E+00 0.  1.
</event>
<event>
 7    1  0.1466590E-008  0.4614232E+02  0.7816164E-02  0.1320468E+00
        -11   -1    0    0    0    0  0.00000000000E+00  0.00000000000E+00  0.45593999997E+02  0.45594000000E+02  0.51100000000E-03 0.  1.
         11   -1    0    0    0    0 -0.00000000000E+00 -0.00000000000E+00 -0.45593999997E+02  0.45594000000E+02  0.51100000000E-03 0. -1.
    9900012    2    1    2    0    0 -0.80996130424E+01  0.30201167936E+02  0.32425283384E+02  0.46142320089E+02  0.10000021224E+02 0.  0.
         12    1    1    2    0    0  0.80996130424E+01 -0.30201167936E+02 -0.32425283384E+02  0.45045679911E+02  0.00000000000E+00 0. -1.
         11    1    3    3    0    0  0.92031246226E+00  0.31921946874E+00  0.25744713944E+01  0.27525950155E+01  0.51100000000E-03 0. -1.
        -11    1    3    3    0    0 -0.37152842400E+01  0.12437738866E+02  0.15283385468E+02  0.20051996327E+02  0.51100000000E-03 0.  1.
         12    1    3    3    0    0 -0.53046412647E+01  0.17444209600E+02  0.14567426522E+02  0.23337728746E+02  0.00000000000E+00 0. -1.
</event>
<event>
 7    1  0.1466590E-008  0.4614232E+02  0.7816164E-02  0.1320468E+00
        -11   -1    0    0    0    0  0.00000000000E+00  0.00000000000E+00  0.45593999997E+02  0.45594000000E+02  0.51100000000E-03 0. -1.
         11   -1    0    0    0    0 -0.00000000000E+00 -0.00000000000E+00 -0.45593999997E+02  0.45594000000E+02  0.51100000000E-03 0.  1.
    9900012    2    1    2    0    0  0.15023046067E+02  0.23760769816E+02 -0.35197265358E+02  0.46142316699E+02  0.99999903117E+01 0.  0.
         12    1    1    2    0    0 -0.15023046067E+02 -0.23760769816E+02  0.35197265358E+02  0.45045683301E+02  0.00000000000E+00 0. -1.
         11    1    3    3    0    0  0.30385350948E+01  0.11498006882E+01 -0.40824039264E+01  0.52173517444E+01  0.51100000000E-03 0. -1.
        -11    1    3    3    0    0  0.11854257950E+02  0.21257124248E+02 -0.25924521265E+02  0.35559380843E+02  0.51100000000E-03 0.  1.
         12    1    3    3    0    0  0.13025302169E+00  0.13538448800E+01 -0.51903401669E+01  0.53655841115E+01  0.00000000000E+00 0. -1.
</event>
<event>
 7    1  0.1466590E-008  0.4614232E+02  0.7816164E-02  0.1320468E+00
        -11   -1    0    0    0    0  0.00000000000E+00  0.00000000000E+00  0.45593999997E+02  0.45594000000E+02  0.51100000000E-03 0.  1.
         11   -1    0    0    0    0 -0.00000000000E+00 -0.00000000000E+00 -0.45593999997E+02  0.45594000000E+02  0.51100000000E-03 0. -1.
    9900012    2    1    2    0    0 -0.19624692388E+02 -0.39002363220E+02  0.11081548489E+02  0.46142316466E+02  0.99999881947E+01 0.  0.
         12    1    1    2    0    0  0.19624692388E+02  0.39002363220E+02 -0.11081548489E+02  0.45045683534E+02  0.00000000000E+00 0. -1.
         11    1    3    3    0    0 -0.84278306065E+01 -0.24352256125E+02  0.10051709684E+02  0.27660397231E+02  0.51100000000E-03 0. -1.
        -11    1    3    3    0    0 -0.65717716664E+01 -0.86224544603E+01  0.96240825128E+00  0.10883985192E+02  0.51100000000E-03 0.  1.
         12    1    3    3    0    0 -0.46250901153E+01 -0.60276526342E+01  0.67430554174E-01  0.75979340437E+01  0.00000000000E+00 0. -1.
</event>
<event>
 7    1  0.1466590E-008  0.4614232E+02  0.7816164E-02  0.1320468E+00
        -11   -1    0    0    0    0  0.00000000000E+00  0.00000000000E+00  0.45593999997E+02  0.45594000000E+02  0.51100000000E-03 0. -1.
         11   -1    0    0    0    0 -0.00000000000E+00 -0.00000000000E+00 -0.45593999997E+02  0.45594000000E+02  0.51100000000E-03 0.  1.
    9900012    2    1    2    0    0 -0.39704565448E+02 -0.60855910473E+01 -0.20386922509E+02  0.46142317131E+02  0.99999942505E+01 0.  0.
         12    1    1    2    0    0  0.39704565448E+02  0.60855910473E+01  0.20386922509E+02  0.45045682869E+02  0.00000000000E+00 0. -1.
         11    1    3    3    0    0 -0.17845848114E+02 -0.12817035735E+01 -0.41126416919E+01  0.18358400827E+02  0.51100000000E-03 0. -1.
        -11    1    3    3    0    0 -0.15227636101E+02 -0.45047136731E+01 -0.11592976335E+02  0.19661394841E+02  0.51100000000E-03 0.  1.
         12    1    3    3    0    0 -0.66310812324E+01 -0.29917380060E+00 -0.46813044815E+01  0.81225214633E+01  0.00000000000E+00 0. -1.
</event>
<event>
 7    1  0.1466590E-008  0.4614232E+02  0.7816164E-02  0.1320468E+00
        -11   -1    0    0    0    0  0.00000000000E+00  0.00000000000E+00  0.45593999997E+02  0.45594000000E+02  0.51100000000E-03 0. -1.
         11   -1    0    0    0    0 -0.00000000000E+00 -0.00000000000E+00 -0.45593999997E+02  0.45594000000E+02  0.51100000000E-03 0.  1.
    9900012    2    1    2    0    0 -0.37166744905E+02  0.25127777939E+02  0.40424376530E+01  0.46142318151E+02  0.10000003559E+02 0.  0.
         12    1    1    2    0    0  0.37166744905E+02 -0.25127777939E+02 -0.40424376530E+01  0.45045681849E+02  0.00000000000E+00 0. -1.
         11    1    3    3    0    0 -0.11110252170E+01 -0.10198779187E+00  0.25989936957E+00  0.11455681934E+01  0.51100000000E-03 0. -1.
        -11    1    3    3    0    0  0.34639094945E+00  0.96959329778E+00 -0.26856890056E+00  0.10640617315E+01  0.51100000000E-03 0.  1.
        -12    1    3    3    0    0 -0.36402110638E+02  0.24260172433E+02  0.40511071840E+01  0.43932688226E+02  0.00000000000E+00 0.  1.
</event>
<event>
 7    1  0.1466590E-008  0.4614232E+02  0.7816164E-02  0.1320468E+00
        -11   -1    0    0    0    0  0.00000000000E+00  0.00000000000E+00  0.45593999997E+02  0.45594000000E+02  0.51100000000E-03 0.  1.
         11   -1    0    0    0    0 -0.00000000000E+00 -0.00000000000E+00 -0.45593999997E+02  0.45594000000E+02  0.51100000000E-03 0. -1.
    9900012    2    1    2    0    0 -0.81425814177E+01  0.44258155480E+02  0.20068582073E+01  0.46142318315E+02  0.10000005052E+02 0.  0.
         12    1    1    2    0    0  0.81425814177E+01 -0.44258155480E+02 -0.20068582073E+01  0.45045681685E+02  0.00000000000E+00 0. -1.
         11    1    3    3    0    0 -0.14849275428E+01  0.54492482756E+01 -0.19684441039E+01  0.59811444581E+01  0.51100000000E-03 0. -1.
        -11    1    3    3    0    0 -0.34766685307E+01  0.27262367565E+02  0.56794155348E+01  0.28063849885E+02  0.51100000000E-03 0.  1.
        -12    1    3    3    0    0 -0.31809853442E+01  0.11546539639E+02 -0.17041132236E+01  0.12097323972E+02  0.00000000000E+00 0.  1.
</event>
<event>
 7    1  0.1466590E-008  0.4614232E+02  0.7816164E-02  0.1320468E+00
        -11   -1    0    0    0    0  0.00000000000E+00  0.00000000000E+00  0.45593999997E+02  0.45594000000E+02  0.51100000000E-03 0. -1.
         11   -1    0    0    0    0 -0.00000000000E+00 -0.00000000000E+00 -0.45593999997E+02  0.45594000000E+02  0.51100000000E-03 0.  1.
    9900012    2    1    2    0    0 -0.38455007706E+02 -0.18334865734E+02 -0.14634142096E+02  0.46142322804E+02  0.10000045988E+02 0.  0.
         12    1    1    2    0    0  0.38455007706E+02  0.18334865734E+02  0.14634142096E+02  0.45045677196E+02  0.00000000000E+00 0. -1.
         11    1    3    3    0    0 -0.13836789675E+01  0.47086356997E+00 -0.34438385776E+00  0.15016259485E+01  0.51100000000E-03 0. -1.
        -11    1    3    3    0    0 -0.22139937767E+02 -0.69845263424E+01 -0.87116773825E+01  0.24796245192E+02  0.51100000000E-03 0.  1.
        -12    1    3    3    0    0 -0.14931390971E+02 -0.11821202961E+02 -0.55780808553E+01  0.19844451663E+02  0.00000000000E+00 0.  1.
</event>
<event>
 7    1  0.1466590E-008  0.4614232E+02  0.7816164E-02  0.1320468E+00
        -11   -1    0    0    0    0  0.00000000000E+00  0.00000000000E+00  0.45593999997E+02  0.45594000000E+02  0.51100000000E-03 0.  1.
         11   -1    0    0    0    0 -0.00000000000E+00 -0.00000000000E+00 -0.45593999997E+02  0.45594000000E+02  0.51100000000E-03 0. -1.
    9900012    2    1    2    0    0 -0.22981827210E+02 -0.10623211846E+02  0.37257166883E+02  0.46142317677E+02  0.99999992322E+01 0.  0.
         12    1    1    2    0    0  0.22981827210E+02  0.10623211846E+02 -0.37257166883E+02  0.45045682323E+02  0.00000000000E+00 0. -1.
         11    1    3    3    0    0 -0.34327929731E+01 -0.63123815631E+01  0.98192174271E+01  0.12167467269E+02  0.51100000000E-03 0. -1.
        -11    1    3    3    0    0 -0.13369548578E+02 -0.33064173278E+01  0.19146635366E+02  0.23585395287E+02  0.51100000000E-03 0.  1.
        -12    1    3    3    0    0 -0.61794856584E+01 -0.10044129549E+01  0.82913140898E+01  0.10389455122E+02  0.00000000000E+00 0.  1.
</event>
<event>
 7    1  0.1466590E-008  0.4614232E+02  0.7816164E-02  0.1320468E+00
        -11   -1    0    0    0    0  0.00000000000E+00  0.00000000000E+00  0.45593999997E+02  0.45594000000E+02  0.51100000000E-03 0.  1.
         11   -1    0    0    0    0 -0.00000000000E+00 -0.00000000000E+00 -0.45593999997E+02  0.45594000000E+02  0.51100000000E-03 0. -1.
    9900012    2    1    2    0    0  0.68920660252E+01  0.32131886550E+01  0.44399193289E+02  0.46142317408E+02  0.99999967842E+01 0.  0.
         12    1    1    2    0    0 -0.68920660252E+01 -0.32131886550E+01 -0.44399193289E+02  0.45045682592E+02  0.00000000000E+00 0. -1.
         11    1    3    3    0    0 -0.19664308968E+01 -0.46823295090E+00  0.60776828559E+01  0.64050231636E+01  0.51100000000E-03 0. -1.
        -11    1    3    3    0    0  0.91613484058E+01  0.33478894294E+01  0.37844120292E+02  0.39080891868E+02  0.51100000000E-03 0.  1.
        -12    1    3    3    0    0 -0.30285148378E+00  0.33353217645E+00  0.47739014129E+00  0.65640237732E+00  0.00000000000E+00 0.  1.
</event>
<event>
 7    1  0.1466590E-008  0.4614232E+02  0.7816164E-02  0.1320468E+00
        -11   -1    0    0    0    0  0.00000000000E+00  0.00000000000E+00  0.45593999997E+02  0.45594000000E+02  0.51100000000E-03 0.  1.
         11   -1    0    0    0    0 -0.00000000000E+00 -0.00000000000E+00 -0.45593999997E+02  0.45594000000E+02  0.51100000000E-03 0. -1.
    9900012    2    1    2    0    0  0.13718882775E+02 -0.42467359786E+02  0.61179183644E+01  0.46142319664E+02  0.10000017355E+02 0.  0.
         12    1    1    2    0    0 -0.13718882775E+02  0.42467359786E+02 -0.61179183644E+01  0.45045680336E+02  0.00000000000E+00 0. -1.
         11    1    3    3    0    0  0.46547146053E+01 -0.94384927786E+01 -0.29471360538E+00  0.10527980355E+02  0.51100000000E-03 0. -1.
        -11    1    3    3    0    0  0.10316191274E+02 -0.27838890465E+02  0.56410922144E+01  0.30220018967E+02  0.51100000000E-03 0.  1.
        -12    1    3    3    0    0 -0.12520231038E+01 -0.51899765425E+01  0.77153975537E+00  0.53943203426E+01  0.00000000000E+00 0.  1.
</event>
<event>
 7    1  0.1466590E-008  0.4614232E+02  0.7816164E-02  0.1320468E+00
        -11   -1    0    0    0    0  0.00000000000E+00  0.00000000000E+00  0.45593999997E+02  0.45594000000E+02  0.51100000000E-03 0.  1.
         11   -1    0    0    0    0 -0.00000000000E+00 -0.00000000000E+00 -0.45593999997E+02  0.45594000000E+02  0.51100000000E-03 0. -1.
    9900012    2    1    2    0    0 -0.38377896058E+02  0.15280257359E+02 -0.17965641478E+02  0.46142318248E+02  0.10000004439E+02 0.  0.
         12    1    1    2    0    0  0.38377896058E+02 -0.15280257359E+02  0.17965641478E+02  0.45045681752E+02  0.00000000000E+00 0. -1.
         11    1    3    3    0    0 -0.14725689131E+02  0.75620507090E+01 -0.10455909515E+02  0.19579493746E+02  0.51100000000E-03 0. -1.
        -11    1    3    3    0    0 -0.15757091539E-01  0.83427843909E+00 -0.37294153032E-01  0.83526038745E+00  0.51100000000E-03 0.  1.
        -12    1    3    3    0    0 -0.23636449835E+02  0.68839282107E+01 -0.74724378105E+01  0.25727564114E+02  0.00000000000E+00 0.  1.
</event>
<event>
 7    1  0.1466590E-008  0.4614232E+02  0.7816164E-02  0.1320468E+00
        -11   -1    0    0    0    0  0.00000000000E+00  0.00000000000E+00  0.45593999997E+02  0.45594000000E+02  0.51100000000E-03 0.  1.
         11   -1    0    0    0    0 -0.00000000000E+00 -0.00000000000E+00 -0.45593999997E+02  0.45594000000E+02  0.51100000000E-03 0. -1.
    9900012    2    1    2    0    0 -0.22855993375E+02  0.31611277369E+02  0.22526523916E+02  0.46142316857E+02  0.99999917553E+01 0.  0.
         12    1    1    2    0    0  0.22855993375E+02 -0.31611277369E+02 -0.22526523916E+02  0.45045683143E+02  0.00000000000E+00 0. -1.
         11    1    3    3    0    0 -0.70184238646E+01  0.12152726517E+02  0.11698985371E+02  0.18270558128E+02  0.51100000000E-03 0.  1.
        -11    1    3    3    0    0 -0.15029852990E+02  0.19724666178E+02  0.10196699243E+02  0.26812900112E+02  0.51100000000E-03 0. -1.
         12    1    3    3    0    0 -0.80771652121E+00 -0.26611532557E+00  0.63083930259E+00  0.10588586170E+01  0.00000000000E+00 0. -1.
</event>
<event>
 7    1  0.1466590E-008  0.4614232E+02  0.7816164E-02  0.1320468E+00
        -11   -1    0    0    0    0  0.00000000000E+00  0.00000000000E+00  0.45593999997E+02  0.45594000000E+02  0.51100000000E-03 0. -1.
         11   -1    0    0    0    0 -0.00000000000E+00 -0.00000000000E+00 -0.45593999997E+02  0.45594000000E+02  0.51100000000E-03 0.  1.
    9900012    2    1    2    0    0  0.12047334202E+02 -0.36830882694E+02 -0.22966526446E+02  0.46142317428E+02  0.99999969600E+01 0.  0.
         12    1    1    2    0    0 -0.12047334202E+02  0.36830882694E+02  0.22966526446E+02  0.45045682572E+02  0.00000000000E+00 0. -1.
         11    1    3    3    0    0 -0.44782898134E+00 -0.19250020356E+01  0.73001671683E+00  0.21069191493E+01  0.51100000000E-03 0. -1.
        -11    1    3    3    0    0  0.11066514825E+02 -0.30492598085E+02 -0.20049280462E+02  0.38134497973E+02  0.51100000000E-03 0.  1.
         12    1    3    3    0    0  0.14286483586E+01 -0.44132825731E+01 -0.36472627009E+01  0.59009003052E+01  0.00000000000E+00 0. -1.
</event>
<event>
 7    1  0.1466590E-008  0.4614232E+02  0.7816164E-02  0.1320468E+00
        -11   -1    0    0    0    0  0.00000000000E+00  0.00000000000E+00  0.45593999997E+02  0.45594000000E+02  0.51100000000E-03 0.  1.
         11   -1    0    0    0    0 -0.00000000000E+00 -0.00000000000E+00 -0.45593999997E+02  0.45594000000E+02  0.51100000000E-03 0. -1.
    9900012    2    1    2    0    0  0.33844141093E+02  0.27874537939E+02  0.10329457658E+02  0.46142318218E+02  0.10000004170E+02 0.  0.
         12    1    1    2    0    0 -0.33844141093E+02 -0.27874537939E+02 -0.10329457658E+02  0.45045681782E+02  0.00000000000E+00 0. -1.
         11    1    3    3    0    0  0.59548075460E+01  0.33775924329E+01 -0.16040183794E+01  0.70314108666E+01  0.51100000000E-03 0. -1.
        -11    1    3    3    0    0  0.98983494580E+01  0.73013503451E+01  0.29182108579E+01  0.12641320885E+02  0.51100000000E-03 0.  1.
         12    1    3    3    0    0  0.17990984089E+02  0.17195595161E+02  0.90152651798E+01  0.26469586466E+02  0.00000000000E+00 0. -1.
</event>
<event>
 7    1  0.1466590E-008  0.4614232E+02  0.7816164E-02  0.1320468E+00
        -11   -1    0    0    0    0  0.00000000000E+00  0.00000000000E+00  0.45593999997E+02  0.45594000000E+02  0.51100000000E-03 0. -1.
         11   -1    0    0    0    0 -0.00000000000E+00 -0.00000000000E+00 -0.45593999997E+02  0.45594000000E+02  0.51100000000E-03 0.  1.
    9900012    2    1    2    0    0  0.30379677415E+02  0.20082257108E+02 -0.26512101447E+02  0.46142319036E+02  0.10000011627E+02 0.  0.
         12    1    1    2    0    0 -0.30379677415E+02 -0.20082257108E+02  0.26512101447E+02  0.45045680964E+02  0.00000000000E+00 0. -1.
         11    1    3    3    0    0  0.30593063385E+01  0.33435460558E+01 -0.54444240969E+00  0.45645452456E+01  0.51100000000E-03 0. -1.
        -11    1    3    3    0    0  0.84966555890E+01  0.40542841347E+01 -0.49199850449E+01  0.10622458715E+02  0.51100000000E-03 0.  1.
         12    1    3    3    0    0  0.18823715487E+02  0.12684426918E+02 -0.21047673992E+02  0.30955315076E+02  0.00000000000E+00 0. -1.
</event>
<event>
 7    1  0.1466590E-008  0.4614232E+02  0.7816164E-02  0.1320468E+00
        -11   -1    0    0    0    0  0.00000000000E+00  0.00000000000E+00  0.45593999997E+02  0.45594000000E+02  0.51100000000E-03 0.  1.
         11   -1    0    0    0    0 -0.00000000000E+00 -0.00000000000E+00 -0.45593999997E+02  0.45594000000E+02  0.51100000000E-03 0. -1.
    9900012    2    1    2    0    0 -0.26577176303E+02  0.12716026088E+02  0.34074476073E+02  0.46142317195E+02  0.99999948383E+01 0.  0.
         12    1    1    2    0    0  0.26577176303E+02 -0.12716026088E+02 -0.34074476073E+02  0.45045682805E+02  0.00000000000E+00 0. -1.
         11    1    3    3    0    0 -0.14693765678E+02  0.72940469348E+01  0.12203934752E+02  0.20446170649E+02  0.51100000000E-03 0.  1.
        -11    1    3    3    0    0 -0.12073433936E+02  0.50928991839E+01  0.21372561560E+02  0.25069739069E+02  0.51100000000E-03 0. -1.
         12    1    3    3    0    0  0.19002331158E+00  0.32907996937E+00  0.49797976050E+00  0.62640747684E+00  0.00000000000E+00 0. -1.
</event>
<event>
 7    1  0.1466590E-008  0.4614232E+02  0.7816164E-02  0.1320468E+00
        -11   -1    0    0    0    0  0.00000000000E+00  0.00000000000E+00  0.45593999997E+02  0.45594000000E+02  0.51100000000E-03 0. -1.
         11   -1    0    0    0    0 -0.00000000000E+00 -0.00000000000E+00 -0.45593999997E+02  0.45594000000E+02  0.51100000000E-03 0.  1.
    9900012    2    1    2    0    0 -0.43781680626E+02 -0.73591538320E+01 -0.76236968210E+01  0.46142318112E+02  0.10000003197E+02 0.  0.
         12    1    1    2    0    0  0.43781680626E+02  0.73591538320E+01  0.76236968210E+01  0.45045681888E+02  0.00000000000E+00 0. -1.
         11    1    3    3    0    0 -0.50190392170E+01  0.37701025417E-01 -0.29611258489E+01  0.58275588872E+01  0.51100000000E-03 0. -1.
        -11    1    3    3    0    0 -0.91037348078E+01 -0.31346515854E+01 -0.37634434715E+01  0.10337675514E+02  0.51100000000E-03 0.  1.
        -12    1    3    3    0    0 -0.29658906601E+02 -0.42622032720E+01 -0.89912750049E+00  0.29977083710E+02  0.00000000000E+00 0.  1.
</event>
<event>
 7    1  0.1466590E-008  0.4614232E+02  0.7816164E-02  0.1320468E+00
        -11   -1    0    0    0    0  0.00000000000E+00  0.00000000000E+00  0.45593999997E+02  0.45594000000E+02  0.51100000000E-03 0.  1.
         11   -1    0    0    0    0 -0.00000000000E+00 -0.00000000000E+00 -0.45593999997E+02  0.45594000000E+02  0.51100000000E-03 0. -1.
    9900012    2    1    2    0    0  0.10297731594E+02  0.36108312600E+02 -0.24884935362E+02  0.46142317379E+02  0.99999965154E+01 0.  0.
         12    1    1    2    0    0 -0.10297731594E+02 -0.36108312600E+02  0.24884935362E+02  0.45045682621E+02  0.00000000000E+00 0. -1.
         11    1    3    3    0    0  0.66537359822E+01  0.30231752136E+02 -0.22587867982E+02  0.38320266439E+02  0.51100000000E-03 0.  1.
        -11    1    3    3    0    0  0.25605108159E+01  0.14979684808E+01 -0.91670563379E+00  0.31049113817E+01  0.51100000000E-03 0. -1.
        -12    1    3    3    0    0  0.10834847960E+01  0.43785919835E+01 -0.13803617463E+01  0.47171395582E+01  0.00000000000E+00 0.  1.
</event>
<event>
 7    1  0.1539609E-008  0.4614232E+02  0.7816164E-02  0.1320468E+00
        -11   -1    0    0    0    0  0.00000000000E+00  0.00000000000E+00  0.45593999997E+02  0.45594000000E+02  0.51100000000E-03 0. -1.
         11   -1    0    0    0    0 -0.00000000000E+00 -0.00000000000E+00 -0.45593999997E+02  0.45594000000E+02  0.51100000000E-03 0.  1.
    9900012    2    1    2    0    0  0.22167162243E+02 -0.11763304790E+01 -0.39196257358E+02  0.46142318451E+02  0.10000006292E+02 0.  0.
         12    1    1    2    0    0 -0.22167162243E+02  0.11763304790E+01  0.39196257358E+02  0.45045681549E+02  0.00000000000E+00 0. -1.
         11    1    3    3    0    0  0.31156480113E+00  0.11066705759E+01 -0.21147374567E+01  0.24070536264E+01  0.51100000000E-03 0. -1.
        -11    1    3    3    0    0  0.21834515164E+02 -0.15889080619E+01 -0.37056799251E+02  0.43040411850E+02  0.51100000000E-03 0.  1.
        -12    1    3    3    0    0  0.21082277524E-01 -0.69409299295E+00 -0.24720651008E-01  0.69485297428E+00  0.00000000000E+00 0.  1.
</event>
<event>
 7    1  0.1466590E-008  0.4614232E+02  0.7816164E-02  0.1320468E+00
        -11   -1    0    0    0    0  0.00000000000E+00  0.00000000000E+00  0.45593999997E+02  0.45594000000E+02  0.51100000000E-03 0. -1.
         11   -1    0    0    0    0 -0.00000000000E+00 -0.00000000000E+00 -0.45593999997E+02  0.45594000000E+02  0.51100000000E-03 0.  1.
    9900012    2    1    2    0    0 -0.28379277482E+02 -0.95322460734E+01  0.33658080373E+02  0.46142317854E+02  0.10000000843E+02 0.  0.
         12    1    1    2    0    0  0.28379277482E+02  0.95322460734E+01 -0.33658080373E+02  0.45045682146E+02  0.00000000000E+00 0. -1.
         11    1    3    3    0    0 -0.18055911156E+01 -0.19450958558E+01  0.55879093943E+01  0.61861368256E+01  0.51100000000E-03 0. -1.
        -11    1    3    3    0    0 -0.21167395644E+02 -0.83988056357E+01  0.24374243475E+02  0.33357192923E+02  0.51100000000E-03 0.  1.
        -12    1    3    3    0    0 -0.54062907229E+01  0.81165541820E+00  0.36959275042E+01  0.65989881054E+01  0.00000000000E+00 0.  1.
</event>
<event>
 7    1  0.1466590E-008  0.4614232E+02  0.7816164E-02  0.1320468E+00
        -11   -1    0    0    0    0  0.00000000000E+00  0.00000000000E+00  0.45593999997E+02  0.45594000000E+02  0.51100000000E-03 0.  1.
         11   -1    0    0    0    0 -0.00000000000E+00 -0.00000000000E+00 -0.45593999997E+02  0.45594000000E+02  0.51100000000E-03 0. -1.
    9900012    2    1    2    0    0  0.12945770717E+02 -0.12082194580E+02  0.41419090847E+02  0.46142317721E+02  0.99999996383E+01 0.  0.
         12    1    1    2    0    0 -0.12945770717E+02  0.12082194580E+02 -0.41419090847E+02  0.45045682279E+02  0.00000000000E+00 0. -1.
         11    1    3    3    0    0  0.37597646568E+01 -0.34700358477E+00  0.96519604611E+01  0.10364197160E+02  0.51100000000E-03 0. -1.
        -11    1    3    3    0    0  0.84038541879E+01 -0.63427017086E+01  0.16553999971E+02  0.19618602027E+02  0.51100000000E-03 0.  1.
         12    1    3    3    0    0  0.78215187207E+00 -0.53924892861E+01  0.15213130415E+02  0.16159518535E+02  0.00000000000E+00 0. -1.
</event>
<event>
 7    1  0.1466590E-008  0.4614232E+02  0.7816164E-02  0.1320468E+00
        -11   -1    0    0    0    0  0.00000000000E+00  0.00000000000E+00  0.45593999997E+02  0.45594000000E+02  0.51100000000E-03 0. -1.
         11   -1    0    0    0    0 -0.00000000000E+00 -0.00000000000E+00 -0.45593999997E+02  0.45594000000E+02  0.51100000000E-03 0.  1.
    9900012    2    1    2    0    0 -0.77460859191E+01  0.71858112366E+01 -0.43788991748E+02  0.46142317315E+02  0.99999959350E+01 0.  0.
         12    1    1    2    0    0  0.77460859191E+01 -0.71858112366E+01  0.43788991748E+02  0.45045682685E+02  0.00000000000E+00 0. -1.
         11    1    3    3    0    0  0.10269332359E+01  0.11191371355E+00 -0.30574374288E+00  0.10773096341E+01  0.51100000000E-03 0. -1.
        -11    1    3    3    0    0 -0.42257417837E+01  0.28924871610E+01 -0.13208645436E+02  0.14166569455E+02  0.51100000000E-03 0.  1.
        -12    1    3    3    0    0 -0.45472773713E+01  0.41814103621E+01 -0.30274602569E+02  0.30898438226E+02  0.00000000000E+00 0.  1.
</event>
<event>
 7    1  0.1466590E-008  0.4614232E+02  0.7816164E-02  0.1320468E+00
        -11   -1    0    0    0    0  0.00000000000E+00  0.00000000000E+00  0.45593999997E+02  0.45594000000E+02  0.51100000000E-03 0. -1.
         11   -1    0    0    0    0 -0.00000000000E+00 -0.00000000000E+00 -0.45593999997E+02  0.45594000000E+02  0.51100000000E-03 0.  1.
    9900012    2    1    2    0    0 -0.13065166811E+02 -0.42687154236E+02  0.60184633229E+01  0.46142316285E+02  0.99999865374E+01 0.  0.
         12    1    1    2    0    0  0.13065166811E+02  0.42687154236E+02 -0.60184633229E+01  0.45045683715E+02  0.00000000000E+00 0. -1.
         11    1    3    3    0    0  0.70555071021E+00 -0.74562391480E+00 -0.19581569436E+00  0.10450363028E+01  0.51100000000E-03 0. -1.
        -11    1    3    3    0    0 -0.64093504453E+01 -0.25645273732E+02  0.92740175036E+00  0.26450329151E+02  0.51100000000E-03 0.  1.
        -12    1    3    3    0    0 -0.73613670759E+01 -0.16296256590E+02  0.52868772669E+01  0.18646950831E+02  0.00000000000E+00 0.  1.
</event>
<event>
 7    1  0.1466590E-008  0.4614232E+02  0.7816164E-02  0.1320468E+00
        -11   -1    0    0    0    0  0.00000000000E+00  0.00000000000E+00  0.45593999997E+02  0.45594000000E+02  0.51100000000E-03 0.  1.
         11   -1    0    0    0    0 -0.00000000000E+00 -0.00000000000E+00 -0.45593999997E+02  0.45594000000E+02  0.51100000000E-03 0. -1.
    9900012    2    1    2    0    0  0.12327057721E+02  0.34846735647E+02  0.25746109624E+02  0.46142317653E+02  0.99999990150E+01 0.  0.
         12    1    1    2    0    0 -0.12327057721E+02 -0.34846735647E+02 -0.25746109624E+02  0.45045682347E+02  0.00000000000E+00 0. -1.
         11    1    3    3    0    0  0.24113116127E+01  0.32283873073E+01  0.32252739082E+01  0.51613273819E+01  0.51100000000E-03 0. -1.
        -11    1    3    3    0    0  0.10280964828E+02  0.23359923433E+02  0.14002847138E+02  0.29111234753E+02  0.51100000000E-03 0.  1.
        -12    1    3    3    0    0 -0.36521871985E+00  0.82584249071E+01  0.85179885776E+01  0.11869755518E+02  0.00000000000E+00 0.  1.
</event>
<event>
 7    1  0.1466590E-008  0.4614232E+02  0.7816164E-02  0.1320468E+00
        -11   -1    0    0    0    0  0.00000000000E+00  0.00000000000E+00  0.45593999997E+02  0.45594000000E+02  0.51100000000E-03 0.  1.
         11   -1    0    0    0    0 -0.00000000000E+00 -0.00000000000E+00 -0.45593999997E+02  0.45594000000E+02  0.51100000000E-03 0. -1.
    9900012    2    1    2    0    0  0.21467941627E+02  0.37766985256E+02  0.11912003462E+02  0.46142317415E+02  0.99999968445E+01 0.  0.
         12    1    1    2    0    0 -0.21467941627E+02 -0.37766985256E+02 -0.11912003462E+02  0.45045682585E+02  0.00000000000E+00 0. -1.
         11    1    3    3    0    0  0.54599195784E+01  0.50825041971E+01  0.52668618571E+01  0.91313966511E+01  0.51100000000E-03 0. -1.
        -11    1    3    3    0    0  0.14574127224E+02  0.30355502793E+02  0.62378438869E+01  0.34245765151E+02  0.51100000000E-03 0.  1.
         12    1    3    3    0    0  0.14338948244E+01  0.23289782665E+01  0.40729771827E+00  0.27651556131E+01  0.00000000000E+00 0. -1.
</event>
<event>
 7    1  0.1466590E-008  0.4614232E+02  0.7816164E-02  0.1320468E+00
        -11   -1    0    0    0    0  0.00000000000E+00  0.00000000000E+00  0.45593999997E+02  0.45594000000E+02  0.51100000000E-03 0.  1.
         11   -1    0    0    0    0 -0.00000000000E+00 -0.00000000000E+00 -0.45593999997E+02  0.45594000000E+02  0.51100000000E-03 0. -1.
    9900012    2    1    2    0    0  0.98108545435E+01 -0.41929034667E+02  0.13221833314E+02  0.46142315510E+02  0.99999794694E+01 0.  0.
         12    1    1    2    0    0 -0.98108545435E+01  0.41929034667E+02 -0.13221833314E+02  0.45045684490E+02  0.00000000000E+00 0. -1.
         11    1    3    3    0    0  0.67275628777E+00 -0.10478462995E+02  0.65657561484E+01  0.12383858115E+02  0.51100000000E-03 0. -1.
        -11    1    3    3    0    0  0.48002137365E+01 -0.11249770298E+02  0.67875830049E+00  0.12249901909E+02  0.51100000000E-03 0.  1.
        -12    1    3    3    0    0  0.43378845193E+01 -0.20200801374E+02  0.59773188655E+01  0.21508555486E+02  0.00000000000E+00 0.  1.
</event>
<event>
 7    1  0.1466590E-008  0.4614232E+02  0.7816164E-02  0.1320468E+00
        -11   -1    0    0    0    0  0.00000000000E+00  0.00000000000E+00  0.45593999997E+02  0.45594000000E+02  0.51100000000E-03 0.  1.
         11   -1    0    0    0    0 -0.00000000000E+00 -0.00000000000E+00 -0.45593999997E+02  0.45594000000E+02  0.51100000000E-03 0. -1.
    9900012    2    1    2    0    0  0.25211859730E+02  0.37145267023E+02 -0.37019695530E+01  0.46142319721E+02  0.10000017872E+02 0.  0.
         12    1    1    2    0    0 -0.25211859730E+02 -0.37145267023E+02  0.37019695530E+01  0.45045680279E+02  0.00000000000E+00 0. -1.
         11    1    3    3    0    0  0.14886102481E+02  0.25193877518E+02 -0.60800381152E+01  0.29888030635E+02  0.51100000000E-03 0. -1.
        -11    1    3    3    0    0  0.31648925486E+01  0.25811465318E+01  0.17536830760E+01  0.44445772415E+01  0.51100000000E-03 0.  1.
        -12    1    3    3    0    0  0.71608646998E+01  0.93702429727E+01  0.62438548616E+00  0.11809711845E+02  0.00000000000E+00 0.  1.
</event>
<event>
 7    1  0.1466590E-008  0.4614232E+02  0.7816164E-02  0.1320468E+00
        -11   -1    0    0    0    0  0.00000000000E+00  0.00000000000E+00  0.45593999997E+02  0.45594000000E+02  0.51100000000E-03 0.  1.
         11   -1    0    0    0    0 -0.00000000000E+00 -0.00000000000E+00 -0.45593999997E+02  0.45594000000E+02  0.51100000000E-03 0. -1.
    9900012    2    1    2    0    0 -0.39091505460E+02  0.18299641275E+02  0.12887625506E+02  0.46142316954E+02  0.99999926370E+01 0.  0.
         12    1    1    2    0    0  0.39091505460E+02 -0.18299641275E+02 -0.12887625506E+02  0.45045683046E+02  0.00000000000E+00 0. -1.
         11    1    3    3    0    0 -0.38072185620E+02  0.17618102105E+02  0.11014143084E+02  0.43372804702E+02  0.51100000000E-03 0.  1.
        -11    1    3    3    0    0  0.13787473075E+00 -0.41628715473E+00  0.49496218787E+00  0.66128077630E+00  0.51100000000E-03 0. -1.
        -12    1    3    3    0    0 -0.11571945714E+01  0.10978263255E+01  0.13785202341E+01  0.21082314751E+01  0.00000000000E+00 0.  1.
</event>
<event>
 7    1  0.1466590E-008  0.4614232E+02  0.7816164E-02  0.1320468E+00
        -11   -1    0    0    0    0  0.00000000000E+00  0.00000000000E+00  0.45593999997E+02  0.45594000000E+02  0.51100000000E-03 0.  1.
         11   -1    0    0    0    0 -0.00000000000E+00 -0.00000000000E+00 -0.45593999997E+02  0.45594000000E+02  0.51100000000E-03 0. -1.
    9900012    2    1    2    0    0  0.34034251966E+00 -0.35627414443E+02  0.27562387344E+02  0.46142315534E+02  0.99999796888E+01 0.  0.
         12    1    1    2    0    0 -0.34034251966E+00  0.35627414443E+02 -0.27562387344E+02  0.45045684466E+02  0.00000000000E+00 0. -1.
         11    1    3    3    0    0  0.18971100028E+01 -0.11909058135E+02  0.46963023612E+01  0.12941404412E+02  0.51100000000E-03 0. -1.
        -11    1    3    3    0    0 -0.15579973023E+00 -0.20166379146E+02  0.18139005758E+02  0.27124355321E+02  0.51100000000E-03 0.  1.
         12    1    3    3    0    0 -0.14009677529E+01 -0.35519771622E+01  0.47270792244E+01  0.60765558008E+01  0.00000000000E+00 0. -1.
</event>
<event>
 7    1  0.1466590E-008  0.4614231E+02  0.7816164E-02  0.1320468E+00
        -11   -1    0    0    0    0  0.00000000000E+00  0.00000000000E+00  0.45593999997E+02  0.45594000000E+02  0.51100000000E-03 0. -1.
         11   -1    0    0    0    0 -0.00000000000E+00 -0.00000000000E+00 -0.45593999997E+02  0.45594000000E+02  0.51100000000E-03 0.  1.
    9900012    2    1    2    0    0 -0.18898817364E+02 -0.38726007397E+02  0.13124221037E+02  0.46142310700E+02  0.99999356146E+01 0.  0.
         12    1    1    2    0    0  0.18898817364E+02  0.38726007397E+02 -0.13124221037E+02  0.45045689300E+02  0.00000000000E+00 0. -1.
         11    1    3    3    0    0 -0.25236825585E+00 -0.86537740543E+01  0.21485766767E+01  0.89200827976E+01  0.51100000000E-03 0. -1.
        -11    1    3    3    0    0 -0.13689639399E+02 -0.21197373640E+02  0.61634176018E+01  0.25975422863E+02  0.51100000000E-03 0.  1.
         12    1    3    3    0    0 -0.49568097088E+01 -0.88748597024E+01  0.48122267588E+01  0.11246805040E+02  0.00000000000E+00 0. -1.
</event>
<event>
 7    1  0.1466590E-008  0.4614232E+02  0.7816164E-02  0.1320468E+00
        -11   -1    0    0    0    0  0.00000000000E+00  0.00000000000E+00  0.45593999997E+02  0.45594000000E+02  0.51100000000E-03 0.  1.
         11   -1    0    0    0    0 -0.00000000000E+00 -0.00000000000E+00 -0.45593999997E+02  0.45594000000E+02  0.51100000000E-03 0. -1.
    9900012    2    1    2    0    0  0.41692963635E+02  0.16802618206E+02  0.29124526203E+01  0.46142316794E+02  0.99999911842E+01 0.  0.
         12    1    1    2    0    0 -0.41692963635E+02 -0.16802618206E+02 -0.29124526203E+01  0.45045683206E+02  0.00000000000E+00 0. -1.
         11    1    3    3    0    0  0.56530550061E+00 -0.35411505463E-01  0.12069142289E+01  0.13332165994E+01  0.51100000000E-03 0. -1.
        -11    1    3    3    0    0  0.41080516112E+01  0.35965693435E+01  0.24512890857E+00  0.54654814542E+01  0.51100000000E-03 0.  1.
         12    1    3    3    0    0  0.37019606523E+02  0.13241460368E+02  0.14604094828E+01  0.39343618741E+02  0.00000000000E+00 0. -1.
</event>
<event>
 7    1  0.1466590E-008  0.4614232E+02  0.7816164E-02  0.1320468E+00
        -11   -1    0    0    0    0  0.00000000000E+00  0.00000000000E+00  0.45593999997E+02  0.45594000000E+02  0.51100000000E-03 0. -1.
         11   -1    0    0    0    0 -0.00000000000E+00 -0.00000000000E+00 -0.45593999997E+02  0.45594000000E+02  0.51100000000E-03 0.  1.
    9900012    2    1    2    0    0  0.24470390975E+02 -0.27525176210E+02 -0.25936039543E+02  0.46142317554E+02  0.99999981099E+01 0.  0.
         12    1    1    2    0    0 -0.24470390975E+02  0.27525176210E+02  0.25936039543E+02  0.45045682446E+02  0.00000000000E+00 0. -1.
         11    1    3    3    0    0  0.31752860808E+01 -0.60535085086E+01 -0.81467202689E+01  0.10634681865E+02  0.51100000000E-03 0. -1.
        -11    1    3    3    0    0  0.19614528071E+02 -0.17011980542E+02 -0.15021717634E+02  0.29996486367E+02  0.51100000000E-03 0.  1.
         12    1    3    3    0    0  0.16805768233E+01 -0.44596871591E+01 -0.27676016398E+01  0.55111493223E+01  0.00000000000E+00 0. -1.
</event>
<event>
 7    1  0.1466590E-008  0.4614232E+02  0.7816164E-02  0.1320468E+00
        -11   -1    0    0    0    0  0.00000000000E+00  0.00000000000E+00  0.45593999997E+02  0.45594000000E+02  0.51100000000E-03 0.  1.
         11   -1    0    0    0    0 -0.00000000000E+00 -0.00000000000E+00 -0.45593999997E+02  0.45594000000E+02  0.51100000000E-03 0. -1.
    9900012    2    1    2    0    0  0.41120253204E+02 -0.65888738997E+01  0.17170468910E+02  0.46142317794E+02  0.10000000300E+02 0.  0.
         12    1    1    2    0    0 -0.41120253204E+02  0.65888738997E+01 -0.17170468910E+02  0.45045682206E+02  0.00000000000E+00 0. -1.
         11    1    3    3    0    0  0.20338959210E+01 -0.13099426369E+01  0.61612877770E-01  0.24200162680E+01  0.51100000000E-03 0. -1.
        -11    1    3    3    0    0  0.30270804462E+02 -0.73595340115E+01  0.13899803679E+02  0.34112884461E+02  0.51100000000E-03 0.  1.
        -12    1    3    3    0    0  0.88155528206E+01  0.20806027487E+01  0.32090523531E+01  0.96094170653E+01  0.00000000000E+00 0.  1.
</event>
<event>
 7    1  0.1466590E-008  0.4614232E+02  0.7816164E-02  0.1320468E+00
        -11   -1    0    0    0    0  0.00000000000E+00  0.00000000000E+00  0.45593999997E+02  0.45594000000E+02  0.51100000000E-03 0.  1.
         11   -1    0    0    0    0 -0.00000000000E+00 -0.00000000000E+00 -0.45593999997E+02  0.45594000000E+02  0.51100000000E-03 0. -1.
    9900012    2    1    2    0    0 -0.40897249567E+02 -0.77901147810E+00  0.18865884146E+02  0.46142318013E+02  0.10000002299E+02 0.  0.
         12    1    1    2    0    0  0.40897249567E+02  0.77901147810E+00 -0.18865884146E+02  0.45045681987E+02  0.00000000000E+00 0. -1.
         11    1    3    3    0    0 -0.29766039029E+00  0.11695775067E+01  0.14322754484E+01  0.18729459344E+01  0.51100000000E-03 0. -1.
        -11    1    3    3    0    0 -0.29136404117E+02 -0.16248480287E+01  0.11595113741E+02  0.31400905065E+02  0.51100000000E-03 0.  1.
        -12    1    3    3    0    0 -0.11463185060E+02 -0.32374095611E+00  0.58384949562E+01  0.12868467014E+02  0.00000000000E+00 0.  1.
</event>
<event>
 7    1  0.1466590E-008  0.4614232E+02  0.7816164E-02  0.1320468E+00
        -11   -1    0    0    0    0  0.00000000000E+00  0.00000000000E+00  0.45593999997E+02  0.45594000000E+02  0.51100000000E-03 0.  1.
         11   -1    0    0    0    0 -0.00000000000E+00 -0.00000000000E+00 -0.45593999997E+02  0.45594000000E+02  0.51100000000E-03 0. -1.
    9900012    2    1    2    0    0 -0.37894456101E+02 -0.23273852520E+02  0.71729810660E+01  0.46142315726E+02  0.99999814452E+01 0.  0.
         12    1    1    2    0    0  0.37894456101E+02  0.23273852520E+02 -0.71729810660E+01  0.45045684274E+02  0.00000000000E+00 0. -1.
         11    1    3    3    0    0  0.16189715389E+00  0.24467223241E+00  0.52605412929E+00  0.60233578493E+00  0.51100000000E-03 0. -1.
        -11    1    3    3    0    0 -0.26516641135E+02 -0.19109688862E+02  0.43166509117E+01  0.32968863203E+02  0.51100000000E-03 0.  1.
        -12    1    3    3    0    0 -0.11539712120E+02 -0.44088358898E+01  0.23302760250E+01  0.12571116739E+02  0.00000000000E+00 0.  1.
</event>
<event>
 7    1  0.1466590E-008  0.4614232E+02  0.7816164E-02  0.1320468E+00
        -11   -1    0    0    0    0  0.00000000000E+00  0.00000000000E+00  0.45593999997E+02  0.45594000000E+02  0.51100000000E-03 0. -1.
         11   -1    0    0    0    0 -0.00000000000E+00 -0.00000000000E+00 -0.45593999997E+02  0.45594000000E+02  0.51100000000E-03 0.  1.
    9900012    2    1    2    0    0 -0.34077593406E+02 -0.18546939731E+02  0.22887598031E+02  0.46142317750E+02  0.99999998983E+01 0.  0.
         12    1    1    2    0    0  0.34077593406E+02  0.18546939731E+02 -0.22887598031E+02  0.45045682250E+02  0.00000000000E+00 0. -1.
         11    1    3    3    0    0 -0.40893708316E+01 -0.58052591716E+01  0.18510799657E+01  0.73382889796E+01  0.51100000000E-03 0. -1.
        -11    1    3    3    0    0 -0.27102148211E+02 -0.11571533192E+02  0.18578343712E+02  0.34836499156E+02  0.51100000000E-03 0.  1.
         12    1    3    3    0    0 -0.28860743634E+01 -0.11701473670E+01  0.24581743535E+01  0.39675296148E+01  0.00000000000E+00 0. -1.
</event>
<event>
 7    1  0.1466590E-008  0.4614231E+02  0.7816164E-02  0.1320468E+00
        -11   -1    0    0    0    0  0.00000000000E+00  0.00000000000E+00  0.45593999997E+02  0.45594000000E+02  0.51100000000E-03 0.  1.
         11   -1    0    0    0    0 -0.00000000000E+00 -0.00000000000E+00 -0.45593999997E+02  0.45594000000E+02  0.51100000000E-03 0. -1.
    9900012    2    1    2    0    0 -0.29849850035E+02 -0.24728909634E+02  0.22947372631E+02  0.46142307315E+02  0.99999047429E+01 0.  0.
         12    1    1    2    0    0  0.29849850035E+02  0.24728909634E+02 -0.22947372631E+02  0.45045692685E+02  0.00000000000E+00 0. -1.
         11    1    3    3    0    0 -0.15122714044E+02 -0.94724608137E+01  0.13190589535E+02  0.22190440430E+02  0.51100000000E-03 0. -1.
        -11    1    3    3    0    0 -0.14399837580E+02 -0.15700324672E+02  0.96610452156E+01  0.23392120725E+02  0.51100000000E-03 0.  1.
         12    1    3    3    0    0 -0.32729841203E+00  0.44387585132E+00  0.95737880325E-01  0.55974616000E+00  0.00000000000E+00 0. -1.
</event>
<event>
 7    1  0.1466590E-008  0.4614232E+02  0.7816164E-02  0.1320468E+00
        -11   -1    0    0    0    0  0.00000000000E+00  0.00000000000E+00  0.45593999997E+02  0.45594000000E+02  0.51100000000E-03 0. -1.
         11   -1    0    0    0    0 -0.00000000000E+00 -0.00000000000E+00 -0.45593999997E+02  0.45594000000E+02  0.51100000000E-03 0.  1.
    9900012    2    1    2    0    0  0.31749395483E+00 -0.19991856897E+02 -0.40365063363E+02  0.46142317800E+02  0.10000000350E+02 0.  0.
         12    1    1    2    0    0 -0.31749395483E+00  0.19991856897E+02  0.40365063363E+02  0.45045682200E+02  0.00000000000E+00 0. -1.
         11    1    3    3    0    0 -0.34154758817E+01 -0.60420364785E+01 -0.13618887753E+02  0.15285476250E+02  0.51100000000E-03 0. -1.
        -11    1    3    3    0    0  0.47709214337E+01 -0.78901736924E+01 -0.15278380845E+02  0.17845040031E+02  0.51100000000E-03 0.  1.
        -12    1    3    3    0    0 -0.10379515972E+01 -0.60596467265E+01 -0.11467794765E+02  0.13011801518E+02  0.00000000000E+00 0.  1.
</event>
<event>
 7    1  0.1466590E-008  0.4614232E+02  0.7816164E-02  0.1320468E+00
        -11   -1    0    0    0    0  0.00000000000E+00  0.00000000000E+00  0.45593999997E+02  0.45594000000E+02  0.51100000000E-03 0.  1.
         11   -1    0    0    0    0 -0.00000000000E+00 -0.00000000000E+00 -0.45593999997E+02  0.45594000000E+02  0.51100000000E-03 0. -1.
    9900012    2    1    2    0    0 -0.28137467988E+01 -0.22169972943E+02  0.39111235028E+02  0.46142316780E+02  0.99999910537E+01 0.  0.
         12    1    1    2    0    0  0.28137467988E+01  0.22169972943E+02 -0.39111235028E+02  0.45045683220E+02  0.00000000000E+00 0. -1.
         11    1    3    3    0    0 -0.69525044578E+00 -0.22497096497E+01  0.10065521772E+01  0.25608034358E+01  0.51100000000E-03 0. -1.
        -11    1    3    3    0    0 -0.20294250742E+01 -0.91370190059E+01  0.11198841450E+02  0.14595127013E+02  0.51100000000E-03 0.  1.
         12    1    3    3    0    0 -0.89071278814E-01 -0.10783244287E+02  0.26905841401E+02  0.28986386331E+02  0.00000000000E+00 0. -1.
</event>
<event>
 7    1  0.1466590E-008  0.4614232E+02  0.7816164E-02  0.1320468E+00
        -11   -1    0    0    0    0  0.00000000000E+00  0.00000000000E+00  0.45593999997E+02  0.45594000000E+02  0.51100000000E-03 0.  1.
         11   -1    0    0    0    0 -0.00000000000E+00 -0.00000000000E+00 -0.45593999997E+02  0.45594000000E+02  0.51100000000E-03 0. -1.
    9900012    2    1    2    0    0 -0.98989665065E+01  0.33030728308E+02  0.28984391453E+02  0.46142317650E+02  0.99999989864E+01 0.  0.
         12    1    1    2    0    0  0.98989665065E+01 -0.33030728308E+02 -0.28984391453E+02  0.45045682350E+02  0.00000000000E+00 0. -1.
         11    1    3    3    0    0 -0.69089566216E+01  0.13550836736E+02  0.92571719809E+01  0.17806012782E+02  0.51100000000E-03 0. -1.
        -11    1    3    3    0    0 -0.41132195606E+01  0.17154083792E+02  0.16095659992E+02  0.23879937955E+02  0.51100000000E-03 0.  1.
         12    1    3    3    0    0  0.11232096757E+01  0.23258077809E+01  0.36315594800E+01  0.44563669133E+01  0.00000000000E+00 0. -1.
</event>
<event>
 7    1  0.1466590E-008  0.4614232E+02  0.7816164E-02  0.1320468E+00
        -11   -1    0    0    0    0  0.00000000000E+00  0.00000000000E+00  0.45593999997E+02  0.45594000000E+02  0.51100000000E-03 0.  1.
         11   -1    0    0    0    0 -0.00000000000E+00 -0.00000000000E+00 -0.45593999997E+02  0.45594000000E+02  0.51100000000E-03 0. -1.
    9900012    2    1    2    0    0 -0.17367881741E+02 -0.37929319781E+02  0.16995201303E+02  0.46142317826E+02  0.10000000593E+02 0.  0.
         12    1    1    2    0    0  0.17367881741E+02  0.37929319781E+02 -0.16995201303E+02  0.45045682174E+02  0.00000000000E+00 0. -1.
         11    1    3    3    0    0 -0.19302354461E+01 -0.12988282853E+02  0.44186684858E+01  0.13854455305E+02  0.51100000000E-03 0. -1.
        -11    1    3    3    0    0 -0.70759529959E+01 -0.13469707302E+02  0.88884140474E+01  0.17621181293E+02  0.51100000000E-03 0.  1.
         12    1    3    3    0    0 -0.83616932993E+01 -0.11471329625E+02  0.36881187694E+01  0.14666681228E+02  0.00000000000E+00 0. -1.
</event>
<event>
 7    1  0.1466590E-008  0.4614232E+02  0.7816164E-02  0.1320468E+00
        -11   -1    0    0    0    0  0.00000000000E+00  0.00000000000E+00  0.45593999997E+02  0.45594000000E+02  0.51100000000E-03 0. -1.
         11   -1    0    0    0    0 -0.00000000000E+00 -0.00000000000E+00 -0.45593999997E+02  0.45594000000E+02  0.51100000000E-03 0.  1.
    9900012    2    1    2    0    0 -0.25836556766E+02 -0.15054808660E+02 -0.33688848145E+02  0.46142318535E+02  0.10000007059E+02 0.  0.
         12    1    1    2    0    0  0.25836556766E+02  0.15054808660E+02  0.33688848145E+02  0.45045681465E+02  0.00000000000E+00 0. -1.
         11    1    3    3    0    0 -0.11273860922E+01  0.22318297345E+00 -0.17194940578E+01  0.20682045635E+01  0.51100000000E-03 0. -1.
        -11    1    3    3    0    0 -0.21704717140E+02 -0.14370908418E+02 -0.23603326205E+02  0.35138792852E+02  0.51100000000E-03 0.  1.
        -12    1    3    3    0    0 -0.30044535337E+01 -0.90708321580E+00 -0.83660278814E+01  0.89353211195E+01  0.00000000000E+00 0.  1.
</event>
<event>
 7    1  0.1466590E-008  0.4614232E+02  0.7816164E-02  0.1320468E+00
        -11   -1    0    0    0    0  0.00000000000E+00  0.00000000000E+00  0.45593999997E+02  0.45594000000E+02  0.51100000000E-03 0.  1.
         11   -1    0    0    0    0 -0.00000000000E+00 -0.00000000000E+00 -0.45593999997E+02  0.45594000000E+02  0.51100000000E-03 0. -1.
    9900012    2    1    2    0    0  0.14326241785E+02 -0.23518389004E+02  0.35647688492E+02  0.46142317412E+02  0.99999968151E+01 0.  0.
         12    1    1    2    0    0 -0.14326241785E+02  0.23518389004E+02 -0.35647688492E+02  0.45045682588E+02  0.00000000000E+00 0. -1.
         11    1    3    3    0    0  0.98120194008E+00  0.93000106139E+00  0.15584736852E+01  0.20631286218E+01  0.51100000000E-03 0. -1.
        -11    1    3    3    0    0  0.12294954427E+02 -0.23395948279E+02  0.31798151459E+02  0.41348019744E+02  0.51100000000E-03 0.  1.
         12    1    3    3    0    0  0.10500854180E+01 -0.10524417866E+01  0.22910633472E+01  0.27311690464E+01  0.00000000000E+00 0. -1.
</event>
<event>
 7    1  0.1466590E-008  0.4614232E+02  0.7816164E-02  0.1320468E+00
        -11   -1    0    0    0    0  0.00000000000E+00  0.00000000000E+00  0.45593999997E+02  0.45594000000E+02  0.51100000000E-03 0. -1.
         11   -1    0    0    0    0 -0.00000000000E+00 -0.00000000000E+00 -0.45593999997E+02  0.45594000000E+02  0.51100000000E-03 0.  1.
    9900012    2    1    2    0    0 -0.43451334558E+02 -0.11861692422E+02 -0.62884820365E+00  0.46142315722E+02  0.99999814044E+01 0.  0.
         12    1    1    2    0    0  0.43451334558E+02  0.11861692422E+02  0.62884820365E+00  0.45045684278E+02  0.00000000000E+00 0. -1.
         11    1    3    3    0    0 -0.14977687520E+02 -0.28129517656E+01  0.26424066108E+01  0.15466936802E+02  0.51100000000E-03 0. -1.
        -11    1    3    3    0    0 -0.40244538452E+01 -0.33120623001E+01 -0.18183936009E+01  0.55201939260E+01  0.51100000000E-03 0.  1.
        -12    1    3    3    0    0 -0.24449193193E+02 -0.57366783564E+01 -0.14528612136E+01  0.25155184994E+02  0.00000000000E+00 0.  1.
</event>
<event>
 7    1  0.1466590E-008  0.4614232E+02  0.7816164E-02  0.1320468E+00
        -11   -1    0    0    0    0  0.00000000000E+00  0.00000000000E+00  0.45593999997E+02  0.45594000000E+02  0.51100000000E-03 0.  1.
         11   -1    0    0    0    0 -0.00000000000E+00 -0.00000000000E+00 -0.45593999997E+02  0.45594000000E+02  0.51100000000E-03 0. -1.
    9900012    2    1    2    0    0  0.24745460675E+02  0.16591701029E-01  0.37640074538E+02  0.46142319735E+02  0.10000017998E+02 0.  0.
         12    1    1    2    0    0 -0.24745460675E+02 -0.16591701029E-01 -0.37640074538E+02  0.45045680265E+02  0.00000000000E+00 0. -1.
         11    1    3    3    0    0 -0.31308776639E+00 -0.38356531231E+00 -0.12066055104E+00  0.50961311597E+00  0.51100000000E-03 0. -1.
        -11    1    3    3    0    0  0.13475700530E+02 -0.64001983794E+00  0.15745614812E+02  0.20734717655E+02  0.51100000000E-03 0.  1.
         12    1    3    3    0    0  0.11582847911E+02  0.10401768513E+01  0.22015120277E+02  0.24897988964E+02  0.00000000000E+00 0. -1.
</event>
<event>
 7    1  0.1466590E-008  0.4614232E+02  0.7816164E-02  0.1320468E+00
        -11   -1    0    0    0    0  0.00000000000E+00  0.00000000000E+00  0.45593999997E+02  0.45594000000E+02  0.51100000000E-03 0.  1.
         11   -1    0    0    0    0 -0.00000000000E+00 -0.00000000000E+00 -0.45593999997E+02  0.45594000000E+02  0.51100000000E-03 0. -1.
    9900012    2    1    2    0    0 -0.32149520310E+02  0.26396087318E+02  0.17284916912E+02  0.46142318359E+02  0.10000005447E+02 0.  0.
         12    1    1    2    0    0  0.32149520310E+02 -0.26396087318E+02 -0.17284916912E+02  0.45045681641E+02  0.00000000000E+00 0. -1.
         11    1    3    3    0    0 -0.28599078078E+02  0.21198979686E+02  0.11827062781E+02  0.37512443548E+02  0.51100000000E-03 0. -1.
        -11    1    3    3    0    0 -0.16501767621E+01  0.40319631178E+01  0.42866217795E+01  0.61118684926E+01  0.51100000000E-03 0.  1.
        -12    1    3    3    0    0 -0.19002654707E+01  0.11651445140E+01  0.11712323513E+01  0.25180063182E+01  0.00000000000E+00 0.  1.
</event>
<event>
 7    1  0.1466590E-008  0.4614232E+02  0.7816164E-02  0.1320468E+00
        -11   -1    0    0    0    0  0.00000000000E+00  0.00000000000E+00  0.45593999997E+02  0.45594000000E+02  0.51100000000E-03 0.  1.
         11   -1    0    0    0    0 -0.00000000000E+00 -0.00000000000E+00 -0.45593999997E+02  0.45594000000E+02  0.51100000000E-03 0. -1.
    9900012    2    1    2    0    0 -0.32260877138E+02  0.11193995989E+02  0.29377606478E+02  0.46142317606E+02  0.99999985888E+01 0.  0.
         12    1    1    2    0    0  0.32260877138E+02 -0.11193995989E+02 -0.29377606478E+02  0.45045682394E+02  0.00000000000E+00 0. -1.
         11    1    3    3    0    0 -0.21189329151E+02  0.42005312470E+01  0.19882688899E+02  0.29359043764E+02  0.51100000000E-03 0. -1.
        -11    1    3    3    0    0 -0.97753140795E+01  0.44108837614E+01  0.61484832419E+01  0.12361897401E+02  0.51100000000E-03 0.  1.
        -12    1    3    3    0    0 -0.12962339077E+01  0.25825809804E+01  0.33464343375E+01  0.44213764416E+01  0.00000000000E+00 0.  1.
</event>
<event>
 7    1  0.1466590E-008  0.4614232E+02  0.7816164E-02  0.1320468E+00
        -11   -1    0    0    0    0  0.00000000000E+00  0.00000000000E+00  0.45593999997E+02  0.45594000000E+02  0.51100000000E-03 0. -1.
         11   -1    0    0    0    0 -0.00000000000E+00 -0.00000000000E+00 -0.45593999997E+02  0.45594000000E+02  0.51100000000E-03 0.  1.
    9900012    2    1    2    0    0  0.36833809342E+02 -0.21376999171E+02  0.14676782316E+02  0.46142317150E+02  0.99999944306E+01 0.  0.
         12    1    1    2    0    0 -0.36833809342E+02  0.21376999171E+02 -0.14676782316E+02  0.45045682850E+02  0.00000000000E+00 0. -1.
         11    1    3    3    0    0  0.37797423240E+01 -0.21860701029E+01  0.22828131377E+01  0.49271280289E+01  0.51100000000E-03 0. -1.
        -11    1    3    3    0    0  0.28853132019E+02 -0.15627430847E+02  0.13692184484E+02  0.35555530349E+02  0.51100000000E-03 0.  1.
        -12    1    3    3    0    0  0.42009349992E+01 -0.35634982214E+01 -0.12982153055E+01  0.56596587725E+01  0.00000000000E+00 0.  1.
</event>
<event>
 7    1  0.1466590E-008  0.4614232E+02  0.7816164E-02  0.1320468E+00
        -11   -1    0    0    0    0  0.00000000000E+00  0.00000000000E+00  0.45593999997E+02  0.45594000000E+02  0.51100000000E-03 0. -1.
         11   -1    0    0    0    0 -0.00000000000E+00 -0.00000000000E+00 -0.45593999997E+02  0.45594000000E+02  0.51100000000E-03 0.  1.
    9900012    2    1    2    0    0 -0.17533113880E+02 -0.39614627657E+02  0.12344409851E+02  0.46142320282E+02  0.10000022983E+02 0.  0.
         12    1    1    2    0    0  0.17533113880E+02  0.39614627657E+02 -0.12344409851E+02  0.45045679718E+02  0.00000000000E+00 0. -1.
         11    1    3    3    0    0 -0.89441931466E+01 -0.12039604274E+02  0.60712124528E+01  0.16180552618E+02  0.51100000000E-03 0. -1.
        -11    1    3    3    0    0 -0.89841794838E+01 -0.25287065564E+02  0.49468049224E+01  0.27287763650E+02  0.51100000000E-03 0.  1.
         12    1    3    3    0    0  0.39525875078E+00 -0.22879578199E+01  0.13263924759E+01  0.26740040138E+01  0.00000000000E+00 0. -1.
</event>
<event>
 7    1  0.1466590E-008  0.4614232E+02  0.7816164E-02  0.1320468E+00
        -11   -1    0    0    0    0  0.00000000000E+00  0.00000000000E+00  0.45593999997E+02  0.45594000000E+02  0.51100000000E-03 0.  1.
         11   -1    0    0    0    0 -0.00000000000E+00 -0.00000000000E+00 -0.45593999997E+02  0.45594000000E+02  0.51100000000E-03 0. -1.
    9900012    2    1    2    0    0 -0.27859125906E+02  0.12561717709E+02  0.33093591800E+02  0.46142318006E+02  0.10000002234E+02 0.  0.
         12    1    1    2    0    0  0.27859125906E+02 -0.12561717709E+02 -0.33093591800E+02  0.45045681994E+02  0.00000000000E+00 0. -1.
         11    1    3    3    0    0 -0.89108891323E+01  0.28867336295E+01  0.89949342328E+01  0.12986378182E+02  0.51100000000E-03 0. -1.
        -11    1    3    3    0    0 -0.12803045265E+02  0.62080905313E+01  0.10003174618E+02  0.17393155516E+02  0.51100000000E-03 0.  1.
        -12    1    3    3    0    0 -0.61451915082E+01  0.34668935485E+01  0.14095482950E+02  0.15762784308E+02  0.00000000000E+00 0.  1.
</event>
<event>
 7    1  0.1466590E-008  0.4614232E+02  0.7816164E-02  0.1320468E+00
        -11   -1    0    0    0    0  0.00000000000E+00  0.00000000000E+00  0.45593999997E+02  0.45594000000E+02  0.51100000000E-03 0.  1.
         11   -1    0    0    0    0 -0.00000000000E+00 -0.00000000000E+00 -0.45593999997E+02  0.45594000000E+02  0.51100000000E-03 0. -1.
    9900012    2    1    2    0    0  0.33816992542E+02 -0.21051660331E+02 -0.21032166533E+02  0.46142318560E+02  0.10000007288E+02 0.  0.
         12    1    1    2    0    0 -0.33816992542E+02  0.21051660331E+02  0.21032166533E+02  0.45045681440E+02  0.00000000000E+00 0. -1.
         11    1    3    3    0    0  0.15998076065E+02 -0.10924106683E+02 -0.65233690018E+01  0.20440863191E+02  0.51100000000E-03 0. -1.
        -11    1    3    3    0    0  0.17381599532E+02 -0.83386496501E+01 -0.12499387990E+02  0.22975808597E+02  0.51100000000E-03 0.  1.
         12    1    3    3    0    0  0.43731694509E+00 -0.17889039982E+01 -0.20094095414E+01  0.27256467728E+01  0.00000000000E+00 0. -1.
</event>
<event>
 7    1  0.1466590E-008  0.4614232E+02  0.7816164E-02  0.1320468E+00
        -11   -1    0    0    0    0  0.00000000000E+00  0.00000000000E+00  0.45593999997E+02  0.45594000000E+02  0.51100000000E-03 0. -1.
         11   -1    0    0    0    0 -0.00000000000E+00 -0.00000000000E+00 -0.45593999997E+02  0.45594000000E+02  0.51100000000E-03 0.  1.
    9900012    2    1    2    0    0  0.18126247631E+01 -0.28395315913E+02 -0.34921824741E+02  0.46142318547E+02  0.10000007164E+02 0.  0.
         12    1    1    2    0    0 -0.18126247631E+01  0.28395315913E+02  0.34921824741E+02  0.45045681453E+02  0.00000000000E+00 0. -1.
         11    1    3    3    0    0  0.20905832818E+01 -0.12699313383E+02 -0.12352416329E+02  0.17838870151E+02  0.51100000000E-03 0. -1.
        -11    1    3    3    0    0  0.39268994496E+00 -0.57683439700E+01 -0.34049406162E+01  0.67098150802E+01  0.51100000000E-03 0.  1.
         12    1    3    3    0    0 -0.67064846367E+00 -0.99276585609E+01 -0.19164467796E+02  0.21593633315E+02  0.00000000000E+00 0. -1.
</event>
<event>
 7    1  0.1466590E-008  0.4614232E+02  0.7816164E-02  0.1320468E+00
        -11   -1    0    0    0    0  0.00000000000E+00  0.00000000000E+00  0.45593999997E+02  0.45594000000E+02  0.51100000000E-03 0.  1.
         11   -1    0    0    0    0 -0.00000000000E+00 -0.00000000000E+00 -0.45593999997E+02  0.45594000000E+02  0.51100000000E-03 0. -1.
    9900012    2    1    2    0    0  0.14814656771E+02 -0.66928570192E+01  0.42010059694E+02  0.46142317567E+02  0.99999982323E+01 0.  0.
         12    1    1    2    0    0 -0.14814656771E+02  0.66928570192E+01 -0.42010059694E+02  0.45045682433E+02  0.00000000000E+00 0. -1.
         11    1    3    3    0    0  0.95290724460E+01 -0.33725912464E+01  0.17382369868E+02  0.20107818775E+02  0.51100000000E-03 0.  1.
        -11    1    3    3    0    0  0.10544879358E+01  0.12617853182E+00  0.14425168945E+02  0.14464209802E+02  0.51100000000E-03 0. -1.
        -12    1    3    3    0    0  0.42310963895E+01 -0.34464443047E+01  0.10202520881E+02  0.11570288991E+02  0.00000000000E+00 0.  1.
</event>
<event>
 7    1  0.1466590E-008  0.4614232E+02  0.7816164E-02  0.1320468E+00
        -11   -1    0    0    0    0  0.00000000000E+00  0.00000000000E+00  0.45593999997E+02  0.45594000000E+02  0.51100000000E-03 0.  1.
         11   -1    0    0    0    0 -0.00000000000E+00 -0.00000000000E+00 -0.45593999997E+02  0.45594000000E+02  0.51100000000E-03 0. -1.
    9900012    2    1    2    0    0  0.43367607159E+02  0.10287626148E+02  0.65214193853E+01  0.46142317485E+02  0.99999974827E+01 0.  0.
         12    1    1    2    0    0 -0.43367607159E+02 -0.10287626148E+02 -0.65214193853E+01  0.45045682515E+02  0.00000000000E+00 0. -1.
         11    1    3    3    0    0  0.25127672460E+02  0.47362771907E+01  0.17092941295E+01  0.25627210764E+02  0.51100000000E-03 0. -1.
        -11    1    3    3    0    0  0.18045834541E+02  0.52457717590E+01  0.34515029892E+01  0.19107148892E+02  0.51100000000E-03 0.  1.
         12    1    3    3    0    0  0.19410015784E+00  0.30557719812E+00  0.13606222666E+01  0.14079578288E+01  0.00000000000E+00 0. -1.
</event>
<event>
 7    1  0.1466590E-008  0.4614232E+02  0.7816164E-02  0.1320468E+00
        -11   -1    0    0    0    0  0.00000000000E+00  0.00000000000E+00  0.45593999997E+02  0.45594000000E+02  0.51100000000E-03 0. -1.
         11   -1    0    0    0    0 -0.00000000000E+00 -0.00000000000E+00 -0.45593999997E+02  0.45594000000E+02  0.51100000000E-03 0.  1.
    9900012    2    1    2    0    0  0.29669247101E+02  0.22769512701E+02 -0.25107736689E+02  0.46142319032E+02  0.10000011593E+02 0.  0.
         12    1    1    2    0    0 -0.29669247101E+02 -0.22769512701E+02  0.25107736689E+02  0.45045680968E+02  0.00000000000E+00 0. -1.
         11    1    3    3    0    0  0.65318422101E+01  0.47765433494E+01 -0.34470745984E+01  0.87956041620E+01  0.51100000000E-03 0. -1.
        -11    1    3    3    0    0  0.36192402224E+01  0.50686577285E+01 -0.13916907715E+01  0.63817704770E+01  0.51100000000E-03 0.  1.
         12    1    3    3    0    0  0.19518164669E+02  0.12924311623E+02 -0.20268971319E+02  0.30964944393E+02  0.00000000000E+00 0. -1.
</event>
<event>
 7    1  0.1466590E-008  0.4614232E+02  0.7816164E-02  0.1320468E+00
        -11   -1    0    0    0    0  0.00000000000E+00  0.00000000000E+00  0.45593999997E+02  0.45594000000E+02  0.51100000000E-03 0.  1.
         11   -1    0    0    0    0 -0.00000000000E+00 -0.00000000000E+00 -0.45593999997E+02  0.45594000000E+02  0.51100000000E-03 0. -1.
    9900012    2    1    2    0    0 -0.26079582583E+02  0.14177155242E+02  0.33881812427E+02  0.46142316835E+02  0.99999915532E+01 0.  0.
         12    1    1    2    0    0  0.26079582583E+02 -0.14177155242E+02 -0.33881812427E+02  0.45045683165E+02  0.00000000000E+00 0. -1.
         11    1    3    3    0    0 -0.51299958097E+01 -0.29984828029E+00  0.55574582676E+01  0.75691550821E+01  0.51100000000E-03 0. -1.
        -11    1    3    3    0    0 -0.18736810508E+02  0.13163507822E+02  0.27673411610E+02  0.35918849043E+02  0.51100000000E-03 0.  1.
        -12    1    3    3    0    0 -0.22127762655E+01  0.13134957009E+01  0.65094254921E+00  0.26543127094E+01  0.00000000000E+00 0.  1.
</event>
<event>
 7    1  0.1466590E-008  0.4614232E+02  0.7816164E-02  0.1320468E+00
        -11   -1    0    0    0    0  0.00000000000E+00  0.00000000000E+00  0.45593999997E+02  0.45594000000E+02  0.51100000000E-03 0.  1.
         11   -1    0    0    0    0 -0.00000000000E+00 -0.00000000000E+00 -0.45593999997E+02  0.45594000000E+02  0.51100000000E-03 0. -1.
    9900012    2    1    2    0    0  0.50644245148E+01  0.25304244668E+02  0.36921001745E+02  0.46142316924E+02  0.99999923689E+01 0.  0.
         12    1    1    2    0    0 -0.50644245148E+01 -0.25304244668E+02 -0.36921001745E+02  0.45045683076E+02  0.00000000000E+00 0. -1.
         11    1    3    3    0    0  0.32754851266E+01  0.17239741850E+02  0.16805139378E+02  0.24297123526E+02  0.51100000000E-03 0. -1.
        -11    1    3    3    0    0  0.95699912088E+00  0.67139194589E+01  0.17703650351E+02  0.18958159136E+02  0.51100000000E-03 0.  1.
         12    1    3    3    0    0  0.83194026731E+00  0.13505833587E+01  0.24122120167E+01  0.28870342621E+01  0.00000000000E+00 0. -1.
</event>
<event>
 7    1  0.1466590E-008  0.4614232E+02  0.7816164E-02  0.1320468E+00
        -11   -1    0    0    0    0  0.00000000000E+00  0.00000000000E+00  0.45593999997E+02  0.45594000000E+02  0.51100000000E-03 0.  1.
         11   -1    0    0    0    0 -0.00000000000E+00 -0.00000000000E+00 -0.45593999997E+02  0.45594000000E+02  0.51100000000E-03 0. -1.
    9900012    2    1    2    0    0  0.27166957314E+02 -0.99116547731E+01  0.34537357084E+02  0.46142317583E+02  0.99999983802E+01 0.  0.
         12    1    1    2    0    0 -0.27166957314E+02  0.99116547731E+01 -0.34537357084E+02  0.45045682417E+02  0.00000000000E+00 0. -1.
         11    1    3    3    0    0  0.17443132995E+01 -0.64347801381E+00 -0.33117170826E+00  0.18884829368E+01  0.51100000000E-03 0. -1.
        -11    1    3    3    0    0  0.15750613798E+02 -0.48672279089E+01  0.18986018600E+02  0.25144395898E+02  0.51100000000E-03 0.  1.
         12    1    3    3    0    0  0.96720302160E+01 -0.44009488504E+01  0.15882510192E+02  0.19109438748E+02  0.00000000000E+00 0. -1.
</event>
<event>
 7    1  0.1466590E-008  0.4614232E+02  0.7816164E-02  0.1320468E+00
        -11   -1    0    0    0    0  0.00000000000E+00  0.00000000000E+00  0.45593999997E+02  0.45594000000E+02  0.51100000000E-03 0. -1.
         11   -1    0    0    0    0 -0.00000000000E+00 -0.00000000000E+00 -0.45593999997E+02  0.45594000000E+02  0.51100000000E-03 0.  1.
    9900012    2    1    2    0    0 -0.37060107559E+02  0.44295896617E+01 -0.25219846934E+02  0.46142317452E+02  0.99999971772E+01 0.  0.
         12    1    1    2    0    0  0.37060107559E+02 -0.44295896617E+01  0.25219846934E+02  0.45045682548E+02  0.00000000000E+00 0. -1.
         11    1    3    3    0    0 -0.12786985062E+02  0.52560979656E+01 -0.71180906894E+01  0.15549944313E+02  0.51100000000E-03 0. -1.
        -11    1    3    3    0    0 -0.42263253015E+01  0.16708173000E+00 -0.53208496036E+01  0.67971451819E+01  0.51100000000E-03 0.  1.
         12    1    3    3    0    0 -0.20046797195E+02 -0.99359003386E+00 -0.12780906641E+02  0.23795227957E+02  0.00000000000E+00 0. -1.
</event>
<event>
 7    1  0.1466590E-008  0.4614232E+02  0.7816164E-02  0.1320468E+00
        -11   -1    0    0    0    0  0.00000000000E+00  0.00000000000E+00  0.45593999997E+02  0.45594000000E+02  0.51100000000E-03 0.  1.
         11   -1    0    0    0    0 -0.00000000000E+00 -0.00000000000E+00 -0.45593999997E+02  0.45594000000E+02  0.51100000000E-03 0. -1.
    9900012    2    1    2    0    0  0.24911746706E+02 -0.32516420082E+02  0.18740352157E+02  0.46142317656E+02  0.99999990398E+01 0.  0.
         12    1    1    2    0    0 -0.24911746706E+02  0.32516420082E+02 -0.18740352157E+02  0.45045682344E+02  0.00000000000E+00 0. -1.
         11    1    3    3    0    0  0.59089658222E+01 -0.32752335104E+01  0.49036640551E+01  0.83479909596E+01  0.51100000000E-03 0. -1.
        -11    1    3    3    0    0  0.81710219187E+01 -0.11290888767E+02  0.78271949749E+01  0.15984828738E+02  0.51100000000E-03 0.  1.
         12    1    3    3    0    0  0.10831758965E+02 -0.17950297804E+02  0.60094931271E+01  0.21809497958E+02  0.00000000000E+00 0. -1.
</event>
<event>
 7    1  0.1466590E-008  0.4614232E+02  0.7816164E-02  0.1320468E+00
        -11   -1    0    0    0    0  0.00000000000E+00  0.00000000000E+00  0.45593999997E+02  0.45594000000E+02  0.51100000000E-03 0.  1.
         11   -1    0    0    0    0 -0.00000000000E+00 -0.00000000000E+00 -0.45593999997E+02  0.45594000000E+02  0.51100000000E-03 0. -1.
    9900012    2    1    2    0    0  0.56759893600E+01 -0.36733025425E+02  0.25447622295E+02  0.46142317714E+02  0.99999995729E+01 0.  0.
         12    1    1    2    0    0 -0.56759893600E+01  0.36733025425E+02 -0.25447622295E+02  0.45045682286E+02  0.00000000000E+00 0. -1.
         11    1    3    3    0    0  0.33597783350E+01 -0.16126697542E+02  0.80728471832E+01  0.18344736193E+02  0.51100000000E-03 0. -1.
        -11    1    3    3    0    0  0.11040742593E+01 -0.17594184930E+02  0.11388416834E+02  0.20987385772E+02  0.51100000000E-03 0.  1.
         12    1    3    3    0    0  0.12121367657E+01 -0.30121429534E+01  0.59863582779E+01  0.68101957492E+01  0.00000000000E+00 0. -1.
</event>
<event>
 7    1  0.1466590E-008  0.4614232E+02  0.7816164E-02  0.1320468E+00
        -11   -1    0    0    0    0  0.00000000000E+00  0.00000000000E+00  0.45593999997E+02  0.45594000000E+02  0.51100000000E-03 0. -1.
         11   -1    0    0    0    0 -0.00000000000E+00 -0.00000000000E+00 -0.45593999997E+02  0.45594000000E+02  0.51100000000E-03 0.  1.
    9900012    2    1    2    0    0  0.21693217902E+02 -0.33545850320E+02 -0.20813298333E+02  0.46142321360E+02  0.10000032815E+02 0.  0.
         12    1    1    2    0    0 -0.21693217902E+02  0.33545850320E+02  0.20813298333E+02  0.45045678640E+02  0.00000000000E+00 0. -1.
         11    1    3    3    0    0  0.14763447044E+01 -0.21693846133E+01 -0.45074800236E+01  0.52156686734E+01  0.51100000000E-03 0. -1.
        -11    1    3    3    0    0  0.16267062987E+02 -0.27637890259E+02 -0.13357852486E+02  0.34740502868E+02  0.51100000000E-03 0.  1.
        -12    1    3    3    0    0  0.39498102114E+01 -0.37385754476E+01 -0.29479658237E+01  0.61861498188E+01  0.00000000000E+00 0.  1.
</event>
<event>
 7    1  0.1466590E-008  0.4614232E+02  0.7816164E-02  0.1320468E+00
        -11   -1    0    0    0    0  0.00000000000E+00  0.00000000000E+00  0.45593999997E+02  0.45594000000E+02  0.51100000000E-03 0.  1.
         11   -1    0    0    0    0 -0.00000000000E+00 -0.00000000000E+00 -0.45593999997E+02  0.45594000000E+02  0.51100000000E-03 0. -1.
    9900012    2    1    2    0    0  0.33063318092E+02 -0.30233674631E+02  0.46749646357E+01  0.46142318971E+02  0.10000011036E+02 0.  0.
         12    1    1    2    0    0 -0.33063318092E+02  0.30233674631E+02 -0.46749646357E+01  0.45045681029E+02  0.00000000000E+00 0. -1.
         11    1    3    3    0    0  0.24792568402E+01 -0.79476203258E+00  0.18605844338E+01  0.32000212287E+01  0.51100000000E-03 0. -1.
        -11    1    3    3    0    0  0.20563727525E+02 -0.20876622504E+02  0.45270223696E+01  0.29651208890E+02  0.51100000000E-03 0.  1.
         12    1    3    3    0    0  0.10020333727E+02 -0.85622900952E+01 -0.17126421678E+01  0.13291088852E+02  0.00000000000E+00 0. -1.
</event>
<event>
 7    1  0.1466590E-008  0.4614232E+02  0.7816164E-02  0.1320468E+00
        -11   -1    0    0    0    0  0.00000000000E+00  0.00000000000E+00  0.45593999997E+02  0.45594000000E+02  0.51100000000E-03 0.  1.
         11   -1    0    0    0    0 -0.00000000000E+00 -0.00000000000E+00 -0.45593999997E+02  0.45594000000E+02  0.51100000000E-03 0. -1.
    9900012    2    1    2    0    0  0.36116227013E+02 -0.22034699863E+02  0.15466201843E+02  0.46142320394E+02  0.10000024012E+02 0.  0.
         12    1    1    2    0    0 -0.36116227013E+02  0.22034699863E+02 -0.15466201843E+02  0.45045679606E+02  0.00000000000E+00 0. -1.
         11    1    3    3    0    0  0.21787263884E+02 -0.14651168702E+02  0.12938291391E+02  0.29270138303E+02  0.51100000000E-03 0. -1.
        -11    1    3    3    0    0  0.11940499627E+02 -0.45553107697E+01  0.30361416408E+01  0.13135621184E+02  0.51100000000E-03 0.  1.
         12    1    3    3    0    0  0.23884635012E+01 -0.28282203913E+01 -0.50823118824E+00  0.37365609080E+01  0.00000000000E+00 0. -1.
</event>
<event>
 7    1  0.1466590E-008  0.4614232E+02  0.7816164E-02  0.1320468E+00
        -11   -1    0    0    0    0  0.00000000000E+00  0.00000000000E+00  0.45593999997E+02  0.45594000000E+02  0.51100000000E-03 0. -1.
         11   -1    0    0    0    0 -0.00000000000E+00 -0.00000000000E+00 -0.45593999997E+02  0.45594000000E+02  0.51100000000E-03 0.  1.
    9900012    2    1    2    0    0 -0.77381728336E+01 -0.33831634398E+02 -0.28716798896E+02  0.46142319368E+02  0.10000014650E+02 0.  0.
         12    1    1    2    0    0  0.77381728336E+01  0.33831634398E+02  0.28716798896E+02  0.45045680632E+02  0.00000000000E+00 0. -1.
         11    1    3    3    0    0 -0.34442563825E+01 -0.12920769661E+02 -0.51572492012E+01  0.14332006497E+02  0.51100000000E-03 0. -1.
        -11    1    3    3    0    0 -0.40433019966E+01 -0.19294237940E+02 -0.21324083879E+02  0.29040187022E+02  0.51100000000E-03 0.  1.
         12    1    3    3    0    0 -0.25061445454E+00 -0.16166267969E+01 -0.22354658155E+01  0.27701258487E+01  0.00000000000E+00 0. -1.
</event>
<event>
 7    1  0.1466590E-008  0.4614232E+02  0.7816164E-02  0.1320468E+00
        -11   -1    0    0    0    0  0.00000000000E+00  0.00000000000E+00  0.45593999997E+02  0.45594000000E+02  0.51100000000E-03 0. -1.
         11   -1    0    0    0    0 -0.00000000000E+00 -0.00000000000E+00 -0.45593999997E+02  0.45594000000E+02  0.51100000000E-03 0.  1.
    9900012    2    1    2    0    0 -0.10766994057E+02 -0.56234692340E+01 -0.43376974721E+02  0.46142317596E+02  0.99999984956E+01 0.  0.
         12    1    1    2    0    0  0.10766994057E+02  0.56234692340E+01  0.43376974721E+02  0.45045682404E+02  0.00000000000E+00 0. -1.
         11    1    3    3    0    0 -0.30147579732E+01  0.13053363440E+01 -0.12995847844E+02  0.13404653299E+02  0.51100000000E-03 0. -1.
        -11    1    3    3    0    0 -0.66637689805E+01 -0.37500015385E+01 -0.26609998393E+02  0.27686826169E+02  0.51100000000E-03 0.  1.
         12    1    3    3    0    0 -0.10884671032E+01 -0.31788040395E+01 -0.37711284838E+01  0.50508381282E+01  0.00000000000E+00 0. -1.
</event>
<event>
 7    1  0.1466590E-008  0.4614232E+02  0.7816164E-02  0.1320468E+00
        -11   -1    0    0    0    0  0.00000000000E+00  0.00000000000E+00  0.45593999997E+02  0.45594000000E+02  0.51100000000E-03 0.  1.
         11   -1    0    0    0    0 -0.00000000000E+00 -0.00000000000E+00 -0.45593999997E+02  0.45594000000E+02  0.51100000000E-03 0. -1.
    9900012    2    1    2    0    0 -0.32485032627E+02 -0.23974780410E+02  0.19976135128E+02  0.46142318573E+02  0.10000007407E+02 0.  0.
         12    1    1    2    0    0  0.32485032627E+02  0.23974780410E+02 -0.19976135128E+02  0.45045681427E+02  0.00000000000E+00 0. -1.
         11    1    3    3    0    0  0.40449491281E+00 -0.24468033508E+00  0.28219809759E+00  0.55056391843E+00  0.51100000000E-03 0. -1.
        -11    1    3    3    0    0 -0.26550073619E+02 -0.19164933601E+02  0.18723358070E+02  0.37719560267E+02  0.51100000000E-03 0.  1.
         12    1    3    3    0    0 -0.63394539214E+01 -0.45651664740E+01  0.97057896104E+00  0.78721943876E+01  0.00000000000E+00 0. -1.
</event>
<event>
 7    1  0.1466590E-008  0.4614232E+02  0.7816164E-02  0.1320468E+00
        -11   -1    0    0    0    0  0.00000000000E+00  0.00000000000E+00  0.45593999997E+02  0.45594000000E+02  0.51100000000E-03 0. -1.
         11   -1    0    0    0    0 -0.00000000000E+00 -0.00000000000E+00 -0.45593999997E+02  0.45594000000E+02  0.51100000000E-03 0.  1.
    9900012    2    1    2    0    0  0.21865112374E+02 -0.32604816714E+02 -0.22089732329E+02  0.46142317783E+02  0.10000000195E+02 0.  0.
         12    1    1    2    0    0 -0.21865112374E+02  0.32604816714E+02  0.22089732329E+02  0.45045682217E+02  0.00000000000E+00 0. -1.
         11    1    3    3    0    0  0.67265406626E+01 -0.73055973628E+01 -0.88107034103E+01  0.13275789881E+02  0.51100000000E-03 0. -1.
        -11    1    3    3    0    0  0.67881992347E+01 -0.10337647989E+02 -0.87325672835E+01  0.15139496240E+02  0.51100000000E-03 0.  1.
         12    1    3    3    0    0  0.83503724764E+01 -0.14961571362E+02 -0.45464616355E+01  0.17727031661E+02  0.00000000000E+00 0. -1.
</event>
<event>
 7    1  0.1466590E-008  0.4614232E+02  0.7816164E-02  0.1320468E+00
        -11   -1    0    0    0    0  0.00000000000E+00  0.00000000000E+00  0.45593999997E+02  0.45594000000E+02  0.51100000000E-03 0. -1.
         11   -1    0    0    0    0 -0.00000000000E+00 -0.00000000000E+00 -0.45593999997E+02  0.45594000000E+02  0.51100000000E-03 0.  1.
    9900012    2    1    2    0    0 -0.23873837392E+02  0.31106109693E+01 -0.38072004798E+02  0.46142316947E+02  0.99999925720E+01 0.  0.
         12    1    1    2    0    0  0.23873837392E+02 -0.31106109693E+01  0.38072004798E+02  0.45045683053E+02  0.00000000000E+00 0. -1.
         11    1    3    3    0    0 -0.21000849074E+02  0.10121099422E+01 -0.28412627096E+02  0.35345967339E+02  0.51100000000E-03 0. -1.
        -11    1    3    3    0    0 -0.11440112004E+01  0.27308708312E+01 -0.54591120915E+01  0.62103399433E+01  0.51100000000E-03 0.  1.
        -12    1    3    3    0    0 -0.17289771173E+01 -0.63236980412E+00 -0.42002656106E+01  0.45860096642E+01  0.00000000000E+00 0.  1.
</event>
<event>
 7    1  0.1466590E-008  0.4614232E+02  0.7816164E-02  0.1320468E+00
        -11   -1    0    0    0    0  0.00000000000E+00  0.00000000000E+00  0.45593999997E+02  0.45594000000E+02  0.51100000000E-03 0.  1.
         11   -1    0    0    0    0 -0.00000000000E+00 -0.00000000000E+00 -0.45593999997E+02  0.45594000000E+02  0.51100000000E-03 0. -1.
    9900012    2    1    2    0    0  0.20035231099E+02 -0.44033745915E+01  0.40103781498E+02  0.46142317816E+02  0.10000000497E+02 0.  0.
         12    1    1    2    0    0 -0.20035231099E+02  0.44033745915E+01 -0.40103781498E+02  0.45045682184E+02  0.00000000000E+00 0. -1.
         11    1    3    3    0    0  0.37529382069E+01  0.24287334422E+01  0.10134520632E+02  0.11076633064E+02  0.51100000000E-03 0. -1.
        -11    1    3    3    0    0  0.14507870765E+02 -0.73068168383E+01  0.25508565989E+02  0.30241607522E+02  0.51100000000E-03 0.  1.
        -12    1    3    3    0    0  0.17744221275E+01  0.47470880465E+00  0.44606948770E+01  0.48240772301E+01  0.00000000000E+00 0.  1.
</event>
<event>
 7    1  0.1466590E-008  0.4614232E+02  0.7816164E-02  0.1320468E+00
        -11   -1    0    0    0    0  0.00000000000E+00  0.00000000000E+00  0.45593999997E+02  0.45594000000E+02  0.51100000000E-03 0. -1.
         11   -1    0    0    0    0 -0.00000000000E+00 -0.00000000000E+00 -0.45593999997E+02  0.45594000000E+02  0.51100000000E-03 0.  1.
    9900012    2    1    2    0    0 -0.31342046612E+02  0.32245320391E+02  0.26512120090E+01  0.46142317653E+02  0.99999990147E+01 0.  0.
         12    1    1    2    0    0  0.31342046612E+02 -0.32245320391E+02 -0.26512120090E+01  0.45045682347E+02  0.00000000000E+00 0. -1.
         11    1    3    3    0    0  0.24139161367E+00  0.14794415169E-01  0.73741241052E+00  0.77605805851E+00  0.51100000000E-03 0. -1.
        -11    1    3    3    0    0 -0.19094106413E+02  0.18618408952E+02 -0.87564857408E+00  0.26683268396E+02  0.51100000000E-03 0.  1.
         12    1    3    3    0    0 -0.12489331813E+02  0.13612117024E+02  0.27894481726E+01  0.18682991198E+02  0.00000000000E+00 0. -1.
</event>
<event>
 7    1  0.1466590E-008  0.4614232E+02  0.7816164E-02  0.1320468E+00
        -11   -1    0    0    0    0  0.00000000000E+00  0.00000000000E+00  0.45593999997E+02  0.45594000000E+02  0.51100000000E-03 0.  1.
         11   -1    0    0    0    0 -0.00000000000E+00 -0.00000000000E+00 -0.45593999997E+02  0.45594000000E+02  0.51100000000E-03 0. -1.
    9900012    2    1    2    0    0 -0.12605222167E+02 -0.31830630797E+01  0.43128760229E+02  0.46142317906E+02  0.10000001317E+02 0.  0.
         12    1    1    2    0    0  0.12605222167E+02  0.31830630797E+01 -0.43128760229E+02  0.45045682094E+02  0.00000000000E+00 0. -1.
         11    1    3    3    0    0 -0.85134737714E+01 -0.61302397230E+00  0.19195710066E+02  0.21007863272E+02  0.51100000000E-03 0. -1.
        -11    1    3    3    0    0 -0.56629946988E+01 -0.19965475612E+01  0.18587002271E+02  0.19532853473E+02  0.51100000000E-03 0.  1.
         12    1    3    3    0    0  0.15712463027E+01 -0.57349154620E+00  0.53460478917E+01  0.56016011601E+01  0.00000000000E+00 0. -1.
</event>
<event>
 7    1  0.1466590E-008  0.4614232E+02  0.7816164E-02  0.1320468E+00
        -11   -1    0    0    0    0  0.00000000000E+00  0.00000000000E+00  0.45593999997E+02  0.45594000000E+02  0.51100000000E-03 0. -1.
         11   -1    0    0    0    0 -0.00000000000E+00 -0.00000000000E+00 -0.45593999997E+02  0.45594000000E+02  0.51100000000E-03 0.  1.
    9900012    2    1    2    0    0  0.34580593345E+02  0.82843120627E+01 -0.27652598545E+02  0.46142317979E+02  0.10000001987E+02 0.  0.
         12    1    1    2    0    0 -0.34580593345E+02 -0.82843120627E+01  0.27652598545E+02  0.45045682021E+02  0.00000000000E+00 0. -1.
         11    1    3    3    0    0  0.11819339980E+02  0.70098471709E+01 -0.10157264105E+02  0.17088147041E+02  0.51100000000E-03 0. -1.
        -11    1    3    3    0    0  0.20343347673E+02  0.35940412920E+00 -0.16775916685E+02  0.26370672095E+02  0.51100000000E-03 0.  1.
         12    1    3    3    0    0  0.24179056923E+01  0.91506076255E+00 -0.71941775514E+00  0.26834988433E+01  0.00000000000E+00 0. -1.
</event>
<event>
 7    1  0.1466590E-008  0.4614232E+02  0.7816164E-02  0.1320468E+00
        -11   -1    0    0    0    0  0.00000000000E+00  0.00000000000E+00  0.45593999997E+02  0.45594000000E+02  0.51100000000E-03 0.  1.
         11   -1    0    0    0    0 -0.00000000000E+00 -0.00000000000E+00 -0.45593999997E+02  0.45594000000E+02  0.51100000000E-03 0. -1.
    9900012    2    1    2    0    0  0.13332296153E+02  0.41150561456E+02  0.12569597746E+02  0.46142316341E+02  0.99999870473E+01 0.  0.
         12    1    1    2    0    0 -0.13332296153E+02 -0.41150561456E+02 -0.12569597746E+02  0.45045683659E+02  0.00000000000E+00 0. -1.
         11    1    3    3    0    0  0.15147698872E+01  0.19156298588E+01 -0.86711371742E+00  0.25915346857E+01  0.51100000000E-03 0. -1.
        -11    1    3    3    0    0  0.89142909820E+01  0.19075589644E+02  0.65629559929E+01  0.22054820235E+02  0.51100000000E-03 0.  1.
        -12    1    3    3    0    0  0.29032352834E+01  0.20159341953E+02  0.68737554705E+01  0.21495961420E+02  0.00000000000E+00 0.  1.
</event>
<event>
 7    1  0.1466590E-008  0.4614232E+02  0.7816164E-02  0.1320468E+00
        -11   -1    0    0    0    0  0.00000000000E+00  0.00000000000E+00  0.45593999997E+02  0.45594000000E+02  0.51100000000E-03 0.  1.
         11   -1    0    0    0    0 -0.00000000000E+00 -0.00000000000E+00 -0.45593999997E+02  0.45594000000E+02  0.51100000000E-03 0. -1.
    9900012    2    1    2    0    0 -0.92557344805E+01 -0.30168599524E+02  0.32144991043E+02  0.46142317996E+02  0.10000002146E+02 0.  0.
         12    1    1    2    0    0  0.92557344805E+01  0.30168599524E+02 -0.32144991043E+02  0.45045682004E+02  0.00000000000E+00 0. -1.
         11    1    3    3    0    0 -0.83195020596E+01 -0.23177534547E+02  0.20146816918E+02  0.31816763732E+02  0.51100000000E-03 0.  1.
        -11    1    3    3    0    0 -0.10675051652E+01 -0.40939247731E+01  0.98385709925E+01  0.10709680983E+02  0.51100000000E-03 0. -1.
        -12    1    3    3    0    0  0.13127274429E+00 -0.28971402044E+01  0.21596031322E+01  0.36158732812E+01  0.00000000000E+00 0.  1.
</event>
<event>
 7    1  0.1466590E-008  0.4614232E+02  0.7816164E-02  0.1320468E+00
        -11   -1    0    0    0    0  0.00000000000E+00  0.00000000000E+00  0.45593999997E+02  0.45594000000E+02  0.51100000000E-03 0.  1.
         11   -1    0    0    0    0 -0.00000000000E+00 -0.00000000000E+00 -0.45593999997E+02  0.45594000000E+02  0.51100000000E-03 0. -1.
    9900012    2    1    2    0    0 -0.39155719878E+02  0.21805333199E+02 -0.45244304114E+01  0.46142318457E+02  0.10000006349E+02 0.  0.
         12    1    1    2    0    0  0.39155719878E+02 -0.21805333199E+02  0.45244304114E+01  0.45045681543E+02  0.00000000000E+00 0. -1.
         11    1    3    3    0    0 -0.12899716096E+02  0.40468776051E+01  0.17397604820E+01  0.13631091685E+02  0.51100000000E-03 0. -1.
        -11    1    3    3    0    0 -0.15809403173E+02  0.12113426473E+02 -0.26069584134E+01  0.20086526879E+02  0.51100000000E-03 0.  1.
         12    1    3    3    0    0 -0.10446600609E+02  0.56450291204E+01 -0.36572324801E+01  0.12424699894E+02  0.00000000000E+00 0. -1.
</event>
<event>
 7    1  0.1466590E-008  0.4614232E+02  0.7816164E-02  0.1320468E+00
        -11   -1    0    0    0    0  0.00000000000E+00  0.00000000000E+00  0.45593999997E+02  0.45594000000E+02  0.51100000000E-03 0.  1.
         11   -1    0    0    0    0 -0.00000000000E+00 -0.00000000000E+00 -0.45593999997E+02  0.45594000000E+02  0.51100000000E-03 0. -1.
    9900012    2    1    2    0    0  0.20157492857E+02  0.36270873058E+02  0.17527485199E+02  0.46142317764E+02  0.10000000026E+02 0.  0.
         12    1    1    2    0    0 -0.20157492857E+02 -0.36270873058E+02 -0.17527485199E+02  0.45045682236E+02  0.00000000000E+00 0. -1.
         11    1    3    3    0    0 -0.35410021150E+00  0.27973157058E+01  0.12110533339E+01  0.30687151312E+01  0.51100000000E-03 0. -1.
        -11    1    3    3    0    0  0.83877483457E+01  0.18975239246E+02  0.62884622986E+01  0.21678532817E+02  0.51100000000E-03 0.  1.
         12    1    3    3    0    0  0.12123844723E+02  0.14498318106E+02  0.10027969567E+02  0.21395069815E+02  0.00000000000E+00 0. -1.
</event>
<event>
 7    1  0.1466590E-008  0.4614232E+02  0.7816164E-02  0.1320468E+00
        -11   -1    0    0    0    0  0.00000000000E+00  0.00000000000E+00  0.45593999997E+02  0.45594000000E+02  0.51100000000E-03 0.  1.
         11   -1    0    0    0    0 -0.00000000000E+00 -0.00000000000E+00 -0.45593999997E+02  0.45594000000E+02  0.51100000000E-03 0. -1.
    9900012    2    1    2    0    0 -0.35840632144E+02 -0.24017866737E+02  0.12950085338E+02  0.46142317129E+02  0.99999942362E+01 0.  0.
         12    1    1    2    0    0  0.35840632144E+02  0.24017866737E+02 -0.12950085338E+02  0.45045682871E+02  0.00000000000E+00 0. -1.
         11    1    3    3    0    0 -0.32404123657E+01 -0.64706995510E+01  0.20993457821E+01  0.75350831418E+01  0.51100000000E-03 0. -1.
        -11    1    3    3    0    0 -0.14058189301E+02 -0.83843690295E+01  0.47751900492E+01  0.17050887681E+02  0.51100000000E-03 0.  1.
         12    1    3    3    0    0 -0.18542030477E+02 -0.91627981563E+01  0.60755495068E+01  0.21556346306E+02  0.00000000000E+00 0. -1.
</event>
<event>
 7    1  0.1466590E-008  0.4614232E+02  0.7816164E-02  0.1320468E+00
        -11   -1    0    0    0    0  0.00000000000E+00  0.00000000000E+00  0.45593999997E+02  0.45594000000E+02  0.51100000000E-03 0.  1.
         11   -1    0    0    0    0 -0.00000000000E+00 -0.00000000000E+00 -0.45593999997E+02  0.45594000000E+02  0.51100000000E-03 0. -1.
    9900012    2    1    2    0    0 -0.42109198256E+01 -0.13476946778E+02  0.42775619908E+02  0.46142316536E+02  0.99999888307E+01 0.  0.
         12    1    1    2    0    0  0.42109198256E+01  0.13476946778E+02 -0.42775619908E+02  0.45045683464E+02  0.00000000000E+00 0. -1.
         11    1    3    3    0    0  0.20648508516E+01 -0.28711305107E+01  0.51490267832E+01  0.62465571737E+01  0.51100000000E-03 0. -1.
        -11    1    3    3    0    0 -0.35073875830E+01 -0.82168060981E+01  0.31672628330E+02  0.32908555965E+02  0.51100000000E-03 0.  1.
         12    1    3    3    0    0 -0.27683830942E+01 -0.23890101689E+01  0.59539647943E+01  0.69872033973E+01  0.00000000000E+00 0. -1.
</event>
<event>
 7    1  0.1466590E-008  0.4614232E+02  0.7816164E-02  0.1320468E+00
        -11   -1    0    0    0    0  0.00000000000E+00  0.00000000000E+00  0.45593999997E+02  0.45594000000E+02  0.51100000000E-03 0.  1.
         11   -1    0    0    0    0 -0.00000000000E+00 -0.00000000000E+00 -0.45593999997E+02  0.45594000000E+02  0.51100000000E-03 0. -1.
    9900012    2    1    2    0    0  0.22819371742E+02  0.38652308446E+02  0.37932542630E+01  0.46142318156E+02  0.10000003600E+02 0.  0.
         12    1    1    2    0    0 -0.22819371742E+02 -0.38652308446E+02 -0.37932542630E+01  0.45045681844E+02  0.00000000000E+00 0. -1.
         11    1    3    3    0    0  0.35028435516E+01  0.10653080466E+02 -0.25129007182E+01  0.11492289008E+02  0.51100000000E-03 0. -1.
        -11    1    3    3    0    0  0.16305818002E+02  0.24133975452E+02  0.60236877295E+01  0.29742449226E+02  0.51100000000E-03 0.  1.
         12    1    3    3    0    0  0.30107101883E+01  0.38652525282E+01  0.28246725165E+00  0.49075799222E+01  0.00000000000E+00 0. -1.
</event>
<event>
 7    1  0.1466590E-008  0.4614232E+02  0.7816164E-02  0.1320468E+00
        -11   -1    0    0    0    0  0.00000000000E+00  0.00000000000E+00  0.45593999997E+02  0.45594000000E+02  0.51100000000E-03 0.  1.
         11   -1    0    0    0    0 -0.00000000000E+00 -0.00000000000E+00 -0.45593999997E+02  0.45594000000E+02  0.51100000000E-03 0. -1.
    9900012    2    1    2    0    0  0.41200857582E+02 -0.14036853974E+02  0.11600414681E+02  0.46142317013E+02  0.99999931793E+01 0.  0.
         12    1    1    2    0    0 -0.41200857582E+02  0.14036853974E+02 -0.11600414681E+02  0.45045682987E+02  0.00000000000E+00 0. -1.
         11    1    3    3    0    0  0.21375234678E+02 -0.57218046411E+01  0.96785523915E+01  0.24151896045E+02  0.51100000000E-03 0. -1.
        -11    1    3    3    0    0  0.19763189372E+02 -0.80436672976E+01  0.23639474504E+01  0.21467940879E+02  0.51100000000E-03 0.  1.
         12    1    3    3    0    0  0.62433531867E-01 -0.27138203486E+00 -0.44208516100E+00  0.52248008988E+00  0.00000000000E+00 0. -1.
</event>
<event>
 7    1  0.1466590E-008  0.4614233E+02  0.7816164E-02  0.1320468E+00
        -11   -1    0    0    0    0  0.00000000000E+00  0.00000000000E+00  0.45593999997E+02  0.45594000000E+02  0.51100000000E-03 0.  1.
         11   -1    0    0    0    0 -0.00000000000E+00 -0.00000000000E+00 -0.45593999997E+02  0.45594000000E+02  0.51100000000E-03 0. -1.
    9900012    2    1    2    0    0 -0.44819266779E+01  0.48249641575E+01  0.44561693525E+02  0.46142329002E+02  0.10000102502E+02 0.  0.
         12    1    1    2    0    0  0.44819266779E+01 -0.48249641575E+01 -0.44561693525E+02  0.45045670998E+02  0.00000000000E+00 0. -1.
         11    1    3    3    0    0 -0.24478847514E+01  0.39638073184E+01  0.32566600243E+02  0.32898136116E+02  0.51100000000E-03 0. -1.
        -11    1    3    3    0    0  0.27813452374E+00  0.14058632148E+01  0.10111522634E+02  0.10212575602E+02  0.51100000000E-03 0.  1.
         12    1    3    3    0    0 -0.23121764502E+01 -0.54470637577E+00  0.18835706475E+01  0.30316172840E+01  0.00000000000E+00 0. -1.
</event>
<event>
 7    1  0.1466590E-008  0.4614232E+02  0.7816164E-02  0.1320468E+00
        -11   -1    0    0    0    0  0.00000000000E+00  0.00000000000E+00  0.45593999997E+02  0.45594000000E+02  0.51100000000E-03 0.  1.
         11   -1    0    0    0    0 -0.00000000000E+00 -0.00000000000E+00 -0.45593999997E+02  0.45594000000E+02  0.51100000000E-03 0. -1.
    9900012    2    1    2    0    0  0.14163919537E+02  0.27575164347E+02  0.32681906433E+02  0.46142319702E+02  0.10000017696E+02 0.  0.
         12    1    1    2    0    0 -0.14163919537E+02 -0.27575164347E+02 -0.32681906433E+02  0.45045680298E+02  0.00000000000E+00 0. -1.
         11    1    3    3    0    0  0.95395734291E+00  0.27937605347E+00 -0.60309242222E-01  0.99585292948E+00  0.51100000000E-03 0. -1.
        -11    1    3    3    0    0  0.10948159549E+02  0.16247347886E+02  0.18174553932E+02  0.26723639755E+02  0.51100000000E-03 0.  1.
        -12    1    3    3    0    0  0.22618026445E+01  0.11048440408E+02  0.14567661743E+02  0.18422827018E+02  0.00000000000E+00 0.  1.
</event>
<event>
 7    1  0.1466590E-008  0.4614232E+02  0.7816164E-02  0.1320468E+00
        -11   -1    0    0    0    0  0.00000000000E+00  0.00000000000E+00  0.45593999997E+02  0.45594000000E+02  0.51100000000E-03 0.  1.
         11   -1    0    0    0    0 -0.00000000000E+00 -0.00000000000E+00 -0.45593999997E+02  0.45594000000E+02  0.51100000000E-03 0. -1.
    9900012    2    1    2    0    0 -0.10503295957E+02 -0.31096342365E+02  0.30851445100E+02  0.46142318751E+02  0.10000009025E+02 0.  0.
         12    1    1    2    0    0  0.10503295957E+02  0.31096342365E+02 -0.30851445100E+02  0.45045681249E+02  0.00000000000E+00 0. -1.
         11    1    3    3    0    0 -0.22875060526E+00  0.38008748469E+00  0.13278537763E+00  0.46306106838E+00  0.51100000000E-03 0. -1.
        -11    1    3    3    0    0 -0.20935123263E+01 -0.59074158181E+01  0.25484870227E+01  0.67657329148E+01  0.51100000000E-03 0.  1.
        -12    1    3    3    0    0 -0.81810330258E+01 -0.25569014031E+02  0.28170172700E+02  0.38913524768E+02  0.00000000000E+00 0.  1.
</event>
<event>
 7    1  0.1466590E-008  0.4614232E+02  0.7816164E-02  0.1320468E+00
        -11   -1    0    0    0    0  0.00000000000E+00  0.00000000000E+00  0.45593999997E+02  0.45594000000E+02  0.51100000000E-03 0.  1.
         11   -1    0    0    0    0 -0.00000000000E+00 -0.00000000000E+00 -0.45593999997E+02  0.45594000000E+02  0.51100000000E-03 0. -1.
    9900012    2    1    2    0    0  0.33517061013E+01 -0.39133293713E+02  0.22055948345E+02  0.46142317987E+02  0.10000002060E+02 0.  0.
         12    1    1    2    0    0 -0.33517061013E+01  0.39133293713E+02 -0.22055948345E+02  0.45045682013E+02  0.00000000000E+00 0. -1.
         11    1    3    3    0    0  0.55203403654E+00 -0.22972226687E+00  0.23269971726E+01  0.24025881877E+01  0.51100000000E-03 0. -1.
        -11    1    3    3    0    0  0.43487120250E+00 -0.16752965997E+02  0.87146344279E+01  0.18889040106E+02  0.51100000000E-03 0.  1.
         12    1    3    3    0    0  0.23648008622E+01 -0.22150605449E+02  0.11014316745E+02  0.24850689694E+02  0.00000000000E+00 0. -1.
</event>
<event>
 7    1  0.1466590E-008  0.4614232E+02  0.7816164E-02  0.1320468E+00
        -11   -1    0    0    0    0  0.00000000000E+00  0.00000000000E+00  0.45593999997E+02  0.45594000000E+02  0.51100000000E-03 0.  1.
         11   -1    0    0    0    0 -0.00000000000E+00 -0.00000000000E+00 -0.45593999997E+02  0.45594000000E+02  0.51100000000E-03 0. -1.
    9900012    2    1    2    0    0  0.76485685620E+01 -0.34620121010E+01  0.44256383131E+02  0.46142316781E+02  0.99999910599E+01 0.  0.
         12    1    1    2    0    0 -0.76485685620E+01  0.34620121010E+01 -0.44256383131E+02  0.45045683219E+02  0.00000000000E+00 0. -1.
         11    1    3    3    0    0  0.63960852280E+01 -0.33558299837E+01  0.13674836139E+02  0.15465207558E+02  0.51100000000E-03 0. -1.
        -11    1    3    3    0    0  0.72383025752E+00  0.46069790965E+00  0.26954898992E+02  0.26968551180E+02  0.51100000000E-03 0.  1.
        -12    1    3    3    0    0  0.52865307641E+00 -0.56688002694E+00  0.36266479999E+01  0.37085580426E+01  0.00000000000E+00 0.  1.
</event>
<event>
 7    1  0.1466590E-008  0.4614232E+02  0.7816164E-02  0.1320468E+00
        -11   -1    0    0    0    0  0.00000000000E+00  0.00000000000E+00  0.45593999997E+02  0.45594000000E+02  0.51100000000E-03 0. -1.
         11   -1    0    0    0    0 -0.00000000000E+00 -0.00000000000E+00 -0.45593999997E+02  0.45594000000E+02  0.51100000000E-03 0.  1.
    9900012    2    1    2    0    0  0.10308242197E+02 -0.36067555312E+02 -0.24939627232E+02  0.46142318633E+02  0.10000007948E+02 0.  0.
         12    1    1    2    0    0 -0.10308242197E+02  0.36067555312E+02  0.24939627232E+02  0.45045681367E+02  0.00000000000E+00 0. -1.
         11    1    3    3    0    0 -0.33913576481E+00  0.43362061311E-01  0.30789631564E+00  0.46010187746E+00  0.51100000000E-03 0. -1.
        -11    1    3    3    0    0  0.95775195651E+01 -0.24084540170E+02 -0.18570640917E+02  0.31885147962E+02  0.51100000000E-03 0.  1.
         12    1    3    3    0    0  0.10698583967E+01 -0.12026377203E+02 -0.66768826311E+01  0.13797068794E+02  0.00000000000E+00 0. -1.
</event>
<event>
 7    1  0.1466590E-008  0.4614232E+02  0.7816164E-02  0.1320468E+00
        -11   -1    0    0    0    0  0.00000000000E+00  0.00000000000E+00  0.45593999997E+02  0.45594000000E+02  0.51100000000E-03 0.  1.
         11   -1    0    0    0    0 -0.00000000000E+00 -0.00000000000E+00 -0.45593999997E+02  0.45594000000E+02  0.51100000000E-03 0. -1.
    9900012    2    1    2    0    0 -0.58281211016E+01  0.33566853919E+02  0.29468845284E+02  0.46142317411E+02  0.99999968076E+01 0.  0.
         12    1    1    2    0    0  0.58281211016E+01 -0.33566853919E+02 -0.29468845284E+02  0.45045682589E+02  0.00000000000E+00 0. -1.
         11    1    3    3    0    0 -0.42168797365E+01  0.11381258742E+02  0.59159302919E+01  0.13502346342E+02  0.51100000000E-03 0. -1.
        -11    1    3    3    0    0  0.31205158449E+00  0.53078780952E+00  0.40406855711E-01  0.61704527000E+00  0.51100000000E-03 0.  1.
         12    1    3    3    0    0 -0.19232929495E+01  0.21654807367E+02  0.23512508136E+02  0.32022925799E+02  0.00000000000E+00 0. -1.
</event>
<event>
 7    1  0.1466590E-008  0.4614232E+02  0.7816164E-02  0.1320468E+00
        -11   -1    0    0    0    0  0.00000000000E+00  0.00000000000E+00  0.45593999997E+02  0.45594000000E+02  0.51100000000E-03 0. -1.
         11   -1    0    0    0    0 -0.00000000000E+00 -0.00000000000E+00 -0.45593999997E+02  0.45594000000E+02  0.51100000000E-03 0.  1.
    9900012    2    1    2    0    0  0.31284720055E+02  0.21832406131E+02  0.23952575632E+02  0.46142317124E+02  0.99999941860E+01 0.  0.
         12    1    1    2    0    0 -0.31284720055E+02 -0.21832406131E+02 -0.23952575632E+02  0.45045682876E+02  0.00000000000E+00 0. -1.
         11    1    3    3    0    0  0.22431426276E+02  0.11804838636E+02  0.17520305953E+02  0.30813701838E+02  0.51100000000E-03 0.  1.
        -11    1    3    3    0    0  0.83885094925E+01  0.10129672291E+02  0.67231844930E+01  0.14770868702E+02  0.51100000000E-03 0. -1.
         12    1    3    3    0    0  0.46478428642E+00 -0.10210479599E+00 -0.29091481403E+00  0.55774658339E+00  0.00000000000E+00 0. -1.
</event>
<event>
 7    1  0.1466590E-008  0.4614232E+02  0.7816164E-02  0.1320468E+00
        -11   -1    0    0    0    0  0.00000000000E+00  0.00000000000E+00  0.45593999997E+02  0.45594000000E+02  0.51100000000E-03 0. -1.
         11   -1    0    0    0    0 -0.00000000000E+00 -0.00000000000E+00 -0.45593999997E+02  0.45594000000E+02  0.51100000000E-03 0.  1.
    9900012    2    1    2    0    0 -0.46683682979E+00  0.41997698318E+02  0.16281547168E+02  0.46142318977E+02  0.10000011088E+02 0.  0.
         12    1    1    2    0    0  0.46683682979E+00 -0.41997698318E+02 -0.16281547168E+02  0.45045681023E+02  0.00000000000E+00 0. -1.
         11    1    3    3    0    0  0.15062798817E+01  0.11180212515E+01  0.11541724575E+01  0.22024906183E+01  0.51100000000E-03 0. -1.
        -11    1    3    3    0    0 -0.34054471316E+01  0.35575476378E+02  0.13587698646E+02  0.38233978925E+02  0.51100000000E-03 0.  1.
        -12    1    3    3    0    0  0.14323304202E+01  0.53042006890E+01  0.15396760639E+01  0.57058494340E+01  0.00000000000E+00 0.  1.
</event>
<event>
 7    1  0.1466590E-008  0.4614232E+02  0.7816164E-02  0.1320468E+00
        -11   -1    0    0    0    0  0.00000000000E+00  0.00000000000E+00  0.45593999997E+02  0.45594000000E+02  0.51100000000E-03 0.  1.
         11   -1    0    0    0    0 -0.00000000000E+00 -0.00000000000E+00 -0.45593999997E+02  0.45594000000E+02  0.51100000000E-03 0. -1.
    9900012    2    1    2    0    0 -0.16190512298E+02  0.36490776733E+02 -0.20866337210E+02  0.46142317592E+02  0.99999984583E+01 0.  0.
         12    1    1    2    0    0  0.16190512298E+02 -0.36490776733E+02  0.20866337210E+02  0.45045682408E+02  0.00000000000E+00 0. -1.
         11    1    3    3    0    0  0.34792307748E+00  0.13403133149E+01 -0.12903293833E+01  0.18927335862E+01  0.51100000000E-03 0. -1.
        -11    1    3    3    0    0 -0.47331613804E+01  0.16305825647E+02 -0.51486970750E+01  0.17742374376E+02  0.51100000000E-03 0.  1.
        -12    1    3    3    0    0 -0.11805273995E+02  0.18844637772E+02 -0.14427310751E+02  0.26507209630E+02  0.00000000000E+00 0.  1.
</event>
<event>
 7    1  0.1466590E-008  0.4614232E+02  0.7816164E-02  0.1320468E+00
        -11   -1    0    0    0    0  0.00000000000E+00  0.00000000000E+00  0.45593999997E+02  0.45594000000E+02  0.51100000000E-03 0. -1.
         11   -1    0    0    0    0 -0.00000000000E+00 -0.00000000000E+00 -0.45593999997E+02  0.45594000000E+02  0.51100000000E-03 0.  1.
    9900012    2    1    2    0    0  0.24548296903E+02 -0.33465712942E+02  0.17508306940E+02  0.46142316129E+02  0.99999851138E+01 0.  0.
         12    1    1    2    0    0 -0.24548296903E+02  0.33465712942E+02 -0.17508306940E+02  0.45045683871E+02  0.00000000000E+00 0. -1.
         11    1    3    3    0    0  0.36757557113E+01 -0.66746939773E+01  0.11694688424E+00  0.76207871362E+01  0.51100000000E-03 0.  1.
        -11    1    3    3    0    0  0.30019595717E+01 -0.72229564832E+01  0.48485083342E+01  0.92027656146E+01  0.51100000000E-03 0. -1.
         12    1    3    3    0    0  0.17870581620E+02 -0.19568062481E+02  0.12542851721E+02  0.29318763378E+02  0.00000000000E+00 0. -1.
</event>
<event>
 7    1  0.1466590E-008  0.4614232E+02  0.7816164E-02  0.1320468E+00
        -11   -1    0    0    0    0  0.00000000000E+00  0.00000000000E+00  0.45593999997E+02  0.45594000000E+02  0.51100000000E-03 0. -1.
         11   -1    0    0    0    0 -0.00000000000E+00 -0.00000000000E+00 -0.45593999997E+02  0.45594000000E+02  0.51100000000E-03 0.  1.
    9900012    2    1    2    0    0 -0.12330716100E+02  0.35176708378E+02 -0.25291621277E+02  0.46142317869E+02  0.10000000981E+02 0.  0.
         12    1    1    2    0    0  0.12330716100E+02 -0.35176708378E+02  0.25291621277E+02  0.45045682131E+02  0.00000000000E+00 0. -1.
         11    1    3    3    0    0 -0.47643487163E+01  0.36604841851E+01 -0.32674708746E+01  0.68391906932E+01  0.51100000000E-03 0. -1.
        -11    1    3    3    0    0 -0.27068087865E+01  0.93519863919E+01 -0.50615411568E+01  0.10972951400E+02  0.51100000000E-03 0.  1.
         12    1    3    3    0    0 -0.48595585971E+01  0.22164237801E+02 -0.16962609246E+02  0.28330175776E+02  0.00000000000E+00 0. -1.
</event>
<event>
 7    1  0.1466590E-008  0.4614232E+02  0.7816164E-02  0.1320468E+00
        -11   -1    0    0    0    0  0.00000000000E+00  0.00000000000E+00  0.45593999997E+02  0.45594000000E+02  0.51100000000E-03 0.  1.
         11   -1    0    0    0    0 -0.00000000000E+00 -0.00000000000E+00 -0.45593999997E+02  0.45594000000E+02  0.51100000000E-03 0. -1.
    9900012    2    1    2    0    0 -0.31813729840E+02 -0.18382647185E+02  0.26059131743E+02  0.46142317953E+02  0.10000001752E+02 0.  0.
         12    1    1    2    0    0  0.31813729840E+02  0.18382647185E+02 -0.26059131743E+02  0.45045682047E+02  0.00000000000E+00 0. -1.
         11    1    3    3    0    0 -0.13416516966E+02 -0.48462273204E+01  0.10989540220E+02  0.18007188599E+02  0.51100000000E-03 0. -1.
        -11    1    3    3    0    0 -0.10150881712E+02 -0.36222602505E+01  0.56759156909E+01  0.12181017529E+02  0.51100000000E-03 0.  1.
         12    1    3    3    0    0 -0.82463311622E+01 -0.99141596144E+01  0.93936758321E+01  0.15954111825E+02  0.00000000000E+00 0. -1.
</event>
<event>
 7    1  0.1466590E-008  0.4614232E+02  0.7816164E-02  0.1320468E+00
        -11   -1    0    0    0    0  0.00000000000E+00  0.00000000000E+00  0.45593999997E+02  0.45594000000E+02  0.51100000000E-03 0.  1.
         11   -1    0    0    0    0 -0.00000000000E+00 -0.00000000000E+00 -0.45593999997E+02  0.45594000000E+02  0.51100000000E-03 0. -1.
    9900012    2    1    2    0    0 -0.50902532898E+01  0.10933336837E+02  0.43401207349E+02  0.46142319494E+02  0.10000015799E+02 0.  0.
         12    1    1    2    0    0  0.50902532898E+01 -0.10933336837E+02 -0.43401207349E+02  0.45045680506E+02  0.00000000000E+00 0. -1.
         11    1    3    3    0    0 -0.22568100855E-01  0.41460390167E+00  0.22991177251E-01  0.41585402464E+00  0.51100000000E-03 0. -1.
        -11    1    3    3    0    0 -0.18015685165E+01  0.10164874150E+02  0.24845438170E+02  0.26904760057E+02  0.51100000000E-03 0.  1.
        -12    1    3    3    0    0 -0.32661166725E+01  0.35385878492E+00  0.18532778002E+02  0.18821705412E+02  0.00000000000E+00 0.  1.
</event>
<event>
 7    1  0.1466590E-008  0.4614232E+02  0.7816164E-02  0.1320468E+00
        -11   -1    0    0    0    0  0.00000000000E+00  0.00000000000E+00  0.45593999997E+02  0.45594000000E+02  0.51100000000E-03 0.  1.
         11   -1    0    0    0    0 -0.00000000000E+00 -0.00000000000E+00 -0.45593999997E+02  0.45594000000E+02  0.51100000000E-03 0. -1.
    9900012    2    1    2    0    0  0.39173159727E+02 -0.18030443568E+02  0.13018453014E+02  0.46142318108E+02  0.10000003163E+02 0.  0.
         12    1    1    2    0    0 -0.39173159727E+02  0.18030443568E+02 -0.13018453014E+02  0.45045681892E+02  0.00000000000E+00 0. -1.
         11    1    3    3    0    0  0.63346443571E+01  0.42488282492E-01  0.76142998232E+00  0.63803840216E+01  0.51100000000E-03 0. -1.
        -11    1    3    3    0    0  0.65037554211E+01 -0.53524304470E+01  0.42771846969E+01  0.94467801636E+01  0.51100000000E-03 0.  1.
         12    1    3    3    0    0  0.26334759949E+02 -0.12720501404E+02  0.79798383346E+01  0.30315153923E+02  0.00000000000E+00 0. -1.
</event>
<event>
 7    1  0.1466590E-008  0.4614232E+02  0.7816164E-02  0.1320468E+00
        -11   -1    0    0    0    0  0.00000000000E+00  0.00000000000E+00  0.45593999997E+02  0.45594000000E+02  0.51100000000E-03 0.  1.
         11   -1    0    0    0    0 -0.00000000000E+00 -0.00000000000E+00 -0.45593999997E+02  0.45594000000E+02  0.51100000000E-03 0. -1.
    9900012    2    1    2    0    0 -0.27656105883E+02 -0.16829033579E+02  0.31321509620E+02  0.46142317314E+02  0.99999959203E+01 0.  0.
         12    1    1    2    0    0  0.27656105883E+02  0.16829033579E+02 -0.31321509620E+02  0.45045682686E+02  0.00000000000E+00 0. -1.
         11    1    3    3    0    0 -0.16062104523E+01  0.23963637838E+00 -0.25257989208E+00  0.16435128457E+01  0.51100000000E-03 0. -1.
        -11    1    3    3    0    0 -0.13472372746E+02 -0.67657229530E+01  0.16021974513E+02  0.21999625043E+02  0.51100000000E-03 0.  1.
         12    1    3    3    0    0 -0.12577522685E+02 -0.10302947004E+02  0.15552114999E+02  0.22499179425E+02  0.00000000000E+00 0. -1.
</event>
<event>
 7    1  0.1466590E-008  0.4614230E+02  0.7816164E-02  0.1320468E+00
        -11   -1    0    0    0    0  0.00000000000E+00  0.00000000000E+00  0.45593999997E+02  0.45594000000E+02  0.51100000000E-03 0.  1.
         11   -1    0    0    0    0 -0.00000000000E+00 -0.00000000000E+00 -0.45593999997E+02  0.45594000000E+02  0.51100000000E-03 0. -1.
    9900012    2    1    2    0    0 -0.39285542432E+02  0.29168602556E+01  0.21846120313E+02  0.46142302196E+02  0.99998580641E+01 0.  0.
         12    1    1    2    0    0  0.39285542432E+02 -0.29168602556E+01 -0.21846120313E+02  0.45045697804E+02  0.00000000000E+00 0. -1.
         11    1    3    3    0    0 -0.10298726749E+02 -0.14805345472E+00  0.88265828725E+01  0.13564448309E+02  0.51100000000E-03 0. -1.
        -11    1    3    3    0    0 -0.20345537119E+02  0.35099083520E+00  0.11561902312E+02  0.23403881314E+02  0.51100000000E-03 0.  1.
         12    1    3    3    0    0 -0.86412785647E+01  0.27139228751E+01  0.14576351285E+01  0.91739725731E+01  0.00000000000E+00 0. -1.
</event>
<event>
 7    1  0.1466590E-008  0.4614232E+02  0.7816164E-02  0.1320468E+00
        -11   -1    0    0    0    0  0.00000000000E+00  0.00000000000E+00  0.45593999997E+02  0.45594000000E+02  0.51100000000E-03 0.  1.
         11   -1    0    0    0    0 -0.00000000000E+00 -0.00000000000E+00 -0.45593999997E+02  0.45594000000E+02  0.51100000000E-03 0. -1.
    9900012    2    1    2    0    0 -0.39376325148E+02 -0.16986217532E+02 -0.13787200186E+02  0.46142318107E+02  0.10000003158E+02 0.  0.
         12    1    1    2    0    0  0.39376325148E+02  0.16986217532E+02  0.13787200186E+02  0.45045681893E+02  0.00000000000E+00 0. -1.
         11    1    3    3    0    0 -0.93282716911E+01 -0.20226757410E+01 -0.70103044131E+01  0.11842813776E+02  0.51100000000E-03 0. -1.
        -11    1    3    3    0    0 -0.17054615230E+02 -0.93484967202E+01 -0.33405684938E+01  0.19733567586E+02  0.51100000000E-03 0.  1.
         12    1    3    3    0    0 -0.12993438227E+02 -0.56150450712E+01 -0.34363272788E+01  0.14565936745E+02  0.00000000000E+00 0. -1.
</event>
<event>
 7    1  0.1466590E-008  0.4614232E+02  0.7816164E-02  0.1320468E+00
        -11   -1    0    0    0    0  0.00000000000E+00  0.00000000000E+00  0.45593999997E+02  0.45594000000E+02  0.51100000000E-03 0. -1.
         11   -1    0    0    0    0 -0.00000000000E+00 -0.00000000000E+00 -0.45593999997E+02  0.45594000000E+02  0.51100000000E-03 0.  1.
    9900012    2    1    2    0    0 -0.18231753470E+02  0.36071557133E+02 -0.19888676312E+02  0.46142317476E+02  0.99999974033E+01 0.  0.
         12    1    1    2    0    0  0.18231753470E+02 -0.36071557133E+02  0.19888676312E+02  0.45045682524E+02  0.00000000000E+00 0. -1.
         11    1    3    3    0    0 -0.32168011020E+01  0.29398624182E+01 -0.43905710625E+01  0.61860904361E+01  0.51100000000E-03 0. -1.
        -11    1    3    3    0    0 -0.96595878443E+01  0.22340976804E+02 -0.73966670661E+01  0.25438898675E+02  0.51100000000E-03 0.  1.
        -12    1    3    3    0    0 -0.53553645234E+01  0.10790717911E+02 -0.81014381837E+01  0.14517328365E+02  0.00000000000E+00 0.  1.
</event>
<event>
 7    1  0.1466590E-008  0.4614232E+02  0.7816164E-02  0.1320468E+00
        -11   -1    0    0    0    0  0.00000000000E+00  0.00000000000E+00  0.45593999997E+02  0.45594000000E+02  0.51100000000E-03 0.  1.
         11   -1    0    0    0    0 -0.00000000000E+00 -0.00000000000E+00 -0.45593999997E+02  0.45594000000E+02  0.51100000000E-03 0. -1.
    9900012    2    1    2    0    0  0.36656469549E+01  0.26198853091E+02  0.36459519238E+02  0.46142318587E+02  0.10000007531E+02 0.  0.
         12    1    1    2    0    0 -0.36656469549E+01 -0.26198853091E+02 -0.36459519238E+02  0.45045681413E+02  0.00000000000E+00 0. -1.
         11    1    3    3    0    0  0.57136240557E+00  0.55979267225E+01  0.25683740017E+01  0.61854493662E+01  0.51100000000E-03 0. -1.
        -11    1    3    3    0    0  0.77705802939E-01  0.73987082129E+01  0.14847022850E+02  0.16588580686E+02  0.51100000000E-03 0.  1.
         12    1    3    3    0    0  0.30165787464E+01  0.13202218156E+02  0.19044122386E+02  0.23368288534E+02  0.00000000000E+00 0. -1.
</event>
<event>
 7    1  0.1466590E-008  0.4614232E+02  0.7816164E-02  0.1320468E+00
        -11   -1    0    0    0    0  0.00000000000E+00  0.00000000000E+00  0.45593999997E+02  0.45594000000E+02  0.51100000000E-03 0.  1.
         11   -1    0    0    0    0 -0.00000000000E+00 -0.00000000000E+00 -0.45593999997E+02  0.45594000000E+02  0.51100000000E-03 0. -1.
    9900012    2    1    2    0    0  0.32961016847E+02 -0.30492113105E+02  0.35938678550E+01  0.46142317861E+02  0.10000000912E+02 0.  0.
         12    1    1    2    0    0 -0.32961016847E+02  0.30492113105E+02 -0.35938678550E+01  0.45045682139E+02  0.00000000000E+00 0. -1.
         11    1    3    3    0    0  0.32474718958E+01 -0.43919720596E+00  0.74587467300E+00  0.33608476890E+01  0.51100000000E-03 0. -1.
        -11    1    3    3    0    0  0.27646273802E+02 -0.26341051540E+02  0.39569261898E+01  0.38390424803E+02  0.51100000000E-03 0.  1.
         12    1    3    3    0    0  0.20672711491E+01 -0.37118643587E+01 -0.11089330078E+01  0.43910453695E+01  0.00000000000E+00 0. -1.
</event>
<event>
 7    1  0.1466590E-008  0.4614232E+02  0.7816164E-02  0.1320468E+00
        -11   -1    0    0    0    0  0.00000000000E+00  0.00000000000E+00  0.45593999997E+02  0.45594000000E+02  0.51100000000E-03 0.  1.
         11   -1    0    0    0    0 -0.00000000000E+00 -0.00000000000E+00 -0.45593999997E+02  0.45594000000E+02  0.51100000000E-03 0. -1.
    9900012    2    1    2    0    0  0.82225471496E+01 -0.15609973549E+02  0.41446738875E+02  0.46142315199E+02  0.99999766340E+01 0.  0.
         12    1    1    2    0    0 -0.82225471496E+01  0.15609973549E+02 -0.41446738875E+02  0.45045684801E+02  0.00000000000E+00 0. -1.
         11    1    3    3    0    0  0.12972817171E+01 -0.69114240900E+01  0.19855284783E+02  0.21063785435E+02  0.51100000000E-03 0. -1.
        -11    1    3    3    0    0  0.51790357792E+01 -0.34995445989E+01  0.16301057036E+02  0.17458341409E+02  0.51100000000E-03 0.  1.
         12    1    3    3    0    0  0.17462296533E+01 -0.51990048603E+01  0.52903970562E+01  0.76201883540E+01  0.00000000000E+00 0. -1.
</event>
<event>
 7    1  0.1466590E-008  0.4614232E+02  0.7816164E-02  0.1320468E+00
        -11   -1    0    0    0    0  0.00000000000E+00  0.00000000000E+00  0.45593999997E+02  0.45594000000E+02  0.51100000000E-03 0.  1.
         11   -1    0    0    0    0 -0.00000000000E+00 -0.00000000000E+00 -0.45593999997E+02  0.45594000000E+02  0.51100000000E-03 0. -1.
    9900012    2    1    2    0    0  0.43940120263E+02  0.32616786765E+01 -0.93669951217E+01  0.46142319695E+02  0.10000017634E+02 0.  0.
         12    1    1    2    0    0 -0.43940120263E+02 -0.32616786765E+01  0.93669951217E+01  0.45045680305E+02  0.00000000000E+00 0. -1.
         11    1    3    3    0    0  0.31418289901E+02 -0.17239108486E+01 -0.66168743796E+01  0.32153753058E+02  0.51100000000E-03 0.  1.
        -11    1    3    3    0    0  0.10959278194E+02  0.39484580375E+01 -0.15245609200E+01  0.11748207764E+02  0.51100000000E-03 0. -1.
        -12    1    3    3    0    0  0.15625521690E+01  0.10371314876E+01 -0.12255598221E+01  0.22403588733E+01  0.00000000000E+00 0.  1.
</event>
<event>
 7    1  0.1466590E-008  0.4614232E+02  0.7816164E-02  0.1320468E+00
        -11   -1    0    0    0    0  0.00000000000E+00  0.00000000000E+00  0.45593999997E+02  0.45594000000E+02  0.51100000000E-03 0.  1.
         11   -1    0    0    0    0 -0.00000000000E+00 -0.00000000000E+00 -0.45593999997E+02  0.45594000000E+02  0.51100000000E-03 0. -1.
    9900012    2    1    2    0    0  0.23557117876E+02 -0.25664127265E+02  0.28557455623E+02  0.46142317603E+02  0.99999985619E+01 0.  0.
         12    1    1    2    0    0 -0.23557117876E+02  0.25664127265E+02 -0.28557455623E+02  0.45045682397E+02  0.00000000000E+00 0. -1.
         11    1    3    3    0    0  0.12354922254E+01 -0.33091402548E+01  0.38091250331E+01  0.51948324366E+01  0.51100000000E-03 0. -1.
        -11    1    3    3    0    0  0.14757336342E+02 -0.19496597767E+02  0.17295133202E+02  0.29950257647E+02  0.51100000000E-03 0.  1.
        -12    1    3    3    0    0  0.75642893086E+01 -0.28583892431E+01  0.74531973881E+01  0.10997227520E+02  0.00000000000E+00 0.  1.
</event>
<event>
 7    1  0.1466590E-008  0.4614233E+02  0.7816164E-02  0.1320468E+00
        -11   -1    0    0    0    0  0.00000000000E+00  0.00000000000E+00  0.45593999997E+02  0.45594000000E+02  0.51100000000E-03 0.  1.
         11   -1    0    0    0    0 -0.00000000000E+00 -0.00000000000E+00 -0.45593999997E+02  0.45594000000E+02  0.51100000000E-03 0. -1.
    9900012    2    1    2    0    0 -0.23307072897E+02  0.13379379329E+02  0.36150867917E+02  0.46142326629E+02  0.10000080867E+02 0.  0.
         12    1    1    2    0    0  0.23307072897E+02 -0.13379379329E+02 -0.36150867917E+02  0.45045673371E+02  0.00000000000E+00 0. -1.
         11    1    3    3    0    0 -0.44034335138E+01  0.38277783058E+01  0.13931325785E+02  0.15103772769E+02  0.51100000000E-03 0. -1.
        -11    1    3    3    0    0 -0.13156810643E+02  0.80788426309E+01  0.18229742841E+02  0.23889179326E+02  0.51100000000E-03 0.  1.
         12    1    3    3    0    0 -0.57468287400E+01  0.14727583927E+01  0.39897992905E+01  0.71493745341E+01  0.00000000000E+00 0. -1.
</event>
<event>
 7    1  0.1466590E-008  0.4614232E+02  0.7816164E-02  0.1320468E+00
        -11   -1    0    0    0    0  0.00000000000E+00  0.00000000000E+00  0.45593999997E+02  0.45594000000E+02  0.51100000000E-03 0.  1.
         11   -1    0    0    0    0 -0.00000000000E+00 -0.00000000000E+00 -0.45593999997E+02  0.45594000000E+02  0.51100000000E-03 0. -1.
    9900012    2    1    2    0    0  0.41205569067E+02  0.10459392060E+02  0.14893478430E+02  0.46142317586E+02  0.99999983995E+01 0.  0.
         12    1    1    2    0    0 -0.41205569067E+02 -0.10459392060E+02 -0.14893478430E+02  0.45045682414E+02  0.00000000000E+00 0. -1.
         11    1    3    3    0    0  0.87021856949E+01  0.58248131412E+00  0.30315302905E+01  0.92334986063E+01  0.51100000000E-03 0. -1.
        -11    1    3    3    0    0  0.18944941709E+02  0.63898018293E+01  0.26936249823E+01  0.20174141855E+02  0.51100000000E-03 0.  1.
        -12    1    3    3    0    0  0.13558441663E+02  0.34871089163E+01  0.91683231574E+01  0.16734677124E+02  0.00000000000E+00 0.  1.
</event>
<event>
 7    1  0.1466590E-008  0.4614231E+02  0.7816164E-02  0.1320468E+00
        -11   -1    0    0    0    0  0.00000000000E+00  0.00000000000E+00  0.45593999997E+02  0.45594000000E+02  0.51100000000E-03 0.  1.
         11   -1    0    0    0    0 -0.00000000000E+00 -0.00000000000E+00 -0.45593999997E+02  0.45594000000E+02  0.51100000000E-03 0. -1.
    9900012    2    1    2    0    0 -0.40011729023E+02 -0.20584954184E+02 -0.21059980153E+01  0.46142311795E+02  0.99999455969E+01 0.  0.
         12    1    1    2    0    0  0.40011729023E+02  0.20584954184E+02  0.21059980153E+01  0.45045688205E+02  0.00000000000E+00 0. -1.
         11    1    3    3    0    0 -0.34515564906E+02 -0.15931330266E+02 -0.37018478914E+01  0.38194700979E+02  0.51100000000E-03 0. -1.
        -11    1    3    3    0    0 -0.32930416212E+01 -0.31440088869E+01 -0.46167135877E+00  0.45762490868E+01  0.51100000000E-03 0.  1.
         12    1    3    3    0    0 -0.22031224968E+01 -0.15096150317E+01  0.20575212349E+01  0.33713617296E+01  0.00000000000E+00 0. -1.
</event>
<event>
 7    1  0.1466590E-008  0.4614232E+02  0.7816164E-02  0.1320468E+00
        -11   -1    0    0    0    0  0.00000000000E+00  0.00000000000E+00  0.45593999997E+02  0.45594000000E+02  0.51100000000E-03 0. -1.
         11   -1    0    0    0    0 -0.00000000000E+00 -0.00000000000E+00 -0.45593999997E+02  0.45594000000E+02  0.51100000000E-03 0.  1.
    9900012    2    1    2    0    0  0.13634371967E+02  0.33647798859E+02 -0.26665391459E+02  0.46142316870E+02  0.99999918746E+01 0.  0.
         12    1    1    2    0    0 -0.13634371967E+02 -0.33647798859E+02  0.26665391459E+02  0.45045683130E+02  0.00000000000E+00 0. -1.
         11    1    3    3    0    0  0.92492410945E+01  0.19955118130E+02 -0.11527676251E+02  0.24832287861E+02  0.51100000000E-03 0. -1.
        -11    1    3    3    0    0  0.38755843709E+01  0.10781231416E+02 -0.92600694236E+01  0.14731055327E+02  0.51100000000E-03 0.  1.
         12    1    3    3    0    0  0.50954650166E+00  0.29114493131E+01 -0.58776457846E+01  0.65789736820E+01  0.00000000000E+00 0. -1.
</event>
<event>
 7    1  0.1466590E-008  0.4614232E+02  0.7816164E-02  0.1320468E+00
        -11   -1    0    0    0    0  0.00000000000E+00  0.00000000000E+00  0.45593999997E+02  0.45594000000E+02  0.51100000000E-03 0.  1.
         11   -1    0    0    0    0 -0.00000000000E+00 -0.00000000000E+00 -0.45593999997E+02  0.45594000000E+02  0.51100000000E-03 0. -1.
    9900012    2    1    2    0    0  0.14585906719E+02 -0.19755295476E+02  0.37763648873E+02  0.46142317073E+02  0.99999937282E+01 0.  0.
         12    1    1    2    0    0 -0.14585906719E+02  0.19755295476E+02 -0.37763648873E+02  0.45045682927E+02  0.00000000000E+00 0. -1.
         11    1    3    3    0    0  0.21483979478E+01  0.39164627463E-01  0.75559633398E+01  0.78555540775E+01  0.51100000000E-03 0. -1.
        -11    1    3    3    0    0  0.83871814396E+01 -0.10926330022E+02  0.17589018007E+02  0.22340614471E+02  0.51100000000E-03 0.  1.
         12    1    3    3    0    0  0.40503273313E+01 -0.88681300816E+01  0.12618667526E+02  0.15946148524E+02  0.00000000000E+00 0. -1.
</event>
<event>
 7    1  0.1466590E-008  0.4614232E+02  0.7816164E-02  0.1320468E+00
        -11   -1    0    0    0    0  0.00000000000E+00  0.00000000000E+00  0.45593999997E+02  0.45594000000E+02  0.51100000000E-03 0.  1.
         11   -1    0    0    0    0 -0.00000000000E+00 -0.00000000000E+00 -0.45593999997E+02  0.45594000000E+02  0.51100000000E-03 0. -1.
    9900012    2    1    2    0    0 -0.43614518589E+02  0.69194881074E+01  0.88886408505E+01  0.46142317814E+02  0.10000000486E+02 0.  0.
         12    1    1    2    0    0  0.43614518589E+02 -0.69194881074E+01 -0.88886408505E+01  0.45045682186E+02  0.00000000000E+00 0. -1.
         11    1    3    3    0    0 -0.73421541211E+01 -0.13346005246E+01  0.16926127485E+01  0.76520143672E+01  0.51100000000E-03 0. -1.
        -11    1    3    3    0    0 -0.16982632661E+02  0.70263726062E+01  0.20812305350E+01  0.18496249482E+02  0.51100000000E-03 0.  1.
        -12    1    3    3    0    0 -0.19289731807E+02  0.12277160258E+01  0.51147975670E+01  0.19994053965E+02  0.00000000000E+00 0.  1.
</event>
<event>
 7    1  0.1466590E-008  0.4614232E+02  0.7816164E-02  0.1320468E+00
        -11   -1    0    0    0    0  0.00000000000E+00  0.00000000000E+00  0.45593999997E+02  0.45594000000E+02  0.51100000000E-03 0.  1.
         11   -1    0    0    0    0 -0.00000000000E+00 -0.00000000000E+00 -0.45593999997E+02  0.45594000000E+02  0.51100000000E-03 0. -1.
    9900012    2    1    2    0    0  0.43964350088E+02  0.82649937527E+01  0.52857825340E+01  0.46142315441E+02  0.99999788460E+01 0.  0.
         12    1    1    2    0    0 -0.43964350088E+02 -0.82649937527E+01 -0.52857825340E+01  0.45045684559E+02  0.00000000000E+00 0. -1.
         11    1    3    3    0    0  0.34005568426E+01  0.35603839188E+00 -0.14441693853E+01  0.37116270894E+01  0.51100000000E-03 0. -1.
        -11    1    3    3    0    0  0.68711970890E+01 -0.66838808378E+00  0.27701171722E+01  0.74386585804E+01  0.51100000000E-03 0.  1.
         12    1    3    3    0    0  0.33692596156E+02  0.85773434446E+01  0.39598347471E+01  0.34992029771E+02  0.00000000000E+00 0. -1.
</event>
<event>
 7    1  0.1466590E-008  0.4614232E+02  0.7816164E-02  0.1320468E+00
        -11   -1    0    0    0    0  0.00000000000E+00  0.00000000000E+00  0.45593999997E+02  0.45594000000E+02  0.51100000000E-03 0.  1.
         11   -1    0    0    0    0 -0.00000000000E+00 -0.00000000000E+00 -0.45593999997E+02  0.45594000000E+02  0.51100000000E-03 0. -1.
    9900012    2    1    2    0    0  0.40583452752E+00  0.49242182678E+01  0.44773884757E+02  0.46142318925E+02  0.10000010617E+02 0.  0.
         12    1    1    2    0    0 -0.40583452752E+00 -0.49242182678E+01 -0.44773884757E+02  0.45045681075E+02  0.00000000000E+00 0. -1.
         11    1    3    3    0    0  0.19787253066E+01  0.59873182120E+01  0.20869191138E+02  0.21801065851E+02  0.51100000000E-03 0. -1.
        -11    1    3    3    0    0  0.38819665449E+00  0.74251670778E-01  0.18176024243E+02  0.18180320886E+02  0.51100000000E-03 0.  1.
        -12    1    3    3    0    0 -0.19610874336E+01 -0.11373516150E+01  0.57286693759E+01  0.61609321889E+01  0.00000000000E+00 0.  1.
</event>
<event>
 7    1  0.1466590E-008  0.4614232E+02  0.7816164E-02  0.1320468E+00
        -11   -1    0    0    0    0  0.00000000000E+00  0.00000000000E+00  0.45593999997E+02  0.45594000000E+02  0.51100000000E-03 0.  1.
         11   -1    0    0    0    0 -0.00000000000E+00 -0.00000000000E+00 -0.45593999997E+02  0.45594000000E+02  0.51100000000E-03 0. -1.
    9900012    2    1    2    0    0  0.15941036779E+02  0.19234879540E+02  0.37483546554E+02  0.46142317557E+02  0.99999981389E+01 0.  0.
         12    1    1    2    0    0 -0.15941036779E+02 -0.19234879540E+02 -0.37483546554E+02  0.45045682443E+02  0.00000000000E+00 0. -1.
         11    1    3    3    0    0  0.34659193451E+01  0.98094173423E+01  0.10607684138E+02  0.14858002171E+02  0.51100000000E-03 0. -1.
        -11    1    3    3    0    0  0.11688823156E+02  0.78412265199E+01  0.22209409056E+02  0.26293939815E+02  0.51100000000E-03 0.  1.
        -12    1    3    3    0    0  0.78629427769E+00  0.15842356779E+01  0.46664533597E+01  0.49903755703E+01  0.00000000000E+00 0.  1.
</event>
<event>
 7    1  0.1466590E-008  0.4614232E+02  0.7816164E-02  0.1320468E+00
        -11   -1    0    0    0    0  0.00000000000E+00  0.00000000000E+00  0.45593999997E+02  0.45594000000E+02  0.51100000000E-03 0.  1.
         11   -1    0    0    0    0 -0.00000000000E+00 -0.00000000000E+00 -0.45593999997E+02  0.45594000000E+02  0.51100000000E-03 0. -1.
    9900012    2    1    2    0    0 -0.30056780735E+02 -0.26180134178E+02  0.20983423612E+02  0.46142316964E+02  0.99999927321E+01 0.  0.
         12    1    1    2    0    0  0.30056780735E+02  0.26180134178E+02 -0.20983423612E+02  0.45045683036E+02  0.00000000000E+00 0. -1.
         11    1    3    3    0    0 -0.14417606026E+02 -0.84769786173E+01  0.10756095048E+02  0.19885173143E+02  0.51100000000E-03 0. -1.
        -11    1    3    3    0    0 -0.69386000788E+01 -0.42778293126E+01  0.41153101563E+01  0.91312525222E+01  0.51100000000E-03 0.  1.
         12    1    3    3    0    0 -0.87005746297E+01 -0.13425326248E+02  0.61120184078E+01  0.17125891299E+02  0.00000000000E+00 0. -1.
</event>
<event>
 7    1  0.1466590E-008  0.4614232E+02  0.7816164E-02  0.1320468E+00
        -11   -1    0    0    0    0  0.00000000000E+00  0.00000000000E+00  0.45593999997E+02  0.45594000000E+02  0.51100000000E-03 0. -1.
         11   -1    0    0    0    0 -0.00000000000E+00 -0.00000000000E+00 -0.45593999997E+02  0.45594000000E+02  0.51100000000E-03 0.  1.
    9900012    2    1    2    0    0 -0.10229799061E+02 -0.20838925973E+02  0.38603158275E+02  0.46142318150E+02  0.10000003547E+02 0.  0.
         12    1    1    2    0    0  0.10229799061E+02  0.20838925973E+02 -0.38603158275E+02  0.45045681850E+02  0.00000000000E+00 0. -1.
         11    1    3    3    0    0 -0.10009193329E+01 -0.20241837154E+01  0.10354629843E+01  0.24842188063E+01  0.51100000000E-03 0.  1.
        -11    1    3    3    0    0 -0.96770772502E+00 -0.57976633520E+01  0.16762375661E+02  0.17763068334E+02  0.51100000000E-03 0. -1.
        -12    1    3    3    0    0 -0.82611720029E+01 -0.13017078906E+02  0.20805319630E+02  0.25895031010E+02  0.00000000000E+00 0.  1.
</event>
<event>
 7    1  0.1466590E-008  0.4614232E+02  0.7816164E-02  0.1320468E+00
        -11   -1    0    0    0    0  0.00000000000E+00  0.00000000000E+00  0.45593999997E+02  0.45594000000E+02  0.51100000000E-03 0.  1.
         11   -1    0    0    0    0 -0.00000000000E+00 -0.00000000000E+00 -0.45593999997E+02  0.45594000000E+02  0.51100000000E-03 0. -1.
    9900012    2    1    2    0    0  0.29762260301E+01 -0.44587267316E+02 -0.56772416780E+01  0.46142318729E+02  0.10000008824E+02 0.  0.
         12    1    1    2    0    0 -0.29762260301E+01  0.44587267316E+02  0.56772416780E+01  0.45045681271E+02  0.00000000000E+00 0. -1.
         11    1    3    3    0    0  0.79839409750E-01 -0.11188434708E+01 -0.19910319970E+01  0.22852557226E+01  0.51100000000E-03 0. -1.
        -11    1    3    3    0    0  0.32914183706E+01 -0.40735012237E+02 -0.28302664980E+01  0.40965657147E+02  0.51100000000E-03 0.  1.
         12    1    3    3    0    0 -0.39503175023E+00 -0.27334116090E+01 -0.85594318300E+00  0.28914058588E+01  0.00000000000E+00 0. -1.
</event>
<event>
 7    1  0.1466590E-008  0.4614232E+02  0.7816164E-02  0.1320468E+00
        -11   -1    0    0    0    0  0.00000000000E+00  0.00000000000E+00  0.45593999997E+02  0.45594000000E+02  0.51100000000E-03 0.  1.
         11   -1    0    0    0    0 -0.00000000000E+00 -0.00000000000E+00 -0.45593999997E+02  0.45594000000E+02  0.51100000000E-03 0. -1.
    9900012    2    1    2    0    0  0.23893387551E+02 -0.28947374496E+02  0.24905200057E+02  0.46142318201E+02  0.10000004009E+02 0.  0.
         12    1    1    2    0    0 -0.23893387551E+02  0.28947374496E+02 -0.24905200057E+02  0.45045681799E+02  0.00000000000E+00 0. -1.
         11    1    3    3    0    0 -0.11954992935E+00 -0.10365016491E+01  0.18749458950E+00  0.10600860043E+01  0.51100000000E-03 0. -1.
        -11    1    3    3    0    0  0.23700870576E+02 -0.26214188168E+02  0.21323493560E+02  0.41274765963E+02  0.51100000000E-03 0.  1.
        -12    1    3    3    0    0  0.31206690453E+00 -0.16966846785E+01  0.33942119070E+01  0.38074662337E+01  0.00000000000E+00 0.  1.
</event>
<event>
 7    1  0.1466590E-008  0.4614232E+02  0.7816164E-02  0.1320468E+00
        -11   -1    0    0    0    0  0.00000000000E+00  0.00000000000E+00  0.45593999997E+02  0.45594000000E+02  0.51100000000E-03 0.  1.
         11   -1    0    0    0    0 -0.00000000000E+00 -0.00000000000E+00 -0.45593999997E+02  0.45594000000E+02  0.51100000000E-03 0. -1.
    9900012    2    1    2    0    0  0.17945967540E+01 -0.44746342881E+02  0.48639183805E+01  0.46142317846E+02  0.10000000772E+02 0.  0.
         12    1    1    2    0    0 -0.17945967540E+01  0.44746342881E+02 -0.48639183805E+01  0.45045682154E+02  0.00000000000E+00 0. -1.
         11    1    3    3    0    0  0.17930101528E+01 -0.12042294376E+02  0.54220905043E+01  0.13327820712E+02  0.51100000000E-03 0. -1.
        -11    1    3    3    0    0 -0.36032220553E+00 -0.56691366308E+01 -0.10292133877E+01  0.57730600802E+01  0.51100000000E-03 0.  1.
         12    1    3    3    0    0  0.36190880676E+00 -0.27034911875E+02  0.47104126393E+00  0.27041437054E+02  0.00000000000E+00 0. -1.
</event>
<event>
 7    1  0.1466590E-008  0.4614232E+02  0.7816164E-02  0.1320468E+00
        -11   -1    0    0    0    0  0.00000000000E+00  0.00000000000E+00  0.45593999997E+02  0.45594000000E+02  0.51100000000E-03 0.  1.
         11   -1    0    0    0    0 -0.00000000000E+00 -0.00000000000E+00 -0.45593999997E+02  0.45594000000E+02  0.51100000000E-03 0. -1.
    9900012    2    1    2    0    0 -0.23234779597E+01 -0.59721641817E+01  0.44587533959E+02  0.46142317861E+02  0.10000000912E+02 0.  0.
         12    1    1    2    0    0  0.23234779597E+01  0.59721641817E+01 -0.44587533959E+02  0.45045682139E+02  0.00000000000E+00 0. -1.
         11    1    3    3    0    0 -0.22256254783E+01 -0.27457078127E+01  0.80030364930E+01  0.87487664005E+01  0.51100000000E-03 0. -1.
        -11    1    3    3    0    0  0.25699742240E+01 -0.32417137145E+01  0.30080822579E+02  0.30363948403E+02  0.51100000000E-03 0.  1.
        -12    1    3    3    0    0 -0.26678267054E+01  0.15257345556E-01  0.65036748868E+01  0.70296030578E+01  0.00000000000E+00 0.  1.
</event>
<event>
 7    1  0.1466590E-008  0.4614233E+02  0.7816164E-02  0.1320468E+00
        -11   -1    0    0    0    0  0.00000000000E+00  0.00000000000E+00  0.45593999997E+02  0.45594000000E+02  0.51100000000E-03 0.  1.
         11   -1    0    0    0    0 -0.00000000000E+00 -0.00000000000E+00 -0.45593999997E+02  0.45594000000E+02  0.51100000000E-03 0. -1.
    9900012    2    1    2    0    0 -0.31067338796E+02 -0.11596795878E+02  0.30486837636E+02  0.46142328915E+02  0.10000101706E+02 0.  0.
         12    1    1    2    0    0  0.31067338796E+02  0.11596795878E+02 -0.30486837636E+02  0.45045671085E+02  0.00000000000E+00 0. -1.
         11    1    3    3    0    0 -0.70747313908E+01  0.10408527305E+01  0.41773684032E+01  0.82816426930E+01  0.51100000000E-03 0. -1.
        -11    1    3    3    0    0 -0.19070187913E+02 -0.11063316897E+02  0.20889332566E+02  0.30371586444E+02  0.51100000000E-03 0.  1.
         12    1    3    3    0    0 -0.49224194924E+01 -0.15743317115E+01  0.54201366661E+01  0.74890997774E+01  0.00000000000E+00 0. -1.
</event>
<event>
 7    1  0.1466590E-008  0.4614232E+02  0.7816164E-02  0.1320468E+00
        -11   -1    0    0    0    0  0.00000000000E+00  0.00000000000E+00  0.45593999997E+02  0.45594000000E+02  0.51100000000E-03 0. -1.
         11   -1    0    0    0    0 -0.00000000000E+00 -0.00000000000E+00 -0.45593999997E+02  0.45594000000E+02  0.51100000000E-03 0.  1.
    9900012    2    1    2    0    0 -0.17165707403E+02 -0.30531995748E+02 -0.28324005282E+02  0.46142317075E+02  0.99999937390E+01 0.  0.
         12    1    1    2    0    0  0.17165707403E+02  0.30531995748E+02  0.28324005282E+02  0.45045682925E+02  0.00000000000E+00 0. -1.
         11    1    3    3    0    0 -0.35401546297E+01 -0.68122858639E+01 -0.87253220430E+01  0.11622012670E+02  0.51100000000E-03 0. -1.
        -11    1    3    3    0    0 -0.12685940737E+02 -0.22969985808E+02 -0.20257117539E+02  0.33149723252E+02  0.51100000000E-03 0.  1.
         12    1    3    3    0    0 -0.93961203574E+00 -0.74972407618E+00  0.65843429994E+00  0.13705811524E+01  0.00000000000E+00 0. -1.
</event>
<event>
 7    1  0.1466590E-008  0.4614232E+02  0.7816164E-02  0.1320468E+00
        -11   -1    0    0    0    0  0.00000000000E+00  0.00000000000E+00  0.45593999997E+02  0.45594000000E+02  0.51100000000E-03 0.  1.
         11   -1    0    0    0    0 -0.00000000000E+00 -0.00000000000E+00 -0.45593999997E+02  0.45594000000E+02  0.51100000000E-03 0. -1.
    9900012    2    1    2    0    0 -0.69889677822E-02  0.40314803929E+02  0.20095523729E+02  0.46142317203E+02  0.99999949092E+01 0.  0.
         12    1    1    2    0    0  0.69889677822E-02 -0.40314803929E+02 -0.20095523729E+02  0.45045682797E+02  0.00000000000E+00 0. -1.
         11    1    3    3    0    0  0.82127482658E+00  0.95003810672E+01  0.81177866067E+01  0.12523186193E+02  0.51100000000E-03 0. -1.
        -11    1    3    3    0    0  0.23192959179E+01  0.19584040562E+02  0.68254048588E+01  0.20868635078E+02  0.51100000000E-03 0.  1.
         12    1    3    3    0    0 -0.31475597123E+01  0.11230382301E+02  0.51523322638E+01  0.12750495932E+02  0.00000000000E+00 0. -1.
</event>
<event>
 7    1  0.1466590E-008  0.4614232E+02  0.7816164E-02  0.1320468E+00
        -11   -1    0    0    0    0  0.00000000000E+00  0.00000000000E+00  0.45593999997E+02  0.45594000000E+02  0.51100000000E-03 0. -1.
         11   -1    0    0    0    0 -0.00000000000E+00 -0.00000000000E+00 -0.45593999997E+02  0.45594000000E+02  0.51100000000E-03 0.  1.
    9900012    2    1    2    0    0  0.10465127389E+02  0.39395014624E+02 -0.19173603224E+02  0.46142321749E+02  0.10000036367E+02 0.  0.
         12    1    1    2    0    0 -0.10465127389E+02 -0.39395014624E+02  0.19173603224E+02  0.45045678251E+02  0.00000000000E+00 0. -1.
         11    1    3    3    0    0  0.30685056175E+00  0.13496868178E+02 -0.63273189215E+01  0.14909546368E+02  0.51100000000E-03 0. -1.
        -11    1    3    3    0    0  0.84419255240E+00  0.98791750737E+01 -0.38774062102E+01  0.10646362777E+02  0.51100000000E-03 0.  1.
         12    1    3    3    0    0  0.93140842753E+01  0.16018971372E+02 -0.89688780923E+01  0.20586412605E+02  0.00000000000E+00 0. -1.
</event>
<event>
 7    1  0.1466590E-008  0.4614232E+02  0.7816164E-02  0.1320468E+00
        -11   -1    0    0    0    0  0.00000000000E+00  0.00000000000E+00  0.45593999997E+02  0.45594000000E+02  0.51100000000E-03 0. -1.
         11   -1    0    0    0    0 -0.00000000000E+00 -0.00000000000E+00 -0.45593999997E+02  0.45594000000E+02  0.51100000000E-03 0.  1.
    9900012    2    1    2    0    0 -0.16885750139E+02  0.38885897498E+02 -0.15227339541E+02  0.46142318171E+02  0.10000003734E+02 0.  0.
         12    1    1    2    0    0  0.16885750139E+02 -0.38885897498E+02  0.15227339541E+02  0.45045681829E+02  0.00000000000E+00 0. -1.
         11    1    3    3    0    0 -0.44095726395E+01  0.17872670941E+02 -0.37302417928E+01  0.18782742120E+02  0.51100000000E-03 0. -1.
        -11    1    3    3    0    0 -0.11012699047E+02  0.19792672392E+02 -0.11606580268E+02  0.25450778504E+02  0.51100000000E-03 0.  1.
        -12    1    3    3    0    0 -0.14634784527E+01  0.12205541649E+01  0.10948251971E+00  0.19087975464E+01  0.00000000000E+00 0.  1.
</event>
<event>
 7    1  0.1466590E-008  0.4614232E+02  0.7816164E-02  0.1320468E+00
        -11   -1    0    0    0    0  0.00000000000E+00  0.00000000000E+00  0.45593999997E+02  0.45594000000E+02  0.51100000000E-03 0. -1.
         11   -1    0    0    0    0 -0.00000000000E+00 -0.00000000000E+00 -0.45593999997E+02  0.45594000000E+02  0.51100000000E-03 0.  1.
    9900012    2    1    2    0    0  0.17902121657E+02  0.39385356887E+02 -0.12546761545E+02  0.46142317385E+02  0.99999965699E+01 0.  0.
         12    1    1    2    0    0 -0.17902121657E+02 -0.39385356887E+02  0.12546761545E+02  0.45045682615E+02  0.00000000000E+00 0. -1.
         11    1    3    3    0    0  0.10700533542E+02  0.16802648055E+02 -0.55161838360E+01  0.20670236674E+02  0.51100000000E-03 0.  1.
        -11    1    3    3    0    0  0.20931733863E+01  0.10636285053E+01 -0.96346255304E+00  0.25379008599E+01  0.51100000000E-03 0. -1.
        -12    1    3    3    0    0  0.51084147288E+01  0.21519080327E+02 -0.60671151560E+01  0.22934179852E+02  0.00000000000E+00 0.  1.
</event>
<event>
 7    1  0.1466590E-008  0.4614232E+02  0.7816164E-02  0.1320468E+00
        -11   -1    0    0    0    0  0.00000000000E+00  0.00000000000E+00  0.45593999997E+02  0.45594000000E+02  0.51100000000E-03 0.  1.
         11   -1    0    0    0    0 -0.00000000000E+00 -0.00000000000E+00 -0.45593999997E+02  0.45594000000E+02  0.51100000000E-03 0. -1.
    9900012    2    1    2    0    0 -0.41565662016E+02 -0.64311226834E+00  0.17349227753E+02  0.46142317012E+02  0.99999931717E+01 0.  0.
         12    1    1    2    0    0  0.41565662016E+02  0.64311226834E+00 -0.17349227753E+02  0.45045682988E+02  0.00000000000E+00 0. -1.
         11    1    3    3    0    0 -0.28449240869E+01 -0.97658499167E+00 -0.11083446772E+01  0.32055794314E+01  0.51100000000E-03 0. -1.
        -11    1    3    3    0    0 -0.16746948591E+02 -0.75481233807E+00  0.82160434382E+01  0.18669049221E+02  0.51100000000E-03 0.  1.
         12    1    3    3    0    0 -0.21973789338E+02  0.10882850614E+01  0.10241528992E+02  0.24267688360E+02  0.00000000000E+00 0. -1.
</event>
<event>
 7    1  0.1466590E-008  0.4614232E+02  0.7816164E-02  0.1320468E+00
        -11   -1    0    0    0    0  0.00000000000E+00  0.00000000000E+00  0.45593999997E+02  0.45594000000E+02  0.51100000000E-03 0. -1.
         11   -1    0    0    0    0 -0.00000000000E+00 -0.00000000000E+00 -0.45593999997E+02  0.45594000000E+02  0.51100000000E-03 0.  1.
    9900012    2    1    2    0    0 -0.27834820360E+02  0.24953640130E+02 -0.25132694093E+02  0.46142315494E+02  0.99999793299E+01 0.  0.
         12    1    1    2    0    0  0.27834820360E+02 -0.24953640130E+02  0.25132694093E+02  0.45045684506E+02  0.00000000000E+00 0. -1.
         11    1    3    3    0    0 -0.22783968276E+02  0.22431274405E+02 -0.20746038810E+02  0.38113900462E+02  0.51100000000E-03 0. -1.
        -11    1    3    3    0    0 -0.30236324058E+01  0.78361006282E+00 -0.28850695550E+00  0.31368191182E+01  0.51100000000E-03 0.  1.
        -12    1    3    3    0    0 -0.20272196778E+01  0.17387556627E+01 -0.40981483277E+01  0.48915959146E+01  0.00000000000E+00 0.  1.
</event>
<event>
 7    1  0.1466590E-008  0.4614232E+02  0.7816164E-02  0.1320468E+00
        -11   -1    0    0    0    0  0.00000000000E+00  0.00000000000E+00  0.45593999997E+02  0.45594000000E+02  0.51100000000E-03 0. -1.
         11   -1    0    0    0    0 -0.00000000000E+00 -0.00000000000E+00 -0.45593999997E+02  0.45594000000E+02  0.51100000000E-03 0.  1.
    9900012    2    1    2    0    0 -0.32234931117E+02  0.22040872285E+02 -0.22454903426E+02  0.46142317376E+02  0.99999964897E+01 0.  0.
         12    1    1    2    0    0  0.32234931117E+02 -0.22040872285E+02  0.22454903426E+02  0.45045682624E+02  0.00000000000E+00 0. -1.
         11    1    3    3    0    0 -0.61970953748E+01  0.69311455486E+01 -0.72835110590E+01  0.11810770648E+02  0.51100000000E-03 0. -1.
        -11    1    3    3    0    0 -0.13687349074E+02  0.11162937093E+02 -0.10513244974E+02  0.20554391486E+02  0.51100000000E-03 0.  1.
         12    1    3    3    0    0 -0.12350486668E+02  0.39467896434E+01 -0.46581473932E+01  0.13777155242E+02  0.00000000000E+00 0. -1.
</event>
<event>
 7    1  0.1466590E-008  0.4614232E+02  0.7816164E-02  0.1320468E+00
        -11   -1    0    0    0    0  0.00000000000E+00  0.00000000000E+00  0.45593999997E+02  0.45594000000E+02  0.51100000000E-03 0.  1.
         11   -1    0    0    0    0 -0.00000000000E+00 -0.00000000000E+00 -0.45593999997E+02  0.45594000000E+02  0.51100000000E-03 0. -1.
    9900012    2    1    2    0    0 -0.23701781960E+02 -0.28495462251E+02  0.25599760831E+02  0.46142316616E+02  0.99999895555E+01 0.  0.
         12    1    1    2    0    0  0.23701781960E+02  0.28495462251E+02 -0.25599760831E+02  0.45045683384E+02  0.00000000000E+00 0. -1.
         11    1    3    3    0    0 -0.12076747098E+02 -0.11712768533E+02  0.67047170110E+01  0.18110494130E+02  0.51100000000E-03 0. -1.
        -11    1    3    3    0    0 -0.90814029908E+01 -0.11873625098E+02  0.11845682958E+02  0.19072888042E+02  0.51100000000E-03 0.  1.
         12    1    3    3    0    0 -0.25436318707E+01 -0.49090686206E+01  0.70493608619E+01  0.89589344443E+01  0.00000000000E+00 0. -1.
</event>
<event>
 7    1  0.1466590E-008  0.4614232E+02  0.7816164E-02  0.1320468E+00
        -11   -1    0    0    0    0  0.00000000000E+00  0.00000000000E+00  0.45593999997E+02  0.45594000000E+02  0.51100000000E-03 0.  1.
         11   -1    0    0    0    0 -0.00000000000E+00 -0.00000000000E+00 -0.45593999997E+02  0.45594000000E+02  0.51100000000E-03 0. -1.
    9900012    2    1    2    0    0  0.55987394387E+01 -0.37955172671E+02  0.23604499371E+02  0.46142318672E+02  0.10000008306E+02 0.  0.
         12    1    1    2    0    0 -0.55987394387E+01  0.37955172671E+02 -0.23604499371E+02  0.45045681328E+02  0.00000000000E+00 0. -1.
         11    1    3    3    0    0 -0.23427307591E+00 -0.47862571578E+00 -0.51411325125E+00  0.74045874033E+00  0.51100000000E-03 0. -1.
        -11    1    3    3    0    0  0.17496467916E+01 -0.27028238270E+02  0.18915212368E+02  0.33035922677E+02  0.51100000000E-03 0.  1.
        -12    1    3    3    0    0  0.40833657230E+01 -0.10448308685E+02  0.52034002537E+01  0.12365937255E+02  0.00000000000E+00 0.  1.
</event>
<event>
 7    1  0.1466590E-008  0.4614232E+02  0.7816164E-02  0.1320468E+00
        -11   -1    0    0    0    0  0.00000000000E+00  0.00000000000E+00  0.45593999997E+02  0.45594000000E+02  0.51100000000E-03 0. -1.
         11   -1    0    0    0    0 -0.00000000000E+00 -0.00000000000E+00 -0.45593999997E+02  0.45594000000E+02  0.51100000000E-03 0.  1.
    9900012    2    1    2    0    0 -0.42954496995E+02 -0.21928549303E+01 -0.13387161730E+02  0.46142317366E+02  0.99999963960E+01 0.  0.
         12    1    1    2    0    0  0.42954496995E+02  0.21928549303E+01  0.13387161730E+02  0.45045682634E+02  0.00000000000E+00 0. -1.
         11    1    3    3    0    0 -0.17112104541E+02 -0.56822979583E+00 -0.81654875486E+01  0.18968979785E+02  0.51100000000E-03 0. -1.
        -11    1    3    3    0    0 -0.19998400877E+02 -0.28728126934E+01 -0.61653989431E+01  0.21123475916E+02  0.51100000000E-03 0.  1.
         12    1    3    3    0    0 -0.58439915767E+01  0.12481875589E+01  0.94372476208E+00  0.60498616644E+01  0.00000000000E+00 0. -1.
</event>
<event>
 7    1  0.1466590E-008  0.4614232E+02  0.7816164E-02  0.1320468E+00
        -11   -1    0    0    0    0  0.00000000000E+00  0.00000000000E+00  0.45593999997E+02  0.45594000000E+02  0.51100000000E-03 0.  1.
         11   -1    0    0    0    0 -0.00000000000E+00 -0.00000000000E+00 -0.45593999997E+02  0.45594000000E+02  0.51100000000E-03 0. -1.
    9900012    2    1    2    0    0 -0.69491193855E+01  0.69100388396E+01  0.43966746413E+02  0.46142315555E+02  0.99999798802E+01 0.  0.
         12    1    1    2    0    0  0.69491193855E+01 -0.69100388396E+01 -0.43966746413E+02  0.45045684445E+02  0.00000000000E+00 0. -1.
         11    1    3    3    0    0  0.40309321254E+00  0.34292033988E+01  0.42557254079E+01  0.54802480872E+01  0.51100000000E-03 0. -1.
        -11    1    3    3    0    0 -0.59017692256E+01  0.40783306591E+01  0.32433911567E+02  0.33217800661E+02  0.51100000000E-03 0.  1.
        -12    1    3    3    0    0 -0.14504433724E+01 -0.59749521834E+00  0.72771094377E+01  0.74442668061E+01  0.00000000000E+00 0.  1.
</event>
<event>
 7    1  0.1466590E-008  0.4614232E+02  0.7816164E-02  0.1320468E+00
        -11   -1    0    0    0    0  0.00000000000E+00  0.00000000000E+00  0.45593999997E+02  0.45594000000E+02  0.51100000000E-03 0.  1.
         11   -1    0    0    0    0 -0.00000000000E+00 -0.00000000000E+00 -0.45593999997E+02  0.45594000000E+02  0.51100000000E-03 0. -1.
    9900012    2    1    2    0    0 -0.35184680857E+01  0.16253985105E+02  0.41863365627E+02  0.46142322837E+02  0.10000046286E+02 0.  0.
         12    1    1    2    0    0  0.35184680857E+01 -0.16253985105E+02 -0.41863365627E+02  0.45045677163E+02  0.00000000000E+00 0. -1.
         11    1    3    3    0    0 -0.33502955676E+00  0.50723336279E+00  0.74323726352E+01  0.74571907403E+01  0.51100000000E-03 0.  1.
        -11    1    3    3    0    0 -0.11495700753E+01  0.56644466696E+01  0.54934678653E+01  0.79740615046E+01  0.51100000000E-03 0. -1.
         12    1    3    3    0    0 -0.20338684536E+01  0.10082305072E+02  0.28937525127E+02  0.30711070592E+02  0.00000000000E+00 0. -1.
</event>
<event>
 7    1  0.1466590E-008  0.4614232E+02  0.7816164E-02  0.1320468E+00
        -11   -1    0    0    0    0  0.00000000000E+00  0.00000000000E+00  0.45593999997E+02  0.45594000000E+02  0.51100000000E-03 0.  1.
         11   -1    0    0    0    0 -0.00000000000E+00 -0.00000000000E+00 -0.45593999997E+02  0.45594000000E+02  0.51100000000E-03 0. -1.
    9900012    2    1    2    0    0  0.23858691553E+02 -0.82151619906E+01  0.37314703888E+02  0.46142321235E+02  0.10000031680E+02 0.  0.
         12    1    1    2    0    0 -0.23858691553E+02  0.82151619906E+01 -0.37314703888E+02  0.45045678765E+02  0.00000000000E+00 0. -1.
         11    1    3    3    0    0  0.17474179564E+02 -0.50394727220E+01  0.32811737532E+02  0.37514708541E+02  0.51100000000E-03 0. -1.
        -11    1    3    3    0    0  0.34480561867E+01 -0.93804527127E+00  0.15283529798E+01  0.38865001594E+01  0.51100000000E-03 0.  1.
         12    1    3    3    0    0  0.29364558017E+01 -0.22376439974E+01  0.29746133760E+01  0.47411125351E+01  0.00000000000E+00 0. -1.
</event>
<event>
 7    1  0.1466590E-008  0.4614232E+02  0.7816164E-02  0.1320468E+00
        -11   -1    0    0    0    0  0.00000000000E+00  0.00000000000E+00  0.45593999997E+02  0.45594000000E+02  0.51100000000E-03 0.  1.
         11   -1    0    0    0    0 -0.00000000000E+00 -0.00000000000E+00 -0.45593999997E+02  0.45594000000E+02  0.51100000000E-03 0. -1.
    9900012    2    1    2    0    0  0.31230350418E+01  0.27151882065E+02  0.35806919102E+02  0.46142317597E+02  0.99999985019E+01 0.  0.
         12    1    1    2    0    0 -0.31230350418E+01 -0.27151882065E+02 -0.35806919102E+02  0.45045682403E+02  0.00000000000E+00 0. -1.
         11    1    3    3    0    0  0.12929398067E+01  0.25678309033E+01  0.93472063254E+01  0.97793514735E+01  0.51100000000E-03 0. -1.
        -11    1    3    3    0    0  0.17024005088E+01  0.10722663549E+02  0.92369676552E+01  0.14254657232E+02  0.51100000000E-03 0.  1.
        -12    1    3    3    0    0  0.12769472623E+00  0.13861387613E+02  0.17222745122E+02  0.22108308891E+02  0.00000000000E+00 0.  1.
</event>
<event>
 7    1  0.1466590E-008  0.4614232E+02  0.7816164E-02  0.1320468E+00
        -11   -1    0    0    0    0  0.00000000000E+00  0.00000000000E+00  0.45593999997E+02  0.45594000000E+02  0.51100000000E-03 0.  1.
         11   -1    0    0    0    0 -0.00000000000E+00 -0.00000000000E+00 -0.45593999997E+02  0.45594000000E+02  0.51100000000E-03 0. -1.
    9900012    2    1    2    0    0  0.24298453310E+02  0.36129991504E+02  0.11546530212E+02  0.46142317862E+02  0.10000000918E+02 0.  0.
         12    1    1    2    0    0 -0.24298453310E+02 -0.36129991504E+02 -0.11546530212E+02  0.45045682138E+02  0.00000000000E+00 0. -1.
         11    1    3    3    0    0  0.57739871188E+01  0.13577471671E+02  0.67990775757E+00  0.14769865911E+02  0.51100000000E-03 0. -1.
        -11    1    3    3    0    0  0.44307556412E+01  0.81313632656E+01  0.37105876885E+01  0.99759272934E+01  0.51100000000E-03 0.  1.
        -12    1    3    3    0    0  0.14093710550E+02  0.14421156568E+02  0.71560347658E+01  0.21396524657E+02  0.00000000000E+00 0.  1.
</event>
<event>
 7    1  0.1466590E-008  0.4614232E+02  0.7816164E-02  0.1320468E+00
        -11   -1    0    0    0    0  0.00000000000E+00  0.00000000000E+00  0.45593999997E+02  0.45594000000E+02  0.51100000000E-03 0.  1.
         11   -1    0    0    0    0 -0.00000000000E+00 -0.00000000000E+00 -0.45593999997E+02  0.45594000000E+02  0.51100000000E-03 0. -1.
    9900012    2    1    2    0    0  0.12133892288E+01 -0.22574373634E+02  0.38962020388E+02  0.46142315510E+02  0.99999794767E+01 0.  0.
         12    1    1    2    0    0 -0.12133892288E+01  0.22574373634E+02 -0.38962020388E+02  0.45045684490E+02  0.00000000000E+00 0. -1.
         11    1    3    3    0    0 -0.22180836177E+01 -0.49874503709E+01  0.10165245346E+02  0.11538057434E+02  0.51100000000E-03 0. -1.
        -11    1    3    3    0    0 -0.16121879941E+01 -0.30996572797E+01  0.82781492854E+01  0.89852535430E+01  0.51100000000E-03 0.  1.
        -12    1    3    3    0    0  0.50436608406E+01 -0.14487265983E+02  0.20518625757E+02  0.25619004534E+02  0.00000000000E+00 0.  1.
</event>
<event>
 7    1  0.1466590E-008  0.4614232E+02  0.7816164E-02  0.1320468E+00
        -11   -1    0    0    0    0  0.00000000000E+00  0.00000000000E+00  0.45593999997E+02  0.45594000000E+02  0.51100000000E-03 0.  1.
         11   -1    0    0    0    0 -0.00000000000E+00 -0.00000000000E+00 -0.45593999997E+02  0.45594000000E+02  0.51100000000E-03 0. -1.
    9900012    2    1    2    0    0  0.76894939549E+01  0.44331370462E+02 -0.21713590025E+01  0.46142317363E+02  0.99999963664E+01 0.  0.
         12    1    1    2    0    0 -0.76894939549E+01 -0.44331370462E+02  0.21713590025E+01  0.45045682637E+02  0.00000000000E+00 0. -1.
         11    1    3    3    0    0  0.72481748498E+00  0.31556606062E+01 -0.25717651390E+01  0.41349160135E+01  0.51100000000E-03 0. -1.
        -11    1    3    3    0    0  0.63584953827E+01  0.24741307067E+02 -0.29714969625E+00  0.25547035779E+02  0.51100000000E-03 0.  1.
         12    1    3    3    0    0  0.60618108718E+00  0.16434402789E+02  0.69755583270E+00  0.16460365570E+02  0.00000000000E+00 0. -1.
</event>
<event>
 7    1  0.1466590E-008  0.4614232E+02  0.7816164E-02  0.1320468E+00
        -11   -1    0    0    0    0  0.00000000000E+00  0.00000000000E+00  0.45593999997E+02  0.45594000000E+02  0.51100000000E-03 0.  1.
         11   -1    0    0    0    0 -0.00000000000E+00 -0.00000000000E+00 -0.45593999997E+02  0.45594000000E+02  0.51100000000E-03 0. -1.
    9900012    2    1    2    0    0  0.21024174163E+02 -0.29061199684E+02  0.27249665592E+02  0.46142317618E+02  0.99999986989E+01 0.  0.
         12    1    1    2    0    0 -0.21024174163E+02  0.29061199684E+02 -0.27249665592E+02  0.45045682382E+02  0.00000000000E+00 0. -1.
         11    1    3    3    0    0  0.23855655320E+01 -0.91538329019E+01  0.85109418711E+01  0.12724767640E+02  0.51100000000E-03 0. -1.
        -11    1    3    3    0    0  0.12733214050E+02 -0.10267572489E+02  0.11457568642E+02  0.19970820321E+02  0.51100000000E-03 0.  1.
        -12    1    3    3    0    0  0.59053945814E+01 -0.96397942936E+01  0.72811550796E+01  0.13446729657E+02  0.00000000000E+00 0.  1.
</event>
<event>
 7    1  0.1466590E-008  0.4614232E+02  0.7816164E-02  0.1320468E+00
        -11   -1    0    0    0    0  0.00000000000E+00  0.00000000000E+00  0.45593999997E+02  0.45594000000E+02  0.51100000000E-03 0.  1.
         11   -1    0    0    0    0 -0.00000000000E+00 -0.00000000000E+00 -0.45593999997E+02  0.45594000000E+02  0.51100000000E-03 0. -1.
    9900012    2    1    2    0    0 -0.28330776196E+02  0.13881998604E+02  0.32152305833E+02  0.46142317238E+02  0.99999952289E+01 0.  0.
         12    1    1    2    0    0  0.28330776196E+02 -0.13881998604E+02 -0.32152305833E+02  0.45045682762E+02  0.00000000000E+00 0. -1.
         11    1    3    3    0    0 -0.20067616240E+02  0.12033741707E+02  0.17627987608E+02  0.29296179076E+02  0.51100000000E-03 0.  1.
        -11    1    3    3    0    0 -0.58526527144E+01  0.11220745068E+01  0.11065575406E+02  0.12568196144E+02  0.51100000000E-03 0. -1.
        -12    1    3    3    0    0 -0.24105072416E+01  0.72618239004E+00  0.34587428189E+01  0.42779420184E+01  0.00000000000E+00 0.  1.
</event>
<event>
 7    1  0.1466590E-008  0.4614232E+02  0.7816164E-02  0.1320468E+00
        -11   -1    0    0    0    0  0.00000000000E+00  0.00000000000E+00  0.45593999997E+02  0.45594000000E+02  0.51100000000E-03 0.  1.
         11   -1    0    0    0    0 -0.00000000000E+00 -0.00000000000E+00 -0.45593999997E+02  0.45594000000E+02  0.51100000000E-03 0. -1.
    9900012    2    1    2    0    0  0.89566799454E+01 -0.23619565163E+02  0.37296215687E+02  0.46142315648E+02  0.99999807331E+01 0.  0.
         12    1    1    2    0    0 -0.89566799454E+01  0.23619565163E+02 -0.37296215687E+02  0.45045684352E+02  0.00000000000E+00 0. -1.
         11    1    3    3    0    0  0.12376627954E+01 -0.22617081568E+01  0.22570676014E+01  0.34265853849E+01  0.51100000000E-03 0. -1.
        -11    1    3    3    0    0  0.49857887975E+01 -0.75753837551E+01  0.20897631544E+02  0.22780595545E+02  0.51100000000E-03 0.  1.
        -12    1    3    3    0    0  0.27332283526E+01 -0.13782473251E+02  0.14141516542E+02  0.19935134719E+02  0.00000000000E+00 0.  1.
</event>
<event>
 7    1  0.1466590E-008  0.4614232E+02  0.7816164E-02  0.1320468E+00
        -11   -1    0    0    0    0  0.00000000000E+00  0.00000000000E+00  0.45593999997E+02  0.45594000000E+02  0.51100000000E-03 0.  1.
         11   -1    0    0    0    0 -0.00000000000E+00 -0.00000000000E+00 -0.45593999997E+02  0.45594000000E+02  0.51100000000E-03 0. -1.
    9900012    2    1    2    0    0 -0.20600623677E+01 -0.38953877477E+02  0.22526984299E+02  0.46142318197E+02  0.10000003975E+02 0.  0.
         12    1    1    2    0    0  0.20600623677E+01  0.38953877477E+02 -0.22526984299E+02  0.45045681803E+02  0.00000000000E+00 0. -1.
         11    1    3    3    0    0  0.11904579266E+00 -0.15905742149E+01  0.35926927210E+01  0.39308446271E+01  0.51100000000E-03 0. -1.
        -11    1    3    3    0    0 -0.27177430092E+01 -0.11119960685E+02  0.65367871772E+01  0.13182156105E+02  0.51100000000E-03 0.  1.
         12    1    3    3    0    0  0.53863484883E+00 -0.26243342577E+02  0.12397504401E+02  0.29029317465E+02  0.00000000000E+00 0. -1.
</event>
<event>
 7    1  0.1466590E-008  0.4614232E+02  0.7816164E-02  0.1320468E+00
        -11   -1    0    0    0    0  0.00000000000E+00  0.00000000000E+00  0.45593999997E+02  0.45594000000E+02  0.51100000000E-03 0.  1.
         11   -1    0    0    0    0 -0.00000000000E+00 -0.00000000000E+00 -0.45593999997E+02  0.45594000000E+02  0.51100000000E-03 0. -1.
    9900012    2    1    2    0    0  0.13651903686E+02  0.21844682629E+02  0.36953330121E+02  0.46142320513E+02  0.10000025094E+02 0.  0.
         12    1    1    2    0    0 -0.13651903686E+02 -0.21844682629E+02 -0.36953330121E+02  0.45045679487E+02  0.00000000000E+00 0. -1.
         11    1    3    3    0    0  0.13576719627E+02  0.19843196881E+02  0.30713776073E+02  0.39005330651E+02  0.51100000000E-03 0. -1.
        -11    1    3    3    0    0  0.48333622405E+00  0.17958714781E+01  0.63905556196E+01  0.66556719916E+01  0.51100000000E-03 0.  1.
         12    1    3    3    0    0 -0.40815216491E+00  0.20561426993E+00 -0.15100157158E+00  0.48131787037E+00  0.00000000000E+00 0. -1.
</event>
<event>
 7    1  0.1466590E-008  0.4614232E+02  0.7816164E-02  0.1320468E+00
        -11   -1    0    0    0    0  0.00000000000E+00  0.00000000000E+00  0.45593999997E+02  0.45594000000E+02  0.51100000000E-03 0. -1.
         11   -1    0    0    0    0 -0.00000000000E+00 -0.00000000000E+00 -0.45593999997E+02  0.45594000000E+02  0.51100000000E-03 0.  1.
    9900012    2    1    2    0    0  0.71806440590E+01 -0.32968294590E+02 -0.29843650809E+02  0.46142316623E+02  0.99999896235E+01 0.  0.
         12    1    1    2    0    0 -0.71806440590E+01  0.32968294590E+02  0.29843650809E+02  0.45045683377E+02  0.00000000000E+00 0. -1.
         11    1    3    3    0    0 -0.70529999988E+00  0.21451830720E+00 -0.12238183207E+01  0.14287049161E+01  0.51100000000E-03 0. -1.
        -11    1    3    3    0    0  0.57695179445E+01 -0.24918255324E+02 -0.23676013499E+02  0.34853413049E+02  0.51100000000E-03 0.  1.
         12    1    3    3    0    0  0.21164261144E+01 -0.82645575733E+01 -0.49438189898E+01  0.98601986585E+01  0.00000000000E+00 0. -1.
</event>
<event>
 7    1  0.1466590E-008  0.4614232E+02  0.7816164E-02  0.1320468E+00
        -11   -1    0    0    0    0  0.00000000000E+00  0.00000000000E+00  0.45593999997E+02  0.45594000000E+02  0.51100000000E-03 0.  1.
         11   -1    0    0    0    0 -0.00000000000E+00 -0.00000000000E+00 -0.45593999997E+02  0.45594000000E+02  0.51100000000E-03 0. -1.
    9900012    2    1    2    0    0  0.27706353267E+02 -0.35271967001E+02 -0.41665125476E+01  0.46142317695E+02  0.99999993974E+01 0.  0.
         12    1    1    2    0    0 -0.27706353267E+02  0.35271967001E+02  0.41665125476E+01  0.45045682305E+02  0.00000000000E+00 0. -1.
         11    1    3    3    0    0  0.51864433471E+00 -0.51079829540E+00  0.14336032232E+01  0.16078324873E+01  0.51100000000E-03 0. -1.
        -11    1    3    3    0    0  0.16865550504E+02 -0.22687652072E+02 -0.28402549601E+01  0.28412029123E+02  0.51100000000E-03 0.  1.
        -12    1    3    3    0    0  0.10322158428E+02 -0.12073516634E+02 -0.27598608108E+01  0.16122456085E+02  0.00000000000E+00 0.  1.
</event>
<event>
 7    1  0.1466590E-008  0.4614232E+02  0.7816164E-02  0.1320468E+00
        -11   -1    0    0    0    0  0.00000000000E+00  0.00000000000E+00  0.45593999997E+02  0.45594000000E+02  0.51100000000E-03 0.  1.
         11   -1    0    0    0    0 -0.00000000000E+00 -0.00000000000E+00 -0.45593999997E+02  0.45594000000E+02  0.51100000000E-03 0. -1.
    9900012    2    1    2    0    0 -0.75895754289E+01 -0.15287679371E+02  0.41686913164E+02  0.46142317355E+02  0.99999963000E+01 0.  0.
         12    1    1    2    0    0  0.75895754289E+01  0.15287679371E+02 -0.41686913164E+02  0.45045682645E+02  0.00000000000E+00 0. -1.
         11    1    3    3    0    0 -0.33467976661E+01 -0.21136300554E+01  0.17596504676E+02  0.18036226426E+02  0.51100000000E-03 0. -1.
        -11    1    3    3    0    0 -0.39581905440E+01 -0.62124958092E+01  0.10397033479E+02  0.12742083110E+02  0.51100000000E-03 0.  1.
         12    1    3    3    0    0 -0.28458721887E+00 -0.69615535067E+01  0.13693375010E+02  0.15364007820E+02  0.00000000000E+00 0. -1.
</event>
<event>
 7    1  0.1667152E-008  0.4614233E+02  0.7816164E-02  0.1320468E+00
        -11   -1    0    0    0    0  0.00000000000E+00  0.00000000000E+00  0.45593999997E+02  0.45594000000E+02  0.51100000000E-03 0. -1.
         11   -1    0    0    0    0 -0.00000000000E+00 -0.00000000000E+00 -0.45593999997E+02  0.45594000000E+02  0.51100000000E-03 0.  1.
    9900012    2    1    2    0    0  0.18917101636E+02  0.26953573577E+02 -0.30736959492E+02  0.46142328269E+02  0.10000095817E+02 0.  0.
         12    1    1    2    0    0 -0.18917101636E+02 -0.26953573577E+02  0.30736959492E+02  0.45045671731E+02  0.00000000000E+00 0. -1.
         11    1    3    3    0    0  0.91892493268E+00  0.13462437517E+00 -0.19079474057E+01  0.21219826386E+01  0.51100000000E-03 0.  1.
        -11    1    3    3    0    0  0.10438329716E+02  0.89769104271E+01 -0.10138200563E+02  0.17097565879E+02  0.51100000000E-03 0. -1.
        -12    1    3    3    0    0  0.75598469874E+01  0.17842038775E+02 -0.18690811523E+02  0.26922779751E+02  0.00000000000E+00 0.  1.
</event>
<event>
 7    1  0.1466590E-008  0.4614232E+02  0.7816164E-02  0.1320468E+00
        -11   -1    0    0    0    0  0.00000000000E+00  0.00000000000E+00  0.45593999997E+02  0.45594000000E+02  0.51100000000E-03 0.  1.
         11   -1    0    0    0    0 -0.00000000000E+00 -0.00000000000E+00 -0.45593999997E+02  0.45594000000E+02  0.51100000000E-03 0. -1.
    9900012    2    1    2    0    0 -0.17092426378E+02 -0.39558384847E+02  0.13118561604E+02  0.46142317524E+02  0.99999978361E+01 0.  0.
         12    1    1    2    0    0  0.17092426378E+02  0.39558384847E+02 -0.13118561604E+02  0.45045682476E+02  0.00000000000E+00 0. -1.
         11    1    3    3    0    0 -0.28206768809E+01 -0.31711859203E+01 -0.13543640649E+01  0.44549905150E+01  0.51100000000E-03 0. -1.
        -11    1    3    3    0    0 -0.10441050299E+02 -0.25840428663E+02  0.10071962340E+02  0.29634232071E+02  0.51100000000E-03 0.  1.
         12    1    3    3    0    0 -0.38306991975E+01 -0.10546770264E+02  0.44009633292E+01  0.12053094937E+02  0.00000000000E+00 0. -1.
</event>
<event>
 7    1  0.1466590E-008  0.4614232E+02  0.7816164E-02  0.1320468E+00
        -11   -1    0    0    0    0  0.00000000000E+00  0.00000000000E+00  0.45593999997E+02  0.45594000000E+02  0.51100000000E-03 0.  1.
         11   -1    0    0    0    0 -0.00000000000E+00 -0.00000000000E+00 -0.45593999997E+02  0.45594000000E+02  0.51100000000E-03 0. -1.
    9900012    2    1    2    0    0  0.21481342150E+02  0.39219316491E+02 -0.54323738317E+01  0.46142317276E+02  0.99999955745E+01 0.  0.
         12    1    1    2    0    0 -0.21481342150E+02 -0.39219316491E+02  0.54323738317E+01  0.45045682724E+02  0.00000000000E+00 0. -1.
         11    1    3    3    0    0  0.16173845483E+01  0.45102497126E+01  0.19924039891E+01  0.51892156598E+01  0.51100000000E-03 0. -1.
        -11    1    3    3    0    0  0.16140644828E+02  0.27921873583E+02 -0.40376113850E+01  0.32503134400E+02  0.51100000000E-03 0.  1.
         12    1    3    3    0    0  0.37233127743E+01  0.67871931960E+01 -0.33871664359E+01  0.84499672165E+01  0.00000000000E+00 0. -1.
</event>
<event>
 7    1  0.1466590E-008  0.4614232E+02  0.7816164E-02  0.1320468E+00
        -11   -1    0    0    0    0  0.00000000000E+00  0.00000000000E+00  0.45593999997E+02  0.45594000000E+02  0.51100000000E-03 0. -1.
         11   -1    0    0    0    0 -0.00000000000E+00 -0.00000000000E+00 -0.45593999997E+02  0.45594000000E+02  0.51100000000E-03 0.  1.
    9900012    2    1    2    0    0  0.37326190679E+02 -0.25208513188E+02  0.63236569282E+00  0.46142317254E+02  0.99999953713E+01 0.  0.
         12    1    1    2    0    0 -0.37326190679E+02  0.25208513188E+02 -0.63236569282E+00  0.45045682746E+02  0.00000000000E+00 0. -1.
         11    1    3    3    0    0  0.19332208530E+01 -0.35574851344E+01  0.72610339682E-01  0.40494834078E+01  0.51100000000E-03 0. -1.
        -11    1    3    3    0    0  0.65091333845E+01 -0.12154896621E+01  0.10676596002E+01  0.67071700305E+01  0.51100000000E-03 0.  1.
        -12    1    3    3    0    0  0.28883836441E+02 -0.20435538392E+02 -0.50790424707E+00  0.35385663815E+02  0.00000000000E+00 0.  1.
</event>
<event>
 7    1  0.1466590E-008  0.4614232E+02  0.7816164E-02  0.1320468E+00
        -11   -1    0    0    0    0  0.00000000000E+00  0.00000000000E+00  0.45593999997E+02  0.45594000000E+02  0.51100000000E-03 0. -1.
         11   -1    0    0    0    0 -0.00000000000E+00 -0.00000000000E+00 -0.45593999997E+02  0.45594000000E+02  0.51100000000E-03 0.  1.
    9900012    2    1    2    0    0 -0.21835278523E+02 -0.20730520822E+02 -0.33504918206E+02  0.46142318456E+02  0.10000006339E+02 0.  0.
         12    1    1    2    0    0  0.21835278523E+02  0.20730520822E+02  0.33504918206E+02  0.45045681544E+02  0.00000000000E+00 0. -1.
         11    1    3    3    0    0 -0.43634234810E+01 -0.55508098169E+01 -0.30210860511E+01  0.76797080209E+01  0.51100000000E-03 0. -1.
        -11    1    3    3    0    0 -0.11490297201E+02 -0.76169289126E+01 -0.17033824561E+02  0.21913368414E+02  0.51100000000E-03 0.  1.
         12    1    3    3    0    0 -0.59815578412E+01 -0.75627820925E+01 -0.13450007595E+02  0.16549242021E+02  0.00000000000E+00 0. -1.
</event>
<event>
 7    1  0.1466590E-008  0.4614232E+02  0.7816164E-02  0.1320468E+00
        -11   -1    0    0    0    0  0.00000000000E+00  0.00000000000E+00  0.45593999997E+02  0.45594000000E+02  0.51100000000E-03 0.  1.
         11   -1    0    0    0    0 -0.00000000000E+00 -0.00000000000E+00 -0.45593999997E+02  0.45594000000E+02  0.51100000000E-03 0. -1.
    9900012    2    1    2    0    0 -0.21004671101E+01 -0.35443425068E+02  0.27721207768E+02  0.46142315381E+02  0.99999782995E+01 0.  0.
         12    1    1    2    0    0  0.21004671101E+01  0.35443425068E+02 -0.27721207768E+02  0.45045684619E+02  0.00000000000E+00 0. -1.
         11    1    3    3    0    0  0.30036011026E+01 -0.54688060234E+01  0.50074676781E+01  0.80002619778E+01  0.51100000000E-03 0. -1.
        -11    1    3    3    0    0 -0.41962079145E+01 -0.25491165044E+02  0.17486807697E+02  0.31196091099E+02  0.51100000000E-03 0.  1.
        -12    1    3    3    0    0 -0.90786029816E+00 -0.44834540012E+01  0.52269323928E+01  0.69459623049E+01  0.00000000000E+00 0.  1.
</event>
<event>
 7    1  0.1466590E-008  0.4614232E+02  0.7816164E-02  0.1320468E+00
        -11   -1    0    0    0    0  0.00000000000E+00  0.00000000000E+00  0.45593999997E+02  0.45594000000E+02  0.51100000000E-03 0.  1.
         11   -1    0    0    0    0 -0.00000000000E+00 -0.00000000000E+00 -0.45593999997E+02  0.45594000000E+02  0.51100000000E-03 0. -1.
    9900012    2    1    2    0    0  0.30310073895E+02 -0.62723984327E+01  0.32727204098E+02  0.46142318191E+02  0.10000003917E+02 0.  0.
         12    1    1    2    0    0 -0.30310073895E+02  0.62723984327E+01 -0.32727204098E+02  0.45045681809E+02  0.00000000000E+00 0. -1.
         11    1    3    3    0    0  0.11263351165E+02  0.24841793849E+01  0.10808565134E+02  0.15806938577E+02  0.51100000000E-03 0. -1.
        -11    1    3    3    0    0  0.14698893450E+02 -0.65737915412E+01  0.16559487147E+02  0.23097376880E+02  0.51100000000E-03 0.  1.
         12    1    3    3    0    0  0.43478292802E+01 -0.21827862763E+01  0.53591518166E+01  0.72380027336E+01  0.00000000000E+00 0. -1.
</event>
<event>
 7    1  0.1466590E-008  0.4614232E+02  0.7816164E-02  0.1320468E+00
        -11   -1    0    0    0    0  0.00000000000E+00  0.00000000000E+00  0.45593999997E+02  0.45594000000E+02  0.51100000000E-03 0.  1.
         11   -1    0    0    0    0 -0.00000000000E+00 -0.00000000000E+00 -0.45593999997E+02  0.45594000000E+02  0.51100000000E-03 0. -1.
    9900012    2    1    2    0    0  0.33249629251E+02 -0.28651781833E+02  0.10131685698E+02  0.46142317603E+02  0.99999985556E+01 0.  0.
         12    1    1    2    0    0 -0.33249629251E+02  0.28651781833E+02 -0.10131685698E+02  0.45045682397E+02  0.00000000000E+00 0. -1.
         11    1    3    3    0    0  0.60480475308E+01 -0.93474387133E+01  0.46732379260E+01  0.12074462407E+02  0.51100000000E-03 0. -1.
        -11    1    3    3    0    0  0.22595998829E+02 -0.17847440614E+02  0.48316752213E+01  0.29196838617E+02  0.51100000000E-03 0.  1.
        -12    1    3    3    0    0  0.46055828915E+01 -0.14569025063E+01  0.62677255118E+00  0.48710165791E+01  0.00000000000E+00 0.  1.
</event>
<event>
 7    1  0.1466590E-008  0.4614232E+02  0.7816164E-02  0.1320468E+00
        -11   -1    0    0    0    0  0.00000000000E+00  0.00000000000E+00  0.45593999997E+02  0.45594000000E+02  0.51100000000E-03 0.  1.
         11   -1    0    0    0    0 -0.00000000000E+00 -0.00000000000E+00 -0.45593999997E+02  0.45594000000E+02  0.51100000000E-03 0. -1.
    9900012    2    1    2    0    0  0.28436427872E+02 -0.25673466126E+02  0.23692946849E+02  0.46142322922E+02  0.10000047057E+02 0.  0.
         12    1    1    2    0    0 -0.28436427872E+02  0.25673466126E+02 -0.23692946849E+02  0.45045677078E+02  0.00000000000E+00 0. -1.
         11    1    3    3    0    0  0.15958940260E+02 -0.16230864804E+02  0.15948697247E+02  0.27793698758E+02  0.51100000000E-03 0. -1.
        -11    1    3    3    0    0  0.81428233085E+00 -0.14213572371E+01 -0.79116419742E+00  0.18191352776E+01  0.51100000000E-03 0.  1.
        -12    1    3    3    0    0  0.11663205281E+02 -0.80212440855E+01  0.85354137988E+01  0.16529488886E+02  0.00000000000E+00 0.  1.
</event>
<event>
 7    1  0.1466590E-008  0.4614232E+02  0.7816164E-02  0.1320468E+00
        -11   -1    0    0    0    0  0.00000000000E+00  0.00000000000E+00  0.45593999997E+02  0.45594000000E+02  0.51100000000E-03 0.  1.
         11   -1    0    0    0    0 -0.00000000000E+00 -0.00000000000E+00 -0.45593999997E+02  0.45594000000E+02  0.51100000000E-03 0. -1.
    9900012    2    1    2    0    0  0.76248024261E+01 -0.31406940814E+02  0.31378018619E+02  0.46142316569E+02  0.99999891311E+01 0.  0.
         12    1    1    2    0    0 -0.76248024261E+01  0.31406940814E+02 -0.31378018619E+02  0.45045683431E+02  0.00000000000E+00 0. -1.
         11    1    3    3    0    0  0.23629895529E+01 -0.52317125285E+01  0.11468660687E+02  0.12825159407E+02  0.51100000000E-03 0. -1.
        -11    1    3    3    0    0  0.41708559107E+01 -0.22285464467E+02  0.17042418269E+02  0.28363391657E+02  0.51100000000E-03 0.  1.
        -12    1    3    3    0    0  0.10909569625E+01 -0.38897638179E+01  0.28669396632E+01  0.49537655057E+01  0.00000000000E+00 0.  1.
</event>
<event>
 7    1  0.1466590E-008  0.4614232E+02  0.7816164E-02  0.1320468E+00
        -11   -1    0    0    0    0  0.00000000000E+00  0.00000000000E+00  0.45593999997E+02  0.45594000000E+02  0.51100000000E-03 0.  1.
         11   -1    0    0    0    0 -0.00000000000E+00 -0.00000000000E+00 -0.45593999997E+02  0.45594000000E+02  0.51100000000E-03 0. -1.
    9900012    2    1    2    0    0  0.28446772035E+01  0.42637963127E+02  0.14248678127E+02  0.46142324110E+02  0.10000057898E+02 0.  0.
         12    1    1    2    0    0 -0.28446772035E+01 -0.42637963127E+02 -0.14248678127E+02  0.45045675890E+02  0.00000000000E+00 0. -1.
         11    1    3    3    0    0 -0.11163749371E+01  0.18225874419E+02  0.65264814380E+01  0.19391331866E+02  0.51100000000E-03 0. -1.
        -11    1    3    3    0    0 -0.15796760502E+01  0.10810704284E+02  0.33127705757E+01  0.11416704984E+02  0.51100000000E-03 0.  1.
         12    1    3    3    0    0  0.55407281909E+01  0.13601384424E+02  0.44094261133E+01  0.15334287260E+02  0.00000000000E+00 0. -1.
</event>
<event>
 7    1  0.1466590E-008  0.4614232E+02  0.7816164E-02  0.1320468E+00
        -11   -1    0    0    0    0  0.00000000000E+00  0.00000000000E+00  0.45593999997E+02  0.45594000000E+02  0.51100000000E-03 0.  1.
         11   -1    0    0    0    0 -0.00000000000E+00 -0.00000000000E+00 -0.45593999997E+02  0.45594000000E+02  0.51100000000E-03 0. -1.
    9900012    2    1    2    0    0 -0.85605499756E+00 -0.28490831900E+02  0.34880555269E+02  0.46142317983E+02  0.10000002022E+02 0.  0.
         12    1    1    2    0    0  0.85605499756E+00  0.28490831900E+02 -0.34880555269E+02  0.45045682017E+02  0.00000000000E+00 0. -1.
         11    1    3    3    0    0  0.12942015968E-01 -0.34831381977E+01  0.10401600168E+02  0.10969307431E+02  0.51100000000E-03 0. -1.
        -11    1    3    3    0    0  0.12931803244E+01 -0.11942889666E+02  0.11858797393E+02  0.16880047535E+02  0.51100000000E-03 0.  1.
        -12    1    3    3    0    0 -0.21621773380E+01 -0.13064804037E+02  0.12620157708E+02  0.18292963017E+02  0.00000000000E+00 0.  1.
</event>
<event>
 7    1  0.1466590E-008  0.4614232E+02  0.7816164E-02  0.1320468E+00
        -11   -1    0    0    0    0  0.00000000000E+00  0.00000000000E+00  0.45593999997E+02  0.45594000000E+02  0.51100000000E-03 0. -1.
         11   -1    0    0    0    0 -0.00000000000E+00 -0.00000000000E+00 -0.45593999997E+02  0.45594000000E+02  0.51100000000E-03 0.  1.
    9900012    2    1    2    0    0 -0.22568869187E+02 -0.35999927094E+02 -0.14958770333E+02  0.46142318553E+02  0.10000007217E+02 0.  0.
         12    1    1    2    0    0  0.22568869187E+02  0.35999927094E+02  0.14958770333E+02  0.45045681447E+02  0.00000000000E+00 0. -1.
         11    1    3    3    0    0 -0.50871682430E+01 -0.98541780826E+01 -0.62357867697E+01  0.12722780487E+02  0.51100000000E-03 0. -1.
        -11    1    3    3    0    0 -0.42696724015E+01 -0.10093941951E+02 -0.23116343447E+00  0.10962262692E+02  0.51100000000E-03 0.  1.
        -12    1    3    3    0    0 -0.13212028543E+02 -0.16051807060E+02 -0.84918201291E+01  0.22457275374E+02  0.00000000000E+00 0.  1.
</event>
<event>
 7    1  0.1466590E-008  0.4614231E+02  0.7816164E-02  0.1320468E+00
        -11   -1    0    0    0    0  0.00000000000E+00  0.00000000000E+00  0.45593999997E+02  0.45594000000E+02  0.51100000000E-03 0.  1.
         11   -1    0    0    0    0 -0.00000000000E+00 -0.00000000000E+00 -0.45593999997E+02  0.45594000000E+02  0.51100000000E-03 0. -1.
    9900012    2    1    2    0    0 -0.28244111172E+02  0.55615048411E+01  0.34647563599E+02  0.46142314131E+02  0.99999669002E+01 0.  0.
         12    1    1    2    0    0  0.28244111172E+02 -0.55615048411E+01 -0.34647563599E+02  0.45045685869E+02  0.00000000000E+00 0. -1.
         11    1    3    3    0    0 -0.20502845146E+00  0.10955305276E+01  0.14285147216E+00  0.11236683706E+01  0.51100000000E-03 0. -1.
        -11    1    3    3    0    0 -0.10178113930E+02 -0.48656260933E+00  0.98341713097E+01  0.14161273670E+02  0.51100000000E-03 0.  1.
         12    1    3    3    0    0 -0.17860968791E+02  0.49525369228E+01  0.24670540818E+02  0.30857372091E+02  0.00000000000E+00 0. -1.
</event>
<event>
 7    1  0.1466590E-008  0.4614232E+02  0.7816164E-02  0.1320468E+00
        -11   -1    0    0    0    0  0.00000000000E+00  0.00000000000E+00  0.45593999997E+02  0.45594000000E+02  0.51100000000E-03 0.  1.
         11   -1    0    0    0    0 -0.00000000000E+00 -0.00000000000E+00 -0.45593999997E+02  0.45594000000E+02  0.51100000000E-03 0. -1.
    9900012    2    1    2    0    0 -0.80243421788E+01  0.32714512179E+02  0.29907928834E+02  0.46142316725E+02  0.99999905528E+01 0.  0.
         12    1    1    2    0    0  0.80243421788E+01 -0.32714512179E+02 -0.29907928834E+02  0.45045683275E+02  0.00000000000E+00 0. -1.
         11    1    3    3    0    0 -0.42996528722E+01  0.81239376159E+01  0.13409228430E+02  0.16257084135E+02  0.51100000000E-03 0. -1.
        -11    1    3    3    0    0 -0.20170192051E+01  0.85558733133E+01  0.56199065115E+01  0.10433344818E+02  0.51100000000E-03 0.  1.
         12    1    3    3    0    0 -0.17076701015E+01  0.16034701250E+02  0.10878793893E+02  0.19451887773E+02  0.00000000000E+00 0. -1.
</event>
<event>
 7    1  0.1466590E-008  0.4614232E+02  0.7816164E-02  0.1320468E+00
        -11   -1    0    0    0    0  0.00000000000E+00  0.00000000000E+00  0.45593999997E+02  0.45594000000E+02  0.51100000000E-03 0. -1.
         11   -1    0    0    0    0 -0.00000000000E+00 -0.00000000000E+00 -0.45593999997E+02  0.45594000000E+02  0.51100000000E-03 0.  1.
    9900012    2    1    2    0    0  0.40893117706E+01 -0.42558011092E+02 -0.14184731097E+02  0.46142319018E+02  0.10000011460E+02 0.  0.
         12    1    1    2    0    0 -0.40893117706E+01  0.42558011092E+02  0.14184731097E+02  0.45045680982E+02  0.00000000000E+00 0. -1.
         11    1    3    3    0    0  0.21658848279E+01 -0.85535606291E+01 -0.55206520645E+01  0.10408268636E+02  0.51100000000E-03 0. -1.
        -11    1    3    3    0    0  0.21653467018E+01 -0.20130476926E+02 -0.82178063754E+01  0.21850793337E+02  0.51100000000E-03 0.  1.
        -12    1    3    3    0    0 -0.24191975908E+00 -0.13873973537E+02 -0.44627265756E+00  0.13883257044E+02  0.00000000000E+00 0.  1.
</event>
<event>
 7    1  0.1466590E-008  0.4614230E+02  0.7816164E-02  0.1320468E+00
        -11   -1    0    0    0    0  0.00000000000E+00  0.00000000000E+00  0.45593999997E+02  0.45594000000E+02  0.51100000000E-03 0.  1.
         11   -1    0    0    0    0 -0.00000000000E+00 -0.00000000000E+00 -0.45593999997E+02  0.45594000000E+02  0.51100000000E-03 0. -1.
    9900012    2    1    2    0    0 -0.36059052913E+01 -0.11931106218E+02  0.43286962229E+02  0.46142301565E+02  0.99998523058E+01 0.  0.
         12    1    1    2    0    0  0.36059052913E+01  0.11931106218E+02 -0.43286962229E+02  0.45045698435E+02  0.00000000000E+00 0. -1.
         11    1    3    3    0    0  0.29989622673E+01 -0.28799111555E+01  0.16559770445E+02  0.17073771124E+02  0.51100000000E-03 0. -1.
        -11    1    3    3    0    0 -0.53319302695E+01 -0.85099085060E+01  0.23230555892E+02  0.25308234836E+02  0.51100000000E-03 0.  1.
         12    1    3    3    0    0 -0.12729372891E+01 -0.54128655686E+00  0.34966358910E+01  0.37602956045E+01  0.00000000000E+00 0. -1.
</event>
<event>
 7    1  0.1466590E-008  0.4614232E+02  0.7816164E-02  0.1320468E+00
        -11   -1    0    0    0    0  0.00000000000E+00  0.00000000000E+00  0.45593999997E+02  0.45594000000E+02  0.51100000000E-03 0.  1.
         11   -1    0    0    0    0 -0.00000000000E+00 -0.00000000000E+00 -0.45593999997E+02  0.45594000000E+02  0.51100000000E-03 0. -1.
    9900012    2    1    2    0    0  0.18076537781E+02 -0.19192022822E+02  0.36524218834E+02  0.46142317414E+02  0.99999968351E+01 0.  0.
         12    1    1    2    0    0 -0.18076537781E+02  0.19192022822E+02 -0.36524218834E+02  0.45045682586E+02  0.00000000000E+00 0. -1.
         11    1    3    3    0    0  0.34725452493E+01 -0.26553687406E+01  0.58522769221E+01  0.73047039016E+01  0.51100000000E-03 0. -1.
        -11    1    3    3    0    0  0.15617796034E+02 -0.15574146482E+02  0.30125860986E+02  0.37336806130E+02  0.51100000000E-03 0.  1.
        -12    1    3    3    0    0 -0.10138035020E+01 -0.96250760022E+00  0.54608092679E+00  0.15008073826E+01  0.00000000000E+00 0.  1.
</event>
<event>
 7    1  0.1466590E-008  0.4614232E+02  0.7816164E-02  0.1320468E+00
        -11   -1    0    0    0    0  0.00000000000E+00  0.00000000000E+00  0.45593999997E+02  0.45594000000E+02  0.51100000000E-03 0.  1.
         11   -1    0    0    0    0 -0.00000000000E+00 -0.00000000000E+00 -0.45593999997E+02  0.45594000000E+02  0.51100000000E-03 0. -1.
    9900012    2    1    2    0    0 -0.24599003410E+02  0.37514589657E+02  0.40814430463E+01  0.46142316708E+02  0.99999903998E+01 0.  0.
         12    1    1    2    0    0  0.24599003410E+02 -0.37514589657E+02 -0.40814430463E+01  0.45045683292E+02  0.00000000000E+00 0. -1.
         11    1    3    3    0    0 -0.26374823609E+00 -0.71505271851E-01 -0.23501638610E+00  0.36042904822E+00  0.51100000000E-03 0. -1.
        -11    1    3    3    0    0 -0.75731671111E+01  0.10951888153E+02 -0.25858078663E+01  0.13564037629E+02  0.51100000000E-03 0.  1.
        -12    1    3    3    0    0 -0.16762088062E+02  0.26634206775E+02  0.69022672986E+01  0.32217850031E+02  0.00000000000E+00 0.  1.
</event>
<event>
 7    1  0.1466590E-008  0.4614232E+02  0.7816164E-02  0.1320468E+00
        -11   -1    0    0    0    0  0.00000000000E+00  0.00000000000E+00  0.45593999997E+02  0.45594000000E+02  0.51100000000E-03 0.  1.
         11   -1    0    0    0    0 -0.00000000000E+00 -0.00000000000E+00 -0.45593999997E+02  0.45594000000E+02  0.51100000000E-03 0. -1.
    9900012    2    1    2    0    0  0.41796126723E+02  0.16227886877E+02  0.43420150544E+01  0.46142316341E+02  0.99999870520E+01 0.  0.
         12    1    1    2    0    0 -0.41796126723E+02 -0.16227886877E+02 -0.43420150544E+01  0.45045683659E+02  0.00000000000E+00 0. -1.
         11    1    3    3    0    0  0.12299574199E+02  0.46536270190E+01 -0.29141545527E+01  0.13469523634E+02  0.51100000000E-03 0. -1.
        -11    1    3    3    0    0  0.27626686098E+02  0.10076825697E+02  0.72041975193E+01  0.30276668625E+02  0.51100000000E-03 0.  1.
        -12    1    3    3    0    0  0.18698664262E+01  0.14974341607E+01  0.51972087792E-01  0.23961240818E+01  0.00000000000E+00 0.  1.
</event>
<event>
 7    1  0.1466590E-008  0.4614232E+02  0.7816164E-02  0.1320468E+00
        -11   -1    0    0    0    0  0.00000000000E+00  0.00000000000E+00  0.45593999997E+02  0.45594000000E+02  0.51100000000E-03 0. -1.
         11   -1    0    0    0    0 -0.00000000000E+00 -0.00000000000E+00 -0.45593999997E+02  0.45594000000E+02  0.51100000000E-03 0.  1.
    9900012    2    1    2    0    0  0.66712059219E+01 -0.32114939287E+01 -0.44433036349E+02  0.46142318732E+02  0.10000008850E+02 0.  0.
         12    1    1    2    0    0 -0.66712059219E+01  0.32114939287E+01  0.44433036349E+02  0.45045681268E+02  0.00000000000E+00 0. -1.
         11    1    3    3    0    0  0.24555673283E+01 -0.55008375194E+01 -0.18615382648E+02  0.19565824687E+02  0.51100000000E-03 0. -1.
        -11    1    3    3    0    0  0.79536759928E+00  0.32105110314E+00 -0.15595720571E+02  0.15619288839E+02  0.51100000000E-03 0.  1.
         12    1    3    3    0    0  0.34202709943E+01  0.19682924875E+01 -0.10221933130E+02  0.10957205205E+02  0.00000000000E+00 0. -1.
</event>
<event>
 7    1  0.1466590E-008  0.4614232E+02  0.7816164E-02  0.1320468E+00
        -11   -1    0    0    0    0  0.00000000000E+00  0.00000000000E+00  0.45593999997E+02  0.45594000000E+02  0.51100000000E-03 0.  1.
         11   -1    0    0    0    0 -0.00000000000E+00 -0.00000000000E+00 -0.45593999997E+02  0.45594000000E+02  0.51100000000E-03 0. -1.
    9900012    2    1    2    0    0 -0.32839933460E+02  0.13583267087E+02  0.27679362316E+02  0.46142317935E+02  0.10000001587E+02 0.  0.
         12    1    1    2    0    0  0.32839933460E+02 -0.13583267087E+02 -0.27679362316E+02  0.45045682065E+02  0.00000000000E+00 0. -1.
         11    1    3    3    0    0 -0.56319723117E+01  0.51934150122E+01  0.98227555246E+01  0.12457014007E+02  0.51100000000E-03 0. -1.
        -11    1    3    3    0    0 -0.18875169501E+02  0.49335377097E+01  0.12949986747E+02  0.23416105036E+02  0.51100000000E-03 0.  1.
         12    1    3    3    0    0 -0.83327916474E+01  0.34563143655E+01  0.49066200447E+01  0.10269198893E+02  0.00000000000E+00 0. -1.
</event>
<event>
 7    1  0.1536751E-008  0.4614232E+02  0.7816164E-02  0.1320468E+00
        -11   -1    0    0    0    0  0.00000000000E+00  0.00000000000E+00  0.45593999997E+02  0.45594000000E+02  0.51100000000E-03 0.  1.
         11   -1    0    0    0    0 -0.00000000000E+00 -0.00000000000E+00 -0.45593999997E+02  0.45594000000E+02  0.51100000000E-03 0. -1.
    9900012    2    1    2    0    0 -0.36882291547E+02 -0.25646517857E+02  0.33265844953E+01  0.46142317939E+02  0.10000001621E+02 0.  0.
         12    1    1    2    0    0  0.36882291547E+02  0.25646517857E+02 -0.33265844953E+01  0.45045682061E+02  0.00000000000E+00 0. -1.
         11    1    3    3    0    0 -0.13703280967E+01 -0.13203778543E+01  0.15858630433E+01  0.24771270908E+01  0.51100000000E-03 0. -1.
        -11    1    3    3    0    0 -0.27376246058E+02 -0.15068916811E+02  0.24416743354E+00  0.31250451519E+02  0.51100000000E-03 0.  1.
        -12    1    3    3    0    0 -0.81357173922E+01 -0.92572231908E+01  0.14965540185E+01  0.12414739330E+02  0.00000000000E+00 0.  1.
</event>
<event>
 7    1  0.1466590E-008  0.4614233E+02  0.7816164E-02  0.1320468E+00
        -11   -1    0    0    0    0  0.00000000000E+00  0.00000000000E+00  0.45593999997E+02  0.45594000000E+02  0.51100000000E-03 0.  1.
         11   -1    0    0    0    0 -0.00000000000E+00 -0.00000000000E+00 -0.45593999997E+02  0.45594000000E+02  0.51100000000E-03 0. -1.
    9900012    2    1    2    0    0  0.22469676365E+02  0.15094673575E+02  0.36005230545E+02  0.46142332585E+02  0.10000135174E+02 0.  0.
         12    1    1    2    0    0 -0.22469676365E+02 -0.15094673575E+02 -0.36005230545E+02  0.45045667415E+02  0.00000000000E+00 0. -1.
         11    1    3    3    0    0  0.51800124992E+01  0.24628575501E+01  0.34935560924E+01  0.67158864818E+01  0.51100000000E-03 0. -1.
        -11    1    3    3    0    0 -0.14715463491E+00  0.15940379274E+01  0.32102095082E+01  0.35872073745E+01  0.51100000000E-03 0.  1.
        -12    1    3    3    0    0  0.17436818501E+02  0.11037778098E+02  0.29301464944E+02  0.35839238729E+02  0.00000000000E+00 0.  1.
</event>
<event>
 7    1  0.1466590E-008  0.4614232E+02  0.7816164E-02  0.1320468E+00
        -11   -1    0    0    0    0  0.00000000000E+00  0.00000000000E+00  0.45593999997E+02  0.45594000000E+02  0.51100000000E-03 0.  1.
         11   -1    0    0    0    0 -0.00000000000E+00 -0.00000000000E+00 -0.45593999997E+02  0.45594000000E+02  0.51100000000E-03 0. -1.
    9900012    2    1    2    0    0  0.13483842680E+02 -0.33557575143E+02  0.26854956937E+02  0.46142316799E+02  0.99999912312E+01 0.  0.
         12    1    1    2    0    0 -0.13483842680E+02  0.33557575143E+02 -0.26854956937E+02  0.45045683201E+02  0.00000000000E+00 0. -1.
         11    1    3    3    0    0  0.76538295129E+00 -0.30132746283E+01  0.52519902682E+01  0.61031989223E+01  0.51100000000E-03 0. -1.
        -11    1    3    3    0    0 -0.28394665408E+00  0.11968676769E+00 -0.50652879962E-01  0.31227648021E+00  0.51100000000E-03 0.  1.
        -12    1    3    3    0    0  0.13002406383E+02 -0.30663987282E+02  0.21653619549E+02  0.39726841397E+02  0.00000000000E+00 0.  1.
</event>
<event>
 7    1  0.1466590E-008  0.4614232E+02  0.7816164E-02  0.1320468E+00
        -11   -1    0    0    0    0  0.00000000000E+00  0.00000000000E+00  0.45593999997E+02  0.45594000000E+02  0.51100000000E-03 0.  1.
         11   -1    0    0    0    0 -0.00000000000E+00 -0.00000000000E+00 -0.45593999997E+02  0.45594000000E+02  0.51100000000E-03 0. -1.
    9900012    2    1    2    0    0 -0.31324309892E+02  0.16497330587E+02  0.27852094913E+02  0.46142317657E+02  0.99999990471E+01 0.  0.
         12    1    1    2    0    0  0.31324309892E+02 -0.16497330587E+02 -0.27852094913E+02  0.45045682343E+02  0.00000000000E+00 0. -1.
         11    1    3    3    0    0 -0.92800201089E+01  0.94577822912E+00  0.80614829590E+01  0.12328859535E+02  0.51100000000E-03 0. -1.
        -11    1    3    3    0    0 -0.19946891014E+02  0.13755916471E+02  0.19369124525E+02  0.31020423662E+02  0.51100000000E-03 0.  1.
        -12    1    3    3    0    0 -0.20973987690E+01  0.17956358870E+01  0.42148742973E+00  0.27930344589E+01  0.00000000000E+00 0.  1.
</event>
<event>
 7    1  0.1466590E-008  0.4614232E+02  0.7816164E-02  0.1320468E+00
        -11   -1    0    0    0    0  0.00000000000E+00  0.00000000000E+00  0.45593999997E+02  0.45594000000E+02  0.51100000000E-03 0.  1.
         11   -1    0    0    0    0 -0.00000000000E+00 -0.00000000000E+00 -0.45593999997E+02  0.45594000000E+02  0.51100000000E-03 0. -1.
    9900012    2    1    2    0    0 -0.29571313876E+02 -0.26694449110E+02  0.21025158042E+02  0.46142317761E+02  0.10000000002E+02 0.  0.
         12    1    1    2    0    0  0.29571313876E+02  0.26694449110E+02 -0.21025158042E+02  0.45045682239E+02  0.00000000000E+00 0. -1.
         11    1    3    3    0    0 -0.38006085123E+00 -0.33743522324E+01  0.15938235717E+01  0.37511295736E+01  0.51100000000E-03 0. -1.
        -11    1    3    3    0    0 -0.19011817855E+02 -0.16103741217E+02  0.15342838651E+02  0.29260594619E+02  0.51100000000E-03 0.  1.
         12    1    3    3    0    0 -0.10179435170E+02 -0.72163556604E+01  0.40884958194E+01  0.13130593569E+02  0.00000000000E+00 0. -1.
</event>
<event>
 7    1  0.1466590E-008  0.4614232E+02  0.7816164E-02  0.1320468E+00
        -11   -1    0    0    0    0  0.00000000000E+00  0.00000000000E+00  0.45593999997E+02  0.45594000000E+02  0.51100000000E-03 0.  1.
         11   -1    0    0    0    0 -0.00000000000E+00 -0.00000000000E+00 -0.45593999997E+02  0.45594000000E+02  0.51100000000E-03 0. -1.
    9900012    2    1    2    0    0 -0.13436143129E+02 -0.29180314603E+02  0.31576778334E+02  0.46142316162E+02  0.99999854140E+01 0.  0.
         12    1    1    2    0    0  0.13436143129E+02  0.29180314603E+02 -0.31576778334E+02  0.45045683838E+02  0.00000000000E+00 0. -1.
         11    1    3    3    0    0 -0.23714331661E+01 -0.17999419609E+01  0.70077996685E+01  0.76139833713E+01  0.51100000000E-03 0. -1.
        -11    1    3    3    0    0 -0.70939866397E+01 -0.20544597661E+02  0.17139143103E+02  0.27679511666E+02  0.51100000000E-03 0.  1.
         12    1    3    3    0    0 -0.39707233235E+01 -0.68357749811E+01  0.74298355625E+01  0.10848821124E+02  0.00000000000E+00 0. -1.
</event>
<event>
 7    1  0.1466590E-008  0.4614232E+02  0.7816164E-02  0.1320468E+00
        -11   -1    0    0    0    0  0.00000000000E+00  0.00000000000E+00  0.45593999997E+02  0.45594000000E+02  0.51100000000E-03 0.  1.
         11   -1    0    0    0    0 -0.00000000000E+00 -0.00000000000E+00 -0.45593999997E+02  0.45594000000E+02  0.51100000000E-03 0. -1.
    9900012    2    1    2    0    0 -0.33979475004E+02 -0.24567699038E+02  0.16460160662E+02  0.46142318224E+02  0.10000004225E+02 0.  0.
         12    1    1    2    0    0  0.33979475004E+02  0.24567699038E+02 -0.16460160662E+02  0.45045681776E+02  0.00000000000E+00 0. -1.
         11    1    3    3    0    0 -0.20211757362E+01 -0.57444447641E+00  0.18437679794E+01  0.27954639036E+01  0.51100000000E-03 0. -1.
        -11    1    3    3    0    0 -0.32117662040E+01 -0.62458855834E+01  0.23840330420E+01  0.74168822747E+01  0.51100000000E-03 0.  1.
        -12    1    3    3    0    0 -0.28746533064E+02 -0.17747368979E+02  0.12232359641E+02  0.35929972046E+02  0.00000000000E+00 0.  1.
</event>
<event>
 7    1  0.1466590E-008  0.4614232E+02  0.7816164E-02  0.1320468E+00
        -11   -1    0    0    0    0  0.00000000000E+00  0.00000000000E+00  0.45593999997E+02  0.45594000000E+02  0.51100000000E-03 0.  1.
         11   -1    0    0    0    0 -0.00000000000E+00 -0.00000000000E+00 -0.45593999997E+02  0.45594000000E+02  0.51100000000E-03 0. -1.
    9900012    2    1    2    0    0  0.22160175967E+02  0.19183914694E+02  0.34205518157E+02  0.46142318140E+02  0.10000003452E+02 0.  0.
         12    1    1    2    0    0 -0.22160175967E+02 -0.19183914694E+02 -0.34205518157E+02  0.45045681860E+02  0.00000000000E+00 0. -1.
         11    1    3    3    0    0  0.63357245893E+01  0.69659877496E+01  0.62434325649E+01  0.11298090186E+02  0.51100000000E-03 0. -1.
        -11    1    3    3    0    0  0.13475719975E+02  0.11795581464E+02  0.21656793724E+02  0.28102446256E+02  0.51100000000E-03 0.  1.
         12    1    3    3    0    0  0.23487314028E+01  0.42234547942E+00  0.63052918683E+01  0.67417816971E+01  0.00000000000E+00 0. -1.
</event>
<event>
 7    1  0.1466590E-008  0.4614232E+02  0.7816164E-02  0.1320468E+00
        -11   -1    0    0    0    0  0.00000000000E+00  0.00000000000E+00  0.45593999997E+02  0.45594000000E+02  0.51100000000E-03 0.  1.
         11   -1    0    0    0    0 -0.00000000000E+00 -0.00000000000E+00 -0.45593999997E+02  0.45594000000E+02  0.51100000000E-03 0. -1.
    9900012    2    1    2    0    0 -0.19815484802E+02  0.29856456804E+02  0.27295641773E+02  0.46142317514E+02  0.99999977452E+01 0.  0.
         12    1    1    2    0    0  0.19815484802E+02 -0.29856456804E+02 -0.27295641773E+02  0.45045682486E+02  0.00000000000E+00 0. -1.
         11    1    3    3    0    0 -0.11128830594E+01  0.38822502125E+01  0.67871020584E+01  0.78977927314E+01  0.51100000000E-03 0. -1.
        -11    1    3    3    0    0 -0.15387986550E+02  0.20044020089E+02  0.14266881825E+02  0.29018903988E+02  0.51100000000E-03 0.  1.
         12    1    3    3    0    0 -0.33146151923E+01  0.59301865026E+01  0.62416578891E+01  0.92256207939E+01  0.00000000000E+00 0. -1.
</event>
<event>
 7    1  0.1466590E-008  0.4614232E+02  0.7816164E-02  0.1320468E+00
        -11   -1    0    0    0    0  0.00000000000E+00  0.00000000000E+00  0.45593999997E+02  0.45594000000E+02  0.51100000000E-03 0.  1.
         11   -1    0    0    0    0 -0.00000000000E+00 -0.00000000000E+00 -0.45593999997E+02  0.45594000000E+02  0.51100000000E-03 0. -1.
    9900012    2    1    2    0    0  0.11209923460E+02 -0.24122443945E+02  0.36353250898E+02  0.46142317225E+02  0.99999951082E+01 0.  0.
         12    1    1    2    0    0 -0.11209923460E+02  0.24122443945E+02 -0.36353250898E+02  0.45045682775E+02  0.00000000000E+00 0. -1.
         11    1    3    3    0    0  0.45476457408E+01 -0.84619763885E+01  0.68579600449E+01  0.11803293711E+02  0.51100000000E-03 0. -1.
        -11    1    3    3    0    0  0.70706915221E+01 -0.14446999571E+02  0.25550911863E+02  0.30192044855E+02  0.51100000000E-03 0.  1.
        -12    1    3    3    0    0 -0.40841380308E+00 -0.12134679857E+01  0.39443789893E+01  0.41469786590E+01  0.00000000000E+00 0.  1.
</event>
<event>
 7    1  0.1466590E-008  0.4614232E+02  0.7816164E-02  0.1320468E+00
        -11   -1    0    0    0    0  0.00000000000E+00  0.00000000000E+00  0.45593999997E+02  0.45594000000E+02  0.51100000000E-03 0. -1.
         11   -1    0    0    0    0 -0.00000000000E+00 -0.00000000000E+00 -0.45593999997E+02  0.45594000000E+02  0.51100000000E-03 0.  1.
    9900012    2    1    2    0    0 -0.20031338648E+02  0.19726425246E+02 -0.35195554723E+02  0.46142318150E+02  0.10000003551E+02 0.  0.
         12    1    1    2    0    0  0.20031338648E+02 -0.19726425246E+02  0.35195554723E+02  0.45045681850E+02  0.00000000000E+00 0. -1.
         11    1    3    3    0    0 -0.42789618197E+01  0.34664220043E+01 -0.11897973522E+02  0.13110582365E+02  0.51100000000E-03 0. -1.
        -11    1    3    3    0    0 -0.12919137042E+02  0.15743921393E+02 -0.21606745489E+02  0.29692197858E+02  0.51100000000E-03 0.  1.
        -12    1    3    3    0    0 -0.28332397864E+01  0.51608184831E+00 -0.16908357119E+01  0.33395379271E+01  0.00000000000E+00 0.  1.
</event>
<event>
 7    1  0.1466590E-008  0.4614232E+02  0.7816164E-02  0.1320468E+00
        -11   -1    0    0    0    0  0.00000000000E+00  0.00000000000E+00  0.45593999997E+02  0.45594000000E+02  0.51100000000E-03 0. -1.
         11   -1    0    0    0    0 -0.00000000000E+00 -0.00000000000E+00 -0.45593999997E+02  0.45594000000E+02  0.51100000000E-03 0.  1.
    9900012    2    1    2    0    0 -0.11020922024E+02  0.35746740854E+02 -0.25096281566E+02  0.46142317050E+02  0.99999935178E+01 0.  0.
         12    1    1    2    0    0  0.11020922024E+02 -0.35746740854E+02  0.25096281566E+02  0.45045682950E+02  0.00000000000E+00 0. -1.
         11    1    3    3    0    0  0.12012693031E-01  0.24976021919E+01 -0.44258561611E+01  0.50819645840E+01  0.51100000000E-03 0. -1.
        -11    1    3    3    0    0 -0.46531831617E+00  0.64891689669E+01 -0.55854257403E+01  0.85745446513E+01  0.51100000000E-03 0.  1.
         12    1    3    3    0    0 -0.10567616401E+02  0.26759969696E+02 -0.15084999665E+02  0.32485807815E+02  0.00000000000E+00 0. -1.
</event>
<event>
 7    1  0.1466590E-008  0.4614232E+02  0.7816164E-02  0.1320468E+00
        -11   -1    0    0    0    0  0.00000000000E+00  0.00000000000E+00  0.45593999997E+02  0.45594000000E+02  0.51100000000E-03 0.  1.
         11   -1    0    0    0    0 -0.00000000000E+00 -0.00000000000E+00 -0.45593999997E+02  0.45594000000E+02  0.51100000000E-03 0. -1.
    9900012    2    1    2    0    0 -0.15421891094E+02  0.41981726144E+02  0.53678117907E+01  0.46142318094E+02  0.10000003038E+02 0.  0.
         12    1    1    2    0    0  0.15421891094E+02 -0.41981726144E+02 -0.53678117907E+01  0.45045681906E+02  0.00000000000E+00 0. -1.
         11    1    3    3    0    0 -0.18869257145E+01  0.11289254534E+02  0.10477391632E+00  0.11446341530E+02  0.51100000000E-03 0. -1.
        -11    1    3    3    0    0 -0.88957238774E+01  0.11479265170E+02  0.18966797934E+01  0.14645983294E+02  0.51100000000E-03 0.  1.
        -12    1    3    3    0    0 -0.46392415024E+01  0.19213206439E+02  0.33663580810E+01  0.20049993270E+02  0.00000000000E+00 0.  1.
</event>
<event>
 7    1  0.1466590E-008  0.4614232E+02  0.7816164E-02  0.1320468E+00
        -11   -1    0    0    0    0  0.00000000000E+00  0.00000000000E+00  0.45593999997E+02  0.45594000000E+02  0.51100000000E-03 0.  1.
         11   -1    0    0    0    0 -0.00000000000E+00 -0.00000000000E+00 -0.45593999997E+02  0.45594000000E+02  0.51100000000E-03 0. -1.
    9900012    2    1    2    0    0  0.21917464909E+02 -0.20355758239E+02  0.33680578060E+02  0.46142317632E+02  0.99999988264E+01 0.  0.
         12    1    1    2    0    0 -0.21917464909E+02  0.20355758239E+02 -0.33680578060E+02  0.45045682368E+02  0.00000000000E+00 0. -1.
         11    1    3    3    0    0  0.11440708982E+02 -0.10395862559E+02  0.23035007029E+02  0.27741220763E+02  0.51100000000E-03 0. -1.
        -11    1    3    3    0    0  0.77308887887E+01 -0.75998670508E+01  0.99486077962E+01  0.14713919192E+02  0.51100000000E-03 0.  1.
         12    1    3    3    0    0  0.27458671378E+01 -0.23600286296E+01  0.69696323495E+00  0.36871776770E+01  0.00000000000E+00 0. -1.
</event>
<event>
 7    1  0.1466590E-008  0.4614232E+02  0.7816164E-02  0.1320468E+00
        -11   -1    0    0    0    0  0.00000000000E+00  0.00000000000E+00  0.45593999997E+02  0.45594000000E+02  0.51100000000E-03 0. -1.
         11   -1    0    0    0    0 -0.00000000000E+00 -0.00000000000E+00 -0.45593999997E+02  0.45594000000E+02  0.51100000000E-03 0.  1.
    9900012    2    1    2    0    0  0.40779919450E+02  0.16424874732E+02  0.98150458320E+01  0.46142318020E+02  0.10000002363E+02 0.  0.
         12    1    1    2    0    0 -0.40779919450E+02 -0.16424874732E+02 -0.98150458320E+01  0.45045681980E+02  0.00000000000E+00 0. -1.
         11    1    3    3    0    0  0.33812893312E+02  0.92500521836E+01  0.72122998109E+01  0.35789558371E+02  0.51100000000E-03 0. -1.
        -11    1    3    3    0    0  0.38054946719E+01  0.38688604408E+01  0.17303717704E+01  0.56959685334E+01  0.51100000000E-03 0.  1.
         12    1    3    3    0    0  0.31615314664E+01  0.33059621071E+01  0.87237425068E+00  0.46567911162E+01  0.00000000000E+00 0. -1.
</event>
<event>
 7    1  0.1466590E-008  0.4614232E+02  0.7816164E-02  0.1320468E+00
        -11   -1    0    0    0    0  0.00000000000E+00  0.00000000000E+00  0.45593999997E+02  0.45594000000E+02  0.51100000000E-03 0. -1.
         11   -1    0    0    0    0 -0.00000000000E+00 -0.00000000000E+00 -0.45593999997E+02  0.45594000000E+02  0.51100000000E-03 0.  1.
    9900012    2    1    2    0    0  0.70634887418E+01 -0.27734659591E+02 -0.34785186202E+02  0.46142318799E+02  0.10000009461E+02 0.  0.
         12    1    1    2    0    0 -0.70634887418E+01  0.27734659591E+02  0.34785186202E+02  0.45045681201E+02  0.00000000000E+00 0. -1.
         11    1    3    3    0    0  0.26910729363E+01 -0.10350720145E+02 -0.20764966970E+02  0.23357292964E+02  0.51100000000E-03 0. -1.
        -11    1    3    3    0    0  0.43736993724E+01 -0.16784569908E+02 -0.13715903581E+02  0.22112825339E+02  0.51100000000E-03 0.  1.
         12    1    3    3    0    0 -0.12835669009E-02 -0.59936953794E+00 -0.30431565064E+00  0.67220049523E+00  0.00000000000E+00 0. -1.
</event>
<event>
 7    1  0.1466590E-008  0.4614232E+02  0.7816164E-02  0.1320468E+00
        -11   -1    0    0    0    0  0.00000000000E+00  0.00000000000E+00  0.45593999997E+02  0.45594000000E+02  0.51100000000E-03 0. -1.
         11   -1    0    0    0    0 -0.00000000000E+00 -0.00000000000E+00 -0.45593999997E+02  0.45594000000E+02  0.51100000000E-03 0.  1.
    9900012    2    1    2    0    0  0.33728040848E+01  0.44916797402E+02  0.46796312464E+00  0.46142317790E+02  0.10000000268E+02 0.  0.
         12    1    1    2    0    0 -0.33728040848E+01 -0.44916797402E+02 -0.46796312464E+00  0.45045682210E+02  0.00000000000E+00 0. -1.
         11    1    3    3    0    0  0.30037742192E+01  0.93832918880E+01 -0.14279869601E+01  0.99552987516E+01  0.51100000000E-03 0. -1.
        -11    1    3    3    0    0 -0.13141239501E+01  0.32444778649E+02  0.72429803425E+00  0.32479457988E+02  0.51100000000E-03 0.  1.
        -12    1    3    3    0    0  0.16831538157E+01  0.30887268652E+01  0.11716520505E+01  0.37075610504E+01  0.00000000000E+00 0.  1.
</event>
<event>
 7    1  0.1466590E-008  0.4614231E+02  0.7816164E-02  0.1320468E+00
        -11   -1    0    0    0    0  0.00000000000E+00  0.00000000000E+00  0.45593999997E+02  0.45594000000E+02  0.51100000000E-03 0.  1.
         11   -1    0    0    0    0 -0.00000000000E+00 -0.00000000000E+00 -0.45593999997E+02  0.45594000000E+02  0.51100000000E-03 0. -1.
    9900012    2    1    2    0    0  0.25773077887E+02 -0.36483191858E+02 -0.58171260875E+01  0.46142314437E+02  0.99999696862E+01 0.  0.
         12    1    1    2    0    0 -0.25773077887E+02  0.36483191858E+02  0.58171260875E+01  0.45045685563E+02  0.00000000000E+00 0. -1.
         11    1    3    3    0    0 -0.37345626858E+00 -0.31796110135E+01  0.17195104057E+00  0.32060822203E+01  0.51100000000E-03 0. -1.
        -11    1    3    3    0    0  0.19846263899E+02 -0.26542717976E+02 -0.60767232520E+01  0.33694459990E+02  0.51100000000E-03 0.  1.
         12    1    3    3    0    0  0.63002702562E+01 -0.67608628690E+01  0.87646123936E-01  0.92417722260E+01  0.00000000000E+00 0. -1.
</event>
<event>
 7    1  0.1466590E-008  0.4614232E+02  0.7816164E-02  0.1320468E+00
        -11   -1    0    0    0    0  0.00000000000E+00  0.00000000000E+00  0.45593999997E+02  0.45594000000E+02  0.51100000000E-03 0. -1.
         11   -1    0    0    0    0 -0.00000000000E+00 -0.00000000000E+00 -0.45593999997E+02  0.45594000000E+02  0.51100000000E-03 0.  1.
    9900012    2    1    2    0    0  0.51926861232E+01 -0.27092134726E+02 -0.35611315267E+02  0.46142317319E+02  0.99999959678E+01 0.  0.
         12    1    1    2    0    0 -0.51926861232E+01  0.27092134726E+02  0.35611315267E+02  0.45045682681E+02  0.00000000000E+00 0. -1.
         11    1    3    3    0    0 -0.10884275869E+01 -0.13849284457E+02 -0.13497961183E+02  0.19369623408E+02  0.51100000000E-03 0. -1.
        -11    1    3    3    0    0  0.33079884867E+01 -0.10354959170E+02 -0.17167510058E+02  0.20319728568E+02  0.51100000000E-03 0.  1.
         12    1    3    3    0    0  0.29731252234E+01 -0.28878910985E+01 -0.49458440258E+01  0.64529653430E+01  0.00000000000E+00 0. -1.
</event>
<event>
 7    1  0.1466590E-008  0.4614232E+02  0.7816164E-02  0.1320468E+00
        -11   -1    0    0    0    0  0.00000000000E+00  0.00000000000E+00  0.45593999997E+02  0.45594000000E+02  0.51100000000E-03 0. -1.
         11   -1    0    0    0    0 -0.00000000000E+00 -0.00000000000E+00 -0.45593999997E+02  0.45594000000E+02  0.51100000000E-03 0.  1.
    9900012    2    1    2    0    0  0.21694329891E+02 -0.29162358219E+02 -0.26608763537E+02  0.46142318927E+02  0.10000010634E+02 0.  0.
         12    1    1    2    0    0 -0.21694329891E+02  0.29162358219E+02  0.26608763537E+02  0.45045681073E+02  0.00000000000E+00 0. -1.
         11    1    3    3    0    0  0.12541847165E+02 -0.14924138026E+02 -0.13526531625E+02  0.23727513232E+02  0.51100000000E-03 0. -1.
        -11    1    3    3    0    0  0.80551821786E+01 -0.64518257110E+01 -0.69397591112E+01  0.12436730749E+02  0.51100000000E-03 0.  1.
         12    1    3    3    0    0  0.10973005482E+01 -0.77863944819E+01 -0.61424728013E+01  0.99780749463E+01  0.00000000000E+00 0. -1.
</event>
<event>
 7    1  0.1466590E-008  0.4614232E+02  0.7816164E-02  0.1320468E+00
        -11   -1    0    0    0    0  0.00000000000E+00  0.00000000000E+00  0.45593999997E+02  0.45594000000E+02  0.51100000000E-03 0. -1.
         11   -1    0    0    0    0 -0.00000000000E+00 -0.00000000000E+00 -0.45593999997E+02  0.45594000000E+02  0.51100000000E-03 0.  1.
    9900012    2    1    2    0    0 -0.32914489432E+02  0.29031064206E+02 -0.10146291445E+02  0.46142317259E+02  0.99999954213E+01 0.  0.
         12    1    1    2    0    0  0.32914489432E+02 -0.29031064206E+02  0.10146291445E+02  0.45045682741E+02  0.00000000000E+00 0. -1.
         11    1    3    3    0    0 -0.12598643991E+02  0.12820481049E+02 -0.51327789671E+01  0.18693206919E+02  0.51100000000E-03 0. -1.
        -11    1    3    3    0    0 -0.17429123513E+02  0.16454934536E+02 -0.52656482952E+01  0.24541113855E+02  0.51100000000E-03 0.  1.
         12    1    3    3    0    0 -0.28867219288E+01 -0.24435137807E+00  0.25213581762E+00  0.29079964856E+01  0.00000000000E+00 0. -1.
</event>
<event>
 7    1  0.1466590E-008  0.4614232E+02  0.7816164E-02  0.1320468E+00
        -11   -1    0    0    0    0  0.00000000000E+00  0.00000000000E+00  0.45593999997E+02  0.45594000000E+02  0.51100000000E-03 0. -1.
         11   -1    0    0    0    0 -0.00000000000E+00 -0.00000000000E+00 -0.45593999997E+02  0.45594000000E+02  0.51100000000E-03 0.  1.
    9900012    2    1    2    0    0  0.27603013894E+00 -0.30548426600E+02 -0.33103332171E+02  0.46142321393E+02  0.10000033115E+02 0.  0.
         12    1    1    2    0    0 -0.27603013894E+00  0.30548426600E+02  0.33103332171E+02  0.45045678607E+02  0.00000000000E+00 0. -1.
         11    1    3    3    0    0  0.10963361583E+00 -0.46992536113E-01 -0.11033913576E+01  0.11098200653E+01  0.51100000000E-03 0. -1.
        -11    1    3    3    0    0 -0.30940313177E+01 -0.10713594564E+02 -0.15314409422E+02  0.18944267589E+02  0.51100000000E-03 0.  1.
        -12    1    3    3    0    0  0.32604278408E+01 -0.19787839500E+02 -0.16685531391E+02  0.26088233738E+02  0.00000000000E+00 0.  1.
</event>
<event>
 7    1  0.1466590E-008  0.4614232E+02  0.7816164E-02  0.1320468E+00
        -11   -1    0    0    0    0  0.00000000000E+00  0.00000000000E+00  0.45593999997E+02  0.45594000000E+02  0.51100000000E-03 0. -1.
         11   -1    0    0    0    0 -0.00000000000E+00 -0.00000000000E+00 -0.45593999997E+02  0.45594000000E+02  0.51100000000E-03 0.  1.
    9900012    2    1    2    0    0 -0.14380493775E+02 -0.23752679628E+02 -0.35470059118E+02  0.46142317803E+02  0.10000000386E+02 0.  0.
         12    1    1    2    0    0  0.14380493775E+02  0.23752679628E+02  0.35470059118E+02  0.45045682197E+02  0.00000000000E+00 0. -1.
         11    1    3    3    0    0 -0.59211083905E+00  0.40404849923E+00 -0.15108678881E+00  0.73258304261E+00  0.51100000000E-03 0. -1.
        -11    1    3    3    0    0 -0.51074112138E+01 -0.10242766983E+02 -0.97609206713E+01  0.15042456494E+02  0.51100000000E-03 0.  1.
        -12    1    3    3    0    0 -0.86809717221E+01 -0.13913961145E+02 -0.25558051658E+02  0.30367278266E+02  0.00000000000E+00 0.  1.
</event>
<event>
 7    1  0.1466590E-008  0.4614232E+02  0.7816164E-02  0.1320468E+00
        -11   -1    0    0    0    0  0.00000000000E+00  0.00000000000E+00  0.45593999997E+02  0.45594000000E+02  0.51100000000E-03 0.  1.
         11   -1    0    0    0    0 -0.00000000000E+00 -0.00000000000E+00 -0.45593999997E+02  0.45594000000E+02  0.51100000000E-03 0. -1.
    9900012    2    1    2    0    0 -0.34845058877E+02  0.28541122111E+02 -0.58284755286E+00  0.46142317734E+02  0.99999997566E+01 0.  0.
         12    1    1    2    0    0  0.34845058877E+02 -0.28541122111E+02  0.58284755286E+00  0.45045682266E+02  0.00000000000E+00 0. -1.
         11    1    3    3    0    0 -0.97690174015E+01  0.13048777449E+02 -0.17995269666E+01  0.16399469244E+02  0.51100000000E-03 0. -1.
        -11    1    3    3    0    0 -0.93403127259E+01  0.73198463061E+01  0.17960588640E+01  0.12001975648E+02  0.51100000000E-03 0.  1.
         12    1    3    3    0    0 -0.15735728750E+02  0.81724983556E+01 -0.57937945024E+00  0.17740872842E+02  0.00000000000E+00 0. -1.
</event>
<event>
 7    1  0.1466590E-008  0.4614232E+02  0.7816164E-02  0.1320468E+00
        -11   -1    0    0    0    0  0.00000000000E+00  0.00000000000E+00  0.45593999997E+02  0.45594000000E+02  0.51100000000E-03 0. -1.
         11   -1    0    0    0    0 -0.00000000000E+00 -0.00000000000E+00 -0.45593999997E+02  0.45594000000E+02  0.51100000000E-03 0.  1.
    9900012    2    1    2    0    0  0.19907783512E+02  0.35619565170E+02 -0.19079833702E+02  0.46142319615E+02  0.10000016902E+02 0.  0.
         12    1    1    2    0    0 -0.19907783512E+02 -0.35619565170E+02  0.19079833702E+02  0.45045680385E+02  0.00000000000E+00 0. -1.
         11    1    3    3    0    0  0.47822181387E+01  0.11790605249E+02 -0.63715983858E+01  0.14229731154E+02  0.51100000000E-03 0. -1.
        -11    1    3    3    0    0  0.89142404882E+01  0.18768271996E+02 -0.11678281743E+02  0.23834722191E+02  0.51100000000E-03 0.  1.
         12    1    3    3    0    0  0.62113248853E+01  0.50606879253E+01 -0.10299535733E+01  0.80778662697E+01  0.00000000000E+00 0. -1.
</event>
<event>
 7    1  0.1466590E-008  0.4614232E+02  0.7816164E-02  0.1320468E+00
        -11   -1    0    0    0    0  0.00000000000E+00  0.00000000000E+00  0.45593999997E+02  0.45594000000E+02  0.51100000000E-03 0.  1.
         11   -1    0    0    0    0 -0.00000000000E+00 -0.00000000000E+00 -0.45593999997E+02  0.45594000000E+02  0.51100000000E-03 0. -1.
    9900012    2    1    2    0    0  0.31549200291E+02  0.24279933886E+02  0.21077151417E+02  0.46142317184E+02  0.99999947362E+01 0.  0.
         12    1    1    2    0    0 -0.31549200291E+02 -0.24279933886E+02 -0.21077151417E+02  0.45045682816E+02  0.00000000000E+00 0. -1.
         11    1    3    3    0    0  0.13061024621E+02  0.13698680036E+02  0.92175958215E+01  0.21052512246E+02  0.51100000000E-03 0. -1.
        -11    1    3    3    0    0  0.70766567607E+00  0.23642399654E+01  0.19076797108E+01  0.31192408473E+01  0.51100000000E-03 0.  1.
         12    1    3    3    0    0  0.17780509994E+02  0.82170138842E+01  0.99518758843E+01  0.21970564090E+02  0.00000000000E+00 0. -1.
</event>
<event>
 7    1  0.1466590E-008  0.4614232E+02  0.7816164E-02  0.1320468E+00
        -11   -1    0    0    0    0  0.00000000000E+00  0.00000000000E+00  0.45593999997E+02  0.45594000000E+02  0.51100000000E-03 0.  1.
         11   -1    0    0    0    0 -0.00000000000E+00 -0.00000000000E+00 -0.45593999997E+02  0.45594000000E+02  0.51100000000E-03 0. -1.
    9900012    2    1    2    0    0  0.20049600829E+02  0.14124219246E+02  0.37784035705E+02  0.46142318554E+02  0.10000007233E+02 0.  0.
         12    1    1    2    0    0 -0.20049600829E+02 -0.14124219246E+02 -0.37784035705E+02  0.45045681446E+02  0.00000000000E+00 0. -1.
         11    1    3    3    0    0  0.10629085926E+02  0.42454030306E+01  0.24565643044E+02  0.27101138960E+02  0.51100000000E-03 0. -1.
        -11    1    3    3    0    0  0.50416061331E+01  0.44296272999E+01  0.62516513114E+01  0.91718337751E+01  0.51100000000E-03 0.  1.
         12    1    3    3    0    0  0.43789087703E+01  0.54491889160E+01  0.69667413498E+01  0.98693458190E+01  0.00000000000E+00 0. -1.
</event>
<event>
 7    1  0.1466590E-008  0.4614232E+02  0.7816164E-02  0.1320468E+00
        -11   -1    0    0    0    0  0.00000000000E+00  0.00000000000E+00  0.45593999997E+02  0.45594000000E+02  0.51100000000E-03 0. -1.
         11   -1    0    0    0    0 -0.00000000000E+00 -0.00000000000E+00 -0.45593999997E+02  0.45594000000E+02  0.51100000000E-03 0.  1.
    9900012    2    1    2    0    0 -0.17078524991E+02  0.38533638838E+02 -0.15893265161E+02  0.46142320791E+02  0.10000027628E+02 0.  0.
         12    1    1    2    0    0  0.17078524991E+02 -0.38533638838E+02  0.15893265161E+02  0.45045679209E+02  0.00000000000E+00 0. -1.
         11    1    3    3    0    0 -0.13235890413E+02  0.24539534240E+02 -0.12975002563E+02  0.30752694639E+02  0.51100000000E-03 0. -1.
        -11    1    3    3    0    0 -0.28488774033E+01  0.13657586992E+02 -0.22143592553E+01  0.14126187458E+02  0.51100000000E-03 0.  1.
         12    1    3    3    0    0 -0.99375717419E+00  0.33651760507E+00 -0.70390334232E+00  0.12634386946E+01  0.00000000000E+00 0. -1.
</event>
<event>
 7    1  0.1466590E-008  0.4614232E+02  0.7816164E-02  0.1320468E+00
        -11   -1    0    0    0    0  0.00000000000E+00  0.00000000000E+00  0.45593999997E+02  0.45594000000E+02  0.51100000000E-03 0.  1.
         11   -1    0    0    0    0 -0.00000000000E+00 -0.00000000000E+00 -0.45593999997E+02  0.45594000000E+02  0.51100000000E-03 0. -1.
    9900012    2    1    2    0    0 -0.43981833727E+02  0.97194528073E+01  0.49398443569E+00  0.46142317838E+02  0.10000000699E+02 0.  0.
         12    1    1    2    0    0  0.43981833727E+02 -0.97194528073E+01 -0.49398443569E+00  0.45045682162E+02  0.00000000000E+00 0. -1.
         11    1    3    3    0    0 -0.22366682168E+02  0.15641817016E+01  0.15299204454E+01  0.22473446385E+02  0.51100000000E-03 0. -1.
        -11    1    3    3    0    0 -0.66678245615E+01  0.27386399514E+01 -0.26692849434E+01  0.76866843005E+01  0.51100000000E-03 0.  1.
         12    1    3    3    0    0 -0.14947326998E+02  0.54166311543E+01  0.16333489337E+01  0.15982187152E+02  0.00000000000E+00 0. -1.
</event>
<event>
 7    1  0.1466590E-008  0.4614232E+02  0.7816164E-02  0.1320468E+00
        -11   -1    0    0    0    0  0.00000000000E+00  0.00000000000E+00  0.45593999997E+02  0.45594000000E+02  0.51100000000E-03 0.  1.
         11   -1    0    0    0    0 -0.00000000000E+00 -0.00000000000E+00 -0.45593999997E+02  0.45594000000E+02  0.51100000000E-03 0. -1.
    9900012    2    1    2    0    0  0.17263932175E+01  0.21177184849E+02  0.39719766733E+02  0.46142318065E+02  0.10000002770E+02 0.  0.
         12    1    1    2    0    0 -0.17263932175E+01 -0.21177184849E+02 -0.39719766733E+02  0.45045681935E+02  0.00000000000E+00 0. -1.
         11    1    3    3    0    0  0.35154791955E+01  0.52170610863E+01  0.83181731610E+01  0.10429205404E+02  0.51100000000E-03 0. -1.
        -11    1    3    3    0    0 -0.33175002223E+01  0.12699768595E+02  0.27037812985E+02  0.30055503014E+02  0.51100000000E-03 0.  1.
        -12    1    3    3    0    0  0.15284142443E+01  0.32603551671E+01  0.43637805868E+01  0.56576096478E+01  0.00000000000E+00 0.  1.
</event>
<event>
 7    1  0.1466590E-008  0.4614232E+02  0.7816164E-02  0.1320468E+00
        -11   -1    0    0    0    0  0.00000000000E+00  0.00000000000E+00  0.45593999997E+02  0.45594000000E+02  0.51100000000E-03 0.  1.
         11   -1    0    0    0    0 -0.00000000000E+00 -0.00000000000E+00 -0.45593999997E+02  0.45594000000E+02  0.51100000000E-03 0. -1.
    9900012    2    1    2    0    0  0.12908841468E+02  0.90072669258E+01  0.42205975599E+02  0.46142318500E+02  0.10000006736E+02 0.  0.
         12    1    1    2    0    0 -0.12908841468E+02 -0.90072669258E+01 -0.42205975599E+02  0.45045681500E+02  0.00000000000E+00 0. -1.
         11    1    3    3    0    0  0.28158378040E+01 -0.13049899949E+01  0.10909643656E+02  0.11342498243E+02  0.51100000000E-03 0. -1.
        -11    1    3    3    0    0  0.79974750621E+01  0.96119412199E+01  0.22613298140E+02  0.25840090449E+02  0.51100000000E-03 0.  1.
        -12    1    3    3    0    0  0.20955286019E+01  0.70031570081E+00  0.86830338030E+01  0.89597298077E+01  0.00000000000E+00 0.  1.
</event>
<event>
 7    1  0.1466590E-008  0.4614232E+02  0.7816164E-02  0.1320468E+00
        -11   -1    0    0    0    0  0.00000000000E+00  0.00000000000E+00  0.45593999997E+02  0.45594000000E+02  0.51100000000E-03 0. -1.
         11   -1    0    0    0    0 -0.00000000000E+00 -0.00000000000E+00 -0.45593999997E+02  0.45594000000E+02  0.51100000000E-03 0.  1.
    9900012    2    1    2    0    0  0.32570976841E+02  0.30898969867E+02  0.36740554572E+01  0.46142317024E+02  0.99999932817E+01 0.  0.
         12    1    1    2    0    0 -0.32570976841E+02 -0.30898969867E+02 -0.36740554572E+01  0.45045682976E+02  0.00000000000E+00 0. -1.
         11    1    3    3    0    0  0.34102590885E+00  0.39943535451E+00  0.99982045748E+00  0.11293752615E+01  0.51100000000E-03 0. -1.
        -11    1    3    3    0    0  0.20787733037E+02  0.18567920202E+02  0.50029357259E+01  0.28318313361E+02  0.51100000000E-03 0.  1.
         12    1    3    3    0    0  0.11442217895E+02  0.11931614310E+02 -0.23287007261E+01  0.16694628402E+02  0.00000000000E+00 0. -1.
</event>
<event>
 7    1  0.1466590E-008  0.4614232E+02  0.7816164E-02  0.1320468E+00
        -11   -1    0    0    0    0  0.00000000000E+00  0.00000000000E+00  0.45593999997E+02  0.45594000000E+02  0.51100000000E-03 0.  1.
         11   -1    0    0    0    0 -0.00000000000E+00 -0.00000000000E+00 -0.45593999997E+02  0.45594000000E+02  0.51100000000E-03 0. -1.
    9900012    2    1    2    0    0 -0.13017397236E+02  0.16063836900E+02  0.40020169706E+02  0.46142317964E+02  0.10000001854E+02 0.  0.
         12    1    1    2    0    0  0.13017397236E+02 -0.16063836900E+02 -0.40020169706E+02  0.45045682036E+02  0.00000000000E+00 0. -1.
         11    1    3    3    0    0 -0.76284483662E+01  0.47873792400E+01  0.11216782148E+02  0.14385007003E+02  0.51100000000E-03 0. -1.
        -11    1    3    3    0    0 -0.35901883779E+01  0.24160846945E+01  0.97905992956E+01  0.10704333359E+02  0.51100000000E-03 0.  1.
         12    1    3    3    0    0 -0.17987604915E+01  0.88603729651E+01  0.19012788262E+02  0.21052977602E+02  0.00000000000E+00 0. -1.
</event>
<event>
 7    1  0.1466590E-008  0.4614232E+02  0.7816164E-02  0.1320468E+00
        -11   -1    0    0    0    0  0.00000000000E+00  0.00000000000E+00  0.45593999997E+02  0.45594000000E+02  0.51100000000E-03 0.  1.
         11   -1    0    0    0    0 -0.00000000000E+00 -0.00000000000E+00 -0.45593999997E+02  0.45594000000E+02  0.51100000000E-03 0. -1.
    9900012    2    1    2    0    0 -0.41279002132E+02 -0.14713587700E+02 -0.10424378693E+02  0.46142319285E+02  0.10000013892E+02 0.  0.
         12    1    1    2    0    0  0.41279002132E+02  0.14713587700E+02  0.10424378693E+02  0.45045680715E+02  0.00000000000E+00 0. -1.
         11    1    3    3    0    0 -0.12790078529E+02 -0.86311609253E+01 -0.61618719637E+01  0.16614804063E+02  0.51100000000E-03 0. -1.
        -11    1    3    3    0    0 -0.10174991810E+02 -0.11070567138E+01 -0.17659851843E+01  0.10386276370E+02  0.51100000000E-03 0.  1.
         12    1    3    3    0    0 -0.18313931792E+02 -0.49753700613E+01 -0.24965215445E+01  0.19141238851E+02  0.00000000000E+00 0. -1.
</event>
<event>
 7    1  0.1466590E-008  0.4614232E+02  0.7816164E-02  0.1320468E+00
        -11   -1    0    0    0    0  0.00000000000E+00  0.00000000000E+00  0.45593999997E+02  0.45594000000E+02  0.51100000000E-03 0. -1.
         11   -1    0    0    0    0 -0.00000000000E+00 -0.00000000000E+00 -0.45593999997E+02  0.45594000000E+02  0.51100000000E-03 0.  1.
    9900012    2    1    2    0    0  0.27614618448E+02  0.28735071821E+02 -0.20996238663E+02  0.46142317159E+02  0.99999945082E+01 0.  0.
         12    1    1    2    0    0 -0.27614618448E+02 -0.28735071821E+02  0.20996238663E+02  0.45045682841E+02  0.00000000000E+00 0. -1.
         11    1    3    3    0    0  0.79052090491E+01  0.50025393937E+01 -0.61305432502E+01  0.11184868855E+02  0.51100000000E-03 0. -1.
        -11    1    3    3    0    0  0.12772982244E+02  0.17520162843E+02 -0.13512744475E+02  0.25547983188E+02  0.51100000000E-03 0.  1.
        -12    1    3    3    0    0  0.69364271546E+01  0.62123695852E+01 -0.13529509378E+01  0.94094651162E+01  0.00000000000E+00 0.  1.
</event>
<event>
 7    1  0.1466590E-008  0.4614232E+02  0.7816164E-02  0.1320468E+00
        -11   -1    0    0    0    0  0.00000000000E+00  0.00000000000E+00  0.45593999997E+02  0.45594000000E+02  0.51100000000E-03 0. -1.
         11   -1    0    0    0    0 -0.00000000000E+00 -0.00000000000E+00 -0.45593999997E+02  0.45594000000E+02  0.51100000000E-03 0.  1.
    9900012    2    1    2    0    0 -0.25455540746E+02 -0.33681062653E+02 -0.15707152156E+02  0.46142321351E+02  0.10000032732E+02 0.  0.
         12    1    1    2    0    0  0.25455540746E+02  0.33681062653E+02  0.15707152156E+02  0.45045678649E+02  0.00000000000E+00 0. -1.
         11    1    3    3    0    0 -0.10822672669E+02 -0.15295352361E+02 -0.22655803874E+01  0.18873550336E+02  0.51100000000E-03 0. -1.
        -11    1    3    3    0    0 -0.46919204735E+01 -0.37311414537E+01 -0.28846014503E+01  0.66525528983E+01  0.51100000000E-03 0.  1.
         12    1    3    3    0    0 -0.99409476044E+01 -0.14654568839E+02 -0.10556970318E+02  0.20616218116E+02  0.00000000000E+00 0. -1.
</event>
<event>
 7    1  0.1466590E-008  0.4614232E+02  0.7816164E-02  0.1320468E+00
        -11   -1    0    0    0    0  0.00000000000E+00  0.00000000000E+00  0.45593999997E+02  0.45594000000E+02  0.51100000000E-03 0. -1.
         11   -1    0    0    0    0 -0.00000000000E+00 -0.00000000000E+00 -0.45593999997E+02  0.45594000000E+02  0.51100000000E-03 0.  1.
    9900012    2    1    2    0    0 -0.23452802973E+02  0.33328124162E+02 -0.19191535423E+02  0.46142324743E+02  0.10000063664E+02 0.  0.
         12    1    1    2    0    0  0.23452802973E+02 -0.33328124162E+02  0.19191535423E+02  0.45045675257E+02  0.00000000000E+00 0. -1.
         11    1    3    3    0    0  0.89527143543E+00  0.16672630625E+01 -0.16778126990E+01  0.25290972257E+01  0.51100000000E-03 0. -1.
        -11    1    3    3    0    0 -0.14011190691E+02  0.18009810852E+02 -0.10155963992E+02  0.24976195794E+02  0.51100000000E-03 0.  1.
         12    1    3    3    0    0 -0.10336883718E+02  0.13651050248E+02 -0.73577587320E+01  0.18637031723E+02  0.00000000000E+00 0. -1.
</event>
<event>
 7    1  0.1466590E-008  0.4614232E+02  0.7816164E-02  0.1320468E+00
        -11   -1    0    0    0    0  0.00000000000E+00  0.00000000000E+00  0.45593999997E+02  0.45594000000E+02  0.51100000000E-03 0.  1.
         11   -1    0    0    0    0 -0.00000000000E+00 -0.00000000000E+00 -0.45593999997E+02  0.45594000000E+02  0.51100000000E-03 0. -1.
    9900012    2    1    2    0    0  0.13867082056E+02  0.90293200569E+01  0.41896168377E+02  0.46142317520E+02  0.99999978039E+01 0.  0.
         12    1    1    2    0    0 -0.13867082056E+02 -0.90293200569E+01 -0.41896168377E+02  0.45045682480E+02  0.00000000000E+00 0. -1.
         11    1    3    3    0    0 -0.84307634998E+00  0.12811277181E+00  0.39444765347E+01  0.40356023104E+01  0.51100000000E-03 0.  1.
        -11    1    3    3    0    0  0.15219822448E+02  0.88462983889E+01  0.35790805360E+02  0.39885858886E+02  0.51100000000E-03 0. -1.
         12    1    3    3    0    0 -0.50966404185E+00  0.54908896228E-01  0.21608864817E+01  0.22208563234E+01  0.00000000000E+00 0. -1.
</event>
<event>
 7    1  0.1466590E-008  0.4614232E+02  0.7816164E-02  0.1320468E+00
        -11   -1    0    0    0    0  0.00000000000E+00  0.00000000000E+00  0.45593999997E+02  0.45594000000E+02  0.51100000000E-03 0. -1.
         11   -1    0    0    0    0 -0.00000000000E+00 -0.00000000000E+00 -0.45593999997E+02  0.45594000000E+02  0.51100000000E-03 0.  1.
    9900012    2    1    2    0    0  0.37769785721E+02  0.23207744803E+02  0.79973129352E+01  0.46142321557E+02  0.10000034609E+02 0.  0.
         12    1    1    2    0    0 -0.37769785721E+02 -0.23207744803E+02 -0.79973129352E+01  0.45045678443E+02  0.00000000000E+00 0. -1.
         11    1    3    3    0    0  0.12457514286E+02  0.86231069741E+01 -0.46652993045E+00  0.15158010638E+02  0.51100000000E-03 0. -1.
        -11    1    3    3    0    0  0.23813239225E+02  0.15099531748E+02  0.82870919211E+01  0.29389489859E+02  0.51100000000E-03 0.  1.
        -12    1    3    3    0    0  0.14990322095E+01 -0.51489391934E+00  0.17675094455E+00  0.15948210589E+01  0.00000000000E+00 0.  1.
</event>
<event>
 7    1  0.1466590E-008  0.4614232E+02  0.7816164E-02  0.1320468E+00
        -11   -1    0    0    0    0  0.00000000000E+00  0.00000000000E+00  0.45593999997E+02  0.45594000000E+02  0.51100000000E-03 0.  1.
         11   -1    0    0    0    0 -0.00000000000E+00 -0.00000000000E+00 -0.45593999997E+02  0.45594000000E+02  0.51100000000E-03 0. -1.
    9900012    2    1    2    0    0 -0.13084743415E+02  0.23993496958E+01  0.43036566963E+02  0.46142317796E+02  0.10000000320E+02 0.  0.
         12    1    1    2    0    0  0.13084743415E+02 -0.23993496958E+01 -0.43036566963E+02  0.45045682204E+02  0.00000000000E+00 0. -1.
         11    1    3    3    0    0 -0.97850680344E+01  0.28592142234E+01  0.31911298815E+02  0.33500054549E+02  0.51100000000E-03 0. -1.
        -11    1    3    3    0    0 -0.37746213191E+01 -0.91154290258E-01  0.11379437904E+02  0.11989482160E+02  0.51100000000E-03 0.  1.
         12    1    3    3    0    0  0.47494593796E+00 -0.36871023732E+00 -0.25416975580E+00  0.65278108723E+00  0.00000000000E+00 0. -1.
</event>
<event>
 7    1  0.1466590E-008  0.4614232E+02  0.7816164E-02  0.1320468E+00
        -11   -1    0    0    0    0  0.00000000000E+00  0.00000000000E+00  0.45593999997E+02  0.45594000000E+02  0.51100000000E-03 0.  1.
         11   -1    0    0    0    0 -0.00000000000E+00 -0.00000000000E+00 -0.45593999997E+02  0.45594000000E+02  0.51100000000E-03 0. -1.
    9900012    2    1    2    0    0  0.17621526645E+02 -0.41330537177E+02  0.32220992239E+01  0.46142318431E+02  0.10000006106E+02 0.  0.
         12    1    1    2    0    0 -0.17621526645E+02  0.41330537177E+02 -0.32220992239E+01  0.45045681569E+02  0.00000000000E+00 0. -1.
         11    1    3    3    0    0  0.20964941462E+01 -0.57881515608E+01  0.14684673831E+01  0.63288532067E+01  0.51100000000E-03 0. -1.
        -11    1    3    3    0    0  0.93731745100E+01 -0.15357393847E+02 -0.28481808138E+01  0.18215874406E+02  0.51100000000E-03 0.  1.
        -12    1    3    3    0    0  0.61518579888E+01 -0.20184991769E+02  0.46018126546E+01  0.21597590818E+02  0.00000000000E+00 0.  1.
</event>
<event>
 7    1  0.1466590E-008  0.4614232E+02  0.7816164E-02  0.1320468E+00
        -11   -1    0    0    0    0  0.00000000000E+00  0.00000000000E+00  0.45593999997E+02  0.45594000000E+02  0.51100000000E-03 0. -1.
         11   -1    0    0    0    0 -0.00000000000E+00 -0.00000000000E+00 -0.45593999997E+02  0.45594000000E+02  0.51100000000E-03 0.  1.
    9900012    2    1    2    0    0  0.20816286174E+02  0.13320000150E+02 -0.37661296384E+02  0.46142318526E+02  0.10000006979E+02 0.  0.
         12    1    1    2    0    0 -0.20816286174E+02 -0.13320000150E+02  0.37661296384E+02  0.45045681474E+02  0.00000000000E+00 0. -1.
         11    1    3    3    0    0  0.24050433374E+01  0.42125819623E+01 -0.40819154516E+01  0.63397250933E+01  0.51100000000E-03 0. -1.
        -11    1    3    3    0    0  0.66389189584E+01  0.19591862321E+01 -0.16278923398E+02  0.17689460220E+02  0.51100000000E-03 0.  1.
         12    1    3    3    0    0  0.11772323878E+02  0.71482319561E+01 -0.17300457535E+02  0.22113133213E+02  0.00000000000E+00 0. -1.
</event>
<event>
 7    1  0.1466590E-008  0.4614232E+02  0.7816164E-02  0.1320468E+00
        -11   -1    0    0    0    0  0.00000000000E+00  0.00000000000E+00  0.45593999997E+02  0.45594000000E+02  0.51100000000E-03 0.  1.
         11   -1    0    0    0    0 -0.00000000000E+00 -0.00000000000E+00 -0.45593999997E+02  0.45594000000E+02  0.51100000000E-03 0. -1.
    9900012    2    1    2    0    0  0.26685118456E+02 -0.16755965273E+01  0.36252037659E+02  0.46142318685E+02  0.10000008425E+02 0.  0.
         12    1    1    2    0    0 -0.26685118456E+02  0.16755965273E+01 -0.36252037659E+02  0.45045681315E+02  0.00000000000E+00 0. -1.
         11    1    3    3    0    0  0.94288530419E+01 -0.45597633824E+00  0.94831600066E+01  0.13380639300E+02  0.51100000000E-03 0. -1.
        -11    1    3    3    0    0  0.13832816838E+02  0.21978359938E+01  0.18885525046E+02  0.23512557522E+02  0.51100000000E-03 0.  1.
         12    1    3    3    0    0  0.34234485764E+01 -0.34174561828E+01  0.78833526060E+01  0.92491218625E+01  0.00000000000E+00 0. -1.
</event>
<event>
 7    1  0.1466590E-008  0.4614232E+02  0.7816164E-02  0.1320468E+00
        -11   -1    0    0    0    0  0.00000000000E+00  0.00000000000E+00  0.45593999997E+02  0.45594000000E+02  0.51100000000E-03 0.  1.
         11   -1    0    0    0    0 -0.00000000000E+00 -0.00000000000E+00 -0.45593999997E+02  0.45594000000E+02  0.51100000000E-03 0. -1.
    9900012    2    1    2    0    0 -0.17448914532E+02  0.41461612463E+02  0.23629374273E+01  0.46142318746E+02  0.10000008980E+02 0.  0.
         12    1    1    2    0    0  0.17448914532E+02 -0.41461612463E+02 -0.23629374273E+01  0.45045681254E+02  0.00000000000E+00 0. -1.
         11    1    3    3    0    0 -0.85018038251E+01  0.12111977233E+02  0.25482438385E+01  0.15015798603E+02  0.51100000000E-03 0. -1.
        -11    1    3    3    0    0 -0.46030971284E+01  0.21137372502E+02  0.14990687755E+01  0.21684654180E+02  0.51100000000E-03 0.  1.
         12    1    3    3    0    0 -0.43440135787E+01  0.82122627278E+01 -0.16843751867E+01  0.94418659624E+01  0.00000000000E+00 0. -1.
</event>
<event>
 7    1  0.1466590E-008  0.4614232E+02  0.7816164E-02  0.1320468E+00
        -11   -1    0    0    0    0  0.00000000000E+00  0.00000000000E+00  0.45593999997E+02  0.45594000000E+02  0.51100000000E-03 0. -1.
         11   -1    0    0    0    0 -0.00000000000E+00 -0.00000000000E+00 -0.45593999997E+02  0.45594000000E+02  0.51100000000E-03 0.  1.
    9900012    2    1    2    0    0 -0.30104105498E+02  0.28139201050E+02 -0.18194548201E+02  0.46142318878E+02  0.10000010181E+02 0.  0.
         12    1    1    2    0    0  0.30104105498E+02 -0.28139201050E+02  0.18194548201E+02  0.45045681122E+02  0.00000000000E+00 0. -1.
         11    1    3    3    0    0 -0.46347313548E+01  0.19130761951E+01 -0.17662217730E+01  0.53160262294E+01  0.51100000000E-03 0. -1.
        -11    1    3    3    0    0 -0.62480666890E+01  0.90264550998E+01 -0.16552175322E+01  0.11102025687E+02  0.51100000000E-03 0.  1.
        -12    1    3    3    0    0 -0.19221307454E+02  0.17199669755E+02 -0.14773108896E+02  0.29724266961E+02  0.00000000000E+00 0.  1.
</event>
<event>
 7    1  0.1466590E-008  0.4614232E+02  0.7816164E-02  0.1320468E+00
        -11   -1    0    0    0    0  0.00000000000E+00  0.00000000000E+00  0.45593999997E+02  0.45594000000E+02  0.51100000000E-03 0.  1.
         11   -1    0    0    0    0 -0.00000000000E+00 -0.00000000000E+00 -0.45593999997E+02  0.45594000000E+02  0.51100000000E-03 0. -1.
    9900012    2    1    2    0    0  0.24328562070E+02  0.37213705270E+02 -0.72370320508E+01  0.46142318462E+02  0.10000006393E+02 0.  0.
         12    1    1    2    0    0 -0.24328562070E+02 -0.37213705270E+02  0.72370320508E+01  0.45045681538E+02  0.00000000000E+00 0. -1.
         11    1    3    3    0    0  0.54306284225E+01  0.44734589527E+01 -0.25930857822E+01  0.74985101320E+01  0.51100000000E-03 0. -1.
        -11    1    3    3    0    0  0.18968683389E+02  0.31660560064E+02 -0.35069523615E+01  0.37074259644E+02  0.51100000000E-03 0.  1.
        -12    1    3    3    0    0 -0.70749741973E-01  0.10796862538E+01 -0.11369939071E+01  0.15695486858E+01  0.00000000000E+00 0.  1.
</event>
<event>
 7    1  0.1466590E-008  0.4614232E+02  0.7816164E-02  0.1320468E+00
        -11   -1    0    0    0    0  0.00000000000E+00  0.00000000000E+00  0.45593999997E+02  0.45594000000E+02  0.51100000000E-03 0.  1.
         11   -1    0    0    0    0 -0.00000000000E+00 -0.00000000000E+00 -0.45593999997E+02  0.45594000000E+02  0.51100000000E-03 0. -1.
    9900012    2    1    2    0    0 -0.39467317409E+02  0.14646374481E+02  0.16028974304E+02  0.46142318230E+02  0.10000004271E+02 0.  0.
         12    1    1    2    0    0  0.39467317409E+02 -0.14646374481E+02 -0.16028974304E+02  0.45045681770E+02  0.00000000000E+00 0. -1.
         11    1    3    3    0    0 -0.13757642601E+02  0.16941380967E+01  0.42582928764E+01  0.14500892811E+02  0.51100000000E-03 0. -1.
        -11    1    3    3    0    0 -0.25494802023E+02  0.13452035156E+02  0.11576860592E+02  0.31063899972E+02  0.51100000000E-03 0.  1.
         12    1    3    3    0    0 -0.21487278548E+00 -0.49979877138E+00  0.19382083533E+00  0.57752544708E+00  0.00000000000E+00 0. -1.
</event>
<event>
 7    1  0.1466590E-008  0.4614232E+02  0.7816164E-02  0.1320468E+00
        -11   -1    0    0    0    0  0.00000000000E+00  0.00000000000E+00  0.45593999997E+02  0.45594000000E+02  0.51100000000E-03 0. -1.
         11   -1    0    0    0    0 -0.00000000000E+00 -0.00000000000E+00 -0.45593999997E+02  0.45594000000E+02  0.51100000000E-03 0.  1.
    9900012    2    1    2    0    0  0.62957994967E+01  0.33112624063E+02 -0.29883617890E+02  0.46142316723E+02  0.99999905376E+01 0.  0.
         12    1    1    2    0    0 -0.62957994967E+01 -0.33112624063E+02  0.29883617890E+02  0.45045683277E+02  0.00000000000E+00 0. -1.
         11    1    3    3    0    0 -0.58323438636E+00  0.42014112774E+01 -0.72587697220E+00  0.43033610947E+01  0.51100000000E-03 0. -1.
        -11    1    3    3    0    0  0.64009607591E+01  0.18371581078E+02 -0.18975709907E+02  0.27176549757E+02  0.51100000000E-03 0.  1.
         12    1    3    3    0    0  0.47807312392E+00  0.10539631708E+02 -0.10182031011E+02  0.14662405872E+02  0.00000000000E+00 0. -1.
</event>
<event>
 7    1  0.1466590E-008  0.4614232E+02  0.7816164E-02  0.1320468E+00
        -11   -1    0    0    0    0  0.00000000000E+00  0.00000000000E+00  0.45593999997E+02  0.45594000000E+02  0.51100000000E-03 0.  1.
         11   -1    0    0    0    0 -0.00000000000E+00 -0.00000000000E+00 -0.45593999997E+02  0.45594000000E+02  0.51100000000E-03 0. -1.
    9900012    2    1    2    0    0 -0.64619073588E+01 -0.41115121759E+01  0.44389781233E+02  0.46142318109E+02  0.10000003171E+02 0.  0.
         12    1    1    2    0    0  0.64619073588E+01  0.41115121759E+01 -0.44389781233E+02  0.45045681891E+02  0.00000000000E+00 0. -1.
         11    1    3    3    0    0 -0.28338423135E+01  0.29279918532E+01  0.17810878084E+02  0.18271047505E+02  0.51100000000E-03 0. -1.
        -11    1    3    3    0    0  0.11477921016E+00 -0.24981115724E+01  0.75934110011E+01  0.79945998392E+01  0.51100000000E-03 0.  1.
         12    1    3    3    0    0 -0.37428442554E+01 -0.45413924567E+01  0.18985492148E+02  0.19876670765E+02  0.00000000000E+00 0. -1.
</event>
<event>
 7    1  0.1466590E-008  0.4614232E+02  0.7816164E-02  0.1320468E+00
        -11   -1    0    0    0    0  0.00000000000E+00  0.00000000000E+00  0.45593999997E+02  0.45594000000E+02  0.51100000000E-03 0. -1.
         11   -1    0    0    0    0 -0.00000000000E+00 -0.00000000000E+00 -0.45593999997E+02  0.45594000000E+02  0.51100000000E-03 0.  1.
    9900012    2    1    2    0    0  0.25272559237E+02  0.15391628327E+02 -0.33963347440E+02  0.46142318273E+02  0.10000004667E+02 0.  0.
         12    1    1    2    0    0 -0.25272559237E+02 -0.15391628327E+02  0.33963347440E+02  0.45045681727E+02  0.00000000000E+00 0. -1.
         11    1    3    3    0    0  0.57061664594E+01 -0.65718811030E+00 -0.75130685184E+01  0.94571893656E+01  0.51100000000E-03 0. -1.
        -11    1    3    3    0    0  0.99951842074E+01  0.88316033928E+01 -0.12344666367E+02  0.18173929509E+02  0.51100000000E-03 0.  1.
        -12    1    3    3    0    0  0.95712085706E+01  0.72172130443E+01 -0.14105612554E+02  0.18511199398E+02  0.00000000000E+00 0.  1.
</event>
<event>
 7    1  0.1466590E-008  0.4614232E+02  0.7816164E-02  0.1320468E+00
        -11   -1    0    0    0    0  0.00000000000E+00  0.00000000000E+00  0.45593999997E+02  0.45594000000E+02  0.51100000000E-03 0. -1.
         11   -1    0    0    0    0 -0.00000000000E+00 -0.00000000000E+00 -0.45593999997E+02  0.45594000000E+02  0.51100000000E-03 0.  1.
    9900012    2    1    2    0    0  0.80710715397E+01  0.43743508898E+02  0.71047009522E+01  0.46142317164E+02  0.99999945594E+01 0.  0.
         12    1    1    2    0    0 -0.80710715397E+01 -0.43743508898E+02 -0.71047009522E+01  0.45045682836E+02  0.00000000000E+00 0. -1.
         11    1    3    3    0    0 -0.19979826611E+01  0.81368650363E+01  0.64522362852E+00  0.84033815291E+01  0.51100000000E-03 0. -1.
        -11    1    3    3    0    0  0.37712456174E+01  0.12157835248E+02  0.50339320146E+00  0.12739256509E+02  0.51100000000E-03 0.  1.
         12    1    3    3    0    0  0.62978085834E+01  0.23448808614E+02  0.59560841222E+01  0.24999679127E+02  0.00000000000E+00 0. -1.
</event>
<event>
 7    1  0.1466590E-008  0.4614232E+02  0.7816164E-02  0.1320468E+00
        -11   -1    0    0    0    0  0.00000000000E+00  0.00000000000E+00  0.45593999997E+02  0.45594000000E+02  0.51100000000E-03 0. -1.
         11   -1    0    0    0    0 -0.00000000000E+00 -0.00000000000E+00 -0.45593999997E+02  0.45594000000E+02  0.51100000000E-03 0.  1.
    9900012    2    1    2    0    0 -0.41307824654E+02  0.14506594967E+02 -0.10598862713E+02  0.46142316899E+02  0.99999921422E+01 0.  0.
         12    1    1    2    0    0  0.41307824654E+02 -0.14506594967E+02  0.10598862713E+02  0.45045683101E+02  0.00000000000E+00 0. -1.
         11    1    3    3    0    0 -0.29372038769E+01  0.39023396042E+01 -0.20469022363E+01  0.52957747334E+01  0.51100000000E-03 0. -1.
        -11    1    3    3    0    0 -0.34537172812E+02  0.90453304830E+01 -0.67574090684E+01  0.36335889792E+02  0.51100000000E-03 0.  1.
        -12    1    3    3    0    0 -0.38334479651E+01  0.15589248801E+01 -0.17945514079E+01  0.45106523740E+01  0.00000000000E+00 0.  1.
</event>
<event>
 7    1  0.1466590E-008  0.4614232E+02  0.7816164E-02  0.1320468E+00
        -11   -1    0    0    0    0  0.00000000000E+00  0.00000000000E+00  0.45593999997E+02  0.45594000000E+02  0.51100000000E-03 0.  1.
         11   -1    0    0    0    0 -0.00000000000E+00 -0.00000000000E+00 -0.45593999997E+02  0.45594000000E+02  0.51100000000E-03 0. -1.
    9900012    2    1    2    0    0  0.27032084855E+01 -0.30884795500E+02  0.32679282514E+02  0.46142318356E+02  0.10000005420E+02 0.  0.
         12    1    1    2    0    0 -0.27032084855E+01  0.30884795500E+02 -0.32679282514E+02  0.45045681644E+02  0.00000000000E+00 0. -1.
         11    1    3    3    0    0  0.26924358484E+01 -0.43372949438E+01  0.34620704182E+01  0.61682469202E+01  0.51100000000E-03 0. -1.
        -11    1    3    3    0    0  0.75745605077E+00 -0.23380280575E+02  0.22249321896E+02  0.32283797555E+02  0.51100000000E-03 0.  1.
        -12    1    3    3    0    0 -0.74668341373E+00 -0.31672199811E+01  0.69678901994E+01  0.76902738807E+01  0.00000000000E+00 0.  1.
</event>
<event>
 7    1  0.1466590E-008  0.4614232E+02  0.7816164E-02  0.1320468E+00
        -11   -1    0    0    0    0  0.00000000000E+00  0.00000000000E+00  0.45593999997E+02  0.45594000000E+02  0.51100000000E-03 0.  1.
         11   -1    0    0    0    0 -0.00000000000E+00 -0.00000000000E+00 -0.45593999997E+02  0.45594000000E+02  0.51100000000E-03 0. -1.
    9900012    2    1    2    0    0  0.29610139357E+02  0.33860264627E+02 -0.24157527175E+01  0.46142315029E+02  0.99999750864E+01 0.  0.
         12    1    1    2    0    0 -0.29610139357E+02 -0.33860264627E+02  0.24157527175E+01  0.45045684971E+02  0.00000000000E+00 0. -1.
         11    1    3    3    0    0  0.29206757467E+01  0.91915799968E+01  0.30390513698E+00  0.96492408120E+01  0.51100000000E-03 0. -1.
        -11    1    3    3    0    0  0.13180792154E+02  0.13051194138E+02 -0.20688311795E+01  0.18664056712E+02  0.51100000000E-03 0.  1.
        -12    1    3    3    0    0  0.13508671456E+02  0.11617490492E+02 -0.65082667500E+00  0.17829017505E+02  0.00000000000E+00 0.  1.
</event>
<event>
 7    1  0.1466590E-008  0.4614232E+02  0.7816164E-02  0.1320468E+00
        -11   -1    0    0    0    0  0.00000000000E+00  0.00000000000E+00  0.45593999997E+02  0.45594000000E+02  0.51100000000E-03 0.  1.
         11   -1    0    0    0    0 -0.00000000000E+00 -0.00000000000E+00 -0.45593999997E+02  0.45594000000E+02  0.51100000000E-03 0. -1.
    9900012    2    1    2    0    0 -0.80072581175E+01 -0.39013628349E+02  0.21045995545E+02  0.46142319763E+02  0.10000018252E+02 0.  0.
         12    1    1    2    0    0  0.80072581175E+01  0.39013628349E+02 -0.21045995545E+02  0.45045680237E+02  0.00000000000E+00 0. -1.
         11    1    3    3    0    0 -0.20721431673E+01 -0.21030967705E+02  0.12037251099E+02  0.24320583755E+02  0.51100000000E-03 0.  1.
        -11    1    3    3    0    0 -0.64561620277E+01 -0.13979738340E+02  0.88958746566E+01  0.17783466995E+02  0.51100000000E-03 0. -1.
         12    1    3    3    0    0  0.52104707747E+00 -0.40029223042E+01  0.11286979006E+00  0.40382690128E+01  0.00000000000E+00 0. -1.
</event>
<event>
 7    1  0.1466590E-008  0.4614232E+02  0.7816164E-02  0.1320468E+00
        -11   -1    0    0    0    0  0.00000000000E+00  0.00000000000E+00  0.45593999997E+02  0.45594000000E+02  0.51100000000E-03 0. -1.
         11   -1    0    0    0    0 -0.00000000000E+00 -0.00000000000E+00 -0.45593999997E+02  0.45594000000E+02  0.51100000000E-03 0.  1.
    9900012    2    1    2    0    0  0.36159264087E+02  0.91401239158E+01 -0.25260219290E+02  0.46142324035E+02  0.10000057214E+02 0.  0.
         12    1    1    2    0    0 -0.36159264087E+02 -0.91401239158E+01  0.25260219290E+02  0.45045675965E+02  0.00000000000E+00 0. -1.
         11    1    3    3    0    0  0.19967147091E+02  0.21756799373E+01 -0.15518652003E+02  0.25382062690E+02  0.51100000000E-03 0.  1.
        -11    1    3    3    0    0  0.10671715352E+02  0.57769539987E+01 -0.89052601271E+01  0.15051988714E+02  0.51100000000E-03 0. -1.
         12    1    3    3    0    0  0.55204016444E+01  0.11874899798E+01 -0.83630715922E+00  0.57082726312E+01  0.00000000000E+00 0. -1.
</event>
<event>
 7    1  0.1466590E-008  0.4614232E+02  0.7816164E-02  0.1320468E+00
        -11   -1    0    0    0    0  0.00000000000E+00  0.00000000000E+00  0.45593999997E+02  0.45594000000E+02  0.51100000000E-03 0.  1.
         11   -1    0    0    0    0 -0.00000000000E+00 -0.00000000000E+00 -0.45593999997E+02  0.45594000000E+02  0.51100000000E-03 0. -1.
    9900012    2    1    2    0    0  0.70490451921E+01  0.49210296499E+01  0.44217733422E+02  0.46142317411E+02  0.99999968098E+01 0.  0.
         12    1    1    2    0    0 -0.70490451921E+01 -0.49210296499E+01 -0.44217733422E+02  0.45045682589E+02  0.00000000000E+00 0. -1.
         11    1    3    3    0    0 -0.70657846107E+00 -0.28129039031E+00  0.10517335733E+02  0.10544796280E+02  0.51100000000E-03 0. -1.
        -11    1    3    3    0    0  0.85494117286E+01  0.29065469398E+01  0.26044325077E+02  0.27565328313E+02  0.51100000000E-03 0.  1.
        -12    1    3    3    0    0 -0.79378807537E+00  0.22957731004E+01  0.76560726117E+01  0.80321928185E+01  0.00000000000E+00 0.  1.
</event>
<event>
 7    1  0.1466590E-008  0.4614231E+02  0.7816164E-02  0.1320468E+00
        -11   -1    0    0    0    0  0.00000000000E+00  0.00000000000E+00  0.45593999997E+02  0.45594000000E+02  0.51100000000E-03 0. -1.
         11   -1    0    0    0    0 -0.00000000000E+00 -0.00000000000E+00 -0.45593999997E+02  0.45594000000E+02  0.51100000000E-03 0.  1.
    9900012    2    1    2    0    0  0.12697025311E+02  0.42685632822E+02 -0.67702356932E+01  0.46142314385E+02  0.99999692155E+01 0.  0.
         12    1    1    2    0    0 -0.12697025311E+02 -0.42685632822E+02  0.67702356932E+01  0.45045685615E+02  0.00000000000E+00 0. -1.
         11    1    3    3    0    0 -0.64567176469E+00  0.35932786945E+01 -0.37016008572E+00  0.36695452789E+01  0.51100000000E-03 0. -1.
        -11    1    3    3    0    0  0.66260429297E+01  0.98679600103E+01 -0.32435448700E+01  0.12320781763E+02  0.51100000000E-03 0.  1.
        -12    1    3    3    0    0  0.67166541458E+01  0.29224394117E+02 -0.31565307374E+01  0.30151987343E+02  0.00000000000E+00 0.  1.
</event>
<event>
 7    1  0.1466590E-008  0.4614232E+02  0.7816164E-02  0.1320468E+00
        -11   -1    0    0    0    0  0.00000000000E+00  0.00000000000E+00  0.45593999997E+02  0.45594000000E+02  0.51100000000E-03 0.  1.
         11   -1    0    0    0    0 -0.00000000000E+00 -0.00000000000E+00 -0.45593999997E+02  0.45594000000E+02  0.51100000000E-03 0. -1.
    9900012    2    1    2    0    0 -0.35243493289E+01 -0.29609736938E+02  0.33763233237E+02  0.46142317872E+02  0.10000001013E+02 0.  0.
         12    1    1    2    0    0  0.35243493289E+01  0.29609736938E+02 -0.33763233237E+02  0.45045682128E+02  0.00000000000E+00 0. -1.
         11    1    3    3    0    0 -0.67169045504E-02 -0.63456957944E+01  0.41388922687E+01  0.75761685372E+01  0.51100000000E-03 0. -1.
        -11    1    3    3    0    0 -0.72470013490E+00 -0.94637854481E+01  0.65394366080E+01  0.11526172682E+02  0.51100000000E-03 0.  1.
        -12    1    3    3    0    0 -0.27929322895E+01 -0.13800255695E+02  0.23084904361E+02  0.27039976653E+02  0.00000000000E+00 0.  1.
</event>
<event>
 7    1  0.1466590E-008  0.4614232E+02  0.7816164E-02  0.1320468E+00
        -11   -1    0    0    0    0  0.00000000000E+00  0.00000000000E+00  0.45593999997E+02  0.45594000000E+02  0.51100000000E-03 0. -1.
         11   -1    0    0    0    0 -0.00000000000E+00 -0.00000000000E+00 -0.45593999997E+02  0.45594000000E+02  0.51100000000E-03 0.  1.
    9900012    2    1    2    0    0  0.20267412119E+02 -0.15776673059E+02 -0.37005972536E+02  0.46142318630E+02  0.10000007920E+02 0.  0.
         12    1    1    2    0    0 -0.20267412119E+02  0.15776673059E+02  0.37005972536E+02  0.45045681370E+02  0.00000000000E+00 0. -1.
         11    1    3    3    0    0 -0.79410656559E+00 -0.15773989382E+01 -0.25565429640E+01  0.31072020912E+01  0.51100000000E-03 0. -1.
        -11    1    3    3    0    0  0.13904183889E+02 -0.90851280190E+01 -0.18826212286E+02  0.25105619890E+02  0.51100000000E-03 0.  1.
        -12    1    3    3    0    0  0.71573347954E+01 -0.51141461014E+01 -0.15623217286E+02  0.17929496649E+02  0.00000000000E+00 0.  1.
</event>
<event>
 7    1  0.1466590E-008  0.4614232E+02  0.7816164E-02  0.1320468E+00
        -11   -1    0    0    0    0  0.00000000000E+00  0.00000000000E+00  0.45593999997E+02  0.45594000000E+02  0.51100000000E-03 0.  1.
         11   -1    0    0    0    0 -0.00000000000E+00 -0.00000000000E+00 -0.45593999997E+02  0.45594000000E+02  0.51100000000E-03 0. -1.
    9900012    2    1    2    0    0 -0.13676847362E+02  0.35996367839E+01  0.42767976884E+02  0.46142318903E+02  0.10000010411E+02 0.  0.
         12    1    1    2    0    0  0.13676847362E+02 -0.35996367839E+01 -0.42767976884E+02  0.45045681097E+02  0.00000000000E+00 0. -1.
         11    1    3    3    0    0 -0.16717349476E+01  0.64584428349E+00  0.13093753558E+02  0.13215831229E+02  0.51100000000E-03 0. -1.
        -11    1    3    3    0    0 -0.94827473890E+01  0.48809441259E+01  0.25802805379E+02  0.27920080216E+02  0.51100000000E-03 0.  1.
        -12    1    3    3    0    0 -0.25223650255E+01 -0.19271516255E+01  0.38714179477E+01  0.50064074580E+01  0.00000000000E+00 0.  1.
</event>
<event>
 7    1  0.1466590E-008  0.4614232E+02  0.7816164E-02  0.1320468E+00
        -11   -1    0    0    0    0  0.00000000000E+00  0.00000000000E+00  0.45593999997E+02  0.45594000000E+02  0.51100000000E-03 0. -1.
         11   -1    0    0    0    0 -0.00000000000E+00 -0.00000000000E+00 -0.45593999997E+02  0.45594000000E+02  0.51100000000E-03 0.  1.
    9900012    2    1    2    0    0  0.11385992659E+02  0.27851117375E+02 -0.33522946640E+02  0.46142317418E+02  0.99999968713E+01 0.  0.
         12    1    1    2    0    0 -0.11385992659E+02 -0.27851117375E+02  0.33522946640E+02  0.45045682582E+02  0.00000000000E+00 0. -1.
         11    1    3    3    0    0  0.79661492938E+01  0.24329227898E+02 -0.28607029768E+02  0.38389230484E+02  0.51100000000E-03 0.  1.
        -11    1    3    3    0    0  0.24397471132E+01  0.10215869938E+01 -0.42173921313E+01  0.49781927054E+01  0.51100000000E-03 0. -1.
        -12    1    3    3    0    0  0.98009625206E+00  0.25003024829E+01 -0.69852474010E+00  0.27748942289E+01  0.00000000000E+00 0.  1.
</event>
<event>
 7    1  0.1466590E-008  0.4614232E+02  0.7816164E-02  0.1320468E+00
        -11   -1    0    0    0    0  0.00000000000E+00  0.00000000000E+00  0.45593999997E+02  0.45594000000E+02  0.51100000000E-03 0.  1.
         11   -1    0    0    0    0 -0.00000000000E+00 -0.00000000000E+00 -0.45593999997E+02  0.45594000000E+02  0.51100000000E-03 0. -1.
    9900012    2    1    2    0    0  0.19605840244E+02  0.36103777467E+02 -0.18472730268E+02  0.46142317825E+02  0.10000000585E+02 0.  0.
         12    1    1    2    0    0 -0.19605840244E+02 -0.36103777467E+02  0.18472730268E+02  0.45045682175E+02  0.00000000000E+00 0. -1.
         11    1    3    3    0    0  0.83928504503E+00  0.25406489172E+00  0.25106065678E+00  0.91212941544E+00  0.51100000000E-03 0. -1.
        -11    1    3    3    0    0  0.11342873862E+02  0.14757455703E+02 -0.63015313488E+01  0.19650765478E+02  0.51100000000E-03 0.  1.
        -12    1    3    3    0    0  0.74236813364E+01  0.21092256872E+02 -0.12422259576E+02  0.25579422932E+02  0.00000000000E+00 0.  1.
</event>
<event>
 7    1  0.1466590E-008  0.4614232E+02  0.7816164E-02  0.1320468E+00
        -11   -1    0    0    0    0  0.00000000000E+00  0.00000000000E+00  0.45593999997E+02  0.45594000000E+02  0.51100000000E-03 0.  1.
         11   -1    0    0    0    0 -0.00000000000E+00 -0.00000000000E+00 -0.45593999997E+02  0.45594000000E+02  0.51100000000E-03 0. -1.
    9900012    2    1    2    0    0 -0.50885893139E+01 -0.83026155872E+01  0.43980522177E+02  0.46142317657E+02  0.99999990462E+01 0.  0.
         12    1    1    2    0    0  0.50885893139E+01  0.83026155872E+01 -0.43980522177E+02  0.45045682343E+02  0.00000000000E+00 0. -1.
         11    1    3    3    0    0 -0.55284869574E+01 -0.55749282367E+01  0.21469080565E+02  0.22859689706E+02  0.51100000000E-03 0. -1.
        -11    1    3    3    0    0  0.23104301084E+01  0.21030919072E+00  0.11566623295E+02  0.11796995039E+02  0.51100000000E-03 0.  1.
        -12    1    3    3    0    0 -0.18705324649E+01 -0.29379965412E+01  0.10944818317E+02  0.11485632911E+02  0.00000000000E+00 0.  1.
</event>
<event>
 7    1  0.1466590E-008  0.4614232E+02  0.7816164E-02  0.1320468E+00
        -11   -1    0    0    0    0  0.00000000000E+00  0.00000000000E+00  0.45593999997E+02  0.45594000000E+02  0.51100000000E-03 0.  1.
         11   -1    0    0    0    0 -0.00000000000E+00 -0.00000000000E+00 -0.45593999997E+02  0.45594000000E+02  0.51100000000E-03 0. -1.
    9900012    2    1    2    0    0  0.11648284086E+01  0.15501884029E+02  0.42278225103E+02  0.46142317060E+02  0.99999936040E+01 0.  0.
         12    1    1    2    0    0 -0.11648284086E+01 -0.15501884029E+02 -0.42278225103E+02  0.45045682940E+02  0.00000000000E+00 0. -1.
         11    1    3    3    0    0  0.25832968256E+01  0.12359106045E+01  0.12866272421E+02  0.13181117698E+02  0.51100000000E-03 0. -1.
        -11    1    3    3    0    0 -0.10878874378E+01  0.74649958383E+01  0.11068926744E+02  0.13395178292E+02  0.51100000000E-03 0.  1.
        -12    1    3    3    0    0 -0.33058097923E+00  0.68009775859E+01  0.18343025939E+02  0.19566021070E+02  0.00000000000E+00 0.  1.
</event>
<event>
 7    1  0.1466590E-008  0.4614232E+02  0.7816164E-02  0.1320468E+00
        -11   -1    0    0    0    0  0.00000000000E+00  0.00000000000E+00  0.45593999997E+02  0.45594000000E+02  0.51100000000E-03 0.  1.
         11   -1    0    0    0    0 -0.00000000000E+00 -0.00000000000E+00 -0.45593999997E+02  0.45594000000E+02  0.51100000000E-03 0. -1.
    9900012    2    1    2    0    0 -0.22678059445E+02 -0.37431089874E+02  0.10664551254E+02  0.46142317379E+02  0.99999965166E+01 0.  0.
         12    1    1    2    0    0  0.22678059445E+02  0.37431089874E+02 -0.10664551254E+02  0.45045682621E+02  0.00000000000E+00 0. -1.
         11    1    3    3    0    0 -0.94759359828E+01 -0.74938540969E+01  0.27028397395E+01  0.12379683150E+02  0.51100000000E-03 0. -1.
        -11    1    3    3    0    0 -0.11425073776E+02 -0.23476753905E+02  0.62383528145E+01  0.26844130286E+02  0.51100000000E-03 0.  1.
         12    1    3    3    0    0 -0.17770496860E+01 -0.64604818715E+01  0.17233586996E+01  0.69185039427E+01  0.00000000000E+00 0. -1.
</event>
<event>
 7    1  0.1466590E-008  0.4614232E+02  0.7816164E-02  0.1320468E+00
        -11   -1    0    0    0    0  0.00000000000E+00  0.00000000000E+00  0.45593999997E+02  0.45594000000E+02  0.51100000000E-03 0.  1.
         11   -1    0    0    0    0 -0.00000000000E+00 -0.00000000000E+00 -0.45593999997E+02  0.45594000000E+02  0.51100000000E-03 0. -1.
    9900012    2    1    2    0    0 -0.17707426310E+02  0.10500501358E+02  0.40066194567E+02  0.46142318494E+02  0.10000006683E+02 0.  0.
         12    1    1    2    0    0  0.17707426310E+02 -0.10500501358E+02 -0.40066194567E+02  0.45045681506E+02  0.00000000000E+00 0. -1.
         11    1    3    3    0    0 -0.35867169623E+01  0.39608024780E+01  0.12641999798E+02  0.13724891766E+02  0.51100000000E-03 0. -1.
        -11    1    3    3    0    0 -0.22162255440E+00  0.17184174800E+01  0.72179310465E+01  0.74229781116E+01  0.51100000000E-03 0.  1.
         12    1    3    3    0    0 -0.13899086793E+02  0.48212813999E+01  0.20206263722E+02  0.24994448616E+02  0.00000000000E+00 0. -1.
</event>
<event>
 7    1  0.1466590E-008  0.4614232E+02  0.7816164E-02  0.1320468E+00
        -11   -1    0    0    0    0  0.00000000000E+00  0.00000000000E+00  0.45593999997E+02  0.45594000000E+02  0.51100000000E-03 0.  1.
         11   -1    0    0    0    0 -0.00000000000E+00 -0.00000000000E+00 -0.45593999997E+02  0.45594000000E+02  0.51100000000E-03 0. -1.
    9900012    2    1    2    0    0  0.28141842543E+02 -0.98642344511E+01  0.33761620582E+02  0.46142318216E+02  0.10000004149E+02 0.  0.
         12    1    1    2    0    0 -0.28141842543E+02  0.98642344511E+01 -0.33761620582E+02  0.45045681784E+02  0.00000000000E+00 0. -1.
         11    1    3    3    0    0  0.69961332592E+01 -0.19609193552E+01  0.11543954434E+02  0.13640160173E+02  0.51100000000E-03 0. -1.
        -11    1    3    3    0    0  0.20639521372E+02 -0.84474161538E+01  0.22525529400E+02  0.31697762652E+02  0.51100000000E-03 0.  1.
        -12    1    3    3    0    0  0.50618791188E+00  0.54410105796E+00 -0.30786325195E+00  0.80439539115E+00  0.00000000000E+00 0.  1.
</event>
<event>
 7    1  0.1466590E-008  0.4614232E+02  0.7816164E-02  0.1320468E+00
        -11   -1    0    0    0    0  0.00000000000E+00  0.00000000000E+00  0.45593999997E+02  0.45594000000E+02  0.51100000000E-03 0.  1.
         11   -1    0    0    0    0 -0.00000000000E+00 -0.00000000000E+00 -0.45593999997E+02  0.45594000000E+02  0.51100000000E-03 0. -1.
    9900012    2    1    2    0    0  0.27636842321E+02 -0.14482165941E+02  0.32489773726E+02  0.46142316737E+02  0.99999906658E+01 0.  0.
         12    1    1    2    0    0 -0.27636842321E+02  0.14482165941E+02 -0.32489773726E+02  0.45045683263E+02  0.00000000000E+00 0. -1.
         11    1    3    3    0    0  0.13720349553E+02 -0.86273905205E+01  0.19764975278E+02  0.25560401152E+02  0.51100000000E-03 0.  1.
        -11    1    3    3    0    0  0.47497601764E+01 -0.34626424466E+01  0.18564343978E+01  0.61641271386E+01  0.51100000000E-03 0. -1.
        -12    1    3    3    0    0  0.91667325917E+01 -0.23921329737E+01  0.10868364051E+02  0.14417788447E+02  0.00000000000E+00 0.  1.
</event>
<event>
 7    1  0.1466590E-008  0.4614232E+02  0.7816164E-02  0.1320468E+00
        -11   -1    0    0    0    0  0.00000000000E+00  0.00000000000E+00  0.45593999997E+02  0.45594000000E+02  0.51100000000E-03 0.  1.
         11   -1    0    0    0    0 -0.00000000000E+00 -0.00000000000E+00 -0.45593999997E+02  0.45594000000E+02  0.51100000000E-03 0. -1.
    9900012    2    1    2    0    0 -0.17293174169E+02 -0.41461249725E+02  0.33203056594E+01  0.46142317285E+02  0.99999956551E+01 0.  0.
         12    1    1    2    0    0  0.17293174169E+02  0.41461249725E+02 -0.33203056594E+01  0.45045682715E+02  0.00000000000E+00 0. -1.
         11    1    3    3    0    0 -0.83637174834E+01 -0.22259767682E+02 -0.12552409638E+01  0.23812279554E+02  0.51100000000E-03 0.  1.
        -11    1    3    3    0    0  0.33036184019E+00 -0.22087643178E+01  0.16078210145E+01  0.27518843422E+01  0.51100000000E-03 0. -1.
         12    1    3    3    0    0 -0.92598185261E+01 -0.16992717725E+02  0.29677256088E+01  0.19578153389E+02  0.00000000000E+00 0. -1.
</event>
<event>
 7    1  0.1466590E-008  0.4614232E+02  0.7816164E-02  0.1320468E+00
        -11   -1    0    0    0    0  0.00000000000E+00  0.00000000000E+00  0.45593999997E+02  0.45594000000E+02  0.51100000000E-03 0.  1.
         11   -1    0    0    0    0 -0.00000000000E+00 -0.00000000000E+00 -0.45593999997E+02  0.45594000000E+02  0.51100000000E-03 0. -1.
    9900012    2    1    2    0    0  0.72727472542E+01 -0.17465950969E+02  0.40879838327E+02  0.46142317882E+02  0.10000001098E+02 0.  0.
         12    1    1    2    0    0 -0.72727472542E+01  0.17465950969E+02 -0.40879838327E+02  0.45045682118E+02  0.00000000000E+00 0. -1.
         11    1    3    3    0    0 -0.46777008759E+00 -0.47045907597E+01  0.10919220184E+02  0.11898796273E+02  0.51100000000E-03 0. -1.
        -11    1    3    3    0    0  0.68493193603E+01 -0.74146536554E+01  0.13130261159E+02  0.16561824262E+02  0.51100000000E-03 0.  1.
        -12    1    3    3    0    0  0.89119798145E+00 -0.53467065538E+01  0.16830356985E+02  0.17681697346E+02  0.00000000000E+00 0.  1.
</event>
<event>
 7    1  0.1466590E-008  0.4614232E+02  0.7816164E-02  0.1320468E+00
        -11   -1    0    0    0    0  0.00000000000E+00  0.00000000000E+00  0.45593999997E+02  0.45594000000E+02  0.51100000000E-03 0. -1.
         11   -1    0    0    0    0 -0.00000000000E+00 -0.00000000000E+00 -0.45593999997E+02  0.45594000000E+02  0.51100000000E-03 0.  1.
    9900012    2    1    2    0    0 -0.34577757575E+02  0.27410444596E+02  0.90642001357E+01  0.46142317455E+02  0.99999972063E+01 0.  0.
         12    1    1    2    0    0  0.34577757575E+02 -0.27410444596E+02 -0.90642001357E+01  0.45045682545E+02  0.00000000000E+00 0. -1.
         11    1    3    3    0    0 -0.97395709346E+01  0.82075990609E+01  0.68985283827E+01  0.14484944544E+02  0.51100000000E-03 0. -1.
        -11    1    3    3    0    0 -0.16299120370E+02  0.10572529146E+02  0.86360368202E+00  0.19446992285E+02  0.51100000000E-03 0.  1.
        -12    1    3    3    0    0 -0.85390662705E+01  0.86303163894E+01  0.13020680710E+01  0.12210380625E+02  0.00000000000E+00 0.  1.
</event>
<event>
 7    1  0.1466590E-008  0.4614231E+02  0.7816164E-02  0.1320468E+00
        -11   -1    0    0    0    0  0.00000000000E+00  0.00000000000E+00  0.45593999997E+02  0.45594000000E+02  0.51100000000E-03 0. -1.
         11   -1    0    0    0    0 -0.00000000000E+00 -0.00000000000E+00 -0.45593999997E+02  0.45594000000E+02  0.51100000000E-03 0.  1.
    9900012    2    1    2    0    0  0.42282744524E+02 -0.15484909023E+02 -0.12250975539E+01  0.46142314791E+02  0.99999729194E+01 0.  0.
         12    1    1    2    0    0 -0.42282744524E+02  0.15484909023E+02  0.12250975539E+01  0.45045685209E+02  0.00000000000E+00 0. -1.
         11    1    3    3    0    0  0.31438854879E+01 -0.22746907132E+01 -0.22377896322E+01  0.44795018139E+01  0.51100000000E-03 0. -1.
        -11    1    3    3    0    0  0.13427602935E+02 -0.72102908866E+01  0.74994337595E+00  0.15259463640E+02  0.51100000000E-03 0.  1.
         12    1    3    3    0    0  0.25711256100E+02 -0.59999274231E+01  0.26274870230E+00  0.26403349337E+02  0.00000000000E+00 0. -1.
</event>
<event>
 7    1  0.1662099E-008  0.4614232E+02  0.7816164E-02  0.1320468E+00
        -11   -1    0    0    0    0  0.00000000000E+00  0.00000000000E+00  0.45593999997E+02  0.45594000000E+02  0.51100000000E-03 0. -1.
         11   -1    0    0    0    0 -0.00000000000E+00 -0.00000000000E+00 -0.45593999997E+02  0.45594000000E+02  0.51100000000E-03 0.  1.
    9900012    2    1    2    0    0  0.38196950117E+02  0.14337875321E+02  0.19092715153E+02  0.46142318310E+02  0.10000005008E+02 0.  0.
         12    1    1    2    0    0 -0.38196950117E+02 -0.14337875321E+02 -0.19092715153E+02  0.45045681690E+02  0.00000000000E+00 0. -1.
         11    1    3    3    0    0  0.43594265844E+01  0.22378174442E+00  0.48575533820E+01  0.65307352981E+01  0.51100000000E-03 0. -1.
        -11    1    3    3    0    0  0.22922236084E+02  0.11783276618E+02  0.91903584394E+01  0.27363062757E+02  0.51100000000E-03 0.  1.
        -12    1    3    3    0    0  0.10915287449E+02  0.23308169589E+01  0.50448033313E+01  0.12248520255E+02  0.00000000000E+00 0.  1.
</event>
<event>
 7    1  0.1466590E-008  0.4614232E+02  0.7816164E-02  0.1320468E+00
        -11   -1    0    0    0    0  0.00000000000E+00  0.00000000000E+00  0.45593999997E+02  0.45594000000E+02  0.51100000000E-03 0.  1.
         11   -1    0    0    0    0 -0.00000000000E+00 -0.00000000000E+00 -0.45593999997E+02  0.45594000000E+02  0.51100000000E-03 0. -1.
    9900012    2    1    2    0    0 -0.78385494024E+01 -0.62744869711E+01  0.43912431505E+02  0.46142315588E+02  0.99999801837E+01 0.  0.
         12    1    1    2    0    0  0.78385494024E+01  0.62744869711E+01 -0.43912431505E+02  0.45045684412E+02  0.00000000000E+00 0. -1.
         11    1    3    3    0    0 -0.52300104222E+01  0.13931709801E+00  0.95425594149E+01  0.10882686190E+02  0.51100000000E-03 0. -1.
        -11    1    3    3    0    0 -0.35790426663E+01 -0.51010636783E+01  0.26608712814E+02  0.27328629584E+02  0.51100000000E-03 0.  1.
         12    1    3    3    0    0  0.97050368613E+00 -0.13127403908E+01  0.77611592758E+01  0.79309998136E+01  0.00000000000E+00 0. -1.
</event>
<event>
 7    1  0.1466590E-008  0.4614232E+02  0.7816164E-02  0.1320468E+00
        -11   -1    0    0    0    0  0.00000000000E+00  0.00000000000E+00  0.45593999997E+02  0.45594000000E+02  0.51100000000E-03 0. -1.
         11   -1    0    0    0    0 -0.00000000000E+00 -0.00000000000E+00 -0.45593999997E+02  0.45594000000E+02  0.51100000000E-03 0.  1.
    9900012    2    1    2    0    0  0.20946957366E+02  0.43166559032E+01 -0.39644736161E+02  0.46142316007E+02  0.99999840088E+01 0.  0.
         12    1    1    2    0    0 -0.20946957366E+02 -0.43166559032E+01  0.39644736161E+02  0.45045683993E+02  0.00000000000E+00 0. -1.
         11    1    3    3    0    0  0.28361948938E+01  0.13149112039E+01 -0.76073392891E+01  0.82246339900E+01  0.51100000000E-03 0.  1.
        -11    1    3    3    0    0  0.10342008749E+02  0.39542349120E+01 -0.11615185486E+02  0.16046982671E+02  0.51100000000E-03 0. -1.
        -12    1    3    3    0    0  0.77687537231E+01 -0.95249021270E+00 -0.20422211385E+02  0.21870699346E+02  0.00000000000E+00 0.  1.
</event>
<event>
 7    1  0.1466590E-008  0.4614232E+02  0.7816164E-02  0.1320468E+00
        -11   -1    0    0    0    0  0.00000000000E+00  0.00000000000E+00  0.45593999997E+02  0.45594000000E+02  0.51100000000E-03 0. -1.
         11   -1    0    0    0    0 -0.00000000000E+00 -0.00000000000E+00 -0.45593999997E+02  0.45594000000E+02  0.51100000000E-03 0.  1.
    9900012    2    1    2    0    0  0.27351493381E+02 -0.16979998146E+02 -0.31506966502E+02  0.46142318016E+02  0.10000002329E+02 0.  0.
         12    1    1    2    0    0 -0.27351493381E+02  0.16979998146E+02  0.31506966502E+02  0.45045681984E+02  0.00000000000E+00 0. -1.
         11    1    3    3    0    0  0.28081724756E+01 -0.27225586978E+01 -0.72962553256E+01  0.82784962737E+01  0.51100000000E-03 0. -1.
        -11    1    3    3    0    0  0.18069062197E+02 -0.10862888864E+02 -0.21374512957E+02  0.30022710863E+02  0.51100000000E-03 0.  1.
         12    1    3    3    0    0  0.64742587077E+01 -0.33945505847E+01 -0.28361982192E+01  0.78411108795E+01  0.00000000000E+00 0. -1.
</event>
<event>
 7    1  0.1466590E-008  0.4614232E+02  0.7816164E-02  0.1320468E+00
        -11   -1    0    0    0    0  0.00000000000E+00  0.00000000000E+00  0.45593999997E+02  0.45594000000E+02  0.51100000000E-03 0.  1.
         11   -1    0    0    0    0 -0.00000000000E+00 -0.00000000000E+00 -0.45593999997E+02  0.45594000000E+02  0.51100000000E-03 0. -1.
    9900012    2    1    2    0    0  0.22798195435E+02 -0.31768169200E+02 -0.22363792579E+02  0.46142317544E+02  0.99999980212E+01 0.  0.
         12    1    1    2    0    0 -0.22798195435E+02  0.31768169200E+02  0.22363792579E+02  0.45045682456E+02  0.00000000000E+00 0. -1.
         11    1    3    3    0    0  0.27494893931E+01 -0.52245540319E+01 -0.48324127161E+01  0.76294082126E+01  0.51100000000E-03 0. -1.
        -11    1    3    3    0    0  0.14916202210E+02 -0.23971708244E+02 -0.12490788841E+02  0.30873219635E+02  0.51100000000E-03 0.  1.
        -12    1    3    3    0    0  0.51325038327E+01 -0.25719069242E+01 -0.50405910211E+01  0.76396896966E+01  0.00000000000E+00 0.  1.
</event>
<event>
 7    1  0.1466590E-008  0.4614232E+02  0.7816164E-02  0.1320468E+00
        -11   -1    0    0    0    0  0.00000000000E+00  0.00000000000E+00  0.45593999997E+02  0.45594000000E+02  0.51100000000E-03 0.  1.
         11   -1    0    0    0    0 -0.00000000000E+00 -0.00000000000E+00 -0.45593999997E+02  0.45594000000E+02  0.51100000000E-03 0. -1.
    9900012    2    1    2    0    0  0.26396347737E+02  0.11079672553E+02  0.34779118709E+02  0.46142318565E+02  0.10000007331E+02 0.  0.
         12    1    1    2    0    0 -0.26396347737E+02 -0.11079672553E+02 -0.34779118709E+02  0.45045681435E+02  0.00000000000E+00 0. -1.
         11    1    3    3    0    0  0.73785362212E+01  0.30675842626E+01  0.43839741339E+01  0.91143896912E+01  0.51100000000E-03 0. -1.
        -11    1    3    3    0    0  0.36141904895E+01  0.47186996907E+00  0.82428242070E+01  0.90127235246E+01  0.51100000000E-03 0.  1.
        -12    1    3    3    0    0  0.15403621026E+02  0.75402183210E+01  0.22152320369E+02  0.28015205349E+02  0.00000000000E+00 0.  1.
</event>
<event>
 7    1  0.1466590E-008  0.4614232E+02  0.7816164E-02  0.1320468E+00
        -11   -1    0    0    0    0  0.00000000000E+00  0.00000000000E+00  0.45593999997E+02  0.45594000000E+02  0.51100000000E-03 0.  1.
         11   -1    0    0    0    0 -0.00000000000E+00 -0.00000000000E+00 -0.45593999997E+02  0.45594000000E+02  0.51100000000E-03 0. -1.
    9900012    2    1    2    0    0 -0.43800119512E+02  0.87629716256E+01  0.58200839218E+01  0.46142317434E+02  0.99999970133E+01 0.  0.
         12    1    1    2    0    0  0.43800119512E+02 -0.87629716256E+01 -0.58200839218E+01  0.45045682566E+02  0.00000000000E+00 0. -1.
         11    1    3    3    0    0 -0.22771477268E+00  0.55166776825E+00  0.14519670914E+01  0.15698407689E+01  0.51100000000E-03 0. -1.
        -11    1    3    3    0    0 -0.29802111849E+02  0.53563527929E+01  0.24400963794E+01  0.30377795452E+02  0.51100000000E-03 0.  1.
         12    1    3    3    0    0 -0.13770292891E+02  0.28549510644E+01  0.19280204510E+01  0.14194681213E+02  0.00000000000E+00 0. -1.
</event>
<event>
 7    1  0.1466590E-008  0.4614232E+02  0.7816164E-02  0.1320468E+00
        -11   -1    0    0    0    0  0.00000000000E+00  0.00000000000E+00  0.45593999997E+02  0.45594000000E+02  0.51100000000E-03 0.  1.
         11   -1    0    0    0    0 -0.00000000000E+00 -0.00000000000E+00 -0.45593999997E+02  0.45594000000E+02  0.51100000000E-03 0. -1.
    9900012    2    1    2    0    0 -0.14337416651E+02  0.33326875724E+02  0.26699650451E+02  0.46142317677E+02  0.99999992305E+01 0.  0.
         12    1    1    2    0    0  0.14337416651E+02 -0.33326875724E+02 -0.26699650451E+02  0.45045682323E+02  0.00000000000E+00 0. -1.
         11    1    3    3    0    0 -0.18542756981E+01  0.24042808057E+01  0.59198135511E+01  0.66530517282E+01  0.51100000000E-03 0. -1.
        -11    1    3    3    0    0 -0.11783956328E+02  0.26892534073E+02  0.17042755482E+02  0.33948866406E+02  0.51100000000E-03 0.  1.
        -12    1    3    3    0    0 -0.69918462412E+00  0.40300608458E+01  0.37370814185E+01  0.55403995423E+01  0.00000000000E+00 0.  1.
</event>
<event>
 7    1  0.1466590E-008  0.4614232E+02  0.7816164E-02  0.1320468E+00
        -11   -1    0    0    0    0  0.00000000000E+00  0.00000000000E+00  0.45593999997E+02  0.45594000000E+02  0.51100000000E-03 0.  1.
         11   -1    0    0    0    0 -0.00000000000E+00 -0.00000000000E+00 -0.45593999997E+02  0.45594000000E+02  0.51100000000E-03 0. -1.
    9900012    2    1    2    0    0  0.53650438085E+01 -0.40206056221E+02  0.19590884889E+02  0.46142318490E+02  0.10000006647E+02 0.  0.
         12    1    1    2    0    0 -0.53650438085E+01  0.40206056221E+02 -0.19590884889E+02  0.45045681510E+02  0.00000000000E+00 0. -1.
         11    1    3    3    0    0 -0.80079072782E+00 -0.72390132510E+01  0.70103641896E+01  0.10108896328E+02  0.51100000000E-03 0. -1.
        -11    1    3    3    0    0  0.54988305689E+01 -0.26981671151E+02  0.87374669401E+01  0.28889289443E+02  0.51100000000E-03 0.  1.
        -12    1    3    3    0    0  0.66700396744E+00 -0.59853718198E+01  0.38430537597E+01  0.71441327195E+01  0.00000000000E+00 0.  1.
</event>
<event>
 7    1  0.1466590E-008  0.4614232E+02  0.7816164E-02  0.1320468E+00
        -11   -1    0    0    0    0  0.00000000000E+00  0.00000000000E+00  0.45593999997E+02  0.45594000000E+02  0.51100000000E-03 0.  1.
         11   -1    0    0    0    0 -0.00000000000E+00 -0.00000000000E+00 -0.45593999997E+02  0.45594000000E+02  0.51100000000E-03 0. -1.
    9900012    2    1    2    0    0  0.41697281330E+02 -0.46009321068E+01  0.16409804267E+02  0.46142317381E+02  0.99999965325E+01 0.  0.
         12    1    1    2    0    0 -0.41697281330E+02  0.46009321068E+01 -0.16409804267E+02  0.45045682619E+02  0.00000000000E+00 0. -1.
         11    1    3    3    0    0  0.25915170029E+02 -0.16231982053E+01  0.55926298250E+01  0.26561406564E+02  0.51100000000E-03 0. -1.
        -11    1    3    3    0    0  0.28816147687E+01  0.21868084105E+00  0.29825887371E+01  0.41529941996E+01  0.51100000000E-03 0.  1.
         12    1    3    3    0    0  0.12900496532E+02 -0.31964147426E+01  0.78345857046E+01  0.15427916617E+02  0.00000000000E+00 0. -1.
</event>
<event>
 7    1  0.1466590E-008  0.4614232E+02  0.7816164E-02  0.1320468E+00
        -11   -1    0    0    0    0  0.00000000000E+00  0.00000000000E+00  0.45593999997E+02  0.45594000000E+02  0.51100000000E-03 0. -1.
         11   -1    0    0    0    0 -0.00000000000E+00 -0.00000000000E+00 -0.45593999997E+02  0.45594000000E+02  0.51100000000E-03 0.  1.
    9900012    2    1    2    0    0  0.14905169016E+02 -0.41128802451E+02 -0.10741101596E+02  0.46142315213E+02  0.99999767649E+01 0.  0.
         12    1    1    2    0    0 -0.14905169016E+02  0.41128802451E+02  0.10741101596E+02  0.45045684787E+02  0.00000000000E+00 0. -1.
         11    1    3    3    0    0  0.99183187819E+01 -0.16071657895E+02 -0.64260043605E+01  0.19949054295E+02  0.51100000000E-03 0. -1.
        -11    1    3    3    0    0  0.53073080520E+01 -0.17900721426E+02 -0.30226713077E+01  0.18914013017E+02  0.51100000000E-03 0.  1.
        -12    1    3    3    0    0 -0.32045781739E+00 -0.71564231298E+01 -0.12924259274E+01  0.72792479009E+01  0.00000000000E+00 0.  1.
</event>
<event>
 7    1  0.1466590E-008  0.4614232E+02  0.7816164E-02  0.1320468E+00
        -11   -1    0    0    0    0  0.00000000000E+00  0.00000000000E+00  0.45593999997E+02  0.45594000000E+02  0.51100000000E-03 0.  1.
         11   -1    0    0    0    0 -0.00000000000E+00 -0.00000000000E+00 -0.45593999997E+02  0.45594000000E+02  0.51100000000E-03 0. -1.
    9900012    2    1    2    0    0  0.39781929630E+02  0.19437091174E+02  0.82892145209E+01  0.46142317457E+02  0.99999972272E+01 0.  0.
         12    1    1    2    0    0 -0.39781929630E+02 -0.19437091174E+02 -0.82892145209E+01  0.45045682543E+02  0.00000000000E+00 0. -1.
         11    1    3    3    0    0  0.11725802466E+02  0.22512393976E+01  0.95291608114E+00  0.11977920171E+02  0.51100000000E-03 0. -1.
        -11    1    3    3    0    0  0.21986985346E+02  0.10593336700E+02  0.52634448745E+01  0.24966981381E+02  0.51100000000E-03 0.  1.
         12    1    3    3    0    0  0.60691418176E+01  0.65925150767E+01  0.20728535653E+01  0.91974159056E+01  0.00000000000E+00 0. -1.
</event>
<event>
 7    1  0.1466590E-008  0.4614232E+02  0.7816164E-02  0.1320468E+00
        -11   -1    0    0    0    0  0.00000000000E+00  0.00000000000E+00  0.45593999997E+02  0.45594000000E+02  0.51100000000E-03 0. -1.
         11   -1    0    0    0    0 -0.00000000000E+00 -0.00000000000E+00 -0.45593999997E+02  0.45594000000E+02  0.51100000000E-03 0.  1.
    9900012    2    1    2    0    0  0.10523734125E+02  0.29060101566E+02 -0.32770028391E+02  0.46142320476E+02  0.10000024760E+02 0.  0.
         12    1    1    2    0    0 -0.10523734125E+02 -0.29060101566E+02  0.32770028391E+02  0.45045679524E+02  0.00000000000E+00 0. -1.
         11    1    3    3    0    0 -0.99982271160E+00  0.42343272410E+01 -0.71431115482E+01  0.83638038888E+01  0.51100000000E-03 0. -1.
        -11    1    3    3    0    0  0.11130155702E+02  0.24695452843E+02 -0.25720585255E+02  0.37353637884E+02  0.51100000000E-03 0.  1.
        -12    1    3    3    0    0  0.39340113393E+00  0.13032148260E+00  0.93668412096E-01  0.42487870320E+00  0.00000000000E+00 0.  1.
</event>
<event>
 7    1  0.1466590E-008  0.4614232E+02  0.7816164E-02  0.1320468E+00
        -11   -1    0    0    0    0  0.00000000000E+00  0.00000000000E+00  0.45593999997E+02  0.45594000000E+02  0.51100000000E-03 0.  1.
         11   -1    0    0    0    0 -0.00000000000E+00 -0.00000000000E+00 -0.45593999997E+02  0.45594000000E+02  0.51100000000E-03 0. -1.
    9900012    2    1    2    0    0  0.84437885590E-01 -0.32117295565E+02  0.31584579345E+02  0.46142318114E+02  0.10000003218E+02 0.  0.
         12    1    1    2    0    0 -0.84437885590E-01  0.32117295565E+02 -0.31584579345E+02  0.45045681886E+02  0.00000000000E+00 0. -1.
         11    1    3    3    0    0  0.24151646692E+01 -0.16173963787E+02  0.16757563932E+02  0.23414655115E+02  0.51100000000E-03 0. -1.
        -11    1    3    3    0    0 -0.36373781228E+00 -0.13587417546E+02  0.14077222395E+02  0.19568301188E+02  0.51100000000E-03 0.  1.
         12    1    3    3    0    0 -0.19669889713E+01 -0.23559142323E+01  0.74979301786E+00  0.31593618110E+01  0.00000000000E+00 0. -1.
</event>
<event>
 7    1  0.1466590E-008  0.4614231E+02  0.7816164E-02  0.1320468E+00
        -11   -1    0    0    0    0  0.00000000000E+00  0.00000000000E+00  0.45593999997E+02  0.45594000000E+02  0.51100000000E-03 0.  1.
         11   -1    0    0    0    0 -0.00000000000E+00 -0.00000000000E+00 -0.45593999997E+02  0.45594000000E+02  0.51100000000E-03 0. -1.
    9900012    2    1    2    0    0  0.38629627181E+02  0.30451569917E+01  0.22969388621E+02  0.46142313294E+02  0.99999592615E+01 0.  0.
         12    1    1    2    0    0 -0.38629627181E+02 -0.30451569917E+01 -0.22969388621E+02  0.45045686706E+02  0.00000000000E+00 0. -1.
         11    1    3    3    0    0  0.97287489496E+01  0.38131667238E+01  0.60663271046E+01  0.12082595805E+02  0.51100000000E-03 0.  1.
        -11    1    3    3    0    0  0.25849569468E+02 -0.23799397776E+01  0.13704043919E+02  0.29354133865E+02  0.51100000000E-03 0. -1.
         12    1    3    3    0    0  0.30513087634E+01  0.16119300455E+01  0.31990175979E+01  0.47055836230E+01  0.00000000000E+00 0. -1.
</event>
<event>
 7    1  0.1466590E-008  0.4614232E+02  0.7816164E-02  0.1320468E+00
        -11   -1    0    0    0    0  0.00000000000E+00  0.00000000000E+00  0.45593999997E+02  0.45594000000E+02  0.51100000000E-03 0.  1.
         11   -1    0    0    0    0 -0.00000000000E+00 -0.00000000000E+00 -0.45593999997E+02  0.45594000000E+02  0.51100000000E-03 0. -1.
    9900012    2    1    2    0    0  0.21446177920E+02 -0.25517568937E+02  0.30298986279E+02  0.46142318282E+02  0.10000004754E+02 0.  0.
         12    1    1    2    0    0 -0.21446177920E+02  0.25517568937E+02 -0.30298986279E+02  0.45045681718E+02  0.00000000000E+00 0. -1.
         11    1    3    3    0    0  0.18565521618E+02 -0.23647420398E+02  0.27120706387E+02  0.40489650525E+02  0.51100000000E-03 0. -1.
        -11    1    3    3    0    0  0.34237595145E+01 -0.14912282373E+01  0.32949793823E+01  0.49802389762E+01  0.51100000000E-03 0.  1.
         12    1    3    3    0    0 -0.54310321266E+00 -0.37892030157E+00 -0.11669949028E+00  0.67242878104E+00  0.00000000000E+00 0. -1.
</event>
<event>
 7    1  0.1466590E-008  0.4614231E+02  0.7816164E-02  0.1320468E+00
        -11   -1    0    0    0    0  0.00000000000E+00  0.00000000000E+00  0.45593999997E+02  0.45594000000E+02  0.51100000000E-03 0.  1.
         11   -1    0    0    0    0 -0.00000000000E+00 -0.00000000000E+00 -0.45593999997E+02  0.45594000000E+02  0.51100000000E-03 0. -1.
    9900012    2    1    2    0    0 -0.21911598073E+02 -0.37639828657E+02  0.11499517871E+02  0.46142314938E+02  0.99999742544E+01 0.  0.
         12    1    1    2    0    0  0.21911598073E+02  0.37639828657E+02 -0.11499517871E+02  0.45045685062E+02  0.00000000000E+00 0. -1.
         11    1    3    3    0    0 -0.76916200991E+01 -0.13819413997E+02  0.50872593720E+01  0.16613772334E+02  0.51100000000E-03 0. -1.
        -11    1    3    3    0    0 -0.13525715750E+02 -0.23977122571E+02  0.72119163315E+01  0.28458024014E+02  0.51100000000E-03 0.  1.
         12    1    3    3    0    0 -0.69426222317E+00  0.15670791082E+00 -0.79965783195E+00  0.10705185902E+01  0.00000000000E+00 0. -1.
</event>
<event>
 7    1  0.1466590E-008  0.4614232E+02  0.7816164E-02  0.1320468E+00
        -11   -1    0    0    0    0  0.00000000000E+00  0.00000000000E+00  0.45593999997E+02  0.45594000000E+02  0.51100000000E-03 0.  1.
         11   -1    0    0    0    0 -0.00000000000E+00 -0.00000000000E+00 -0.45593999997E+02  0.45594000000E+02  0.51100000000E-03 0. -1.
    9900012    2    1    2    0    0 -0.23698177088E+02  0.35152978911E+02  0.15224258018E+02  0.46142317013E+02  0.99999931747E+01 0.  0.
         12    1    1    2    0    0  0.23698177088E+02 -0.35152978911E+02 -0.15224258018E+02  0.45045682987E+02  0.00000000000E+00 0. -1.
         11    1    3    3    0    0 -0.37569197689E+01  0.15750759977E+01  0.19071298188E+01  0.44980501282E+01  0.51100000000E-03 0. -1.
        -11    1    3    3    0    0 -0.15374179985E+02  0.27332937020E+02  0.83586923699E+01  0.32454931747E+02  0.51100000000E-03 0.  1.
        -12    1    3    3    0    0 -0.45670773339E+01  0.62449658935E+01  0.49584358297E+01  0.91893351371E+01  0.00000000000E+00 0.  1.
</event>
<event>
 7    1  0.1466590E-008  0.4614232E+02  0.7816164E-02  0.1320468E+00
        -11   -1    0    0    0    0  0.00000000000E+00  0.00000000000E+00  0.45593999997E+02  0.45594000000E+02  0.51100000000E-03 0. -1.
         11   -1    0    0    0    0 -0.00000000000E+00 -0.00000000000E+00 -0.45593999997E+02  0.45594000000E+02  0.51100000000E-03 0.  1.
    9900012    2    1    2    0    0  0.17426838850E+02 -0.31984443865E+02 -0.26503098562E+02  0.46142316577E+02  0.99999891998E+01 0.  0.
         12    1    1    2    0    0 -0.17426838850E+02  0.31984443865E+02  0.26503098562E+02  0.45045683423E+02  0.00000000000E+00 0. -1.
         11    1    3    3    0    0  0.11829738272E+02 -0.13463110422E+02 -0.14402553647E+02  0.22991989944E+02  0.51100000000E-03 0. -1.
        -11    1    3    3    0    0  0.55240957901E+01 -0.14015964537E+02 -0.10521666926E+02  0.18375754987E+02  0.51100000000E-03 0.  1.
         12    1    3    3    0    0  0.73004788310E-01 -0.45053689069E+01 -0.15788779895E+01  0.47745716449E+01  0.00000000000E+00 0. -1.
</event>
<event>
 7    1  0.1466590E-008  0.4614232E+02  0.7816164E-02  0.1320468E+00
        -11   -1    0    0    0    0  0.00000000000E+00  0.00000000000E+00  0.45593999997E+02  0.45594000000E+02  0.51100000000E-03 0.  1.
         11   -1    0    0    0    0 -0.00000000000E+00 -0.00000000000E+00 -0.45593999997E+02  0.45594000000E+02  0.51100000000E-03 0. -1.
    9900012    2    1    2    0    0  0.32392312994E+02 -0.27936106098E+02  0.14121810014E+02  0.46142317820E+02  0.10000000538E+02 0.  0.
         12    1    1    2    0    0 -0.32392312994E+02  0.27936106098E+02 -0.14121810014E+02  0.45045682180E+02  0.00000000000E+00 0. -1.
         11    1    3    3    0    0  0.10627303834E+01 -0.35689815280E+01  0.54868041685E-01  0.37242496933E+01  0.51100000000E-03 0. -1.
        -11    1    3    3    0    0  0.16731041739E+02 -0.11943930546E+02  0.98303125293E+01  0.22786405580E+02  0.51100000000E-03 0.  1.
        -12    1    3    3    0    0  0.14598540871E+02 -0.12423194023E+02  0.42366294426E+01  0.19631662547E+02  0.00000000000E+00 0.  1.
</event>
<event>
 7    1  0.1466590E-008  0.4614232E+02  0.7816164E-02  0.1320468E+00
        -11   -1    0    0    0    0  0.00000000000E+00  0.00000000000E+00  0.45593999997E+02  0.45594000000E+02  0.51100000000E-03 0.  1.
         11   -1    0    0    0    0 -0.00000000000E+00 -0.00000000000E+00 -0.45593999997E+02  0.45594000000E+02  0.51100000000E-03 0. -1.
    9900012    2    1    2    0    0  0.35477220470E+02  0.23529125597E+02  0.14726192292E+02  0.46142315822E+02  0.99999823135E+01 0.  0.
         12    1    1    2    0    0 -0.35477220470E+02 -0.23529125597E+02 -0.14726192292E+02  0.45045684178E+02  0.00000000000E+00 0. -1.
         11    1    3    3    0    0  0.29402635038E+00 -0.37768137103E+00 -0.20690010429E-01  0.47908563994E+00  0.51100000000E-03 0. -1.
        -11    1    3    3    0    0  0.60282449361E+01  0.20658632655E+01  0.25223330493E-01  0.63724535713E+01  0.51100000000E-03 0.  1.
        -12    1    3    3    0    0  0.29154949184E+02  0.21840943703E+02  0.14721658972E+02  0.39290776610E+02  0.00000000000E+00 0.  1.
</event>
<event>
 7    1  0.1466590E-008  0.4614232E+02  0.7816164E-02  0.1320468E+00
        -11   -1    0    0    0    0  0.00000000000E+00  0.00000000000E+00  0.45593999997E+02  0.45594000000E+02  0.51100000000E-03 0. -1.
         11   -1    0    0    0    0 -0.00000000000E+00 -0.00000000000E+00 -0.45593999997E+02  0.45594000000E+02  0.51100000000E-03 0.  1.
    9900012    2    1    2    0    0  0.15862320998E+02  0.42085272481E+02  0.25159636901E+01  0.46142318070E+02  0.10000002814E+02 0.  0.
         12    1    1    2    0    0 -0.15862320998E+02 -0.42085272481E+02 -0.25159636901E+01  0.45045681930E+02  0.00000000000E+00 0. -1.
         11    1    3    3    0    0  0.64495970224E+01  0.70761224412E+01  0.50521097585E+00  0.95877030067E+01  0.51100000000E-03 0. -1.
        -11    1    3    3    0    0  0.56016564805E+01  0.15179789771E+02 -0.61666398287E+00  0.16192123010E+02  0.51100000000E-03 0.  1.
         12    1    3    3    0    0  0.38110674950E+01  0.19829360269E+02  0.26274166971E+01  0.20362492053E+02  0.00000000000E+00 0. -1.
</event>
<event>
 7    1  0.1466590E-008  0.4614232E+02  0.7816164E-02  0.1320468E+00
        -11   -1    0    0    0    0  0.00000000000E+00  0.00000000000E+00  0.45593999997E+02  0.45594000000E+02  0.51100000000E-03 0.  1.
         11   -1    0    0    0    0 -0.00000000000E+00 -0.00000000000E+00 -0.45593999997E+02  0.45594000000E+02  0.51100000000E-03 0. -1.
    9900012    2    1    2    0    0  0.90236850678E+01  0.14510656049E+02  0.41678861125E+02  0.46142317678E+02  0.99999992457E+01 0.  0.
         12    1    1    2    0    0 -0.90236850678E+01 -0.14510656049E+02 -0.41678861125E+02  0.45045682322E+02  0.00000000000E+00 0. -1.
         11    1    3    3    0    0  0.12491998995E+01  0.75376951519E+01  0.16886286748E+02  0.18534401231E+02  0.51100000000E-03 0. -1.
        -11    1    3    3    0    0  0.67018533273E+01  0.23758891278E+01  0.17834168616E+02  0.19199407742E+02  0.51100000000E-03 0.  1.
         12    1    3    3    0    0  0.10726318410E+01  0.45970717688E+01  0.69584057605E+01  0.84085087050E+01  0.00000000000E+00 0. -1.
</event>
<event>
 7    1  0.1466590E-008  0.4614232E+02  0.7816164E-02  0.1320468E+00
        -11   -1    0    0    0    0  0.00000000000E+00  0.00000000000E+00  0.45593999997E+02  0.45594000000E+02  0.51100000000E-03 0. -1.
         11   -1    0    0    0    0 -0.00000000000E+00 -0.00000000000E+00 -0.45593999997E+02  0.45594000000E+02  0.51100000000E-03 0.  1.
    9900012    2    1    2    0    0  0.97105970212E+01  0.37709490177E+02 -0.22645355848E+02  0.46142317794E+02  0.10000000303E+02 0.  0.
         12    1    1    2    0    0 -0.97105970212E+01 -0.37709490177E+02  0.22645355848E+02  0.45045682206E+02  0.00000000000E+00 0. -1.
         11    1    3    3    0    0  0.10123581728E+01  0.21828632949E+01 -0.31127126692E+01  0.39343031983E+01  0.51100000000E-03 0. -1.
        -11    1    3    3    0    0  0.35155550877E+01  0.23152460539E+02 -0.15912136977E+02  0.28312394106E+02  0.51100000000E-03 0.  1.
        -12    1    3    3    0    0  0.51826837607E+01  0.12374166343E+02 -0.36205062017E+01  0.13895620490E+02  0.00000000000E+00 0.  1.
</event>
<event>
 7    1  0.1466590E-008  0.4614232E+02  0.7816164E-02  0.1320468E+00
        -11   -1    0    0    0    0  0.00000000000E+00  0.00000000000E+00  0.45593999997E+02  0.45594000000E+02  0.51100000000E-03 0. -1.
         11   -1    0    0    0    0 -0.00000000000E+00 -0.00000000000E+00 -0.45593999997E+02  0.45594000000E+02  0.51100000000E-03 0.  1.
    9900012    2    1    2    0    0  0.22762969668E+02  0.29000432296E+02 -0.25883119099E+02  0.46142315237E+02  0.99999769791E+01 0.  0.
         12    1    1    2    0    0 -0.22762969668E+02 -0.29000432296E+02  0.25883119099E+02  0.45045684763E+02  0.00000000000E+00 0. -1.
         11    1    3    3    0    0  0.57984546541E+01  0.44920646153E+01 -0.69735238142E+01  0.10120808047E+02  0.51100000000E-03 0. -1.
        -11    1    3    3    0    0  0.11740444902E+01  0.46394869682E+01 -0.82090320295E+00  0.48556258219E+01  0.51100000000E-03 0.  1.
        -12    1    3    3    0    0  0.15790470524E+02  0.19868880713E+02 -0.18088692082E+02  0.31165881367E+02  0.00000000000E+00 0.  1.
</event>
<event>
 7    1  0.1466590E-008  0.4614232E+02  0.7816164E-02  0.1320468E+00
        -11   -1    0    0    0    0  0.00000000000E+00  0.00000000000E+00  0.45593999997E+02  0.45594000000E+02  0.51100000000E-03 0.  1.
         11   -1    0    0    0    0 -0.00000000000E+00 -0.00000000000E+00 -0.45593999997E+02  0.45594000000E+02  0.51100000000E-03 0. -1.
    9900012    2    1    2    0    0 -0.25600810581E+02 -0.25488064951E+02 -0.26908549959E+02  0.46142322979E+02  0.10000047584E+02 0.  0.
         12    1    1    2    0    0  0.25600810581E+02  0.25488064951E+02  0.26908549959E+02  0.45045677021E+02  0.00000000000E+00 0. -1.
         11    1    3    3    0    0 -0.10492980654E+01 -0.16428758090E+00  0.71520807988E+00  0.12804451171E+01  0.51100000000E-03 0. -1.
        -11    1    3    3    0    0 -0.19439637724E+02 -0.19713682989E+02 -0.20467072764E+02  0.34430072316E+02  0.51100000000E-03 0.  1.
        -12    1    3    3    0    0 -0.51118747909E+01 -0.56100943811E+01 -0.71566852748E+01  0.10431805547E+02  0.00000000000E+00 0.  1.
</event>
<event>
 7    1  0.1466590E-008  0.4614232E+02  0.7816164E-02  0.1320468E+00
        -11   -1    0    0    0    0  0.00000000000E+00  0.00000000000E+00  0.45593999997E+02  0.45594000000E+02  0.51100000000E-03 0.  1.
         11   -1    0    0    0    0 -0.00000000000E+00 -0.00000000000E+00 -0.45593999997E+02  0.45594000000E+02  0.51100000000E-03 0. -1.
    9900012    2    1    2    0    0  0.97836954363E+01  0.23246921138E+02  0.37322561357E+02  0.46142316245E+02  0.99999861705E+01 0.  0.
         12    1    1    2    0    0 -0.97836954363E+01 -0.23246921138E+02 -0.37322561357E+02  0.45045683755E+02  0.00000000000E+00 0. -1.
         11    1    3    3    0    0  0.79952404477E+00  0.38180801356E+00 -0.27986261122E+00  0.92916058874E+00  0.51100000000E-03 0. -1.
        -11    1    3    3    0    0  0.59597996848E+01  0.19897796900E+02  0.32632434509E+02  0.38682260999E+02  0.51100000000E-03 0.  1.
        -12    1    3    3    0    0  0.30243717067E+01  0.29673162244E+01  0.49699894584E+01  0.65308946563E+01  0.00000000000E+00 0.  1.
</event>
<event>
 7    1  0.1466590E-008  0.4614232E+02  0.7816164E-02  0.1320468E+00
        -11   -1    0    0    0    0  0.00000000000E+00  0.00000000000E+00  0.45593999997E+02  0.45594000000E+02  0.51100000000E-03 0. -1.
         11   -1    0    0    0    0 -0.00000000000E+00 -0.00000000000E+00 -0.45593999997E+02  0.45594000000E+02  0.51100000000E-03 0.  1.
    9900012    2    1    2    0    0  0.15070202930E+02  0.40690917567E+02  0.12093465294E+02  0.46142315505E+02  0.99999794266E+01 0.  0.
         12    1    1    2    0    0 -0.15070202930E+02 -0.40690917567E+02 -0.12093465294E+02  0.45045684495E+02  0.00000000000E+00 0. -1.
         11    1    3    3    0    0  0.67332664098E+00  0.13564456113E+02  0.53003399667E+01  0.14578801131E+02  0.51100000000E-03 0. -1.
        -11    1    3    3    0    0  0.95677706469E+01  0.20046203609E+02  0.56282177076E+01  0.22914391747E+02  0.51100000000E-03 0.  1.
         12    1    3    3    0    0  0.48291056417E+01  0.70802578455E+01  0.11649076194E+01  0.86491226272E+01  0.00000000000E+00 0. -1.
</event>
<event>
 7    1  0.1466590E-008  0.4614232E+02  0.7816164E-02  0.1320468E+00
        -11   -1    0    0    0    0  0.00000000000E+00  0.00000000000E+00  0.45593999997E+02  0.45594000000E+02  0.51100000000E-03 0.  1.
         11   -1    0    0    0    0 -0.00000000000E+00 -0.00000000000E+00 -0.45593999997E+02  0.45594000000E+02  0.51100000000E-03 0. -1.
    9900012    2    1    2    0    0  0.50214883715E+01  0.29402212150E+02  0.33755118431E+02  0.46142318242E+02  0.10000004383E+02 0.  0.
         12    1    1    2    0    0 -0.50214883715E+01 -0.29402212150E+02 -0.33755118431E+02  0.45045681758E+02  0.00000000000E+00 0. -1.
         11    1    3    3    0    0  0.85965672512E+00 -0.41865532271E+00  0.13751794582E+01  0.16749330636E+01  0.51100000000E-03 0. -1.
        -11    1    3    3    0    0  0.28085835955E+01  0.19907619270E+02  0.24738974487E+02  0.31878179147E+02  0.51100000000E-03 0.  1.
         12    1    3    3    0    0  0.13532480509E+01  0.99132482030E+01  0.76409644858E+01  0.12589206031E+02  0.00000000000E+00 0. -1.
</event>
<event>
 7    1  0.1466590E-008  0.4614232E+02  0.7816164E-02  0.1320468E+00
        -11   -1    0    0    0    0  0.00000000000E+00  0.00000000000E+00  0.45593999997E+02  0.45594000000E+02  0.51100000000E-03 0. -1.
         11   -1    0    0    0    0 -0.00000000000E+00 -0.00000000000E+00 -0.45593999997E+02  0.45594000000E+02  0.51100000000E-03 0.  1.
    9900012    2    1    2    0    0  0.15138218962E+02  0.27491883483E+02 -0.32313220134E+02  0.46142317341E+02  0.99999961687E+01 0.  0.
         12    1    1    2    0    0 -0.15138218962E+02 -0.27491883483E+02  0.32313220134E+02  0.45045682659E+02  0.00000000000E+00 0. -1.
         11    1    3    3    0    0  0.60614103423E+01  0.14789140196E+02 -0.21675878358E+02  0.26931451240E+02  0.51100000000E-03 0.  1.
        -11    1    3    3    0    0  0.89384895080E+01  0.11597819328E+02 -0.88629822966E+01  0.17116029425E+02  0.51100000000E-03 0. -1.
        -12    1    3    3    0    0  0.13831911213E+00  0.11049239594E+01 -0.17743594795E+01  0.20948366751E+01  0.00000000000E+00 0.  1.
</event>
<event>
 7    1  0.1466590E-008  0.4614232E+02  0.7816164E-02  0.1320468E+00
        -11   -1    0    0    0    0  0.00000000000E+00  0.00000000000E+00  0.45593999997E+02  0.45594000000E+02  0.51100000000E-03 0. -1.
         11   -1    0    0    0    0 -0.00000000000E+00 -0.00000000000E+00 -0.45593999997E+02  0.45594000000E+02  0.51100000000E-03 0.  1.
    9900012    2    1    2    0    0 -0.37652800524E+02 -0.30440478758E+01 -0.24538008975E+02  0.46142317640E+02  0.99999988993E+01 0.  0.
         12    1    1    2    0    0  0.37652800524E+02  0.30440478758E+01  0.24538008975E+02  0.45045682360E+02  0.00000000000E+00 0. -1.
         11    1    3    3    0    0 -0.16787047870E+02  0.27483491668E+01 -0.91983908040E+01  0.19338272750E+02  0.51100000000E-03 0. -1.
        -11    1    3    3    0    0 -0.90853953729E+01 -0.44430196646E+01 -0.66636096659E+01  0.12111503906E+02  0.51100000000E-03 0.  1.
         12    1    3    3    0    0 -0.11780357281E+02 -0.13493773779E+01 -0.86760085054E+01  0.14692540984E+02  0.00000000000E+00 0. -1.
</event>
<event>
 7    1  0.1466590E-008  0.4614232E+02  0.7816164E-02  0.1320468E+00
        -11   -1    0    0    0    0  0.00000000000E+00  0.00000000000E+00  0.45593999997E+02  0.45594000000E+02  0.51100000000E-03 0.  1.
         11   -1    0    0    0    0 -0.00000000000E+00 -0.00000000000E+00 -0.45593999997E+02  0.45594000000E+02  0.51100000000E-03 0. -1.
    9900012    2    1    2    0    0 -0.20041715103E+02  0.39470670103E+02  0.83372252835E+01  0.46142317986E+02  0.10000002050E+02 0.  0.
         12    1    1    2    0    0  0.20041715103E+02 -0.39470670103E+02 -0.83372252835E+01  0.45045682014E+02  0.00000000000E+00 0. -1.
         11    1    3    3    0    0 -0.47926263575E+01  0.10817705001E+02 -0.15454626615E+01  0.11932328523E+02  0.51100000000E-03 0. -1.
        -11    1    3    3    0    0 -0.14984978790E+02  0.26724953772E+02  0.10077786565E+02  0.32254217178E+02  0.51100000000E-03 0.  1.
        -12    1    3    3    0    0 -0.26410995579E+00  0.19280113305E+01 -0.19509861953E+00  0.19557722849E+01  0.00000000000E+00 0.  1.
</event>
<event>
 7    1  0.1466590E-008  0.4614232E+02  0.7816164E-02  0.1320468E+00
        -11   -1    0    0    0    0  0.00000000000E+00  0.00000000000E+00  0.45593999997E+02  0.45594000000E+02  0.51100000000E-03 0.  1.
         11   -1    0    0    0    0 -0.00000000000E+00 -0.00000000000E+00 -0.45593999997E+02  0.45594000000E+02  0.51100000000E-03 0. -1.
    9900012    2    1    2    0    0 -0.21846532345E+02  0.29537197203E+02  0.26065234848E+02  0.46142318056E+02  0.10000002692E+02 0.  0.
         12    1    1    2    0    0  0.21846532345E+02 -0.29537197203E+02 -0.26065234848E+02  0.45045681944E+02  0.00000000000E+00 0. -1.
         11    1    3    3    0    0 -0.32883543915E+01  0.57508820468E+00  0.23004741893E+01  0.40541562382E+01  0.51100000000E-03 0. -1.
        -11    1    3    3    0    0 -0.96544938703E+01  0.10716393946E+02  0.10385805156E+02  0.17774006304E+02  0.51100000000E-03 0.  1.
        -12    1    3    3    0    0 -0.89036840828E+01  0.18245715052E+02  0.13378955503E+02  0.24314155514E+02  0.00000000000E+00 0.  1.
</event>
<event>
 7    1  0.1466590E-008  0.4614232E+02  0.7816164E-02  0.1320468E+00
        -11   -1    0    0    0    0  0.00000000000E+00  0.00000000000E+00  0.45593999997E+02  0.45594000000E+02  0.51100000000E-03 0. -1.
         11   -1    0    0    0    0 -0.00000000000E+00 -0.00000000000E+00 -0.45593999997E+02  0.45594000000E+02  0.51100000000E-03 0.  1.
    9900012    2    1    2    0    0 -0.16222034107E+02  0.32757998738E+02 -0.26322467872E+02  0.46142321109E+02  0.10000030531E+02 0.  0.
         12    1    1    2    0    0  0.16222034107E+02 -0.32757998738E+02  0.26322467872E+02  0.45045678891E+02  0.00000000000E+00 0. -1.
         11    1    3    3    0    0 -0.79092948547E+01  0.18316958290E+02 -0.13828096015E+02  0.24275175504E+02  0.51100000000E-03 0. -1.
        -11    1    3    3    0    0 -0.79005166743E+01  0.13691917889E+02 -0.88350388432E+01  0.18109243243E+02  0.51100000000E-03 0.  1.
         12    1    3    3    0    0 -0.41222257789E+00  0.74912255877E+00 -0.36593330136E+01  0.37579023625E+01  0.00000000000E+00 0. -1.
</event>
<event>
 7    1  0.1466590E-008  0.4614232E+02  0.7816164E-02  0.1320468E+00
        -11   -1    0    0    0    0  0.00000000000E+00  0.00000000000E+00  0.45593999997E+02  0.45594000000E+02  0.51100000000E-03 0.  1.
         11   -1    0    0    0    0 -0.00000000000E+00 -0.00000000000E+00 -0.45593999997E+02  0.45594000000E+02  0.51100000000E-03 0. -1.
    9900012    2    1    2    0    0  0.14327436766E+02 -0.38494022043E+02  0.18494548618E+02  0.46142317566E+02  0.99999982206E+01 0.  0.
         12    1    1    2    0    0 -0.14327436766E+02  0.38494022043E+02 -0.18494548618E+02  0.45045682434E+02  0.00000000000E+00 0. -1.
         11    1    3    3    0    0  0.80379833618E+01 -0.15594300636E+02  0.12748115572E+02  0.21686535909E+02  0.51100000000E-03 0. -1.
        -11    1    3    3    0    0  0.22892187683E+01 -0.84898794687E+01  0.16076165572E+01  0.89388482043E+01  0.51100000000E-03 0.  1.
         12    1    3    3    0    0  0.40002346359E+01 -0.14409841939E+02  0.41388164893E+01  0.15516933453E+02  0.00000000000E+00 0. -1.
</event>
<event>
 7    1  0.1466590E-008  0.4614231E+02  0.7816164E-02  0.1320468E+00
        -11   -1    0    0    0    0  0.00000000000E+00  0.00000000000E+00  0.45593999997E+02  0.45594000000E+02  0.51100000000E-03 0. -1.
         11   -1    0    0    0    0 -0.00000000000E+00 -0.00000000000E+00 -0.45593999997E+02  0.45594000000E+02  0.51100000000E-03 0.  1.
    9900012    2    1    2    0    0 -0.99880996804E+01  0.32024847901E+02 -0.30062613806E+02  0.46142314666E+02  0.99999717794E+01 0.  0.
         12    1    1    2    0    0  0.99880996804E+01 -0.32024847901E+02  0.30062613806E+02  0.45045685334E+02  0.00000000000E+00 0. -1.
         11    1    3    3    0    0 -0.50589037887E+01  0.13415937488E+02 -0.91837123837E+01  0.17027050820E+02  0.51100000000E-03 0. -1.
        -11    1    3    3    0    0 -0.31808410078E+01  0.15685620045E+02 -0.19965642419E+02  0.25588733911E+02  0.51100000000E-03 0.  1.
        -12    1    3    3    0    0 -0.17483548839E+01  0.29232903673E+01 -0.91325900385E+00  0.35265299346E+01  0.00000000000E+00 0.  1.
</event>
<event>
 7    1  0.1466590E-008  0.4614232E+02  0.7816164E-02  0.1320468E+00
        -11   -1    0    0    0    0  0.00000000000E+00  0.00000000000E+00  0.45593999997E+02  0.45594000000E+02  0.51100000000E-03 0. -1.
         11   -1    0    0    0    0 -0.00000000000E+00 -0.00000000000E+00 -0.45593999997E+02  0.45594000000E+02  0.51100000000E-03 0.  1.
    9900012    2    1    2    0    0 -0.10211367014E+02  0.12945533350E+02 -0.41919621040E+02  0.46142317875E+02  0.10000001035E+02 0.  0.
         12    1    1    2    0    0  0.10211367014E+02 -0.12945533350E+02  0.41919621040E+02  0.45045682125E+02  0.00000000000E+00 0. -1.
         11    1    3    3    0    0 -0.10802374658E+00  0.36888710001E+01 -0.11979206809E+02  0.12534784977E+02  0.51100000000E-03 0. -1.
        -11    1    3    3    0    0 -0.57646302283E+01  0.88994743439E+01 -0.17907223341E+02  0.20811060841E+02  0.51100000000E-03 0.  1.
         12    1    3    3    0    0 -0.43387130394E+01  0.35718800558E+00 -0.12033190890E+02  0.12796472057E+02  0.00000000000E+00 0. -1.
</event>
<event>
 7    1  0.1466590E-008  0.4614232E+02  0.7816164E-02  0.1320468E+00
        -11   -1    0    0    0    0  0.00000000000E+00  0.00000000000E+00  0.45593999997E+02  0.45594000000E+02  0.51100000000E-03 0. -1.
         11   -1    0    0    0    0 -0.00000000000E+00 -0.00000000000E+00 -0.45593999997E+02  0.45594000000E+02  0.51100000000E-03 0.  1.
    9900012    2    1    2    0    0  0.16226317110E+02  0.26739560410E+02 -0.32416292342E+02  0.46142317997E+02  0.10000002151E+02 0.  0.
         12    1    1    2    0    0 -0.16226317110E+02 -0.26739560410E+02  0.32416292342E+02  0.45045682003E+02  0.00000000000E+00 0. -1.
         11    1    3    3    0    0  0.23712907341E+01  0.92221478028E+01 -0.77573353534E+01  0.12281990144E+02  0.51100000000E-03 0. -1.
        -11    1    3    3    0    0  0.46771265009E+01  0.91646637490E+01 -0.77264796882E+01  0.12867208810E+02  0.51100000000E-03 0.  1.
         12    1    3    3    0    0  0.91778998748E+01  0.83527488585E+01 -0.16932477301E+02  0.20993119043E+02  0.00000000000E+00 0. -1.
</event>
<event>
 7    1  0.1466590E-008  0.4614232E+02  0.7816164E-02  0.1320468E+00
        -11   -1    0    0    0    0  0.00000000000E+00  0.00000000000E+00  0.45593999997E+02  0.45594000000E+02  0.51100000000E-03 0.  1.
         11   -1    0    0    0    0 -0.00000000000E+00 -0.00000000000E+00 -0.45593999997E+02  0.45594000000E+02  0.51100000000E-03 0. -1.
    9900012    2    1    2    0    0  0.41521102320E+02  0.13658313032E+02  0.10888620096E+02  0.46142317628E+02  0.99999987870E+01 0.  0.
         12    1    1    2    0    0 -0.41521102320E+02 -0.13658313032E+02 -0.10888620096E+02  0.45045682372E+02  0.00000000000E+00 0. -1.
         11    1    3    3    0    0  0.53953345346E+01  0.41186925444E+01  0.88871759766E+00  0.68456615638E+01  0.51100000000E-03 0. -1.
        -11    1    3    3    0    0  0.18527367718E+02  0.36975398784E+01  0.84281583248E+01  0.20687411842E+02  0.51100000000E-03 0.  1.
        -12    1    3    3    0    0  0.17598400068E+02  0.58420806093E+01  0.15717441735E+01  0.18609244223E+02  0.00000000000E+00 0.  1.
</event>
<event>
 7    1  0.1466590E-008  0.4614232E+02  0.7816164E-02  0.1320468E+00
        -11   -1    0    0    0    0  0.00000000000E+00  0.00000000000E+00  0.45593999997E+02  0.45594000000E+02  0.51100000000E-03 0. -1.
         11   -1    0    0    0    0 -0.00000000000E+00 -0.00000000000E+00 -0.45593999997E+02  0.45594000000E+02  0.51100000000E-03 0.  1.
    9900012    2    1    2    0    0  0.43545073229E+02 -0.10660653149E+02 -0.43920987174E+01  0.46142318084E+02  0.10000002947E+02 0.  0.
         12    1    1    2    0    0 -0.43545073229E+02  0.10660653149E+02  0.43920987174E+01  0.45045681916E+02  0.00000000000E+00 0. -1.
         11    1    3    3    0    0  0.17724332640E+02 -0.12842855306E+01 -0.35646256515E+00  0.17774375451E+02  0.51100000000E-03 0. -1.
        -11    1    3    3    0    0  0.15096586797E+02 -0.70831324929E+01  0.19331825922E-01  0.16675673084E+02  0.51100000000E-03 0.  1.
        -12    1    3    3    0    0  0.10724153792E+02 -0.22932351258E+01 -0.40549679781E+01  0.11692269549E+02  0.00000000000E+00 0.  1.
</event>
<event>
 7    1  0.1466590E-008  0.4614232E+02  0.7816164E-02  0.1320468E+00
        -11   -1    0    0    0    0  0.00000000000E+00  0.00000000000E+00  0.45593999997E+02  0.45594000000E+02  0.51100000000E-03 0.  1.
         11   -1    0    0    0    0 -0.00000000000E+00 -0.00000000000E+00 -0.45593999997E+02  0.45594000000E+02  0.51100000000E-03 0. -1.
    9900012    2    1    2    0    0  0.22411105826E+02 -0.38352775171E+02  0.74780076917E+01  0.46142316226E+02  0.99999859994E+01 0.  0.
         12    1    1    2    0    0 -0.22411105826E+02  0.38352775171E+02 -0.74780076917E+01  0.45045683774E+02  0.00000000000E+00 0. -1.
         11    1    3    3    0    0  0.56841656624E+01 -0.16290737387E+02  0.33596091870E+00  0.17257193685E+02  0.51100000000E-03 0. -1.
        -11    1    3    3    0    0  0.16880331097E+02 -0.22078412273E+02  0.72166130017E+01  0.28713783623E+02  0.51100000000E-03 0.  1.
         12    1    3    3    0    0 -0.15339093345E+00  0.16374489217E-01 -0.74566228641E-01  0.17133891798E+00  0.00000000000E+00 0. -1.
</event>
<event>
 7    1  0.1466590E-008  0.4614232E+02  0.7816164E-02  0.1320468E+00
        -11   -1    0    0    0    0  0.00000000000E+00  0.00000000000E+00  0.45593999997E+02  0.45594000000E+02  0.51100000000E-03 0.  1.
         11   -1    0    0    0    0 -0.00000000000E+00 -0.00000000000E+00 -0.45593999997E+02  0.45594000000E+02  0.51100000000E-03 0. -1.
    9900012    2    1    2    0    0 -0.16564595718E+02  0.28744652303E+02  0.30470848989E+02  0.46142317572E+02  0.99999982711E+01 0.  0.
         12    1    1    2    0    0  0.16564595718E+02 -0.28744652303E+02 -0.30470848989E+02  0.45045682428E+02  0.00000000000E+00 0. -1.
         11    1    3    3    0    0 -0.91566603595E+01  0.17036100489E+02  0.17046699767E+02  0.25781061305E+02  0.51100000000E-03 0.  1.
        -11    1    3    3    0    0 -0.85693455801E+01  0.93667675102E+01  0.11135529714E+02  0.16886978402E+02  0.51100000000E-03 0. -1.
         12    1    3    3    0    0  0.11614102217E+01  0.23417843039E+01  0.22886195082E+01  0.34742778649E+01  0.00000000000E+00 0. -1.
</event>
<event>
 7    1  0.1466590E-008  0.4614232E+02  0.7816164E-02  0.1320468E+00
        -11   -1    0    0    0    0  0.00000000000E+00  0.00000000000E+00  0.45593999997E+02  0.45594000000E+02  0.51100000000E-03 0.  1.
         11   -1    0    0    0    0 -0.00000000000E+00 -0.00000000000E+00 -0.45593999997E+02  0.45594000000E+02  0.51100000000E-03 0. -1.
    9900012    2    1    2    0    0  0.37136835737E+02 -0.22004184614E+02  0.12875736028E+02  0.46142319992E+02  0.10000020346E+02 0.  0.
         12    1    1    2    0    0 -0.37136835737E+02  0.22004184614E+02 -0.12875736028E+02  0.45045680008E+02  0.00000000000E+00 0. -1.
         11    1    3    3    0    0  0.13955705173E+02 -0.40482872898E+01  0.25595771231E+01  0.14754720335E+02  0.51100000000E-03 0. -1.
        -11    1    3    3    0    0  0.12515800294E+02 -0.11894459608E+02  0.46923075594E+01  0.17892489398E+02  0.51100000000E-03 0.  1.
         12    1    3    3    0    0  0.10665330269E+02 -0.60614377170E+01  0.56238513454E+01  0.13495110259E+02  0.00000000000E+00 0. -1.
</event>
<event>
 7    1  0.1466590E-008  0.4614232E+02  0.7816164E-02  0.1320468E+00
        -11   -1    0    0    0    0  0.00000000000E+00  0.00000000000E+00  0.45593999997E+02  0.45594000000E+02  0.51100000000E-03 0.  1.
         11   -1    0    0    0    0 -0.00000000000E+00 -0.00000000000E+00 -0.45593999997E+02  0.45594000000E+02  0.51100000000E-03 0. -1.
    9900012    2    1    2    0    0 -0.40993817447E+01  0.43775879946E+02  0.97969876697E+01  0.46142316932E+02  0.99999924356E+01 0.  0.
         12    1    1    2    0    0  0.40993817447E+01 -0.43775879946E+02 -0.97969876697E+01  0.45045683068E+02  0.00000000000E+00 0. -1.
         11    1    3    3    0    0 -0.14254222726E+01  0.18389845045E+01 -0.56111681849E+00  0.23934379056E+01  0.51100000000E-03 0. -1.
        -11    1    3    3    0    0  0.14817048584E+00  0.35203403530E+02  0.85176810017E+01  0.36219503924E+02  0.51100000000E-03 0.  1.
        -12    1    3    3    0    0 -0.28221299580E+01  0.67334919107E+01  0.18404234865E+01  0.75293751016E+01  0.00000000000E+00 0.  1.
</event>
<event>
 7    1  0.1466590E-008  0.4614232E+02  0.7816164E-02  0.1320468E+00
        -11   -1    0    0    0    0  0.00000000000E+00  0.00000000000E+00  0.45593999997E+02  0.45594000000E+02  0.51100000000E-03 0.  1.
         11   -1    0    0    0    0 -0.00000000000E+00 -0.00000000000E+00 -0.45593999997E+02  0.45594000000E+02  0.51100000000E-03 0. -1.
    9900012    2    1    2    0    0 -0.24985335615E+02  0.36196281256E+02  0.97301413522E+01  0.46142318484E+02  0.10000006588E+02 0.  0.
         12    1    1    2    0    0  0.24985335615E+02 -0.36196281256E+02 -0.97301413522E+01  0.45045681516E+02  0.00000000000E+00 0. -1.
         11    1    3    3    0    0 -0.68329276761E+01  0.43231118996E+01  0.38628750680E+00  0.80949005814E+01  0.51100000000E-03 0. -1.
        -11    1    3    3    0    0 -0.15839559295E+02  0.28394537299E+02  0.70045066291E+01  0.33259652741E+02  0.51100000000E-03 0.  1.
         12    1    3    3    0    0 -0.23128486440E+01  0.34786320575E+01  0.23393472163E+01  0.47877651613E+01  0.00000000000E+00 0. -1.
</event>
<event>
 7    1  0.1466590E-008  0.4614232E+02  0.7816164E-02  0.1320468E+00
        -11   -1    0    0    0    0  0.00000000000E+00  0.00000000000E+00  0.45593999997E+02  0.45594000000E+02  0.51100000000E-03 0.  1.
         11   -1    0    0    0    0 -0.00000000000E+00 -0.00000000000E+00 -0.45593999997E+02  0.45594000000E+02  0.51100000000E-03 0. -1.
    9900012    2    1    2    0    0 -0.36314095677E+02  0.25216191461E+02 -0.86338373579E+01  0.46142323136E+02  0.10000049014E+02 0.  0.
         12    1    1    2    0    0  0.36314095677E+02 -0.25216191461E+02  0.86338373579E+01  0.45045676864E+02  0.00000000000E+00 0. -1.
         11    1    3    3    0    0 -0.97006059203E+01  0.40097104725E+01 -0.19274272080E+01  0.10672137049E+02  0.51100000000E-03 0. -1.
        -11    1    3    3    0    0 -0.77004801470E+01  0.43152185552E+01  0.12001616752E+01  0.89083609032E+01  0.51100000000E-03 0.  1.
        -12    1    3    3    0    0 -0.18913009609E+02  0.16891262433E+02 -0.79065718251E+01  0.26561825184E+02  0.00000000000E+00 0.  1.
</event>
<event>
 7    1  0.1466590E-008  0.4614232E+02  0.7816164E-02  0.1320468E+00
        -11   -1    0    0    0    0  0.00000000000E+00  0.00000000000E+00  0.45593999997E+02  0.45594000000E+02  0.51100000000E-03 0.  1.
         11   -1    0    0    0    0 -0.00000000000E+00 -0.00000000000E+00 -0.45593999997E+02  0.45594000000E+02  0.51100000000E-03 0. -1.
    9900012    2    1    2    0    0 -0.13048716425E+02  0.11990696764E+02  0.41413375843E+02  0.46142317544E+02  0.99999980171E+01 0.  0.
         12    1    1    2    0    0  0.13048716425E+02 -0.11990696764E+02 -0.41413375843E+02  0.45045682456E+02  0.00000000000E+00 0. -1.
         11    1    3    3    0    0 -0.84768470853E+01  0.10669838726E+02  0.23193025808E+02  0.26900164337E+02  0.51100000000E-03 0. -1.
        -11    1    3    3    0    0 -0.25424629465E+01  0.21605722457E+01  0.14843844160E+02  0.15214200602E+02  0.51100000000E-03 0.  1.
         12    1    3    3    0    0 -0.20294063931E+01 -0.83971420788E+00  0.33765058751E+01  0.40279526045E+01  0.00000000000E+00 0. -1.
</event>
<event>
 7    1  0.1466590E-008  0.4614232E+02  0.7816164E-02  0.1320468E+00
        -11   -1    0    0    0    0  0.00000000000E+00  0.00000000000E+00  0.45593999997E+02  0.45594000000E+02  0.51100000000E-03 0. -1.
         11   -1    0    0    0    0 -0.00000000000E+00 -0.00000000000E+00 -0.45593999997E+02  0.45594000000E+02  0.51100000000E-03 0.  1.
    9900012    2    1    2    0    0 -0.37998810294E+02  0.19211946241E+02 -0.14700513061E+02  0.46142317118E+02  0.99999941329E+01 0.  0.
         12    1    1    2    0    0  0.37998810294E+02 -0.19211946241E+02  0.14700513061E+02  0.45045682882E+02  0.00000000000E+00 0. -1.
         11    1    3    3    0    0 -0.18556320923E+01  0.29172382277E+01 -0.33957391962E+01  0.48461009367E+01  0.51100000000E-03 0. -1.
        -11    1    3    3    0    0 -0.18066681378E+02  0.78252356503E+01 -0.44063314507E+01  0.20175605223E+02  0.51100000000E-03 0.  1.
         12    1    3    3    0    0 -0.18076496823E+02  0.84694723625E+01 -0.68984424140E+01  0.21120610958E+02  0.00000000000E+00 0. -1.
</event>
<event>
 7    1  0.1466590E-008  0.4614232E+02  0.7816164E-02  0.1320468E+00
        -11   -1    0    0    0    0  0.00000000000E+00  0.00000000000E+00  0.45593999997E+02  0.45594000000E+02  0.51100000000E-03 0.  1.
         11   -1    0    0    0    0 -0.00000000000E+00 -0.00000000000E+00 -0.45593999997E+02  0.45594000000E+02  0.51100000000E-03 0. -1.
    9900012    2    1    2    0    0  0.13898365833E+02 -0.15905617846E+02  0.39786432671E+02  0.46142317892E+02  0.10000001196E+02 0.  0.
         12    1    1    2    0    0 -0.13898365833E+02  0.15905617846E+02 -0.39786432671E+02  0.45045682108E+02  0.00000000000E+00 0. -1.
         11    1    3    3    0    0  0.22396658235E+01 -0.34807806247E+01  0.23548397011E+01  0.47620591174E+01  0.51100000000E-03 0. -1.
        -11    1    3    3    0    0  0.67050799193E+01 -0.95400248437E+01  0.28172099898E+02  0.30489955455E+02  0.51100000000E-03 0.  1.
        -12    1    3    3    0    0  0.49536200900E+01 -0.28848123772E+01  0.92594930721E+01  0.10890303320E+02  0.00000000000E+00 0.  1.
</event>
<event>
 7    1  0.1466590E-008  0.4614232E+02  0.7816164E-02  0.1320468E+00
        -11   -1    0    0    0    0  0.00000000000E+00  0.00000000000E+00  0.45593999997E+02  0.45594000000E+02  0.51100000000E-03 0.  1.
         11   -1    0    0    0    0 -0.00000000000E+00 -0.00000000000E+00 -0.45593999997E+02  0.45594000000E+02  0.51100000000E-03 0. -1.
    9900012    2    1    2    0    0 -0.43602072400E+01 -0.44702470814E+02  0.34338315503E+01  0.46142317596E+02  0.99999984985E+01 0.  0.
         12    1    1    2    0    0  0.43602072400E+01  0.44702470814E+02 -0.34338315503E+01  0.45045682404E+02  0.00000000000E+00 0. -1.
         11    1    3    3    0    0 -0.34431982285E-01 -0.69479596062E+01 -0.21130541933E+01  0.72622535439E+01  0.51100000000E-03 0. -1.
        -11    1    3    3    0    0  0.13536978532E+01 -0.76053924390E+01  0.12938671947E+00  0.77260101743E+01  0.51100000000E-03 0.  1.
        -12    1    3    3    0    0 -0.56794731109E+01 -0.30149118769E+02  0.54174990241E+01  0.31154053878E+02  0.00000000000E+00 0.  1.
</event>
<event>
 7    1  0.1466590E-008  0.4614232E+02  0.7816164E-02  0.1320468E+00
        -11   -1    0    0    0    0  0.00000000000E+00  0.00000000000E+00  0.45593999997E+02  0.45594000000E+02  0.51100000000E-03 0. -1.
         11   -1    0    0    0    0 -0.00000000000E+00 -0.00000000000E+00 -0.45593999997E+02  0.45594000000E+02  0.51100000000E-03 0.  1.
    9900012    2    1    2    0    0 -0.30475004694E+02 -0.33950197054E+01 -0.32997901752E+02  0.46142316634E+02  0.99999897195E+01 0.  0.
         12    1    1    2    0    0  0.30475004694E+02  0.33950197054E+01  0.32997901752E+02  0.45045683366E+02  0.00000000000E+00 0. -1.
         11    1    3    3    0    0 -0.98931738959E+00 -0.18432743194E+01 -0.41790351637E+01  0.46734082075E+01  0.51100000000E-03 0. -1.
        -11    1    3    3    0    0 -0.73464841690E+01  0.11585358177E+01 -0.85322566776E+01  0.11318676564E+02  0.51100000000E-03 0.  1.
         12    1    3    3    0    0 -0.22139203135E+02 -0.27102812038E+01 -0.20286609911E+02  0.30150231862E+02  0.00000000000E+00 0. -1.
</event>
<event>
 7    1  0.1466590E-008  0.4614232E+02  0.7816164E-02  0.1320468E+00
        -11   -1    0    0    0    0  0.00000000000E+00  0.00000000000E+00  0.45593999997E+02  0.45594000000E+02  0.51100000000E-03 0.  1.
         11   -1    0    0    0    0 -0.00000000000E+00 -0.00000000000E+00 -0.45593999997E+02  0.45594000000E+02  0.51100000000E-03 0. -1.
    9900012    2    1    2    0    0  0.22123240345E+02  0.83177636147E+01  0.38346975956E+02  0.46142317412E+02  0.99999968131E+01 0.  0.
         12    1    1    2    0    0 -0.22123240345E+02 -0.83177636147E+01 -0.38346975956E+02  0.45045682588E+02  0.00000000000E+00 0. -1.
         11    1    3    3    0    0  0.57816684151E+01  0.14728001090E+01  0.16668590864E+02  0.17704201521E+02  0.51100000000E-03 0. -1.
        -11    1    3    3    0    0  0.10250941728E+02  0.64747639049E+01  0.12479919888E+02  0.17399792373E+02  0.51100000000E-03 0.  1.
         12    1    3    3    0    0  0.60906302016E+01  0.37019960069E+00  0.91984652031E+01  0.11038323518E+02  0.00000000000E+00 0. -1.
</event>
<event>
 7    1  0.1466590E-008  0.4614231E+02  0.7816164E-02  0.1320468E+00
        -11   -1    0    0    0    0  0.00000000000E+00  0.00000000000E+00  0.45593999997E+02  0.45594000000E+02  0.51100000000E-03 0. -1.
         11   -1    0    0    0    0 -0.00000000000E+00 -0.00000000000E+00 -0.45593999997E+02  0.45594000000E+02  0.51100000000E-03 0.  1.
    9900012    2    1    2    0    0 -0.13032043662E+02 -0.42588837654E+02 -0.67432268833E+01  0.46142308047E+02  0.99999114196E+01 0.  0.
         12    1    1    2    0    0  0.13032043662E+02  0.42588837654E+02  0.67432268833E+01  0.45045691953E+02  0.00000000000E+00 0. -1.
         11    1    3    3    0    0 -0.15482612480E+01 -0.22739163547E+01 -0.21379931762E+01  0.34840814518E+01  0.51100000000E-03 0. -1.
        -11    1    3    3    0    0 -0.12034916125E+02 -0.34531402589E+02 -0.45298431966E+01  0.36848018272E+02  0.51100000000E-03 0.  1.
         12    1    3    3    0    0  0.55113371040E+00 -0.57835187099E+01 -0.75390510497E-01  0.58102083236E+01  0.00000000000E+00 0. -1.
</event>
<event>
 7    1  0.1466590E-008  0.4614232E+02  0.7816164E-02  0.1320468E+00
        -11   -1    0    0    0    0  0.00000000000E+00  0.00000000000E+00  0.45593999997E+02  0.45594000000E+02  0.51100000000E-03 0.  1.
         11   -1    0    0    0    0 -0.00000000000E+00 -0.00000000000E+00 -0.45593999997E+02  0.45594000000E+02  0.51100000000E-03 0. -1.
    9900012    2    1    2    0    0  0.30198377191E+02 -0.25315712769E+02 -0.21823982323E+02  0.46142317605E+02  0.99999985790E+01 0.  0.
         12    1    1    2    0    0 -0.30198377191E+02  0.25315712769E+02  0.21823982323E+02  0.45045682395E+02  0.00000000000E+00 0. -1.
         11    1    3    3    0    0  0.48585230586E+01 -0.10594453207E+01 -0.37463545228E+01  0.62259813017E+01  0.51100000000E-03 0. -1.
        -11    1    3    3    0    0  0.19803964668E+02 -0.17887870139E+02 -0.10857225363E+02  0.28810627510E+02  0.51100000000E-03 0.  1.
         12    1    3    3    0    0  0.55358894647E+01 -0.63683973090E+01 -0.72204024371E+01  0.11105708793E+02  0.00000000000E+00 0. -1.
</event>
<event>
 7    1  0.1466590E-008  0.4614232E+02  0.7816164E-02  0.1320468E+00
        -11   -1    0    0    0    0  0.00000000000E+00  0.00000000000E+00  0.45593999997E+02  0.45594000000E+02  0.51100000000E-03 0. -1.
         11   -1    0    0    0    0 -0.00000000000E+00 -0.00000000000E+00 -0.45593999997E+02  0.45594000000E+02  0.51100000000E-03 0.  1.
    9900012    2    1    2    0    0 -0.24778900502E+02 -0.32949232096E+02 -0.18151239010E+02  0.46142320036E+02  0.10000020745E+02 0.  0.
         12    1    1    2    0    0  0.24778900502E+02  0.32949232096E+02  0.18151239010E+02  0.45045679964E+02  0.00000000000E+00 0. -1.
         11    1    3    3    0    0  0.12271402151E+00  0.12752894342E+00 -0.65920719527E-01  0.18886017280E+00  0.51100000000E-03 0. -1.
        -11    1    3    3    0    0 -0.17831586554E+02 -0.28729005932E+02 -0.15933807717E+02  0.37379238749E+02  0.51100000000E-03 0.  1.
        -12    1    3    3    0    0 -0.70700279689E+01 -0.43477551081E+01 -0.21515105737E+01  0.85742211139E+01  0.00000000000E+00 0.  1.
</event>
<event>
 7    1  0.1466590E-008  0.4614232E+02  0.7816164E-02  0.1320468E+00
        -11   -1    0    0    0    0  0.00000000000E+00  0.00000000000E+00  0.45593999997E+02  0.45594000000E+02  0.51100000000E-03 0. -1.
         11   -1    0    0    0    0 -0.00000000000E+00 -0.00000000000E+00 -0.45593999997E+02  0.45594000000E+02  0.51100000000E-03 0.  1.
    9900012    2    1    2    0    0  0.15047248865E+02  0.20318210624E+02 -0.37280881091E+02  0.46142317895E+02  0.10000001222E+02 0.  0.
         12    1    1    2    0    0 -0.15047248865E+02 -0.20318210624E+02  0.37280881091E+02  0.45045682105E+02  0.00000000000E+00 0. -1.
         11    1    3    3    0    0 -0.31202055415E+00  0.76740581978E+00 -0.11400645077E+01  0.14092607499E+01  0.51100000000E-03 0.  1.
        -11    1    3    3    0    0  0.89853382320E+00  0.30321509352E+01 -0.10345585061E+01  0.33274034755E+01  0.51100000000E-03 0. -1.
        -12    1    3    3    0    0  0.14460735596E+02  0.16518653869E+02 -0.35106258077E+02  0.41405653670E+02  0.00000000000E+00 0.  1.
</event>
<event>
 7    1  0.1466590E-008  0.4614232E+02  0.7816164E-02  0.1320468E+00
        -11   -1    0    0    0    0  0.00000000000E+00  0.00000000000E+00  0.45593999997E+02  0.45594000000E+02  0.51100000000E-03 0. -1.
         11   -1    0    0    0    0 -0.00000000000E+00 -0.00000000000E+00 -0.45593999997E+02  0.45594000000E+02  0.51100000000E-03 0.  1.
    9900012    2    1    2    0    0  0.22555262383E+01 -0.44820533280E+02  0.38917753169E+01  0.46142317440E+02  0.99999970761E+01 0.  0.
         12    1    1    2    0    0 -0.22555262383E+01  0.44820533280E+02 -0.38917753169E+01  0.45045682560E+02  0.00000000000E+00 0. -1.
         11    1    3    3    0    0  0.22686191869E+01 -0.22336801226E+02  0.18812950311E+01  0.22530392657E+02  0.51100000000E-03 0. -1.
        -11    1    3    3    0    0  0.26201046288E+01 -0.71011787916E+01  0.25757606630E+01  0.79953881551E+01  0.51100000000E-03 0.  1.
        -12    1    3    3    0    0 -0.26331975774E+01 -0.15382553262E+02 -0.56528037727E+00  0.15616536628E+02  0.00000000000E+00 0.  1.
</event>
<event>
 7    1  0.1466590E-008  0.4614232E+02  0.7816164E-02  0.1320468E+00
        -11   -1    0    0    0    0  0.00000000000E+00  0.00000000000E+00  0.45593999997E+02  0.45594000000E+02  0.51100000000E-03 0. -1.
         11   -1    0    0    0    0 -0.00000000000E+00 -0.00000000000E+00 -0.45593999997E+02  0.45594000000E+02  0.51100000000E-03 0.  1.
    9900012    2    1    2    0    0 -0.39811795690E+02 -0.20795212703E+02  0.34195415237E+01  0.46142320832E+02  0.10000028006E+02 0.  0.
         12    1    1    2    0    0  0.39811795690E+02  0.20795212703E+02 -0.34195415237E+01  0.45045679168E+02  0.00000000000E+00 0. -1.
         11    1    3    3    0    0 -0.25417911213E+02 -0.10245173750E+02 -0.85054014500E+00  0.27418191305E+02  0.51100000000E-03 0. -1.
        -11    1    3    3    0    0 -0.94238447415E+01 -0.76365314070E+01  0.11803304899E+01  0.12186822472E+02  0.51100000000E-03 0.  1.
        -12    1    3    3    0    0 -0.49700397356E+01 -0.29135075456E+01  0.30897511788E+01  0.65373070556E+01  0.00000000000E+00 0.  1.
</event>
<event>
 7    1  0.1466590E-008  0.4614232E+02  0.7816164E-02  0.1320468E+00
        -11   -1    0    0    0    0  0.00000000000E+00  0.00000000000E+00  0.45593999997E+02  0.45594000000E+02  0.51100000000E-03 0.  1.
         11   -1    0    0    0    0 -0.00000000000E+00 -0.00000000000E+00 -0.45593999997E+02  0.45594000000E+02  0.51100000000E-03 0. -1.
    9900012    2    1    2    0    0  0.43251665468E+02 -0.12356687636E+02  0.23914021766E+01  0.46142322078E+02  0.10000039366E+02 0.  0.
         12    1    1    2    0    0 -0.43251665468E+02  0.12356687636E+02 -0.23914021766E+01  0.45045677922E+02  0.00000000000E+00 0. -1.
         11    1    3    3    0    0  0.22780812246E+01 -0.24078675636E+01 -0.89004395200E+00  0.34321507495E+01  0.51100000000E-03 0. -1.
        -11    1    3    3    0    0  0.31189273416E+02 -0.88012808692E+01  0.47375772655E+01  0.32751762697E+02  0.51100000000E-03 0.  1.
        -12    1    3    3    0    0  0.97843108273E+01 -0.11475392027E+01 -0.14561311369E+01  0.99584086316E+01  0.00000000000E+00 0.  1.
</event>
<event>
 7    1  0.1466590E-008  0.4614232E+02  0.7816164E-02  0.1320468E+00
        -11   -1    0    0    0    0  0.00000000000E+00  0.00000000000E+00  0.45593999997E+02  0.45594000000E+02  0.51100000000E-03 0.  1.
         11   -1    0    0    0    0 -0.00000000000E+00 -0.00000000000E+00 -0.45593999997E+02  0.45594000000E+02  0.51100000000E-03 0. -1.
    9900012    2    1    2    0    0  0.30885379327E+02  0.64638045224E+01  0.32146944415E+02  0.46142318073E+02  0.10000002843E+02 0.  0.
         12    1    1    2    0    0 -0.30885379327E+02 -0.64638045224E+01 -0.32146944415E+02  0.45045681927E+02  0.00000000000E+00 0. -1.
         11    1    3    3    0    0  0.81796762242E+01 -0.11264755140E+01  0.11151224750E+02  0.13875368964E+02  0.51100000000E-03 0. -1.
        -11    1    3    3    0    0  0.19274016798E+02  0.75530847687E+01  0.19763658035E+02  0.28620604331E+02  0.51100000000E-03 0.  1.
         12    1    3    3    0    0  0.34316863043E+01  0.37195267681E-01  0.12320616302E+01  0.36463447780E+01  0.00000000000E+00 0. -1.
</event>
<event>
 7    1  0.1466590E-008  0.4614232E+02  0.7816164E-02  0.1320468E+00
        -11   -1    0    0    0    0  0.00000000000E+00  0.00000000000E+00  0.45593999997E+02  0.45594000000E+02  0.51100000000E-03 0.  1.
         11   -1    0    0    0    0 -0.00000000000E+00 -0.00000000000E+00 -0.45593999997E+02  0.45594000000E+02  0.51100000000E-03 0. -1.
    9900012    2    1    2    0    0 -0.15068642997E+02  0.41734124820E+02 -0.77661021335E+01  0.46142317425E+02  0.99999969393E+01 0.  0.
         12    1    1    2    0    0  0.15068642997E+02 -0.41734124820E+02  0.77661021335E+01  0.45045682575E+02  0.00000000000E+00 0. -1.
         11    1    3    3    0    0 -0.24594591703E+01  0.15771898326E+02 -0.34947913465E+01  0.16340602285E+02  0.51100000000E-03 0. -1.
        -11    1    3    3    0    0 -0.10419089941E+02  0.16144103020E+02 -0.10655441497E+01  0.19243827117E+02  0.51100000000E-03 0.  1.
         12    1    3    3    0    0 -0.21900938852E+01  0.98181234740E+01 -0.32057666373E+01  0.10557888023E+02  0.00000000000E+00 0. -1.
</event>
<event>
 7    1  0.1466590E-008  0.4614232E+02  0.7816164E-02  0.1320468E+00
        -11   -1    0    0    0    0  0.00000000000E+00  0.00000000000E+00  0.45593999997E+02  0.45594000000E+02  0.51100000000E-03 0.  1.
         11   -1    0    0    0    0 -0.00000000000E+00 -0.00000000000E+00 -0.45593999997E+02  0.45594000000E+02  0.51100000000E-03 0. -1.
    9900012    2    1    2    0    0 -0.27157522653E+02  0.12043345968E+02  0.33860601112E+02  0.46142317339E+02  0.99999961463E+01 0.  0.
         12    1    1    2    0    0  0.27157522653E+02 -0.12043345968E+02 -0.33860601112E+02  0.45045682661E+02  0.00000000000E+00 0. -1.
         11    1    3    3    0    0 -0.17923021500E+02  0.80787357451E+01  0.18459183701E+02  0.26967427280E+02  0.51100000000E-03 0. -1.
        -11    1    3    3    0    0 -0.71421851236E+01  0.38356068267E+01  0.76554435787E+01  0.11150269267E+02  0.51100000000E-03 0.  1.
         12    1    3    3    0    0 -0.20923160300E+01  0.12900339601E+00  0.77459738325E+01  0.80246207923E+01  0.00000000000E+00 0. -1.
</event>
<event>
 7    1  0.1466590E-008  0.4614232E+02  0.7816164E-02  0.1320468E+00
        -11   -1    0    0    0    0  0.00000000000E+00  0.00000000000E+00  0.45593999997E+02  0.45594000000E+02  0.51100000000E-03 0.  1.
         11   -1    0    0    0    0 -0.00000000000E+00 -0.00000000000E+00 -0.45593999997E+02  0.45594000000E+02  0.51100000000E-03 0. -1.
    9900012    2    1    2    0    0 -0.37898362212E+02  0.19953034044E+02  0.13953637172E+02  0.46142318562E+02  0.10000007302E+02 0.  0.
         12    1    1    2    0    0  0.37898362212E+02 -0.19953034044E+02 -0.13953637172E+02  0.45045681438E+02  0.00000000000E+00 0. -1.
         11    1    3    3    0    0 -0.64353762585E+01  0.29317425322E+01  0.59782576106E+01  0.92600618888E+01  0.51100000000E-03 0. -1.
        -11    1    3    3    0    0 -0.17137384103E+02  0.79285107743E+01  0.24679482128E+01  0.19043161125E+02  0.51100000000E-03 0.  1.
        -12    1    3    3    0    0 -0.14325601850E+02  0.90927807376E+01  0.55074313484E+01  0.17839095548E+02  0.00000000000E+00 0.  1.
</event>
<event>
 7    1  0.1466590E-008  0.4614232E+02  0.7816164E-02  0.1320468E+00
        -11   -1    0    0    0    0  0.00000000000E+00  0.00000000000E+00  0.45593999997E+02  0.45594000000E+02  0.51100000000E-03 0.  1.
         11   -1    0    0    0    0 -0.00000000000E+00 -0.00000000000E+00 -0.45593999997E+02  0.45594000000E+02  0.51100000000E-03 0. -1.
    9900012    2    1    2    0    0 -0.11417169888E+02 -0.21979048283E+01  0.43519317455E+02  0.46142317125E+02  0.99999942006E+01 0.  0.
         12    1    1    2    0    0  0.11417169888E+02  0.21979048283E+01 -0.43519317455E+02  0.45045682875E+02  0.00000000000E+00 0. -1.
         11    1    3    3    0    0 -0.15540443147E+01  0.21309059235E+01  0.17492105342E+02  0.17689815243E+02  0.51100000000E-03 0. -1.
        -11    1    3    3    0    0 -0.62857969953E+01 -0.47522096283E+01  0.17237600471E+02  0.18953353541E+02  0.51100000000E-03 0.  1.
         12    1    3    3    0    0 -0.35773285780E+01  0.42339887657E+00  0.87896116426E+01  0.94991483403E+01  0.00000000000E+00 0. -1.
</event>
<event>
 7    1  0.1466590E-008  0.4614232E+02  0.7816164E-02  0.1320468E+00
        -11   -1    0    0    0    0  0.00000000000E+00  0.00000000000E+00  0.45593999997E+02  0.45594000000E+02  0.51100000000E-03 0.  1.
         11   -1    0    0    0    0 -0.00000000000E+00 -0.00000000000E+00 -0.45593999997E+02  0.45594000000E+02  0.51100000000E-03 0. -1.
    9900012    2    1    2    0    0  0.41225479849E+02 -0.16705925902E+01  0.18077126600E+02  0.46142316805E+02  0.99999912793E+01 0.  0.
         12    1    1    2    0    0 -0.41225479849E+02  0.16705925902E+01 -0.18077126600E+02  0.45045683195E+02  0.00000000000E+00 0. -1.
         11    1    3    3    0    0  0.25357716811E+02 -0.33932662526E+01  0.10453276009E+02  0.27636914396E+02  0.51100000000E-03 0. -1.
        -11    1    3    3    0    0  0.11977493695E+02 -0.11361994237E+01  0.55968791636E+01  0.13269376812E+02  0.51100000000E-03 0.  1.
         12    1    3    3    0    0  0.38902693425E+01  0.28588730860E+01  0.20269714274E+01  0.52360255965E+01  0.00000000000E+00 0. -1.
</event>
<event>
 7    1  0.1466590E-008  0.4614232E+02  0.7816164E-02  0.1320468E+00
        -11   -1    0    0    0    0  0.00000000000E+00  0.00000000000E+00  0.45593999997E+02  0.45594000000E+02  0.51100000000E-03 0.  1.
         11   -1    0    0    0    0 -0.00000000000E+00 -0.00000000000E+00 -0.45593999997E+02  0.45594000000E+02  0.51100000000E-03 0. -1.
    9900012    2    1    2    0    0 -0.16664669991E+02  0.21160428886E+02  0.36105934303E+02  0.46142317982E+02  0.10000002018E+02 0.  0.
         12    1    1    2    0    0  0.16664669991E+02 -0.21160428886E+02 -0.36105934303E+02  0.45045682018E+02  0.00000000000E+00 0. -1.
         11    1    3    3    0    0 -0.11530112375E+01  0.43619244929E+00  0.15340024258E+00  0.12422683535E+01  0.51100000000E-03 0. -1.
        -11    1    3    3    0    0 -0.40950318812E+01  0.99355467301E+01  0.10729044074E+02  0.15185412801E+02  0.51100000000E-03 0.  1.
        -12    1    3    3    0    0 -0.11416626872E+02  0.10788689707E+02  0.25223489987E+02  0.29714636828E+02  0.00000000000E+00 0.  1.
</event>
<event>
 7    1  0.1466590E-008  0.4614232E+02  0.7816164E-02  0.1320468E+00
        -11   -1    0    0    0    0  0.00000000000E+00  0.00000000000E+00  0.45593999997E+02  0.45594000000E+02  0.51100000000E-03 0.  1.
         11   -1    0    0    0    0 -0.00000000000E+00 -0.00000000000E+00 -0.45593999997E+02  0.45594000000E+02  0.51100000000E-03 0. -1.
    9900012    2    1    2    0    0  0.14367170206E+02  0.18871488451E+02  0.38295755543E+02  0.46142317091E+02  0.99999938928E+01 0.  0.
         12    1    1    2    0    0 -0.14367170206E+02 -0.18871488451E+02 -0.38295755543E+02  0.45045682909E+02  0.00000000000E+00 0. -1.
         11    1    3    3    0    0  0.47775442992E+01  0.50902805885E+01  0.63494620550E+01  0.94367131274E+01  0.51100000000E-03 0. -1.
        -11    1    3    3    0    0  0.13919257658E+00  0.54021627157E+01  0.84591211274E+01  0.10037901528E+02  0.51100000000E-03 0.  1.
        -12    1    3    3    0    0  0.94504333302E+01  0.83790451470E+01  0.23487172361E+02  0.26667702436E+02  0.00000000000E+00 0.  1.
</event>
<event>
 7    1  0.1466590E-008  0.4614232E+02  0.7816164E-02  0.1320468E+00
        -11   -1    0    0    0    0  0.00000000000E+00  0.00000000000E+00  0.45593999997E+02  0.45594000000E+02  0.51100000000E-03 0. -1.
         11   -1    0    0    0    0 -0.00000000000E+00 -0.00000000000E+00 -0.45593999997E+02  0.45594000000E+02  0.51100000000E-03 0.  1.
    9900012    2    1    2    0    0 -0.33644074102E+02 -0.23606024533E+01 -0.29859961932E+02  0.46142317713E+02  0.99999995618E+01 0.  0.
         12    1    1    2    0    0  0.33644074102E+02  0.23606024533E+01  0.29859961932E+02  0.45045682287E+02  0.00000000000E+00 0. -1.
         11    1    3    3    0    0 -0.10736503847E+02 -0.72518958472E+00 -0.68481405308E+01  0.12755212416E+02  0.51100000000E-03 0. -1.
        -11    1    3    3    0    0 -0.57704810481E+01 -0.38024388773E+01 -0.69075044185E+01  0.97709063292E+01  0.51100000000E-03 0.  1.
         12    1    3    3    0    0 -0.17137089208E+02  0.21670260087E+01 -0.16104316982E+02  0.23616198968E+02  0.00000000000E+00 0. -1.
</event>
<event>
 7    1  0.1466590E-008  0.4614232E+02  0.7816164E-02  0.1320468E+00
        -11   -1    0    0    0    0  0.00000000000E+00  0.00000000000E+00  0.45593999997E+02  0.45594000000E+02  0.51100000000E-03 0.  1.
         11   -1    0    0    0    0 -0.00000000000E+00 -0.00000000000E+00 -0.45593999997E+02  0.45594000000E+02  0.51100000000E-03 0. -1.
    9900012    2    1    2    0    0  0.35525928939E+02  0.13956343029E+02  0.23921588276E+02  0.46142317372E+02  0.99999964559E+01 0.  0.
         12    1    1    2    0    0 -0.35525928939E+02 -0.13956343029E+02 -0.23921588276E+02  0.45045682628E+02  0.00000000000E+00 0. -1.
         11    1    3    3    0    0  0.17132220962E+02  0.42740309018E+01  0.78584615363E+01  0.19327073064E+02  0.51100000000E-03 0. -1.
        -11    1    3    3    0    0  0.17287515779E+02  0.71671682477E+01  0.13731964808E+02  0.23211922804E+02  0.51100000000E-03 0.  1.
         12    1    3    3    0    0  0.11061921979E+01  0.25151438794E+01  0.23311619318E+01  0.36033215045E+01  0.00000000000E+00 0. -1.
</event>
<event>
 7    1  0.1466590E-008  0.4614232E+02  0.7816164E-02  0.1320468E+00
        -11   -1    0    0    0    0  0.00000000000E+00  0.00000000000E+00  0.45593999997E+02  0.45594000000E+02  0.51100000000E-03 0.  1.
         11   -1    0    0    0    0 -0.00000000000E+00 -0.00000000000E+00 -0.45593999997E+02  0.45594000000E+02  0.51100000000E-03 0. -1.
    9900012    2    1    2    0    0  0.24221308410E+02  0.17591931933E+02  0.33659554111E+02  0.46142318373E+02  0.10000005581E+02 0.  0.
         12    1    1    2    0    0 -0.24221308410E+02 -0.17591931933E+02 -0.33659554111E+02  0.45045681627E+02  0.00000000000E+00 0. -1.
         11    1    3    3    0    0  0.89382370370E+01  0.10273832466E+02  0.15649890655E+02  0.20745187216E+02  0.51100000000E-03 0. -1.
        -11    1    3    3    0    0  0.12079092237E+02  0.57293234283E+01  0.10227111427E+02  0.16832213895E+02  0.51100000000E-03 0.  1.
        -12    1    3    3    0    0  0.32039791366E+01  0.15887760390E+01  0.77825520297E+01  0.85649172620E+01  0.00000000000E+00 0.  1.
</event>
<event>
 7    1  0.1466590E-008  0.4614232E+02  0.7816164E-02  0.1320468E+00
        -11   -1    0    0    0    0  0.00000000000E+00  0.00000000000E+00  0.45593999997E+02  0.45594000000E+02  0.51100000000E-03 0.  1.
         11   -1    0    0    0    0 -0.00000000000E+00 -0.00000000000E+00 -0.45593999997E+02  0.45594000000E+02  0.51100000000E-03 0. -1.
    9900012    2    1    2    0    0 -0.10075486752E+02  0.24871285159E+02  0.36180343869E+02  0.46142317174E+02  0.99999946485E+01 0.  0.
         12    1    1    2    0    0  0.10075486752E+02 -0.24871285159E+02 -0.36180343869E+02  0.45045682826E+02  0.00000000000E+00 0. -1.
         11    1    3    3    0    0 -0.46813649419E+01  0.11827136233E+02  0.23358259955E+02  0.26597079494E+02  0.51100000000E-03 0. -1.
        -11    1    3    3    0    0 -0.48703850076E+01  0.13168544022E+02  0.12811247711E+02  0.19006821669E+02  0.51100000000E-03 0.  1.
         12    1    3    3    0    0 -0.52373680246E+00 -0.12439509548E+00  0.10836202112E-01  0.53841601137E+00  0.00000000000E+00 0. -1.
</event>
<event>
 7    1  0.1466590E-008  0.4614232E+02  0.7816164E-02  0.1320468E+00
        -11   -1    0    0    0    0  0.00000000000E+00  0.00000000000E+00  0.45593999997E+02  0.45594000000E+02  0.51100000000E-03 0.  1.
         11   -1    0    0    0    0 -0.00000000000E+00 -0.00000000000E+00 -0.45593999997E+02  0.45594000000E+02  0.51100000000E-03 0. -1.
    9900012    2    1    2    0    0 -0.22019631938E+02 -0.22967392207E+02  0.31886489686E+02  0.46142317410E+02  0.99999967994E+01 0.  0.
         12    1    1    2    0    0  0.22019631938E+02  0.22967392207E+02 -0.31886489686E+02  0.45045682590E+02  0.00000000000E+00 0. -1.
         11    1    3    3    0    0  0.46831535562E+00 -0.24152729247E+01  0.21303718255E+01  0.32544349662E+01  0.51100000000E-03 0. -1.
        -11    1    3    3    0    0 -0.68254280440E+01 -0.67129034495E+01  0.12741713517E+02  0.15937402684E+02  0.51100000000E-03 0.  1.
         12    1    3    3    0    0 -0.15662519250E+02 -0.13839215833E+02  0.17014404344E+02  0.26950479760E+02  0.00000000000E+00 0. -1.
</event>
<event>
 7    1  0.1466590E-008  0.4614232E+02  0.7816164E-02  0.1320468E+00
        -11   -1    0    0    0    0  0.00000000000E+00  0.00000000000E+00  0.45593999997E+02  0.45594000000E+02  0.51100000000E-03 0.  1.
         11   -1    0    0    0    0 -0.00000000000E+00 -0.00000000000E+00 -0.45593999997E+02  0.45594000000E+02  0.51100000000E-03 0. -1.
    9900012    2    1    2    0    0 -0.44855439490E+02 -0.31248763591E+01  0.27089113653E+01  0.46142317578E+02  0.99999983300E+01 0.  0.
         12    1    1    2    0    0  0.44855439490E+02  0.31248763591E+01 -0.27089113653E+01  0.45045682422E+02  0.00000000000E+00 0. -1.
         11    1    3    3    0    0 -0.36745002249E+01 -0.23128696067E-01  0.31119394149E+01  0.48152522284E+01  0.51100000000E-03 0. -1.
        -11    1    3    3    0    0 -0.27585999886E+02 -0.17688977833E+01 -0.90873433374E+00  0.27657588243E+02  0.51100000000E-03 0.  1.
        -12    1    3    3    0    0 -0.13594939379E+02 -0.13328498798E+01  0.50570628406E+00  0.13669477106E+02  0.00000000000E+00 0.  1.
</event>
<event>
 7    1  0.1466590E-008  0.4614232E+02  0.7816164E-02  0.1320468E+00
        -11   -1    0    0    0    0  0.00000000000E+00  0.00000000000E+00  0.45593999997E+02  0.45594000000E+02  0.51100000000E-03 0.  1.
         11   -1    0    0    0    0 -0.00000000000E+00 -0.00000000000E+00 -0.45593999997E+02  0.45594000000E+02  0.51100000000E-03 0. -1.
    9900012    2    1    2    0    0 -0.36435300271E+01  0.14117083406E+02  0.42620959107E+02  0.46142317519E+02  0.99999977919E+01 0.  0.
         12    1    1    2    0    0  0.36435300271E+01 -0.14117083406E+02 -0.42620959107E+02  0.45045682481E+02  0.00000000000E+00 0. -1.
         11    1    3    3    0    0 -0.23121627473E+01  0.14110220545E+02  0.35307106576E+02  0.38092469012E+02  0.51100000000E-03 0. -1.
        -11    1    3    3    0    0 -0.73294550492E+00 -0.95888849076E+00  0.82420680932E+00  0.14615038065E+01  0.51100000000E-03 0.  1.
        -12    1    3    3    0    0 -0.59842177492E+00  0.96575135178E+00  0.64896457220E+01  0.65883447004E+01  0.00000000000E+00 0.  1.
</event>
<event>
 7    1  0.1466590E-008  0.4614232E+02  0.7816164E-02  0.1320468E+00
        -11   -1    0    0    0    0  0.00000000000E+00  0.00000000000E+00  0.45593999997E+02  0.45594000000E+02  0.51100000000E-03 0.  1.
         11   -1    0    0    0    0 -0.00000000000E+00 -0.00000000000E+00 -0.45593999997E+02  0.45594000000E+02  0.51100000000E-03 0. -1.
    9900012    2    1    2    0    0  0.18536459852E+02 -0.35996192335E+02  0.19743029077E+02  0.46142318702E+02  0.10000008583E+02 0.  0.
         12    1    1    2    0    0 -0.18536459852E+02  0.35996192335E+02 -0.19743029077E+02  0.45045681298E+02  0.00000000000E+00 0. -1.
         11    1    3    3    0    0  0.33041025911E+00 -0.45286117357E+01  0.67774900664E+00  0.45909518805E+01  0.51100000000E-03 0. -1.
        -11    1    3    3    0    0  0.15539510488E+02 -0.21141193479E+02  0.12992894664E+02  0.29278691226E+02  0.51100000000E-03 0.  1.
        -12    1    3    3    0    0  0.26665391054E+01 -0.10326387120E+02  0.60723854061E+01  0.12272675595E+02  0.00000000000E+00 0.  1.
</event>
<event>
 7    1  0.1466590E-008  0.4614232E+02  0.7816164E-02  0.1320468E+00
        -11   -1    0    0    0    0  0.00000000000E+00  0.00000000000E+00  0.45593999997E+02  0.45594000000E+02  0.51100000000E-03 0.  1.
         11   -1    0    0    0    0 -0.00000000000E+00 -0.00000000000E+00 -0.45593999997E+02  0.45594000000E+02  0.51100000000E-03 0. -1.
    9900012    2    1    2    0    0 -0.70824378268E+01 -0.36133508601E+02  0.25948451862E+02  0.46142317372E+02  0.99999964515E+01 0.  0.
         12    1    1    2    0    0  0.70824378268E+01  0.36133508601E+02 -0.25948451862E+02  0.45045682628E+02  0.00000000000E+00 0. -1.
         11    1    3    3    0    0 -0.58740081378E+01 -0.27252580937E+02  0.17397502440E+02  0.32861531168E+02  0.51100000000E-03 0. -1.
        -11    1    3    3    0    0 -0.23732833840E+01 -0.86326039890E+01  0.72819729518E+01  0.11540427028E+02  0.51100000000E-03 0.  1.
         12    1    3    3    0    0  0.11648536951E+01 -0.24832367520E+00  0.12689764704E+01  0.17403591759E+01  0.00000000000E+00 0. -1.
</event>
<event>
 7    1  0.1466590E-008  0.4614232E+02  0.7816164E-02  0.1320468E+00
        -11   -1    0    0    0    0  0.00000000000E+00  0.00000000000E+00  0.45593999997E+02  0.45594000000E+02  0.51100000000E-03 0.  1.
         11   -1    0    0    0    0 -0.00000000000E+00 -0.00000000000E+00 -0.45593999997E+02  0.45594000000E+02  0.51100000000E-03 0. -1.
    9900012    2    1    2    0    0 -0.16035893063E+02 -0.27359741548E+02  0.31990753057E+02  0.46142316466E+02  0.99999881879E+01 0.  0.
         12    1    1    2    0    0  0.16035893063E+02  0.27359741548E+02 -0.31990753057E+02  0.45045683534E+02  0.00000000000E+00 0. -1.
         11    1    3    3    0    0  0.73161397709E+00 -0.65501114704E+00 -0.73996198081E-01  0.98477119813E+00  0.51100000000E-03 0. -1.
        -11    1    3    3    0    0 -0.14391422242E+02 -0.22920420040E+02  0.29375964838E+02  0.39942533713E+02  0.51100000000E-03 0.  1.
         12    1    3    3    0    0 -0.23760847973E+01 -0.37843103616E+01  0.26887844170E+01  0.52150115549E+01  0.00000000000E+00 0. -1.
</event>
<event>
 7    1  0.1466590E-008  0.4614232E+02  0.7816164E-02  0.1320468E+00
        -11   -1    0    0    0    0  0.00000000000E+00  0.00000000000E+00  0.45593999997E+02  0.45594000000E+02  0.51100000000E-03 0.  1.
         11   -1    0    0    0    0 -0.00000000000E+00 -0.00000000000E+00 -0.45593999997E+02  0.45594000000E+02  0.51100000000E-03 0. -1.
    9900012    2    1    2    0    0 -0.14642617858E+02 -0.43598333730E+01  0.42375690821E+02  0.46142316774E+02  0.99999909943E+01 0.  0.
         12    1    1    2    0    0  0.14642617858E+02  0.43598333730E+01 -0.42375690821E+02  0.45045683226E+02  0.00000000000E+00 0. -1.
         11    1    3    3    0    0 -0.11604278858E+02 -0.68517681969E+01  0.35855628483E+02  0.38304465920E+02  0.51100000000E-03 0. -1.
        -11    1    3    3    0    0 -0.10397106981E+01 -0.65264571889E-01  0.10615544899E+01  0.14873318380E+01  0.51100000000E-03 0.  1.
         12    1    3    3    0    0 -0.19986283021E+01  0.25571993958E+01  0.54585078479E+01  0.63505190155E+01  0.00000000000E+00 0. -1.
</event>
<event>
 7    1  0.1466590E-008  0.4614232E+02  0.7816164E-02  0.1320468E+00
        -11   -1    0    0    0    0  0.00000000000E+00  0.00000000000E+00  0.45593999997E+02  0.45594000000E+02  0.51100000000E-03 0.  1.
         11   -1    0    0    0    0 -0.00000000000E+00 -0.00000000000E+00 -0.45593999997E+02  0.45594000000E+02  0.51100000000E-03 0. -1.
    9900012    2    1    2    0    0  0.30905386316E+02 -0.12096409236E+02  0.30457304870E+02  0.46142318302E+02  0.10000004934E+02 0.  0.
         12    1    1    2    0    0 -0.30905386316E+02  0.12096409236E+02 -0.30457304870E+02  0.45045681698E+02  0.00000000000E+00 0. -1.
         11    1    3    3    0    0  0.25147464550E+02 -0.94511111385E+01  0.21028628033E+02  0.34116296286E+02  0.51100000000E-03 0. -1.
        -11    1    3    3    0    0  0.28867959056E+01 -0.23226759657E+01  0.79707096922E+01  0.87898024722E+01  0.51100000000E-03 0.  1.
        -12    1    3    3    0    0  0.28711258602E+01 -0.32262213131E+00  0.14579671440E+01  0.32362195441E+01  0.00000000000E+00 0.  1.
</event>
<event>
 7    1  0.1466590E-008  0.4614232E+02  0.7816164E-02  0.1320468E+00
        -11   -1    0    0    0    0  0.00000000000E+00  0.00000000000E+00  0.45593999997E+02  0.45594000000E+02  0.51100000000E-03 0. -1.
         11   -1    0    0    0    0 -0.00000000000E+00 -0.00000000000E+00 -0.45593999997E+02  0.45594000000E+02  0.51100000000E-03 0.  1.
    9900012    2    1    2    0    0 -0.28542963337E+02 -0.28527886921E+02 -0.20014288733E+02  0.46142324939E+02  0.10000065456E+02 0.  0.
         12    1    1    2    0    0  0.28542963337E+02  0.28527886921E+02  0.20014288733E+02  0.45045675061E+02  0.00000000000E+00 0. -1.
         11    1    3    3    0    0  0.70062927598E-01 -0.91075552275E+00 -0.14881028633E+01  0.17460913003E+01  0.51100000000E-03 0. -1.
        -11    1    3    3    0    0 -0.16517616007E+02 -0.12167395646E+02 -0.72084068057E+01  0.21744845005E+02  0.51100000000E-03 0.  1.
         12    1    3    3    0    0 -0.12095410257E+02 -0.15449735752E+02 -0.11317779064E+02  0.22651388634E+02  0.00000000000E+00 0. -1.
</event>
<event>
 7    1  0.1466590E-008  0.4614232E+02  0.7816164E-02  0.1320468E+00
        -11   -1    0    0    0    0  0.00000000000E+00  0.00000000000E+00  0.45593999997E+02  0.45594000000E+02  0.51100000000E-03 0.  1.
         11   -1    0    0    0    0 -0.00000000000E+00 -0.00000000000E+00 -0.45593999997E+02  0.45594000000E+02  0.51100000000E-03 0. -1.
    9900012    2    1    2    0    0 -0.34575928918E+02  0.11238914980E+02  0.26595213923E+02  0.46142317920E+02  0.10000001446E+02 0.  0.
         12    1    1    2    0    0  0.34575928918E+02 -0.11238914980E+02 -0.26595213923E+02  0.45045682080E+02  0.00000000000E+00 0. -1.
         11    1    3    3    0    0 -0.16781463181E+02  0.62940545411E+01  0.10057667749E+02  0.20552112054E+02  0.51100000000E-03 0. -1.
        -11    1    3    3    0    0 -0.21538196022E+01  0.30309566335E+01  0.24429680524E+01  0.44490145155E+01  0.51100000000E-03 0.  1.
         12    1    3    3    0    0 -0.15640646134E+02  0.19139038054E+01  0.14094578121E+02  0.21141191350E+02  0.00000000000E+00 0. -1.
</event>
<event>
 7    1  0.1466590E-008  0.4614232E+02  0.7816164E-02  0.1320468E+00
        -11   -1    0    0    0    0  0.00000000000E+00  0.00000000000E+00  0.45593999997E+02  0.45594000000E+02  0.51100000000E-03 0. -1.
         11   -1    0    0    0    0 -0.00000000000E+00 -0.00000000000E+00 -0.45593999997E+02  0.45594000000E+02  0.51100000000E-03 0.  1.
    9900012    2    1    2    0    0 -0.24054353329E+02 -0.31181029037E+02 -0.21868813273E+02  0.46142317856E+02  0.10000000865E+02 0.  0.
         12    1    1    2    0    0  0.24054353329E+02  0.31181029037E+02  0.21868813273E+02  0.45045682144E+02  0.00000000000E+00 0. -1.
         11    1    3    3    0    0 -0.11773097161E+02 -0.95351724558E+01 -0.56537597017E+01  0.16170662619E+02  0.51100000000E-03 0. -1.
        -11    1    3    3    0    0 -0.40925529976E+01 -0.10720418483E+02 -0.62354955431E+01  0.13059776699E+02  0.51100000000E-03 0.  1.
        -12    1    3    3    0    0 -0.81887031699E+01 -0.10925438098E+02 -0.99795580282E+01  0.16911878537E+02  0.00000000000E+00 0.  1.
</event>
<event>
 7    1  0.1466590E-008  0.4614232E+02  0.7816164E-02  0.1320468E+00
        -11   -1    0    0    0    0  0.00000000000E+00  0.00000000000E+00  0.45593999997E+02  0.45594000000E+02  0.51100000000E-03 0.  1.
         11   -1    0    0    0    0 -0.00000000000E+00 -0.00000000000E+00 -0.45593999997E+02  0.45594000000E+02  0.51100000000E-03 0. -1.
    9900012    2    1    2    0    0  0.30843399900E+02 -0.48768274558E+01  0.32465594108E+02  0.46142316919E+02  0.99999923242E+01 0.  0.
         12    1    1    2    0    0 -0.30843399900E+02  0.48768274558E+01 -0.32465594108E+02  0.45045683081E+02  0.00000000000E+00 0. -1.
         11    1    3    3    0    0  0.11192870511E+02 -0.45937645122E-01  0.12040706915E+02  0.16439619333E+02  0.51100000000E-03 0. -1.
        -11    1    3    3    0    0  0.19350599676E+02 -0.58224833101E+01  0.20326526006E+02  0.28662077375E+02  0.51100000000E-03 0.  1.
         12    1    3    3    0    0  0.29992971255E+00  0.99159349938E+00  0.98361186950E-01  0.10406202110E+01  0.00000000000E+00 0. -1.
</event>
<event>
 7    1  0.1466590E-008  0.4614232E+02  0.7816164E-02  0.1320468E+00
        -11   -1    0    0    0    0  0.00000000000E+00  0.00000000000E+00  0.45593999997E+02  0.45594000000E+02  0.51100000000E-03 0.  1.
         11   -1    0    0    0    0 -0.00000000000E+00 -0.00000000000E+00 -0.45593999997E+02  0.45594000000E+02  0.51100000000E-03 0. -1.
    9900012    2    1    2    0    0  0.28495225858E+02  0.29220014368E+02  0.19061123200E+02  0.46142317032E+02  0.99999933526E+01 0.  0.
         12    1    1    2    0    0 -0.28495225858E+02 -0.29220014368E+02 -0.19061123200E+02  0.45045682968E+02  0.00000000000E+00 0. -1.
         11    1    3    3    0    0  0.82561017357E+01  0.85448406337E+01  0.87671309095E+01  0.14766181022E+02  0.51100000000E-03 0. -1.
        -11    1    3    3    0    0  0.14680456433E+02  0.18589168940E+02  0.78246239539E+01  0.24945896320E+02  0.51100000000E-03 0.  1.
         12    1    3    3    0    0  0.55586676894E+01  0.20860047950E+01  0.24693683367E+01  0.64302396898E+01  0.00000000000E+00 0. -1.
</event>
<event>
 7    1  0.1466590E-008  0.4614232E+02  0.7816164E-02  0.1320468E+00
        -11   -1    0    0    0    0  0.00000000000E+00  0.00000000000E+00  0.45593999997E+02  0.45594000000E+02  0.51100000000E-03 0. -1.
         11   -1    0    0    0    0 -0.00000000000E+00 -0.00000000000E+00 -0.45593999997E+02  0.45594000000E+02  0.51100000000E-03 0.  1.
    9900012    2    1    2    0    0  0.26195438977E+02 -0.66864480057E+01 -0.36030596496E+02  0.46142317699E+02  0.99999994298E+01 0.  0.
         12    1    1    2    0    0 -0.26195438977E+02  0.66864480057E+01  0.36030596496E+02  0.45045682301E+02  0.00000000000E+00 0. -1.
         11    1    3    3    0    0  0.12379035158E+02  0.56376715068E+00 -0.13015300174E+02  0.17970987278E+02  0.51100000000E-03 0. -1.
        -11    1    3    3    0    0  0.28026039552E+01 -0.21177145941E+01 -0.24436854044E+01  0.42791240516E+01  0.51100000000E-03 0.  1.
         12    1    3    3    0    0  0.11013799864E+02 -0.51325005623E+01 -0.20571610917E+02  0.23892206369E+02  0.00000000000E+00 0. -1.
</event>
<event>
 7    1  0.1466590E-008  0.4614232E+02  0.7816164E-02  0.1320468E+00
        -11   -1    0    0    0    0  0.00000000000E+00  0.00000000000E+00  0.45593999997E+02  0.45594000000E+02  0.51100000000E-03 0.  1.
         11   -1    0    0    0    0 -0.00000000000E+00 -0.00000000000E+00 -0.45593999997E+02  0.45594000000E+02  0.51100000000E-03 0. -1.
    9900012    2    1    2    0    0  0.42099207118E+01 -0.27546671019E+02  0.35391679093E+02  0.46142318013E+02  0.10000002300E+02 0.  0.
         12    1    1    2    0    0 -0.42099207118E+01  0.27546671019E+02 -0.35391679093E+02  0.45045681987E+02  0.00000000000E+00 0. -1.
         11    1    3    3    0    0 -0.20533257602E+00 -0.34263929727E+01  0.12955921667E+01  0.36689085017E+01  0.51100000000E-03 0. -1.
        -11    1    3    3    0    0 -0.13289800068E+01 -0.42036317081E+01  0.81287711199E+01  0.92473578700E+01  0.51100000000E-03 0.  1.
        -12    1    3    3    0    0  0.57442332946E+01 -0.19916646338E+02  0.25967315807E+02  0.33226051642E+02  0.00000000000E+00 0.  1.
</event>
<event>
 7    1  0.1466590E-008  0.4614232E+02  0.7816164E-02  0.1320468E+00
        -11   -1    0    0    0    0  0.00000000000E+00  0.00000000000E+00  0.45593999997E+02  0.45594000000E+02  0.51100000000E-03 0.  1.
         11   -1    0    0    0    0 -0.00000000000E+00 -0.00000000000E+00 -0.45593999997E+02  0.45594000000E+02  0.51100000000E-03 0. -1.
    9900012    2    1    2    0    0 -0.39210993936E+02 -0.73768614560E+00  0.22160035411E+02  0.46142318790E+02  0.10000009378E+02 0.  0.
         12    1    1    2    0    0  0.39210993936E+02  0.73768614560E+00 -0.22160035411E+02  0.45045681210E+02  0.00000000000E+00 0. -1.
         11    1    3    3    0    0 -0.17843168217E+02  0.32087409357E+01  0.10211218363E+02  0.20807298026E+02  0.51100000000E-03 0. -1.
        -11    1    3    3    0    0 -0.91445903013E+01 -0.35767306233E+01  0.73689141440E+01  0.12276702719E+02  0.51100000000E-03 0.  1.
        -12    1    3    3    0    0 -0.12223235418E+02 -0.36969645796E+00  0.45799029042E+01  0.13058318045E+02  0.00000000000E+00 0.  1.
</event>
<event>
 7    1  0.1466590E-008  0.4614232E+02  0.7816164E-02  0.1320468E+00
        -11   -1    0    0    0    0  0.00000000000E+00  0.00000000000E+00  0.45593999997E+02  0.45594000000E+02  0.51100000000E-03 0. -1.
         11   -1    0    0    0    0 -0.00000000000E+00 -0.00000000000E+00 -0.45593999997E+02  0.45594000000E+02  0.51100000000E-03 0.  1.
    9900012    2    1    2    0    0 -0.67300224006E+01 -0.12329665871E+02 -0.42799528861E+02  0.46142317268E+02  0.99999955073E+01 0.  0.
         12    1    1    2    0    0  0.67300224006E+01  0.12329665871E+02  0.42799528861E+02  0.45045682732E+02  0.00000000000E+00 0. -1.
         11    1    3    3    0    0 -0.77444668755E+01 -0.71709765188E+01 -0.25341215295E+02  0.27451354507E+02  0.51100000000E-03 0. -1.
        -11    1    3    3    0    0 -0.11030076622E+00  0.63917983517E+00 -0.88839047981E+00  0.10999795573E+01  0.51100000000E-03 0.  1.
        -12    1    3    3    0    0  0.11247452411E+01 -0.57978691873E+01 -0.16569923087E+02  0.17590983204E+02  0.00000000000E+00 0.  1.
</event>
<event>
 7    1  0.1466590E-008  0.4614232E+02  0.7816164E-02  0.1320468E+00
        -11   -1    0    0    0    0  0.00000000000E+00  0.00000000000E+00  0.45593999997E+02  0.45594000000E+02  0.51100000000E-03 0.  1.
         11   -1    0    0    0    0 -0.00000000000E+00 -0.00000000000E+00 -0.45593999997E+02  0.45594000000E+02  0.51100000000E-03 0. -1.
    9900012    2    1    2    0    0  0.38689128382E+02  0.10964143302E+01  0.23044799935E+02  0.46142316707E+02  0.99999903866E+01 0.  0.
         12    1    1    2    0    0 -0.38689128382E+02 -0.10964143302E+01 -0.23044799935E+02  0.45045683293E+02  0.00000000000E+00 0. -1.
         11    1    3    3    0    0  0.82395373413E+01  0.42290078260E+01  0.52325301252E+01  0.10637380061E+02  0.51100000000E-03 0. -1.
        -11    1    3    3    0    0  0.14753358087E+02 -0.11419669348E+01  0.99979857297E+01  0.17858482081E+02  0.51100000000E-03 0.  1.
         12    1    3    3    0    0  0.15696232953E+02 -0.19906265610E+01  0.78142840799E+01  0.17646454565E+02  0.00000000000E+00 0. -1.
</event>
<event>
 7    1  0.1466590E-008  0.4614232E+02  0.7816164E-02  0.1320468E+00
        -11   -1    0    0    0    0  0.00000000000E+00  0.00000000000E+00  0.45593999997E+02  0.45594000000E+02  0.51100000000E-03 0.  1.
         11   -1    0    0    0    0 -0.00000000000E+00 -0.00000000000E+00 -0.45593999997E+02  0.45594000000E+02  0.51100000000E-03 0. -1.
    9900012    2    1    2    0    0 -0.62449648463E+01  0.11837472435E+02  0.43011488026E+02  0.46142318278E+02  0.10000004711E+02 0.  0.
         12    1    1    2    0    0  0.62449648463E+01 -0.11837472435E+02 -0.43011488026E+02  0.45045681722E+02  0.00000000000E+00 0. -1.
         11    1    3    3    0    0 -0.18302058610E+00 -0.42916318306E+00  0.81613167369E-01  0.47364389877E+00  0.51100000000E-03 0. -1.
        -11    1    3    3    0    0 -0.29984599772E+01  0.11710834378E+02  0.37606104760E+02  0.39501310353E+02  0.51100000000E-03 0.  1.
        -12    1    3    3    0    0 -0.30634842830E+01  0.55580123985E+00  0.53237700988E+01  0.61673640265E+01  0.00000000000E+00 0.  1.
</event>
<event>
 7    1  0.1466590E-008  0.4614232E+02  0.7816164E-02  0.1320468E+00
        -11   -1    0    0    0    0  0.00000000000E+00  0.00000000000E+00  0.45593999997E+02  0.45594000000E+02  0.51100000000E-03 0.  1.
         11   -1    0    0    0    0 -0.00000000000E+00 -0.00000000000E+00 -0.45593999997E+02  0.45594000000E+02  0.51100000000E-03 0. -1.
    9900012    2    1    2    0    0 -0.28805320831E+01  0.42138483819E+02  0.15657715495E+02  0.46142319428E+02  0.10000015203E+02 0.  0.
         12    1    1    2    0    0  0.28805320831E+01 -0.42138483819E+02 -0.15657715495E+02  0.45045680572E+02  0.00000000000E+00 0. -1.
         11    1    3    3    0    0  0.52709129789E+00  0.98667720402E+01  0.39477084395E+01  0.10640273395E+02  0.51100000000E-03 0. -1.
        -11    1    3    3    0    0 -0.60127299462E+01  0.26266276977E+02  0.99426195799E+01  0.28721523497E+02  0.51100000000E-03 0.  1.
         12    1    3    3    0    0  0.26051065651E+01  0.60054348022E+01  0.17673874752E+01  0.67805225364E+01  0.00000000000E+00 0. -1.
</event>
<event>
 7    1  0.1466590E-008  0.4614232E+02  0.7816164E-02  0.1320468E+00
        -11   -1    0    0    0    0  0.00000000000E+00  0.00000000000E+00  0.45593999997E+02  0.45594000000E+02  0.51100000000E-03 0.  1.
         11   -1    0    0    0    0 -0.00000000000E+00 -0.00000000000E+00 -0.45593999997E+02  0.45594000000E+02  0.51100000000E-03 0. -1.
    9900012    2    1    2    0    0  0.81200394082E+01 -0.31746958121E+02  0.30908075395E+02  0.46142317470E+02  0.99999973499E+01 0.  0.
         12    1    1    2    0    0 -0.81200394082E+01  0.31746958121E+02 -0.30908075395E+02  0.45045682530E+02  0.00000000000E+00 0. -1.
         11    1    3    3    0    0  0.68572661889E+00 -0.15096321734E+01  0.32731992949E+01  0.36692021176E+01  0.51100000000E-03 0. -1.
        -11    1    3    3    0    0  0.35854485294E+01 -0.36280165332E+01  0.65699643098E+01  0.83175943887E+01  0.51100000000E-03 0.  1.
        -12    1    3    3    0    0  0.38488642600E+01 -0.26609309414E+02  0.21064911790E+02  0.34155520964E+02  0.00000000000E+00 0.  1.
</event>
<event>
 7    1  0.1466590E-008  0.4614232E+02  0.7816164E-02  0.1320468E+00
        -11   -1    0    0    0    0  0.00000000000E+00  0.00000000000E+00  0.45593999997E+02  0.45594000000E+02  0.51100000000E-03 0.  1.
         11   -1    0    0    0    0 -0.00000000000E+00 -0.00000000000E+00 -0.45593999997E+02  0.45594000000E+02  0.51100000000E-03 0. -1.
    9900012    2    1    2    0    0  0.21086720934E+02  0.39803162395E+02 -0.41480466252E+00  0.46142316530E+02  0.99999887722E+01 0.  0.
         12    1    1    2    0    0 -0.21086720934E+02 -0.39803162395E+02  0.41480466252E+00  0.45045683470E+02  0.00000000000E+00 0. -1.
         11    1    3    3    0    0  0.11632229419E+02  0.14945175950E+02  0.34437395280E+01  0.19249061993E+02  0.51100000000E-03 0. -1.
        -11    1    3    3    0    0  0.73802231827E+01  0.18365815087E+02 -0.31256024284E+01  0.20038469224E+02  0.51100000000E-03 0.  1.
         12    1    3    3    0    0  0.20742683331E+01  0.64921713579E+01 -0.73294176205E+00  0.68547853128E+01  0.00000000000E+00 0. -1.
</event>
<event>
 7    1  0.1466590E-008  0.4614232E+02  0.7816164E-02  0.1320468E+00
        -11   -1    0    0    0    0  0.00000000000E+00  0.00000000000E+00  0.45593999997E+02  0.45594000000E+02  0.51100000000E-03 0.  1.
         11   -1    0    0    0    0 -0.00000000000E+00 -0.00000000000E+00 -0.45593999997E+02  0.45594000000E+02  0.51100000000E-03 0. -1.
    9900012    2    1    2    0    0 -0.26793021628E+02  0.16417126679E+02  0.32275770001E+02  0.46142318902E+02  0.10000010407E+02 0.  0.
         12    1    1    2    0    0  0.26793021628E+02 -0.16417126679E+02 -0.32275770001E+02  0.45045681098E+02  0.00000000000E+00 0. -1.
         11    1    3    3    0    0 -0.51761965143E+01  0.82398898215E+01  0.80648853757E+01  0.12638479774E+02  0.51100000000E-03 0.  1.
        -11    1    3    3    0    0 -0.18096146858E+02  0.64269563615E+01  0.20649849468E+02  0.28199159252E+02  0.51100000000E-03 0. -1.
        -12    1    3    3    0    0 -0.35206782559E+01  0.17502804961E+01  0.35610351573E+01  0.53046798761E+01  0.00000000000E+00 0.  1.
</event>
<event>
 7    1  0.1466590E-008  0.4614232E+02  0.7816164E-02  0.1320468E+00
        -11   -1    0    0    0    0  0.00000000000E+00  0.00000000000E+00  0.45593999997E+02  0.45594000000E+02  0.51100000000E-03 0. -1.
         11   -1    0    0    0    0 -0.00000000000E+00 -0.00000000000E+00 -0.45593999997E+02  0.45594000000E+02  0.51100000000E-03 0.  1.
    9900012    2    1    2    0    0 -0.35085994143E+02  0.25915687018E+02 -0.11245607058E+02  0.46142317669E+02  0.99999991556E+01 0.  0.
         12    1    1    2    0    0  0.35085994143E+02 -0.25915687018E+02  0.11245607058E+02  0.45045682331E+02  0.00000000000E+00 0. -1.
         11    1    3    3    0    0 -0.31473444412E+02  0.25313950103E+02 -0.10828829601E+02  0.41816711059E+02  0.51100000000E-03 0. -1.
        -11    1    3    3    0    0 -0.33700700678E+01  0.37015180827E+00 -0.11001821584E+01  0.35643773181E+01  0.51100000000E-03 0.  1.
         12    1    3    3    0    0 -0.24247966248E+00  0.23158510732E+00  0.68340470140E+00  0.76122929170E+00  0.00000000000E+00 0. -1.
</event>
<event>
 7    1  0.1466590E-008  0.4614232E+02  0.7816164E-02  0.1320468E+00
        -11   -1    0    0    0    0  0.00000000000E+00  0.00000000000E+00  0.45593999997E+02  0.45594000000E+02  0.51100000000E-03 0.  1.
         11   -1    0    0    0    0 -0.00000000000E+00 -0.00000000000E+00 -0.45593999997E+02  0.45594000000E+02  0.51100000000E-03 0. -1.
    9900012    2    1    2    0    0  0.22730671086E+02  0.38887838437E+02 -0.40759310324E+00  0.46142317427E+02  0.99999969494E+01 0.  0.
         12    1    1    2    0    0 -0.22730671086E+02 -0.38887838437E+02  0.40759310324E+00  0.45045682573E+02  0.00000000000E+00 0. -1.
         11    1    3    3    0    0  0.11079632968E+02  0.14310516223E+02 -0.44420769066E+01  0.18635481984E+02  0.51100000000E-03 0. -1.
        -11    1    3    3    0    0  0.56275999316E+01  0.11733711561E+02  0.23026760500E+01  0.13215603854E+02  0.51100000000E-03 0.  1.
         12    1    3    3    0    0  0.60234381866E+01  0.12843610654E+02  0.17318077534E+01  0.14291231588E+02  0.00000000000E+00 0. -1.
</event>
<event>
 7    1  0.1466590E-008  0.4614232E+02  0.7816164E-02  0.1320468E+00
        -11   -1    0    0    0    0  0.00000000000E+00  0.00000000000E+00  0.45593999997E+02  0.45594000000E+02  0.51100000000E-03 0. -1.
         11   -1    0    0    0    0 -0.00000000000E+00 -0.00000000000E+00 -0.45593999997E+02  0.45594000000E+02  0.51100000000E-03 0.  1.
    9900012    2    1    2    0    0 -0.77589855417E+00  0.32504823973E+02 -0.31176079212E+02  0.46142317464E+02  0.99999972919E+01 0.  0.
         12    1    1    2    0    0  0.77589855417E+00 -0.32504823973E+02  0.31176079212E+02  0.45045682536E+02  0.00000000000E+00 0. -1.
         11    1    3    3    0    0  0.31481658871E+01  0.60039473725E+01 -0.40570649712E+01  0.79005132077E+01  0.51100000000E-03 0. -1.
        -11    1    3    3    0    0 -0.58905484600E+00  0.14101797011E+02 -0.14693128494E+02  0.20373897265E+02  0.51100000000E-03 0.  1.
         12    1    3    3    0    0 -0.33350095953E+01  0.12399079589E+02 -0.12425885747E+02  0.17867906992E+02  0.00000000000E+00 0. -1.
</event>
<event>
 7    1  0.1466590E-008  0.4614232E+02  0.7816164E-02  0.1320468E+00
        -11   -1    0    0    0    0  0.00000000000E+00  0.00000000000E+00  0.45593999997E+02  0.45594000000E+02  0.51100000000E-03 0. -1.
         11   -1    0    0    0    0 -0.00000000000E+00 -0.00000000000E+00 -0.45593999997E+02  0.45594000000E+02  0.51100000000E-03 0.  1.
    9900012    2    1    2    0    0  0.21906557109E+02 -0.29491314683E+02 -0.26066811379E+02  0.46142317171E+02  0.99999946167E+01 0.  0.
         12    1    1    2    0    0 -0.21906557109E+02  0.29491314683E+02  0.26066811379E+02  0.45045682829E+02  0.00000000000E+00 0. -1.
         11    1    3    3    0    0  0.20250544512E+00 -0.87276077025E+00 -0.16203175940E+01  0.18515261769E+01  0.51100000000E-03 0. -1.
        -11    1    3    3    0    0  0.35485156941E+01 -0.34356852763E+01 -0.27767032618E+00  0.49470191045E+01  0.51100000000E-03 0.  1.
        -12    1    3    3    0    0  0.18155535970E+02 -0.25182868637E+02 -0.24168823458E+02  0.39343771889E+02  0.00000000000E+00 0.  1.
</event>
<event>
 7    1  0.1466590E-008  0.4614232E+02  0.7816164E-02  0.1320468E+00
        -11   -1    0    0    0    0  0.00000000000E+00  0.00000000000E+00  0.45593999997E+02  0.45594000000E+02  0.51100000000E-03 0.  1.
         11   -1    0    0    0    0 -0.00000000000E+00 -0.00000000000E+00 -0.45593999997E+02  0.45594000000E+02  0.51100000000E-03 0. -1.
    9900012    2    1    2    0    0 -0.18166848421E+02 -0.27079980853E+02  0.31076578119E+02  0.46142318163E+02  0.10000003668E+02 0.  0.
         12    1    1    2    0    0  0.18166848421E+02  0.27079980853E+02 -0.31076578119E+02  0.45045681837E+02  0.00000000000E+00 0. -1.
         11    1    3    3    0    0 -0.95140969694E+00 -0.76998276014E+01  0.49243735953E+01  0.91892317998E+01  0.51100000000E-03 0. -1.
        -11    1    3    3    0    0 -0.14954756921E+02 -0.18200149504E+02  0.23697821612E+02  0.33413723917E+02  0.51100000000E-03 0.  1.
         12    1    3    3    0    0 -0.22606818024E+01 -0.11800037477E+01  0.24543829113E+01  0.35393624470E+01  0.00000000000E+00 0. -1.
</event>
<event>
 7    1  0.1466590E-008  0.4614232E+02  0.7816164E-02  0.1320468E+00
        -11   -1    0    0    0    0  0.00000000000E+00  0.00000000000E+00  0.45593999997E+02  0.45594000000E+02  0.51100000000E-03 0.  1.
         11   -1    0    0    0    0 -0.00000000000E+00 -0.00000000000E+00 -0.45593999997E+02  0.45594000000E+02  0.51100000000E-03 0. -1.
    9900012    2    1    2    0    0 -0.74324675198E+01  0.35959975133E+02  0.26091227672E+02  0.46142317117E+02  0.99999941225E+01 0.  0.
         12    1    1    2    0    0  0.74324675198E+01 -0.35959975133E+02 -0.26091227672E+02  0.45045682883E+02  0.00000000000E+00 0. -1.
         11    1    3    3    0    0 -0.64104331789E+00  0.90257005363E+01  0.80446044880E+01  0.12107430295E+02  0.51100000000E-03 0. -1.
        -11    1    3    3    0    0 -0.39143767462E+01  0.14615854985E+02  0.14355889031E+02  0.20857543297E+02  0.51100000000E-03 0.  1.
        -12    1    3    3    0    0 -0.28770474557E+01  0.12318419612E+02  0.36907341534E+01  0.13177343525E+02  0.00000000000E+00 0.  1.
</event>
<event>
 7    1  0.1466590E-008  0.4614232E+02  0.7816164E-02  0.1320468E+00
        -11   -1    0    0    0    0  0.00000000000E+00  0.00000000000E+00  0.45593999997E+02  0.45594000000E+02  0.51100000000E-03 0. -1.
         11   -1    0    0    0    0 -0.00000000000E+00 -0.00000000000E+00 -0.45593999997E+02  0.45594000000E+02  0.51100000000E-03 0.  1.
    9900012    2    1    2    0    0  0.62595208669E+00 -0.15651100696E+02 -0.42234638711E+02  0.46142317897E+02  0.10000001243E+02 0.  0.
         12    1    1    2    0    0 -0.62595208669E+00  0.15651100696E+02  0.42234638711E+02  0.45045682103E+02  0.00000000000E+00 0. -1.
         11    1    3    3    0    0  0.50174754136E+01 -0.51405863692E+01 -0.15717736943E+02  0.17281433465E+02  0.51100000000E-03 0. -1.
        -11    1    3    3    0    0 -0.41078909874E+01 -0.98091087062E+01 -0.24614755690E+02  0.26813794583E+02  0.51100000000E-03 0.  1.
         12    1    3    3    0    0 -0.28363233954E+00 -0.70140562112E+00 -0.19021460781E+01  0.20470898494E+01  0.00000000000E+00 0. -1.
</event>
<event>
 7    1  0.1466590E-008  0.4614232E+02  0.7816164E-02  0.1320468E+00
        -11   -1    0    0    0    0  0.00000000000E+00  0.00000000000E+00  0.45593999997E+02  0.45594000000E+02  0.51100000000E-03 0.  1.
         11   -1    0    0    0    0 -0.00000000000E+00 -0.00000000000E+00 -0.45593999997E+02  0.45594000000E+02  0.51100000000E-03 0. -1.
    9900012    2    1    2    0    0 -0.17050295416E+02  0.25127209334E+02  0.33271973719E+02  0.46142318100E+02  0.10000003090E+02 0.  0.
         12    1    1    2    0    0  0.17050295416E+02 -0.25127209334E+02 -0.33271973719E+02  0.45045681900E+02  0.00000000000E+00 0. -1.
         11    1    3    3    0    0 -0.77641226319E+01  0.73548568347E+01  0.16048559072E+02  0.19285532605E+02  0.51100000000E-03 0. -1.
        -11    1    3    3    0    0 -0.60386052250E+01  0.14215083626E+02  0.15076721662E+02  0.21583347560E+02  0.51100000000E-03 0.  1.
         12    1    3    3    0    0 -0.32475675586E+01  0.35572688726E+01  0.21466929849E+01  0.52734379347E+01  0.00000000000E+00 0. -1.
</event>
<event>
 7    1  0.1466590E-008  0.4614232E+02  0.7816164E-02  0.1320468E+00
        -11   -1    0    0    0    0  0.00000000000E+00  0.00000000000E+00  0.45593999997E+02  0.45594000000E+02  0.51100000000E-03 0.  1.
         11   -1    0    0    0    0 -0.00000000000E+00 -0.00000000000E+00 -0.45593999997E+02  0.45594000000E+02  0.51100000000E-03 0. -1.
    9900012    2    1    2    0    0  0.18540840717E+02 -0.35690825892E+02  0.20285844098E+02  0.46142319873E+02  0.10000019260E+02 0.  0.
         12    1    1    2    0    0 -0.18540840717E+02  0.35690825892E+02 -0.20285844098E+02  0.45045680127E+02  0.00000000000E+00 0. -1.
         11    1    3    3    0    0  0.52457729495E+01 -0.18533913420E+02  0.11723624207E+02  0.22549222720E+02  0.51100000000E-03 0. -1.
        -11    1    3    3    0    0  0.69115488420E+01 -0.11172259593E+02  0.40462949500E+01  0.13746322959E+02  0.51100000000E-03 0.  1.
         12    1    3    3    0    0  0.63835189253E+01 -0.59846528787E+01  0.45159249415E+01  0.98467741939E+01  0.00000000000E+00 0. -1.
</event>
<event>
 7    1  0.1466590E-008  0.4614232E+02  0.7816164E-02  0.1320468E+00
        -11   -1    0    0    0    0  0.00000000000E+00  0.00000000000E+00  0.45593999997E+02  0.45594000000E+02  0.51100000000E-03 0.  1.
         11   -1    0    0    0    0 -0.00000000000E+00 -0.00000000000E+00 -0.45593999997E+02  0.45594000000E+02  0.51100000000E-03 0. -1.
    9900012    2    1    2    0    0  0.31905152097E+02 -0.84985348833E+01 -0.30642286023E+02  0.46142317430E+02  0.99999969832E+01 0.  0.
         12    1    1    2    0    0 -0.31905152097E+02  0.84985348833E+01  0.30642286023E+02  0.45045682570E+02  0.00000000000E+00 0. -1.
         11    1    3    3    0    0  0.64447192100E+01 -0.12657716725E+01 -0.10579830062E+02  0.12452685977E+02  0.51100000000E-03 0. -1.
        -11    1    3    3    0    0  0.22355950215E+02 -0.47305021045E+01 -0.18522880985E+02  0.29415357901E+02  0.51100000000E-03 0.  1.
        -12    1    3    3    0    0  0.31044826715E+01 -0.25022611063E+01 -0.15395749758E+01  0.42742735532E+01  0.00000000000E+00 0.  1.
</event>
<event>
 7    1  0.1466590E-008  0.4614232E+02  0.7816164E-02  0.1320468E+00
        -11   -1    0    0    0    0  0.00000000000E+00  0.00000000000E+00  0.45593999997E+02  0.45594000000E+02  0.51100000000E-03 0. -1.
         11   -1    0    0    0    0 -0.00000000000E+00 -0.00000000000E+00 -0.45593999997E+02  0.45594000000E+02  0.51100000000E-03 0.  1.
    9900012    2    1    2    0    0  0.28973785763E+02  0.28848590991E+02 -0.18904819713E+02  0.46142315723E+02  0.99999814107E+01 0.  0.
         12    1    1    2    0    0 -0.28973785763E+02 -0.28848590991E+02  0.18904819713E+02  0.45045684277E+02  0.00000000000E+00 0. -1.
         11    1    3    3    0    0 -0.67555416893E+00  0.98633792985E+00  0.14274852778E+00  0.12039988996E+01  0.51100000000E-03 0. -1.
        -11    1    3    3    0    0  0.23108571469E+02  0.21151225797E+02 -0.14914897589E+02  0.34696319666E+02  0.51100000000E-03 0.  1.
         12    1    3    3    0    0  0.65407684629E+01  0.67110272647E+01 -0.41326706525E+01  0.10241997157E+02  0.00000000000E+00 0. -1.
</event>
<event>
 7    1  0.1466590E-008  0.4614232E+02  0.7816164E-02  0.1320468E+00
        -11   -1    0    0    0    0  0.00000000000E+00  0.00000000000E+00  0.45593999997E+02  0.45594000000E+02  0.51100000000E-03 0. -1.
         11   -1    0    0    0    0 -0.00000000000E+00 -0.00000000000E+00 -0.45593999997E+02  0.45594000000E+02  0.51100000000E-03 0.  1.
    9900012    2    1    2    0    0  0.12595077645E+02  0.39953273686E+02 -0.16559390360E+02  0.46142317985E+02  0.10000002041E+02 0.  0.
         12    1    1    2    0    0 -0.12595077645E+02 -0.39953273686E+02  0.16559390360E+02  0.45045682015E+02  0.00000000000E+00 0. -1.
         11    1    3    3    0    0  0.18408515022E+01  0.18938133760E+02 -0.48683033380E+01  0.19640316245E+02  0.51100000000E-03 0. -1.
        -11    1    3    3    0    0  0.93096475256E+01  0.19656446174E+02 -0.11176363021E+02  0.24453149160E+02  0.51100000000E-03 0.  1.
        -12    1    3    3    0    0  0.14445786173E+01  0.13586937523E+01 -0.51472400099E+00  0.20488525792E+01  0.00000000000E+00 0.  1.
</event>
<event>
 7    1  0.1466590E-008  0.4614232E+02  0.7816164E-02  0.1320468E+00
        -11   -1    0    0    0    0  0.00000000000E+00  0.00000000000E+00  0.45593999997E+02  0.45594000000E+02  0.51100000000E-03 0.  1.
         11   -1    0    0    0    0 -0.00000000000E+00 -0.00000000000E+00 -0.45593999997E+02  0.45594000000E+02  0.51100000000E-03 0. -1.
    9900012    2    1    2    0    0  0.29351248538E+02 -0.31879254740E+02  0.12301659297E+02  0.46142317687E+02  0.99999993279E+01 0.  0.
         12    1    1    2    0    0 -0.29351248538E+02  0.31879254740E+02 -0.12301659297E+02  0.45045682313E+02  0.00000000000E+00 0. -1.
         11    1    3    3    0    0  0.51563844047E+00 -0.13978519657E+01  0.83776043572E+00  0.17093027608E+01  0.51100000000E-03 0. -1.
        -11    1    3    3    0    0  0.17400355872E+02 -0.13110179291E+02  0.86732347487E+01  0.23449396299E+02  0.51100000000E-03 0.  1.
        -12    1    3    3    0    0  0.11435254226E+02 -0.17371223484E+02  0.27906641129E+01  0.20983618628E+02  0.00000000000E+00 0.  1.
</event>
<event>
 7    1  0.1466590E-008  0.4614232E+02  0.7816164E-02  0.1320468E+00
        -11   -1    0    0    0    0  0.00000000000E+00  0.00000000000E+00  0.45593999997E+02  0.45594000000E+02  0.51100000000E-03 0. -1.
         11   -1    0    0    0    0 -0.00000000000E+00 -0.00000000000E+00 -0.45593999997E+02  0.45594000000E+02  0.51100000000E-03 0.  1.
    9900012    2    1    2    0    0 -0.41009334382E+01 -0.20573820526E+02 -0.39862434591E+02  0.46142318324E+02  0.10000005134E+02 0.  0.
         12    1    1    2    0    0  0.41009334382E+01  0.20573820526E+02  0.39862434591E+02  0.45045681676E+02  0.00000000000E+00 0. -1.
         11    1    3    3    0    0 -0.49342221349E+00 -0.21540727054E+00  0.34352250786E+00  0.63864994128E+00  0.51100000000E-03 0. -1.
        -11    1    3    3    0    0  0.16916485994E+00 -0.10242695681E+02 -0.15998206893E+02  0.18996948587E+02  0.51100000000E-03 0.  1.
        -12    1    3    3    0    0 -0.37766760847E+01 -0.10115717574E+02 -0.24207750206E+02  0.26506719796E+02  0.00000000000E+00 0.  1.
</event>
<event>
 7    1  0.1466590E-008  0.4614232E+02  0.7816164E-02  0.1320468E+00
        -11   -1    0    0    0    0  0.00000000000E+00  0.00000000000E+00  0.45593999997E+02  0.45594000000E+02  0.51100000000E-03 0.  1.
         11   -1    0    0    0    0 -0.00000000000E+00 -0.00000000000E+00 -0.45593999997E+02  0.45594000000E+02  0.51100000000E-03 0. -1.
    9900012    2    1    2    0    0  0.13286083405E+02  0.19485606927E+02  0.38378436718E+02  0.46142319914E+02  0.10000019631E+02 0.  0.
         12    1    1    2    0    0 -0.13286083405E+02 -0.19485606927E+02 -0.38378436718E+02  0.45045680086E+02  0.00000000000E+00 0. -1.
         11    1    3    3    0    0  0.99906774452E+01  0.68349238410E+01  0.18052205477E+02  0.21735039512E+02  0.51100000000E-03 0. -1.
        -11    1    3    3    0    0  0.33347514731E+01  0.11017691117E+02  0.15464719658E+02  0.19278683547E+02  0.51100000000E-03 0.  1.
        -12    1    3    3    0    0 -0.39345513640E-01  0.16329919682E+01  0.48615115817E+01  0.51285968546E+01  0.00000000000E+00 0.  1.
</event>
<event>
 7    1  0.1466590E-008  0.4614232E+02  0.7816164E-02  0.1320468E+00
        -11   -1    0    0    0    0  0.00000000000E+00  0.00000000000E+00  0.45593999997E+02  0.45594000000E+02  0.51100000000E-03 0. -1.
         11   -1    0    0    0    0 -0.00000000000E+00 -0.00000000000E+00 -0.45593999997E+02  0.45594000000E+02  0.51100000000E-03 0.  1.
    9900012    2    1    2    0    0  0.38672978504E+02 -0.16323830553E+02 -0.16341564979E+02  0.46142318118E+02  0.10000003251E+02 0.  0.
         12    1    1    2    0    0 -0.38672978504E+02  0.16323830553E+02  0.16341564979E+02  0.45045681882E+02  0.00000000000E+00 0. -1.
         11    1    3    3    0    0  0.21605154218E+02 -0.52081703673E+01 -0.11430047193E+02  0.24991072536E+02  0.51100000000E-03 0. -1.
        -11    1    3    3    0    0  0.93255680418E+01 -0.75812249729E+01 -0.35536667947E+01  0.12532746680E+02  0.51100000000E-03 0.  1.
         12    1    3    3    0    0  0.77422562436E+01 -0.35344352125E+01 -0.13578509911E+01  0.86184989022E+01  0.00000000000E+00 0. -1.
</event>
<event>
 7    1  0.1466590E-008  0.4614232E+02  0.7816164E-02  0.1320468E+00
        -11   -1    0    0    0    0  0.00000000000E+00  0.00000000000E+00  0.45593999997E+02  0.45594000000E+02  0.51100000000E-03 0.  1.
         11   -1    0    0    0    0 -0.00000000000E+00 -0.00000000000E+00 -0.45593999997E+02  0.45594000000E+02  0.51100000000E-03 0. -1.
    9900012    2    1    2    0    0  0.37313772795E+02 -0.21259442271E+02  0.13595289004E+02  0.46142318642E+02  0.10000008032E+02 0.  0.
         12    1    1    2    0    0 -0.37313772795E+02  0.21259442271E+02 -0.13595289004E+02  0.45045681358E+02  0.00000000000E+00 0. -1.
         11    1    3    3    0    0  0.19952144048E+02 -0.97380948255E+01  0.23666429873E+01  0.22327551192E+02  0.51100000000E-03 0. -1.
        -11    1    3    3    0    0  0.11561503504E+02 -0.74540943716E+01  0.59879893853E+01  0.15002929825E+02  0.51100000000E-03 0.  1.
         12    1    3    3    0    0  0.58001252431E+01 -0.40672530738E+01  0.52406566317E+01  0.88118376253E+01  0.00000000000E+00 0. -1.
</event>
<event>
 7    1  0.1466590E-008  0.4614232E+02  0.7816164E-02  0.1320468E+00
        -11   -1    0    0    0    0  0.00000000000E+00  0.00000000000E+00  0.45593999997E+02  0.45594000000E+02  0.51100000000E-03 0. -1.
         11   -1    0    0    0    0 -0.00000000000E+00 -0.00000000000E+00 -0.45593999997E+02  0.45594000000E+02  0.51100000000E-03 0.  1.
    9900012    2    1    2    0    0  0.30028725419E+02  0.22885776468E+02 -0.24568889987E+02  0.46142317965E+02  0.10000001860E+02 0.  0.
         12    1    1    2    0    0 -0.30028725419E+02 -0.22885776468E+02  0.24568889987E+02  0.45045682035E+02  0.00000000000E+00 0. -1.
         11    1    3    3    0    0  0.66271719482E+01  0.32503494511E+01 -0.17127119011E+01  0.75774376872E+01  0.51100000000E-03 0.  1.
        -11    1    3    3    0    0  0.21954656505E+02  0.19490137599E+02 -0.20538551037E+02  0.35828821985E+02  0.51100000000E-03 0. -1.
         12    1    3    3    0    0  0.14468969656E+01  0.14528941748E+00 -0.23176270488E+01  0.27360582928E+01  0.00000000000E+00 0. -1.
</event>
<event>
 7    1  0.1466590E-008  0.4614232E+02  0.7816164E-02  0.1320468E+00
        -11   -1    0    0    0    0  0.00000000000E+00  0.00000000000E+00  0.45593999997E+02  0.45594000000E+02  0.51100000000E-03 0.  1.
         11   -1    0    0    0    0 -0.00000000000E+00 -0.00000000000E+00 -0.45593999997E+02  0.45594000000E+02  0.51100000000E-03 0. -1.
    9900012    2    1    2    0    0 -0.18297802972E+02  0.39089990021E+02  0.12894827063E+02  0.46142317871E+02  0.10000001006E+02 0.  0.
         12    1    1    2    0    0  0.18297802972E+02 -0.39089990021E+02 -0.12894827063E+02  0.45045682129E+02  0.00000000000E+00 0. -1.
         11    1    3    3    0    0  0.38612866808E+00  0.45255289028E+01 -0.18980579805E+00  0.45459359543E+01  0.51100000000E-03 0. -1.
        -11    1    3    3    0    0 -0.18351980364E+02  0.32204092549E+02  0.11864833266E+02  0.38918800456E+02  0.51100000000E-03 0.  1.
        -12    1    3    3    0    0 -0.33195127538E+00  0.23603685687E+01  0.12197995951E+01  0.26775814613E+01  0.00000000000E+00 0.  1.
</event>
<event>
 7    1  0.1466590E-008  0.4614232E+02  0.7816164E-02  0.1320468E+00
        -11   -1    0    0    0    0  0.00000000000E+00  0.00000000000E+00  0.45593999997E+02  0.45594000000E+02  0.51100000000E-03 0.  1.
         11   -1    0    0    0    0 -0.00000000000E+00 -0.00000000000E+00 -0.45593999997E+02  0.45594000000E+02  0.51100000000E-03 0. -1.
    9900012    2    1    2    0    0  0.28203678549E+02 -0.10134561329E+02  0.33629699749E+02  0.46142317385E+02  0.99999965740E+01 0.  0.
         12    1    1    2    0    0 -0.28203678549E+02  0.10134561329E+02 -0.33629699749E+02  0.45045682615E+02  0.00000000000E+00 0. -1.
         11    1    3    3    0    0  0.35507256862E+01 -0.73204533738E+00  0.58282881562E+01  0.68638536091E+01  0.51100000000E-03 0. -1.
        -11    1    3    3    0    0  0.38537283622E+01 -0.26045180946E+01  0.11434425387E+01  0.47898014463E+01  0.51100000000E-03 0.  1.
        -12    1    3    3    0    0  0.20799224501E+02 -0.67979978965E+01  0.26657969054E+02  0.34488662330E+02  0.00000000000E+00 0.  1.
</event>
<event>
 7    1  0.1466590E-008  0.4614232E+02  0.7816164E-02  0.1320468E+00
        -11   -1    0    0    0    0  0.00000000000E+00  0.00000000000E+00  0.45593999997E+02  0.45594000000E+02  0.51100000000E-03 0.  1.
         11   -1    0    0    0    0 -0.00000000000E+00 -0.00000000000E+00 -0.45593999997E+02  0.45594000000E+02  0.51100000000E-03 0. -1.
    9900012    2    1    2    0    0 -0.19415872963E+02  0.30158415724E+02  0.27250823631E+02  0.46142317072E+02  0.99999937132E+01 0.  0.
         12    1    1    2    0    0  0.19415872963E+02 -0.30158415724E+02 -0.27250823631E+02  0.45045682928E+02  0.00000000000E+00 0. -1.
         11    1    3    3    0    0 -0.47883987447E+01  0.13155030679E+02  0.14947968746E+02  0.20479877065E+02  0.51100000000E-03 0. -1.
        -11    1    3    3    0    0 -0.52671925208E+01  0.63930897280E+01  0.34569748870E+01  0.89758336076E+01  0.51100000000E-03 0.  1.
         12    1    3    3    0    0 -0.93602816977E+01  0.10610295318E+02  0.88458799976E+01  0.16686606399E+02  0.00000000000E+00 0. -1.
</event>
<event>
 7    1  0.1466590E-008  0.4614232E+02  0.7816164E-02  0.1320468E+00
        -11   -1    0    0    0    0  0.00000000000E+00  0.00000000000E+00  0.45593999997E+02  0.45594000000E+02  0.51100000000E-03 0. -1.
         11   -1    0    0    0    0 -0.00000000000E+00 -0.00000000000E+00 -0.45593999997E+02  0.45594000000E+02  0.51100000000E-03 0.  1.
    9900012    2    1    2    0    0  0.21306016993E+02  0.33650568583E+02 -0.21042961978E+02  0.46142319021E+02  0.10000011485E+02 0.  0.
         12    1    1    2    0    0 -0.21306016993E+02 -0.33650568583E+02  0.21042961978E+02  0.45045680979E+02  0.00000000000E+00 0. -1.
         11    1    3    3    0    0  0.19741865451E+02  0.28475826027E+02 -0.20071876815E+02  0.40043653162E+02  0.51100000000E-03 0. -1.
        -11    1    3    3    0    0  0.22807932603E+01  0.44409046795E+01 -0.73555555980E+00  0.50462554941E+01  0.51100000000E-03 0.  1.
         12    1    3    3    0    0 -0.71664171825E+00  0.73383787718E+00 -0.23552960299E+00  0.10524103649E+01  0.00000000000E+00 0. -1.
</event>
<event>
 7    1  0.1466590E-008  0.4614232E+02  0.7816164E-02  0.1320468E+00
        -11   -1    0    0    0    0  0.00000000000E+00  0.00000000000E+00  0.45593999997E+02  0.45594000000E+02  0.51100000000E-03 0. -1.
         11   -1    0    0    0    0 -0.00000000000E+00 -0.00000000000E+00 -0.45593999997E+02  0.45594000000E+02  0.51100000000E-03 0.  1.
    9900012    2    1    2    0    0 -0.92015397515E+01 -0.36794163672E+02 -0.24302976327E+02  0.46142317937E+02  0.10000001606E+02 0.  0.
         12    1    1    2    0    0  0.92015397515E+01  0.36794163672E+02  0.24302976327E+02  0.45045682063E+02  0.00000000000E+00 0. -1.
         11    1    3    3    0    0  0.52342389003E+00 -0.11360808064E+02 -0.66032188007E+01  0.13150833860E+02  0.51100000000E-03 0. -1.
        -11    1    3    3    0    0 -0.13527998452E+01 -0.10838035702E+02 -0.56599621758E+01  0.12301555080E+02  0.51100000000E-03 0.  1.
         12    1    3    3    0    0 -0.83721637963E+01 -0.14595319907E+02 -0.12039795350E+02  0.20689928997E+02  0.00000000000E+00 0. -1.
</event>
<event>
 7    1  0.1466590E-008  0.4614232E+02  0.7816164E-02  0.1320468E+00
        -11   -1    0    0    0    0  0.00000000000E+00  0.00000000000E+00  0.45593999997E+02  0.45594000000E+02  0.51100000000E-03 0.  1.
         11   -1    0    0    0    0 -0.00000000000E+00 -0.00000000000E+00 -0.45593999997E+02  0.45594000000E+02  0.51100000000E-03 0. -1.
    9900012    2    1    2    0    0 -0.29393069851E+02  0.16248981760E+02  0.30018853121E+02  0.46142317563E+02  0.99999981914E+01 0.  0.
         12    1    1    2    0    0  0.29393069851E+02 -0.16248981760E+02 -0.30018853121E+02  0.45045682437E+02  0.00000000000E+00 0. -1.
         11    1    3    3    0    0 -0.33621140516E+01  0.12661957320E+01  0.83963272458E+01  0.91326542696E+01  0.51100000000E-03 0. -1.
        -11    1    3    3    0    0 -0.17820907695E+02  0.10115450613E+02  0.14827051280E+02  0.25293250920E+02  0.51100000000E-03 0.  1.
         12    1    3    3    0    0 -0.82100481047E+01  0.48673354151E+01  0.67954745956E+01  0.11716412373E+02  0.00000000000E+00 0. -1.
</event>
<event>
 7    1  0.1466590E-008  0.4614232E+02  0.7816164E-02  0.1320468E+00
        -11   -1    0    0    0    0  0.00000000000E+00  0.00000000000E+00  0.45593999997E+02  0.45594000000E+02  0.51100000000E-03 0.  1.
         11   -1    0    0    0    0 -0.00000000000E+00 -0.00000000000E+00 -0.45593999997E+02  0.45594000000E+02  0.51100000000E-03 0. -1.
    9900012    2    1    2    0    0 -0.22068231404E+01  0.60117371928E+01  0.44588135744E+02  0.46142324274E+02  0.10000059391E+02 0.  0.
         12    1    1    2    0    0  0.22068231404E+01 -0.60117371928E+01 -0.44588135744E+02  0.45045675726E+02  0.00000000000E+00 0. -1.
         11    1    3    3    0    0 -0.19153245901E+01  0.44983557910E+01  0.71817549453E+01  0.86879961708E+01  0.51100000000E-03 0. -1.
        -11    1    3    3    0    0 -0.40013289741E+00  0.60507274348E+00  0.77586938604E+01  0.77925316836E+01  0.51100000000E-03 0.  1.
         12    1    3    3    0    0  0.10863434712E+00  0.90830865837E+00  0.29647686939E+02  0.29661796420E+02  0.00000000000E+00 0. -1.
</event>
<event>
 7    1  0.1466590E-008  0.4614232E+02  0.7816164E-02  0.1320468E+00
        -11   -1    0    0    0    0  0.00000000000E+00  0.00000000000E+00  0.45593999997E+02  0.45594000000E+02  0.51100000000E-03 0. -1.
         11   -1    0    0    0    0 -0.00000000000E+00 -0.00000000000E+00 -0.45593999997E+02  0.45594000000E+02  0.51100000000E-03 0.  1.
    9900012    2    1    2    0    0 -0.14009402966E+02  0.10821540193E+02 -0.41421544481E+02  0.46142318178E+02  0.10000003806E+02 0.  0.
         12    1    1    2    0    0  0.14009402966E+02 -0.10821540193E+02  0.41421544481E+02  0.45045681822E+02  0.00000000000E+00 0. -1.
         11    1    3    3    0    0 -0.15923686916E+01 -0.24255375438E+00 -0.35116268823E+00  0.16485708563E+01  0.51100000000E-03 0. -1.
        -11    1    3    3    0    0 -0.43386378956E+01  0.62989009611E+01 -0.20700703540E+02  0.22068508319E+02  0.51100000000E-03 0.  1.
        -12    1    3    3    0    0 -0.80783963790E+01  0.47651929859E+01 -0.20369678252E+02  0.22425239003E+02  0.00000000000E+00 0.  1.
</event>
<event>
 7    1  0.1466590E-008  0.4614232E+02  0.7816164E-02  0.1320468E+00
        -11   -1    0    0    0    0  0.00000000000E+00  0.00000000000E+00  0.45593999997E+02  0.45594000000E+02  0.51100000000E-03 0.  1.
         11   -1    0    0    0    0 -0.00000000000E+00 -0.00000000000E+00 -0.45593999997E+02  0.45594000000E+02  0.51100000000E-03 0. -1.
    9900012    2    1    2    0    0  0.27483392008E+02  0.14738298230E+02  0.32504757590E+02  0.46142317222E+02  0.99999950846E+01 0.  0.
         12    1    1    2    0    0 -0.27483392008E+02 -0.14738298230E+02 -0.32504757590E+02  0.45045682778E+02  0.00000000000E+00 0. -1.
         11    1    3    3    0    0 -0.10447550168E+00 -0.52597635177E+00 -0.25505360948E+00  0.59381719233E+00  0.51100000000E-03 0. -1.
        -11    1    3    3    0    0  0.18831613173E+02  0.10774715718E+02  0.24250852725E+02  0.32539637547E+02  0.51100000000E-03 0.  1.
        -12    1    3    3    0    0  0.87562543360E+01  0.44895588634E+01  0.85089584737E+01  0.13008862483E+02  0.00000000000E+00 0.  1.
</event>
<event>
 7    1  0.1982766E-008  0.4614232E+02  0.7816164E-02  0.1320468E+00
        -11   -1    0    0    0    0  0.00000000000E+00  0.00000000000E+00  0.45593999997E+02  0.45594000000E+02  0.51100000000E-03 0. -1.
         11   -1    0    0    0    0 -0.00000000000E+00 -0.00000000000E+00 -0.45593999997E+02  0.45594000000E+02  0.51100000000E-03 0.  1.
    9900012    2    1    2    0    0 -0.27225615550E+02 -0.27815610970E+02 -0.22675342475E+02  0.46142317498E+02  0.99999976032E+01 0.  0.
         12    1    1    2    0    0  0.27225615550E+02  0.27815610970E+02  0.22675342475E+02  0.45045682502E+02  0.00000000000E+00 0. -1.
         11    1    3    3    0    0  0.51568671492E+00 -0.92694435470E+00 -0.21544341856E+00  0.10823930674E+01  0.51100000000E-03 0. -1.
        -11    1    3    3    0    0 -0.23110874417E+02 -0.19322088249E+02 -0.16210558676E+02  0.34208738993E+02  0.51100000000E-03 0.  1.
        -12    1    3    3    0    0 -0.46304278476E+01 -0.75665783658E+01 -0.62493403806E+01  0.10851185438E+02  0.00000000000E+00 0.  1.
</event>
<event>
 7    1  0.1466590E-008  0.4614232E+02  0.7816164E-02  0.1320468E+00
        -11   -1    0    0    0    0  0.00000000000E+00  0.00000000000E+00  0.45593999997E+02  0.45594000000E+02  0.51100000000E-03 0.  1.
         11   -1    0    0    0    0 -0.00000000000E+00 -0.00000000000E+00 -0.45593999997E+02  0.45594000000E+02  0.51100000000E-03 0. -1.
    9900012    2    1    2    0    0 -0.12021357168E+02  0.15036123778E+02  0.40724874331E+02  0.46142318346E+02  0.10000005333E+02 0.  0.
         12    1    1    2    0    0  0.12021357168E+02 -0.15036123778E+02 -0.40724874331E+02  0.45045681654E+02  0.00000000000E+00 0. -1.
         11    1    3    3    0    0  0.34969212749E+00  0.18184555348E+00  0.39858325485E+01  0.40052732435E+01  0.51100000000E-03 0. -1.
        -11    1    3    3    0    0  0.79412619745E+00  0.75762424519E+00  0.83170608300E+00  0.13770861208E+01  0.51100000000E-03 0.  1.
         12    1    3    3    0    0 -0.13165175493E+02  0.14096653979E+02  0.35907335699E+02  0.40759958982E+02  0.00000000000E+00 0. -1.
</event>
<event>
 7    1  0.1466590E-008  0.4614232E+02  0.7816164E-02  0.1320468E+00
        -11   -1    0    0    0    0  0.00000000000E+00  0.00000000000E+00  0.45593999997E+02  0.45594000000E+02  0.51100000000E-03 0. -1.
         11   -1    0    0    0    0 -0.00000000000E+00 -0.00000000000E+00 -0.45593999997E+02  0.45594000000E+02  0.51100000000E-03 0.  1.
    9900012    2    1    2    0    0  0.12212275515E+02 -0.59486009080E+01 -0.42948666866E+02  0.46142317503E+02  0.99999976498E+01 0.  0.
         12    1    1    2    0    0 -0.12212275515E+02  0.59486009080E+01  0.42948666866E+02  0.45045682497E+02  0.00000000000E+00 0. -1.
         11    1    3    3    0    0  0.52443796021E+01 -0.48545234898E+01 -0.11029677069E+02  0.13142438595E+02  0.51100000000E-03 0. -1.
        -11    1    3    3    0    0  0.47392786563E+01  0.96532143245E+00 -0.24699713610E+02  0.25168799343E+02  0.51100000000E-03 0.  1.
        -12    1    3    3    0    0  0.22286172564E+01 -0.20593988507E+01 -0.72192761869E+01  0.78310795657E+01  0.00000000000E+00 0.  1.
</event>
<event>
 7    1  0.1466590E-008  0.4614232E+02  0.7816164E-02  0.1320468E+00
        -11   -1    0    0    0    0  0.00000000000E+00  0.00000000000E+00  0.45593999997E+02  0.45594000000E+02  0.51100000000E-03 0.  1.
         11   -1    0    0    0    0 -0.00000000000E+00 -0.00000000000E+00 -0.45593999997E+02  0.45594000000E+02  0.51100000000E-03 0. -1.
    9900012    2    1    2    0    0  0.27045674829E+02  0.18567411038E+02  0.30869017196E+02  0.46142317607E+02  0.99999985902E+01 0.  0.
         12    1    1    2    0    0 -0.27045674829E+02 -0.18567411038E+02 -0.30869017196E+02  0.45045682393E+02  0.00000000000E+00 0. -1.
         11    1    3    3    0    0 -0.78435253831E+00  0.13343279866E+01  0.11327184378E+01  0.19179915018E+01  0.51100000000E-03 0. -1.
        -11    1    3    3    0    0  0.11695631186E+02  0.71737334874E+01  0.12597501262E+02  0.18626520859E+02  0.51100000000E-03 0.  1.
         12    1    3    3    0    0  0.16134396182E+02  0.10059349564E+02  0.17138797496E+02  0.25597805246E+02  0.00000000000E+00 0. -1.
</event>
<event>
 7    1  0.1466590E-008  0.4614232E+02  0.7816164E-02  0.1320468E+00
        -11   -1    0    0    0    0  0.00000000000E+00  0.00000000000E+00  0.45593999997E+02  0.45594000000E+02  0.51100000000E-03 0.  1.
         11   -1    0    0    0    0 -0.00000000000E+00 -0.00000000000E+00 -0.45593999997E+02  0.45594000000E+02  0.51100000000E-03 0. -1.
    9900012    2    1    2    0    0 -0.38153340301E+02 -0.13035540588E+02  0.20087578402E+02  0.46142317625E+02  0.99999987614E+01 0.  0.
         12    1    1    2    0    0  0.38153340301E+02  0.13035540588E+02 -0.20087578402E+02  0.45045682375E+02  0.00000000000E+00 0. -1.
         11    1    3    3    0    0 -0.67695378484E+01  0.49261622371E+00  0.47740934601E+01  0.82982698228E+01  0.51100000000E-03 0. -1.
        -11    1    3    3    0    0 -0.11546902683E+02 -0.32722120859E+01  0.76593848765E+01  0.14237433422E+02  0.51100000000E-03 0.  1.
        -12    1    3    3    0    0 -0.19836899770E+02 -0.10255944726E+02  0.76541000657E+01  0.23606614380E+02  0.00000000000E+00 0.  1.
</event>
<event>
 7    1  0.1466818E-008  0.4614232E+02  0.7816164E-02  0.1320468E+00
        -11   -1    0    0    0    0  0.00000000000E+00  0.00000000000E+00  0.45593999997E+02  0.45594000000E+02  0.51100000000E-03 0. -1.
         11   -1    0    0    0    0 -0.00000000000E+00 -0.00000000000E+00 -0.45593999997E+02  0.45594000000E+02  0.51100000000E-03 0.  1.
    9900012    2    1    2    0    0  0.41419626067E+02  0.17223200923E+02 -0.41096721833E+01  0.46142317865E+02  0.10000000946E+02 0.  0.
         12    1    1    2    0    0 -0.41419626067E+02 -0.17223200923E+02  0.41096721833E+01  0.45045682135E+02  0.00000000000E+00 0. -1.
         11    1    3    3    0    0 -0.19779057730E-03 -0.62864634256E+00  0.16099503575E+00  0.64893445415E+00  0.51100000000E-03 0. -1.
        -11    1    3    3    0    0  0.40216099155E+02  0.16551106971E+02 -0.37706054060E+01  0.43651932817E+02  0.51100000000E-03 0.  1.
        -12    1    3    3    0    0  0.12037247021E+01  0.13007402951E+01 -0.50006181299E+00  0.18414505941E+01  0.00000000000E+00 0.  1.
</event>
<event>
 7    1  0.1466590E-008  0.4614232E+02  0.7816164E-02  0.1320468E+00
        -11   -1    0    0    0    0  0.00000000000E+00  0.00000000000E+00  0.45593999997E+02  0.45594000000E+02  0.51100000000E-03 0. -1.
         11   -1    0    0    0    0 -0.00000000000E+00 -0.00000000000E+00 -0.45593999997E+02  0.45594000000E+02  0.51100000000E-03 0.  1.
    9900012    2    1    2    0    0  0.44011088796E+02  0.75708261405E+01 -0.59008594605E+01  0.46142317767E+02  0.10000000053E+02 0.  0.
         12    1    1    2    0    0 -0.44011088796E+02 -0.75708261405E+01  0.59008594605E+01  0.45045682233E+02  0.00000000000E+00 0. -1.
         11    1    3    3    0    0  0.16775979818E+01 -0.34223685115E+00 -0.51899095008E+00  0.17890815851E+01  0.51100000000E-03 0. -1.
        -11    1    3    3    0    0  0.29801290559E+02  0.39273867207E+01 -0.76288053912E+01  0.31011932500E+02  0.51100000000E-03 0.  1.
        -12    1    3    3    0    0  0.12532200256E+02  0.39856762709E+01  0.22469368808E+01  0.13341303682E+02  0.00000000000E+00 0.  1.
</event>
<event>
 7    1  0.1466590E-008  0.4614232E+02  0.7816164E-02  0.1320468E+00
        -11   -1    0    0    0    0  0.00000000000E+00  0.00000000000E+00  0.45593999997E+02  0.45594000000E+02  0.51100000000E-03 0. -1.
         11   -1    0    0    0    0 -0.00000000000E+00 -0.00000000000E+00 -0.45593999997E+02  0.45594000000E+02  0.51100000000E-03 0.  1.
    9900012    2    1    2    0    0  0.80635597836E+00  0.32396750052E+02 -0.31287598365E+02  0.46142318349E+02  0.10000005362E+02 0.  0.
         12    1    1    2    0    0 -0.80635597836E+00 -0.32396750052E+02  0.31287598365E+02  0.45045681651E+02  0.00000000000E+00 0. -1.
         11    1    3    3    0    0 -0.22678963030E+01  0.87531333518E+01 -0.13141341481E+02  0.15951663026E+02  0.51100000000E-03 0. -1.
        -11    1    3    3    0    0  0.25226115658E+01  0.68983634428E+01 -0.48564919009E+01  0.88054813126E+01  0.51100000000E-03 0.  1.
         12    1    3    3    0    0  0.55164071554E+00  0.16745253258E+02 -0.13289764983E+02  0.21385174010E+02  0.00000000000E+00 0. -1.
</event>
<event>
 7    1  0.1466590E-008  0.4614232E+02  0.7816164E-02  0.1320468E+00
        -11   -1    0    0    0    0  0.00000000000E+00  0.00000000000E+00  0.45593999997E+02  0.45594000000E+02  0.51100000000E-03 0.  1.
         11   -1    0    0    0    0 -0.00000000000E+00 -0.00000000000E+00 -0.45593999997E+02  0.45594000000E+02  0.51100000000E-03 0. -1.
    9900012    2    1    2    0    0  0.27870692829E+02  0.26857531894E+02  0.23043674627E+02  0.46142317870E+02  0.10000000995E+02 0.  0.
         12    1    1    2    0    0 -0.27870692829E+02 -0.26857531894E+02 -0.23043674627E+02  0.45045682130E+02  0.00000000000E+00 0. -1.
         11    1    3    3    0    0  0.70426720301E+01  0.11459828316E+02  0.62444245884E+01  0.14829690930E+02  0.51100000000E-03 0. -1.
        -11    1    3    3    0    0  0.11091415123E+02  0.62098754254E+01  0.57365750930E+01  0.13945979215E+02  0.51100000000E-03 0.  1.
         12    1    3    3    0    0  0.97366056761E+01  0.91878281527E+01  0.11062674946E+02  0.17366647725E+02  0.00000000000E+00 0. -1.
</event>
<event>
 7    1  0.1466590E-008  0.4614232E+02  0.7816164E-02  0.1320468E+00
        -11   -1    0    0    0    0  0.00000000000E+00  0.00000000000E+00  0.45593999997E+02  0.45594000000E+02  0.51100000000E-03 0.  1.
         11   -1    0    0    0    0 -0.00000000000E+00 -0.00000000000E+00 -0.45593999997E+02  0.45594000000E+02  0.51100000000E-03 0. -1.
    9900012    2    1    2    0    0 -0.12281600401E+02 -0.43017057679E+02  0.52733663944E+01  0.46142319265E+02  0.10000013712E+02 0.  0.
         12    1    1    2    0    0  0.12281600401E+02  0.43017057679E+02 -0.52733663944E+01  0.45045680735E+02  0.00000000000E+00 0. -1.
         11    1    3    3    0    0 -0.35165099132E+01 -0.25743267525E+02  0.19007845307E+01  0.26051768595E+02  0.51100000000E-03 0. -1.
        -11    1    3    3    0    0 -0.26422701497E+01 -0.26791016624E+01 -0.50195156747E+00  0.37961997970E+01  0.51100000000E-03 0.  1.
         12    1    3    3    0    0 -0.61228203378E+01 -0.14594688492E+02  0.38745334312E+01  0.16294350873E+02  0.00000000000E+00 0. -1.
</event>
<event>
 7    1  0.1466590E-008  0.4614232E+02  0.7816164E-02  0.1320468E+00
        -11   -1    0    0    0    0  0.00000000000E+00  0.00000000000E+00  0.45593999997E+02  0.45594000000E+02  0.51100000000E-03 0. -1.
         11   -1    0    0    0    0 -0.00000000000E+00 -0.00000000000E+00 -0.45593999997E+02  0.45594000000E+02  0.51100000000E-03 0.  1.
    9900012    2    1    2    0    0 -0.16725140315E+02  0.80832733581E+01 -0.41037102578E+02  0.46142318578E+02  0.10000007451E+02 0.  0.
         12    1    1    2    0    0  0.16725140315E+02 -0.80832733581E+01  0.41037102578E+02  0.45045681422E+02  0.00000000000E+00 0. -1.
         11    1    3    3    0    0 -0.17481569458E+01 -0.17468723732E+01 -0.69207620413E+01  0.73487797143E+01  0.51100000000E-03 0. -1.
        -11    1    3    3    0    0 -0.99802891140E+01  0.39099172704E+01 -0.19971821031E+02  0.22666434643E+02  0.51100000000E-03 0.  1.
        -12    1    3    3    0    0 -0.49966942556E+01  0.59202284609E+01 -0.14144519505E+02  0.16127104221E+02  0.00000000000E+00 0.  1.
</event>
<event>
 7    1  0.1466590E-008  0.4614232E+02  0.7816164E-02  0.1320468E+00
        -11   -1    0    0    0    0  0.00000000000E+00  0.00000000000E+00  0.45593999997E+02  0.45594000000E+02  0.51100000000E-03 0.  1.
         11   -1    0    0    0    0 -0.00000000000E+00 -0.00000000000E+00 -0.45593999997E+02  0.45594000000E+02  0.51100000000E-03 0. -1.
    9900012    2    1    2    0    0  0.26640496941E+02 -0.64977924797E+00  0.36317697899E+02  0.46142317954E+02  0.10000001761E+02 0.  0.
         12    1    1    2    0    0 -0.26640496941E+02  0.64977924797E+00 -0.36317697899E+02  0.45045682046E+02  0.00000000000E+00 0. -1.
         11    1    3    3    0    0  0.45243338150E+00  0.16398663442E+00  0.31120295027E+01  0.31490181752E+01  0.51100000000E-03 0. -1.
        -11    1    3    3    0    0  0.66356379926E+01  0.22825382894E+01  0.53701388512E+01  0.88362924439E+01  0.51100000000E-03 0.  1.
        -12    1    3    3    0    0  0.19552425566E+02 -0.30963041718E+01  0.27835529545E+02  0.34157007335E+02  0.00000000000E+00 0.  1.
</event>
<event>
 7    1  0.1466590E-008  0.4614232E+02  0.7816164E-02  0.1320468E+00
        -11   -1    0    0    0    0  0.00000000000E+00  0.00000000000E+00  0.45593999997E+02  0.45594000000E+02  0.51100000000E-03 0.  1.
         11   -1    0    0    0    0 -0.00000000000E+00 -0.00000000000E+00 -0.45593999997E+02  0.45594000000E+02  0.51100000000E-03 0. -1.
    9900012    2    1    2    0    0  0.20143537363E+02  0.20319892648E+01  0.40239560767E+02  0.46142319534E+02  0.10000016170E+02 0.  0.
         12    1    1    2    0    0 -0.20143537363E+02 -0.20319892648E+01 -0.40239560767E+02  0.45045680466E+02  0.00000000000E+00 0. -1.
         11    1    3    3    0    0  0.62117837927E+01 -0.23223435218E+01  0.62289982130E+01  0.90983490986E+01  0.51100000000E-03 0. -1.
        -11    1    3    3    0    0  0.13619761267E+02  0.39712860997E+01  0.32828006333E+02  0.35762368634E+02  0.51100000000E-03 0.  1.
        -12    1    3    3    0    0  0.31199230348E+00  0.38304668695E+00  0.11825562211E+01  0.12816018016E+01  0.00000000000E+00 0.  1.
</event>
<event>
 7    1  0.1466590E-008  0.4614232E+02  0.7816164E-02  0.1320468E+00
        -11   -1    0    0    0    0  0.00000000000E+00  0.00000000000E+00  0.45593999997E+02  0.45594000000E+02  0.51100000000E-03 0.  1.
         11   -1    0    0    0    0 -0.00000000000E+00 -0.00000000000E+00 -0.45593999997E+02  0.45594000000E+02  0.51100000000E-03 0. -1.
    9900012    2    1    2    0    0 -0.54624185266E+01  0.35087348760E+02  0.27715580582E+02  0.46142318008E+02  0.10000002249E+02 0.  0.
         12    1    1    2    0    0  0.54624185266E+01 -0.35087348760E+02 -0.27715580582E+02  0.45045681992E+02  0.00000000000E+00 0. -1.
         11    1    3    3    0    0 -0.24996777264E+01  0.28552807333E+01  0.49853422796E+01  0.62653535182E+01  0.51100000000E-03 0. -1.
        -11    1    3    3    0    0  0.65464568939E+00  0.13380754593E+02  0.11375009173E+02  0.17574526691E+02  0.51100000000E-03 0.  1.
        -12    1    3    3    0    0 -0.36173864896E+01  0.18851313434E+02  0.11355229129E+02  0.22302437799E+02  0.00000000000E+00 0.  1.
</event>
<event>
 7    1  0.1466590E-008  0.4614233E+02  0.7816164E-02  0.1320468E+00
        -11   -1    0    0    0    0  0.00000000000E+00  0.00000000000E+00  0.45593999997E+02  0.45594000000E+02  0.51100000000E-03 0. -1.
         11   -1    0    0    0    0 -0.00000000000E+00 -0.00000000000E+00 -0.45593999997E+02  0.45594000000E+02  0.51100000000E-03 0.  1.
    9900012    2    1    2    0    0  0.40423094165E+02 -0.57465320290E+01  0.19027961729E+02  0.46142328734E+02  0.10000100063E+02 0.  0.
         12    1    1    2    0    0 -0.40423094165E+02  0.57465320290E+01 -0.19027961729E+02  0.45045671266E+02  0.00000000000E+00 0. -1.
         11    1    3    3    0    0  0.11220554887E+02 -0.16006381901E+01  0.91120403167E+01  0.14542770492E+02  0.51100000000E-03 0. -1.
        -11    1    3    3    0    0  0.19918809643E+02 -0.24837110849E+00  0.61227444771E+01  0.20840073560E+02  0.51100000000E-03 0.  1.
        -12    1    3    3    0    0  0.92837296350E+01 -0.38975227304E+01  0.37931769352E+01  0.10759484682E+02  0.00000000000E+00 0.  1.
</event>
<event>
 7    1  0.1466590E-008  0.4614232E+02  0.7816164E-02  0.1320468E+00
        -11   -1    0    0    0    0  0.00000000000E+00  0.00000000000E+00  0.45593999997E+02  0.45594000000E+02  0.51100000000E-03 0.  1.
         11   -1    0    0    0    0 -0.00000000000E+00 -0.00000000000E+00 -0.45593999997E+02  0.45594000000E+02  0.51100000000E-03 0. -1.
    9900012    2    1    2    0    0 -0.27289400298E+02  0.34481859136E+02 -0.97674738520E+01  0.46142317371E+02  0.99999964403E+01 0.  0.
         12    1    1    2    0    0  0.27289400298E+02 -0.34481859136E+02  0.97674738520E+01  0.45045682629E+02  0.00000000000E+00 0. -1.
         11    1    3    3    0    0 -0.39699194958E+01  0.36771354835E+01 -0.31921720268E+01  0.62826386716E+01  0.51100000000E-03 0.  1.
        -11    1    3    3    0    0 -0.11403332562E+02  0.10562376286E+02 -0.29913118126E+00  0.15546358610E+02  0.51100000000E-03 0. -1.
        -12    1    3    3    0    0 -0.11916148240E+02  0.20242347366E+02 -0.62761706439E+01  0.24313320089E+02  0.00000000000E+00 0.  1.
</event>
<event>
 7    1  0.1466590E-008  0.4614232E+02  0.7816164E-02  0.1320468E+00
        -11   -1    0    0    0    0  0.00000000000E+00  0.00000000000E+00  0.45593999997E+02  0.45594000000E+02  0.51100000000E-03 0.  1.
         11   -1    0    0    0    0 -0.00000000000E+00 -0.00000000000E+00 -0.45593999997E+02  0.45594000000E+02  0.51100000000E-03 0. -1.
    9900012    2    1    2    0    0  0.33743347011E+02 -0.12174260143E+02  0.27244950568E+02  0.46142318642E+02  0.10000008035E+02 0.  0.
         12    1    1    2    0    0 -0.33743347011E+02  0.12174260143E+02 -0.27244950568E+02  0.45045681358E+02  0.00000000000E+00 0. -1.
         11    1    3    3    0    0  0.86223367440E+01 -0.44213964796E+01  0.55954802868E+01  0.11189407386E+02  0.51100000000E-03 0. -1.
        -11    1    3    3    0    0  0.12515573021E+02 -0.61862850166E+01  0.71807035148E+01  0.15699432907E+02  0.51100000000E-03 0.  1.
         12    1    3    3    0    0  0.12605437245E+02 -0.15665786471E+01  0.14468766767E+02  0.19253478349E+02  0.00000000000E+00 0. -1.
</event>
<event>
 7    1  0.1466590E-008  0.4614232E+02  0.7816164E-02  0.1320468E+00
        -11   -1    0    0    0    0  0.00000000000E+00  0.00000000000E+00  0.45593999997E+02  0.45594000000E+02  0.51100000000E-03 0. -1.
         11   -1    0    0    0    0 -0.00000000000E+00 -0.00000000000E+00 -0.45593999997E+02  0.45594000000E+02  0.51100000000E-03 0.  1.
    9900012    2    1    2    0    0 -0.42081894090E+02 -0.59488207979E+01 -0.14927802371E+02  0.46142316936E+02  0.99999924734E+01 0.  0.
         12    1    1    2    0    0  0.42081894090E+02  0.59488207979E+01  0.14927802371E+02  0.45045683064E+02  0.00000000000E+00 0. -1.
         11    1    3    3    0    0 -0.92514900087E+01  0.10063573830E+00 -0.56506574766E+01  0.10841131173E+02  0.51100000000E-03 0. -1.
        -11    1    3    3    0    0 -0.16634153060E+02 -0.11409708894E+01 -0.17032896047E+01  0.16760013673E+02  0.51100000000E-03 0.  1.
         12    1    3    3    0    0 -0.16196251022E+02 -0.49084856468E+01 -0.75738552893E+01  0.18541172089E+02  0.00000000000E+00 0. -1.
</event>
<event>
 7    1  0.1466590E-008  0.4614232E+02  0.7816164E-02  0.1320468E+00
        -11   -1    0    0    0    0  0.00000000000E+00  0.00000000000E+00  0.45593999997E+02  0.45594000000E+02  0.51100000000E-03 0.  1.
         11   -1    0    0    0    0 -0.00000000000E+00 -0.00000000000E+00 -0.45593999997E+02  0.45594000000E+02  0.51100000000E-03 0. -1.
    9900012    2    1    2    0    0  0.43012549624E+02  0.43019079220E+01  0.12669949780E+02  0.46142318028E+02  0.10000002433E+02 0.  0.
         12    1    1    2    0    0 -0.43012549624E+02 -0.43019079220E+01 -0.12669949780E+02  0.45045681972E+02  0.00000000000E+00 0. -1.
         11    1    3    3    0    0  0.41448544364E+01 -0.18864534131E+01  0.28897779029E+01  0.53934535659E+01  0.51100000000E-03 0. -1.
        -11    1    3    3    0    0  0.29835408881E+02  0.30436355628E+01  0.76455484260E+01  0.30949470941E+02  0.51100000000E-03 0.  1.
         12    1    3    3    0    0  0.90322863063E+01  0.31447257722E+01  0.21346234513E+01  0.97993935211E+01  0.00000000000E+00 0. -1.
</event>
<event>
 7    1  0.1466590E-008  0.4614232E+02  0.7816164E-02  0.1320468E+00
        -11   -1    0    0    0    0  0.00000000000E+00  0.00000000000E+00  0.45593999997E+02  0.45594000000E+02  0.51100000000E-03 0. -1.
         11   -1    0    0    0    0 -0.00000000000E+00 -0.00000000000E+00 -0.45593999997E+02  0.45594000000E+02  0.51100000000E-03 0.  1.
    9900012    2    1    2    0    0  0.20929352065E+02 -0.19409611030E+02 -0.34847419804E+02  0.46142318240E+02  0.10000004370E+02 0.  0.
         12    1    1    2    0    0 -0.20929352065E+02  0.19409611030E+02  0.34847419804E+02  0.45045681760E+02  0.00000000000E+00 0. -1.
         11    1    3    3    0    0  0.93198799038E+01 -0.48690770360E+01 -0.15132828032E+02  0.18427440330E+02  0.51100000000E-03 0. -1.
        -11    1    3    3    0    0  0.10528692686E+02 -0.98713591590E+01 -0.16611217056E+02  0.22005218329E+02  0.51100000000E-03 0.  1.
         12    1    3    3    0    0  0.10807794744E+01 -0.46691748353E+01 -0.31033747156E+01  0.57096595818E+01  0.00000000000E+00 0. -1.
</event>
<event>
 7    1  0.1466590E-008  0.4614232E+02  0.7816164E-02  0.1320468E+00
        -11   -1    0    0    0    0  0.00000000000E+00  0.00000000000E+00  0.45593999997E+02  0.45594000000E+02  0.51100000000E-03 0.  1.
         11   -1    0    0    0    0 -0.00000000000E+00 -0.00000000000E+00 -0.45593999997E+02  0.45594000000E+02  0.51100000000E-03 0. -1.
    9900012    2    1    2    0    0  0.67938919792E+01 -0.44596945743E+01  0.44306518932E+02  0.46142318034E+02  0.10000002486E+02 0.  0.
         12    1    1    2    0    0 -0.67938919792E+01  0.44596945743E+01 -0.44306518932E+02  0.45045681966E+02  0.00000000000E+00 0. -1.
         11    1    3    3    0    0  0.55977874102E+01 -0.34460267074E+01  0.26180150122E+02  0.26992787641E+02  0.51100000000E-03 0. -1.
        -11    1    3    3    0    0  0.15729050783E+01 -0.10833519521E+01  0.18509432447E+02  0.18607707317E+02  0.51100000000E-03 0.  1.
         12    1    3    3    0    0 -0.37680050930E+00  0.69684085239E-01 -0.38306363669E+00  0.54182307564E+00  0.00000000000E+00 0. -1.
</event>
<event>
 7    1  0.1466590E-008  0.4614232E+02  0.7816164E-02  0.1320468E+00
        -11   -1    0    0    0    0  0.00000000000E+00  0.00000000000E+00  0.45593999997E+02  0.45594000000E+02  0.51100000000E-03 0.  1.
         11   -1    0    0    0    0 -0.00000000000E+00 -0.00000000000E+00 -0.45593999997E+02  0.45594000000E+02  0.51100000000E-03 0. -1.
    9900012    2    1    2    0    0  0.17825429425E+02  0.27903654589E+02  0.30541017607E+02  0.46142316188E+02  0.99999856561E+01 0.  0.
         12    1    1    2    0    0 -0.17825429425E+02 -0.27903654589E+02 -0.30541017607E+02  0.45045683812E+02  0.00000000000E+00 0. -1.
         11    1    3    3    0    0  0.12601546500E+01  0.48124875104E+01  0.11482288864E+01  0.51055318642E+01  0.51100000000E-03 0. -1.
        -11    1    3    3    0    0  0.15853559929E+02  0.21063135174E+02  0.28091181864E+02  0.38524090185E+02  0.51100000000E-03 0.  1.
        -12    1    3    3    0    0  0.71171484613E+00  0.20280319046E+01  0.13016068569E+01  0.25126941394E+01  0.00000000000E+00 0.  1.
</event>
<event>
 7    1  0.1466590E-008  0.4614232E+02  0.7816164E-02  0.1320468E+00
        -11   -1    0    0    0    0  0.00000000000E+00  0.00000000000E+00  0.45593999997E+02  0.45594000000E+02  0.51100000000E-03 0.  1.
         11   -1    0    0    0    0 -0.00000000000E+00 -0.00000000000E+00 -0.45593999997E+02  0.45594000000E+02  0.51100000000E-03 0. -1.
    9900012    2    1    2    0    0  0.28846552958E+02  0.53345077534E+01  0.34183811713E+02  0.46142316814E+02  0.99999913590E+01 0.  0.
         12    1    1    2    0    0 -0.28846552958E+02 -0.53345077534E+01 -0.34183811713E+02  0.45045683186E+02  0.00000000000E+00 0. -1.
         11    1    3    3    0    0  0.50323222998E+01 -0.67488979587E+00  0.10647104424E+02  0.11795786402E+02  0.51100000000E-03 0. -1.
        -11    1    3    3    0    0  0.12086013176E+02  0.48649335074E+01  0.10174712794E+02  0.16530700929E+02  0.51100000000E-03 0.  1.
        -12    1    3    3    0    0  0.11728217482E+02  0.11444640419E+01  0.13361994494E+02  0.17815829482E+02  0.00000000000E+00 0.  1.
</event>
<event>
 7    1  0.1466590E-008  0.4614232E+02  0.7816164E-02  0.1320468E+00
        -11   -1    0    0    0    0  0.00000000000E+00  0.00000000000E+00  0.45593999997E+02  0.45594000000E+02  0.51100000000E-03 0.  1.
         11   -1    0    0    0    0 -0.00000000000E+00 -0.00000000000E+00 -0.45593999997E+02  0.45594000000E+02  0.51100000000E-03 0. -1.
    9900012    2    1    2    0    0  0.10049749390E+02 -0.16664905979E+02  0.40625076166E+02  0.46142319102E+02  0.10000012224E+02 0.  0.
         12    1    1    2    0    0 -0.10049749390E+02  0.16664905979E+02 -0.40625076166E+02  0.45045680898E+02  0.00000000000E+00 0. -1.
         11    1    3    3    0    0 -0.26396387521E+00 -0.13779993167E+01  0.12676942415E+01  0.18909278134E+01  0.51100000000E-03 0. -1.
        -11    1    3    3    0    0  0.80722343773E+01 -0.49467379894E+01  0.21550743384E+02  0.23538600750E+02  0.51100000000E-03 0.  1.
        -12    1    3    3    0    0  0.22414788876E+01 -0.10340168673E+02  0.17806638541E+02  0.20712790539E+02  0.00000000000E+00 0.  1.
</event>
<event>
 7    1  0.1466590E-008  0.4614232E+02  0.7816164E-02  0.1320468E+00
        -11   -1    0    0    0    0  0.00000000000E+00  0.00000000000E+00  0.45593999997E+02  0.45594000000E+02  0.51100000000E-03 0.  1.
         11   -1    0    0    0    0 -0.00000000000E+00 -0.00000000000E+00 -0.45593999997E+02  0.45594000000E+02  0.51100000000E-03 0. -1.
    9900012    2    1    2    0    0 -0.12254547533E+02  0.36359983756E+02  0.23598544668E+02  0.46142315807E+02  0.99999821842E+01 0.  0.
         12    1    1    2    0    0  0.12254547533E+02 -0.36359983756E+02 -0.23598544668E+02  0.45045684193E+02  0.00000000000E+00 0. -1.
         11    1    3    3    0    0 -0.42144537088E+01  0.20288522647E+02  0.10421748712E+02  0.23194797213E+02  0.51100000000E-03 0. -1.
        -11    1    3    3    0    0 -0.60794612985E+01  0.11710075932E+02  0.12393333748E+02  0.18101946019E+02  0.51100000000E-03 0.  1.
         12    1    3    3    0    0 -0.19606325257E+01  0.43613851758E+01  0.78346220820E+00  0.48455725755E+01  0.00000000000E+00 0. -1.
</event>
<event>
 7    1  0.1466590E-008  0.4614232E+02  0.7816164E-02  0.1320468E+00
        -11   -1    0    0    0    0  0.00000000000E+00  0.00000000000E+00  0.45593999997E+02  0.45594000000E+02  0.51100000000E-03 0.  1.
         11   -1    0    0    0    0 -0.00000000000E+00 -0.00000000000E+00 -0.45593999997E+02  0.45594000000E+02  0.51100000000E-03 0. -1.
    9900012    2    1    2    0    0 -0.36949089491E+02 -0.23785805208E+02  0.99052340585E+01  0.46142318682E+02  0.10000008397E+02 0.  0.
         12    1    1    2    0    0  0.36949089491E+02  0.23785805208E+02 -0.99052340585E+01  0.45045681318E+02  0.00000000000E+00 0. -1.
         11    1    3    3    0    0 -0.10544083314E+00  0.14176226166E+00 -0.31536055807E+00  0.36147870039E+00  0.51100000000E-03 0. -1.
        -11    1    3    3    0    0 -0.19851288107E+02 -0.16495551094E+02  0.34637165591E+01  0.26041777552E+02  0.51100000000E-03 0.  1.
        -12    1    3    3    0    0 -0.16992360551E+02 -0.74320163758E+01  0.67568780575E+01  0.19739062429E+02  0.00000000000E+00 0.  1.
</event>
<event>
 7    1  0.1466590E-008  0.4614232E+02  0.7816164E-02  0.1320468E+00
        -11   -1    0    0    0    0  0.00000000000E+00  0.00000000000E+00  0.45593999997E+02  0.45594000000E+02  0.51100000000E-03 0.  1.
         11   -1    0    0    0    0 -0.00000000000E+00 -0.00000000000E+00 -0.45593999997E+02  0.45594000000E+02  0.51100000000E-03 0. -1.
    9900012    2    1    2    0    0 -0.43471109005E+02  0.59689603139E+01 -0.10185660264E+02  0.46142317850E+02  0.10000000811E+02 0.  0.
         12    1    1    2    0    0  0.43471109005E+02 -0.59689603139E+01  0.10185660264E+02  0.45045682150E+02  0.00000000000E+00 0. -1.
         11    1    3    3    0    0 -0.84004851287E+01  0.47574767331E+01 -0.33759082423E+01  0.10227340416E+02  0.51100000000E-03 0. -1.
        -11    1    3    3    0    0 -0.14259009696E+02  0.13981373049E+01 -0.13041191385E+01  0.14386621300E+02  0.51100000000E-03 0.  1.
         12    1    3    3    0    0 -0.20811614180E+02 -0.18665372410E+00 -0.55056328830E+01  0.21528356134E+02  0.00000000000E+00 0. -1.
</event>
<event>
 7    1  0.1466590E-008  0.4614232E+02  0.7816164E-02  0.1320468E+00
        -11   -1    0    0    0    0  0.00000000000E+00  0.00000000000E+00  0.45593999997E+02  0.45594000000E+02  0.51100000000E-03 0.  1.
         11   -1    0    0    0    0 -0.00000000000E+00 -0.00000000000E+00 -0.45593999997E+02  0.45594000000E+02  0.51100000000E-03 0. -1.
    9900012    2    1    2    0    0 -0.98012700664E+01  0.38867539941E+02  0.20551469749E+02  0.46142318023E+02  0.10000002386E+02 0.  0.
         12    1    1    2    0    0  0.98012700664E+01 -0.38867539941E+02 -0.20551469749E+02  0.45045681977E+02  0.00000000000E+00 0. -1.
         11    1    3    3    0    0 -0.57254988776E+01  0.28128005185E+02  0.12295519972E+02  0.31227324969E+02  0.51100000000E-03 0. -1.
        -11    1    3    3    0    0 -0.45091572215E+01  0.69412684362E+01  0.71433013674E+01  0.10933456043E+02  0.51100000000E-03 0.  1.
        -12    1    3    3    0    0  0.43338603271E+00  0.37982663196E+01  0.11126484098E+01  0.39815370112E+01  0.00000000000E+00 0.  1.
</event>
<event>
 7    1  0.1466590E-008  0.4614232E+02  0.7816164E-02  0.1320468E+00
        -11   -1    0    0    0    0  0.00000000000E+00  0.00000000000E+00  0.45593999997E+02  0.45594000000E+02  0.51100000000E-03 0.  1.
         11   -1    0    0    0    0 -0.00000000000E+00 -0.00000000000E+00 -0.45593999997E+02  0.45594000000E+02  0.51100000000E-03 0. -1.
    9900012    2    1    2    0    0 -0.27969510722E+02 -0.35287460368E+02  0.12709030261E+01  0.46142316702E+02  0.99999903452E+01 0.  0.
         12    1    1    2    0    0  0.27969510722E+02  0.35287460368E+02 -0.12709030261E+01  0.45045683298E+02  0.00000000000E+00 0. -1.
         11    1    3    3    0    0 -0.14198278191E+02 -0.13918664188E+02 -0.74734663109E+00  0.19896704341E+02  0.51100000000E-03 0. -1.
        -11    1    3    3    0    0 -0.89542840039E+01 -0.17771178394E+02 -0.13006807771E-01  0.19899601829E+02  0.51100000000E-03 0.  1.
        -12    1    3    3    0    0 -0.48169485279E+01 -0.35976177853E+01  0.20312564650E+01  0.63460105323E+01  0.00000000000E+00 0.  1.
</event>
<event>
 7    1  0.1466590E-008  0.4614232E+02  0.7816164E-02  0.1320468E+00
        -11   -1    0    0    0    0  0.00000000000E+00  0.00000000000E+00  0.45593999997E+02  0.45594000000E+02  0.51100000000E-03 0. -1.
         11   -1    0    0    0    0 -0.00000000000E+00 -0.00000000000E+00 -0.45593999997E+02  0.45594000000E+02  0.51100000000E-03 0.  1.
    9900012    2    1    2    0    0  0.56210406391E+01 -0.19210792786E+02 -0.40354216709E+02  0.46142318037E+02  0.10000002513E+02 0.  0.
         12    1    1    2    0    0 -0.56210406391E+01  0.19210792786E+02  0.40354216709E+02  0.45045681963E+02  0.00000000000E+00 0. -1.
         11    1    3    3    0    0  0.13934275194E+01 -0.71449402805E+01 -0.96186518558E+01  0.12062764014E+02  0.51100000000E-03 0. -1.
        -11    1    3    3    0    0  0.11860931243E+01 -0.86880811347E+01 -0.12388034962E+02  0.15177383871E+02  0.51100000000E-03 0.  1.
        -12    1    3    3    0    0  0.30415199954E+01 -0.33777713704E+01 -0.18347529892E+02  0.18902170152E+02  0.00000000000E+00 0.  1.
</event>
<event>
 7    1  0.1466590E-008  0.4614232E+02  0.7816164E-02  0.1320468E+00
        -11   -1    0    0    0    0  0.00000000000E+00  0.00000000000E+00  0.45593999997E+02  0.45594000000E+02  0.51100000000E-03 0.  1.
         11   -1    0    0    0    0 -0.00000000000E+00 -0.00000000000E+00 -0.45593999997E+02  0.45594000000E+02  0.51100000000E-03 0. -1.
    9900012    2    1    2    0    0  0.56198818859E+01 -0.44268598734E+02  0.61499373144E+01  0.46142316131E+02  0.99999851311E+01 0.  0.
         12    1    1    2    0    0 -0.56198818859E+01  0.44268598734E+02 -0.61499373144E+01  0.45045683869E+02  0.00000000000E+00 0. -1.
         11    1    3    3    0    0  0.61770312707E+01 -0.25417905516E+02  0.38047786721E+01  0.26432971402E+02  0.51100000000E-03 0. -1.
        -11    1    3    3    0    0 -0.27787472749E+01 -0.93015604672E+01  0.19211691442E+01  0.98960272173E+01  0.51100000000E-03 0.  1.
        -12    1    3    3    0    0  0.22215978901E+01 -0.95491327513E+01  0.42398949809E+00  0.98133175115E+01  0.00000000000E+00 0.  1.
</event>
<event>
 7    1  0.1466590E-008  0.4614232E+02  0.7816164E-02  0.1320468E+00
        -11   -1    0    0    0    0  0.00000000000E+00  0.00000000000E+00  0.45593999997E+02  0.45594000000E+02  0.51100000000E-03 0. -1.
         11   -1    0    0    0    0 -0.00000000000E+00 -0.00000000000E+00 -0.45593999997E+02  0.45594000000E+02  0.51100000000E-03 0.  1.
    9900012    2    1    2    0    0 -0.29207854799E+00 -0.19686147282E+02 -0.40515228912E+02  0.46142317871E+02  0.10000000999E+02 0.  0.
         12    1    1    2    0    0  0.29207854799E+00  0.19686147282E+02  0.40515228912E+02  0.45045682129E+02  0.00000000000E+00 0. -1.
         11    1    3    3    0    0 -0.27731595538E+00 -0.18983977161E+00 -0.91876638317E+01  0.91938082546E+01  0.51100000000E-03 0. -1.
        -11    1    3    3    0    0  0.55955872127E+00 -0.16439998214E+02 -0.25553661964E+02  0.30390397945E+02  0.51100000000E-03 0.  1.
         12    1    3    3    0    0 -0.57432131387E+00 -0.30563092965E+01 -0.57739031170E+01  0.65581116712E+01  0.00000000000E+00 0. -1.
</event>
<event>
 7    1  0.1466590E-008  0.4614232E+02  0.7816164E-02  0.1320468E+00
        -11   -1    0    0    0    0  0.00000000000E+00  0.00000000000E+00  0.45593999997E+02  0.45594000000E+02  0.51100000000E-03 0.  1.
         11   -1    0    0    0    0 -0.00000000000E+00 -0.00000000000E+00 -0.45593999997E+02  0.45594000000E+02  0.51100000000E-03 0. -1.
    9900012    2    1    2    0    0  0.41098170228E+02  0.12473804447E+02  0.13581533749E+02  0.46142318160E+02  0.10000003640E+02 0.  0.
         12    1    1    2    0    0 -0.41098170228E+02 -0.12473804447E+02 -0.13581533749E+02  0.45045681840E+02  0.00000000000E+00 0. -1.
         11    1    3    3    0    0  0.33229074884E+02  0.90298793279E+01  0.11481368360E+02  0.36297823048E+02  0.51100000000E-03 0. -1.
        -11    1    3    3    0    0  0.66260952105E+01  0.36081637875E+01  0.31821217999E+01  0.81883992982E+01  0.51100000000E-03 0.  1.
         12    1    3    3    0    0  0.12430001332E+01 -0.16423866867E+00 -0.10819564110E+01  0.16560958144E+01  0.00000000000E+00 0. -1.
</event>
<event>
 7    1  0.1466590E-008  0.4614232E+02  0.7816164E-02  0.1320468E+00
        -11   -1    0    0    0    0  0.00000000000E+00  0.00000000000E+00  0.45593999997E+02  0.45594000000E+02  0.51100000000E-03 0.  1.
         11   -1    0    0    0    0 -0.00000000000E+00 -0.00000000000E+00 -0.45593999997E+02  0.45594000000E+02  0.51100000000E-03 0. -1.
    9900012    2    1    2    0    0 -0.21796950759E+01  0.44992626557E+02 -0.16150797394E+00  0.46142316523E+02  0.99999887068E+01 0.  0.
         12    1    1    2    0    0  0.21796950759E+01 -0.44992626557E+02  0.16150797394E+00  0.45045683477E+02  0.00000000000E+00 0. -1.
         11    1    3    3    0    0  0.23125584882E+00  0.14910845201E+02 -0.31672294084E+01  0.15245265700E+02  0.51100000000E-03 0. -1.
        -11    1    3    3    0    0 -0.12354225493E+01  0.15880401848E+02 -0.13784679352E+01  0.15987920623E+02  0.51100000000E-03 0.  1.
         12    1    3    3    0    0 -0.11755283754E+01  0.14201379508E+02  0.43841893697E+01  0.14909130200E+02  0.00000000000E+00 0. -1.
</event>
<event>
 7    1  0.1466590E-008  0.4614232E+02  0.7816164E-02  0.1320468E+00
        -11   -1    0    0    0    0  0.00000000000E+00  0.00000000000E+00  0.45593999997E+02  0.45594000000E+02  0.51100000000E-03 0.  1.
         11   -1    0    0    0    0 -0.00000000000E+00 -0.00000000000E+00 -0.45593999997E+02  0.45594000000E+02  0.51100000000E-03 0. -1.
    9900012    2    1    2    0    0  0.42268669227E+02 -0.14292023814E+02  0.61815156122E+01  0.46142317874E+02  0.10000001028E+02 0.  0.
         12    1    1    2    0    0 -0.42268669227E+02  0.14292023814E+02 -0.61815156122E+01  0.45045682126E+02  0.00000000000E+00 0. -1.
         11    1    3    3    0    0  0.15361282875E-01  0.16933609819E+00 -0.43707918197E+00  0.46898737254E+00  0.51100000000E-03 0. -1.
        -11    1    3    3    0    0  0.22007031681E+02 -0.89013538446E+01  0.27703230530E+00  0.23740688508E+02  0.51100000000E-03 0.  1.
        -12    1    3    3    0    0  0.20246276263E+02 -0.55600060672E+01  0.63415624889E+01  0.21932641993E+02  0.00000000000E+00 0.  1.
</event>
<event>
 7    1  0.1466590E-008  0.4614232E+02  0.7816164E-02  0.1320468E+00
        -11   -1    0    0    0    0  0.00000000000E+00  0.00000000000E+00  0.45593999997E+02  0.45594000000E+02  0.51100000000E-03 0. -1.
         11   -1    0    0    0    0 -0.00000000000E+00 -0.00000000000E+00 -0.45593999997E+02  0.45594000000E+02  0.51100000000E-03 0.  1.
    9900012    2    1    2    0    0 -0.47136825950E+01  0.12821413031E+01 -0.44780023539E+02  0.46142320983E+02  0.10000029383E+02 0.  0.
         12    1    1    2    0    0  0.47136825950E+01 -0.12821413031E+01  0.44780023539E+02  0.45045679017E+02  0.00000000000E+00 0. -1.
         11    1    3    3    0    0 -0.17003793499E+01  0.21272188050E+01 -0.55567528506E+01  0.61882026697E+01  0.51100000000E-03 0. -1.
        -11    1    3    3    0    0 -0.42279863816E+01  0.15470216516E+01 -0.17670501519E+02  0.18235014917E+02  0.51100000000E-03 0.  1.
         12    1    3    3    0    0  0.12146831365E+01 -0.23920991535E+01 -0.21552769169E+02  0.21719103396E+02  0.00000000000E+00 0. -1.
</event>
<event>
 7    1  0.1466590E-008  0.4614232E+02  0.7816164E-02  0.1320468E+00
        -11   -1    0    0    0    0  0.00000000000E+00  0.00000000000E+00  0.45593999997E+02  0.45594000000E+02  0.51100000000E-03 0.  1.
         11   -1    0    0    0    0 -0.00000000000E+00 -0.00000000000E+00 -0.45593999997E+02  0.45594000000E+02  0.51100000000E-03 0. -1.
    9900012    2    1    2    0    0 -0.40880205420E+02 -0.17203097849E+02  0.78724698312E+01  0.46142317055E+02  0.99999935596E+01 0.  0.
         12    1    1    2    0    0  0.40880205420E+02  0.17203097849E+02 -0.78724698312E+01  0.45045682945E+02  0.00000000000E+00 0. -1.
         11    1    3    3    0    0 -0.85382340984E+01 -0.59902736158E+01 -0.97653918916E+00  0.10475612085E+02  0.51100000000E-03 0. -1.
        -11    1    3    3    0    0 -0.22224867382E+02 -0.89288248072E+01  0.80345219589E+01  0.25263059711E+02  0.51100000000E-03 0.  1.
        -12    1    3    3    0    0 -0.10117103939E+02 -0.22839994255E+01  0.81448706150E+00  0.10403645258E+02  0.00000000000E+00 0.  1.
</event>
<event>
 7    1  0.1466590E-008  0.4614232E+02  0.7816164E-02  0.1320468E+00
        -11   -1    0    0    0    0  0.00000000000E+00  0.00000000000E+00  0.45593999997E+02  0.45594000000E+02  0.51100000000E-03 0.  1.
         11   -1    0    0    0    0 -0.00000000000E+00 -0.00000000000E+00 -0.45593999997E+02  0.45594000000E+02  0.51100000000E-03 0. -1.
    9900012    2    1    2    0    0  0.40097987676E+02 -0.10143916145E+02 -0.17842808961E+02  0.46142317831E+02  0.10000000639E+02 0.  0.
         12    1    1    2    0    0 -0.40097987676E+02  0.10143916145E+02  0.17842808961E+02  0.45045682169E+02  0.00000000000E+00 0. -1.
         11    1    3    3    0    0  0.68519760074E+01 -0.19468093843E+01 -0.34925933503E+00  0.71317336131E+01  0.51100000000E-03 0. -1.
        -11    1    3    3    0    0  0.30075316221E+02 -0.56806018362E+01 -0.16764113327E+02  0.34897412210E+02  0.51100000000E-03 0.  1.
         12    1    3    3    0    0  0.31706954479E+01 -0.25165049244E+01 -0.72943629869E+00  0.41131720085E+01  0.00000000000E+00 0. -1.
</event>
<event>
 7    1  0.1466590E-008  0.4614232E+02  0.7816164E-02  0.1320468E+00
        -11   -1    0    0    0    0  0.00000000000E+00  0.00000000000E+00  0.45593999997E+02  0.45594000000E+02  0.51100000000E-03 0.  1.
         11   -1    0    0    0    0 -0.00000000000E+00 -0.00000000000E+00 -0.45593999997E+02  0.45594000000E+02  0.51100000000E-03 0. -1.
    9900012    2    1    2    0    0  0.19135384364E+02  0.56391489767E+01  0.40387501583E+02  0.46142320739E+02  0.10000027156E+02 0.  0.
         12    1    1    2    0    0 -0.19135384364E+02 -0.56391489767E+01 -0.40387501583E+02  0.45045679261E+02  0.00000000000E+00 0. -1.
         11    1    3    3    0    0  0.55788630385E+01  0.63936770714E+01  0.15468708758E+02  0.17643235820E+02  0.51100000000E-03 0. -1.
        -11    1    3    3    0    0  0.11188067265E+02 -0.12640273263E+01  0.18739122173E+02  0.21861503019E+02  0.51100000000E-03 0.  1.
         12    1    3    3    0    0  0.23684540609E+01  0.50949923164E+00  0.61796706527E+01  0.66375819002E+01  0.00000000000E+00 0. -1.
</event>
<event>
 7    1  0.1466590E-008  0.4614232E+02  0.7816164E-02  0.1320468E+00
        -11   -1    0    0    0    0  0.00000000000E+00  0.00000000000E+00  0.45593999997E+02  0.45594000000E+02  0.51100000000E-03 0.  1.
         11   -1    0    0    0    0 -0.00000000000E+00 -0.00000000000E+00 -0.45593999997E+02  0.45594000000E+02  0.51100000000E-03 0. -1.
    9900012    2    1    2    0    0 -0.38019241921E+02  0.24151215997E+01  0.24037844183E+02  0.46142317393E+02  0.99999966409E+01 0.  0.
         12    1    1    2    0    0  0.38019241921E+02 -0.24151215997E+01 -0.24037844183E+02  0.45045682607E+02  0.00000000000E+00 0. -1.
         11    1    3    3    0    0 -0.64686454339E+01  0.32244070968E+01  0.66001168680E+01  0.97878351951E+01  0.51100000000E-03 0. -1.
        -11    1    3    3    0    0 -0.17741423053E+02 -0.18673445775E+01  0.11869910432E+02  0.21427548661E+02  0.51100000000E-03 0.  1.
        -12    1    3    3    0    0 -0.13809173434E+02  0.10580590805E+01  0.55678168836E+01  0.14926933536E+02  0.00000000000E+00 0.  1.
</event>
<event>
 7    1  0.1466590E-008  0.4614232E+02  0.7816164E-02  0.1320468E+00
        -11   -1    0    0    0    0  0.00000000000E+00  0.00000000000E+00  0.45593999997E+02  0.45594000000E+02  0.51100000000E-03 0. -1.
         11   -1    0    0    0    0 -0.00000000000E+00 -0.00000000000E+00 -0.45593999997E+02  0.45594000000E+02  0.51100000000E-03 0.  1.
    9900012    2    1    2    0    0 -0.14285487272E+02  0.21393867212E+00 -0.42719932708E+02  0.46142316889E+02  0.99999920488E+01 0.  0.
         12    1    1    2    0    0  0.14285487272E+02 -0.21393867212E+00  0.42719932708E+02  0.45045683111E+02  0.00000000000E+00 0. -1.
         11    1    3    3    0    0 -0.20492126599E+01  0.36305000773E+01 -0.10493018709E+02  0.11290847852E+02  0.51100000000E-03 0. -1.
        -11    1    3    3    0    0 -0.11634659188E+02 -0.22644081070E+01 -0.27426044865E+02  0.29877763900E+02  0.51100000000E-03 0.  1.
        -12    1    3    3    0    0 -0.60161542391E+00 -0.11521532982E+01 -0.48008691341E+01  0.49737051364E+01  0.00000000000E+00 0.  1.
</event>
<event>
 7    1  0.1466590E-008  0.4614232E+02  0.7816164E-02  0.1320468E+00
        -11   -1    0    0    0    0  0.00000000000E+00  0.00000000000E+00  0.45593999997E+02  0.45594000000E+02  0.51100000000E-03 0.  1.
         11   -1    0    0    0    0 -0.00000000000E+00 -0.00000000000E+00 -0.45593999997E+02  0.45594000000E+02  0.51100000000E-03 0. -1.
    9900012    2    1    2    0    0 -0.32153780275E+02 -0.26195816625E+02  0.17579167151E+02  0.46142317495E+02  0.99999975764E+01 0.  0.
         12    1    1    2    0    0  0.32153780275E+02  0.26195816625E+02 -0.17579167151E+02  0.45045682505E+02  0.00000000000E+00 0. -1.
         11    1    3    3    0    0 -0.59100293178E+01 -0.49906781393E+01  0.77320125589E+01  0.10937062371E+02  0.51100000000E-03 0. -1.
        -11    1    3    3    0    0 -0.65094712281E+01 -0.59793760751E+01  0.18689679813E+01  0.90343342584E+01  0.51100000000E-03 0.  1.
         12    1    3    3    0    0 -0.19734279729E+02 -0.15225762411E+02  0.79781866104E+01  0.26170920866E+02  0.00000000000E+00 0. -1.
</event>
<event>
 7    1  0.1466590E-008  0.4614232E+02  0.7816164E-02  0.1320468E+00
        -11   -1    0    0    0    0  0.00000000000E+00  0.00000000000E+00  0.45593999997E+02  0.45594000000E+02  0.51100000000E-03 0. -1.
         11   -1    0    0    0    0 -0.00000000000E+00 -0.00000000000E+00 -0.45593999997E+02  0.45594000000E+02  0.51100000000E-03 0.  1.
    9900012    2    1    2    0    0  0.40844901570E+02 -0.15680512981E+02  0.10720492956E+02  0.46142318289E+02  0.10000004812E+02 0.  0.
         12    1    1    2    0    0 -0.40844901570E+02  0.15680512981E+02 -0.10720492956E+02  0.45045681711E+02  0.00000000000E+00 0. -1.
         11    1    3    3    0    0  0.11178282299E+02 -0.35696223485E+01  0.70079566606E+01  0.13667759717E+02  0.51100000000E-03 0. -1.
        -11    1    3    3    0    0  0.14574317824E+02 -0.76964730487E+01  0.94972544856E+00  0.16509040436E+02  0.51100000000E-03 0.  1.
         12    1    3    3    0    0  0.15092301447E+02 -0.44144175840E+01  0.27628108469E+01  0.15965518136E+02  0.00000000000E+00 0. -1.
</event>
<event>
 7    1  0.1466590E-008  0.4614232E+02  0.7816164E-02  0.1320468E+00
        -11   -1    0    0    0    0  0.00000000000E+00  0.00000000000E+00  0.45593999997E+02  0.45594000000E+02  0.51100000000E-03 0. -1.
         11   -1    0    0    0    0 -0.00000000000E+00 -0.00000000000E+00 -0.45593999997E+02  0.45594000000E+02  0.51100000000E-03 0.  1.
    9900012    2    1    2    0    0  0.29136350403E+02 -0.34084831245E+02  0.42908030354E+01  0.46142316228E+02  0.99999860155E+01 0.  0.
         12    1    1    2    0    0 -0.29136350403E+02  0.34084831245E+02 -0.42908030354E+01  0.45045683772E+02  0.00000000000E+00 0. -1.
         11    1    3    3    0    0  0.15298627040E+01 -0.48548545960E+01  0.19834698915E+00  0.50940587777E+01  0.51100000000E-03 0. -1.
        -11    1    3    3    0    0  0.24422317789E+02 -0.27943947807E+02  0.51201495855E+01  0.37463712539E+02  0.51100000000E-03 0.  1.
        -12    1    3    3    0    0  0.31841699107E+01 -0.12860288423E+01 -0.10276935392E+01  0.35845449103E+01  0.00000000000E+00 0.  1.
</event>
<event>
 7    1  0.1466590E-008  0.4614232E+02  0.7816164E-02  0.1320468E+00
        -11   -1    0    0    0    0  0.00000000000E+00  0.00000000000E+00  0.45593999997E+02  0.45594000000E+02  0.51100000000E-03 0.  1.
         11   -1    0    0    0    0 -0.00000000000E+00 -0.00000000000E+00 -0.45593999997E+02  0.45594000000E+02  0.51100000000E-03 0. -1.
    9900012    2    1    2    0    0 -0.20508960108E+02  0.22165138679E+02  0.33424581399E+02  0.46142318087E+02  0.10000002968E+02 0.  0.
         12    1    1    2    0    0  0.20508960108E+02 -0.22165138679E+02 -0.33424581399E+02  0.45045681913E+02  0.00000000000E+00 0. -1.
         11    1    3    3    0    0 -0.96142811800E+01  0.16167518458E+02  0.20776359495E+02  0.28026419140E+02  0.51100000000E-03 0. -1.
        -11    1    3    3    0    0 -0.45867115033E+01  0.58140598030E+00  0.51375693572E+01  0.69116260380E+01  0.51100000000E-03 0.  1.
        -12    1    3    3    0    0 -0.63079674245E+01  0.54162142411E+01  0.75106525469E+01  0.11204272909E+02  0.00000000000E+00 0.  1.
</event>
<event>
 7    1  0.1466590E-008  0.4614232E+02  0.7816164E-02  0.1320468E+00
        -11   -1    0    0    0    0  0.00000000000E+00  0.00000000000E+00  0.45593999997E+02  0.45594000000E+02  0.51100000000E-03 0.  1.
         11   -1    0    0    0    0 -0.00000000000E+00 -0.00000000000E+00 -0.45593999997E+02  0.45594000000E+02  0.51100000000E-03 0. -1.
    9900012    2    1    2    0    0  0.26468125316E+02 -0.14535644608E+02  0.33425540996E+02  0.46142318600E+02  0.10000007646E+02 0.  0.
         12    1    1    2    0    0 -0.26468125316E+02  0.14535644608E+02 -0.33425540996E+02  0.45045681400E+02  0.00000000000E+00 0. -1.
         11    1    3    3    0    0  0.41433352339E-01 -0.27599932866E+01  0.27336982806E+01  0.38848920468E+01  0.51100000000E-03 0. -1.
        -11    1    3    3    0    0  0.15266226430E+02 -0.54050733490E+01  0.17287655804E+02  0.23688299449E+02  0.51100000000E-03 0.  1.
         12    1    3    3    0    0  0.11160465534E+02 -0.63705779724E+01  0.13404186912E+02  0.18569127104E+02  0.00000000000E+00 0. -1.
</event>
<event>
 7    1  0.1466590E-008  0.4614232E+02  0.7816164E-02  0.1320468E+00
        -11   -1    0    0    0    0  0.00000000000E+00  0.00000000000E+00  0.45593999997E+02  0.45594000000E+02  0.51100000000E-03 0.  1.
         11   -1    0    0    0    0 -0.00000000000E+00 -0.00000000000E+00 -0.45593999997E+02  0.45594000000E+02  0.51100000000E-03 0. -1.
    9900012    2    1    2    0    0  0.37831963518E+02 -0.11593495877E+02  0.21527817842E+02  0.46142317062E+02  0.99999936280E+01 0.  0.
         12    1    1    2    0    0 -0.37831963518E+02  0.11593495877E+02 -0.21527817842E+02  0.45045682938E+02  0.00000000000E+00 0. -1.
         11    1    3    3    0    0  0.32297045511E+01 -0.14248104113E+01  0.36684765065E+00  0.35490355951E+01  0.51100000000E-03 0. -1.
        -11    1    3    3    0    0  0.48237518129E+01  0.13359085225E+01  0.22395154151E+01  0.54834900099E+01  0.51100000000E-03 0.  1.
        -12    1    3    3    0    0  0.29778507154E+02 -0.11504593988E+02  0.18921454776E+02  0.37109791457E+02  0.00000000000E+00 0.  1.
</event>
<event>
 7    1  0.1466590E-008  0.4614232E+02  0.7816164E-02  0.1320468E+00
        -11   -1    0    0    0    0  0.00000000000E+00  0.00000000000E+00  0.45593999997E+02  0.45594000000E+02  0.51100000000E-03 0. -1.
         11   -1    0    0    0    0 -0.00000000000E+00 -0.00000000000E+00 -0.45593999997E+02  0.45594000000E+02  0.51100000000E-03 0.  1.
    9900012    2    1    2    0    0 -0.54212958601E+00  0.42626725881E+02 -0.14552727813E+02  0.46142317070E+02  0.99999936968E+01 0.  0.
         12    1    1    2    0    0  0.54212958601E+00 -0.42626725881E+02  0.14552727813E+02  0.45045682930E+02  0.00000000000E+00 0. -1.
         11    1    3    3    0    0  0.13067025943E+01  0.13211912239E+02 -0.10050529564E+01  0.13314361735E+02  0.51100000000E-03 0. -1.
        -11    1    3    3    0    0 -0.26543353593E+01  0.27242531821E+02 -0.11339699268E+02  0.29627517884E+02  0.51100000000E-03 0.  1.
         12    1    3    3    0    0  0.80550317897E+00  0.21722818211E+01 -0.22079755886E+01  0.32004374516E+01  0.00000000000E+00 0. -1.
</event>
<event>
 7    1  0.1466590E-008  0.4614232E+02  0.7816164E-02  0.1320468E+00
        -11   -1    0    0    0    0  0.00000000000E+00  0.00000000000E+00  0.45593999997E+02  0.45594000000E+02  0.51100000000E-03 0.  1.
         11   -1    0    0    0    0 -0.00000000000E+00 -0.00000000000E+00 -0.45593999997E+02  0.45594000000E+02  0.51100000000E-03 0. -1.
    9900012    2    1    2    0    0  0.44941230145E+02 -0.22403431829E+01  0.20928901688E+01  0.46142317701E+02  0.99999994543E+01 0.  0.
         12    1    1    2    0    0 -0.44941230145E+02  0.22403431829E+01 -0.20928901688E+01  0.45045682299E+02  0.00000000000E+00 0. -1.
         11    1    3    3    0    0  0.11595615852E+02 -0.16318189746E+01  0.43468105137E+01  0.12490632572E+02  0.51100000000E-03 0. -1.
        -11    1    3    3    0    0  0.23302190233E+02 -0.18629188422E+01 -0.51685416669E+00  0.23382251277E+02  0.51100000000E-03 0.  1.
         12    1    3    3    0    0  0.10043424060E+02  0.12543946339E+01 -0.17370661783E+01  0.10269433852E+02  0.00000000000E+00 0. -1.
</event>
<event>
 7    1  0.1466590E-008  0.4614232E+02  0.7816164E-02  0.1320468E+00
        -11   -1    0    0    0    0  0.00000000000E+00  0.00000000000E+00  0.45593999997E+02  0.45594000000E+02  0.51100000000E-03 0.  1.
         11   -1    0    0    0    0 -0.00000000000E+00 -0.00000000000E+00 -0.45593999997E+02  0.45594000000E+02  0.51100000000E-03 0. -1.
    9900012    2    1    2    0    0 -0.21322413659E+02 -0.15296845033E+02  0.36612493176E+02  0.46142318200E+02  0.10000004006E+02 0.  0.
         12    1    1    2    0    0  0.21322413659E+02  0.15296845033E+02 -0.36612493176E+02  0.45045681800E+02  0.00000000000E+00 0. -1.
         11    1    3    3    0    0 -0.33668318663E+01 -0.44970333955E+01  0.36854849431E+01  0.67187547733E+01  0.51100000000E-03 0. -1.
        -11    1    3    3    0    0 -0.14676478664E+02 -0.66198740209E+01  0.21878702479E+02  0.27164303423E+02  0.51100000000E-03 0.  1.
        -12    1    3    3    0    0 -0.32791031279E+01 -0.41799376167E+01  0.11048305754E+02  0.12259260004E+02  0.00000000000E+00 0.  1.
</event>
<event>
 7    1  0.1466590E-008  0.4614232E+02  0.7816164E-02  0.1320468E+00
        -11   -1    0    0    0    0  0.00000000000E+00  0.00000000000E+00  0.45593999997E+02  0.45594000000E+02  0.51100000000E-03 0. -1.
         11   -1    0    0    0    0 -0.00000000000E+00 -0.00000000000E+00 -0.45593999997E+02  0.45594000000E+02  0.51100000000E-03 0.  1.
    9900012    2    1    2    0    0  0.56450092977E+01  0.56882419185E+01 -0.44327091609E+02  0.46142320112E+02  0.10000021437E+02 0.  0.
         12    1    1    2    0    0 -0.56450092977E+01 -0.56882419185E+01  0.44327091609E+02  0.45045679888E+02  0.00000000000E+00 0. -1.
         11    1    3    3    0    0  0.10448881365E+01 -0.18117907092E+01 -0.13436206078E+02  0.13598014959E+02  0.51100000000E-03 0. -1.
        -11    1    3    3    0    0  0.14503212926E+01  0.45283557860E+01 -0.23517211462E+02  0.23993096365E+02  0.51100000000E-03 0.  1.
         12    1    3    3    0    0  0.31497998685E+01  0.29716768418E+01 -0.73736740689E+01  0.85512087881E+01  0.00000000000E+00 0. -1.
</event>
<event>
 7    1  0.1466590E-008  0.4614232E+02  0.7816164E-02  0.1320468E+00
        -11   -1    0    0    0    0  0.00000000000E+00  0.00000000000E+00  0.45593999997E+02  0.45594000000E+02  0.51100000000E-03 0. -1.
         11   -1    0    0    0    0 -0.00000000000E+00 -0.00000000000E+00 -0.45593999997E+02  0.45594000000E+02  0.51100000000E-03 0.  1.
    9900012    2    1    2    0    0 -0.34437077764E+02 -0.27349873367E+02 -0.97563104563E+01  0.46142317723E+02  0.99999996494E+01 0.  0.
         12    1    1    2    0    0  0.34437077764E+02  0.27349873367E+02  0.97563104563E+01  0.45045682277E+02  0.00000000000E+00 0. -1.
         11    1    3    3    0    0 -0.16209523791E+01 -0.45175292938E+01 -0.26059356819E+01  0.54613605058E+01  0.51100000000E-03 0. -1.
        -11    1    3    3    0    0 -0.26390059283E+02 -0.19468402448E+02 -0.59057928358E+01  0.33321649301E+02  0.51100000000E-03 0.  1.
         12    1    3    3    0    0 -0.64260661020E+01 -0.33639416254E+01 -0.12445819386E+01  0.73593079164E+01  0.00000000000E+00 0. -1.
</event>
<event>
 7    1  0.1466590E-008  0.4614232E+02  0.7816164E-02  0.1320468E+00
        -11   -1    0    0    0    0  0.00000000000E+00  0.00000000000E+00  0.45593999997E+02  0.45594000000E+02  0.51100000000E-03 0.  1.
         11   -1    0    0    0    0 -0.00000000000E+00 -0.00000000000E+00 -0.45593999997E+02  0.45594000000E+02  0.51100000000E-03 0. -1.
    9900012    2    1    2    0    0 -0.44356801590E+02  0.54931145772E+01  0.56047548727E+01  0.46142318384E+02  0.10000005680E+02 0.  0.
         12    1    1    2    0    0  0.44356801590E+02 -0.54931145772E+01 -0.56047548727E+01  0.45045681616E+02  0.00000000000E+00 0. -1.
         11    1    3    3    0    0 -0.16483667587E+02 -0.16104242795E+00  0.13655855216E+01  0.16540920647E+02  0.51100000000E-03 0. -1.
        -11    1    3    3    0    0 -0.49572407880E+01 -0.86002596949E+00  0.27435744777E+01  0.57307139236E+01  0.51100000000E-03 0.  1.
        -12    1    3    3    0    0 -0.22915893215E+02  0.65141829746E+01  0.14955948733E+01  0.23870683813E+02  0.00000000000E+00 0.  1.
</event>
<event>
 7    1  0.1466590E-008  0.4614232E+02  0.7816164E-02  0.1320468E+00
        -11   -1    0    0    0    0  0.00000000000E+00  0.00000000000E+00  0.45593999997E+02  0.45594000000E+02  0.51100000000E-03 0.  1.
         11   -1    0    0    0    0 -0.00000000000E+00 -0.00000000000E+00 -0.45593999997E+02  0.45594000000E+02  0.51100000000E-03 0. -1.
    9900012    2    1    2    0    0  0.54536973619E+01 -0.84142548410E+00  0.44706405478E+02  0.46142317604E+02  0.99999985685E+01 0.  0.
         12    1    1    2    0    0 -0.54536973619E+01  0.84142548410E+00 -0.44706405478E+02  0.45045682396E+02  0.00000000000E+00 0. -1.
         11    1    3    3    0    0  0.40172889635E+01 -0.61541792173E+00  0.20477181781E+02  0.20876597514E+02  0.51100000000E-03 0. -1.
        -11    1    3    3    0    0  0.18222331125E-01  0.25073543647E+01  0.19240081895E+02  0.19402780975E+02  0.51100000000E-03 0.  1.
         12    1    3    3    0    0  0.14181860673E+01 -0.27333619270E+01  0.49891418021E+01  0.58629391151E+01  0.00000000000E+00 0. -1.
</event>
<event>
 7    1  0.1466590E-008  0.4614232E+02  0.7816164E-02  0.1320468E+00
        -11   -1    0    0    0    0  0.00000000000E+00  0.00000000000E+00  0.45593999997E+02  0.45594000000E+02  0.51100000000E-03 0. -1.
         11   -1    0    0    0    0 -0.00000000000E+00 -0.00000000000E+00 -0.45593999997E+02  0.45594000000E+02  0.51100000000E-03 0.  1.
    9900012    2    1    2    0    0 -0.45965144455E+01 -0.44163068238E+02 -0.75900535095E+01  0.46142318148E+02  0.10000003525E+02 0.  0.
         12    1    1    2    0    0  0.45965144455E+01  0.44163068238E+02  0.75900535095E+01  0.45045681852E+02  0.00000000000E+00 0. -1.
         11    1    3    3    0    0 -0.32889816115E+01 -0.30738946963E+02 -0.42961840628E+01  0.31211495610E+02  0.51100000000E-03 0.  1.
        -11    1    3    3    0    0 -0.16444619301E+01 -0.72908512668E+01 -0.44240226674E+01  0.86852025916E+01  0.51100000000E-03 0. -1.
         12    1    3    3    0    0  0.33692909611E+00 -0.61332700083E+01  0.11301532207E+01  0.62456199462E+01  0.00000000000E+00 0. -1.
</event>
<event>
 7    1  0.1466590E-008  0.4614232E+02  0.7816164E-02  0.1320468E+00
        -11   -1    0    0    0    0  0.00000000000E+00  0.00000000000E+00  0.45593999997E+02  0.45594000000E+02  0.51100000000E-03 0.  1.
         11   -1    0    0    0    0 -0.00000000000E+00 -0.00000000000E+00 -0.45593999997E+02  0.45594000000E+02  0.51100000000E-03 0. -1.
    9900012    2    1    2    0    0 -0.38772151431E+02 -0.96931917803E+01  0.20781622154E+02  0.46142317490E+02  0.99999975234E+01 0.  0.
         12    1    1    2    0    0  0.38772151431E+02  0.96931917803E+01 -0.20781622154E+02  0.45045682510E+02  0.00000000000E+00 0. -1.
         11    1    3    3    0    0 -0.80445577630E+01 -0.21995868111E+01  0.66247784594E+01  0.10650858258E+02  0.51100000000E-03 0. -1.
        -11    1    3    3    0    0 -0.26910523593E+02 -0.90267450289E+01  0.11706093992E+02  0.30703274137E+02  0.51100000000E-03 0.  1.
        -12    1    3    3    0    0 -0.38170700748E+01  0.15331400597E+01  0.24507497017E+01  0.47881850945E+01  0.00000000000E+00 0.  1.
</event>
<event>
 7    1  0.1466590E-008  0.4614232E+02  0.7816164E-02  0.1320468E+00
        -11   -1    0    0    0    0  0.00000000000E+00  0.00000000000E+00  0.45593999997E+02  0.45594000000E+02  0.51100000000E-03 0. -1.
         11   -1    0    0    0    0 -0.00000000000E+00 -0.00000000000E+00 -0.45593999997E+02  0.45594000000E+02  0.51100000000E-03 0.  1.
    9900012    2    1    2    0    0 -0.24164457247E+02  0.25137720013E+02 -0.28518195932E+02  0.46142318068E+02  0.10000002801E+02 0.  0.
         12    1    1    2    0    0  0.24164457247E+02 -0.25137720013E+02  0.28518195932E+02  0.45045681932E+02  0.00000000000E+00 0. -1.
         11    1    3    3    0    0 -0.65444391910E+01  0.10482105911E+02 -0.80406799206E+01  0.14743024198E+02  0.51100000000E-03 0. -1.
        -11    1    3    3    0    0 -0.98619207318E+01  0.11969510605E+02 -0.12111328552E+02  0.19677676291E+02  0.51100000000E-03 0.  1.
        -12    1    3    3    0    0 -0.77580973239E+01  0.26861034971E+01 -0.83661874588E+01  0.11721617580E+02  0.00000000000E+00 0.  1.
</event>
<event>
 7    1  0.1466590E-008  0.4614232E+02  0.7816164E-02  0.1320468E+00
        -11   -1    0    0    0    0  0.00000000000E+00  0.00000000000E+00  0.45593999997E+02  0.45594000000E+02  0.51100000000E-03 0. -1.
         11   -1    0    0    0    0 -0.00000000000E+00 -0.00000000000E+00 -0.45593999997E+02  0.45594000000E+02  0.51100000000E-03 0.  1.
    9900012    2    1    2    0    0 -0.44460897436E+02 -0.58127013130E+01 -0.43074718300E+01  0.46142320840E+02  0.10000028077E+02 0.  0.
         12    1    1    2    0    0  0.44460897436E+02  0.58127013130E+01  0.43074718300E+01  0.45045679160E+02  0.00000000000E+00 0. -1.
         11    1    3    3    0    0 -0.85883308722E+01 -0.11350681647E+01 -0.30649901759E+01  0.91892313034E+01  0.51100000000E-03 0. -1.
        -11    1    3    3    0    0 -0.28365523031E+02 -0.22602212797E+01 -0.36939609875E+01  0.28694195320E+02  0.51100000000E-03 0.  1.
        -12    1    3    3    0    0 -0.75070435336E+01 -0.24174118686E+01  0.24514793334E+01  0.82588942165E+01  0.00000000000E+00 0.  1.
</event>
<event>
 7    1  0.1466590E-008  0.4614232E+02  0.7816164E-02  0.1320468E+00
        -11   -1    0    0    0    0  0.00000000000E+00  0.00000000000E+00  0.45593999997E+02  0.45594000000E+02  0.51100000000E-03 0.  1.
         11   -1    0    0    0    0 -0.00000000000E+00 -0.00000000000E+00 -0.45593999997E+02  0.45594000000E+02  0.51100000000E-03 0. -1.
    9900012    2    1    2    0    0 -0.30746874847E+02 -0.19450374780E+02  0.26559860040E+02  0.46142316996E+02  0.99999930254E+01 0.  0.
         12    1    1    2    0    0  0.30746874847E+02  0.19450374780E+02 -0.26559860040E+02  0.45045683004E+02  0.00000000000E+00 0. -1.
         11    1    3    3    0    0  0.80102459642E-02  0.13356159450E+00  0.17187374795E+01  0.17239378318E+01  0.51100000000E-03 0. -1.
        -11    1    3    3    0    0 -0.23619874801E+02 -0.13162972032E+02  0.16321954224E+02  0.31584307944E+02  0.51100000000E-03 0.  1.
        -12    1    3    3    0    0 -0.71350102916E+01 -0.64209643426E+01  0.85191683364E+01  0.12834071221E+02  0.00000000000E+00 0.  1.
</event>
<event>
 7    1  0.1466590E-008  0.4614232E+02  0.7816164E-02  0.1320468E+00
        -11   -1    0    0    0    0  0.00000000000E+00  0.00000000000E+00  0.45593999997E+02  0.45594000000E+02  0.51100000000E-03 0.  1.
         11   -1    0    0    0    0 -0.00000000000E+00 -0.00000000000E+00 -0.45593999997E+02  0.45594000000E+02  0.51100000000E-03 0. -1.
    9900012    2    1    2    0    0  0.39438894664E+02  0.89344343798E+01  0.19845979934E+02  0.46142318192E+02  0.10000003931E+02 0.  0.
         12    1    1    2    0    0 -0.39438894664E+02 -0.89344343798E+01 -0.19845979934E+02  0.45045681808E+02  0.00000000000E+00 0. -1.
         11    1    3    3    0    0  0.22262433636E+02  0.51458636436E+01  0.95954287441E+01  0.24782415481E+02  0.51100000000E-03 0. -1.
        -11    1    3    3    0    0  0.76057671645E+01 -0.92514489864E+00  0.21299137059E+01  0.79523656794E+01  0.51100000000E-03 0.  1.
        -12    1    3    3    0    0  0.95706938637E+01  0.47137156348E+01  0.81206374838E+01  0.13407537032E+02  0.00000000000E+00 0.  1.
</event>
<event>
 7    1  0.1466590E-008  0.4614232E+02  0.7816164E-02  0.1320468E+00
        -11   -1    0    0    0    0  0.00000000000E+00  0.00000000000E+00  0.45593999997E+02  0.45594000000E+02  0.51100000000E-03 0.  1.
         11   -1    0    0    0    0 -0.00000000000E+00 -0.00000000000E+00 -0.45593999997E+02  0.45594000000E+02  0.51100000000E-03 0. -1.
    9900012    2    1    2    0    0 -0.25296034666E+02  0.55761676373E+01  0.36852821820E+02  0.46142317727E+02  0.99999996895E+01 0.  0.
         12    1    1    2    0    0  0.25296034666E+02 -0.55761676373E+01 -0.36852821820E+02  0.45045682273E+02  0.00000000000E+00 0. -1.
         11    1    3    3    0    0 -0.20204128618E+02  0.76651259362E+01  0.26948621086E+02  0.34542570077E+02  0.51100000000E-03 0. -1.
        -11    1    3    3    0    0 -0.16864863609E+01 -0.13571152539E+01  0.19386061636E+01  0.29058892230E+01  0.51100000000E-03 0.  1.
         12    1    3    3    0    0 -0.34054196870E+01 -0.73184304498E+00  0.79655945709E+01  0.86938584274E+01  0.00000000000E+00 0. -1.
</event>
<event>
 7    1  0.1466590E-008  0.4614232E+02  0.7816164E-02  0.1320468E+00
        -11   -1    0    0    0    0  0.00000000000E+00  0.00000000000E+00  0.45593999997E+02  0.45594000000E+02  0.51100000000E-03 0. -1.
         11   -1    0    0    0    0 -0.00000000000E+00 -0.00000000000E+00 -0.45593999997E+02  0.45594000000E+02  0.51100000000E-03 0.  1.
    9900012    2    1    2    0    0  0.27539856240E+02 -0.34072855275E+02  0.10474269049E+02  0.46142318072E+02  0.10000002831E+02 0.  0.
         12    1    1    2    0    0 -0.27539856240E+02  0.34072855275E+02 -0.10474269049E+02  0.45045681928E+02  0.00000000000E+00 0. -1.
         11    1    3    3    0    0  0.11322043066E+02 -0.16898831751E+02  0.58654146212E+01  0.21169843237E+02  0.51100000000E-03 0. -1.
        -11    1    3    3    0    0  0.99859978122E+01 -0.62093180662E+01  0.74799727987E+00  0.11782838510E+02  0.51100000000E-03 0.  1.
        -12    1    3    3    0    0  0.62318153618E+01 -0.10964705457E+02  0.38608571475E+01  0.13189636325E+02  0.00000000000E+00 0.  1.
</event>
<event>
 7    1  0.1466590E-008  0.4614232E+02  0.7816164E-02  0.1320468E+00
        -11   -1    0    0    0    0  0.00000000000E+00  0.00000000000E+00  0.45593999997E+02  0.45594000000E+02  0.51100000000E-03 0.  1.
         11   -1    0    0    0    0 -0.00000000000E+00 -0.00000000000E+00 -0.45593999997E+02  0.45594000000E+02  0.51100000000E-03 0. -1.
    9900012    2    1    2    0    0 -0.20255574301E+02  0.34482897806E+02  0.20730532997E+02  0.46142317303E+02  0.99999958181E+01 0.  0.
         12    1    1    2    0    0  0.20255574301E+02 -0.34482897806E+02 -0.20730532997E+02  0.45045682697E+02  0.00000000000E+00 0. -1.
         11    1    3    3    0    0 -0.10204157262E+02  0.23622219882E+02  0.14373685441E+02  0.29474343606E+02  0.51100000000E-03 0.  1.
        -11    1    3    3    0    0 -0.28077147166E+01  0.20600575415E+01 -0.25334426948E+00  0.34916017218E+01  0.51100000000E-03 0. -1.
        -12    1    3    3    0    0 -0.72437023220E+01  0.88006203818E+01  0.66101918260E+01  0.13176371975E+02  0.00000000000E+00 0.  1.
</event>
<event>
 7    1  0.1466590E-008  0.4614232E+02  0.7816164E-02  0.1320468E+00
        -11   -1    0    0    0    0  0.00000000000E+00  0.00000000000E+00  0.45593999997E+02  0.45594000000E+02  0.51100000000E-03 0. -1.
         11   -1    0    0    0    0 -0.00000000000E+00 -0.00000000000E+00 -0.45593999997E+02  0.45594000000E+02  0.51100000000E-03 0.  1.
    9900012    2    1    2    0    0  0.95819626054E+01 -0.68893961067E+01 -0.43472239894E+02  0.46142318437E+02  0.10000006163E+02 0.  0.
         12    1    1    2    0    0 -0.95819626054E+01  0.68893961067E+01  0.43472239894E+02  0.45045681563E+02  0.00000000000E+00 0. -1.
         11    1    3    3    0    0  0.83118155361E-01  0.61559252511E+00 -0.72026849396E+01  0.72294213728E+01  0.51100000000E-03 0. -1.
        -11    1    3    3    0    0  0.27426927786E+01 -0.11572778139E+01 -0.24794076563E+01  0.38741603224E+01  0.51100000000E-03 0.  1.
        -12    1    3    3    0    0  0.67561516715E+01 -0.63477108178E+01 -0.33790147298E+02  0.35038736742E+02  0.00000000000E+00 0.  1.
</event>
<event>
 7    1  0.1466590E-008  0.4614232E+02  0.7816164E-02  0.1320468E+00
        -11   -1    0    0    0    0  0.00000000000E+00  0.00000000000E+00  0.45593999997E+02  0.45594000000E+02  0.51100000000E-03 0. -1.
         11   -1    0    0    0    0 -0.00000000000E+00 -0.00000000000E+00 -0.45593999997E+02  0.45594000000E+02  0.51100000000E-03 0.  1.
    9900012    2    1    2    0    0  0.18076923532E+01 -0.44729743267E+02 -0.50095297325E+01  0.46142322377E+02  0.10000042095E+02 0.  0.
         12    1    1    2    0    0 -0.18076923532E+01  0.44729743267E+02  0.50095297325E+01  0.45045677623E+02  0.00000000000E+00 0. -1.
         11    1    3    3    0    0  0.49006927298E+01 -0.30671307229E+02 -0.61069454202E+01  0.31655025810E+02  0.51100000000E-03 0. -1.
        -11    1    3    3    0    0 -0.29174101314E+01 -0.12680130510E+02  0.65020216696E+00  0.13027653463E+02  0.51100000000E-03 0.  1.
         12    1    3    3    0    0 -0.17559024516E+00 -0.13783055270E+01  0.44721352068E+00  0.14596431046E+01  0.00000000000E+00 0. -1.
</event>
<event>
 7    1  0.1466590E-008  0.4614232E+02  0.7816164E-02  0.1320468E+00
        -11   -1    0    0    0    0  0.00000000000E+00  0.00000000000E+00  0.45593999997E+02  0.45594000000E+02  0.51100000000E-03 0.  1.
         11   -1    0    0    0    0 -0.00000000000E+00 -0.00000000000E+00 -0.45593999997E+02  0.45594000000E+02  0.51100000000E-03 0. -1.
    9900012    2    1    2    0    0  0.13383527298E+01  0.10014722143E+02  0.43897920337E+02  0.46142320323E+02  0.10000023363E+02 0.  0.
         12    1    1    2    0    0 -0.13383527298E+01 -0.10014722143E+02 -0.43897920337E+02  0.45045679677E+02  0.00000000000E+00 0. -1.
         11    1    3    3    0    0  0.11981504960E+01  0.16546438755E+01  0.15662660816E+01  0.25742184572E+01  0.51100000000E-03 0. -1.
        -11    1    3    3    0    0  0.21414760797E+01  0.56649398986E+01  0.34788402499E+02  0.35311618662E+02  0.51100000000E-03 0.  1.
         12    1    3    3    0    0 -0.20012738459E+01  0.26951383685E+01  0.75432517568E+01  0.82564832040E+01  0.00000000000E+00 0. -1.
</event>
<event>
 7    1  0.1466590E-008  0.4614232E+02  0.7816164E-02  0.1320468E+00
        -11   -1    0    0    0    0  0.00000000000E+00  0.00000000000E+00  0.45593999997E+02  0.45594000000E+02  0.51100000000E-03 0.  1.
         11   -1    0    0    0    0 -0.00000000000E+00 -0.00000000000E+00 -0.45593999997E+02  0.45594000000E+02  0.51100000000E-03 0. -1.
    9900012    2    1    2    0    0  0.65528173512E+01 -0.37194639106E+02  0.24550618328E+02  0.46142318146E+02  0.10000003508E+02 0.  0.
         12    1    1    2    0    0 -0.65528173512E+01  0.37194639106E+02 -0.24550618328E+02  0.45045681854E+02  0.00000000000E+00 0. -1.
         11    1    3    3    0    0  0.13043739003E+01 -0.16702900560E+02  0.10775514065E+02  0.19919838905E+02  0.51100000000E-03 0. -1.
        -11    1    3    3    0    0  0.28792948519E+01 -0.18114036549E+02  0.13650532660E+02  0.22863632719E+02  0.51100000000E-03 0.  1.
        -12    1    3    3    0    0  0.23691485990E+01 -0.23777019964E+01  0.12457160199E+00  0.33588465210E+01  0.00000000000E+00 0.  1.
</event>
<event>
 7    1  0.1466590E-008  0.4614232E+02  0.7816164E-02  0.1320468E+00
        -11   -1    0    0    0    0  0.00000000000E+00  0.00000000000E+00  0.45593999997E+02  0.45594000000E+02  0.51100000000E-03 0.  1.
         11   -1    0    0    0    0 -0.00000000000E+00 -0.00000000000E+00 -0.45593999997E+02  0.45594000000E+02  0.51100000000E-03 0. -1.
    9900012    2    1    2    0    0  0.32027666291E+02  0.32823116492E+01  0.31505055753E+02  0.46142317456E+02  0.99999972197E+01 0.  0.
         12    1    1    2    0    0 -0.32027666291E+02 -0.32823116492E+01 -0.31505055753E+02  0.45045682544E+02  0.00000000000E+00 0. -1.
         11    1    3    3    0    0  0.28998582145E+01  0.19041159278E+01  0.44016575360E+01  0.56044111605E+01  0.51100000000E-03 0. -1.
        -11    1    3    3    0    0  0.15164660260E+02  0.23278257919E+01  0.18796045933E+02  0.24262667552E+02  0.51100000000E-03 0.  1.
        -12    1    3    3    0    0  0.13963147816E+02 -0.94963007038E+00  0.83073522840E+01  0.16275238744E+02  0.00000000000E+00 0.  1.
</event>
<event>
 7    1  0.1466590E-008  0.4614232E+02  0.7816164E-02  0.1320468E+00
        -11   -1    0    0    0    0  0.00000000000E+00  0.00000000000E+00  0.45593999997E+02  0.45594000000E+02  0.51100000000E-03 0.  1.
         11   -1    0    0    0    0 -0.00000000000E+00 -0.00000000000E+00 -0.45593999997E+02  0.45594000000E+02  0.51100000000E-03 0. -1.
    9900012    2    1    2    0    0 -0.38135601327E+02  0.23430007788E+02  0.50817497490E+01  0.46142317254E+02  0.99999953792E+01 0.  0.
         12    1    1    2    0    0  0.38135601327E+02 -0.23430007788E+02 -0.50817497490E+01  0.45045682746E+02  0.00000000000E+00 0. -1.
         11    1    3    3    0    0 -0.30958788169E+02  0.17751182594E+02  0.34077247920E+01  0.35849179027E+02  0.51100000000E-03 0. -1.
        -11    1    3    3    0    0 -0.45012232796E+01  0.42411333651E+01  0.31224710646E+01  0.69280624307E+01  0.51100000000E-03 0.  1.
         12    1    3    3    0    0 -0.26755898780E+01  0.14376918286E+01 -0.14484461076E+01  0.33650757964E+01  0.00000000000E+00 0. -1.
</event>
<event>
 7    1  0.1466590E-008  0.4614232E+02  0.7816164E-02  0.1320468E+00
        -11   -1    0    0    0    0  0.00000000000E+00  0.00000000000E+00  0.45593999997E+02  0.45594000000E+02  0.51100000000E-03 0.  1.
         11   -1    0    0    0    0 -0.00000000000E+00 -0.00000000000E+00 -0.45593999997E+02  0.45594000000E+02  0.51100000000E-03 0. -1.
    9900012    2    1    2    0    0  0.77245513781E+01  0.33431430021E+02  0.29185344304E+02  0.46142317306E+02  0.99999958519E+01 0.  0.
         12    1    1    2    0    0 -0.77245513781E+01 -0.33431430021E+02 -0.29185344304E+02  0.45045682694E+02  0.00000000000E+00 0. -1.
         11    1    3    3    0    0 -0.15202613428E+01  0.11012310535E+02  0.12296915785E+02  0.16576981509E+02  0.51100000000E-03 0. -1.
        -11    1    3    3    0    0  0.29184515666E+00  0.11637310174E+01  0.73124494169E+00  0.14050490747E+01  0.51100000000E-03 0.  1.
         12    1    3    3    0    0  0.89529675642E+01  0.21255388469E+02  0.16157183577E+02  0.28160286723E+02  0.00000000000E+00 0. -1.
</event>
<event>
 7    1  0.1466590E-008  0.4614231E+02  0.7816164E-02  0.1320468E+00
        -11   -1    0    0    0    0  0.00000000000E+00  0.00000000000E+00  0.45593999997E+02  0.45594000000E+02  0.51100000000E-03 0.  1.
         11   -1    0    0    0    0 -0.00000000000E+00 -0.00000000000E+00 -0.45593999997E+02  0.45594000000E+02  0.51100000000E-03 0. -1.
    9900012    2    1    2    0    0 -0.21328941907E+02 -0.29257948159E+02  0.26798553552E+02  0.46142314681E+02  0.99999719143E+01 0.  0.
         12    1    1    2    0    0  0.21328941907E+02  0.29257948159E+02 -0.26798553552E+02  0.45045685319E+02  0.00000000000E+00 0. -1.
         11    1    3    3    0    0 -0.14926969532E+02 -0.21118622650E+02  0.21948633034E+02  0.33919804457E+02  0.51100000000E-03 0.  1.
        -11    1    3    3    0    0 -0.46328317010E+01 -0.77977142144E+01  0.27982950498E+01  0.94919930460E+01  0.51100000000E-03 0. -1.
        -12    1    3    3    0    0 -0.17691406742E+01 -0.34161129501E+00  0.20516254678E+01  0.27305171785E+01  0.00000000000E+00 0.  1.
</event>
<event>
 7    1  0.1466590E-008  0.4614232E+02  0.7816164E-02  0.1320468E+00
        -11   -1    0    0    0    0  0.00000000000E+00  0.00000000000E+00  0.45593999997E+02  0.45594000000E+02  0.51100000000E-03 0. -1.
         11   -1    0    0    0    0 -0.00000000000E+00 -0.00000000000E+00 -0.45593999997E+02  0.45594000000E+02  0.51100000000E-03 0.  1.
    9900012    2    1    2    0    0 -0.22229165972E+02 -0.13370486966E+02 -0.36826725331E+02  0.46142318296E+02  0.10000004882E+02 0.  0.
         12    1    1    2    0    0  0.22229165972E+02  0.13370486966E+02  0.36826725331E+02  0.45045681704E+02  0.00000000000E+00 0. -1.
         11    1    3    3    0    0 -0.16151040541E+02 -0.11009119915E+02 -0.19621336924E+02  0.27695734235E+02  0.51100000000E-03 0. -1.
        -11    1    3    3    0    0 -0.51963910945E+01 -0.24813529084E+01 -0.15109011717E+02  0.16169162872E+02  0.51100000000E-03 0.  1.
         12    1    3    3    0    0 -0.88173433598E+00  0.11998585764E+00 -0.20963766905E+01  0.22774211894E+01  0.00000000000E+00 0. -1.
</event>
<event>
 7    1  0.1466590E-008  0.4614232E+02  0.7816164E-02  0.1320468E+00
        -11   -1    0    0    0    0  0.00000000000E+00  0.00000000000E+00  0.45593999997E+02  0.45594000000E+02  0.51100000000E-03 0. -1.
         11   -1    0    0    0    0 -0.00000000000E+00 -0.00000000000E+00 -0.45593999997E+02  0.45594000000E+02  0.51100000000E-03 0.  1.
    9900012    2    1    2    0    0 -0.30663342345E+02  0.30824131049E+02  0.11779042769E+02  0.46142317996E+02  0.10000002139E+02 0.  0.
         12    1    1    2    0    0  0.30663342345E+02 -0.30824131049E+02 -0.11779042769E+02  0.45045682004E+02  0.00000000000E+00 0. -1.
         11    1    3    3    0    0  0.65855380305E+00  0.75803826509E+00  0.20726301359E+00  0.10253162150E+01  0.51100000000E-03 0. -1.
        -11    1    3    3    0    0 -0.21397657611E+02  0.21670536278E+02  0.63563157217E+01  0.31110683754E+02  0.51100000000E-03 0.  1.
        -12    1    3    3    0    0 -0.99242385366E+01  0.83955565052E+01  0.52154640341E+01  0.14006318026E+02  0.00000000000E+00 0.  1.
</event>
<event>
 7    1  0.1466590E-008  0.4614232E+02  0.7816164E-02  0.1320468E+00
        -11   -1    0    0    0    0  0.00000000000E+00  0.00000000000E+00  0.45593999997E+02  0.45594000000E+02  0.51100000000E-03 0.  1.
         11   -1    0    0    0    0 -0.00000000000E+00 -0.00000000000E+00 -0.45593999997E+02  0.45594000000E+02  0.51100000000E-03 0. -1.
    9900012    2    1    2    0    0 -0.38401315922E+02  0.15858914537E+02  0.17405380761E+02  0.46142317474E+02  0.99999973816E+01 0.  0.
         12    1    1    2    0    0  0.38401315922E+02 -0.15858914537E+02 -0.17405380761E+02  0.45045682526E+02  0.00000000000E+00 0. -1.
         11    1    3    3    0    0 -0.81819969357E+01  0.15514398599E+01  0.21884688687E+01  0.86105421284E+01  0.51100000000E-03 0. -1.
        -11    1    3    3    0    0 -0.54918349576E+01  0.41838739889E+01  0.25577969126E+00  0.69087246485E+01  0.51100000000E-03 0.  1.
        -12    1    3    3    0    0 -0.24727484028E+02  0.10123600688E+02  0.14961132201E+02  0.30623050697E+02  0.00000000000E+00 0.  1.
</event>
<event>
 7    1  0.1466590E-008  0.4614232E+02  0.7816164E-02  0.1320468E+00
        -11   -1    0    0    0    0  0.00000000000E+00  0.00000000000E+00  0.45593999997E+02  0.45594000000E+02  0.51100000000E-03 0.  1.
         11   -1    0    0    0    0 -0.00000000000E+00 -0.00000000000E+00 -0.45593999997E+02  0.45594000000E+02  0.51100000000E-03 0. -1.
    9900012    2    1    2    0    0  0.76836752800E+01 -0.41923789219E+02  0.14576373670E+02  0.46142316104E+02  0.99999848859E+01 0.  0.
         12    1    1    2    0    0 -0.76836752800E+01  0.41923789219E+02 -0.14576373670E+02  0.45045683896E+02  0.00000000000E+00 0. -1.
         11    1    3    3    0    0  0.57544164222E+00 -0.25208463235E+02  0.71660105256E+01  0.26213535795E+02  0.51100000000E-03 0. -1.
        -11    1    3    3    0    0  0.65336674087E+01 -0.12787858141E+02  0.68829934627E+01  0.15924626366E+02  0.51100000000E-03 0.  1.
         12    1    3    3    0    0  0.57456622912E+00 -0.39274678439E+01  0.52736968191E+00  0.40041539429E+01  0.00000000000E+00 0. -1.
</event>
<event>
 7    1  0.1466590E-008  0.4614232E+02  0.7816164E-02  0.1320468E+00
        -11   -1    0    0    0    0  0.00000000000E+00  0.00000000000E+00  0.45593999997E+02  0.45594000000E+02  0.51100000000E-03 0. -1.
         11   -1    0    0    0    0 -0.00000000000E+00 -0.00000000000E+00 -0.45593999997E+02  0.45594000000E+02  0.51100000000E-03 0.  1.
    9900012    2    1    2    0    0  0.87380327891E+01  0.36194724592E+02 -0.25351572096E+02  0.46142317487E+02  0.99999975037E+01 0.  0.
         12    1    1    2    0    0 -0.87380327891E+01 -0.36194724592E+02  0.25351572096E+02  0.45045682513E+02  0.00000000000E+00 0. -1.
         11    1    3    3    0    0  0.54568382751E+01  0.13521501565E+02 -0.10500439600E+02  0.17968509136E+02  0.51100000000E-03 0. -1.
        -11    1    3    3    0    0  0.48912331038E+01  0.20505703938E+02 -0.12044117998E+02  0.24278979259E+02  0.51100000000E-03 0.  1.
         12    1    3    3    0    0 -0.16100385898E+01  0.21675190889E+01 -0.28070144979E+01  0.38948290916E+01  0.00000000000E+00 0. -1.
</event>
<event>
 7    1  0.1466590E-008  0.4614232E+02  0.7816164E-02  0.1320468E+00
        -11   -1    0    0    0    0  0.00000000000E+00  0.00000000000E+00  0.45593999997E+02  0.45594000000E+02  0.51100000000E-03 0.  1.
         11   -1    0    0    0    0 -0.00000000000E+00 -0.00000000000E+00 -0.45593999997E+02  0.45594000000E+02  0.51100000000E-03 0. -1.
    9900012    2    1    2    0    0 -0.14511072432E+02  0.42468738616E+02  0.38663447702E+01  0.46142316471E+02  0.99999882318E+01 0.  0.
         12    1    1    2    0    0  0.14511072432E+02 -0.42468738616E+02 -0.38663447702E+01  0.45045683529E+02  0.00000000000E+00 0. -1.
         11    1    3    3    0    0 -0.60294391904E+00  0.32672220720E+01 -0.42127924648E+00  0.33489935655E+01  0.51100000000E-03 0. -1.
        -11    1    3    3    0    0 -0.19744921078E+00 -0.51889104460E+00  0.11029273154E+00  0.56603785629E+00  0.51100000000E-03 0.  1.
        -12    1    3    3    0    0 -0.13710679302E+02  0.39720407588E+02  0.41773312851E+01  0.42227285049E+02  0.00000000000E+00 0.  1.
</event>
<event>
 7    1  0.1466590E-008  0.4614232E+02  0.7816164E-02  0.1320468E+00
        -11   -1    0    0    0    0  0.00000000000E+00  0.00000000000E+00  0.45593999997E+02  0.45594000000E+02  0.51100000000E-03 0.  1.
         11   -1    0    0    0    0 -0.00000000000E+00 -0.00000000000E+00 -0.45593999997E+02  0.45594000000E+02  0.51100000000E-03 0. -1.
    9900012    2    1    2    0    0 -0.22273179198E+01  0.35543698656E+02  0.27582568439E+02  0.46142317177E+02  0.99999946750E+01 0.  0.
         12    1    1    2    0    0  0.22273179198E+01 -0.35543698656E+02 -0.27582568439E+02  0.45045682823E+02  0.00000000000E+00 0. -1.
         11    1    3    3    0    0  0.21755290061E+00  0.60137676155E+01  0.98136901115E+01  0.11511787179E+02  0.51100000000E-03 0.  1.
        -11    1    3    3    0    0 -0.17698710042E+00  0.16323258984E+02  0.96935183327E+01  0.18985373481E+02  0.51100000000E-03 0. -1.
        -12    1    3    3    0    0 -0.22678837200E+01  0.13206672057E+02  0.80753599947E+01  0.15645156517E+02  0.00000000000E+00 0.  1.
</event>
<event>
 7    1  0.1466590E-008  0.4614232E+02  0.7816164E-02  0.1320468E+00
        -11   -1    0    0    0    0  0.00000000000E+00  0.00000000000E+00  0.45593999997E+02  0.45594000000E+02  0.51100000000E-03 0.  1.
         11   -1    0    0    0    0 -0.00000000000E+00 -0.00000000000E+00 -0.45593999997E+02  0.45594000000E+02  0.51100000000E-03 0. -1.
    9900012    2    1    2    0    0  0.20292721132E+02 -0.24781799367E+02  0.31673040710E+02  0.46142316316E+02  0.99999868200E+01 0.  0.
         12    1    1    2    0    0 -0.20292721132E+02  0.24781799367E+02 -0.31673040710E+02  0.45045683684E+02  0.00000000000E+00 0. -1.
         11    1    3    3    0    0  0.87253275461E+01 -0.10958281001E+02  0.19364583784E+02  0.23899840348E+02  0.51100000000E-03 0. -1.
        -11    1    3    3    0    0  0.11168112070E+02 -0.13867539131E+02  0.12540642051E+02  0.21778500226E+02  0.51100000000E-03 0.  1.
         12    1    3    3    0    0  0.39928151564E+00  0.44020765478E-01 -0.23218512545E+00  0.46397574182E+00  0.00000000000E+00 0. -1.
</event>
<event>
 7    1  0.1466590E-008  0.4614232E+02  0.7816164E-02  0.1320468E+00
        -11   -1    0    0    0    0  0.00000000000E+00  0.00000000000E+00  0.45593999997E+02  0.45594000000E+02  0.51100000000E-03 0.  1.
         11   -1    0    0    0    0 -0.00000000000E+00 -0.00000000000E+00 -0.45593999997E+02  0.45594000000E+02  0.51100000000E-03 0. -1.
    9900012    2    1    2    0    0  0.39045698143E+02 -0.18975095043E+02  0.12020486265E+02  0.46142324676E+02  0.10000063052E+02 0.  0.
         12    1    1    2    0    0 -0.39045698143E+02  0.18975095043E+02 -0.12020486265E+02  0.45045675324E+02  0.00000000000E+00 0. -1.
         11    1    3    3    0    0  0.14359428158E+02 -0.92928878584E+01  0.19439106504E+01  0.17214230469E+02  0.51100000000E-03 0. -1.
        -11    1    3    3    0    0  0.17199513954E+02 -0.42714512334E+01  0.80821733119E+01  0.19477938844E+02  0.51100000000E-03 0.  1.
        -12    1    3    3    0    0  0.74867560312E+01 -0.54107559508E+01  0.19944023028E+01  0.94501553625E+01  0.00000000000E+00 0.  1.
</event>
<event>
 7    1  0.1466590E-008  0.4614232E+02  0.7816164E-02  0.1320468E+00
        -11   -1    0    0    0    0  0.00000000000E+00  0.00000000000E+00  0.45593999997E+02  0.45594000000E+02  0.51100000000E-03 0. -1.
         11   -1    0    0    0    0 -0.00000000000E+00 -0.00000000000E+00 -0.45593999997E+02  0.45594000000E+02  0.51100000000E-03 0.  1.
    9900012    2    1    2    0    0 -0.29768536052E+02  0.20969698880E+02 -0.26518286872E+02  0.46142317095E+02  0.99999939226E+01 0.  0.
         12    1    1    2    0    0  0.29768536052E+02 -0.20969698880E+02  0.26518286872E+02  0.45045682905E+02  0.00000000000E+00 0. -1.
         11    1    3    3    0    0 -0.25545376482E+01  0.22572468331E+01  0.23765481516E-01  0.34090161221E+01  0.51100000000E-03 0. -1.
        -11    1    3    3    0    0 -0.15812736612E+02  0.13445872265E+02 -0.18621498314E+02  0.27885378245E+02  0.51100000000E-03 0.  1.
         12    1    3    3    0    0 -0.11401261792E+02  0.52665797821E+01 -0.79205540390E+01  0.14847922728E+02  0.00000000000E+00 0. -1.
</event>
<event>
 7    1  0.1466590E-008  0.4614232E+02  0.7816164E-02  0.1320468E+00
        -11   -1    0    0    0    0  0.00000000000E+00  0.00000000000E+00  0.45593999997E+02  0.45594000000E+02  0.51100000000E-03 0. -1.
         11   -1    0    0    0    0 -0.00000000000E+00 -0.00000000000E+00 -0.45593999997E+02  0.45594000000E+02  0.51100000000E-03 0.  1.
    9900012    2    1    2    0    0  0.32205477852E+02 -0.17385432672E+02  0.26261519675E+02  0.46142317759E+02  0.99999999835E+01 0.  0.
         12    1    1    2    0    0 -0.32205477852E+02  0.17385432672E+02 -0.26261519675E+02  0.45045682241E+02  0.00000000000E+00 0. -1.
         11    1    3    3    0    0  0.12661787311E+02 -0.66862124993E+01  0.16369996052E+02  0.21748633670E+02  0.51100000000E-03 0. -1.
        -11    1    3    3    0    0  0.53173362958E+01 -0.31458095716E+01  0.23754186594E+01  0.66191235985E+01  0.51100000000E-03 0.  1.
         12    1    3    3    0    0  0.14226354245E+02 -0.75534106015E+01  0.75161049637E+01  0.17774560491E+02  0.00000000000E+00 0. -1.
</event>
<event>
 7    1  0.1466590E-008  0.4614232E+02  0.7816164E-02  0.1320468E+00
        -11   -1    0    0    0    0  0.00000000000E+00  0.00000000000E+00  0.45593999997E+02  0.45594000000E+02  0.51100000000E-03 0.  1.
         11   -1    0    0    0    0 -0.00000000000E+00 -0.00000000000E+00 -0.45593999997E+02  0.45594000000E+02  0.51100000000E-03 0. -1.
    9900012    2    1    2    0    0  0.62410964631E+01  0.36547935788E+02  0.25581449774E+02  0.46142317987E+02  0.10000002063E+02 0.  0.
         12    1    1    2    0    0 -0.62410964631E+01 -0.36547935788E+02 -0.25581449774E+02  0.45045682013E+02  0.00000000000E+00 0. -1.
         11    1    3    3    0    0  0.30796420395E+01  0.30014539110E+01  0.23183398237E+01  0.48854498739E+01  0.51100000000E-03 0. -1.
        -11    1    3    3    0    0  0.38537333105E+01  0.24724288294E+02  0.15152576516E+02  0.29253072786E+02  0.51100000000E-03 0.  1.
         12    1    3    3    0    0 -0.69227888690E+00  0.88221935827E+01  0.81105334344E+01  0.12003795327E+02  0.00000000000E+00 0. -1.
</event>
<event>
 7    1  0.1466590E-008  0.4614232E+02  0.7816164E-02  0.1320468E+00
        -11   -1    0    0    0    0  0.00000000000E+00  0.00000000000E+00  0.45593999997E+02  0.45594000000E+02  0.51100000000E-03 0.  1.
         11   -1    0    0    0    0 -0.00000000000E+00 -0.00000000000E+00 -0.45593999997E+02  0.45594000000E+02  0.51100000000E-03 0. -1.
    9900012    2    1    2    0    0 -0.77093818894E+01 -0.15430938287E+02  0.41612076906E+02  0.46142319076E+02  0.10000011986E+02 0.  0.
         12    1    1    2    0    0  0.77093818894E+01  0.15430938287E+02 -0.41612076906E+02  0.45045680924E+02  0.00000000000E+00 0. -1.
         11    1    3    3    0    0 -0.69711164267E+01 -0.73656040555E+01  0.16172268895E+02  0.19089024826E+02  0.51100000000E-03 0. -1.
        -11    1    3    3    0    0 -0.11568502688E+01 -0.24452810035E+00  0.18338414992E+01  0.21819879564E+01  0.51100000000E-03 0.  1.
         12    1    3    3    0    0  0.41858480612E+00 -0.78208061313E+01  0.23605966511E+02  0.24871306293E+02  0.00000000000E+00 0. -1.
</event>
<event>
 7    1  0.1466590E-008  0.4614232E+02  0.7816164E-02  0.1320468E+00
        -11   -1    0    0    0    0  0.00000000000E+00  0.00000000000E+00  0.45593999997E+02  0.45594000000E+02  0.51100000000E-03 0. -1.
         11   -1    0    0    0    0 -0.00000000000E+00 -0.00000000000E+00 -0.45593999997E+02  0.45594000000E+02  0.51100000000E-03 0.  1.
    9900012    2    1    2    0    0  0.88994730971E+01 -0.31177045687E+02 -0.31271467283E+02  0.46142318018E+02  0.10000002340E+02 0.  0.
         12    1    1    2    0    0 -0.88994730971E+01  0.31177045687E+02  0.31271467283E+02  0.45045681982E+02  0.00000000000E+00 0. -1.
         11    1    3    3    0    0  0.36019797553E+00  0.31286033113E+00 -0.12703648764E+01  0.13570008654E+01  0.51100000000E-03 0. -1.
        -11    1    3    3    0    0  0.46892908165E+01 -0.10161204741E+02 -0.70939528677E+01  0.13250045196E+02  0.51100000000E-03 0.  1.
         12    1    3    3    0    0  0.38499843051E+01 -0.21328701278E+02 -0.22907149539E+02  0.31535271956E+02  0.00000000000E+00 0. -1.
</event>
<event>
 7    1  0.1466590E-008  0.4614232E+02  0.7816164E-02  0.1320468E+00
        -11   -1    0    0    0    0  0.00000000000E+00  0.00000000000E+00  0.45593999997E+02  0.45594000000E+02  0.51100000000E-03 0. -1.
         11   -1    0    0    0    0 -0.00000000000E+00 -0.00000000000E+00 -0.45593999997E+02  0.45594000000E+02  0.51100000000E-03 0.  1.
    9900012    2    1    2    0    0 -0.42345294191E+01  0.35605628041E+02 -0.27265756211E+02  0.46142318194E+02  0.10000003949E+02 0.  0.
         12    1    1    2    0    0  0.42345294191E+01 -0.35605628041E+02  0.27265756211E+02  0.45045681806E+02  0.00000000000E+00 0. -1.
         11    1    3    3    0    0 -0.33013260487E+01  0.17657123209E+02 -0.80004413820E+01  0.19664175962E+02  0.51100000000E-03 0. -1.
        -11    1    3    3    0    0 -0.75692487792E+00  0.45003169260E+01 -0.64472830416E+01  0.78989395861E+01  0.51100000000E-03 0.  1.
         12    1    3    3    0    0 -0.17627849248E+00  0.13448187906E+02 -0.12818031787E+02  0.18579202646E+02  0.00000000000E+00 0. -1.
</event>
<event>
 7    1  0.1466590E-008  0.4614232E+02  0.7816164E-02  0.1320468E+00
        -11   -1    0    0    0    0  0.00000000000E+00  0.00000000000E+00  0.45593999997E+02  0.45594000000E+02  0.51100000000E-03 0. -1.
         11   -1    0    0    0    0 -0.00000000000E+00 -0.00000000000E+00 -0.45593999997E+02  0.45594000000E+02  0.51100000000E-03 0.  1.
    9900012    2    1    2    0    0 -0.19048468813E+02  0.38722007125E+02 -0.12918029717E+02  0.46142317725E+02  0.99999996689E+01 0.  0.
         12    1    1    2    0    0  0.19048468813E+02 -0.38722007125E+02  0.12918029717E+02  0.45045682275E+02  0.00000000000E+00 0. -1.
         11    1    3    3    0    0 -0.98534547612E+01  0.18264441100E+02 -0.26720186269E+01  0.20924150239E+02  0.51100000000E-03 0.  1.
        -11    1    3    3    0    0 -0.37802272068E+01  0.32621552076E+01 -0.17744825106E+01  0.52991096210E+01  0.51100000000E-03 0. -1.
        -12    1    3    3    0    0 -0.54147868446E+01  0.17195410817E+02 -0.84715285800E+01  0.19919057865E+02  0.00000000000E+00 0.  1.
</event>
<event>
 7    1  0.1466590E-008  0.4614232E+02  0.7816164E-02  0.1320468E+00
        -11   -1    0    0    0    0  0.00000000000E+00  0.00000000000E+00  0.45593999997E+02  0.45594000000E+02  0.51100000000E-03 0.  1.
         11   -1    0    0    0    0 -0.00000000000E+00 -0.00000000000E+00 -0.45593999997E+02  0.45594000000E+02  0.51100000000E-03 0. -1.
    9900012    2    1    2    0    0  0.13666052274E+02 -0.59489844717E+01  0.42508377461E+02  0.46142317018E+02  0.99999932218E+01 0.  0.
         12    1    1    2    0    0 -0.13666052274E+02  0.59489844717E+01 -0.42508377461E+02  0.45045682982E+02  0.00000000000E+00 0. -1.
         11    1    3    3    0    0  0.77527363510E+01 -0.39135920031E+01  0.12575073583E+02  0.15282460508E+02  0.51100000000E-03 0. -1.
        -11    1    3    3    0    0  0.54298346824E+01 -0.29117408533E+01  0.28135597226E+02  0.28802311904E+02  0.51100000000E-03 0.  1.
         12    1    3    3    0    0  0.48348124095E+00  0.87634838469E+00  0.17977066512E+01  0.20575446060E+01  0.00000000000E+00 0. -1.
</event>
<event>
 7    1  0.1466590E-008  0.4614232E+02  0.7816164E-02  0.1320468E+00
        -11   -1    0    0    0    0  0.00000000000E+00  0.00000000000E+00  0.45593999997E+02  0.45594000000E+02  0.51100000000E-03 0.  1.
         11   -1    0    0    0    0 -0.00000000000E+00 -0.00000000000E+00 -0.45593999997E+02  0.45594000000E+02  0.51100000000E-03 0. -1.
    9900012    2    1    2    0    0  0.15704428144E+02  0.27945710185E+02  0.31646829475E+02  0.46142316556E+02  0.99999890127E+01 0.  0.
         12    1    1    2    0    0 -0.15704428144E+02 -0.27945710185E+02 -0.31646829475E+02  0.45045683444E+02  0.00000000000E+00 0. -1.
         11    1    3    3    0    0  0.11966924826E+02  0.21837580795E+02  0.26395240296E+02  0.36287682970E+02  0.51100000000E-03 0. -1.
        -11    1    3    3    0    0  0.19719491434E+01 -0.81085229933E-02  0.13005913497E+01  0.23622420055E+01  0.51100000000E-03 0.  1.
        -12    1    3    3    0    0  0.17655541751E+01  0.61162379132E+01  0.39509978293E+01  0.74923915810E+01  0.00000000000E+00 0.  1.
</event>
<event>
 7    1  0.1466590E-008  0.4614232E+02  0.7816164E-02  0.1320468E+00
        -11   -1    0    0    0    0  0.00000000000E+00  0.00000000000E+00  0.45593999997E+02  0.45594000000E+02  0.51100000000E-03 0.  1.
         11   -1    0    0    0    0 -0.00000000000E+00 -0.00000000000E+00 -0.45593999997E+02  0.45594000000E+02  0.51100000000E-03 0. -1.
    9900012    2    1    2    0    0 -0.36097958039E+02  0.19795469828E+02  0.18280872852E+02  0.46142317492E+02  0.99999975505E+01 0.  0.
         12    1    1    2    0    0  0.36097958039E+02 -0.19795469828E+02 -0.18280872852E+02  0.45045682508E+02  0.00000000000E+00 0. -1.
         11    1    3    3    0    0 -0.11238553863E+02  0.31743064567E+01  0.44845995378E+01  0.12509714133E+02  0.51100000000E-03 0. -1.
        -11    1    3    3    0    0 -0.20518555948E+02  0.11528150736E+02  0.13017729313E+02  0.26895551199E+02  0.51100000000E-03 0.  1.
         12    1    3    3    0    0 -0.43408482284E+01  0.50930126358E+01  0.77854400115E+00  0.67370521605E+01  0.00000000000E+00 0. -1.
</event>
<event>
 7    1  0.1466590E-008  0.4614232E+02  0.7816164E-02  0.1320468E+00
        -11   -1    0    0    0    0  0.00000000000E+00  0.00000000000E+00  0.45593999997E+02  0.45594000000E+02  0.51100000000E-03 0.  1.
         11   -1    0    0    0    0 -0.00000000000E+00 -0.00000000000E+00 -0.45593999997E+02  0.45594000000E+02  0.51100000000E-03 0. -1.
    9900012    2    1    2    0    0 -0.78072119566E+01  0.22944969113E+02  0.37969584616E+02  0.46142317387E+02  0.99999965907E+01 0.  0.
         12    1    1    2    0    0  0.78072119566E+01 -0.22944969113E+02 -0.37969584616E+02  0.45045682613E+02  0.00000000000E+00 0. -1.
         11    1    3    3    0    0 -0.17129412905E+01  0.15136841470E+02  0.22629505557E+02  0.27279161636E+02  0.51100000000E-03 0. -1.
        -11    1    3    3    0    0 -0.56200497476E+01  0.74968110164E+01  0.15632216698E+02  0.18225074313E+02  0.51100000000E-03 0.  1.
        -12    1    3    3    0    0 -0.47422091846E+00  0.31131662648E+00 -0.29213763855E+00  0.63808143781E+00  0.00000000000E+00 0.  1.
</event>
<event>
 7    1  0.1466590E-008  0.4614232E+02  0.7816164E-02  0.1320468E+00
        -11   -1    0    0    0    0  0.00000000000E+00  0.00000000000E+00  0.45593999997E+02  0.45594000000E+02  0.51100000000E-03 0.  1.
         11   -1    0    0    0    0 -0.00000000000E+00 -0.00000000000E+00 -0.45593999997E+02  0.45594000000E+02  0.51100000000E-03 0. -1.
    9900012    2    1    2    0    0  0.23480231624E+02  0.48968043196E+01  0.38128905614E+02  0.46142318598E+02  0.10000007632E+02 0.  0.
         12    1    1    2    0    0 -0.23480231624E+02 -0.48968043196E+01 -0.38128905614E+02  0.45045681402E+02  0.00000000000E+00 0. -1.
         11    1    3    3    0    0  0.94308465001E+01  0.11910697669E+01  0.91466597558E+01  0.13191698065E+02  0.51100000000E-03 0. -1.
        -11    1    3    3    0    0  0.55518886431E+01 -0.14728159359E+00  0.16198451199E+02  0.17124105258E+02  0.51100000000E-03 0.  1.
         12    1    3    3    0    0  0.84974964805E+01  0.38530161463E+01  0.12783794659E+02  0.15826515275E+02  0.00000000000E+00 0. -1.
</event>
<event>
 7    1  0.1466590E-008  0.4614232E+02  0.7816164E-02  0.1320468E+00
        -11   -1    0    0    0    0  0.00000000000E+00  0.00000000000E+00  0.45593999997E+02  0.45594000000E+02  0.51100000000E-03 0.  1.
         11   -1    0    0    0    0 -0.00000000000E+00 -0.00000000000E+00 -0.45593999997E+02  0.45594000000E+02  0.51100000000E-03 0. -1.
    9900012    2    1    2    0    0 -0.19052029316E+02  0.16161065812E+02  0.37482706671E+02  0.46142321310E+02  0.10000032362E+02 0.  0.
         12    1    1    2    0    0  0.19052029316E+02 -0.16161065812E+02 -0.37482706671E+02  0.45045678690E+02  0.00000000000E+00 0. -1.
         11    1    3    3    0    0 -0.60114114902E+01  0.49193429768E+01  0.58702577986E+01  0.97363715167E+01  0.51100000000E-03 0. -1.
        -11    1    3    3    0    0 -0.75336912895E+01  0.66825780453E+01  0.23650622256E+02  0.25705355223E+02  0.51100000000E-03 0.  1.
        -12    1    3    3    0    0 -0.55069265361E+01  0.45591447897E+01  0.79618266167E+01  0.10700594571E+02  0.00000000000E+00 0.  1.
</event>
<event>
 7    1  0.1466590E-008  0.4614232E+02  0.7816164E-02  0.1320468E+00
        -11   -1    0    0    0    0  0.00000000000E+00  0.00000000000E+00  0.45593999997E+02  0.45594000000E+02  0.51100000000E-03 0.  1.
         11   -1    0    0    0    0 -0.00000000000E+00 -0.00000000000E+00 -0.45593999997E+02  0.45594000000E+02  0.51100000000E-03 0. -1.
    9900012    2    1    2    0    0 -0.44447946086E+01  0.33840909277E+01  0.44697932354E+02  0.46142318440E+02  0.10000006189E+02 0.  0.
         12    1    1    2    0    0  0.44447946086E+01 -0.33840909277E+01 -0.44697932354E+02  0.45045681560E+02  0.00000000000E+00 0. -1.
         11    1    3    3    0    0 -0.34964123366E+01  0.44827476501E+00  0.53931696966E+01  0.64429906976E+01  0.51100000000E-03 0. -1.
        -11    1    3    3    0    0 -0.20517003895E+01 -0.33332380214E+00  0.12193861818E+02  0.12369755274E+02  0.51100000000E-03 0.  1.
        -12    1    3    3    0    0  0.11033181175E+01  0.32691399648E+01  0.27110900840E+02  0.27329572469E+02  0.00000000000E+00 0.  1.
</event>
<event>
 7    1  0.1466590E-008  0.4614232E+02  0.7816164E-02  0.1320468E+00
        -11   -1    0    0    0    0  0.00000000000E+00  0.00000000000E+00  0.45593999997E+02  0.45594000000E+02  0.51100000000E-03 0.  1.
         11   -1    0    0    0    0 -0.00000000000E+00 -0.00000000000E+00 -0.45593999997E+02  0.45594000000E+02  0.51100000000E-03 0. -1.
    9900012    2    1    2    0    0 -0.92754244795E+01 -0.33323518355E+02  0.28855209028E+02  0.46142318044E+02  0.10000002578E+02 0.  0.
         12    1    1    2    0    0  0.92754244795E+01  0.33323518355E+02 -0.28855209028E+02  0.45045681956E+02  0.00000000000E+00 0. -1.
         11    1    3    3    0    0 -0.29571464155E+01 -0.26130870411E+01  0.18736772398E+01  0.43684786215E+01  0.51100000000E-03 0. -1.
        -11    1    3    3    0    0 -0.51848294252E+01 -0.13839701030E+02  0.14945780775E+02  0.21018947262E+02  0.51100000000E-03 0.  1.
        -12    1    3    3    0    0 -0.11334486388E+01 -0.16870730283E+02  0.12035751014E+02  0.20754892160E+02  0.00000000000E+00 0.  1.
</event>
<event>
 7    1  0.1466590E-008  0.4614232E+02  0.7816164E-02  0.1320468E+00
        -11   -1    0    0    0    0  0.00000000000E+00  0.00000000000E+00  0.45593999997E+02  0.45594000000E+02  0.51100000000E-03 0.  1.
         11   -1    0    0    0    0 -0.00000000000E+00 -0.00000000000E+00 -0.45593999997E+02  0.45594000000E+02  0.51100000000E-03 0. -1.
    9900012    2    1    2    0    0  0.36971249513E+02  0.24652692109E+02  0.73813878901E+01  0.46142318676E+02  0.10000008339E+02 0.  0.
         12    1    1    2    0    0 -0.36971249513E+02 -0.24652692109E+02 -0.73813878901E+01  0.45045681324E+02  0.00000000000E+00 0. -1.
         11    1    3    3    0    0  0.84850806774E+01  0.31577334770E+01 -0.19402237609E+00  0.90556899106E+01  0.51100000000E-03 0. -1.
        -11    1    3    3    0    0  0.24140810414E+02  0.14780015661E+02  0.59827765660E+01  0.28931318775E+02  0.51100000000E-03 0.  1.
         12    1    3    3    0    0  0.43453584214E+01  0.67149429716E+01  0.15926337002E+01  0.81553099896E+01  0.00000000000E+00 0. -1.
</event>
<event>
 7    1  0.1466590E-008  0.4614232E+02  0.7816164E-02  0.1320468E+00
        -11   -1    0    0    0    0  0.00000000000E+00  0.00000000000E+00  0.45593999997E+02  0.45594000000E+02  0.51100000000E-03 0.  1.
         11   -1    0    0    0    0 -0.00000000000E+00 -0.00000000000E+00 -0.45593999997E+02  0.45594000000E+02  0.51100000000E-03 0. -1.
    9900012    2    1    2    0    0 -0.89408607304E+01 -0.40866365733E+02  0.16706712375E+02  0.46142322325E+02  0.10000041613E+02 0.  0.
         12    1    1    2    0    0  0.89408607304E+01  0.40866365733E+02 -0.16706712375E+02  0.45045677675E+02  0.00000000000E+00 0. -1.
         11    1    3    3    0    0 -0.32408908171E+01 -0.59816886516E+01  0.23312670737E+01  0.71915769372E+01  0.51100000000E-03 0. -1.
        -11    1    3    3    0    0 -0.25998711632E+01 -0.19292121943E+02  0.37373436710E+01  0.19822034132E+02  0.51100000000E-03 0.  1.
        -12    1    3    3    0    0 -0.31000987502E+01 -0.15592555138E+02  0.10638101630E+02  0.19128711256E+02  0.00000000000E+00 0.  1.
</event>
<event>
 7    1  0.1466590E-008  0.4614232E+02  0.7816164E-02  0.1320468E+00
        -11   -1    0    0    0    0  0.00000000000E+00  0.00000000000E+00  0.45593999997E+02  0.45594000000E+02  0.51100000000E-03 0. -1.
         11   -1    0    0    0    0 -0.00000000000E+00 -0.00000000000E+00 -0.45593999997E+02  0.45594000000E+02  0.51100000000E-03 0.  1.
    9900012    2    1    2    0    0  0.16542632563E+02  0.32374164187E+02 -0.26596394954E+02  0.46142318482E+02  0.10000006573E+02 0.  0.
         12    1    1    2    0    0 -0.16542632563E+02 -0.32374164187E+02  0.26596394954E+02  0.45045681518E+02  0.00000000000E+00 0. -1.
         11    1    3    3    0    0  0.79107365389E+01  0.83670689437E+01 -0.97204253447E+01  0.15068983524E+02  0.51100000000E-03 0.  1.
        -11    1    3    3    0    0  0.89247409430E+01  0.20608629570E+02 -0.15927899288E+02  0.27532972771E+02  0.51100000000E-03 0. -1.
         12    1    3    3    0    0 -0.29284491891E+00  0.33984656735E+01 -0.94807032080E+00  0.35403621868E+01  0.00000000000E+00 0. -1.
</event>
<event>
 7    1  0.1466590E-008  0.4614232E+02  0.7816164E-02  0.1320468E+00
        -11   -1    0    0    0    0  0.00000000000E+00  0.00000000000E+00  0.45593999997E+02  0.45594000000E+02  0.51100000000E-03 0.  1.
         11   -1    0    0    0    0 -0.00000000000E+00 -0.00000000000E+00 -0.45593999997E+02  0.45594000000E+02  0.51100000000E-03 0. -1.
    9900012    2    1    2    0    0 -0.38586772189E+02 -0.25653075136E+01  0.23099650200E+02  0.46142316189E+02  0.99999856666E+01 0.  0.
         12    1    1    2    0    0  0.38586772189E+02  0.25653075136E+01 -0.23099650200E+02  0.45045683811E+02  0.00000000000E+00 0. -1.
         11    1    3    3    0    0 -0.77956386407E+01 -0.16635295292E+01  0.61886124727E+01  0.10091493294E+02  0.51100000000E-03 0. -1.
        -11    1    3    3    0    0 -0.26854117487E+02 -0.34146292339E+01  0.13385068998E+02  0.30198731615E+02  0.51100000000E-03 0.  1.
        -12    1    3    3    0    0 -0.39370160613E+01  0.25128512495E+01  0.35259687284E+01  0.58520912794E+01  0.00000000000E+00 0.  1.
</event>
<event>
 7    1  0.1466590E-008  0.4614232E+02  0.7816164E-02  0.1320468E+00
        -11   -1    0    0    0    0  0.00000000000E+00  0.00000000000E+00  0.45593999997E+02  0.45594000000E+02  0.51100000000E-03 0.  1.
         11   -1    0    0    0    0 -0.00000000000E+00 -0.00000000000E+00 -0.45593999997E+02  0.45594000000E+02  0.51100000000E-03 0. -1.
    9900012    2    1    2    0    0 -0.28222897371E+00  0.13920655340E+02  0.42839806729E+02  0.46142319420E+02  0.10000015127E+02 0.  0.
         12    1    1    2    0    0  0.28222897371E+00 -0.13920655340E+02 -0.42839806729E+02  0.45045680580E+02  0.00000000000E+00 0. -1.
         11    1    3    3    0    0  0.17862377373E+01  0.42461682816E+01  0.14884970921E+02  0.15581493828E+02  0.51100000000E-03 0. -1.
        -11    1    3    3    0    0  0.34639784185E+00  0.44367991545E+00  0.11692491906E+02  0.11706033084E+02  0.51100000000E-03 0.  1.
         12    1    3    3    0    0 -0.24148645528E+01  0.92308071431E+01  0.16262343903E+02  0.18854792509E+02  0.00000000000E+00 0. -1.
</event>
<event>
 7    1  0.1466590E-008  0.4614231E+02  0.7816164E-02  0.1320468E+00
        -11   -1    0    0    0    0  0.00000000000E+00  0.00000000000E+00  0.45593999997E+02  0.45594000000E+02  0.51100000000E-03 0. -1.
         11   -1    0    0    0    0 -0.00000000000E+00 -0.00000000000E+00 -0.45593999997E+02  0.45594000000E+02  0.51100000000E-03 0.  1.
    9900012    2    1    2    0    0 -0.85996939653E+01  0.26040578501E+01 -0.44140438062E+02  0.46142310685E+02  0.99999354713E+01 0.  0.
         12    1    1    2    0    0  0.85996939653E+01 -0.26040578501E+01  0.44140438062E+02  0.45045689315E+02  0.00000000000E+00 0. -1.
         11    1    3    3    0    0 -0.12937191225E+01 -0.44290283215E+00 -0.90250120346E+01  0.91280181076E+01  0.51100000000E-03 0. -1.
        -11    1    3    3    0    0 -0.53225101550E+01  0.49229648435E+01 -0.14424897822E+02  0.16144422401E+02  0.51100000000E-03 0.  1.
        -12    1    3    3    0    0 -0.19834646877E+01 -0.18760041613E+01 -0.20690528205E+02  0.20869870177E+02  0.00000000000E+00 0.  1.
</event>
<event>
 7    1  0.1466590E-008  0.4614232E+02  0.7816164E-02  0.1320468E+00
        -11   -1    0    0    0    0  0.00000000000E+00  0.00000000000E+00  0.45593999997E+02  0.45594000000E+02  0.51100000000E-03 0. -1.
         11   -1    0    0    0    0 -0.00000000000E+00 -0.00000000000E+00 -0.45593999997E+02  0.45594000000E+02  0.51100000000E-03 0.  1.
    9900012    2    1    2    0    0 -0.13147504887E+02 -0.16163790853E+02 -0.39937306592E+02  0.46142317884E+02  0.10000001120E+02 0.  0.
         12    1    1    2    0    0  0.13147504887E+02  0.16163790853E+02  0.39937306592E+02  0.45045682116E+02  0.00000000000E+00 0. -1.
         11    1    3    3    0    0 -0.30378096493E+01 -0.16349241001E+01 -0.11089591096E+02  0.11613797623E+02  0.51100000000E-03 0. -1.
        -11    1    3    3    0    0 -0.18643951472E+01 -0.68719477083E+01 -0.15592453233E+02  0.17141301953E+02  0.51100000000E-03 0.  1.
        -12    1    3    3    0    0 -0.82453000903E+01 -0.76569190443E+01 -0.13255262263E+02  0.17387218308E+02  0.00000000000E+00 0.  1.
</event>
<event>
 7    1  0.1466590E-008  0.4614232E+02  0.7816164E-02  0.1320468E+00
        -11   -1    0    0    0    0  0.00000000000E+00  0.00000000000E+00  0.45593999997E+02  0.45594000000E+02  0.51100000000E-03 0.  1.
         11   -1    0    0    0    0 -0.00000000000E+00 -0.00000000000E+00 -0.45593999997E+02  0.45594000000E+02  0.51100000000E-03 0. -1.
    9900012    2    1    2    0    0 -0.33492304721E+02  0.72666249677E+00  0.30113966703E+02  0.46142317582E+02  0.99999983657E+01 0.  0.
         12    1    1    2    0    0  0.33492304721E+02 -0.72666249677E+00 -0.30113966703E+02  0.45045682418E+02  0.00000000000E+00 0. -1.
         11    1    3    3    0    0 -0.95886353483E+01  0.22176271108E+01  0.85041699044E+01  0.13006948292E+02  0.51100000000E-03 0. -1.
        -11    1    3    3    0    0 -0.13948572081E+02 -0.31399759956E+01  0.16472883964E+02  0.21812336388E+02  0.51100000000E-03 0.  1.
        -12    1    3    3    0    0 -0.99550972916E+01  0.16490113816E+01  0.51369128344E+01  0.11323032902E+02  0.00000000000E+00 0.  1.
</event>
<event>
 7    1  0.1466590E-008  0.4614232E+02  0.7816164E-02  0.1320468E+00
        -11   -1    0    0    0    0  0.00000000000E+00  0.00000000000E+00  0.45593999997E+02  0.45594000000E+02  0.51100000000E-03 0. -1.
         11   -1    0    0    0    0 -0.00000000000E+00 -0.00000000000E+00 -0.45593999997E+02  0.45594000000E+02  0.51100000000E-03 0.  1.
    9900012    2    1    2    0    0 -0.14392299931E+02 -0.32832537675E+02 -0.27276357710E+02  0.46142317438E+02  0.99999970560E+01 0.  0.
         12    1    1    2    0    0  0.14392299931E+02  0.32832537675E+02  0.27276357710E+02  0.45045682562E+02  0.00000000000E+00 0. -1.
         11    1    3    3    0    0  0.77387550808E-01 -0.65448588241E+01 -0.34952264240E+01  0.74200925787E+01  0.51100000000E-03 0. -1.
        -11    1    3    3    0    0 -0.14447531334E+02 -0.24696802940E+02 -0.23658195594E+02  0.37126452242E+02  0.51100000000E-03 0.  1.
        -12    1    3    3    0    0 -0.22156148153E-01 -0.15908759118E+01 -0.12293569228E+00  0.15957726173E+01  0.00000000000E+00 0.  1.
</event>
<event>
 7    1  0.1466590E-008  0.4614232E+02  0.7816164E-02  0.1320468E+00
        -11   -1    0    0    0    0  0.00000000000E+00  0.00000000000E+00  0.45593999997E+02  0.45594000000E+02  0.51100000000E-03 0. -1.
         11   -1    0    0    0    0 -0.00000000000E+00 -0.00000000000E+00 -0.45593999997E+02  0.45594000000E+02  0.51100000000E-03 0.  1.
    9900012    2    1    2    0    0  0.41442980810E+02  0.99920045199E+01 -0.14551727845E+02  0.46142316566E+02  0.99999891001E+01 0.  0.
         12    1    1    2    0    0 -0.41442980810E+02 -0.99920045199E+01  0.14551727845E+02  0.45045683434E+02  0.00000000000E+00 0. -1.
         11    1    3    3    0    0  0.33462886227E+01  0.17817151274E+01 -0.32463042246E+01  0.49910567741E+01  0.51100000000E-03 0. -1.
        -11    1    3    3    0    0  0.23344340031E+02  0.40015402739E+01 -0.10146153860E+02  0.25766547585E+02  0.51100000000E-03 0.  1.
        -12    1    3    3    0    0  0.14752352157E+02  0.42087491186E+01 -0.11592697601E+01  0.15384712206E+02  0.00000000000E+00 0.  1.
</event>
<event>
 7    1  0.1466590E-008  0.4614232E+02  0.7816164E-02  0.1320468E+00
        -11   -1    0    0    0    0  0.00000000000E+00  0.00000000000E+00  0.45593999997E+02  0.45594000000E+02  0.51100000000E-03 0.  1.
         11   -1    0    0    0    0 -0.00000000000E+00 -0.00000000000E+00 -0.45593999997E+02  0.45594000000E+02  0.51100000000E-03 0. -1.
    9900012    2    1    2    0    0  0.16209716900E+02 -0.41823129303E+02  0.41454139275E+01  0.46142317373E+02  0.99999964650E+01 0.  0.
         12    1    1    2    0    0 -0.16209716900E+02  0.41823129303E+02 -0.41454139275E+01  0.45045682627E+02  0.00000000000E+00 0. -1.
         11    1    3    3    0    0  0.76975686071E+01 -0.20384985812E+02  0.10235892800E+01  0.21813939220E+02  0.51100000000E-03 0. -1.
        -11    1    3    3    0    0  0.62346008060E+01 -0.92353565389E+01  0.41075921509E+01  0.11875789285E+02  0.51100000000E-03 0.  1.
        -12    1    3    3    0    0  0.22775474873E+01 -0.12202786952E+02 -0.98576750340E+00  0.12452588869E+02  0.00000000000E+00 0.  1.
</event>
<event>
 7    1  0.1466590E-008  0.4614232E+02  0.7816164E-02  0.1320468E+00
        -11   -1    0    0    0    0  0.00000000000E+00  0.00000000000E+00  0.45593999997E+02  0.45594000000E+02  0.51100000000E-03 0. -1.
         11   -1    0    0    0    0 -0.00000000000E+00 -0.00000000000E+00 -0.45593999997E+02  0.45594000000E+02  0.51100000000E-03 0.  1.
    9900012    2    1    2    0    0  0.39588248534E+02 -0.10992176990E+02 -0.18467706459E+02  0.46142316979E+02  0.99999928714E+01 0.  0.
         12    1    1    2    0    0 -0.39588248534E+02  0.10992176990E+02  0.18467706459E+02  0.45045683021E+02  0.00000000000E+00 0. -1.
         11    1    3    3    0    0  0.56542941849E+01  0.71308953964E+00 -0.52140173880E+01  0.77243457331E+01  0.51100000000E-03 0. -1.
        -11    1    3    3    0    0  0.26630247557E+02 -0.10621062769E+02 -0.10266994180E+02  0.30453049585E+02  0.51100000000E-03 0.  1.
         12    1    3    3    0    0  0.73037067921E+01 -0.10842037609E+01 -0.29866948909E+01  0.79649216613E+01  0.00000000000E+00 0. -1.
</event>
<event>
 7    1  0.1466590E-008  0.4614232E+02  0.7816164E-02  0.1320468E+00
        -11   -1    0    0    0    0  0.00000000000E+00  0.00000000000E+00  0.45593999997E+02  0.45594000000E+02  0.51100000000E-03 0.  1.
         11   -1    0    0    0    0 -0.00000000000E+00 -0.00000000000E+00 -0.45593999997E+02  0.45594000000E+02  0.51100000000E-03 0. -1.
    9900012    2    1    2    0    0 -0.35095024211E+02  0.16493216077E+02  0.22922184756E+02  0.46142318132E+02  0.10000003385E+02 0.  0.
         12    1    1    2    0    0  0.35095024211E+02 -0.16493216077E+02 -0.22922184756E+02  0.45045681868E+02  0.00000000000E+00 0. -1.
         11    1    3    3    0    0 -0.19492436715E+02  0.10092665117E+02  0.11467415027E+02  0.24765269752E+02  0.51100000000E-03 0. -1.
        -11    1    3    3    0    0 -0.11777636635E+02  0.18488031399E+01  0.61774030258E+01  0.13427252368E+02  0.51100000000E-03 0.  1.
         12    1    3    3    0    0 -0.38249508613E+01  0.45517478205E+01  0.52773667034E+01  0.79497960121E+01  0.00000000000E+00 0. -1.
</event>
<event>
 7    1  0.1466590E-008  0.4614232E+02  0.7816164E-02  0.1320468E+00
        -11   -1    0    0    0    0  0.00000000000E+00  0.00000000000E+00  0.45593999997E+02  0.45594000000E+02  0.51100000000E-03 0.  1.
         11   -1    0    0    0    0 -0.00000000000E+00 -0.00000000000E+00 -0.45593999997E+02  0.45594000000E+02  0.51100000000E-03 0. -1.
    9900012    2    1    2    0    0 -0.36528523202E+02  0.26357868005E+02  0.20796916797E+00  0.46142318029E+02  0.10000002444E+02 0.  0.
         12    1    1    2    0    0  0.36528523202E+02 -0.26357868005E+02 -0.20796916797E+00  0.45045681971E+02  0.00000000000E+00 0. -1.
         11    1    3    3    0    0 -0.42021173333E+00  0.47743070377E-01  0.94691871532E+00  0.10370692437E+01  0.51100000000E-03 0. -1.
        -11    1    3    3    0    0 -0.17756272268E+02  0.92082891666E+01  0.18892412619E+00  0.20002836970E+02  0.51100000000E-03 0.  1.
         12    1    3    3    0    0 -0.18352039200E+02  0.17101835768E+02 -0.92787367355E+00  0.25102411816E+02  0.00000000000E+00 0. -1.
</event>
<event>
 7    1  0.1466590E-008  0.4614232E+02  0.7816164E-02  0.1320468E+00
        -11   -1    0    0    0    0  0.00000000000E+00  0.00000000000E+00  0.45593999997E+02  0.45594000000E+02  0.51100000000E-03 0.  1.
         11   -1    0    0    0    0 -0.00000000000E+00 -0.00000000000E+00 -0.45593999997E+02  0.45594000000E+02  0.51100000000E-03 0. -1.
    9900012    2    1    2    0    0 -0.34183151083E+02 -0.23883339454E+02  0.17035604030E+02  0.46142317343E+02  0.99999961838E+01 0.  0.
         12    1    1    2    0    0  0.34183151083E+02  0.23883339454E+02 -0.17035604030E+02  0.45045682657E+02  0.00000000000E+00 0. -1.
         11    1    3    3    0    0  0.12142076037E+00 -0.11987018713E+01  0.11424508304E+01  0.16603684346E+01  0.51100000000E-03 0. -1.
        -11    1    3    3    0    0 -0.28862442490E+02 -0.20014385425E+02  0.15547508267E+02  0.38410170840E+02  0.51100000000E-03 0.  1.
        -12    1    3    3    0    0 -0.54421293533E+01 -0.26702521576E+01  0.34564493215E+00  0.60717780676E+01  0.00000000000E+00 0.  1.
</event>
<event>
 7    1  0.1466590E-008  0.4614230E+02  0.7816164E-02  0.1320468E+00
        -11   -1    0    0    0    0  0.00000000000E+00  0.00000000000E+00  0.45593999997E+02  0.45594000000E+02  0.51100000000E-03 0.  1.
         11   -1    0    0    0    0 -0.00000000000E+00 -0.00000000000E+00 -0.45593999997E+02  0.45594000000E+02  0.51100000000E-03 0. -1.
    9900012    2    1    2    0    0  0.12448194168E+02  0.35865690431E+02 -0.24244783513E+02  0.46142303028E+02  0.99998656503E+01 0.  0.
         12    1    1    2    0    0 -0.12448194168E+02 -0.35865690431E+02  0.24244783513E+02  0.45045696972E+02  0.00000000000E+00 0. -1.
         11    1    3    3    0    0  0.50741680589E+01  0.15492438753E+02 -0.15696160819E+02  0.22630340359E+02  0.51100000000E-03 0. -1.
        -11    1    3    3    0    0  0.70451461231E+01  0.19433715943E+02 -0.88288883755E+01  0.22477826173E+02  0.51100000000E-03 0.  1.
        -12    1    3    3    0    0  0.32887998614E+00  0.93953573387E+00  0.28026568186E+00  0.10341364963E+01  0.00000000000E+00 0.  1.
</event>
<event>
 7    1  0.1466590E-008  0.4614232E+02  0.7816164E-02  0.1320468E+00
        -11   -1    0    0    0    0  0.00000000000E+00  0.00000000000E+00  0.45593999997E+02  0.45594000000E+02  0.51100000000E-03 0.  1.
         11   -1    0    0    0    0 -0.00000000000E+00 -0.00000000000E+00 -0.45593999997E+02  0.45594000000E+02  0.51100000000E-03 0. -1.
    9900012    2    1    2    0    0  0.36525697364E+01 -0.26731344761E+01  0.44817704261E+02  0.46142317311E+02  0.99999958997E+01 0.  0.
         12    1    1    2    0    0 -0.36525697364E+01  0.26731344761E+01 -0.44817704261E+02  0.45045682689E+02  0.00000000000E+00 0. -1.
         11    1    3    3    0    0  0.47901454774E+01  0.16919124459E+01  0.14187857070E+02  0.15069948571E+02  0.51100000000E-03 0. -1.
        -11    1    3    3    0    0 -0.46503365995E+00 -0.12666478446E+01  0.18005007417E+02  0.18055496266E+02  0.51100000000E-03 0.  1.
         12    1    3    3    0    0 -0.67254208109E+00 -0.30983990774E+01  0.12624839774E+02  0.13016872474E+02  0.00000000000E+00 0. -1.
</event>
<event>
 7    1  0.1720566E-008  0.4614232E+02  0.7816164E-02  0.1320468E+00
        -11   -1    0    0    0    0  0.00000000000E+00  0.00000000000E+00  0.45593999997E+02  0.45594000000E+02  0.51100000000E-03 0. -1.
         11   -1    0    0    0    0 -0.00000000000E+00 -0.00000000000E+00 -0.45593999997E+02  0.45594000000E+02  0.51100000000E-03 0.  1.
    9900012    2    1    2    0    0 -0.21342166331E+02 -0.36672871411E+02 -0.15123678281E+02  0.46142320896E+02  0.10000028588E+02 0.  0.
         12    1    1    2    0    0  0.21342166331E+02  0.36672871411E+02  0.15123678281E+02  0.45045679104E+02  0.00000000000E+00 0. -1.
         11    1    3    3    0    0  0.61812144840E+00 -0.28996573326E+01 -0.91368463076E+00  0.31024033647E+01  0.51100000000E-03 0. -1.
        -11    1    3    3    0    0 -0.20496969350E+02 -0.28997330450E+02 -0.11328751464E+02  0.37273469597E+02  0.51100000000E-03 0.  1.
        -12    1    3    3    0    0 -0.14633184286E+01 -0.47758836279E+01 -0.28812421857E+01  0.57664479347E+01  0.00000000000E+00 0.  1.
</event>
<event>
 7    1  0.1466590E-008  0.4614232E+02  0.7816164E-02  0.1320468E+00
        -11   -1    0    0    0    0  0.00000000000E+00  0.00000000000E+00  0.45593999997E+02  0.45594000000E+02  0.51100000000E-03 0.  1.
         11   -1    0    0    0    0 -0.00000000000E+00 -0.00000000000E+00 -0.45593999997E+02  0.45594000000E+02  0.51100000000E-03 0. -1.
    9900012    2    1    2    0    0  0.11383725983E+02 -0.38481010348E+02  0.20463043566E+02  0.46142317336E+02  0.99999961234E+01 0.  0.
         12    1    1    2    0    0 -0.11383725983E+02  0.38481010348E+02 -0.20463043566E+02  0.45045682664E+02  0.00000000000E+00 0. -1.
         11    1    3    3    0    0  0.41634552900E+01 -0.17967295194E+02  0.68412476605E+01  0.19671317352E+02  0.51100000000E-03 0. -1.
        -11    1    3    3    0    0  0.52328805423E+01 -0.12012438645E+02  0.45238288689E+01  0.13861700793E+02  0.51100000000E-03 0.  1.
        -12    1    3    3    0    0  0.19873901511E+01 -0.85012765087E+01  0.90979670368E+01  0.12609299191E+02  0.00000000000E+00 0.  1.
</event>
<event>
 7    1  0.1466590E-008  0.4614232E+02  0.7816164E-02  0.1320468E+00
        -11   -1    0    0    0    0  0.00000000000E+00  0.00000000000E+00  0.45593999997E+02  0.45594000000E+02  0.51100000000E-03 0. -1.
         11   -1    0    0    0    0 -0.00000000000E+00 -0.00000000000E+00 -0.45593999997E+02  0.45594000000E+02  0.51100000000E-03 0.  1.
    9900012    2    1    2    0    0 -0.24557067231E+02  0.30760786200E+02 -0.21905205999E+02  0.46142316872E+02  0.99999918888E+01 0.  0.
         12    1    1    2    0    0  0.24557067231E+02 -0.30760786200E+02  0.21905205999E+02  0.45045683128E+02  0.00000000000E+00 0. -1.
         11    1    3    3    0    0 -0.19530419810E+01  0.41710972870E+01  0.20744478118E+00  0.46103643192E+01  0.51100000000E-03 0. -1.
        -11    1    3    3    0    0 -0.20099533781E+02  0.25162081921E+02 -0.20975534564E+02  0.38432989415E+02  0.51100000000E-03 0.  1.
         12    1    3    3    0    0 -0.25044914689E+01  0.14276069923E+01 -0.11371162157E+01  0.30989631379E+01  0.00000000000E+00 0. -1.
</event>
<event>
 7    1  0.1466590E-008  0.4614232E+02  0.7816164E-02  0.1320468E+00
        -11   -1    0    0    0    0  0.00000000000E+00  0.00000000000E+00  0.45593999997E+02  0.45594000000E+02  0.51100000000E-03 0.  1.
         11   -1    0    0    0    0 -0.00000000000E+00 -0.00000000000E+00 -0.45593999997E+02  0.45594000000E+02  0.51100000000E-03 0. -1.
    9900012    2    1    2    0    0  0.30768077444E+02 -0.18717343200E+02  0.27057346105E+02  0.46142317584E+02  0.99999983875E+01 0.  0.
         12    1    1    2    0    0 -0.30768077444E+02  0.18717343200E+02 -0.27057346105E+02  0.45045682416E+02  0.00000000000E+00 0. -1.
         11    1    3    3    0    0  0.21071653848E+01 -0.19195281596E+01  0.55263899536E+00  0.29034711011E+01  0.51100000000E-03 0. -1.
        -11    1    3    3    0    0  0.17224547273E+02 -0.10466621122E+02  0.11008970397E+02  0.22965901157E+02  0.51100000000E-03 0.  1.
        -12    1    3    3    0    0  0.11436364786E+02 -0.63311939185E+01  0.15495736712E+02  0.20272945327E+02  0.00000000000E+00 0.  1.
</event>
<event>
 7    1  0.1466590E-008  0.4614232E+02  0.7816164E-02  0.1320468E+00
        -11   -1    0    0    0    0  0.00000000000E+00  0.00000000000E+00  0.45593999997E+02  0.45594000000E+02  0.51100000000E-03 0.  1.
         11   -1    0    0    0    0 -0.00000000000E+00 -0.00000000000E+00 -0.45593999997E+02  0.45594000000E+02  0.51100000000E-03 0. -1.
    9900012    2    1    2    0    0 -0.24178031312E+02 -0.21012766905E+02  0.31670171379E+02  0.46142319560E+02  0.10000016404E+02 0.  0.
         12    1    1    2    0    0  0.24178031312E+02  0.21012766905E+02 -0.31670171379E+02  0.45045680440E+02  0.00000000000E+00 0. -1.
         11    1    3    3    0    0 -0.60415095513E+01 -0.46763602230E+01  0.49545709351E+01  0.91058198975E+01  0.51100000000E-03 0. -1.
        -11    1    3    3    0    0 -0.15287024617E+02 -0.14233711618E+02  0.26121250618E+02  0.33445648479E+02  0.51100000000E-03 0.  1.
        -12    1    3    3    0    0 -0.28494971440E+01 -0.21026950638E+01  0.59434982520E+00  0.35908511832E+01  0.00000000000E+00 0.  1.
</event>
<event>
 7    1  0.1466590E-008  0.4614232E+02  0.7816164E-02  0.1320468E+00
        -11   -1    0    0    0    0  0.00000000000E+00  0.00000000000E+00  0.45593999997E+02  0.45594000000E+02  0.51100000000E-03 0. -1.
         11   -1    0    0    0    0 -0.00000000000E+00 -0.00000000000E+00 -0.45593999997E+02  0.45594000000E+02  0.51100000000E-03 0.  1.
    9900012    2    1    2    0    0  0.28677108239E+02  0.76118861207E+01 -0.33893894934E+02  0.46142318064E+02  0.10000002761E+02 0.  0.
         12    1    1    2    0    0 -0.28677108239E+02 -0.76118861207E+01  0.33893894934E+02  0.45045681936E+02  0.00000000000E+00 0. -1.
         11    1    3    3    0    0  0.26258046896E+01  0.24432681820E+01 -0.23470333442E+01  0.42863708959E+01  0.51100000000E-03 0. -1.
        -11    1    3    3    0    0  0.50486357878E+01 -0.12831979060E+00 -0.25367323496E+01  0.56515662042E+01  0.51100000000E-03 0.  1.
        -12    1    3    3    0    0  0.21002667762E+02  0.52969377293E+01 -0.29010129240E+02  0.36204380964E+02  0.00000000000E+00 0.  1.
</event>
<event>
 7    1  0.1466590E-008  0.4614232E+02  0.7816164E-02  0.1320468E+00
        -11   -1    0    0    0    0  0.00000000000E+00  0.00000000000E+00  0.45593999997E+02  0.45594000000E+02  0.51100000000E-03 0.  1.
         11   -1    0    0    0    0 -0.00000000000E+00 -0.00000000000E+00 -0.45593999997E+02  0.45594000000E+02  0.51100000000E-03 0. -1.
    9900012    2    1    2    0    0 -0.41982236169E+02  0.14790048564E+02  0.69180858527E+01  0.46142316498E+02  0.99999884826E+01 0.  0.
         12    1    1    2    0    0  0.41982236169E+02 -0.14790048564E+02 -0.69180858527E+01  0.45045683502E+02  0.00000000000E+00 0. -1.
         11    1    3    3    0    0 -0.51929488877E+01  0.33370139885E+01  0.24485902064E+01  0.66406306003E+01  0.51100000000E-03 0. -1.
        -11    1    3    3    0    0 -0.19093550051E+02  0.97198361875E+01  0.33560250409E+01  0.21686442156E+02  0.51100000000E-03 0.  1.
        -12    1    3    3    0    0 -0.17695737230E+02  0.17331983884E+01  0.11134706053E+01  0.17815243742E+02  0.00000000000E+00 0.  1.
</event>
<event>
 7    1  0.1466590E-008  0.4614232E+02  0.7816164E-02  0.1320468E+00
        -11   -1    0    0    0    0  0.00000000000E+00  0.00000000000E+00  0.45593999997E+02  0.45594000000E+02  0.51100000000E-03 0.  1.
         11   -1    0    0    0    0 -0.00000000000E+00 -0.00000000000E+00 -0.45593999997E+02  0.45594000000E+02  0.51100000000E-03 0. -1.
    9900012    2    1    2    0    0  0.17757303167E+02 -0.16321070784E+01  0.41365782279E+02  0.46142317268E+02  0.99999955021E+01 0.  0.
         12    1    1    2    0    0 -0.17757303167E+02  0.16321070784E+01 -0.41365782279E+02  0.45045682732E+02  0.00000000000E+00 0. -1.
         11    1    3    3    0    0  0.39743318307E+01 -0.38273699119E+00  0.35791233213E+01  0.53620821623E+01  0.51100000000E-03 0. -1.
        -11    1    3    3    0    0  0.63627133537E+01  0.59876959384E+00  0.25659906370E+02  0.26443778879E+02  0.51100000000E-03 0.  1.
        -12    1    3    3    0    0  0.74202579825E+01 -0.18481396810E+01  0.12126752588E+02  0.14336456226E+02  0.00000000000E+00 0.  1.
</event>
<event>
 7    1  0.1466590E-008  0.4614232E+02  0.7816164E-02  0.1320468E+00
        -11   -1    0    0    0    0  0.00000000000E+00  0.00000000000E+00  0.45593999997E+02  0.45594000000E+02  0.51100000000E-03 0. -1.
         11   -1    0    0    0    0 -0.00000000000E+00 -0.00000000000E+00 -0.45593999997E+02  0.45594000000E+02  0.51100000000E-03 0.  1.
    9900012    2    1    2    0    0 -0.40568150289E+02  0.18018115004E+02 -0.76606799091E+01  0.46142319820E+02  0.10000018779E+02 0.  0.
         12    1    1    2    0    0  0.40568150289E+02 -0.18018115004E+02  0.76606799091E+01  0.45045680180E+02  0.00000000000E+00 0. -1.
         11    1    3    3    0    0 -0.13627283629E+02  0.43685582630E+01 -0.55119565552E+01  0.15335215216E+02  0.51100000000E-03 0. -1.
        -11    1    3    3    0    0 -0.13658580888E+02  0.42272963944E+01 -0.25189728486E+01  0.14517991981E+02  0.51100000000E-03 0.  1.
         12    1    3    3    0    0 -0.13282285772E+02  0.94222603468E+01  0.37024949470E+00  0.16289112624E+02  0.00000000000E+00 0. -1.
</event>
<event>
 7    1  0.1466590E-008  0.4614232E+02  0.7816164E-02  0.1320468E+00
        -11   -1    0    0    0    0  0.00000000000E+00  0.00000000000E+00  0.45593999997E+02  0.45594000000E+02  0.51100000000E-03 0. -1.
         11   -1    0    0    0    0 -0.00000000000E+00 -0.00000000000E+00 -0.45593999997E+02  0.45594000000E+02  0.51100000000E-03 0.  1.
    9900012    2    1    2    0    0 -0.15768882525E+02  0.37001872904E+02  0.20280959264E+02  0.46142316931E+02  0.99999924330E+01 0.  0.
         12    1    1    2    0    0  0.15768882525E+02 -0.37001872904E+02 -0.20280959264E+02  0.45045683069E+02  0.00000000000E+00 0. -1.
         11    1    3    3    0    0 -0.71052523986E+01  0.17562439481E+02  0.96215264233E+01  0.21248474372E+02  0.51100000000E-03 0.  1.
        -11    1    3    3    0    0  0.95853860407E+00  0.49915864526E+01  0.31551720934E+01  0.59824612635E+01  0.51100000000E-03 0. -1.
        -12    1    3    3    0    0 -0.96221687300E+01  0.14447846970E+02  0.75042607473E+01  0.18911381295E+02  0.00000000000E+00 0.  1.
</event>
<event>
 7    1  0.1466590E-008  0.4614232E+02  0.7816164E-02  0.1320468E+00
        -11   -1    0    0    0    0  0.00000000000E+00  0.00000000000E+00  0.45593999997E+02  0.45594000000E+02  0.51100000000E-03 0. -1.
         11   -1    0    0    0    0 -0.00000000000E+00 -0.00000000000E+00 -0.45593999997E+02  0.45594000000E+02  0.51100000000E-03 0.  1.
    9900012    2    1    2    0    0  0.21206868214E+02 -0.12210559840E+02 -0.37819094972E+02  0.46142323454E+02  0.10000051910E+02 0.  0.
         12    1    1    2    0    0 -0.21206868214E+02  0.12210559840E+02  0.37819094972E+02  0.45045676546E+02  0.00000000000E+00 0. -1.
         11    1    3    3    0    0  0.27768732052E+01 -0.16119129161E+01 -0.43626099828E+01  0.54167937168E+01  0.51100000000E-03 0. -1.
        -11    1    3    3    0    0  0.12451548821E+02 -0.48558751696E+01 -0.12962702823E+02  0.18618599744E+02  0.51100000000E-03 0.  1.
        -12    1    3    3    0    0  0.59784461877E+01 -0.57427717540E+01 -0.20493782166E+02  0.22106929993E+02  0.00000000000E+00 0.  1.
</event>
<event>
 7    1  0.1466590E-008  0.4614232E+02  0.7816164E-02  0.1320468E+00
        -11   -1    0    0    0    0  0.00000000000E+00  0.00000000000E+00  0.45593999997E+02  0.45594000000E+02  0.51100000000E-03 0.  1.
         11   -1    0    0    0    0 -0.00000000000E+00 -0.00000000000E+00 -0.45593999997E+02  0.45594000000E+02  0.51100000000E-03 0. -1.
    9900012    2    1    2    0    0 -0.19272761151E+02 -0.38654439457E+01  0.40530638126E+02  0.46142316454E+02  0.99999880780E+01 0.  0.
         12    1    1    2    0    0  0.19272761151E+02  0.38654439457E+01 -0.40530638126E+02  0.45045683546E+02  0.00000000000E+00 0. -1.
         11    1    3    3    0    0 -0.50502837586E+01 -0.34936650170E+00  0.45653680379E+01  0.68168914160E+01  0.51100000000E-03 0. -1.
        -11    1    3    3    0    0 -0.10230546808E+02 -0.14594066561E+01  0.17513762886E+02  0.20335334924E+02  0.51100000000E-03 0.  1.
         12    1    3    3    0    0 -0.39919305850E+01 -0.20566707879E+01  0.18451507202E+02  0.18990090114E+02  0.00000000000E+00 0. -1.
</event>
<event>
 7    1  0.1466590E-008  0.4614232E+02  0.7816164E-02  0.1320468E+00
        -11   -1    0    0    0    0  0.00000000000E+00  0.00000000000E+00  0.45593999997E+02  0.45594000000E+02  0.51100000000E-03 0.  1.
         11   -1    0    0    0    0 -0.00000000000E+00 -0.00000000000E+00 -0.45593999997E+02  0.45594000000E+02  0.51100000000E-03 0. -1.
    9900012    2    1    2    0    0  0.62662443048E+01 -0.33281349951E+02  0.29701840677E+02  0.46142318610E+02  0.10000007745E+02 0.  0.
         12    1    1    2    0    0 -0.62662443048E+01  0.33281349951E+02 -0.29701840677E+02  0.45045681390E+02  0.00000000000E+00 0. -1.
         11    1    3    3    0    0 -0.55967641725E+00 -0.12505403186E+02  0.78405106541E+01  0.14770645013E+02  0.51100000000E-03 0. -1.
        -11    1    3    3    0    0  0.61540955927E+01 -0.14673213221E+02  0.18392304128E+02  0.24319805307E+02  0.51100000000E-03 0.  1.
        -12    1    3    3    0    0  0.67182512937E+00 -0.61027335449E+01  0.34690258953E+01  0.70518682905E+01  0.00000000000E+00 0.  1.
</event>
<event>
 7    1  0.1466590E-008  0.4614232E+02  0.7816164E-02  0.1320468E+00
        -11   -1    0    0    0    0  0.00000000000E+00  0.00000000000E+00  0.45593999997E+02  0.45594000000E+02  0.51100000000E-03 0.  1.
         11   -1    0    0    0    0 -0.00000000000E+00 -0.00000000000E+00 -0.45593999997E+02  0.45594000000E+02  0.51100000000E-03 0. -1.
    9900012    2    1    2    0    0 -0.15269014182E+02 -0.13938817659E+02  0.40020995862E+02  0.46142317170E+02  0.99999946092E+01 0.  0.
         12    1    1    2    0    0  0.15269014182E+02  0.13938817659E+02 -0.40020995862E+02  0.45045682830E+02  0.00000000000E+00 0. -1.
         11    1    3    3    0    0 -0.72370934090E+01 -0.29695671350E+01  0.23170828523E+02  0.24455697591E+02  0.51100000000E-03 0. -1.
        -11    1    3    3    0    0 -0.51108147613E+01 -0.63574010670E+01  0.10857184661E+02  0.13579964465E+02  0.51100000000E-03 0.  1.
         12    1    3    3    0    0 -0.29211060120E+01 -0.46118494568E+01  0.59929826782E+01  0.81066551134E+01  0.00000000000E+00 0. -1.
</event>
<event>
 7    1  0.1466590E-008  0.4614232E+02  0.7816164E-02  0.1320468E+00
        -11   -1    0    0    0    0  0.00000000000E+00  0.00000000000E+00  0.45593999997E+02  0.45594000000E+02  0.51100000000E-03 0.  1.
         11   -1    0    0    0    0 -0.00000000000E+00 -0.00000000000E+00 -0.45593999997E+02  0.45594000000E+02  0.51100000000E-03 0. -1.
    9900012    2    1    2    0    0 -0.29182261844E+02  0.25161334144E+02  0.23332729895E+02  0.46142318447E+02  0.10000006251E+02 0.  0.
         12    1    1    2    0    0  0.29182261844E+02 -0.25161334144E+02 -0.23332729895E+02  0.45045681553E+02  0.00000000000E+00 0. -1.
         11    1    3    3    0    0 -0.18555311488E+02  0.12521055535E+02  0.17661113111E+02  0.28513002871E+02  0.51100000000E-03 0. -1.
        -11    1    3    3    0    0 -0.10605066520E+02  0.12348256143E+02  0.52249893883E+01  0.17095244369E+02  0.51100000000E-03 0.  1.
         12    1    3    3    0    0 -0.21883835421E-01  0.29202246626E+00  0.44662739601E+00  0.53407120679E+00  0.00000000000E+00 0. -1.
</event>
<event>
 7    1  0.1466590E-008  0.4614232E+02  0.7816164E-02  0.1320468E+00
        -11   -1    0    0    0    0  0.00000000000E+00  0.00000000000E+00  0.45593999997E+02  0.45594000000E+02  0.51100000000E-03 0.  1.
         11   -1    0    0    0    0 -0.00000000000E+00 -0.00000000000E+00 -0.45593999997E+02  0.45594000000E+02  0.51100000000E-03 0. -1.
    9900012    2    1    2    0    0  0.17078345577E+02 -0.87506156837E+01  0.40753776666E+02  0.46142317909E+02  0.10000001352E+02 0.  0.
         12    1    1    2    0    0 -0.17078345577E+02  0.87506156837E+01 -0.40753776666E+02  0.45045682091E+02  0.00000000000E+00 0. -1.
         11    1    3    3    0    0  0.95093756913E+01 -0.74758654401E+01  0.21424851136E+02  0.24603679330E+02  0.51100000000E-03 0. -1.
        -11    1    3    3    0    0  0.61999682413E+01 -0.32021906863E+01  0.16001548360E+02  0.17456894957E+02  0.51100000000E-03 0.  1.
         12    1    3    3    0    0  0.13690016448E+01  0.19274404427E+01  0.33273771698E+01  0.40817436217E+01  0.00000000000E+00 0. -1.
</event>
<event>
 7    1  0.1466590E-008  0.4614232E+02  0.7816164E-02  0.1320468E+00
        -11   -1    0    0    0    0  0.00000000000E+00  0.00000000000E+00  0.45593999997E+02  0.45594000000E+02  0.51100000000E-03 0.  1.
         11   -1    0    0    0    0 -0.00000000000E+00 -0.00000000000E+00 -0.45593999997E+02  0.45594000000E+02  0.51100000000E-03 0. -1.
    9900012    2    1    2    0    0 -0.43820530255E+02  0.37676201809E+01  0.97303505760E+01  0.46142317011E+02  0.99999931594E+01 0.  0.
         12    1    1    2    0    0  0.43820530255E+02 -0.37676201809E+01 -0.97303505760E+01  0.45045682989E+02  0.00000000000E+00 0. -1.
         11    1    3    3    0    0 -0.19034462741E+02 -0.28847092004E+01  0.33604137484E+01  0.19542893845E+02  0.51100000000E-03 0. -1.
        -11    1    3    3    0    0 -0.11489745381E+02  0.41247757189E+01  0.19558932242E+01  0.12363395254E+02  0.51100000000E-03 0.  1.
         12    1    3    3    0    0 -0.13296322132E+02  0.25275536624E+01  0.44140436034E+01  0.14236027911E+02  0.00000000000E+00 0. -1.
</event>
<event>
 7    1  0.1466590E-008  0.4614232E+02  0.7816164E-02  0.1320468E+00
        -11   -1    0    0    0    0  0.00000000000E+00  0.00000000000E+00  0.45593999997E+02  0.45594000000E+02  0.51100000000E-03 0. -1.
         11   -1    0    0    0    0 -0.00000000000E+00 -0.00000000000E+00 -0.45593999997E+02  0.45594000000E+02  0.51100000000E-03 0.  1.
    9900012    2    1    2    0    0  0.21230886861E+02  0.34657552569E+02  0.19422073402E+02  0.46142318273E+02  0.10000004669E+02 0.  0.
         12    1    1    2    0    0 -0.21230886861E+02 -0.34657552569E+02 -0.19422073402E+02  0.45045681727E+02  0.00000000000E+00 0. -1.
         11    1    3    3    0    0  0.14940049574E+01 -0.12555078652E+00  0.53596626544E+00  0.15921915436E+01  0.51100000000E-03 0. -1.
        -11    1    3    3    0    0  0.15241569365E+02  0.25101326425E+02  0.11349685619E+02  0.31483287454E+02  0.51100000000E-03 0.  1.
         12    1    3    3    0    0  0.44953125390E+01  0.96817769306E+01  0.75364215178E+01  0.13066839275E+02  0.00000000000E+00 0. -1.
</event>
<event>
 7    1  0.1466590E-008  0.4614232E+02  0.7816164E-02  0.1320468E+00
        -11   -1    0    0    0    0  0.00000000000E+00  0.00000000000E+00  0.45593999997E+02  0.45594000000E+02  0.51100000000E-03 0. -1.
         11   -1    0    0    0    0 -0.00000000000E+00 -0.00000000000E+00 -0.45593999997E+02  0.45594000000E+02  0.51100000000E-03 0.  1.
    9900012    2    1    2    0    0 -0.30018386686E+02  0.40323089491E+01 -0.33342922030E+02  0.46142317585E+02  0.99999983957E+01 0.  0.
         12    1    1    2    0    0  0.30018386686E+02 -0.40323089491E+01  0.33342922030E+02  0.45045682415E+02  0.00000000000E+00 0. -1.
         11    1    3    3    0    0 -0.17598064736E+01  0.23433012504E+00 -0.65396871886E+01  0.67763809086E+01  0.51100000000E-03 0. -1.
        -11    1    3    3    0    0 -0.23407612220E+02  0.15321416994E+01 -0.21241960468E+02  0.31646242318E+02  0.51100000000E-03 0.  1.
        -12    1    3    3    0    0 -0.48509679928E+01  0.22658371246E+01 -0.55612743732E+01  0.77196943590E+01  0.00000000000E+00 0.  1.
</event>
<event>
 7    1  0.1466590E-008  0.4614232E+02  0.7816164E-02  0.1320468E+00
        -11   -1    0    0    0    0  0.00000000000E+00  0.00000000000E+00  0.45593999997E+02  0.45594000000E+02  0.51100000000E-03 0.  1.
         11   -1    0    0    0    0 -0.00000000000E+00 -0.00000000000E+00 -0.45593999997E+02  0.45594000000E+02  0.51100000000E-03 0. -1.
    9900012    2    1    2    0    0 -0.52623216064E+01  0.34666100603E+02  0.28278666512E+02  0.46142317195E+02  0.99999948337E+01 0.  0.
         12    1    1    2    0    0  0.52623216064E+01 -0.34666100603E+02 -0.28278666512E+02  0.45045682805E+02  0.00000000000E+00 0. -1.
         11    1    3    3    0    0 -0.38235867905E+01  0.90797742639E+01  0.12555406202E+02  0.15959334002E+02  0.51100000000E-03 0. -1.
        -11    1    3    3    0    0 -0.12850550174E+01  0.15667154104E+02  0.11063770263E+02  0.19222853503E+02  0.51100000000E-03 0.  1.
         12    1    3    3    0    0 -0.15367979855E+00  0.99191722350E+01  0.46594900476E+01  0.10960129690E+02  0.00000000000E+00 0. -1.
</event>
<event>
 7    1  0.1466590E-008  0.4614231E+02  0.7816164E-02  0.1320468E+00
        -11   -1    0    0    0    0  0.00000000000E+00  0.00000000000E+00  0.45593999997E+02  0.45594000000E+02  0.51100000000E-03 0.  1.
         11   -1    0    0    0    0 -0.00000000000E+00 -0.00000000000E+00 -0.45593999997E+02  0.45594000000E+02  0.51100000000E-03 0. -1.
    9900012    2    1    2    0    0 -0.32771670434E+02  0.30113188029E+02  0.69517909836E+01  0.46142313478E+02  0.99999609454E+01 0.  0.
         12    1    1    2    0    0  0.32771670434E+02 -0.30113188029E+02 -0.69517909836E+01  0.45045686522E+02  0.00000000000E+00 0. -1.
         11    1    3    3    0    0 -0.21684578244E+02  0.19577695783E+02  0.90743007572E+01  0.30591666190E+02  0.51100000000E-03 0. -1.
        -11    1    3    3    0    0 -0.44102240736E+01  0.46787520750E+01 -0.47204477541E-01  0.64298542660E+01  0.51100000000E-03 0.  1.
         12    1    3    3    0    0 -0.66768681166E+01  0.58567401709E+01 -0.20753052961E+01  0.91207930218E+01  0.00000000000E+00 0. -1.
</event>
<event>
 7    1  0.1466590E-008  0.4614232E+02  0.7816164E-02  0.1320468E+00
        -11   -1    0    0    0    0  0.00000000000E+00  0.00000000000E+00  0.45593999997E+02  0.45594000000E+02  0.51100000000E-03 0. -1.
         11   -1    0    0    0    0 -0.00000000000E+00 -0.00000000000E+00 -0.45593999997E+02  0.45594000000E+02  0.51100000000E-03 0.  1.
    9900012    2    1    2    0    0 -0.12311346065E+02  0.26817953616E+02 -0.34034420351E+02  0.46142316003E+02  0.99999839680E+01 0.  0.
         12    1    1    2    0    0  0.12311346065E+02 -0.26817953616E+02  0.34034420351E+02  0.45045683997E+02  0.00000000000E+00 0. -1.
         11    1    3    3    0    0 -0.67307431442E+01  0.17599223131E+02 -0.15434219466E+02  0.24356738059E+02  0.51100000000E-03 0. -1.
        -11    1    3    3    0    0 -0.48825286428E+01  0.87083271726E+01 -0.18342015321E+02  0.20883093027E+02  0.51100000000E-03 0.  1.
        -12    1    3    3    0    0 -0.69807427799E+00  0.51040331320E+00 -0.25818556448E+00  0.90248491701E+00  0.00000000000E+00 0.  1.
</event>
<event>
 7    1  0.1466590E-008  0.4614232E+02  0.7816164E-02  0.1320468E+00
        -11   -1    0    0    0    0  0.00000000000E+00  0.00000000000E+00  0.45593999997E+02  0.45594000000E+02  0.51100000000E-03 0.  1.
         11   -1    0    0    0    0 -0.00000000000E+00 -0.00000000000E+00 -0.45593999997E+02  0.45594000000E+02  0.51100000000E-03 0. -1.
    9900012    2    1    2    0    0 -0.53683099841E+01  0.39844089522E+02  0.20316083842E+02  0.46142317803E+02  0.10000000383E+02 0.  0.
         12    1    1    2    0    0  0.53683099841E+01 -0.39844089522E+02 -0.20316083842E+02  0.45045682197E+02  0.00000000000E+00 0. -1.
         11    1    3    3    0    0 -0.44494691510E+00  0.11503710435E+02  0.95488626661E+01  0.14957075583E+02  0.51100000000E-03 0. -1.
        -11    1    3    3    0    0 -0.51218189630E+01  0.18743123917E+02  0.90458966221E+01  0.21432824584E+02  0.51100000000E-03 0.  1.
         12    1    3    3    0    0  0.19845589399E+00  0.95972551695E+01  0.17213245534E+01  0.97524176361E+01  0.00000000000E+00 0. -1.
</event>
<event>
 7    1  0.1466590E-008  0.4614232E+02  0.7816164E-02  0.1320468E+00
        -11   -1    0    0    0    0  0.00000000000E+00  0.00000000000E+00  0.45593999997E+02  0.45594000000E+02  0.51100000000E-03 0.  1.
         11   -1    0    0    0    0 -0.00000000000E+00 -0.00000000000E+00 -0.45593999997E+02  0.45594000000E+02  0.51100000000E-03 0. -1.
    9900012    2    1    2    0    0 -0.34180094100E+02 -0.27987803146E+02  0.88043906556E+01  0.46142320380E+02  0.10000023883E+02 0.  0.
         12    1    1    2    0    0  0.34180094100E+02  0.27987803146E+02 -0.88043906556E+01  0.45045679620E+02  0.00000000000E+00 0. -1.
         11    1    3    3    0    0 -0.14112546255E+02 -0.14708352159E+02  0.16537163335E+00  0.20384477748E+02  0.51100000000E-03 0. -1.
        -11    1    3    3    0    0 -0.17897256488E+02 -0.10608070149E+02  0.70504090180E+01  0.21967048269E+02  0.51100000000E-03 0.  1.
         12    1    3    3    0    0 -0.21702913568E+01 -0.26713808384E+01  0.15886100042E+01  0.37907943630E+01  0.00000000000E+00 0. -1.
</event>
<event>
 7    1  0.1466590E-008  0.4614232E+02  0.7816164E-02  0.1320468E+00
        -11   -1    0    0    0    0  0.00000000000E+00  0.00000000000E+00  0.45593999997E+02  0.45594000000E+02  0.51100000000E-03 0.  1.
         11   -1    0    0    0    0 -0.00000000000E+00 -0.00000000000E+00 -0.45593999997E+02  0.45594000000E+02  0.51100000000E-03 0. -1.
    9900012    2    1    2    0    0  0.23092789147E+02 -0.27442964159E+01  0.38578562027E+02  0.46142317394E+02  0.99999966482E+01 0.  0.
         12    1    1    2    0    0 -0.23092789147E+02  0.27442964159E+01 -0.38578562027E+02  0.45045682606E+02  0.00000000000E+00 0. -1.
         11    1    3    3    0    0  0.12438413548E+02 -0.53268727366E+01  0.19862085941E+02  0.24033147171E+02  0.51100000000E-03 0. -1.
        -11    1    3    3    0    0  0.10744559271E+02  0.18512908391E+01  0.16529841048E+02  0.19801729142E+02  0.51100000000E-03 0.  1.
         12    1    3    3    0    0 -0.90183671614E-01  0.73128548168E+00  0.21866350378E+01  0.23074410803E+01  0.00000000000E+00 0. -1.
</event>
<event>
 7    1  0.1737613E-008  0.4614232E+02  0.7816164E-02  0.1320468E+00
        -11   -1    0    0    0    0  0.00000000000E+00  0.00000000000E+00  0.45593999997E+02  0.45594000000E+02  0.51100000000E-03 0. -1.
         11   -1    0    0    0    0 -0.00000000000E+00 -0.00000000000E+00 -0.45593999997E+02  0.45594000000E+02  0.51100000000E-03 0.  1.
    9900012    2    1    2    0    0  0.41001223780E+02 -0.10287439794E+02 -0.15562189957E+02  0.46142317352E+02  0.99999962694E+01 0.  0.
         12    1    1    2    0    0 -0.41001223780E+02  0.10287439794E+02  0.15562189957E+02  0.45045682648E+02  0.00000000000E+00 0. -1.
         11    1    3    3    0    0  0.22794447206E+00  0.36349528602E+00  0.60880739136E+00  0.74480481080E+00  0.51100000000E-03 0. -1.
        -11    1    3    3    0    0  0.35252326693E+02 -0.80768738577E+01 -0.12396349520E+02  0.38231294907E+02  0.51100000000E-03 0.  1.
        -12    1    3    3    0    0  0.55209526145E+01 -0.25740612220E+01 -0.37746478285E+01  0.71662176338E+01  0.00000000000E+00 0.  1.
</event>
<event>
 7    1  0.1466590E-008  0.4614232E+02  0.7816164E-02  0.1320468E+00
        -11   -1    0    0    0    0  0.00000000000E+00  0.00000000000E+00  0.45593999997E+02  0.45594000000E+02  0.51100000000E-03 0.  1.
         11   -1    0    0    0    0 -0.00000000000E+00 -0.00000000000E+00 -0.45593999997E+02  0.45594000000E+02  0.51100000000E-03 0. -1.
    9900012    2    1    2    0    0  0.34293247400E+02 -0.92921274823E+01  0.27690125932E+02  0.46142317360E+02  0.99999963415E+01 0.  0.
         12    1    1    2    0    0 -0.34293247400E+02  0.92921274823E+01 -0.27690125932E+02  0.45045682640E+02  0.00000000000E+00 0. -1.
         11    1    3    3    0    0 -0.10168466335E+00  0.12815305117E+00 -0.55224240191E+00  0.57596432777E+00  0.51100000000E-03 0. -1.
        -11    1    3    3    0    0  0.10542928641E+02 -0.38796279806E+01  0.98579471483E+01  0.14946035589E+02  0.51100000000E-03 0.  1.
         12    1    3    3    0    0  0.23852003422E+02 -0.55406525529E+01  0.18384421186E+02  0.30620317443E+02  0.00000000000E+00 0. -1.
</event>
<event>
 7    1  0.1466590E-008  0.4614232E+02  0.7816164E-02  0.1320468E+00
        -11   -1    0    0    0    0  0.00000000000E+00  0.00000000000E+00  0.45593999997E+02  0.45594000000E+02  0.51100000000E-03 0. -1.
         11   -1    0    0    0    0 -0.00000000000E+00 -0.00000000000E+00 -0.45593999997E+02  0.45594000000E+02  0.51100000000E-03 0.  1.
    9900012    2    1    2    0    0 -0.38297981930E+02  0.84954356209E+01 -0.22140587496E+02  0.46142318065E+02  0.10000002774E+02 0.  0.
         12    1    1    2    0    0  0.38297981930E+02 -0.84954356209E+01  0.22140587496E+02  0.45045681935E+02  0.00000000000E+00 0. -1.
         11    1    3    3    0    0 -0.20707419061E+02  0.34616742429E+01 -0.79809546380E+01  0.22460543848E+02  0.51100000000E-03 0. -1.
        -11    1    3    3    0    0 -0.17412229214E+02  0.49409269583E+01 -0.12468355738E+02  0.21978589137E+02  0.51100000000E-03 0.  1.
         12    1    3    3    0    0 -0.17833365507E+00  0.92834419763E-01 -0.16912771197E+01  0.17031850803E+01  0.00000000000E+00 0. -1.
</event>
<event>
 7    1  0.1466590E-008  0.4614233E+02  0.7816164E-02  0.1320468E+00
        -11   -1    0    0    0    0  0.00000000000E+00  0.00000000000E+00  0.45593999997E+02  0.45594000000E+02  0.51100000000E-03 0.  1.
         11   -1    0    0    0    0 -0.00000000000E+00 -0.00000000000E+00 -0.45593999997E+02  0.45594000000E+02  0.51100000000E-03 0. -1.
    9900012    2    1    2    0    0  0.54395126769E+01 -0.29809942185E+02  0.33330038011E+02  0.46142330007E+02  0.10000111670E+02 0.  0.
         12    1    1    2    0    0 -0.54395126769E+01  0.29809942185E+02 -0.33330038011E+02  0.45045669993E+02  0.00000000000E+00 0. -1.
         11    1    3    3    0    0  0.13208945118E+01 -0.52618165193E+00  0.27570523983E+00  0.14483242325E+01  0.51100000000E-03 0. -1.
        -11    1    3    3    0    0  0.44927789908E+01 -0.14908256176E+02  0.15090658087E+02  0.21683383662E+02  0.51100000000E-03 0.  1.
        -12    1    3    3    0    0 -0.37416082561E+00 -0.14375504357E+02  0.17963674684E+02  0.23010622113E+02  0.00000000000E+00 0.  1.
</event>
<event>
 7    1  0.1466590E-008  0.4614232E+02  0.7816164E-02  0.1320468E+00
        -11   -1    0    0    0    0  0.00000000000E+00  0.00000000000E+00  0.45593999997E+02  0.45594000000E+02  0.51100000000E-03 0.  1.
         11   -1    0    0    0    0 -0.00000000000E+00 -0.00000000000E+00 -0.45593999997E+02  0.45594000000E+02  0.51100000000E-03 0. -1.
    9900012    2    1    2    0    0  0.28925641927E+02 -0.31925990684E+00  0.34529970566E+02  0.46142317021E+02  0.99999932483E+01 0.  0.
         12    1    1    2    0    0 -0.28925641927E+02  0.31925990684E+00 -0.34529970566E+02  0.45045682979E+02  0.00000000000E+00 0. -1.
         11    1    3    3    0    0  0.71188453650E+01 -0.39142824388E+01  0.81397462478E+01  0.11500218936E+02  0.51100000000E-03 0.  1.
        -11    1    3    3    0    0  0.16583916157E+02  0.41087597070E+01  0.18677408690E+02  0.25313114725E+02  0.51100000000E-03 0. -1.
         12    1    3    3    0    0  0.52228804049E+01 -0.51373717504E+00  0.77128156286E+01  0.93289833600E+01  0.00000000000E+00 0. -1.
</event>
<event>
 7    1  0.1466590E-008  0.4614232E+02  0.7816164E-02  0.1320468E+00
        -11   -1    0    0    0    0  0.00000000000E+00  0.00000000000E+00  0.45593999997E+02  0.45594000000E+02  0.51100000000E-03 0.  1.
         11   -1    0    0    0    0 -0.00000000000E+00 -0.00000000000E+00 -0.45593999997E+02  0.45594000000E+02  0.51100000000E-03 0. -1.
    9900012    2    1    2    0    0 -0.41892746441E+02  0.11280542297E+02  0.12118606329E+02  0.46142318096E+02  0.10000003049E+02 0.  0.
         12    1    1    2    0    0  0.41892746441E+02 -0.11280542297E+02 -0.12118606329E+02  0.45045681904E+02  0.00000000000E+00 0. -1.
         11    1    3    3    0    0 -0.69975145535E+00  0.12617691613E+01  0.14971052532E+01  0.20791916497E+01  0.51100000000E-03 0.  1.
        -11    1    3    3    0    0 -0.30292333261E+02  0.63728853092E+01  0.53362790185E+01  0.31412019922E+02  0.51100000000E-03 0. -1.
        -12    1    3    3    0    0 -0.10900661724E+02  0.36458878267E+01  0.52852220576E+01  0.12651106523E+02  0.00000000000E+00 0.  1.
</event>
<event>
 7    1  0.1466590E-008  0.4614232E+02  0.7816164E-02  0.1320468E+00
        -11   -1    0    0    0    0  0.00000000000E+00  0.00000000000E+00  0.45593999997E+02  0.45594000000E+02  0.51100000000E-03 0. -1.
         11   -1    0    0    0    0 -0.00000000000E+00 -0.00000000000E+00 -0.45593999997E+02  0.45594000000E+02  0.51100000000E-03 0.  1.
    9900012    2    1    2    0    0  0.10530865349E+02 -0.35629043725E+02 -0.25471268311E+02  0.46142318841E+02  0.10000009844E+02 0.  0.
         12    1    1    2    0    0 -0.10530865349E+02  0.35629043725E+02  0.25471268311E+02  0.45045681159E+02  0.00000000000E+00 0. -1.
         11    1    3    3    0    0 -0.13982884594E+01 -0.47297947639E+01 -0.29959393417E+01  0.57707730786E+01  0.51100000000E-03 0. -1.
        -11    1    3    3    0    0  0.37975736002E+01 -0.17118296672E+02 -0.11924180683E+02  0.21204804442E+02  0.51100000000E-03 0.  1.
         12    1    3    3    0    0  0.81315802085E+01 -0.13780952289E+02 -0.10551148286E+02  0.19166741320E+02  0.00000000000E+00 0. -1.
</event>
<event>
 7    1  0.1466590E-008  0.4614232E+02  0.7816164E-02  0.1320468E+00
        -11   -1    0    0    0    0  0.00000000000E+00  0.00000000000E+00  0.45593999997E+02  0.45594000000E+02  0.51100000000E-03 0.  1.
         11   -1    0    0    0    0 -0.00000000000E+00 -0.00000000000E+00 -0.45593999997E+02  0.45594000000E+02  0.51100000000E-03 0. -1.
    9900012    2    1    2    0    0  0.43743017759E+02 -0.98092458239E+01  0.44091454208E+01  0.46142317969E+02  0.10000001894E+02 0.  0.
         12    1    1    2    0    0 -0.43743017759E+02  0.98092458239E+01 -0.44091454208E+01  0.45045682031E+02  0.00000000000E+00 0. -1.
         11    1    3    3    0    0  0.72694953455E+01 -0.46327947289E+01 -0.23586018087E+00  0.86234552161E+01  0.51100000000E-03 0. -1.
        -11    1    3    3    0    0  0.18621836305E+02 -0.25896379623E+01 -0.34162735853E+00  0.18804141078E+02  0.51100000000E-03 0.  1.
         12    1    3    3    0    0  0.17851686108E+02 -0.25868131327E+01  0.49866329602E+01  0.18714721675E+02  0.00000000000E+00 0. -1.
</event>
<event>
 7    1  0.1466590E-008  0.4614232E+02  0.7816164E-02  0.1320468E+00
        -11   -1    0    0    0    0  0.00000000000E+00  0.00000000000E+00  0.45593999997E+02  0.45594000000E+02  0.51100000000E-03 0.  1.
         11   -1    0    0    0    0 -0.00000000000E+00 -0.00000000000E+00 -0.45593999997E+02  0.45594000000E+02  0.51100000000E-03 0. -1.
    9900012    2    1    2    0    0  0.26359755330E+02 -0.32508619038E+02  0.16657328141E+02  0.46142316593E+02  0.99999893472E+01 0.  0.
         12    1    1    2    0    0 -0.26359755330E+02  0.32508619038E+02 -0.16657328141E+02  0.45045683407E+02  0.00000000000E+00 0. -1.
         11    1    3    3    0    0  0.34985615511E+01 -0.44582179123E+01  0.46469077889E+01  0.73286691929E+01  0.51100000000E-03 0. -1.
        -11    1    3    3    0    0  0.94739401090E+01 -0.67535619126E+01  0.52611739123E+01  0.12768950266E+02  0.51100000000E-03 0.  1.
        -12    1    3    3    0    0  0.13387253670E+02 -0.21296839214E+02  0.67492464394E+01  0.26044697134E+02  0.00000000000E+00 0.  1.
</event>
<event>
 7    1  0.1878884E-008  0.4614232E+02  0.7816164E-02  0.1320468E+00
        -11   -1    0    0    0    0  0.00000000000E+00  0.00000000000E+00  0.45593999997E+02  0.45594000000E+02  0.51100000000E-03 0. -1.
         11   -1    0    0    0    0 -0.00000000000E+00 -0.00000000000E+00 -0.45593999997E+02  0.45594000000E+02  0.51100000000E-03 0.  1.
    9900012    2    1    2    0    0  0.42837769726E+02  0.25385733156E+01 -0.13696516229E+02  0.46142318449E+02  0.10000006275E+02 0.  0.
         12    1    1    2    0    0 -0.42837769726E+02 -0.25385733156E+01  0.13696516229E+02  0.45045681551E+02  0.00000000000E+00 0. -1.
         11    1    3    3    0    0  0.17887710886E+01  0.73859220435E+00  0.87946178233E+00  0.21257172294E+01  0.51100000000E-03 0. -1.
        -11    1    3    3    0    0  0.40841627287E+02  0.19476790492E+01 -0.13727765371E+02  0.43131004109E+02  0.51100000000E-03 0.  1.
        -12    1    3    3    0    0  0.20737134984E+00 -0.14769793796E+00 -0.84821264109E+00  0.88559711049E+00  0.00000000000E+00 0.  1.
</event>
<event>
 7    1  0.1466590E-008  0.4614232E+02  0.7816164E-02  0.1320468E+00
        -11   -1    0    0    0    0  0.00000000000E+00  0.00000000000E+00  0.45593999997E+02  0.45594000000E+02  0.51100000000E-03 0.  1.
         11   -1    0    0    0    0 -0.00000000000E+00 -0.00000000000E+00 -0.45593999997E+02  0.45594000000E+02  0.51100000000E-03 0. -1.
    9900012    2    1    2    0    0 -0.17809487317E+02  0.86945999912E+01  0.40451695120E+02  0.46142317126E+02  0.99999942041E+01 0.  0.
         12    1    1    2    0    0  0.17809487317E+02 -0.86945999912E+01 -0.40451695120E+02  0.45045682874E+02  0.00000000000E+00 0. -1.
         11    1    3    3    0    0 -0.57418951616E+01  0.53190055232E+01  0.83789228603E+01  0.11465929023E+02  0.51100000000E-03 0. -1.
        -11    1    3    3    0    0 -0.96601618852E+01  0.33843142129E+01  0.29119890867E+02  0.30866492426E+02  0.51100000000E-03 0.  1.
         12    1    3    3    0    0 -0.24074302704E+01 -0.87197448382E-02  0.29528813936E+01  0.38098956765E+01  0.00000000000E+00 0. -1.
</event>
<event>
 7    1  0.1466590E-008  0.4614232E+02  0.7816164E-02  0.1320468E+00
        -11   -1    0    0    0    0  0.00000000000E+00  0.00000000000E+00  0.45593999997E+02  0.45594000000E+02  0.51100000000E-03 0.  1.
         11   -1    0    0    0    0 -0.00000000000E+00 -0.00000000000E+00 -0.45593999997E+02  0.45594000000E+02  0.51100000000E-03 0. -1.
    9900012    2    1    2    0    0  0.18821475933E+02 -0.20576614181E+01  0.40873359610E+02  0.46142318158E+02  0.10000003621E+02 0.  0.
         12    1    1    2    0    0 -0.18821475933E+02  0.20576614181E+01 -0.40873359610E+02  0.45045681842E+02  0.00000000000E+00 0. -1.
         11    1    3    3    0    0  0.12861542360E+02 -0.23566391484E+01  0.31056745951E+02  0.33697099123E+02  0.51100000000E-03 0.  1.
        -11    1    3    3    0    0  0.22186038721E+01 -0.65153645409E+00  0.50727684381E+00  0.23672838760E+01  0.51100000000E-03 0. -1.
         12    1    3    3    0    0  0.37413297011E+01  0.95051418439E+00  0.93093368148E+01  0.10077935159E+02  0.00000000000E+00 0. -1.
</event>
<event>
 7    1  0.1466590E-008  0.4614232E+02  0.7816164E-02  0.1320468E+00
        -11   -1    0    0    0    0  0.00000000000E+00  0.00000000000E+00  0.45593999997E+02  0.45594000000E+02  0.51100000000E-03 0.  1.
         11   -1    0    0    0    0 -0.00000000000E+00 -0.00000000000E+00 -0.45593999997E+02  0.45594000000E+02  0.51100000000E-03 0. -1.
    9900012    2    1    2    0    0  0.42788634859E+02  0.26526610962E-02  0.14080000981E+02  0.46142315326E+02  0.99999777927E+01 0.  0.
         12    1    1    2    0    0 -0.42788634859E+02 -0.26526610962E-02 -0.14080000981E+02  0.45045684674E+02  0.00000000000E+00 0. -1.
         11    1    3    3    0    0 -0.34262619715E+00 -0.16163507056E+00 -0.44717431804E+00  0.58607485771E+00  0.51100000000E-03 0. -1.
        -11    1    3    3    0    0  0.32526647801E+02 -0.49014127978E+00  0.10309078176E+02  0.34124773241E+02  0.51100000000E-03 0.  1.
         12    1    3    3    0    0  0.10604613255E+02  0.65442901144E+00  0.42180971236E+01  0.11431467227E+02  0.00000000000E+00 0. -1.
</event>
<event>
 7    1  0.2740941E-008  0.4614232E+02  0.7816164E-02  0.1320468E+00
        -11   -1    0    0    0    0  0.00000000000E+00  0.00000000000E+00  0.45593999997E+02  0.45594000000E+02  0.51100000000E-03 0. -1.
         11   -1    0    0    0    0 -0.00000000000E+00 -0.00000000000E+00 -0.45593999997E+02  0.45594000000E+02  0.51100000000E-03 0.  1.
    9900012    2    1    2    0    0 -0.14551430845E+02  0.15068891032E+02 -0.39878538780E+02  0.46142317945E+02  0.10000001675E+02 0.  0.
         12    1    1    2    0    0  0.14551430845E+02 -0.15068891032E+02  0.39878538780E+02  0.45045682055E+02  0.00000000000E+00 0. -1.
         11    1    3    3    0    0 -0.92879877543E+00 -0.93441779601E+00 -0.10312175534E+01  0.16730850804E+01  0.51100000000E-03 0. -1.
        -11    1    3    3    0    0 -0.11790040953E+02  0.11525487368E+02 -0.32919062591E+02  0.36817205310E+02  0.51100000000E-03 0.  1.
        -12    1    3    3    0    0 -0.18325911164E+01  0.44778214607E+01 -0.59282586363E+01  0.76520275543E+01  0.00000000000E+00 0.  1.
</event>
<event>
 7    1  0.1466590E-008  0.4614232E+02  0.7816164E-02  0.1320468E+00
        -11   -1    0    0    0    0  0.00000000000E+00  0.00000000000E+00  0.45593999997E+02  0.45594000000E+02  0.51100000000E-03 0.  1.
         11   -1    0    0    0    0 -0.00000000000E+00 -0.00000000000E+00 -0.45593999997E+02  0.45594000000E+02  0.51100000000E-03 0. -1.
    9900012    2    1    2    0    0 -0.34312278205E+00 -0.27830713828E+02  0.35418174615E+02  0.46142318093E+02  0.10000003028E+02 0.  0.
         12    1    1    2    0    0  0.34312278205E+00  0.27830713828E+02 -0.35418174615E+02  0.45045681907E+02  0.00000000000E+00 0. -1.
         11    1    3    3    0    0 -0.25452325047E+01 -0.40916579245E+01  0.34298910780E+01  0.59147295916E+01  0.51100000000E-03 0. -1.
        -11    1    3    3    0    0 -0.41991598767E-01 -0.17711435295E+02  0.20770227346E+02  0.27296502483E+02  0.51100000000E-03 0.  1.
        -12    1    3    3    0    0  0.22441013214E+01 -0.60276206080E+01  0.11218056190E+02  0.12931086019E+02  0.00000000000E+00 0.  1.
</event>
<event>
 7    1  0.1466590E-008  0.4614231E+02  0.7816164E-02  0.1320468E+00
        -11   -1    0    0    0    0  0.00000000000E+00  0.00000000000E+00  0.45593999997E+02  0.45594000000E+02  0.51100000000E-03 0.  1.
         11   -1    0    0    0    0 -0.00000000000E+00 -0.00000000000E+00 -0.45593999997E+02  0.45594000000E+02  0.51100000000E-03 0. -1.
    9900012    2    1    2    0    0  0.42972602563E+02  0.12002731944E+02 -0.61970721446E+01  0.46142313766E+02  0.99999635681E+01 0.  0.
         12    1    1    2    0    0 -0.42972602563E+02 -0.12002731944E+02  0.61970721446E+01  0.45045686234E+02  0.00000000000E+00 0. -1.
         11    1    3    3    0    0  0.14056424755E+02  0.35378043529E+01 -0.76009252800E-01  0.14494996178E+02  0.51100000000E-03 0. -1.
        -11    1    3    3    0    0  0.17748435091E+02  0.18244763951E+01 -0.16994620209E+01  0.17922718368E+02  0.51100000000E-03 0.  1.
        -12    1    3    3    0    0  0.11167742717E+02  0.66404511956E+01 -0.44216008709E+01  0.13724599220E+02  0.00000000000E+00 0.  1.
</event>
<event>
 7    1  0.1466590E-008  0.4614232E+02  0.7816164E-02  0.1320468E+00
        -11   -1    0    0    0    0  0.00000000000E+00  0.00000000000E+00  0.45593999997E+02  0.45594000000E+02  0.51100000000E-03 0. -1.
         11   -1    0    0    0    0 -0.00000000000E+00 -0.00000000000E+00 -0.45593999997E+02  0.45594000000E+02  0.51100000000E-03 0.  1.
    9900012    2    1    2    0    0  0.18509205570E+02 -0.40506657132E+02  0.67626586339E+01  0.46142317470E+02  0.99999973441E+01 0.  0.
         12    1    1    2    0    0 -0.18509205570E+02  0.40506657132E+02 -0.67626586339E+01  0.45045682530E+02  0.00000000000E+00 0. -1.
         11    1    3    3    0    0  0.38987431545E+01 -0.64633342271E+01  0.12775400669E+01  0.76555206485E+01  0.51100000000E-03 0. -1.
        -11    1    3    3    0    0  0.12186599750E+02 -0.31200130372E+02  0.22954060469E+01  0.33574249625E+02  0.51100000000E-03 0.  1.
        -12    1    3    3    0    0  0.24238626648E+01 -0.28431925329E+01  0.31897125201E+01  0.49125471965E+01  0.00000000000E+00 0.  1.
</event>
<event>
 7    1  0.1466590E-008  0.4614232E+02  0.7816164E-02  0.1320468E+00
        -11   -1    0    0    0    0  0.00000000000E+00  0.00000000000E+00  0.45593999997E+02  0.45594000000E+02  0.51100000000E-03 0. -1.
         11   -1    0    0    0    0 -0.00000000000E+00 -0.00000000000E+00 -0.45593999997E+02  0.45594000000E+02  0.51100000000E-03 0.  1.
    9900012    2    1    2    0    0 -0.19828275635E+02 -0.39115313622E+02 -0.10292969257E+02  0.46142317737E+02  0.99999997779E+01 0.  0.
         12    1    1    2    0    0  0.19828275635E+02  0.39115313622E+02  0.10292969257E+02  0.45045682263E+02  0.00000000000E+00 0. -1.
         11    1    3    3    0    0 -0.14835850516E+01 -0.24501499839E+00 -0.11045532233E+01  0.18657692888E+01  0.51100000000E-03 0. -1.
        -11    1    3    3    0    0 -0.14043143252E+02 -0.23874610881E+02 -0.53423729766E+01  0.28209003286E+02  0.51100000000E-03 0.  1.
         12    1    3    3    0    0 -0.43015473315E+01 -0.14995687743E+02 -0.38460430569E+01  0.16067545162E+02  0.00000000000E+00 0. -1.
</event>
<event>
 7    1  0.1466590E-008  0.4614232E+02  0.7816164E-02  0.1320468E+00
        -11   -1    0    0    0    0  0.00000000000E+00  0.00000000000E+00  0.45593999997E+02  0.45594000000E+02  0.51100000000E-03 0.  1.
         11   -1    0    0    0    0 -0.00000000000E+00 -0.00000000000E+00 -0.45593999997E+02  0.45594000000E+02  0.51100000000E-03 0. -1.
    9900012    2    1    2    0    0 -0.39862146840E+01 -0.30793364664E+02  0.32634222867E+02  0.46142315224E+02  0.99999768645E+01 0.  0.
         12    1    1    2    0    0  0.39862146840E+01  0.30793364664E+02 -0.32634222867E+02  0.45045684776E+02  0.00000000000E+00 0. -1.
         11    1    3    3    0    0 -0.62295656285E+00 -0.77312024082E+01  0.53176235565E+01  0.94040781635E+01  0.51100000000E-03 0. -1.
        -11    1    3    3    0    0  0.12903674928E+01 -0.14627298197E+02  0.13886331366E+02  0.20210222657E+02  0.51100000000E-03 0.  1.
         12    1    3    3    0    0 -0.46536256140E+01 -0.84348640589E+01  0.13430267945E+02  0.16528014403E+02  0.00000000000E+00 0. -1.
</event>
<event>
 7    1  0.1466590E-008  0.4614232E+02  0.7816164E-02  0.1320468E+00
        -11   -1    0    0    0    0  0.00000000000E+00  0.00000000000E+00  0.45593999997E+02  0.45594000000E+02  0.51100000000E-03 0.  1.
         11   -1    0    0    0    0 -0.00000000000E+00 -0.00000000000E+00 -0.45593999997E+02  0.45594000000E+02  0.51100000000E-03 0. -1.
    9900012    2    1    2    0    0 -0.36718325301E+02 -0.74064558955E+01  0.25020441412E+02  0.46142317740E+02  0.99999998097E+01 0.  0.
         12    1    1    2    0    0  0.36718325301E+02  0.74064558955E+01 -0.25020441412E+02  0.45045682260E+02  0.00000000000E+00 0. -1.
         11    1    3    3    0    0 -0.11330228485E+02  0.27520575264E+00  0.50630791166E+01  0.12413081251E+02  0.51100000000E-03 0.  1.
        -11    1    3    3    0    0 -0.14094288729E+02 -0.16345787075E+01  0.84844055669E+01  0.16531967832E+02  0.51100000000E-03 0. -1.
         12    1    3    3    0    0 -0.11293808087E+02 -0.60470829406E+01  0.11472956728E+02  0.17197268657E+02  0.00000000000E+00 0. -1.
</event>
<event>
 7    1  0.1466590E-008  0.4614232E+02  0.7816164E-02  0.1320468E+00
        -11   -1    0    0    0    0  0.00000000000E+00  0.00000000000E+00  0.45593999997E+02  0.45594000000E+02  0.51100000000E-03 0.  1.
         11   -1    0    0    0    0 -0.00000000000E+00 -0.00000000000E+00 -0.45593999997E+02  0.45594000000E+02  0.51100000000E-03 0. -1.
    9900012    2    1    2    0    0 -0.72297421227E+01 -0.26268531298E+02  0.35872114674E+02  0.46142317423E+02  0.99999969123E+01 0.  0.
         12    1    1    2    0    0  0.72297421227E+01  0.26268531298E+02 -0.35872114674E+02  0.45045682577E+02  0.00000000000E+00 0. -1.
         11    1    3    3    0    0 -0.23239201489E+01 -0.14277182076E+02  0.11848759770E+02  0.18698439540E+02  0.51100000000E-03 0. -1.
        -11    1    3    3    0    0 -0.33320763881E+01 -0.10705327354E+02  0.20901545166E+02  0.23718797554E+02  0.51100000000E-03 0.  1.
         12    1    3    3    0    0 -0.15737455857E+01 -0.12860218674E+01  0.31218097379E+01  0.37250803282E+01  0.00000000000E+00 0. -1.
</event>
<event>
 7    1  0.1466590E-008  0.4614232E+02  0.7816164E-02  0.1320468E+00
        -11   -1    0    0    0    0  0.00000000000E+00  0.00000000000E+00  0.45593999997E+02  0.45594000000E+02  0.51100000000E-03 0.  1.
         11   -1    0    0    0    0 -0.00000000000E+00 -0.00000000000E+00 -0.45593999997E+02  0.45594000000E+02  0.51100000000E-03 0. -1.
    9900012    2    1    2    0    0  0.17515958911E+02 -0.17287996410E+02  0.37728369254E+02  0.46142317821E+02  0.10000000543E+02 0.  0.
         12    1    1    2    0    0 -0.17515958911E+02  0.17287996410E+02 -0.37728369254E+02  0.45045682179E+02  0.00000000000E+00 0. -1.
         11    1    3    3    0    0  0.57256468690E+01 -0.29246271344E+01  0.16296675969E+02  0.17519078853E+02  0.51100000000E-03 0. -1.
        -11    1    3    3    0    0  0.40051577720E+01 -0.30117758910E+01  0.76483763211E+01  0.91438363616E+01  0.51100000000E-03 0.  1.
         12    1    3    3    0    0  0.77851542703E+01 -0.11351593385E+02  0.13783316963E+02  0.19479402606E+02  0.00000000000E+00 0. -1.
</event>
<event>
 7    1  0.1466590E-008  0.4614232E+02  0.7816164E-02  0.1320468E+00
        -11   -1    0    0    0    0  0.00000000000E+00  0.00000000000E+00  0.45593999997E+02  0.45594000000E+02  0.51100000000E-03 0. -1.
         11   -1    0    0    0    0 -0.00000000000E+00 -0.00000000000E+00 -0.45593999997E+02  0.45594000000E+02  0.51100000000E-03 0.  1.
    9900012    2    1    2    0    0 -0.25717331653E+02  0.10536091506E+02  0.35450291303E+02  0.46142317354E+02  0.99999962851E+01 0.  0.
         12    1    1    2    0    0  0.25717331653E+02 -0.10536091506E+02 -0.35450291303E+02  0.45045682646E+02  0.00000000000E+00 0. -1.
         11    1    3    3    0    0 -0.14566706241E+01  0.36560184916E+01  0.40729460401E+01  0.56636781534E+01  0.51100000000E-03 0. -1.
        -11    1    3    3    0    0 -0.74595301849E+01  0.39757890917E+00  0.76627485752E+01  0.10701419324E+02  0.51100000000E-03 0.  1.
        -12    1    3    3    0    0 -0.16801130844E+02  0.64824941050E+01  0.23714596688E+02  0.29777219876E+02  0.00000000000E+00 0.  1.
</event>
<event>
 7    1  0.1466590E-008  0.4614232E+02  0.7816164E-02  0.1320468E+00
        -11   -1    0    0    0    0  0.00000000000E+00  0.00000000000E+00  0.45593999997E+02  0.45594000000E+02  0.51100000000E-03 0. -1.
         11   -1    0    0    0    0 -0.00000000000E+00 -0.00000000000E+00 -0.45593999997E+02  0.45594000000E+02  0.51100000000E-03 0.  1.
    9900012    2    1    2    0    0 -0.27998126845E+02 -0.24089063570E+02  0.25786339489E+02  0.46142318801E+02  0.10000009478E+02 0.  0.
         12    1    1    2    0    0  0.27998126845E+02  0.24089063570E+02 -0.25786339489E+02  0.45045681199E+02  0.00000000000E+00 0. -1.
         11    1    3    3    0    0 -0.23301301233E+02 -0.18543075830E+02  0.21542670225E+02  0.36754359485E+02  0.51100000000E-03 0.  1.
        -11    1    3    3    0    0 -0.21812942118E+01 -0.53904221564E+01  0.25384315883E+01  0.63449452836E+01  0.51100000000E-03 0. -1.
         12    1    3    3    0    0 -0.25155313994E+01 -0.15556558320E+00  0.17052376754E+01  0.30430140324E+01  0.00000000000E+00 0. -1.
</event>
<event>
 7    1  0.1466590E-008  0.4614232E+02  0.7816164E-02  0.1320468E+00
        -11   -1    0    0    0    0  0.00000000000E+00  0.00000000000E+00  0.45593999997E+02  0.45594000000E+02  0.51100000000E-03 0. -1.
         11   -1    0    0    0    0 -0.00000000000E+00 -0.00000000000E+00 -0.45593999997E+02  0.45594000000E+02  0.51100000000E-03 0.  1.
    9900012    2    1    2    0    0  0.62354306596E+00  0.45010294511E+02  0.16727198054E+01  0.46142318637E+02  0.10000007986E+02 0.  0.
         12    1    1    2    0    0 -0.62354306596E+00 -0.45010294511E+02 -0.16727198054E+01  0.45045681363E+02  0.00000000000E+00 0. -1.
         11    1    3    3    0    0 -0.15405487427E+01  0.90041922050E+01  0.16650807636E+01  0.92855404745E+01  0.51100000000E-03 0. -1.
        -11    1    3    3    0    0  0.39958242352E+00  0.31155817026E+02 -0.22155537812E+01  0.31237049788E+02  0.51100000000E-03 0.  1.
        -12    1    3    3    0    0  0.17645093852E+01  0.48502852802E+01  0.22231928231E+01  0.56197283740E+01  0.00000000000E+00 0.  1.
</event>
<event>
 7    1  0.1466590E-008  0.4614232E+02  0.7816164E-02  0.1320468E+00
        -11   -1    0    0    0    0  0.00000000000E+00  0.00000000000E+00  0.45593999997E+02  0.45594000000E+02  0.51100000000E-03 0.  1.
         11   -1    0    0    0    0 -0.00000000000E+00 -0.00000000000E+00 -0.45593999997E+02  0.45594000000E+02  0.51100000000E-03 0. -1.
    9900012    2    1    2    0    0 -0.20074149516E+02  0.17693375625E+02  0.36236532723E+02  0.46142319590E+02  0.10000016680E+02 0.  0.
         12    1    1    2    0    0  0.20074149516E+02 -0.17693375625E+02 -0.36236532723E+02  0.45045680410E+02  0.00000000000E+00 0. -1.
         11    1    3    3    0    0 -0.16207516445E+02  0.16915141330E+02  0.33893293685E+02  0.41201467846E+02  0.51100000000E-03 0.  1.
        -11    1    3    3    0    0 -0.13983635163E+01 -0.50381986279E+00  0.37326974508E+00  0.15325095567E+01  0.51100000000E-03 0. -1.
         12    1    3    3    0    0 -0.24682695544E+01  0.12820541577E+01  0.19699692926E+01  0.34083421880E+01  0.00000000000E+00 0. -1.
</event>
<event>
 7    1  0.1466590E-008  0.4614232E+02  0.7816164E-02  0.1320468E+00
        -11   -1    0    0    0    0  0.00000000000E+00  0.00000000000E+00  0.45593999997E+02  0.45594000000E+02  0.51100000000E-03 0.  1.
         11   -1    0    0    0    0 -0.00000000000E+00 -0.00000000000E+00 -0.45593999997E+02  0.45594000000E+02  0.51100000000E-03 0. -1.
    9900012    2    1    2    0    0  0.30302069562E+02 -0.28875130123E+02  0.16647067162E+02  0.46142318693E+02  0.10000008494E+02 0.  0.
         12    1    1    2    0    0 -0.30302069562E+02  0.28875130123E+02 -0.16647067162E+02  0.45045681307E+02  0.00000000000E+00 0. -1.
         11    1    3    3    0    0  0.11731753423E+01 -0.41507913697E+00 -0.48079098196E+00  0.13340881916E+01  0.51100000000E-03 0. -1.
        -11    1    3    3    0    0  0.60055605620E+01 -0.65478502122E+01  0.72141086116E+01  0.11444844402E+02  0.51100000000E-03 0.  1.
        -12    1    3    3    0    0  0.23123333658E+02 -0.21912200774E+02  0.99137495326E+01  0.33363386099E+02  0.00000000000E+00 0.  1.
</event>
<event>
 7    1  0.1466590E-008  0.4614232E+02  0.7816164E-02  0.1320468E+00
        -11   -1    0    0    0    0  0.00000000000E+00  0.00000000000E+00  0.45593999997E+02  0.45594000000E+02  0.51100000000E-03 0.  1.
         11   -1    0    0    0    0 -0.00000000000E+00 -0.00000000000E+00 -0.45593999997E+02  0.45594000000E+02  0.51100000000E-03 0. -1.
    9900012    2    1    2    0    0 -0.27616917362E+01 -0.26970751223E+02  0.35973117132E+02  0.46142317422E+02  0.99999969062E+01 0.  0.
         12    1    1    2    0    0  0.27616917362E+01  0.26970751223E+02 -0.35973117132E+02  0.45045682578E+02  0.00000000000E+00 0. -1.
         11    1    3    3    0    0 -0.26369420952E+01 -0.35961516511E+01  0.10046275675E+02  0.10991516070E+02  0.51100000000E-03 0. -1.
        -11    1    3    3    0    0  0.34160621444E+00 -0.20289349886E+02  0.20219350418E+02  0.28646056364E+02  0.51100000000E-03 0.  1.
        -12    1    3    3    0    0 -0.46635585550E+00 -0.30852496850E+01  0.57074910386E+01  0.65047449880E+01  0.00000000000E+00 0.  1.
</event>
<event>
 7    1  0.1466590E-008  0.4614232E+02  0.7816164E-02  0.1320468E+00
        -11   -1    0    0    0    0  0.00000000000E+00  0.00000000000E+00  0.45593999997E+02  0.45594000000E+02  0.51100000000E-03 0.  1.
         11   -1    0    0    0    0 -0.00000000000E+00 -0.00000000000E+00 -0.45593999997E+02  0.45594000000E+02  0.51100000000E-03 0. -1.
    9900012    2    1    2    0    0  0.45715613329E+01 -0.98969136983E+01  0.43706585818E+02  0.46142315216E+02  0.99999767930E+01 0.  0.
         12    1    1    2    0    0 -0.45715613329E+01  0.98969136983E+01 -0.43706585818E+02  0.45045684784E+02  0.00000000000E+00 0. -1.
         11    1    3    3    0    0 -0.64394368072E+00 -0.20323569551E+01  0.18762745428E+02  0.18883478348E+02  0.51100000000E-03 0. -1.
        -11    1    3    3    0    0  0.51708515797E+01 -0.72841182655E+01  0.16232699494E+02  0.18528265383E+02  0.51100000000E-03 0.  1.
        -12    1    3    3    0    0  0.44653433947E-01 -0.58043847767E+00  0.87111408959E+01  0.87305714855E+01  0.00000000000E+00 0.  1.
</event>
<event>
 7    1  0.1466590E-008  0.4614232E+02  0.7816164E-02  0.1320468E+00
        -11   -1    0    0    0    0  0.00000000000E+00  0.00000000000E+00  0.45593999997E+02  0.45594000000E+02  0.51100000000E-03 0.  1.
         11   -1    0    0    0    0 -0.00000000000E+00 -0.00000000000E+00 -0.45593999997E+02  0.45594000000E+02  0.51100000000E-03 0. -1.
    9900012    2    1    2    0    0 -0.19334625764E+02 -0.38812899048E+02  0.12200192946E+02  0.46142316590E+02  0.99999893236E+01 0.  0.
         12    1    1    2    0    0  0.19334625764E+02  0.38812899048E+02 -0.12200192946E+02  0.45045683410E+02  0.00000000000E+00 0. -1.
         11    1    3    3    0    0 -0.55117516816E+01 -0.38278942637E+01  0.57787287629E+00  0.67354375074E+01  0.51100000000E-03 0. -1.
        -11    1    3    3    0    0 -0.18701345198E+01 -0.33592545479E+01  0.12207778075E+01  0.40338930273E+01  0.51100000000E-03 0.  1.
         12    1    3    3    0    0 -0.11952739562E+02 -0.31625750236E+02  0.10401542262E+02  0.35372986056E+02  0.00000000000E+00 0. -1.
</event>
<event>
 7    1  0.1466590E-008  0.4614232E+02  0.7816164E-02  0.1320468E+00
        -11   -1    0    0    0    0  0.00000000000E+00  0.00000000000E+00  0.45593999997E+02  0.45594000000E+02  0.51100000000E-03 0. -1.
         11   -1    0    0    0    0 -0.00000000000E+00 -0.00000000000E+00 -0.45593999997E+02  0.45594000000E+02  0.51100000000E-03 0.  1.
    9900012    2    1    2    0    0 -0.34962739311E+02 -0.78514432148E+00 -0.28391968058E+02  0.46142318276E+02  0.10000004696E+02 0.  0.
         12    1    1    2    0    0  0.34962739311E+02  0.78514432148E+00  0.28391968058E+02  0.45045681724E+02  0.00000000000E+00 0. -1.
         11    1    3    3    0    0 -0.15390477291E+02  0.69858565114E+00 -0.88665358081E+01  0.17775552612E+02  0.51100000000E-03 0. -1.
        -11    1    3    3    0    0 -0.13056729527E+01 -0.26822343548E+00 -0.44690396804E+01  0.46635867738E+01  0.51100000000E-03 0.  1.
        -12    1    3    3    0    0 -0.18266589068E+02 -0.12155065371E+01 -0.15056392570E+02  0.23703178891E+02  0.00000000000E+00 0.  1.
</event>
<event>
 7    1  0.1466590E-008  0.4614232E+02  0.7816164E-02  0.1320468E+00
        -11   -1    0    0    0    0  0.00000000000E+00  0.00000000000E+00  0.45593999997E+02  0.45594000000E+02  0.51100000000E-03 0.  1.
         11   -1    0    0    0    0 -0.00000000000E+00 -0.00000000000E+00 -0.45593999997E+02  0.45594000000E+02  0.51100000000E-03 0. -1.
    9900012    2    1    2    0    0  0.27635528115E+02  0.90180345524E+01  0.34410263192E+02  0.46142316807E+02  0.99999913007E+01 0.  0.
         12    1    1    2    0    0 -0.27635528115E+02 -0.90180345524E+01 -0.34410263192E+02  0.45045683193E+02  0.00000000000E+00 0. -1.
         11    1    3    3    0    0  0.99126020785E+00 -0.26960581955E+00  0.24138380573E+01  0.26233372878E+01  0.51100000000E-03 0. -1.
        -11    1    3    3    0    0  0.19271759829E+01 -0.11622878382E+01  0.48538307041E+01  0.53501956089E+01  0.51100000000E-03 0.  1.
        -12    1    3    3    0    0  0.24717091924E+02  0.10449928210E+02  0.27142594431E+02  0.38168783910E+02  0.00000000000E+00 0.  1.
</event>
<event>
 7    1  0.1466590E-008  0.4614232E+02  0.7816164E-02  0.1320468E+00
        -11   -1    0    0    0    0  0.00000000000E+00  0.00000000000E+00  0.45593999997E+02  0.45594000000E+02  0.51100000000E-03 0.  1.
         11   -1    0    0    0    0 -0.00000000000E+00 -0.00000000000E+00 -0.45593999997E+02  0.45594000000E+02  0.51100000000E-03 0. -1.
    9900012    2    1    2    0    0  0.14368252651E+01 -0.31919033056E+02  0.31752548829E+02  0.46142317685E+02  0.99999993070E+01 0.  0.
         12    1    1    2    0    0 -0.14368252651E+01  0.31919033056E+02 -0.31752548829E+02  0.45045682315E+02  0.00000000000E+00 0. -1.
         11    1    3    3    0    0  0.25423053378E+01 -0.93917418060E+01  0.12347111527E+02  0.15720028432E+02  0.51100000000E-03 0.  1.
        -11    1    3    3    0    0 -0.37011595252E+00 -0.19383925638E+02  0.13284315545E+02  0.23502055202E+02  0.51100000000E-03 0. -1.
         12    1    3    3    0    0 -0.73536412013E+00 -0.31433656125E+01  0.61211217572E+01  0.69202340516E+01  0.00000000000E+00 0. -1.
</event>
<event>
 7    1  0.1466590E-008  0.4614232E+02  0.7816164E-02  0.1320468E+00
        -11   -1    0    0    0    0  0.00000000000E+00  0.00000000000E+00  0.45593999997E+02  0.45594000000E+02  0.51100000000E-03 0.  1.
         11   -1    0    0    0    0 -0.00000000000E+00 -0.00000000000E+00 -0.45593999997E+02  0.45594000000E+02  0.51100000000E-03 0. -1.
    9900012    2    1    2    0    0 -0.44758466308E+02 -0.25861760621E+01  0.43709329854E+01  0.46142315767E+02  0.99999818186E+01 0.  0.
         12    1    1    2    0    0  0.44758466308E+02  0.25861760621E+01 -0.43709329854E+01  0.45045684233E+02  0.00000000000E+00 0. -1.
         11    1    3    3    0    0 -0.83404037919E+01 -0.40784199999E+01 -0.82923215514E+00  0.93211303679E+01  0.51100000000E-03 0. -1.
        -11    1    3    3    0    0 -0.13656987344E+02  0.48981381673E+00  0.17126732874E+01  0.13772671162E+02  0.51100000000E-03 0.  1.
         12    1    3    3    0    0 -0.22761075172E+02  0.10024301211E+01  0.34874918531E+01  0.23048514238E+02  0.00000000000E+00 0. -1.
</event>
<event>
 7    1  0.1466590E-008  0.4614232E+02  0.7816164E-02  0.1320468E+00
        -11   -1    0    0    0    0  0.00000000000E+00  0.00000000000E+00  0.45593999997E+02  0.45594000000E+02  0.51100000000E-03 0.  1.
         11   -1    0    0    0    0 -0.00000000000E+00 -0.00000000000E+00 -0.45593999997E+02  0.45594000000E+02  0.51100000000E-03 0. -1.
    9900012    2    1    2    0    0  0.21682454757E+02 -0.36435491672E+02  0.15213137563E+02  0.46142318163E+02  0.10000003668E+02 0.  0.
         12    1    1    2    0    0 -0.21682454757E+02  0.36435491672E+02 -0.15213137563E+02  0.45045681837E+02  0.00000000000E+00 0. -1.
         11    1    3    3    0    0  0.42397757042E+01 -0.33364672296E+01  0.18379483048E+01  0.56996285694E+01  0.51100000000E-03 0. -1.
        -11    1    3    3    0    0  0.37849368046E+01 -0.26185708170E+01  0.43439520348E+00  0.46229167408E+01  0.51100000000E-03 0.  1.
        -12    1    3    3    0    0  0.13657742248E+02 -0.30480453625E+02  0.12940794054E+02  0.35819772853E+02  0.00000000000E+00 0.  1.
</event>
<event>
 7    1  0.1466590E-008  0.4614233E+02  0.7816164E-02  0.1320468E+00
        -11   -1    0    0    0    0  0.00000000000E+00  0.00000000000E+00  0.45593999997E+02  0.45594000000E+02  0.51100000000E-03 0. -1.
         11   -1    0    0    0    0 -0.00000000000E+00 -0.00000000000E+00 -0.45593999997E+02  0.45594000000E+02  0.51100000000E-03 0.  1.
    9900012    2    1    2    0    0  0.34349009355E+02 -0.29041653519E+02 -0.24167150270E+01  0.46142327685E+02  0.10000090494E+02 0.  0.
         12    1    1    2    0    0 -0.34349009355E+02  0.29041653519E+02  0.24167150270E+01  0.45045672315E+02  0.00000000000E+00 0. -1.
         11    1    3    3    0    0  0.94250987595E+00 -0.20588356951E+01  0.15617540960E+01  0.27506736271E+01  0.51100000000E-03 0. -1.
        -11    1    3    3    0    0  0.21451410324E+02 -0.19688993204E+02 -0.13935906911E+01  0.29150669864E+02  0.51100000000E-03 0.  1.
        -12    1    3    3    0    0  0.11955089155E+02 -0.72938246203E+01 -0.25848784320E+01  0.14240984193E+02  0.00000000000E+00 0.  1.
</event>
<event>
 7    1  0.1466590E-008  0.4614232E+02  0.7816164E-02  0.1320468E+00
        -11   -1    0    0    0    0  0.00000000000E+00  0.00000000000E+00  0.45593999997E+02  0.45594000000E+02  0.51100000000E-03 0. -1.
         11   -1    0    0    0    0 -0.00000000000E+00 -0.00000000000E+00 -0.45593999997E+02  0.45594000000E+02  0.51100000000E-03 0.  1.
    9900012    2    1    2    0    0 -0.29819594001E+02  0.12670302969E+02 -0.31294866438E+02  0.46142318419E+02  0.10000005999E+02 0.  0.
         12    1    1    2    0    0  0.29819594001E+02 -0.12670302969E+02  0.31294866438E+02  0.45045681581E+02  0.00000000000E+00 0. -1.
         11    1    3    3    0    0 -0.39148037870E+01  0.26180893139E+01 -0.20959179677E+01  0.51548959966E+01  0.51100000000E-03 0. -1.
        -11    1    3    3    0    0 -0.12537147533E-01  0.23135076779E+00 -0.25329372962E+01  0.25435117388E+01  0.51100000000E-03 0.  1.
        -12    1    3    3    0    0 -0.25892253067E+02  0.98208628871E+01 -0.26666011174E+02  0.38443910684E+02  0.00000000000E+00 0.  1.
</event>
<event>
 7    1  0.1466590E-008  0.4614232E+02  0.7816164E-02  0.1320468E+00
        -11   -1    0    0    0    0  0.00000000000E+00  0.00000000000E+00  0.45593999997E+02  0.45594000000E+02  0.51100000000E-03 0.  1.
         11   -1    0    0    0    0 -0.00000000000E+00 -0.00000000000E+00 -0.45593999997E+02  0.45594000000E+02  0.51100000000E-03 0. -1.
    9900012    2    1    2    0    0 -0.35811252421E+02 -0.11438819566E+01  0.27301266687E+02  0.46142318424E+02  0.10000006047E+02 0.  0.
         12    1    1    2    0    0  0.35811252421E+02  0.11438819566E+01 -0.27301266687E+02  0.45045681576E+02  0.00000000000E+00 0. -1.
         11    1    3    3    0    0 -0.11728731849E+02  0.12046412935E+00  0.82428731921E+01  0.14336060167E+02  0.51100000000E-03 0.  1.
        -11    1    3    3    0    0 -0.73430986298E+01  0.28550929453E+01  0.85057231774E+01  0.11593963095E+02  0.51100000000E-03 0. -1.
        -12    1    3    3    0    0 -0.16739421942E+02 -0.41194390312E+01  0.10552670317E+02  0.20212295162E+02  0.00000000000E+00 0.  1.
</event>
<event>
 7    1  0.1466590E-008  0.4614232E+02  0.7816164E-02  0.1320468E+00
        -11   -1    0    0    0    0  0.00000000000E+00  0.00000000000E+00  0.45593999997E+02  0.45594000000E+02  0.51100000000E-03 0.  1.
         11   -1    0    0    0    0 -0.00000000000E+00 -0.00000000000E+00 -0.45593999997E+02  0.45594000000E+02  0.51100000000E-03 0. -1.
    9900012    2    1    2    0    0 -0.27741598946E+01 -0.41841334182E+02  0.16453579519E+02  0.46142317763E+02  0.10000000018E+02 0.  0.
         12    1    1    2    0    0  0.27741598946E+01  0.41841334182E+02 -0.16453579519E+02  0.45045682237E+02  0.00000000000E+00 0. -1.
         11    1    3    3    0    0  0.15449648185E+01 -0.21554228388E+02  0.45960117253E+01  0.22092872193E+02  0.51100000000E-03 0. -1.
        -11    1    3    3    0    0 -0.35103344804E+01 -0.16310596264E+02  0.82168978956E+01  0.18597725935E+02  0.51100000000E-03 0.  1.
        -12    1    3    3    0    0 -0.80879023270E+00 -0.39765095295E+01  0.36406698978E+01  0.54517196354E+01  0.00000000000E+00 0.  1.
</event>
<event>
 7    1  0.1466590E-008  0.4614231E+02  0.7816164E-02  0.1320468E+00
        -11   -1    0    0    0    0  0.00000000000E+00  0.00000000000E+00  0.45593999997E+02  0.45594000000E+02  0.51100000000E-03 0. -1.
         11   -1    0    0    0    0 -0.00000000000E+00 -0.00000000000E+00 -0.45593999997E+02  0.45594000000E+02  0.51100000000E-03 0.  1.
    9900012    2    1    2    0    0 -0.28133831372E+02 -0.33258987726E+02  0.11464779057E+02  0.46142313291E+02  0.99999592412E+01 0.  0.
         12    1    1    2    0    0  0.28133831372E+02  0.33258987726E+02 -0.11464779057E+02  0.45045686709E+02  0.00000000000E+00 0. -1.
         11    1    3    3    0    0 -0.72813814291E+01 -0.10173680461E+02  0.67946171991E+01  0.14236892666E+02  0.51100000000E-03 0. -1.
        -11    1    3    3    0    0 -0.91647503189E+01 -0.11364146015E+02 -0.36562190563E+00  0.14603771523E+02  0.51100000000E-03 0.  1.
        -12    1    3    3    0    0 -0.11687699624E+02 -0.11721161250E+02  0.50357837632E+01  0.17301649102E+02  0.00000000000E+00 0.  1.
</event>
<event>
 7    1  0.1466590E-008  0.4614232E+02  0.7816164E-02  0.1320468E+00
        -11   -1    0    0    0    0  0.00000000000E+00  0.00000000000E+00  0.45593999997E+02  0.45594000000E+02  0.51100000000E-03 0.  1.
         11   -1    0    0    0    0 -0.00000000000E+00 -0.00000000000E+00 -0.45593999997E+02  0.45594000000E+02  0.51100000000E-03 0. -1.
    9900012    2    1    2    0    0  0.73278737067E+01 -0.44281590931E+02  0.38152939268E+01  0.46142317675E+02  0.99999992107E+01 0.  0.
         12    1    1    2    0    0 -0.73278737067E+01  0.44281590931E+02 -0.38152939268E+01  0.45045682325E+02  0.00000000000E+00 0. -1.
         11    1    3    3    0    0  0.51221716468E+00  0.36792392663E+00  0.52202442576E-01  0.63281892806E+00  0.51100000000E-03 0. -1.
        -11    1    3    3    0    0  0.55977484133E+01 -0.39235083312E+02  0.19856953129E+01  0.39682105992E+02  0.51100000000E-03 0.  1.
        -12    1    3    3    0    0  0.12179081287E+01 -0.54144315455E+01  0.17773961713E+01  0.58273927549E+01  0.00000000000E+00 0.  1.
</event>
<event>
 7    1  0.1466590E-008  0.4614232E+02  0.7816164E-02  0.1320468E+00
        -11   -1    0    0    0    0  0.00000000000E+00  0.00000000000E+00  0.45593999997E+02  0.45594000000E+02  0.51100000000E-03 0.  1.
         11   -1    0    0    0    0 -0.00000000000E+00 -0.00000000000E+00 -0.45593999997E+02  0.45594000000E+02  0.51100000000E-03 0. -1.
    9900012    2    1    2    0    0  0.64945426746E+00 -0.93237723443E+01  0.44065394289E+02  0.46142317683E+02  0.99999992904E+01 0.  0.
         12    1    1    2    0    0 -0.64945426746E+00  0.93237723443E+01 -0.44065394289E+02  0.45045682317E+02  0.00000000000E+00 0. -1.
         11    1    3    3    0    0 -0.14583921592E+01 -0.96608833457E+00  0.39207244591E+01  0.42932871911E+01  0.51100000000E-03 0. -1.
        -11    1    3    3    0    0  0.37611450105E+01 -0.41089776631E+01  0.10796276483E+02  0.12148641709E+02  0.51100000000E-03 0.  1.
        -12    1    3    3    0    0 -0.16532985838E+01 -0.42487063467E+01  0.29348393347E+02  0.29700388783E+02  0.00000000000E+00 0.  1.
</event>
<event>
 7    1  0.1466590E-008  0.4614232E+02  0.7816164E-02  0.1320468E+00
        -11   -1    0    0    0    0  0.00000000000E+00  0.00000000000E+00  0.45593999997E+02  0.45594000000E+02  0.51100000000E-03 0.  1.
         11   -1    0    0    0    0 -0.00000000000E+00 -0.00000000000E+00 -0.45593999997E+02  0.45594000000E+02  0.51100000000E-03 0. -1.
    9900012    2    1    2    0    0 -0.25690985513E+02 -0.36394947886E+02 -0.66704108218E+01  0.46142319311E+02  0.10000014129E+02 0.  0.
         12    1    1    2    0    0  0.25690985513E+02  0.36394947886E+02  0.66704108218E+01  0.45045680689E+02  0.00000000000E+00 0. -1.
         11    1    3    3    0    0 -0.90486228170E-01  0.22336849047E+00  0.48229932357E+00  0.53916058708E+00  0.51100000000E-03 0. -1.
        -11    1    3    3    0    0 -0.15134299557E+02 -0.17175484526E+02 -0.48729025166E+01  0.23404902712E+02  0.51100000000E-03 0.  1.
        -12    1    3    3    0    0 -0.10466199728E+02 -0.19442831851E+02 -0.22798076287E+01  0.22198256011E+02  0.00000000000E+00 0.  1.
</event>
<event>
 7    1  0.1466590E-008  0.4614232E+02  0.7816164E-02  0.1320468E+00
        -11   -1    0    0    0    0  0.00000000000E+00  0.00000000000E+00  0.45593999997E+02  0.45594000000E+02  0.51100000000E-03 0.  1.
         11   -1    0    0    0    0 -0.00000000000E+00 -0.00000000000E+00 -0.45593999997E+02  0.45594000000E+02  0.51100000000E-03 0. -1.
    9900012    2    1    2    0    0  0.28189884675E+02  0.11149173052E+02  0.33318760671E+02  0.46142317961E+02  0.10000001821E+02 0.  0.
         12    1    1    2    0    0 -0.28189884675E+02 -0.11149173052E+02 -0.33318760671E+02  0.45045682039E+02  0.00000000000E+00 0. -1.
         11    1    3    3    0    0 -0.11448053071E+00 -0.81536661906E+00  0.69012693256E+00  0.10743388476E+01  0.51100000000E-03 0. -1.
        -11    1    3    3    0    0  0.22535444211E+02  0.78545910875E+01  0.26880770153E+02  0.35946024137E+02  0.51100000000E-03 0.  1.
        -12    1    3    3    0    0  0.57689209946E+01  0.41099485833E+01  0.57478635853E+01  0.91219549766E+01  0.00000000000E+00 0.  1.
</event>
<event>
 7    1  0.1466590E-008  0.4614232E+02  0.7816164E-02  0.1320468E+00
        -11   -1    0    0    0    0  0.00000000000E+00  0.00000000000E+00  0.45593999997E+02  0.45594000000E+02  0.51100000000E-03 0.  1.
         11   -1    0    0    0    0 -0.00000000000E+00 -0.00000000000E+00 -0.45593999997E+02  0.45594000000E+02  0.51100000000E-03 0. -1.
    9900012    2    1    2    0    0 -0.93933283262E+01  0.30139728118E+01  0.43952187153E+02  0.46142318690E+02  0.10000008468E+02 0.  0.
         12    1    1    2    0    0  0.93933283262E+01 -0.30139728118E+01 -0.43952187153E+02  0.45045681310E+02  0.00000000000E+00 0. -1.
         11    1    3    3    0    0  0.50256486596E+00  0.81023347530E+00  0.15929018117E+01  0.18564444973E+01  0.51100000000E-03 0. -1.
        -11    1    3    3    0    0 -0.88194253258E+01 -0.13056177253E+01  0.24984717486E+02  0.26527778061E+02  0.51100000000E-03 0.  1.
        -12    1    3    3    0    0 -0.10764678664E+01  0.35093570618E+01  0.17374567855E+02  0.17758096131E+02  0.00000000000E+00 0.  1.
</event>
<event>
 7    1  0.1466590E-008  0.4614232E+02  0.7816164E-02  0.1320468E+00
        -11   -1    0    0    0    0  0.00000000000E+00  0.00000000000E+00  0.45593999997E+02  0.45594000000E+02  0.51100000000E-03 0. -1.
         11   -1    0    0    0    0 -0.00000000000E+00 -0.00000000000E+00 -0.45593999997E+02  0.45594000000E+02  0.51100000000E-03 0.  1.
    9900012    2    1    2    0    0  0.28911553797E+02 -0.17648176607E+02 -0.29694735556E+02  0.46142318739E+02  0.10000008918E+02 0.  0.
         12    1    1    2    0    0 -0.28911553797E+02  0.17648176607E+02  0.29694735556E+02  0.45045681261E+02  0.00000000000E+00 0. -1.
         11    1    3    3    0    0  0.17568815425E+02 -0.86413117854E+01 -0.20078871653E+02  0.28044547277E+02  0.51100000000E-03 0.  1.
        -11    1    3    3    0    0 -0.29934630002E+00  0.51909107799E-01 -0.93199227330E+00  0.98026150665E+00  0.51100000000E-03 0. -1.
         12    1    3    3    0    0  0.11642084672E+02 -0.90587739298E+01 -0.86838716292E+01  0.17117509956E+02  0.00000000000E+00 0. -1.
</event>
<event>
 7    1  0.1466590E-008  0.4614232E+02  0.7816164E-02  0.1320468E+00
        -11   -1    0    0    0    0  0.00000000000E+00  0.00000000000E+00  0.45593999997E+02  0.45594000000E+02  0.51100000000E-03 0.  1.
         11   -1    0    0    0    0 -0.00000000000E+00 -0.00000000000E+00 -0.45593999997E+02  0.45594000000E+02  0.51100000000E-03 0. -1.
    9900012    2    1    2    0    0  0.10299299387E+00  0.38849622930E+02  0.22799331044E+02  0.46142319792E+02  0.10000018519E+02 0.  0.
         12    1    1    2    0    0 -0.10299299387E+00 -0.38849622930E+02 -0.22799331044E+02  0.45045680208E+02  0.00000000000E+00 0. -1.
         11    1    3    3    0    0 -0.11630109839E+00  0.27181995698E+01  0.53581358141E+01  0.60093056596E+01  0.51100000000E-03 0. -1.
        -11    1    3    3    0    0 -0.29521843713E+00  0.24472977048E+02  0.11906979811E+02  0.27217456310E+02  0.51100000000E-03 0.  1.
         12    1    3    3    0    0  0.51451252939E+00  0.11658446312E+02  0.55342154195E+01  0.12915557822E+02  0.00000000000E+00 0. -1.
</event>
<event>
 7    1  0.1466590E-008  0.4614232E+02  0.7816164E-02  0.1320468E+00
        -11   -1    0    0    0    0  0.00000000000E+00  0.00000000000E+00  0.45593999997E+02  0.45594000000E+02  0.51100000000E-03 0.  1.
         11   -1    0    0    0    0 -0.00000000000E+00 -0.00000000000E+00 -0.45593999997E+02  0.45594000000E+02  0.51100000000E-03 0. -1.
    9900012    2    1    2    0    0  0.37901654927E+02  0.22669988382E+02 -0.88684631254E+01  0.46142318102E+02  0.10000003105E+02 0.  0.
         12    1    1    2    0    0 -0.37901654927E+02 -0.22669988382E+02  0.88684631254E+01  0.45045681898E+02  0.00000000000E+00 0. -1.
         11    1    3    3    0    0  0.29020142735E+02  0.15591025160E+02 -0.99664114098E+01  0.34417700484E+02  0.51100000000E-03 0. -1.
        -11    1    3    3    0    0  0.87019704935E+01  0.65722897376E+01  0.49414108790E+00  0.10916201654E+02  0.51100000000E-03 0.  1.
         12    1    3    3    0    0  0.17954169854E+00  0.50667348429E+00  0.60380719644E+00  0.80841596451E+00  0.00000000000E+00 0. -1.
</event>
<event>
 7    1  0.1591116E-008  0.4614232E+02  0.7816164E-02  0.1320468E+00
        -11   -1    0    0    0    0  0.00000000000E+00  0.00000000000E+00  0.45593999997E+02  0.45594000000E+02  0.51100000000E-03 0.  1.
         11   -1    0    0    0    0 -0.00000000000E+00 -0.00000000000E+00 -0.45593999997E+02  0.45594000000E+02  0.51100000000E-03 0. -1.
    9900012    2    1    2    0    0  0.18799197037E+00 -0.34490831836E+02  0.28973447928E+02  0.46142317559E+02  0.99999981578E+01 0.  0.
         12    1    1    2    0    0 -0.18799197037E+00  0.34490831836E+02 -0.28973447928E+02  0.45045682441E+02  0.00000000000E+00 0. -1.
         11    1    3    3    0    0 -0.15371710332E+01 -0.22203522031E+01  0.11095709133E+01  0.29195901362E+01  0.51100000000E-03 0. -1.
        -11    1    3    3    0    0  0.37218953698E+01 -0.24450665903E+02  0.18663255359E+02  0.30983942117E+02  0.51100000000E-03 0.  1.
        -12    1    3    3    0    0 -0.19967323663E+01 -0.78198137304E+01  0.92006216556E+01  0.12238785306E+02  0.00000000000E+00 0.  1.
</event>
<event>
 7    1  0.1466590E-008  0.4614231E+02  0.7816164E-02  0.1320468E+00
        -11   -1    0    0    0    0  0.00000000000E+00  0.00000000000E+00  0.45593999997E+02  0.45594000000E+02  0.51100000000E-03 0. -1.
         11   -1    0    0    0    0 -0.00000000000E+00 -0.00000000000E+00 -0.45593999997E+02  0.45594000000E+02  0.51100000000E-03 0.  1.
    9900012    2    1    2    0    0 -0.45010877384E+02 -0.10692547329E+01  0.14111609258E+01  0.46142314705E+02  0.99999721321E+01 0.  0.
         12    1    1    2    0    0  0.45010877384E+02  0.10692547329E+01 -0.14111609258E+01  0.45045685295E+02  0.00000000000E+00 0. -1.
         11    1    3    3    0    0 -0.44195209747E+01 -0.15670160645E+01  0.22799208031E+01  0.52139950251E+01  0.51100000000E-03 0. -1.
        -11    1    3    3    0    0 -0.38012738773E+02 -0.65180705385E+00 -0.16505691301E+00  0.38018684952E+02  0.51100000000E-03 0.  1.
        -12    1    3    3    0    0 -0.25786176359E+01  0.11495683855E+01 -0.70370296436E+00  0.29096347275E+01  0.00000000000E+00 0.  1.
</event>
<event>
 7    1  0.1466590E-008  0.4614232E+02  0.7816164E-02  0.1320468E+00
        -11   -1    0    0    0    0  0.00000000000E+00  0.00000000000E+00  0.45593999997E+02  0.45594000000E+02  0.51100000000E-03 0.  1.
         11   -1    0    0    0    0 -0.00000000000E+00 -0.00000000000E+00 -0.45593999997E+02  0.45594000000E+02  0.51100000000E-03 0. -1.
    9900012    2    1    2    0    0 -0.94124045943E+01  0.43888862416E+02  0.37799250630E+01  0.46142318321E+02  0.10000005109E+02 0.  0.
         12    1    1    2    0    0  0.94124045943E+01 -0.43888862416E+02 -0.37799250630E+01  0.45045681679E+02  0.00000000000E+00 0. -1.
         11    1    3    3    0    0  0.17901603449E+01  0.49268948540E+01 -0.83187439579E+00  0.53076343350E+01  0.51100000000E-03 0. -1.
        -11    1    3    3    0    0 -0.79757358224E+01  0.29891102243E+02  0.38790644861E+01  0.31179119564E+02  0.51100000000E-03 0.  1.
         12    1    3    3    0    0 -0.32268291169E+01  0.90708653186E+01  0.73273497272E+00  0.96555644226E+01  0.00000000000E+00 0. -1.
</event>
<event>
 7    1  0.1466590E-008  0.4614232E+02  0.7816164E-02  0.1320468E+00
        -11   -1    0    0    0    0  0.00000000000E+00  0.00000000000E+00  0.45593999997E+02  0.45594000000E+02  0.51100000000E-03 0.  1.
         11   -1    0    0    0    0 -0.00000000000E+00 -0.00000000000E+00 -0.45593999997E+02  0.45594000000E+02  0.51100000000E-03 0. -1.
    9900012    2    1    2    0    0 -0.27587702387E+02 -0.67553008570E+01  0.34962809465E+02  0.46142318094E+02  0.10000003037E+02 0.  0.
         12    1    1    2    0    0  0.27587702387E+02  0.67553008570E+01 -0.34962809465E+02  0.45045681906E+02  0.00000000000E+00 0. -1.
         11    1    3    3    0    0 -0.76632373054E+01 -0.38692119525E+01  0.11913659192E+02  0.14684389083E+02  0.51100000000E-03 0. -1.
        -11    1    3    3    0    0 -0.73405556815E+01  0.23137852648E+01  0.69202129246E+01  0.10350203242E+02  0.51100000000E-03 0.  1.
        -12    1    3    3    0    0 -0.12583909400E+02 -0.51998741692E+01  0.16128937348E+02  0.21107725769E+02  0.00000000000E+00 0.  1.
</event>
<event>
 7    1  0.1466590E-008  0.4614232E+02  0.7816164E-02  0.1320468E+00
        -11   -1    0    0    0    0  0.00000000000E+00  0.00000000000E+00  0.45593999997E+02  0.45594000000E+02  0.51100000000E-03 0.  1.
         11   -1    0    0    0    0 -0.00000000000E+00 -0.00000000000E+00 -0.45593999997E+02  0.45594000000E+02  0.51100000000E-03 0. -1.
    9900012    2    1    2    0    0  0.31731541549E+02 -0.31873971417E+02  0.25045229107E+01  0.46142318543E+02  0.10000007125E+02 0.  0.
         12    1    1    2    0    0 -0.31731541549E+02  0.31873971417E+02 -0.25045229107E+01  0.45045681457E+02  0.00000000000E+00 0. -1.
         11    1    3    3    0    0  0.85967451557E+01 -0.13050996818E+02 -0.16044146300E+01  0.15710082488E+02  0.51100000000E-03 0. -1.
        -11    1    3    3    0    0  0.19196696163E+02 -0.13284089858E+02  0.35490509176E+01  0.23613046173E+02  0.51100000000E-03 0.  1.
        -12    1    3    3    0    0  0.39381002304E+01 -0.55388847412E+01  0.55988662309E+00  0.68191898809E+01  0.00000000000E+00 0.  1.
</event>
<event>
 7    1  0.1466590E-008  0.4614232E+02  0.7816164E-02  0.1320468E+00
        -11   -1    0    0    0    0  0.00000000000E+00  0.00000000000E+00  0.45593999997E+02  0.45594000000E+02  0.51100000000E-03 0.  1.
         11   -1    0    0    0    0 -0.00000000000E+00 -0.00000000000E+00 -0.45593999997E+02  0.45594000000E+02  0.51100000000E-03 0. -1.
    9900012    2    1    2    0    0  0.24057517325E+02 -0.36476707347E+02  0.10945281072E+02  0.46142317672E+02  0.99999991845E+01 0.  0.
         12    1    1    2    0    0 -0.24057517325E+02  0.36476707347E+02 -0.10945281072E+02  0.45045682328E+02  0.00000000000E+00 0. -1.
         11    1    3    3    0    0  0.28645637530E+00 -0.21877314705E-01 -0.55721367251E+00  0.62691563212E+00  0.51100000000E-03 0. -1.
        -11    1    3    3    0    0  0.21735298017E+02 -0.30520487653E+02  0.79411100432E+01  0.38301234646E+02  0.51100000000E-03 0.  1.
        -12    1    3    3    0    0  0.20357629328E+01 -0.59343423791E+01  0.35613847011E+01  0.72141673934E+01  0.00000000000E+00 0.  1.
</event>
<event>
 7    1  0.1466590E-008  0.4614232E+02  0.7816164E-02  0.1320468E+00
        -11   -1    0    0    0    0  0.00000000000E+00  0.00000000000E+00  0.45593999997E+02  0.45594000000E+02  0.51100000000E-03 0.  1.
         11   -1    0    0    0    0 -0.00000000000E+00 -0.00000000000E+00 -0.45593999997E+02  0.45594000000E+02  0.51100000000E-03 0. -1.
    9900012    2    1    2    0    0  0.35787223567E+02 -0.20656226720E+02  0.17936231994E+02  0.46142317731E+02  0.99999997218E+01 0.  0.
         12    1    1    2    0    0 -0.35787223567E+02  0.20656226720E+02 -0.17936231994E+02  0.45045682269E+02  0.00000000000E+00 0. -1.
         11    1    3    3    0    0  0.77906256573E+01 -0.40291671306E+01  0.12206118545E+01  0.88553898536E+01  0.51100000000E-03 0. -1.
        -11    1    3    3    0    0  0.20266851049E+02 -0.98169065009E+01  0.83543417859E+01  0.24018991061E+02  0.51100000000E-03 0.  1.
         12    1    3    3    0    0  0.77297468614E+01 -0.68101530881E+01  0.83612783541E+01  0.13267936815E+02  0.00000000000E+00 0. -1.
</event>
<event>
 7    1  0.1466590E-008  0.4614232E+02  0.7816164E-02  0.1320468E+00
        -11   -1    0    0    0    0  0.00000000000E+00  0.00000000000E+00  0.45593999997E+02  0.45594000000E+02  0.51100000000E-03 0.  1.
         11   -1    0    0    0    0 -0.00000000000E+00 -0.00000000000E+00 -0.45593999997E+02  0.45594000000E+02  0.51100000000E-03 0. -1.
    9900012    2    1    2    0    0  0.36534393503E+02  0.25980502859E+02 -0.44005780063E+01  0.46142317363E+02  0.99999963707E+01 0.  0.
         12    1    1    2    0    0 -0.36534393503E+02 -0.25980502859E+02  0.44005780063E+01  0.45045682637E+02  0.00000000000E+00 0. -1.
         11    1    3    3    0    0  0.98894458917E+01  0.10948156062E+02  0.11735023259E+01  0.14800012472E+02  0.51100000000E-03 0. -1.
        -11    1    3    3    0    0  0.12077230916E+02  0.65667361786E+01 -0.54081307654E+00  0.13757689111E+02  0.51100000000E-03 0.  1.
         12    1    3    3    0    0  0.14567716695E+02  0.84656106185E+01 -0.50332672557E+01  0.17584615780E+02  0.00000000000E+00 0. -1.
</event>
<event>
 7    1  0.1466590E-008  0.4614232E+02  0.7816164E-02  0.1320468E+00
        -11   -1    0    0    0    0  0.00000000000E+00  0.00000000000E+00  0.45593999997E+02  0.45594000000E+02  0.51100000000E-03 0.  1.
         11   -1    0    0    0    0 -0.00000000000E+00 -0.00000000000E+00 -0.45593999997E+02  0.45594000000E+02  0.51100000000E-03 0. -1.
    9900012    2    1    2    0    0  0.87530662072E+01  0.29116832320E+02  0.33237138423E+02  0.46142318043E+02  0.10000002575E+02 0.  0.
         12    1    1    2    0    0 -0.87530662072E+01 -0.29116832320E+02 -0.33237138423E+02  0.45045681957E+02  0.00000000000E+00 0. -1.
         11    1    3    3    0    0  0.87039646897E+01  0.22890294206E+02  0.22723975300E+02  0.33408137090E+02  0.51100000000E-03 0. -1.
        -11    1    3    3    0    0  0.84526978556E-01  0.44131069987E+01  0.98660830352E+01  0.10808434341E+02  0.51100000000E-03 0.  1.
         12    1    3    3    0    0 -0.35425460980E-01  0.18134311154E+01  0.64708008825E+00  0.19257466122E+01  0.00000000000E+00 0. -1.
</event>
<event>
 7    1  0.1466590E-008  0.4614232E+02  0.7816164E-02  0.1320468E+00
        -11   -1    0    0    0    0  0.00000000000E+00  0.00000000000E+00  0.45593999997E+02  0.45594000000E+02  0.51100000000E-03 0.  1.
         11   -1    0    0    0    0 -0.00000000000E+00 -0.00000000000E+00 -0.45593999997E+02  0.45594000000E+02  0.51100000000E-03 0. -1.
    9900012    2    1    2    0    0  0.88417230913E+01 -0.44057446240E+02  0.31430527528E+01  0.46142318553E+02  0.10000007223E+02 0.  0.
         12    1    1    2    0    0 -0.88417230913E+01  0.44057446240E+02 -0.31430527528E+01  0.45045681447E+02  0.00000000000E+00 0. -1.
         11    1    3    3    0    0  0.13120502256E+01 -0.43131274373E+00  0.81110310306E+00  0.16016850446E+01  0.51100000000E-03 0. -1.
        -11    1    3    3    0    0  0.21327208157E+01 -0.24691711716E+02  0.17014021399E+01  0.24841978485E+02  0.51100000000E-03 0.  1.
        -12    1    3    3    0    0  0.53969520501E+01 -0.18934421780E+02  0.63054750989E+00  0.19698655024E+02  0.00000000000E+00 0.  1.
</event>
<event>
 7    1  0.1466590E-008  0.4614232E+02  0.7816164E-02  0.1320468E+00
        -11   -1    0    0    0    0  0.00000000000E+00  0.00000000000E+00  0.45593999997E+02  0.45594000000E+02  0.51100000000E-03 0.  1.
         11   -1    0    0    0    0 -0.00000000000E+00 -0.00000000000E+00 -0.45593999997E+02  0.45594000000E+02  0.51100000000E-03 0. -1.
    9900012    2    1    2    0    0 -0.28249404884E+02 -0.34596006185E+02 -0.58481554550E+01  0.46142318270E+02  0.10000004643E+02 0.  0.
         12    1    1    2    0    0  0.28249404884E+02  0.34596006185E+02  0.58481554550E+01  0.45045681730E+02  0.00000000000E+00 0. -1.
         11    1    3    3    0    0 -0.29077113029E+01 -0.88142685556E+01 -0.17407465653E+01  0.94433211349E+01  0.51100000000E-03 0. -1.
        -11    1    3    3    0    0 -0.99910975710E+01 -0.69394227311E+01 -0.13458661255E+01  0.12238830598E+02  0.51100000000E-03 0.  1.
        -12    1    3    3    0    0 -0.15350596010E+02 -0.18842314899E+02 -0.27615427642E+01  0.24460166538E+02  0.00000000000E+00 0.  1.
</event>
<event>
 7    1  0.1466590E-008  0.4614232E+02  0.7816164E-02  0.1320468E+00
        -11   -1    0    0    0    0  0.00000000000E+00  0.00000000000E+00  0.45593999997E+02  0.45594000000E+02  0.51100000000E-03 0. -1.
         11   -1    0    0    0    0 -0.00000000000E+00 -0.00000000000E+00 -0.45593999997E+02  0.45594000000E+02  0.51100000000E-03 0.  1.
    9900012    2    1    2    0    0 -0.15532388008E+01  0.19999439088E+02 -0.40332658793E+02  0.46142317855E+02  0.10000000852E+02 0.  0.
         12    1    1    2    0    0  0.15532388008E+01 -0.19999439088E+02  0.40332658793E+02  0.45045682145E+02  0.00000000000E+00 0. -1.
         11    1    3    3    0    0  0.15401450054E+01  0.41356508592E+01 -0.29132793095E+01  0.52879912314E+01  0.51100000000E-03 0. -1.
        -11    1    3    3    0    0 -0.28212598287E+01  0.13334346083E+02 -0.33663164980E+02  0.36317667453E+02  0.51100000000E-03 0.  1.
         12    1    3    3    0    0 -0.27212397750E+00  0.25294421459E+01 -0.37562145037E+01  0.45366591702E+01  0.00000000000E+00 0. -1.
</event>
<event>
 7    1  0.1466590E-008  0.4614232E+02  0.7816164E-02  0.1320468E+00
        -11   -1    0    0    0    0  0.00000000000E+00  0.00000000000E+00  0.45593999997E+02  0.45594000000E+02  0.51100000000E-03 0.  1.
         11   -1    0    0    0    0 -0.00000000000E+00 -0.00000000000E+00 -0.45593999997E+02  0.45594000000E+02  0.51100000000E-03 0. -1.
    9900012    2    1    2    0    0 -0.30388318073E+02  0.27172828609E+02  0.19165097877E+02  0.46142318003E+02  0.10000002207E+02 0.  0.
         12    1    1    2    0    0  0.30388318073E+02 -0.27172828609E+02 -0.19165097877E+02  0.45045681997E+02  0.00000000000E+00 0. -1.
         11    1    3    3    0    0  0.37852241117E+00  0.48427055234E+00  0.51143731862E+00  0.79960338645E+00  0.51100000000E-03 0.  1.
        -11    1    3    3    0    0 -0.84952491790E+01  0.39298960831E+01  0.57450770766E+01  0.10982679669E+02  0.51100000000E-03 0. -1.
        -12    1    3    3    0    0 -0.22271591306E+02  0.22758661973E+02  0.12908583482E+02  0.34360034948E+02  0.00000000000E+00 0.  1.
</event>
<event>
 7    1  0.1466590E-008  0.4614232E+02  0.7816164E-02  0.1320468E+00
        -11   -1    0    0    0    0  0.00000000000E+00  0.00000000000E+00  0.45593999997E+02  0.45594000000E+02  0.51100000000E-03 0.  1.
         11   -1    0    0    0    0 -0.00000000000E+00 -0.00000000000E+00 -0.45593999997E+02  0.45594000000E+02  0.51100000000E-03 0. -1.
    9900012    2    1    2    0    0 -0.32351443753E+02  0.17624588458E+02 -0.25920482935E+02  0.46142318000E+02  0.10000002179E+02 0.  0.
         12    1    1    2    0    0  0.32351443753E+02 -0.17624588458E+02  0.25920482935E+02  0.45045682000E+02  0.00000000000E+00 0. -1.
         11    1    3    3    0    0 -0.24404263579E+02  0.13070281064E+02 -0.21963442774E+02  0.35338267454E+02  0.51100000000E-03 0. -1.
        -11    1    3    3    0    0 -0.44500901957E+01  0.65018999657E+00 -0.49945939833E+00  0.45249872633E+01  0.51100000000E-03 0.  1.
         12    1    3    3    0    0 -0.34970899784E+01  0.39041173980E+01 -0.34575807634E+01  0.62790632828E+01  0.00000000000E+00 0. -1.
</event>
<event>
 7    1  0.1466590E-008  0.4614232E+02  0.7816164E-02  0.1320468E+00
        -11   -1    0    0    0    0  0.00000000000E+00  0.00000000000E+00  0.45593999997E+02  0.45594000000E+02  0.51100000000E-03 0.  1.
         11   -1    0    0    0    0 -0.00000000000E+00 -0.00000000000E+00 -0.45593999997E+02  0.45594000000E+02  0.51100000000E-03 0. -1.
    9900012    2    1    2    0    0  0.19102344973E+02  0.40574004887E+02 -0.42383975797E+01  0.46142317964E+02  0.10000001851E+02 0.  0.
         12    1    1    2    0    0 -0.19102344973E+02 -0.40574004887E+02  0.42383975797E+01  0.45045682036E+02  0.00000000000E+00 0. -1.
         11    1    3    3    0    0  0.60801091122E+01  0.16315182558E+02 -0.39128015829E+01  0.17845529558E+02  0.51100000000E-03 0. -1.
        -11    1    3    3    0    0  0.94301089638E+01  0.13698891079E+02  0.24294695098E+01  0.16807405934E+02  0.51100000000E-03 0.  1.
        -12    1    3    3    0    0  0.35921268972E+01  0.10559931250E+02 -0.27550655065E+01  0.11489382472E+02  0.00000000000E+00 0.  1.
</event>
<event>
 7    1  0.1466590E-008  0.4614232E+02  0.7816164E-02  0.1320468E+00
        -11   -1    0    0    0    0  0.00000000000E+00  0.00000000000E+00  0.45593999997E+02  0.45594000000E+02  0.51100000000E-03 0.  1.
         11   -1    0    0    0    0 -0.00000000000E+00 -0.00000000000E+00 -0.45593999997E+02  0.45594000000E+02  0.51100000000E-03 0. -1.
    9900012    2    1    2    0    0 -0.39678143014E+02 -0.58661260019E+01 -0.20502364028E+02  0.46142318764E+02  0.10000009144E+02 0.  0.
         12    1    1    2    0    0  0.39678143014E+02  0.58661260019E+01  0.20502364028E+02  0.45045681236E+02  0.00000000000E+00 0. -1.
         11    1    3    3    0    0 -0.19666471210E+02  0.98047178496E+00 -0.11722225098E+02  0.22915976442E+02  0.51100000000E-03 0. -1.
        -11    1    3    3    0    0 -0.10927624372E+02 -0.53630916180E+01 -0.62344596481E+01  0.13676410841E+02  0.51100000000E-03 0.  1.
         12    1    3    3    0    0 -0.90840474315E+01 -0.14835061689E+01 -0.25456792823E+01  0.95499314814E+01  0.00000000000E+00 0. -1.
</event>
<event>
 7    1  0.1466590E-008  0.4614232E+02  0.7816164E-02  0.1320468E+00
        -11   -1    0    0    0    0  0.00000000000E+00  0.00000000000E+00  0.45593999997E+02  0.45594000000E+02  0.51100000000E-03 0.  1.
         11   -1    0    0    0    0 -0.00000000000E+00 -0.00000000000E+00 -0.45593999997E+02  0.45594000000E+02  0.51100000000E-03 0. -1.
    9900012    2    1    2    0    0  0.30868201126E+02 -0.58415016208E+01  0.32282263016E+02  0.46142317772E+02  0.10000000097E+02 0.  0.
         12    1    1    2    0    0 -0.30868201126E+02  0.58415016208E+01 -0.32282263016E+02  0.45045682228E+02  0.00000000000E+00 0. -1.
         11    1    3    3    0    0  0.12277184226E+02 -0.22234974902E+00  0.68926572404E+01  0.14081456460E+02  0.51100000000E-03 0. -1.
        -11    1    3    3    0    0  0.14336754089E+02 -0.43218670043E+01  0.17766080480E+02  0.23234772822E+02  0.51100000000E-03 0.  1.
         12    1    3    3    0    0  0.42542628113E+01 -0.12972848674E+01  0.76235252964E+01  0.88260884904E+01  0.00000000000E+00 0. -1.
</event>
<event>
 7    1  0.1466590E-008  0.4614232E+02  0.7816164E-02  0.1320468E+00
        -11   -1    0    0    0    0  0.00000000000E+00  0.00000000000E+00  0.45593999997E+02  0.45594000000E+02  0.51100000000E-03 0. -1.
         11   -1    0    0    0    0 -0.00000000000E+00 -0.00000000000E+00 -0.45593999997E+02  0.45594000000E+02  0.51100000000E-03 0.  1.
    9900012    2    1    2    0    0 -0.44843946293E+02  0.42575503399E+01 -0.85097469385E-01  0.46142317681E+02  0.99999992653E+01 0.  0.
         12    1    1    2    0    0  0.44843946293E+02 -0.42575503399E+01  0.85097469385E-01  0.45045682319E+02  0.00000000000E+00 0. -1.
         11    1    3    3    0    0 -0.10561801736E+02  0.86599722069E+00  0.37322493180E+01  0.11235270016E+02  0.51100000000E-03 0. -1.
        -11    1    3    3    0    0 -0.26158775593E+02  0.11384171856E+01 -0.39263880497E+01  0.26476292369E+02  0.51100000000E-03 0.  1.
        -12    1    3    3    0    0 -0.81233689643E+01  0.22531359336E+01  0.10904126235E+00  0.84307552961E+01  0.00000000000E+00 0.  1.
</event>
<event>
 7    1  0.1466590E-008  0.4614232E+02  0.7816164E-02  0.1320468E+00
        -11   -1    0    0    0    0  0.00000000000E+00  0.00000000000E+00  0.45593999997E+02  0.45594000000E+02  0.51100000000E-03 0.  1.
         11   -1    0    0    0    0 -0.00000000000E+00 -0.00000000000E+00 -0.45593999997E+02  0.45594000000E+02  0.51100000000E-03 0. -1.
    9900012    2    1    2    0    0  0.44546275935E+02  0.66158947061E+01 -0.98622892164E+00  0.46142318631E+02  0.10000007935E+02 0.  0.
         12    1    1    2    0    0 -0.44546275935E+02 -0.66158947061E+01  0.98622892164E+00  0.45045681369E+02  0.00000000000E+00 0. -1.
         11    1    3    3    0    0  0.30852384308E+02  0.45984539253E+01  0.14330662018E+01  0.31226096058E+02  0.51100000000E-03 0. -1.
        -11    1    3    3    0    0  0.60807968392E+01  0.12316247692E+01  0.14035616738E+01  0.63610514386E+01  0.51100000000E-03 0.  1.
         12    1    3    3    0    0  0.76130947881E+01  0.78581601156E+00 -0.38228567973E+01  0.85551711350E+01  0.00000000000E+00 0. -1.
</event>
<event>
 7    1  0.1466590E-008  0.4614232E+02  0.7816164E-02  0.1320468E+00
        -11   -1    0    0    0    0  0.00000000000E+00  0.00000000000E+00  0.45593999997E+02  0.45594000000E+02  0.51100000000E-03 0. -1.
         11   -1    0    0    0    0 -0.00000000000E+00 -0.00000000000E+00 -0.45593999997E+02  0.45594000000E+02  0.51100000000E-03 0.  1.
    9900012    2    1    2    0    0 -0.80778855342E+01  0.30240962134E+02 -0.32393601740E+02  0.46142318085E+02  0.10000002957E+02 0.  0.
         12    1    1    2    0    0  0.80778855342E+01 -0.30240962134E+02  0.32393601740E+02  0.45045681915E+02  0.00000000000E+00 0. -1.
         11    1    3    3    0    0 -0.21240547309E+01  0.58114401980E+01 -0.19481107884E+01  0.64868776449E+01  0.51100000000E-03 0. -1.
        -11    1    3    3    0    0 -0.56882963752E+01  0.19746478713E+02 -0.22876067961E+02  0.30750522318E+02  0.51100000000E-03 0.  1.
         12    1    3    3    0    0 -0.26553442815E+00  0.46830432228E+01 -0.75694229907E+01  0.89049181227E+01  0.00000000000E+00 0. -1.
</event>
<event>
 7    1  0.1510858E-008  0.4614232E+02  0.7816164E-02  0.1320468E+00
        -11   -1    0    0    0    0  0.00000000000E+00  0.00000000000E+00  0.45593999997E+02  0.45594000000E+02  0.51100000000E-03 0.  1.
         11   -1    0    0    0    0 -0.00000000000E+00 -0.00000000000E+00 -0.45593999997E+02  0.45594000000E+02  0.51100000000E-03 0. -1.
    9900012    2    1    2    0    0 -0.18607534144E+02  0.35096308954E+02  0.21239633664E+02  0.46142320215E+02  0.10000022375E+02 0.  0.
         12    1    1    2    0    0  0.18607534144E+02 -0.35096308954E+02 -0.21239633664E+02  0.45045679785E+02  0.00000000000E+00 0. -1.
         11    1    3    3    0    0 -0.29088973955E+01  0.56892828080E+01  0.74560159231E+00  0.64331597930E+01  0.51100000000E-03 0. -1.
        -11    1    3    3    0    0 -0.66890269416E+01  0.13371321161E+02  0.13124251577E+02  0.19894252707E+02  0.51100000000E-03 0.  1.
        -12    1    3    3    0    0 -0.90096098069E+01  0.16035704985E+02  0.73697804943E+01  0.19814907715E+02  0.00000000000E+00 0.  1.
</event>
<event>
 7    1  0.1466590E-008  0.4614232E+02  0.7816164E-02  0.1320468E+00
        -11   -1    0    0    0    0  0.00000000000E+00  0.00000000000E+00  0.45593999997E+02  0.45594000000E+02  0.51100000000E-03 0.  1.
         11   -1    0    0    0    0 -0.00000000000E+00 -0.00000000000E+00 -0.45593999997E+02  0.45594000000E+02  0.51100000000E-03 0. -1.
    9900012    2    1    2    0    0  0.29460185991E+01  0.30794964393E+02  0.32743009116E+02  0.46142317592E+02  0.99999984623E+01 0.  0.
         12    1    1    2    0    0 -0.29460185991E+01 -0.30794964393E+02 -0.32743009116E+02  0.45045682408E+02  0.00000000000E+00 0. -1.
         11    1    3    3    0    0 -0.10987814517E+01  0.80195027143E+01  0.10967198168E+02  0.13630817304E+02  0.51100000000E-03 0.  1.
        -11    1    3    3    0    0  0.49385819335E+01  0.89590277241E+01  0.10450763855E+02  0.14624371258E+02  0.51100000000E-03 0. -1.
        -12    1    3    3    0    0 -0.89378188261E+00  0.13816433955E+02  0.11325047093E+02  0.17887129030E+02  0.00000000000E+00 0.  1.
</event>
<event>
 7    1  0.1466590E-008  0.4614232E+02  0.7816164E-02  0.1320468E+00
        -11   -1    0    0    0    0  0.00000000000E+00  0.00000000000E+00  0.45593999997E+02  0.45594000000E+02  0.51100000000E-03 0.  1.
         11   -1    0    0    0    0 -0.00000000000E+00 -0.00000000000E+00 -0.45593999997E+02  0.45594000000E+02  0.51100000000E-03 0. -1.
    9900012    2    1    2    0    0 -0.10867476211E+02  0.59463836638E+00  0.43711072591E+02  0.46142317621E+02  0.99999987200E+01 0.  0.
         12    1    1    2    0    0  0.10867476211E+02 -0.59463836638E+00 -0.43711072591E+02  0.45045682379E+02  0.00000000000E+00 0. -1.
         11    1    3    3    0    0  0.46795176507E+00 -0.97862875287E-01  0.64666406242E+01  0.64842884899E+01  0.51100000000E-03 0. -1.
        -11    1    3    3    0    0 -0.11342580370E+02 -0.11644892812E+01  0.34571934398E+02  0.36403692300E+02  0.51100000000E-03 0.  1.
        -12    1    3    3    0    0  0.71523944752E-02  0.18569905229E+01  0.26724975683E+01  0.32543368313E+01  0.00000000000E+00 0.  1.
</event>
<event>
 7    1  0.1466590E-008  0.4614231E+02  0.7816164E-02  0.1320468E+00
        -11   -1    0    0    0    0  0.00000000000E+00  0.00000000000E+00  0.45593999997E+02  0.45594000000E+02  0.51100000000E-03 0.  1.
         11   -1    0    0    0    0 -0.00000000000E+00 -0.00000000000E+00 -0.45593999997E+02  0.45594000000E+02  0.51100000000E-03 0. -1.
    9900012    2    1    2    0    0 -0.59683606575E+01  0.44195802999E+02 -0.63421978121E+01  0.46142314249E+02  0.99999679736E+01 0.  0.
         12    1    1    2    0    0  0.59683606575E+01 -0.44195802999E+02  0.63421978121E+01  0.45045685751E+02  0.00000000000E+00 0. -1.
         11    1    3    3    0    0  0.17670279584E+01  0.76505521734E+01 -0.19111467705E+01  0.80812015569E+01  0.51100000000E-03 0. -1.
        -11    1    3    3    0    0 -0.27844449018E+01  0.25210306257E+02 -0.40601740502E+01  0.25686527374E+02  0.51100000000E-03 0.  1.
         12    1    3    3    0    0 -0.49509437140E+01  0.11334944569E+02 -0.37087699143E+00  0.12374585318E+02  0.00000000000E+00 0. -1.
</event>
<event>
 7    1  0.1466590E-008  0.4614232E+02  0.7816164E-02  0.1320468E+00
        -11   -1    0    0    0    0  0.00000000000E+00  0.00000000000E+00  0.45593999997E+02  0.45594000000E+02  0.51100000000E-03 0.  1.
         11   -1    0    0    0    0 -0.00000000000E+00 -0.00000000000E+00 -0.45593999997E+02  0.45594000000E+02  0.51100000000E-03 0. -1.
    9900012    2    1    2    0    0 -0.29563681621E+02  0.31251121930E+02  0.13359258420E+02  0.46142315652E+02  0.99999807665E+01 0.  0.
         12    1    1    2    0    0  0.29563681621E+02 -0.31251121930E+02 -0.13359258420E+02  0.45045684348E+02  0.00000000000E+00 0. -1.
         11    1    3    3    0    0 -0.10272100276E+02  0.95357065022E+01  0.86514368253E+01  0.16470977566E+02  0.51100000000E-03 0. -1.
        -11    1    3    3    0    0 -0.95065678624E+01  0.13167602383E+02  0.16554880678E+01  0.16324865269E+02  0.51100000000E-03 0.  1.
        -12    1    3    3    0    0 -0.97850134823E+01  0.85478130444E+01  0.30523335267E+01  0.13346472817E+02  0.00000000000E+00 0.  1.
</event>
<event>
 7    1  0.1466590E-008  0.4614232E+02  0.7816164E-02  0.1320468E+00
        -11   -1    0    0    0    0  0.00000000000E+00  0.00000000000E+00  0.45593999997E+02  0.45594000000E+02  0.51100000000E-03 0.  1.
         11   -1    0    0    0    0 -0.00000000000E+00 -0.00000000000E+00 -0.45593999997E+02  0.45594000000E+02  0.51100000000E-03 0. -1.
    9900012    2    1    2    0    0  0.25365531804E+02 -0.28551805946E+02  0.23885097495E+02  0.46142315314E+02  0.99999776873E+01 0.  0.
         12    1    1    2    0    0 -0.25365531804E+02  0.28551805946E+02 -0.23885097495E+02  0.45045684686E+02  0.00000000000E+00 0. -1.
         11    1    3    3    0    0  0.22484001037E+01  0.11310314594E+00  0.91991216634E+00  0.24319403781E+01  0.51100000000E-03 0. -1.
        -11    1    3    3    0    0  0.14088254058E+02 -0.20792679289E+02  0.14056159460E+02  0.28781765641E+02  0.51100000000E-03 0.  1.
         12    1    3    3    0    0  0.90288776416E+01 -0.78722298036E+01  0.89090258685E+01  0.14928609295E+02  0.00000000000E+00 0. -1.
</event>
<event>
 7    1  0.1466590E-008  0.4614232E+02  0.7816164E-02  0.1320468E+00
        -11   -1    0    0    0    0  0.00000000000E+00  0.00000000000E+00  0.45593999997E+02  0.45594000000E+02  0.51100000000E-03 0. -1.
         11   -1    0    0    0    0 -0.00000000000E+00 -0.00000000000E+00 -0.45593999997E+02  0.45594000000E+02  0.51100000000E-03 0.  1.
    9900012    2    1    2    0    0 -0.72253076027E+01  0.33568299182E+02 -0.29156092527E+02  0.46142317505E+02  0.99999976672E+01 0.  0.
         12    1    1    2    0    0  0.72253076027E+01 -0.33568299182E+02  0.29156092527E+02  0.45045682495E+02  0.00000000000E+00 0. -1.
         11    1    3    3    0    0 -0.63585532273E+01  0.11416873007E+02 -0.13604097678E+02  0.18863924891E+02  0.51100000000E-03 0. -1.
        -11    1    3    3    0    0  0.89013665980E+00  0.95101551461E+01 -0.54162715103E+01  0.10980500513E+02  0.51100000000E-03 0.  1.
        -12    1    3    3    0    0 -0.17568910352E+01  0.12641271029E+02 -0.10135723339E+02  0.16297892101E+02  0.00000000000E+00 0.  1.
</event>
<event>
 7    1  0.1466590E-008  0.4614232E+02  0.7816164E-02  0.1320468E+00
        -11   -1    0    0    0    0  0.00000000000E+00  0.00000000000E+00  0.45593999997E+02  0.45594000000E+02  0.51100000000E-03 0. -1.
         11   -1    0    0    0    0 -0.00000000000E+00 -0.00000000000E+00 -0.45593999997E+02  0.45594000000E+02  0.51100000000E-03 0.  1.
    9900012    2    1    2    0    0  0.15522671243E+02  0.40532407629E+02  0.12053386686E+02  0.46142317396E+02  0.99999966669E+01 0.  0.
         12    1    1    2    0    0 -0.15522671243E+02 -0.40532407629E+02 -0.12053386686E+02  0.45045682604E+02  0.00000000000E+00 0. -1.
         11    1    3    3    0    0  0.61539804862E+01  0.69471161327E+01  0.43750065926E+01  0.10260340215E+02  0.51100000000E-03 0. -1.
        -11    1    3    3    0    0  0.41209901597E+01  0.16908240009E+02  0.20948270303E+01  0.17528817434E+02  0.51100000000E-03 0.  1.
         12    1    3    3    0    0  0.52477005973E+01  0.16677051487E+02  0.55835530628E+01  0.18353159746E+02  0.00000000000E+00 0. -1.
</event>
<event>
 7    1  0.1466590E-008  0.4614232E+02  0.7816164E-02  0.1320468E+00
        -11   -1    0    0    0    0  0.00000000000E+00  0.00000000000E+00  0.45593999997E+02  0.45594000000E+02  0.51100000000E-03 0.  1.
         11   -1    0    0    0    0 -0.00000000000E+00 -0.00000000000E+00 -0.45593999997E+02  0.45594000000E+02  0.51100000000E-03 0. -1.
    9900012    2    1    2    0    0  0.19237668202E+02  0.26648701787E+02  0.30803771287E+02  0.46142317518E+02  0.99999977870E+01 0.  0.
         12    1    1    2    0    0 -0.19237668202E+02 -0.26648701787E+02 -0.30803771287E+02  0.45045682482E+02  0.00000000000E+00 0. -1.
         11    1    3    3    0    0  0.87019563427E+01  0.11176324868E+02  0.18661616215E+02  0.23428405873E+02  0.51100000000E-03 0. -1.
        -11    1    3    3    0    0  0.57082862213E+01  0.11404404678E+02  0.93370533343E+01  0.15805870519E+02  0.51100000000E-03 0.  1.
         12    1    3    3    0    0  0.48274256378E+01  0.40679722403E+01  0.28051017372E+01  0.69080411255E+01  0.00000000000E+00 0. -1.
</event>
<event>
 7    1  0.1466590E-008  0.4614232E+02  0.7816164E-02  0.1320468E+00
        -11   -1    0    0    0    0  0.00000000000E+00  0.00000000000E+00  0.45593999997E+02  0.45594000000E+02  0.51100000000E-03 0. -1.
         11   -1    0    0    0    0 -0.00000000000E+00 -0.00000000000E+00 -0.45593999997E+02  0.45594000000E+02  0.51100000000E-03 0.  1.
    9900012    2    1    2    0    0 -0.33607963651E+01  0.41768248052E+02 -0.16529729642E+02  0.46142318081E+02  0.10000002916E+02 0.  0.
         12    1    1    2    0    0  0.33607963651E+01 -0.41768248052E+02  0.16529729642E+02  0.45045681919E+02  0.00000000000E+00 0. -1.
         11    1    3    3    0    0  0.15511701945E+01  0.11673225524E+02 -0.49253671412E+01  0.12764386583E+02  0.51100000000E-03 0. -1.
        -11    1    3    3    0    0 -0.57610532778E+01  0.19162571485E+02 -0.51809939137E+01  0.20669701957E+02  0.51100000000E-03 0.  1.
        -12    1    3    3    0    0  0.84908671824E+00  0.10932451043E+02 -0.64233685875E+01  0.12708229541E+02  0.00000000000E+00 0.  1.
</event>
<event>
 7    1  0.1466590E-008  0.4614232E+02  0.7816164E-02  0.1320468E+00
        -11   -1    0    0    0    0  0.00000000000E+00  0.00000000000E+00  0.45593999997E+02  0.45594000000E+02  0.51100000000E-03 0. -1.
         11   -1    0    0    0    0 -0.00000000000E+00 -0.00000000000E+00 -0.45593999997E+02  0.45594000000E+02  0.51100000000E-03 0.  1.
    9900012    2    1    2    0    0 -0.32476732596E+02  0.19305904372E+02 -0.24528704956E+02  0.46142317959E+02  0.10000001801E+02 0.  0.
         12    1    1    2    0    0  0.32476732596E+02 -0.19305904372E+02  0.24528704956E+02  0.45045682041E+02  0.00000000000E+00 0. -1.
         11    1    3    3    0    0 -0.80404385496E+01  0.74172993936E+01 -0.67282427840E+01  0.12842672369E+02  0.51100000000E-03 0. -1.
        -11    1    3    3    0    0 -0.12325233263E+02  0.77104114260E+01 -0.55140567916E+01  0.15548846964E+02  0.51100000000E-03 0.  1.
        -12    1    3    3    0    0 -0.12111060783E+02  0.41781935528E+01 -0.12286405381E+02  0.17750798625E+02  0.00000000000E+00 0.  1.
</event>
<event>
 7    1  0.1466590E-008  0.4614232E+02  0.7816164E-02  0.1320468E+00
        -11   -1    0    0    0    0  0.00000000000E+00  0.00000000000E+00  0.45593999997E+02  0.45594000000E+02  0.51100000000E-03 0. -1.
         11   -1    0    0    0    0 -0.00000000000E+00 -0.00000000000E+00 -0.45593999997E+02  0.45594000000E+02  0.51100000000E-03 0.  1.
    9900012    2    1    2    0    0  0.18485582314E+02  0.47266232918E+01  0.40805095516E+02  0.46142317173E+02  0.99999946371E+01 0.  0.
         12    1    1    2    0    0 -0.18485582314E+02 -0.47266232918E+01 -0.40805095516E+02  0.45045682827E+02  0.00000000000E+00 0. -1.
         11    1    3    3    0    0 -0.71988457509E+00  0.91737118761E-01 -0.23170319920E-01  0.72607618420E+00  0.51100000000E-03 0. -1.
        -11    1    3    3    0    0  0.14688964655E+02  0.26229386221E+01  0.29631044244E+02  0.33175959261E+02  0.51100000000E-03 0.  1.
         12    1    3    3    0    0  0.45165022348E+01  0.20119475510E+01  0.11197221593E+02  0.12240281728E+02  0.00000000000E+00 0. -1.
</event>
<event>
 7    1  0.1466590E-008  0.4614232E+02  0.7816164E-02  0.1320468E+00
        -11   -1    0    0    0    0  0.00000000000E+00  0.00000000000E+00  0.45593999997E+02  0.45594000000E+02  0.51100000000E-03 0. -1.
         11   -1    0    0    0    0 -0.00000000000E+00 -0.00000000000E+00 -0.45593999997E+02  0.45594000000E+02  0.51100000000E-03 0.  1.
    9900012    2    1    2    0    0  0.32180126778E+02  0.14353804993E+01 -0.31487976880E+02  0.46142316915E+02  0.99999922810E+01 0.  0.
         12    1    1    2    0    0 -0.32180126778E+02 -0.14353804993E+01  0.31487976880E+02  0.45045683085E+02  0.00000000000E+00 0. -1.
         11    1    3    3    0    0  0.12183790435E+02 -0.12446623224E+01 -0.13411389822E+02  0.18162029371E+02  0.51100000000E-03 0. -1.
        -11    1    3    3    0    0  0.59456552553E+00  0.11447039406E+01  0.17131743667E+00  0.13012321856E+01  0.51100000000E-03 0.  1.
        -12    1    3    3    0    0  0.19401770818E+02  0.15353388812E+01 -0.18247904495E+02  0.26679055358E+02  0.00000000000E+00 0.  1.
</event>
<event>
 7    1  0.1466590E-008  0.4614232E+02  0.7816164E-02  0.1320468E+00
        -11   -1    0    0    0    0  0.00000000000E+00  0.00000000000E+00  0.45593999997E+02  0.45594000000E+02  0.51100000000E-03 0.  1.
         11   -1    0    0    0    0 -0.00000000000E+00 -0.00000000000E+00 -0.45593999997E+02  0.45594000000E+02  0.51100000000E-03 0. -1.
    9900012    2    1    2    0    0  0.62487405821E+01  0.13264210411E+02  0.42592575270E+02  0.46142317578E+02  0.99999983305E+01 0.  0.
         12    1    1    2    0    0 -0.62487405821E+01 -0.13264210411E+02 -0.42592575270E+02  0.45045682422E+02  0.00000000000E+00 0. -1.
         11    1    3    3    0    0  0.21327931758E+00 -0.13001813560E+00  0.82326774888E+01  0.82364659702E+01  0.51100000000E-03 0. -1.
        -11    1    3    3    0    0  0.40634258480E+01  0.13294135510E+02  0.28254331473E+02  0.31488930052E+02  0.51100000000E-03 0.  1.
        -12    1    3    3    0    0  0.19720354166E+01  0.10009303629E+00  0.61055663091E+01  0.64169215559E+01  0.00000000000E+00 0.  1.
</event>
<event>
 7    1  0.1466590E-008  0.4614232E+02  0.7816164E-02  0.1320468E+00
        -11   -1    0    0    0    0  0.00000000000E+00  0.00000000000E+00  0.45593999997E+02  0.45594000000E+02  0.51100000000E-03 0.  1.
         11   -1    0    0    0    0 -0.00000000000E+00 -0.00000000000E+00 -0.45593999997E+02  0.45594000000E+02  0.51100000000E-03 0. -1.
    9900012    2    1    2    0    0 -0.36646449558E+02  0.14369418879E+02  0.21901392562E+02  0.46142318073E+02  0.10000002840E+02 0.  0.
         12    1    1    2    0    0  0.36646449558E+02 -0.14369418879E+02 -0.21901392562E+02  0.45045681927E+02  0.00000000000E+00 0. -1.
         11    1    3    3    0    0 -0.11838483376E+02  0.87385887520E+01  0.87450777371E+01  0.17116921654E+02  0.51100000000E-03 0. -1.
        -11    1    3    3    0    0 -0.21036787272E+02  0.29511353568E+01  0.10982956064E+02  0.23914032341E+02  0.51100000000E-03 0.  1.
        -12    1    3    3    0    0 -0.37711789100E+01  0.26796947701E+01  0.21733587614E+01  0.51113640780E+01  0.00000000000E+00 0.  1.
</event>
<event>
 7    1  0.1466590E-008  0.4614232E+02  0.7816164E-02  0.1320468E+00
        -11   -1    0    0    0    0  0.00000000000E+00  0.00000000000E+00  0.45593999997E+02  0.45594000000E+02  0.51100000000E-03 0. -1.
         11   -1    0    0    0    0 -0.00000000000E+00 -0.00000000000E+00 -0.45593999997E+02  0.45594000000E+02  0.51100000000E-03 0.  1.
    9900012    2    1    2    0    0  0.18688744271E+02 -0.36869501042E+02 -0.17902073880E+02  0.46142317424E+02  0.99999969268E+01 0.  0.
         12    1    1    2    0    0 -0.18688744271E+02  0.36869501042E+02  0.17902073880E+02  0.45045682576E+02  0.00000000000E+00 0. -1.
         11    1    3    3    0    0  0.60202864440E+01 -0.88457940828E+01 -0.96195530890E+00  0.10743243463E+02  0.51100000000E-03 0. -1.
        -11    1    3    3    0    0  0.11420364907E+02 -0.20839648150E+02 -0.12327417049E+02  0.26770896156E+02  0.51100000000E-03 0.  1.
         12    1    3    3    0    0  0.12480929203E+01 -0.71840588089E+01 -0.46127015219E+01  0.86281778052E+01  0.00000000000E+00 0. -1.
</event>
<event>
 7    1  0.1466590E-008  0.4614232E+02  0.7816164E-02  0.1320468E+00
        -11   -1    0    0    0    0  0.00000000000E+00  0.00000000000E+00  0.45593999997E+02  0.45594000000E+02  0.51100000000E-03 0.  1.
         11   -1    0    0    0    0 -0.00000000000E+00 -0.00000000000E+00 -0.45593999997E+02  0.45594000000E+02  0.51100000000E-03 0. -1.
    9900012    2    1    2    0    0  0.79926758907E-01 -0.19439114037E+02  0.40635304049E+02  0.46142317876E+02  0.10000001052E+02 0.  0.
         12    1    1    2    0    0 -0.79926758907E-01  0.19439114037E+02 -0.40635304049E+02  0.45045682124E+02  0.00000000000E+00 0. -1.
         11    1    3    3    0    0  0.21773043736E+01 -0.10507589545E+02  0.20758277426E+02  0.23367844880E+02  0.51100000000E-03 0. -1.
        -11    1    3    3    0    0  0.13802437813E+01 -0.14359763027E+01  0.11365927866E+01  0.22932388147E+01  0.51100000000E-03 0.  1.
        -12    1    3    3    0    0 -0.34776213960E+01 -0.74955481894E+01  0.18740433836E+02  0.20481234182E+02  0.00000000000E+00 0.  1.
</event>
<event>
 7    1  0.1466590E-008  0.4614232E+02  0.7816164E-02  0.1320468E+00
        -11   -1    0    0    0    0  0.00000000000E+00  0.00000000000E+00  0.45593999997E+02  0.45594000000E+02  0.51100000000E-03 0.  1.
         11   -1    0    0    0    0 -0.00000000000E+00 -0.00000000000E+00 -0.45593999997E+02  0.45594000000E+02  0.51100000000E-03 0. -1.
    9900012    2    1    2    0    0  0.62817573842E+01 -0.17217529166E+02  0.41148628827E+02  0.46142318289E+02  0.10000004817E+02 0.  0.
         12    1    1    2    0    0 -0.62817573842E+01  0.17217529166E+02 -0.41148628827E+02  0.45045681711E+02  0.00000000000E+00 0. -1.
         11    1    3    3    0    0  0.74068657099E+00 -0.29738937765E+01  0.14828729384E+01  0.34046399520E+01  0.51100000000E-03 0. -1.
        -11    1    3    3    0    0  0.53314417488E+01 -0.10735052544E+02  0.34197728229E+02  0.36237414926E+02  0.51100000000E-03 0.  1.
        -12    1    3    3    0    0  0.20962906433E+00 -0.35085828453E+01  0.54680276599E+01  0.65002634113E+01  0.00000000000E+00 0.  1.
</event>
<event>
 7    1  0.1466590E-008  0.4614232E+02  0.7816164E-02  0.1320468E+00
        -11   -1    0    0    0    0  0.00000000000E+00  0.00000000000E+00  0.45593999997E+02  0.45594000000E+02  0.51100000000E-03 0.  1.
         11   -1    0    0    0    0 -0.00000000000E+00 -0.00000000000E+00 -0.45593999997E+02  0.45594000000E+02  0.51100000000E-03 0. -1.
    9900012    2    1    2    0    0  0.21287970853E+02  0.37901964953E+02  0.11805795088E+02  0.46142318209E+02  0.10000004086E+02 0.  0.
         12    1    1    2    0    0 -0.21287970853E+02 -0.37901964953E+02 -0.11805795088E+02  0.45045681791E+02  0.00000000000E+00 0. -1.
         11    1    3    3    0    0  0.25519592020E+01  0.12304382260E+02  0.51033439354E+01  0.13562980430E+02  0.51100000000E-03 0. -1.
        -11    1    3    3    0    0  0.72767813076E+01  0.11854225526E+02  0.40703876493E+01  0.14492834950E+02  0.51100000000E-03 0.  1.
         12    1    3    3    0    0  0.11459230344E+02  0.13743357167E+02  0.26320635031E+01  0.18086502829E+02  0.00000000000E+00 0. -1.
</event>
<event>
 7    1  0.1466590E-008  0.4614231E+02  0.7816164E-02  0.1320468E+00
        -11   -1    0    0    0    0  0.00000000000E+00  0.00000000000E+00  0.45593999997E+02  0.45594000000E+02  0.51100000000E-03 0. -1.
         11   -1    0    0    0    0 -0.00000000000E+00 -0.00000000000E+00 -0.45593999997E+02  0.45594000000E+02  0.51100000000E-03 0.  1.
    9900012    2    1    2    0    0 -0.17251178532E+02 -0.29746462501E+02 -0.29097400640E+02  0.46142313014E+02  0.99999567092E+01 0.  0.
         12    1    1    2    0    0  0.17251178532E+02  0.29746462501E+02  0.29097400640E+02  0.45045686986E+02  0.00000000000E+00 0. -1.
         11    1    3    3    0    0 -0.73305175856E+01 -0.86266543859E+01 -0.12558096143E+02  0.16907437209E+02  0.51100000000E-03 0. -1.
        -11    1    3    3    0    0 -0.82600451788E+01 -0.10509434491E+02 -0.92111291364E+01  0.16233344076E+02  0.51100000000E-03 0.  1.
         12    1    3    3    0    0 -0.16606157674E+01 -0.10610373625E+02 -0.73281753605E+01  0.13001531729E+02  0.00000000000E+00 0. -1.
</event>
<event>
 7    1  0.1466590E-008  0.4614232E+02  0.7816164E-02  0.1320468E+00
        -11   -1    0    0    0    0  0.00000000000E+00  0.00000000000E+00  0.45593999997E+02  0.45594000000E+02  0.51100000000E-03 0.  1.
         11   -1    0    0    0    0 -0.00000000000E+00 -0.00000000000E+00 -0.45593999997E+02  0.45594000000E+02  0.51100000000E-03 0. -1.
    9900012    2    1    2    0    0 -0.26133816824E+02 -0.42723112093E+01  0.36440149820E+02  0.46142317146E+02  0.99999943945E+01 0.  0.
         12    1    1    2    0    0  0.26133816824E+02  0.42723112093E+01 -0.36440149820E+02  0.45045682854E+02  0.00000000000E+00 0. -1.
         11    1    3    3    0    0 -0.66746377916E+01 -0.56221207404E+00  0.50107747265E+01  0.83650902975E+01  0.51100000000E-03 0. -1.
        -11    1    3    3    0    0 -0.10286404515E+02  0.11859814155E+01  0.13030854964E+02  0.16643913335E+02  0.51100000000E-03 0.  1.
         12    1    3    3    0    0 -0.91727745173E+01 -0.48960805508E+01  0.18398520130E+02  0.21133313514E+02  0.00000000000E+00 0. -1.
</event>
<event>
 7    1  0.1466590E-008  0.4614232E+02  0.7816164E-02  0.1320468E+00
        -11   -1    0    0    0    0  0.00000000000E+00  0.00000000000E+00  0.45593999997E+02  0.45594000000E+02  0.51100000000E-03 0. -1.
         11   -1    0    0    0    0 -0.00000000000E+00 -0.00000000000E+00 -0.45593999997E+02  0.45594000000E+02  0.51100000000E-03 0.  1.
    9900012    2    1    2    0    0 -0.33710620879E+02 -0.19392134287E+02 -0.22729995868E+02  0.46142317139E+02  0.99999943243E+01 0.  0.
         12    1    1    2    0    0  0.33710620879E+02  0.19392134287E+02  0.22729995868E+02  0.45045682861E+02  0.00000000000E+00 0. -1.
         11    1    3    3    0    0 -0.37559337972E+01  0.45433493585E+00 -0.20605629692E+01  0.43080597644E+01  0.51100000000E-03 0. -1.
        -11    1    3    3    0    0 -0.16886091428E+02 -0.11143880180E+02 -0.14819752414E+02  0.25078899718E+02  0.51100000000E-03 0.  1.
        -12    1    3    3    0    0 -0.13068595654E+02 -0.87025890423E+01 -0.58496804846E+01  0.16755357656E+02  0.00000000000E+00 0.  1.
</event>
<event>
 7    1  0.1466590E-008  0.4614232E+02  0.7816164E-02  0.1320468E+00
        -11   -1    0    0    0    0  0.00000000000E+00  0.00000000000E+00  0.45593999997E+02  0.45594000000E+02  0.51100000000E-03 0.  1.
         11   -1    0    0    0    0 -0.00000000000E+00 -0.00000000000E+00 -0.45593999997E+02  0.45594000000E+02  0.51100000000E-03 0. -1.
    9900012    2    1    2    0    0  0.26646976572E+02  0.25664906097E+02  0.25697561438E+02  0.46142318417E+02  0.10000005982E+02 0.  0.
         12    1    1    2    0    0 -0.26646976572E+02 -0.25664906097E+02 -0.25697561438E+02  0.45045681583E+02  0.00000000000E+00 0. -1.
         11    1    3    3    0    0  0.12118120956E+02  0.13792557110E+02  0.13261834535E+02  0.22648614585E+02  0.51100000000E-03 0. -1.
        -11    1    3    3    0    0  0.14820497034E+02  0.10119699668E+02  0.10214350936E+02  0.20649174778E+02  0.51100000000E-03 0.  1.
         12    1    3    3    0    0 -0.29164141783E+00  0.17526493191E+01  0.22213759668E+01  0.28445290539E+01  0.00000000000E+00 0. -1.
</event>
<event>
 7    1  0.1466590E-008  0.4614232E+02  0.7816164E-02  0.1320468E+00
        -11   -1    0    0    0    0  0.00000000000E+00  0.00000000000E+00  0.45593999997E+02  0.45594000000E+02  0.51100000000E-03 0. -1.
         11   -1    0    0    0    0 -0.00000000000E+00 -0.00000000000E+00 -0.45593999997E+02  0.45594000000E+02  0.51100000000E-03 0.  1.
    9900012    2    1    2    0    0 -0.40182506392E+01  0.36828968915E+02 -0.25624094799E+02  0.46142317368E+02  0.99999964141E+01 0.  0.
         12    1    1    2    0    0  0.40182506392E+01 -0.36828968915E+02  0.25624094799E+02  0.45045682632E+02  0.00000000000E+00 0. -1.
         11    1    3    3    0    0 -0.24546342203E+01  0.47339196240E+01 -0.71063225649E+01  0.88845396515E+01  0.51100000000E-03 0. -1.
        -11    1    3    3    0    0  0.56699001488E+00  0.21591594390E+02 -0.11863827315E+02  0.24642825017E+02  0.51100000000E-03 0.  1.
         12    1    3    3    0    0 -0.21306064338E+01  0.10503454901E+02 -0.66539449184E+01  0.12614952699E+02  0.00000000000E+00 0. -1.
</event>
<event>
 7    1  0.1466590E-008  0.4614232E+02  0.7816164E-02  0.1320468E+00
        -11   -1    0    0    0    0  0.00000000000E+00  0.00000000000E+00  0.45593999997E+02  0.45594000000E+02  0.51100000000E-03 0.  1.
         11   -1    0    0    0    0 -0.00000000000E+00 -0.00000000000E+00 -0.45593999997E+02  0.45594000000E+02  0.51100000000E-03 0. -1.
    9900012    2    1    2    0    0  0.24155499834E+02  0.39911038904E+01  0.37811325691E+02  0.46142318376E+02  0.10000005606E+02 0.  0.
         12    1    1    2    0    0 -0.24155499834E+02 -0.39911038904E+01 -0.37811325691E+02  0.45045681624E+02  0.00000000000E+00 0. -1.
         11    1    3    3    0    0  0.70350555099E+01 -0.85334651326E+00  0.76827796390E+01  0.10452048103E+02  0.51100000000E-03 0. -1.
        -11    1    3    3    0    0  0.12513578446E+02  0.13064081547E+01  0.24794478127E+02  0.27804001396E+02  0.51100000000E-03 0.  1.
        -12    1    3    3    0    0  0.46068658780E+01  0.35380422490E+01  0.53340679247E+01  0.78862688769E+01  0.00000000000E+00 0.  1.
</event>
<event>
 7    1  0.1466590E-008  0.4614232E+02  0.7816164E-02  0.1320468E+00
        -11   -1    0    0    0    0  0.00000000000E+00  0.00000000000E+00  0.45593999997E+02  0.45594000000E+02  0.51100000000E-03 0.  1.
         11   -1    0    0    0    0 -0.00000000000E+00 -0.00000000000E+00 -0.45593999997E+02  0.45594000000E+02  0.51100000000E-03 0. -1.
    9900012    2    1    2    0    0 -0.21666894766E+02  0.17394517929E+02  0.35455464377E+02  0.46142317222E+02  0.99999950842E+01 0.  0.
         12    1    1    2    0    0  0.21666894766E+02 -0.17394517929E+02 -0.35455464377E+02  0.45045682778E+02  0.00000000000E+00 0. -1.
         11    1    3    3    0    0 -0.30840246469E+01  0.37177441843E+01  0.38840046031E+01  0.61982515164E+01  0.51100000000E-03 0. -1.
        -11    1    3    3    0    0 -0.48355775403E+01  0.13364975457E+01  0.12124296039E+02  0.13121264822E+02  0.51100000000E-03 0.  1.
        -12    1    3    3    0    0 -0.13747292578E+02  0.12340276199E+02  0.19447163735E+02  0.26822800883E+02  0.00000000000E+00 0.  1.
</event>
<event>
 7    1  0.1466590E-008  0.4614232E+02  0.7816164E-02  0.1320468E+00
        -11   -1    0    0    0    0  0.00000000000E+00  0.00000000000E+00  0.45593999997E+02  0.45594000000E+02  0.51100000000E-03 0.  1.
         11   -1    0    0    0    0 -0.00000000000E+00 -0.00000000000E+00 -0.45593999997E+02  0.45594000000E+02  0.51100000000E-03 0. -1.
    9900012    2    1    2    0    0 -0.39799293029E+02 -0.15711541732E+02  0.14081094445E+02  0.46142317743E+02  0.99999998381E+01 0.  0.
         12    1    1    2    0    0  0.39799293029E+02  0.15711541732E+02 -0.14081094445E+02  0.45045682257E+02  0.00000000000E+00 0. -1.
         11    1    3    3    0    0 -0.11312826919E+02 -0.19185090001E+01  0.83458052758E+00  0.11504662298E+02  0.51100000000E-03 0. -1.
        -11    1    3    3    0    0 -0.26875210078E+02 -0.12619531728E+02  0.11072131867E+02  0.31687877842E+02  0.51100000000E-03 0.  1.
        -12    1    3    3    0    0 -0.16112560321E+01 -0.11735010030E+01  0.21743820509E+01  0.29497776032E+01  0.00000000000E+00 0.  1.
</event>
<event>
 7    1  0.1466590E-008  0.4614232E+02  0.7816164E-02  0.1320468E+00
        -11   -1    0    0    0    0  0.00000000000E+00  0.00000000000E+00  0.45593999997E+02  0.45594000000E+02  0.51100000000E-03 0.  1.
         11   -1    0    0    0    0 -0.00000000000E+00 -0.00000000000E+00 -0.45593999997E+02  0.45594000000E+02  0.51100000000E-03 0. -1.
    9900012    2    1    2    0    0 -0.14223748479E+02 -0.40370032634E+02  0.14037765846E+02  0.46142318458E+02  0.10000006354E+02 0.  0.
         12    1    1    2    0    0  0.14223748479E+02  0.40370032634E+02 -0.14037765846E+02  0.45045681542E+02  0.00000000000E+00 0. -1.
         11    1    3    3    0    0 -0.97035928687E+01 -0.27963208161E+02  0.11738447377E+02  0.31841668805E+02  0.51100000000E-03 0. -1.
        -11    1    3    3    0    0  0.34265491841E+00 -0.54791062231E+01  0.19620010474E+01  0.58298769943E+01  0.51100000000E-03 0.  1.
         12    1    3    3    0    0 -0.48628105287E+01 -0.69277182496E+01  0.33731742102E+00  0.84707726582E+01  0.00000000000E+00 0. -1.
</event>
<event>
 7    1  0.1466590E-008  0.4614232E+02  0.7816164E-02  0.1320468E+00
        -11   -1    0    0    0    0  0.00000000000E+00  0.00000000000E+00  0.45593999997E+02  0.45594000000E+02  0.51100000000E-03 0.  1.
         11   -1    0    0    0    0 -0.00000000000E+00 -0.00000000000E+00 -0.45593999997E+02  0.45594000000E+02  0.51100000000E-03 0. -1.
    9900012    2    1    2    0    0  0.17048176182E+02  0.77887545133E+01  0.40961059847E+02  0.46142318389E+02  0.10000005727E+02 0.  0.
         12    1    1    2    0    0 -0.17048176182E+02 -0.77887545133E+01 -0.40961059847E+02  0.45045681611E+02  0.00000000000E+00 0. -1.
         11    1    3    3    0    0 -0.50553755338E+00 -0.17327882670E+00  0.54194348681E+00  0.76111547985E+00  0.51100000000E-03 0. -1.
        -11    1    3    3    0    0  0.14767634005E+02  0.90005375061E+01  0.30924031193E+02  0.35431460525E+02  0.51100000000E-03 0.  1.
         12    1    3    3    0    0  0.27860797305E+01 -0.10385041661E+01  0.94950851675E+01  0.99497423839E+01  0.00000000000E+00 0. -1.
</event>
<event>
 7    1  0.1466590E-008  0.4614232E+02  0.7816164E-02  0.1320468E+00
        -11   -1    0    0    0    0  0.00000000000E+00  0.00000000000E+00  0.45593999997E+02  0.45594000000E+02  0.51100000000E-03 0.  1.
         11   -1    0    0    0    0 -0.00000000000E+00 -0.00000000000E+00 -0.45593999997E+02  0.45594000000E+02  0.51100000000E-03 0. -1.
    9900012    2    1    2    0    0 -0.40324375144E+02  0.28501772867E+01  0.19872959917E+02  0.46142320105E+02  0.10000021374E+02 0.  0.
         12    1    1    2    0    0  0.40324375144E+02 -0.28501772867E+01 -0.19872959917E+02  0.45045679895E+02  0.00000000000E+00 0. -1.
         11    1    3    3    0    0 -0.33250902184E+01  0.23299572516E+01  0.27575619788E+01  0.49080621515E+01  0.51100000000E-03 0. -1.
        -11    1    3    3    0    0 -0.32219876109E+02  0.20220224995E+01  0.13207226668E+02  0.34880364504E+02  0.51100000000E-03 0.  1.
        -12    1    3    3    0    0 -0.47794088172E+01 -0.15018024644E+01  0.39081712705E+01  0.63538934492E+01  0.00000000000E+00 0.  1.
</event>
<event>
 7    1  0.1466590E-008  0.4614232E+02  0.7816164E-02  0.1320468E+00
        -11   -1    0    0    0    0  0.00000000000E+00  0.00000000000E+00  0.45593999997E+02  0.45594000000E+02  0.51100000000E-03 0. -1.
         11   -1    0    0    0    0 -0.00000000000E+00 -0.00000000000E+00 -0.45593999997E+02  0.45594000000E+02  0.51100000000E-03 0.  1.
    9900012    2    1    2    0    0  0.24482583050E+02  0.35951644636E+02 -0.11713060024E+02  0.46142318742E+02  0.10000008947E+02 0.  0.
         12    1    1    2    0    0 -0.24482583050E+02 -0.35951644636E+02  0.11713060024E+02  0.45045681258E+02  0.00000000000E+00 0. -1.
         11    1    3    3    0    0  0.17138061521E+02  0.19409088586E+02 -0.82341248960E+01  0.27170327298E+02  0.51100000000E-03 0. -1.
        -11    1    3    3    0    0  0.77556731282E+01  0.15401902394E+02 -0.25229906944E+01  0.17427981677E+02  0.51100000000E-03 0.  1.
         12    1    3    3    0    0 -0.41115159913E+00  0.11406536565E+01 -0.95594443317E+00  0.15440097671E+01  0.00000000000E+00 0. -1.
</event>
<event>
 7    1  0.1466590E-008  0.4614232E+02  0.7816164E-02  0.1320468E+00
        -11   -1    0    0    0    0  0.00000000000E+00  0.00000000000E+00  0.45593999997E+02  0.45594000000E+02  0.51100000000E-03 0.  1.
         11   -1    0    0    0    0 -0.00000000000E+00 -0.00000000000E+00 -0.45593999997E+02  0.45594000000E+02  0.51100000000E-03 0. -1.
    9900012    2    1    2    0    0 -0.42965464025E+02 -0.19257935945E+01  0.13393045810E+02  0.46142318121E+02  0.10000003279E+02 0.  0.
         12    1    1    2    0    0  0.42965464025E+02  0.19257935945E+01 -0.13393045810E+02  0.45045681879E+02  0.00000000000E+00 0. -1.
         11    1    3    3    0    0 -0.25187941998E+02  0.16618988171E+01  0.52508112881E+01  0.25783043832E+02  0.51100000000E-03 0.  1.
        -11    1    3    3    0    0 -0.56475516645E+01 -0.27512435196E+00  0.57428971889E+00  0.56833389970E+01  0.51100000000E-03 0. -1.
         12    1    3    3    0    0 -0.12129970363E+02 -0.33125680597E+01  0.75679448032E+01  0.14675935292E+02  0.00000000000E+00 0. -1.
</event>
<event>
 7    1  0.1466590E-008  0.4614232E+02  0.7816164E-02  0.1320468E+00
        -11   -1    0    0    0    0  0.00000000000E+00  0.00000000000E+00  0.45593999997E+02  0.45594000000E+02  0.51100000000E-03 0. -1.
         11   -1    0    0    0    0 -0.00000000000E+00 -0.00000000000E+00 -0.45593999997E+02  0.45594000000E+02  0.51100000000E-03 0.  1.
    9900012    2    1    2    0    0 -0.43450469790E+02  0.99743284633E+01 -0.64562300363E+01  0.46142318081E+02  0.10000002916E+02 0.  0.
         12    1    1    2    0    0  0.43450469790E+02 -0.99743284633E+01  0.64562300363E+01  0.45045681919E+02  0.00000000000E+00 0. -1.
         11    1    3    3    0    0 -0.84009454609E+01  0.35927336882E+01 -0.24789765327E+01  0.94672564612E+01  0.51100000000E-03 0. -1.
        -11    1    3    3    0    0 -0.21316647556E+02  0.64324113659E+01 -0.52706220630E+01  0.22881320683E+02  0.51100000000E-03 0.  1.
        -12    1    3    3    0    0 -0.13732876773E+02 -0.50816590786E-01  0.12933685595E+01  0.13793740936E+02  0.00000000000E+00 0.  1.
</event>
<event>
 7    1  0.1466590E-008  0.4614232E+02  0.7816164E-02  0.1320468E+00
        -11   -1    0    0    0    0  0.00000000000E+00  0.00000000000E+00  0.45593999997E+02  0.45594000000E+02  0.51100000000E-03 0. -1.
         11   -1    0    0    0    0 -0.00000000000E+00 -0.00000000000E+00 -0.45593999997E+02  0.45594000000E+02  0.51100000000E-03 0.  1.
    9900012    2    1    2    0    0  0.35147865265E+02  0.21946869130E+02  0.17665674641E+02  0.46142316990E+02  0.99999929726E+01 0.  0.
         12    1    1    2    0    0 -0.35147865265E+02 -0.21946869130E+02 -0.17665674641E+02  0.45045683010E+02  0.00000000000E+00 0. -1.
         11    1    3    3    0    0  0.12007592919E+02  0.83992502687E+01  0.10986312774E+02  0.18314714341E+02  0.51100000000E-03 0. -1.
        -11    1    3    3    0    0  0.70166722203E+01  0.35149039065E+01  0.52612319920E+00  0.78654335164E+01  0.51100000000E-03 0.  1.
         12    1    3    3    0    0  0.16123600126E+02  0.10032714955E+02  0.61532386677E+01  0.19962169133E+02  0.00000000000E+00 0. -1.
</event>
<event>
 7    1  0.1466590E-008  0.4614232E+02  0.7816164E-02  0.1320468E+00
        -11   -1    0    0    0    0  0.00000000000E+00  0.00000000000E+00  0.45593999997E+02  0.45594000000E+02  0.51100000000E-03 0. -1.
         11   -1    0    0    0    0 -0.00000000000E+00 -0.00000000000E+00 -0.45593999997E+02  0.45594000000E+02  0.51100000000E-03 0.  1.
    9900012    2    1    2    0    0 -0.27236841507E+02  0.99014925987E+00 -0.35864849852E+02  0.46142318900E+02  0.10000010386E+02 0.  0.
         12    1    1    2    0    0  0.27236841507E+02 -0.99014925987E+00  0.35864849852E+02  0.45045681100E+02  0.00000000000E+00 0. -1.
         11    1    3    3    0    0 -0.10243771045E+02 -0.12761948324E+01 -0.76737530217E+01  0.12862737040E+02  0.51100000000E-03 0.  1.
        -11    1    3    3    0    0 -0.12913569661E+02  0.35245650410E+01 -0.20506394951E+02  0.24488672366E+02  0.51100000000E-03 0. -1.
         12    1    3    3    0    0 -0.40795008008E+01 -0.12582209488E+01 -0.76847018802E+01  0.87909094938E+01  0.00000000000E+00 0. -1.
</event>
<event>
 7    1  0.1466590E-008  0.4614231E+02  0.7816164E-02  0.1320468E+00
        -11   -1    0    0    0    0  0.00000000000E+00  0.00000000000E+00  0.45593999997E+02  0.45594000000E+02  0.51100000000E-03 0.  1.
         11   -1    0    0    0    0 -0.00000000000E+00 -0.00000000000E+00 -0.45593999997E+02  0.45594000000E+02  0.51100000000E-03 0. -1.
    9900012    2    1    2    0    0  0.38509730412E+02 -0.12369674592E+02  0.19826889842E+02  0.46142314894E+02  0.99999738515E+01 0.  0.
         12    1    1    2    0    0 -0.38509730412E+02  0.12369674592E+02 -0.19826889842E+02  0.45045685106E+02  0.00000000000E+00 0. -1.
         11    1    3    3    0    0  0.28243858827E+01  0.18694287676E-01 -0.71641649464E+00  0.29138905171E+01  0.51100000000E-03 0. -1.
        -11    1    3    3    0    0  0.12038550832E+02 -0.56227981449E+01  0.90764598838E+01  0.16091136983E+02  0.51100000000E-03 0.  1.
        -12    1    3    3    0    0  0.23646793697E+02 -0.67655707351E+01  0.11466846453E+02  0.27137287394E+02  0.00000000000E+00 0.  1.
</event>
<event>
 7    1  0.1466590E-008  0.4614232E+02  0.7816164E-02  0.1320468E+00
        -11   -1    0    0    0    0  0.00000000000E+00  0.00000000000E+00  0.45593999997E+02  0.45594000000E+02  0.51100000000E-03 0. -1.
         11   -1    0    0    0    0 -0.00000000000E+00 -0.00000000000E+00 -0.45593999997E+02  0.45594000000E+02  0.51100000000E-03 0.  1.
    9900012    2    1    2    0    0  0.12742634553E+02  0.16248749752E+02 -0.40033946485E+02  0.46142317909E+02  0.10000001352E+02 0.  0.
         12    1    1    2    0    0 -0.12742634553E+02 -0.16248749752E+02  0.40033946485E+02  0.45045682091E+02  0.00000000000E+00 0. -1.
         11    1    3    3    0    0 -0.65588661822E+00  0.32936348020E+00 -0.48684167736E+01  0.49234286529E+01  0.51100000000E-03 0. -1.
        -11    1    3    3    0    0  0.60857718414E+01  0.55818797285E+01 -0.94150687457E+01  0.12523478748E+02  0.51100000000E-03 0.  1.
        -12    1    3    3    0    0  0.73127493303E+01  0.10337506544E+02 -0.25750460965E+02  0.28695410508E+02  0.00000000000E+00 0.  1.
</event>
<event>
 7    1  0.1466590E-008  0.4614232E+02  0.7816164E-02  0.1320468E+00
        -11   -1    0    0    0    0  0.00000000000E+00  0.00000000000E+00  0.45593999997E+02  0.45594000000E+02  0.51100000000E-03 0. -1.
         11   -1    0    0    0    0 -0.00000000000E+00 -0.00000000000E+00 -0.45593999997E+02  0.45594000000E+02  0.51100000000E-03 0.  1.
    9900012    2    1    2    0    0 -0.23871010809E+01  0.44553507079E+02  0.61967955833E+01  0.46142317409E+02  0.99999967856E+01 0.  0.
         12    1    1    2    0    0  0.23871010809E+01 -0.44553507079E+02 -0.61967955833E+01  0.45045682591E+02  0.00000000000E+00 0. -1.
         11    1    3    3    0    0 -0.37170235206E+01  0.24759367675E+02  0.24580366015E+01  0.25157195705E+02  0.51100000000E-03 0.  1.
        -11    1    3    3    0    0  0.43953145898E+00  0.35625009872E+01 -0.15222504622E+01  0.38989547213E+01  0.51100000000E-03 0. -1.
         12    1    3    3    0    0  0.89039098070E+00  0.16231638416E+02  0.52610094440E+01  0.17086166982E+02  0.00000000000E+00 0. -1.
</event>
<event>
 7    1  0.1466590E-008  0.4614232E+02  0.7816164E-02  0.1320468E+00
        -11   -1    0    0    0    0  0.00000000000E+00  0.00000000000E+00  0.45593999997E+02  0.45594000000E+02  0.51100000000E-03 0.  1.
         11   -1    0    0    0    0 -0.00000000000E+00 -0.00000000000E+00 -0.45593999997E+02  0.45594000000E+02  0.51100000000E-03 0. -1.
    9900012    2    1    2    0    0  0.13527936322E+02  0.65790624794E+01  0.42459678961E+02  0.46142318057E+02  0.10000002697E+02 0.  0.
         12    1    1    2    0    0 -0.13527936322E+02 -0.65790624794E+01 -0.42459678961E+02  0.45045681943E+02  0.00000000000E+00 0. -1.
         11    1    3    3    0    0  0.12607149153E+02  0.27671346345E+01  0.25431449034E+02  0.28519394175E+02  0.51100000000E-03 0. -1.
        -11    1    3    3    0    0  0.76079845091E+00  0.20598006106E+00  0.50996388716E+01  0.51601898173E+01  0.51100000000E-03 0.  1.
         12    1    3    3    0    0  0.15998871838E+00  0.36059477839E+01  0.11928591055E+02  0.12462734065E+02  0.00000000000E+00 0. -1.
</event>
<event>
 7    1  0.1466590E-008  0.4614232E+02  0.7816164E-02  0.1320468E+00
        -11   -1    0    0    0    0  0.00000000000E+00  0.00000000000E+00  0.45593999997E+02  0.45594000000E+02  0.51100000000E-03 0.  1.
         11   -1    0    0    0    0 -0.00000000000E+00 -0.00000000000E+00 -0.45593999997E+02  0.45594000000E+02  0.51100000000E-03 0. -1.
    9900012    2    1    2    0    0  0.36668836122E+02  0.22582605309E+02  0.13211201845E+02  0.46142318084E+02  0.10000002946E+02 0.  0.
         12    1    1    2    0    0 -0.36668836122E+02 -0.22582605309E+02 -0.13211201845E+02  0.45045681916E+02  0.00000000000E+00 0. -1.
         11    1    3    3    0    0  0.10554024496E+02  0.31775928354E+01  0.43718414503E+01  0.11857382814E+02  0.51100000000E-03 0. -1.
        -11    1    3    3    0    0  0.16513063353E+02  0.15838687075E+02  0.59282874238E+01  0.23636621197E+02  0.51100000000E-03 0.  1.
        -12    1    3    3    0    0  0.96017482733E+01  0.35663253986E+01  0.29110729708E+01  0.10648314073E+02  0.00000000000E+00 0.  1.
</event>
<event>
 7    1  0.1466590E-008  0.4614232E+02  0.7816164E-02  0.1320468E+00
        -11   -1    0    0    0    0  0.00000000000E+00  0.00000000000E+00  0.45593999997E+02  0.45594000000E+02  0.51100000000E-03 0.  1.
         11   -1    0    0    0    0 -0.00000000000E+00 -0.00000000000E+00 -0.45593999997E+02  0.45594000000E+02  0.51100000000E-03 0. -1.
    9900012    2    1    2    0    0 -0.21250441444E+02 -0.47186727224E+01  0.39436865210E+02  0.46142317949E+02  0.10000001717E+02 0.  0.
         12    1    1    2    0    0  0.21250441444E+02  0.47186727224E+01 -0.39436865210E+02  0.45045682051E+02  0.00000000000E+00 0. -1.
         11    1    3    3    0    0 -0.14482603723E+01 -0.30173893021E+01  0.44144739531E+01  0.55398264277E+01  0.51100000000E-03 0. -1.
        -11    1    3    3    0    0 -0.15875782583E+02 -0.26979255711E+01  0.30771940535E+02  0.34730845074E+02  0.51100000000E-03 0.  1.
        -12    1    3    3    0    0 -0.39263984885E+01  0.99664215072E+00  0.42504507220E+01  0.58716464477E+01  0.00000000000E+00 0.  1.
</event>
<event>
 7    1  0.1466590E-008  0.4614232E+02  0.7816164E-02  0.1320468E+00
        -11   -1    0    0    0    0  0.00000000000E+00  0.00000000000E+00  0.45593999997E+02  0.45594000000E+02  0.51100000000E-03 0.  1.
         11   -1    0    0    0    0 -0.00000000000E+00 -0.00000000000E+00 -0.45593999997E+02  0.45594000000E+02  0.51100000000E-03 0. -1.
    9900012    2    1    2    0    0 -0.13778504110E+02  0.29755228016E+02  0.30885150874E+02  0.46142319693E+02  0.10000017613E+02 0.  0.
         12    1    1    2    0    0  0.13778504110E+02 -0.29755228016E+02 -0.30885150874E+02  0.45045680307E+02  0.00000000000E+00 0. -1.
         11    1    3    3    0    0 -0.24983567682E+01  0.19279803691E+01  0.28663976463E+00  0.31687627650E+01  0.51100000000E-03 0. -1.
        -11    1    3    3    0    0 -0.51739708419E+01  0.16608762969E+02  0.18036063174E+02  0.25058343056E+02  0.51100000000E-03 0.  1.
         12    1    3    3    0    0 -0.61061765002E+01  0.11218484678E+02  0.12562447935E+02  0.17915213871E+02  0.00000000000E+00 0. -1.
</event>
<event>
 7    1  0.1466590E-008  0.4614232E+02  0.7816164E-02  0.1320468E+00
        -11   -1    0    0    0    0  0.00000000000E+00  0.00000000000E+00  0.45593999997E+02  0.45594000000E+02  0.51100000000E-03 0.  1.
         11   -1    0    0    0    0 -0.00000000000E+00 -0.00000000000E+00 -0.45593999997E+02  0.45594000000E+02  0.51100000000E-03 0. -1.
    9900012    2    1    2    0    0  0.11694126630E+02 -0.43431659931E+02 -0.24600245251E+01  0.46142318713E+02  0.10000008676E+02 0.  0.
         12    1    1    2    0    0 -0.11694126630E+02  0.43431659931E+02  0.24600245251E+01  0.45045681287E+02  0.00000000000E+00 0. -1.
         11    1    3    3    0    0  0.83341072020E+01 -0.28160024778E+02  0.29092854047E+01  0.29511155182E+02  0.51100000000E-03 0. -1.
        -11    1    3    3    0    0  0.16919081248E+01 -0.49968113720E+01 -0.11510817940E+01  0.53995987395E+01  0.51100000000E-03 0.  1.
         12    1    3    3    0    0  0.16681113027E+01 -0.10274823781E+02 -0.42182281358E+01  0.11231564791E+02  0.00000000000E+00 0. -1.
</event>
<event>
 7    1  0.1466590E-008  0.4614232E+02  0.7816164E-02  0.1320468E+00
        -11   -1    0    0    0    0  0.00000000000E+00  0.00000000000E+00  0.45593999997E+02  0.45594000000E+02  0.51100000000E-03 0. -1.
         11   -1    0    0    0    0 -0.00000000000E+00 -0.00000000000E+00 -0.45593999997E+02  0.45594000000E+02  0.51100000000E-03 0.  1.
    9900012    2    1    2    0    0 -0.35697968402E+02  0.23897498974E+02 -0.13552786722E+02  0.46142318374E+02  0.10000005589E+02 0.  0.
         12    1    1    2    0    0  0.35697968402E+02 -0.23897498974E+02  0.13552786722E+02  0.45045681626E+02  0.00000000000E+00 0. -1.
         11    1    3    3    0    0 -0.47488587969E+01  0.53840673935E+01 -0.35305196184E+01  0.80002756582E+01  0.51100000000E-03 0.  1.
        -11    1    3    3    0    0 -0.15814119259E+02  0.80760775089E+01 -0.13324634635E+01  0.17806876621E+02  0.51100000000E-03 0. -1.
         12    1    3    3    0    0 -0.15134990346E+02  0.10437354072E+02 -0.86898036397E+01  0.20335166094E+02  0.00000000000E+00 0. -1.
</event>
<event>
 7    1  0.1466590E-008  0.4614232E+02  0.7816164E-02  0.1320468E+00
        -11   -1    0    0    0    0  0.00000000000E+00  0.00000000000E+00  0.45593999997E+02  0.45594000000E+02  0.51100000000E-03 0.  1.
         11   -1    0    0    0    0 -0.00000000000E+00 -0.00000000000E+00 -0.45593999997E+02  0.45594000000E+02  0.51100000000E-03 0. -1.
    9900012    2    1    2    0    0  0.64460780347E+01  0.35055414173E+02  0.27544137773E+02  0.46142317515E+02  0.99999977531E+01 0.  0.
         12    1    1    2    0    0 -0.64460780347E+01 -0.35055414173E+02 -0.27544137773E+02  0.45045682485E+02  0.00000000000E+00 0. -1.
         11    1    3    3    0    0  0.59979363157E+01  0.10965674760E+02  0.73565544228E+01  0.14503108503E+02  0.51100000000E-03 0. -1.
        -11    1    3    3    0    0  0.12289811264E+01  0.21880087835E+02  0.19036547342E+02  0.29028240960E+02  0.51100000000E-03 0.  1.
         12    1    3    3    0    0 -0.78083940741E+00  0.22096515781E+01  0.11510360086E+01  0.26109680523E+01  0.00000000000E+00 0. -1.
</event>
<event>
 7    1  0.1466590E-008  0.4614232E+02  0.7816164E-02  0.1320468E+00
        -11   -1    0    0    0    0  0.00000000000E+00  0.00000000000E+00  0.45593999997E+02  0.45594000000E+02  0.51100000000E-03 0.  1.
         11   -1    0    0    0    0 -0.00000000000E+00 -0.00000000000E+00 -0.45593999997E+02  0.45594000000E+02  0.51100000000E-03 0. -1.
    9900012    2    1    2    0    0  0.17406921303E+00  0.71969587743E+01  0.44466691878E+02  0.46142320937E+02  0.10000028963E+02 0.  0.
         12    1    1    2    0    0 -0.17406921303E+00 -0.71969587743E+01 -0.44466691878E+02  0.45045679063E+02  0.00000000000E+00 0. -1.
         11    1    3    3    0    0  0.17338576265E+01 -0.12683220001E+00  0.29998962856E+01  0.34672361704E+01  0.51100000000E-03 0.  1.
        -11    1    3    3    0    0 -0.39713950927E-01  0.42613540090E+01  0.82768501989E+01  0.93095093676E+01  0.51100000000E-03 0. -1.
        -12    1    3    3    0    0 -0.15200744625E+01  0.30624369653E+01  0.33189945393E+02  0.33365575399E+02  0.00000000000E+00 0.  1.
</event>
<event>
 7    1  0.1466590E-008  0.4614232E+02  0.7816164E-02  0.1320468E+00
        -11   -1    0    0    0    0  0.00000000000E+00  0.00000000000E+00  0.45593999997E+02  0.45594000000E+02  0.51100000000E-03 0.  1.
         11   -1    0    0    0    0 -0.00000000000E+00 -0.00000000000E+00 -0.45593999997E+02  0.45594000000E+02  0.51100000000E-03 0. -1.
    9900012    2    1    2    0    0  0.14225876528E+02  0.42476031132E+02 -0.47460309687E+01  0.46142316592E+02  0.99999893396E+01 0.  0.
         12    1    1    2    0    0 -0.14225876528E+02 -0.42476031132E+02  0.47460309687E+01  0.45045683408E+02  0.00000000000E+00 0. -1.
         11    1    3    3    0    0 -0.87472047993E+00  0.52530213710E+01  0.11791381472E+01  0.54543318998E+01  0.51100000000E-03 0. -1.
        -11    1    3    3    0    0  0.88354549262E+01  0.20340024884E+02 -0.20750301124E+01  0.22273024632E+02  0.51100000000E-03 0.  1.
         12    1    3    3    0    0  0.62651420820E+01  0.16882984877E+02 -0.38501390036E+01  0.18414960060E+02  0.00000000000E+00 0. -1.
</event>
<event>
 7    1  0.1466590E-008  0.4614232E+02  0.7816164E-02  0.1320468E+00
        -11   -1    0    0    0    0  0.00000000000E+00  0.00000000000E+00  0.45593999997E+02  0.45594000000E+02  0.51100000000E-03 0. -1.
         11   -1    0    0    0    0 -0.00000000000E+00 -0.00000000000E+00 -0.45593999997E+02  0.45594000000E+02  0.51100000000E-03 0.  1.
    9900012    2    1    2    0    0  0.17572488130E+02  0.28915661112E+02  0.29735596940E+02  0.46142317387E+02  0.99999965931E+01 0.  0.
         12    1    1    2    0    0 -0.17572488130E+02 -0.28915661112E+02 -0.29735596940E+02  0.45045682613E+02  0.00000000000E+00 0. -1.
         11    1    3    3    0    0  0.66353435671E+01  0.78874262785E+01  0.13866643740E+02  0.17277820650E+02  0.51100000000E-03 0. -1.
        -11    1    3    3    0    0  0.49653859725E+01  0.10066826412E+02  0.49016479082E+01  0.12248355169E+02  0.51100000000E-03 0.  1.
        -12    1    3    3    0    0  0.59717585907E+01  0.10961408421E+02  0.10967305292E+02  0.16616141568E+02  0.00000000000E+00 0.  1.
</event>
<event>
 7    1  0.1466590E-008  0.4614232E+02  0.7816164E-02  0.1320468E+00
        -11   -1    0    0    0    0  0.00000000000E+00  0.00000000000E+00  0.45593999997E+02  0.45594000000E+02  0.51100000000E-03 0. -1.
         11   -1    0    0    0    0 -0.00000000000E+00 -0.00000000000E+00 -0.45593999997E+02  0.45594000000E+02  0.51100000000E-03 0.  1.
    9900012    2    1    2    0    0 -0.91972757126E+01 -0.43949372617E+02 -0.36022513737E+01  0.46142318199E+02  0.10000003996E+02 0.  0.
         12    1    1    2    0    0  0.91972757126E+01  0.43949372617E+02  0.36022513737E+01  0.45045681801E+02  0.00000000000E+00 0. -1.
         11    1    3    3    0    0 -0.39113836083E+00  0.43259595367E+00 -0.33676333361E+00  0.67345250792E+00  0.51100000000E-03 0. -1.
        -11    1    3    3    0    0 -0.21019797543E+01 -0.11775663470E+02 -0.22067285873E+01  0.12163643384E+02  0.51100000000E-03 0.  1.
         12    1    3    3    0    0 -0.67041575974E+01 -0.32606305100E+02 -0.10587594528E+01  0.33305222308E+02  0.00000000000E+00 0. -1.
</event>
<event>
 7    1  0.1466590E-008  0.4614232E+02  0.7816164E-02  0.1320468E+00
        -11   -1    0    0    0    0  0.00000000000E+00  0.00000000000E+00  0.45593999997E+02  0.45594000000E+02  0.51100000000E-03 0. -1.
         11   -1    0    0    0    0 -0.00000000000E+00 -0.00000000000E+00 -0.45593999997E+02  0.45594000000E+02  0.51100000000E-03 0.  1.
    9900012    2    1    2    0    0  0.34080310771E+02 -0.22739692329E+02  0.18723041645E+02  0.46142317878E+02  0.10000001063E+02 0.  0.
         12    1    1    2    0    0 -0.34080310771E+02  0.22739692329E+02 -0.18723041645E+02  0.45045682122E+02  0.00000000000E+00 0. -1.
         11    1    3    3    0    0  0.17064961328E+02 -0.13463825303E+02  0.53128178421E+01  0.22376629116E+02  0.51100000000E-03 0. -1.
        -11    1    3    3    0    0  0.96522395456E+01 -0.52992235088E+01  0.57567395150E+01  0.12425278594E+02  0.51100000000E-03 0.  1.
         12    1    3    3    0    0  0.73631098968E+01 -0.39766435172E+01  0.76534842876E+01  0.11340410167E+02  0.00000000000E+00 0. -1.
</event>
<event>
 7    1  0.1466590E-008  0.4614232E+02  0.7816164E-02  0.1320468E+00
        -11   -1    0    0    0    0  0.00000000000E+00  0.00000000000E+00  0.45593999997E+02  0.45594000000E+02  0.51100000000E-03 0. -1.
         11   -1    0    0    0    0 -0.00000000000E+00 -0.00000000000E+00 -0.45593999997E+02  0.45594000000E+02  0.51100000000E-03 0.  1.
    9900012    2    1    2    0    0  0.43880976420E+02 -0.95437538891E+01 -0.35341390601E+01  0.46142317979E+02  0.10000001987E+02 0.  0.
         12    1    1    2    0    0 -0.43880976420E+02  0.95437538891E+01  0.35341390601E+01  0.45045682021E+02  0.00000000000E+00 0. -1.
         11    1    3    3    0    0  0.32296244779E+02 -0.93339032877E+01 -0.38612552847E+01  0.33839008112E+02  0.51100000000E-03 0. -1.
        -11    1    3    3    0    0  0.64793375305E+01  0.78441000291E+00 -0.16614952048E+01  0.67348110934E+01  0.51100000000E-03 0.  1.
         12    1    3    3    0    0  0.51053941104E+01 -0.99426060431E+00  0.19886114294E+01  0.55684987734E+01  0.00000000000E+00 0. -1.
</event>
<event>
 7    1  0.1466590E-008  0.4614232E+02  0.7816164E-02  0.1320468E+00
        -11   -1    0    0    0    0  0.00000000000E+00  0.00000000000E+00  0.45593999997E+02  0.45594000000E+02  0.51100000000E-03 0. -1.
         11   -1    0    0    0    0 -0.00000000000E+00 -0.00000000000E+00 -0.45593999997E+02  0.45594000000E+02  0.51100000000E-03 0.  1.
    9900012    2    1    2    0    0  0.43734340847E+02  0.17274258978E+01 -0.10650671417E+02  0.46142319061E+02  0.10000011858E+02 0.  0.
         12    1    1    2    0    0 -0.43734340847E+02 -0.17274258978E+01  0.10650671417E+02  0.45045680939E+02  0.00000000000E+00 0. -1.
         11    1    3    3    0    0  0.24517408989E+02 -0.30855845040E+01 -0.85347213221E+01  0.26143175851E+02  0.51100000000E-03 0. -1.
        -11    1    3    3    0    0  0.13101633533E+02  0.27502079895E+01 -0.20622282950E+01  0.13545081433E+02  0.51100000000E-03 0.  1.
         12    1    3    3    0    0  0.61152983251E+01  0.20628024123E+01 -0.53721800015E-01  0.64540617776E+01  0.00000000000E+00 0. -1.
</event>
<event>
 7    1  0.1466590E-008  0.4614232E+02  0.7816164E-02  0.1320468E+00
        -11   -1    0    0    0    0  0.00000000000E+00  0.00000000000E+00  0.45593999997E+02  0.45594000000E+02  0.51100000000E-03 0.  1.
         11   -1    0    0    0    0 -0.00000000000E+00 -0.00000000000E+00 -0.45593999997E+02  0.45594000000E+02  0.51100000000E-03 0. -1.
    9900012    2    1    2    0    0  0.39546340802E+02 -0.12786626156E+02  0.17369588592E+02  0.46142317775E+02  0.10000000128E+02 0.  0.
         12    1    1    2    0    0 -0.39546340802E+02  0.12786626156E+02 -0.17369588592E+02  0.45045682225E+02  0.00000000000E+00 0. -1.
         11    1    3    3    0    0  0.32548954420E+01 -0.96685414138E+00 -0.76777003976E+00  0.34811811737E+01  0.51100000000E-03 0. -1.
        -11    1    3    3    0    0  0.25325456454E+02 -0.10090095075E+02  0.15042570601E+02  0.31136276171E+02  0.51100000000E-03 0.  1.
        -12    1    3    3    0    0  0.10965988905E+02 -0.17296769392E+01  0.30947880305E+01  0.11524860430E+02  0.00000000000E+00 0.  1.
</event>
<event>
 7    1  0.1466590E-008  0.4614232E+02  0.7816164E-02  0.1320468E+00
        -11   -1    0    0    0    0  0.00000000000E+00  0.00000000000E+00  0.45593999997E+02  0.45594000000E+02  0.51100000000E-03 0.  1.
         11   -1    0    0    0    0 -0.00000000000E+00 -0.00000000000E+00 -0.45593999997E+02  0.45594000000E+02  0.51100000000E-03 0. -1.
    9900012    2    1    2    0    0 -0.17513690909E+00 -0.44699397536E+02 -0.55719445176E+01  0.46142318978E+02  0.10000011099E+02 0.  0.
         12    1    1    2    0    0  0.17513690909E+00  0.44699397536E+02  0.55719445176E+01  0.45045681022E+02  0.00000000000E+00 0. -1.
         11    1    3    3    0    0 -0.30998197624E+01 -0.62020926825E+01  0.40601730749E+00  0.69454795743E+01  0.51100000000E-03 0. -1.
        -11    1    3    3    0    0  0.20502878410E+01 -0.16491955417E+02 -0.12028648173E+01  0.16662387516E+02  0.51100000000E-03 0.  1.
        -12    1    3    3    0    0  0.87439501235E+00 -0.22005349436E+02 -0.47750970077E+01  0.22534451888E+02  0.00000000000E+00 0.  1.
</event>
<event>
 7    1  0.1466590E-008  0.4614232E+02  0.7816164E-02  0.1320468E+00
        -11   -1    0    0    0    0  0.00000000000E+00  0.00000000000E+00  0.45593999997E+02  0.45594000000E+02  0.51100000000E-03 0.  1.
         11   -1    0    0    0    0 -0.00000000000E+00 -0.00000000000E+00 -0.45593999997E+02  0.45594000000E+02  0.51100000000E-03 0. -1.
    9900012    2    1    2    0    0  0.39637053518E+02  0.65571829393E+01  0.20372060179E+02  0.46142317681E+02  0.99999992664E+01 0.  0.
         12    1    1    2    0    0 -0.39637053518E+02 -0.65571829393E+01 -0.20372060179E+02  0.45045682319E+02  0.00000000000E+00 0. -1.
         11    1    3    3    0    0  0.11342742902E+01 -0.10520540761E+01  0.14146717101E+01  0.20963521300E+01  0.51100000000E-03 0. -1.
        -11    1    3    3    0    0  0.14724298420E+02  0.60176744107E+01  0.69166359143E+01  0.17345236289E+02  0.51100000000E-03 0.  1.
        -12    1    3    3    0    0  0.23778480807E+02  0.15915626048E+01  0.12040752555E+02  0.26700729262E+02  0.00000000000E+00 0.  1.
</event>
<event>
 7    1  0.1466590E-008  0.4614232E+02  0.7816164E-02  0.1320468E+00
        -11   -1    0    0    0    0  0.00000000000E+00  0.00000000000E+00  0.45593999997E+02  0.45594000000E+02  0.51100000000E-03 0.  1.
         11   -1    0    0    0    0 -0.00000000000E+00 -0.00000000000E+00 -0.45593999997E+02  0.45594000000E+02  0.51100000000E-03 0. -1.
    9900012    2    1    2    0    0 -0.14405231785E+01  0.44358361741E+02 -0.77054582252E+01  0.46142318189E+02  0.10000003904E+02 0.  0.
         12    1    1    2    0    0  0.14405231785E+01 -0.44358361741E+02  0.77054582252E+01  0.45045681811E+02  0.00000000000E+00 0. -1.
         11    1    3    3    0    0 -0.52045596831E+01  0.30684984769E+02 -0.60964525364E+01  0.31714704248E+02  0.51100000000E-03 0. -1.
        -11    1    3    3    0    0  0.14027307407E+01  0.31798086788E+01  0.35594053534E+00  0.34936414657E+01  0.51100000000E-03 0.  1.
         12    1    3    3    0    0  0.23613057639E+01  0.10493568293E+02 -0.19649462241E+01  0.10933972476E+02  0.00000000000E+00 0. -1.
</event>
<event>
 7    1  0.1466590E-008  0.4614232E+02  0.7816164E-02  0.1320468E+00
        -11   -1    0    0    0    0  0.00000000000E+00  0.00000000000E+00  0.45593999997E+02  0.45594000000E+02  0.51100000000E-03 0. -1.
         11   -1    0    0    0    0 -0.00000000000E+00 -0.00000000000E+00 -0.45593999997E+02  0.45594000000E+02  0.51100000000E-03 0.  1.
    9900012    2    1    2    0    0 -0.14510164811E+02  0.26827899079E+02 -0.33148641611E+02  0.46142317716E+02  0.99999995843E+01 0.  0.
         12    1    1    2    0    0  0.14510164811E+02 -0.26827899079E+02  0.33148641611E+02  0.45045682284E+02  0.00000000000E+00 0. -1.
         11    1    3    3    0    0 -0.35504161255E+00  0.51184493074E+01 -0.10312164228E+02  0.11518042767E+02  0.51100000000E-03 0. -1.
        -11    1    3    3    0    0 -0.90862512941E+01  0.15883637983E+02 -0.16351645330E+02  0.24540297949E+02  0.51100000000E-03 0.  1.
         12    1    3    3    0    0 -0.50688719042E+01  0.58258117887E+01 -0.64848320530E+01  0.10083977000E+02  0.00000000000E+00 0. -1.
</event>
<event>
 7    1  0.1466590E-008  0.4614231E+02  0.7816164E-02  0.1320468E+00
        -11   -1    0    0    0    0  0.00000000000E+00  0.00000000000E+00  0.45593999997E+02  0.45594000000E+02  0.51100000000E-03 0.  1.
         11   -1    0    0    0    0 -0.00000000000E+00 -0.00000000000E+00 -0.45593999997E+02  0.45594000000E+02  0.51100000000E-03 0. -1.
    9900012    2    1    2    0    0 -0.38614632654E+02  0.63757970685E+01  0.22301871762E+02  0.46142310669E+02  0.99999353262E+01 0.  0.
         12    1    1    2    0    0  0.38614632654E+02 -0.63757970685E+01 -0.22301871762E+02  0.45045689331E+02  0.00000000000E+00 0. -1.
         11    1    3    3    0    0 -0.11610497954E+02  0.35373937988E+01  0.38246808824E+01  0.12725761342E+02  0.51100000000E-03 0. -1.
        -11    1    3    3    0    0 -0.19735232593E+02  0.40999892067E+01  0.15638086486E+02  0.25511547703E+02  0.51100000000E-03 0.  1.
         12    1    3    3    0    0 -0.72689021067E+01 -0.12615859369E+01  0.28391043939E+01  0.79050016238E+01  0.00000000000E+00 0. -1.
</event>
<event>
 7    1  0.1466590E-008  0.4614232E+02  0.7816164E-02  0.1320468E+00
        -11   -1    0    0    0    0  0.00000000000E+00  0.00000000000E+00  0.45593999997E+02  0.45594000000E+02  0.51100000000E-03 0. -1.
         11   -1    0    0    0    0 -0.00000000000E+00 -0.00000000000E+00 -0.45593999997E+02  0.45594000000E+02  0.51100000000E-03 0.  1.
    9900012    2    1    2    0    0  0.43596426990E+02 -0.57144227541E+01 -0.97882745548E+01  0.46142318826E+02  0.10000009711E+02 0.  0.
         12    1    1    2    0    0 -0.43596426990E+02  0.57144227541E+01  0.97882745548E+01  0.45045681174E+02  0.00000000000E+00 0. -1.
         11    1    3    3    0    0  0.11337487241E+01  0.49803602461E+00 -0.12872849734E+00  0.12449888908E+01  0.51100000000E-03 0. -1.
        -11    1    3    3    0    0  0.30415846468E+02 -0.48773764408E+01 -0.10985024042E+02  0.32704483956E+02  0.51100000000E-03 0.  1.
        -12    1    3    3    0    0  0.12046831797E+02 -0.13350823379E+01  0.13254779846E+01  0.12192845980E+02  0.00000000000E+00 0.  1.
</event>
<event>
 7    1  0.1466590E-008  0.4614232E+02  0.7816164E-02  0.1320468E+00
        -11   -1    0    0    0    0  0.00000000000E+00  0.00000000000E+00  0.45593999997E+02  0.45594000000E+02  0.51100000000E-03 0.  1.
         11   -1    0    0    0    0 -0.00000000000E+00 -0.00000000000E+00 -0.45593999997E+02  0.45594000000E+02  0.51100000000E-03 0. -1.
    9900012    2    1    2    0    0  0.25741910937E+02  0.15653676373E+02  0.33487758726E+02  0.46142317108E+02  0.99999940456E+01 0.  0.
         12    1    1    2    0    0 -0.25741910937E+02 -0.15653676373E+02 -0.33487758726E+02  0.45045682892E+02  0.00000000000E+00 0. -1.
         11    1    3    3    0    0  0.26792800869E+01 -0.49364190380E+00  0.62319596170E+01  0.68014369836E+01  0.51100000000E-03 0.  1.
        -11    1    3    3    0    0  0.83701058516E+01  0.54253732971E+01  0.74454647484E+01  0.12447019441E+02  0.51100000000E-03 0. -1.
        -12    1    3    3    0    0  0.14692524999E+02  0.10721944980E+02  0.19810334361E+02  0.26893860684E+02  0.00000000000E+00 0.  1.
</event>
<event>
 7    1  0.1466590E-008  0.4614232E+02  0.7816164E-02  0.1320468E+00
        -11   -1    0    0    0    0  0.00000000000E+00  0.00000000000E+00  0.45593999997E+02  0.45594000000E+02  0.51100000000E-03 0.  1.
         11   -1    0    0    0    0 -0.00000000000E+00 -0.00000000000E+00 -0.45593999997E+02  0.45594000000E+02  0.51100000000E-03 0. -1.
    9900012    2    1    2    0    0 -0.38698344378E+02 -0.22610099842E+02  0.45094254384E+01  0.46142318850E+02  0.10000009933E+02 0.  0.
         12    1    1    2    0    0  0.38698344378E+02  0.22610099842E+02 -0.45094254384E+01  0.45045681150E+02  0.00000000000E+00 0. -1.
         11    1    3    3    0    0 -0.12334914686E+01 -0.42160541155E-01  0.69868721138E+00  0.14182534311E+01  0.51100000000E-03 0. -1.
        -11    1    3    3    0    0 -0.13995770373E+02 -0.12138325841E+02  0.43745833382E+01  0.19035690747E+02  0.51100000000E-03 0.  1.
        -12    1    3    3    0    0 -0.23469082536E+02 -0.10429613459E+02 -0.56384511121E+00  0.25688374672E+02  0.00000000000E+00 0.  1.
</event>
<event>
 7    1  0.1466590E-008  0.4614232E+02  0.7816164E-02  0.1320468E+00
        -11   -1    0    0    0    0  0.00000000000E+00  0.00000000000E+00  0.45593999997E+02  0.45594000000E+02  0.51100000000E-03 0.  1.
         11   -1    0    0    0    0 -0.00000000000E+00 -0.00000000000E+00 -0.45593999997E+02  0.45594000000E+02  0.51100000000E-03 0. -1.
    9900012    2    1    2    0    0 -0.12590120804E+02 -0.29176551178E+02  0.31926967791E+02  0.46142317046E+02  0.99999934759E+01 0.  0.
         12    1    1    2    0    0  0.12590120804E+02  0.29176551178E+02 -0.31926967791E+02  0.45045682954E+02  0.00000000000E+00 0. -1.
         11    1    3    3    0    0 -0.38139104551E+01 -0.13440252713E+02  0.10804304924E+02  0.17661237531E+02  0.51100000000E-03 0. -1.
        -11    1    3    3    0    0 -0.48515308018E+01 -0.30404882325E+01  0.76749518089E+01  0.95753227278E+01  0.51100000000E-03 0.  1.
        -12    1    3    3    0    0 -0.39246795468E+01 -0.12695810233E+02  0.13447711058E+02  0.18905756787E+02  0.00000000000E+00 0.  1.
</event>
<event>
 7    1  0.1466590E-008  0.4614232E+02  0.7816164E-02  0.1320468E+00
        -11   -1    0    0    0    0  0.00000000000E+00  0.00000000000E+00  0.45593999997E+02  0.45594000000E+02  0.51100000000E-03 0.  1.
         11   -1    0    0    0    0 -0.00000000000E+00 -0.00000000000E+00 -0.45593999997E+02  0.45594000000E+02  0.51100000000E-03 0. -1.
    9900012    2    1    2    0    0 -0.24828778554E+02  0.14863811474E+02  0.34521185124E+02  0.46142319204E+02  0.10000013154E+02 0.  0.
         12    1    1    2    0    0  0.24828778554E+02 -0.14863811474E+02 -0.34521185124E+02  0.45045680796E+02  0.00000000000E+00 0. -1.
         11    1    3    3    0    0 -0.69829332788E+01  0.55117808993E+01  0.11275782788E+02  0.14362602954E+02  0.51100000000E-03 0. -1.
        -11    1    3    3    0    0 -0.59271032195E+01  0.19480331279E+00  0.32415325094E+01  0.67584047064E+01  0.51100000000E-03 0.  1.
        -12    1    3    3    0    0 -0.11918742056E+02  0.91572272621E+01  0.20003869826E+02  0.25021311543E+02  0.00000000000E+00 0.  1.
</event>
<event>
 7    1  0.1466590E-008  0.4614232E+02  0.7816164E-02  0.1320468E+00
        -11   -1    0    0    0    0  0.00000000000E+00  0.00000000000E+00  0.45593999997E+02  0.45594000000E+02  0.51100000000E-03 0. -1.
         11   -1    0    0    0    0 -0.00000000000E+00 -0.00000000000E+00 -0.45593999997E+02  0.45594000000E+02  0.51100000000E-03 0.  1.
    9900012    2    1    2    0    0  0.22673791318E+01  0.13990943007E+02 -0.42757761728E+02  0.46142315609E+02  0.99999803710E+01 0.  0.
         12    1    1    2    0    0 -0.22673791318E+01 -0.13990943007E+02  0.42757761728E+02  0.45045684391E+02  0.00000000000E+00 0. -1.
         11    1    3    3    0    0 -0.41356314716E+00  0.49354817180E+01 -0.15130889592E+02  0.15920861609E+02  0.51100000000E-03 0. -1.
        -11    1    3    3    0    0  0.22645130581E+01 -0.26788933881E+00 -0.23399063160E+01  0.32672535740E+01  0.51100000000E-03 0.  1.
        -12    1    3    3    0    0  0.41642922088E+00  0.93233506273E+01 -0.25286965819E+02  0.26954200425E+02  0.00000000000E+00 0.  1.
</event>
<event>
 7    1  0.1466590E-008  0.4614232E+02  0.7816164E-02  0.1320468E+00
        -11   -1    0    0    0    0  0.00000000000E+00  0.00000000000E+00  0.45593999997E+02  0.45594000000E+02  0.51100000000E-03 0.  1.
         11   -1    0    0    0    0 -0.00000000000E+00 -0.00000000000E+00 -0.45593999997E+02  0.45594000000E+02  0.51100000000E-03 0. -1.
    9900012    2    1    2    0    0  0.83807327910E+01  0.40658869433E+02  0.17485225896E+02  0.46142317962E+02  0.10000001828E+02 0.  0.
         12    1    1    2    0    0 -0.83807327910E+01 -0.40658869433E+02 -0.17485225896E+02  0.45045682038E+02  0.00000000000E+00 0. -1.
         11    1    3    3    0    0  0.42367933421E+01  0.10258784903E+02  0.78945320681E+01  0.13620452355E+02  0.51100000000E-03 0. -1.
        -11    1    3    3    0    0 -0.72819524398E+00  0.11545817870E+02  0.43035778654E+01  0.12343296209E+02  0.51100000000E-03 0.  1.
         12    1    3    3    0    0  0.48721346929E+01  0.18854266660E+02  0.52871159628E+01  0.20178569398E+02  0.00000000000E+00 0. -1.
</event>
<event>
 7    1  0.1466590E-008  0.4614232E+02  0.7816164E-02  0.1320468E+00
        -11   -1    0    0    0    0  0.00000000000E+00  0.00000000000E+00  0.45593999997E+02  0.45594000000E+02  0.51100000000E-03 0.  1.
         11   -1    0    0    0    0 -0.00000000000E+00 -0.00000000000E+00 -0.45593999997E+02  0.45594000000E+02  0.51100000000E-03 0. -1.
    9900012    2    1    2    0    0  0.94226243281E+00 -0.16980705488E+02  0.41711883905E+02  0.46142317896E+02  0.10000001226E+02 0.  0.
         12    1    1    2    0    0 -0.94226243281E+00  0.16980705488E+02 -0.41711883905E+02  0.45045682104E+02  0.00000000000E+00 0. -1.
         11    1    3    3    0    0  0.16215333209E+01 -0.43178864790E+01  0.76064963761E+01  0.88956338356E+01  0.51100000000E-03 0. -1.
        -11    1    3    3    0    0 -0.13645800308E+01 -0.88201202357E+01  0.30998662971E+02  0.32257924699E+02  0.51100000000E-03 0.  1.
        -12    1    3    3    0    0  0.68530914264E+00 -0.38426987735E+01  0.31067245578E+01  0.49887593611E+01  0.00000000000E+00 0.  1.
</event>
<event>
 7    1  0.1466590E-008  0.4614232E+02  0.7816164E-02  0.1320468E+00
        -11   -1    0    0    0    0  0.00000000000E+00  0.00000000000E+00  0.45593999997E+02  0.45594000000E+02  0.51100000000E-03 0.  1.
         11   -1    0    0    0    0 -0.00000000000E+00 -0.00000000000E+00 -0.45593999997E+02  0.45594000000E+02  0.51100000000E-03 0. -1.
    9900012    2    1    2    0    0  0.41865307110E+02 -0.10671269428E+02 -0.12748865590E+02  0.46142317582E+02  0.99999983697E+01 0.  0.
         12    1    1    2    0    0 -0.41865307110E+02  0.10671269428E+02  0.12748865590E+02  0.45045682418E+02  0.00000000000E+00 0. -1.
         11    1    3    3    0    0  0.53081312982E+01  0.14548574779E+01 -0.29013139532E+01  0.62217755566E+01  0.51100000000E-03 0. -1.
        -11    1    3    3    0    0  0.24460592358E+02 -0.83534424506E+01 -0.48464181900E+01  0.26298067397E+02  0.51100000000E-03 0.  1.
         12    1    3    3    0    0  0.12096583454E+02 -0.37726844557E+01 -0.50011334469E+01  0.13622474629E+02  0.00000000000E+00 0. -1.
</event>
<event>
 7    1  0.1466590E-008  0.4614232E+02  0.7816164E-02  0.1320468E+00
        -11   -1    0    0    0    0  0.00000000000E+00  0.00000000000E+00  0.45593999997E+02  0.45594000000E+02  0.51100000000E-03 0.  1.
         11   -1    0    0    0    0 -0.00000000000E+00 -0.00000000000E+00 -0.45593999997E+02  0.45594000000E+02  0.51100000000E-03 0. -1.
    9900012    2    1    2    0    0 -0.55632652756E+01  0.40700636615E+02  0.18483013082E+02  0.46142317477E+02  0.99999974084E+01 0.  0.
         12    1    1    2    0    0  0.55632652756E+01 -0.40700636615E+02 -0.18483013082E+02  0.45045682523E+02  0.00000000000E+00 0. -1.
         11    1    3    3    0    0 -0.31647684218E+01  0.74743178185E+01  0.67791751411E+01  0.10575367694E+02  0.51100000000E-03 0. -1.
        -11    1    3    3    0    0  0.38771541473E+00  0.35824004645E+01  0.25594359803E+01  0.44197996707E+01  0.51100000000E-03 0.  1.
         12    1    3    3    0    0 -0.27862122685E+01  0.29643918332E+02  0.91444019605E+01  0.31147150112E+02  0.00000000000E+00 0. -1.
</event>
<event>
 7    1  0.1466590E-008  0.4614232E+02  0.7816164E-02  0.1320468E+00
        -11   -1    0    0    0    0  0.00000000000E+00  0.00000000000E+00  0.45593999997E+02  0.45594000000E+02  0.51100000000E-03 0.  1.
         11   -1    0    0    0    0 -0.00000000000E+00 -0.00000000000E+00 -0.45593999997E+02  0.45594000000E+02  0.51100000000E-03 0. -1.
    9900012    2    1    2    0    0  0.20997845202E+02 -0.14863834118E+02  0.36976620247E+02  0.46142317491E+02  0.99999975364E+01 0.  0.
         12    1    1    2    0    0 -0.20997845202E+02  0.14863834118E+02 -0.36976620247E+02  0.45045682509E+02  0.00000000000E+00 0. -1.
         11    1    3    3    0    0  0.14979211162E+02 -0.14095935005E+02  0.23511560866E+02  0.31238848336E+02  0.51100000000E-03 0. -1.
        -11    1    3    3    0    0  0.33018988779E+01 -0.35445869409E+00  0.49899681709E+01  0.59939936414E+01  0.51100000000E-03 0.  1.
         12    1    3    3    0    0  0.27167351618E+01 -0.41344041939E+00  0.84750912098E+01  0.89094755139E+01  0.00000000000E+00 0. -1.
</event>
<event>
 7    1  0.1466590E-008  0.4614232E+02  0.7816164E-02  0.1320468E+00
        -11   -1    0    0    0    0  0.00000000000E+00  0.00000000000E+00  0.45593999997E+02  0.45594000000E+02  0.51100000000E-03 0. -1.
         11   -1    0    0    0    0 -0.00000000000E+00 -0.00000000000E+00 -0.45593999997E+02  0.45594000000E+02  0.51100000000E-03 0.  1.
    9900012    2    1    2    0    0 -0.19042782002E+02  0.40793171099E+02 -0.15502579115E+01  0.46142315919E+02  0.99999832054E+01 0.  0.
         12    1    1    2    0    0  0.19042782002E+02 -0.40793171099E+02  0.15502579115E+01  0.45045684081E+02  0.00000000000E+00 0. -1.
         11    1    3    3    0    0 -0.62867906559E-01  0.96906197128E+00  0.57142592695E+00  0.11267481214E+01  0.51100000000E-03 0. -1.
        -11    1    3    3    0    0 -0.55802693719E+01  0.59850035064E+01 -0.26957605626E+01  0.86154975774E+01  0.51100000000E-03 0.  1.
        -12    1    3    3    0    0 -0.13399644724E+02  0.33839105621E+02  0.57407672415E+00  0.36400070221E+02  0.00000000000E+00 0.  1.
</event>
<event>
 7    1  0.1466590E-008  0.4614232E+02  0.7816164E-02  0.1320468E+00
        -11   -1    0    0    0    0  0.00000000000E+00  0.00000000000E+00  0.45593999997E+02  0.45594000000E+02  0.51100000000E-03 0.  1.
         11   -1    0    0    0    0 -0.00000000000E+00 -0.00000000000E+00 -0.45593999997E+02  0.45594000000E+02  0.51100000000E-03 0. -1.
    9900012    2    1    2    0    0  0.19522205476E+02  0.25007222533E+02  0.31978677238E+02  0.46142317817E+02  0.10000000508E+02 0.  0.
         12    1    1    2    0    0 -0.19522205476E+02 -0.25007222533E+02 -0.31978677238E+02  0.45045682183E+02  0.00000000000E+00 0. -1.
         11    1    3    3    0    0  0.26999917687E+01  0.52980206198E+01  0.55091968145E+01  0.81061845428E+01  0.51100000000E-03 0. -1.
        -11    1    3    3    0    0  0.25925131384E+01 -0.45340387249E+00  0.27694898356E+01  0.38205724250E+01  0.51100000000E-03 0.  1.
        -12    1    3    3    0    0  0.14229700568E+02  0.20162605786E+02  0.23699990588E+02  0.34215560849E+02  0.00000000000E+00 0.  1.
</event>
<event>
 7    1  0.1466590E-008  0.4614232E+02  0.7816164E-02  0.1320468E+00
        -11   -1    0    0    0    0  0.00000000000E+00  0.00000000000E+00  0.45593999997E+02  0.45594000000E+02  0.51100000000E-03 0.  1.
         11   -1    0    0    0    0 -0.00000000000E+00 -0.00000000000E+00 -0.45593999997E+02  0.45594000000E+02  0.51100000000E-03 0. -1.
    9900012    2    1    2    0    0 -0.22367657361E+02  0.18620099368E+01  0.39055527588E+02  0.46142318609E+02  0.10000007730E+02 0.  0.
         12    1    1    2    0    0  0.22367657361E+02 -0.18620099368E+01 -0.39055527588E+02  0.45045681391E+02  0.00000000000E+00 0. -1.
         11    1    3    3    0    0 -0.32779090538E+01  0.16596353427E+01  0.11823238304E+02  0.12380954789E+02  0.51100000000E-03 0. -1.
        -11    1    3    3    0    0 -0.95274862444E+01 -0.28046318889E+01  0.13611914688E+02  0.16850020056E+02  0.51100000000E-03 0.  1.
        -12    1    3    3    0    0 -0.95622620624E+01  0.30070064830E+01  0.13620374596E+02  0.16911343763E+02  0.00000000000E+00 0.  1.
</event>
<event>
 7    1  0.1466590E-008  0.4614232E+02  0.7816164E-02  0.1320468E+00
        -11   -1    0    0    0    0  0.00000000000E+00  0.00000000000E+00  0.45593999997E+02  0.45594000000E+02  0.51100000000E-03 0. -1.
         11   -1    0    0    0    0 -0.00000000000E+00 -0.00000000000E+00 -0.45593999997E+02  0.45594000000E+02  0.51100000000E-03 0.  1.
    9900012    2    1    2    0    0 -0.18026493873E+02  0.29426807579E+02 -0.28952062902E+02  0.46142318388E+02  0.10000005715E+02 0.  0.
         12    1    1    2    0    0  0.18026493873E+02 -0.29426807579E+02  0.28952062902E+02  0.45045681612E+02  0.00000000000E+00 0. -1.
         11    1    3    3    0    0  0.18652267165E+00  0.32511126150E+01 -0.79714294649E+00  0.33526051185E+01  0.51100000000E-03 0. -1.
        -11    1    3    3    0    0 -0.10290170331E+02  0.14326973801E+02 -0.12508703784E+02  0.21624464255E+02  0.51100000000E-03 0.  1.
         12    1    3    3    0    0 -0.79228462133E+01  0.11848721164E+02 -0.15646216172E+02  0.21165249014E+02  0.00000000000E+00 0. -1.
</event>
<event>
 7    1  0.1466590E-008  0.4614232E+02  0.7816164E-02  0.1320468E+00
        -11   -1    0    0    0    0  0.00000000000E+00  0.00000000000E+00  0.45593999997E+02  0.45594000000E+02  0.51100000000E-03 0. -1.
         11   -1    0    0    0    0 -0.00000000000E+00 -0.00000000000E+00 -0.45593999997E+02  0.45594000000E+02  0.51100000000E-03 0.  1.
    9900012    2    1    2    0    0  0.14320284609E+01 -0.14151357944E+02 -0.42741101450E+02  0.46142318849E+02  0.10000009920E+02 0.  0.
         12    1    1    2    0    0 -0.14320284609E+01  0.14151357944E+02  0.42741101450E+02  0.45045681151E+02  0.00000000000E+00 0. -1.
         11    1    3    3    0    0 -0.69925771153E+00 -0.10890568872E+02 -0.21629716415E+02  0.24226805076E+02  0.51100000000E-03 0. -1.
        -11    1    3    3    0    0 -0.42771536832E+00 -0.77858326716E+00 -0.13293226743E+02  0.13322875434E+02  0.51100000000E-03 0.  1.
         12    1    3    3    0    0  0.25590015407E+01 -0.24822058046E+01 -0.78181582922E+01  0.85926383390E+01  0.00000000000E+00 0. -1.
</event>
<event>
 7    1  0.1466590E-008  0.4614232E+02  0.7816164E-02  0.1320468E+00
        -11   -1    0    0    0    0  0.00000000000E+00  0.00000000000E+00  0.45593999997E+02  0.45594000000E+02  0.51100000000E-03 0.  1.
         11   -1    0    0    0    0 -0.00000000000E+00 -0.00000000000E+00 -0.45593999997E+02  0.45594000000E+02  0.51100000000E-03 0. -1.
    9900012    2    1    2    0    0 -0.31361916722E+02 -0.20464318530E+02  0.25035085180E+02  0.46142316041E+02  0.99999843108E+01 0.  0.
         12    1    1    2    0    0  0.31361916722E+02  0.20464318530E+02 -0.25035085180E+02  0.45045683959E+02  0.00000000000E+00 0. -1.
         11    1    3    3    0    0 -0.12705615864E+02 -0.72651980785E+01  0.13058212365E+02  0.19614603948E+02  0.51100000000E-03 0. -1.
        -11    1    3    3    0    0 -0.18897580287E+02 -0.11872968154E+02  0.11410663983E+02  0.25065697004E+02  0.51100000000E-03 0.  1.
         12    1    3    3    0    0  0.24127942856E+00 -0.13261522973E+01  0.56620883179E+00  0.14620150887E+01  0.00000000000E+00 0. -1.
</event>
<event>
 7    1  0.1466590E-008  0.4614232E+02  0.7816164E-02  0.1320468E+00
        -11   -1    0    0    0    0  0.00000000000E+00  0.00000000000E+00  0.45593999997E+02  0.45594000000E+02  0.51100000000E-03 0.  1.
         11   -1    0    0    0    0 -0.00000000000E+00 -0.00000000000E+00 -0.45593999997E+02  0.45594000000E+02  0.51100000000E-03 0. -1.
    9900012    2    1    2    0    0 -0.29949643330E+02 -0.17182980880E+02  0.28928834347E+02  0.46142318473E+02  0.10000006493E+02 0.  0.
         12    1    1    2    0    0  0.29949643330E+02  0.17182980880E+02 -0.28928834347E+02  0.45045681527E+02  0.00000000000E+00 0. -1.
         11    1    3    3    0    0 -0.14966866926E+02 -0.10017333521E+02  0.14054052369E+02  0.22844484339E+02  0.51100000000E-03 0. -1.
        -11    1    3    3    0    0 -0.88702216984E+01 -0.30961302943E+01  0.12382166402E+02  0.15543001668E+02  0.51100000000E-03 0.  1.
         12    1    3    3    0    0 -0.61125547061E+01 -0.40695170654E+01  0.24926155758E+01  0.77548324669E+01  0.00000000000E+00 0. -1.
</event>
<event>
 7    1  0.1466590E-008  0.4614232E+02  0.7816164E-02  0.1320468E+00
        -11   -1    0    0    0    0  0.00000000000E+00  0.00000000000E+00  0.45593999997E+02  0.45594000000E+02  0.51100000000E-03 0. -1.
         11   -1    0    0    0    0 -0.00000000000E+00 -0.00000000000E+00 -0.45593999997E+02  0.45594000000E+02  0.51100000000E-03 0.  1.
    9900012    2    1    2    0    0 -0.19949726292E+01 -0.39992164063E+02 -0.20633963375E+02  0.46142317113E+02  0.99999940887E+01 0.  0.
         12    1    1    2    0    0  0.19949726292E+01  0.39992164063E+02  0.20633963375E+02  0.45045682887E+02  0.00000000000E+00 0. -1.
         11    1    3    3    0    0 -0.28805238697E+01 -0.23660754871E+02 -0.15162068551E+02  0.28249195773E+02  0.51100000000E-03 0. -1.
        -11    1    3    3    0    0 -0.14347646030E+01 -0.37696937568E+01 -0.26036798733E+01  0.48008634254E+01  0.51100000000E-03 0.  1.
         12    1    3    3    0    0  0.23203158435E+01 -0.12561715435E+02 -0.28682149499E+01  0.13092257914E+02  0.00000000000E+00 0. -1.
</event>
<event>
 7    1  0.1466590E-008  0.4614232E+02  0.7816164E-02  0.1320468E+00
        -11   -1    0    0    0    0  0.00000000000E+00  0.00000000000E+00  0.45593999997E+02  0.45594000000E+02  0.51100000000E-03 0.  1.
         11   -1    0    0    0    0 -0.00000000000E+00 -0.00000000000E+00 -0.45593999997E+02  0.45594000000E+02  0.51100000000E-03 0. -1.
    9900012    2    1    2    0    0 -0.34680304727E+02 -0.31994241439E+01  0.28568404605E+02  0.46142316606E+02  0.99999894648E+01 0.  0.
         12    1    1    2    0    0  0.34680304727E+02  0.31994241439E+01 -0.28568404605E+02  0.45045683394E+02  0.00000000000E+00 0. -1.
         11    1    3    3    0    0 -0.80904302042E+01 -0.42987213840E-01  0.88366718144E+01  0.11980971488E+02  0.51100000000E-03 0. -1.
        -11    1    3    3    0    0 -0.21365430713E+02 -0.60278200368E+00  0.18382996505E+02  0.28191834570E+02  0.51100000000E-03 0.  1.
         12    1    3    3    0    0 -0.52244438098E+01 -0.25536549264E+01  0.13487362859E+01  0.59695105473E+01  0.00000000000E+00 0. -1.
</event>
<event>
 7    1  0.1466590E-008  0.4614232E+02  0.7816164E-02  0.1320468E+00
        -11   -1    0    0    0    0  0.00000000000E+00  0.00000000000E+00  0.45593999997E+02  0.45594000000E+02  0.51100000000E-03 0.  1.
         11   -1    0    0    0    0 -0.00000000000E+00 -0.00000000000E+00 -0.45593999997E+02  0.45594000000E+02  0.51100000000E-03 0. -1.
    9900012    2    1    2    0    0  0.52862095298E+01  0.40633302068E+01  0.44549509872E+02  0.46142317705E+02  0.99999994882E+01 0.  0.
         12    1    1    2    0    0 -0.52862095298E+01 -0.40633302068E+01 -0.44549509872E+02  0.45045682295E+02  0.00000000000E+00 0. -1.
         11    1    3    3    0    0 -0.14556408761E+01 -0.78494703120E+00  0.10813914901E+02  0.10939642954E+02  0.51100000000E-03 0. -1.
        -11    1    3    3    0    0  0.20656514300E+00  0.25313265215E+01  0.46121817434E+01  0.52652164069E+01  0.51100000000E-03 0.  1.
        -12    1    3    3    0    0  0.65352852629E+01  0.23169507165E+01  0.29123413228E+02  0.29937458344E+02  0.00000000000E+00 0.  1.
</event>
<event>
 7    1  0.1466590E-008  0.4614232E+02  0.7816164E-02  0.1320468E+00
        -11   -1    0    0    0    0  0.00000000000E+00  0.00000000000E+00  0.45593999997E+02  0.45594000000E+02  0.51100000000E-03 0. -1.
         11   -1    0    0    0    0 -0.00000000000E+00 -0.00000000000E+00 -0.45593999997E+02  0.45594000000E+02  0.51100000000E-03 0.  1.
    9900012    2    1    2    0    0 -0.21599246413E+02 -0.18055371080E+02 -0.35165176409E+02  0.46142317607E+02  0.99999985924E+01 0.  0.
         12    1    1    2    0    0  0.21599246413E+02  0.18055371080E+02  0.35165176409E+02  0.45045682393E+02  0.00000000000E+00 0. -1.
         11    1    3    3    0    0 -0.22639196336E+01 -0.25463455168E+01 -0.89011468859E+01  0.95309823074E+01  0.51100000000E-03 0. -1.
        -11    1    3    3    0    0 -0.97410561324E+01 -0.11556145427E+02 -0.16206841910E+02  0.22160649735E+02  0.51100000000E-03 0.  1.
        -12    1    3    3    0    0 -0.95942706465E+01 -0.39528801353E+01 -0.10057187613E+02  0.14450685565E+02  0.00000000000E+00 0.  1.
</event>
<event>
 7    1  0.1466590E-008  0.4614232E+02  0.7816164E-02  0.1320468E+00
        -11   -1    0    0    0    0  0.00000000000E+00  0.00000000000E+00  0.45593999997E+02  0.45594000000E+02  0.51100000000E-03 0. -1.
         11   -1    0    0    0    0 -0.00000000000E+00 -0.00000000000E+00 -0.45593999997E+02  0.45594000000E+02  0.51100000000E-03 0.  1.
    9900012    2    1    2    0    0  0.11001543667E+02  0.42574788312E+02  0.97707154375E+01  0.46142318264E+02  0.10000004586E+02 0.  0.
         12    1    1    2    0    0 -0.11001543667E+02 -0.42574788312E+02 -0.97707154375E+01  0.45045681736E+02  0.00000000000E+00 0. -1.
         11    1    3    3    0    0  0.61847735600E+00  0.14918366269E+01 -0.78571557817E+00  0.17959509993E+01  0.51100000000E-03 0. -1.
        -11    1    3    3    0    0  0.28119935824E+01  0.26417599059E+02  0.64183341243E+01  0.27331151844E+02  0.51100000000E-03 0.  1.
        -12    1    3    3    0    0  0.75710727284E+01  0.14665352627E+02  0.41380968913E+01  0.17015215421E+02  0.00000000000E+00 0.  1.
</event>
<event>
 7    1  0.1466590E-008  0.4614232E+02  0.7816164E-02  0.1320468E+00
        -11   -1    0    0    0    0  0.00000000000E+00  0.00000000000E+00  0.45593999997E+02  0.45594000000E+02  0.51100000000E-03 0.  1.
         11   -1    0    0    0    0 -0.00000000000E+00 -0.00000000000E+00 -0.45593999997E+02  0.45594000000E+02  0.51100000000E-03 0. -1.
    9900012    2    1    2    0    0  0.41108841146E+02  0.10597643762E+02  0.15062091752E+02  0.46142317836E+02  0.10000000683E+02 0.  0.
         12    1    1    2    0    0 -0.41108841146E+02 -0.10597643762E+02 -0.15062091752E+02  0.45045682164E+02  0.00000000000E+00 0. -1.
         11    1    3    3    0    0  0.54428466869E+01 -0.13520081662E+01  0.23728591928E+01  0.60895785691E+01  0.51100000000E-03 0. -1.
        -11    1    3    3    0    0  0.21822646926E+02  0.45939665638E+01  0.79535114277E+01  0.23676798600E+02  0.51100000000E-03 0.  1.
         12    1    3    3    0    0  0.13843347533E+02  0.73556853640E+01  0.47357211319E+01  0.16375940667E+02  0.00000000000E+00 0. -1.
</event>
<event>
 7    1  0.1466590E-008  0.4614232E+02  0.7816164E-02  0.1320468E+00
        -11   -1    0    0    0    0  0.00000000000E+00  0.00000000000E+00  0.45593999997E+02  0.45594000000E+02  0.51100000000E-03 0. -1.
         11   -1    0    0    0    0 -0.00000000000E+00 -0.00000000000E+00 -0.45593999997E+02  0.45594000000E+02  0.51100000000E-03 0.  1.
    9900012    2    1    2    0    0  0.41188975080E+02  0.16440483713E+02 -0.78925595011E+01  0.46142315764E+02  0.99999817862E+01 0.  0.
         12    1    1    2    0    0 -0.41188975080E+02 -0.16440483713E+02  0.78925595011E+01  0.45045684236E+02  0.00000000000E+00 0. -1.
         11    1    3    3    0    0  0.12699579975E+02  0.10918147018E+01 -0.21347451633E+01  0.12923951719E+02  0.51100000000E-03 0. -1.
        -11    1    3    3    0    0  0.13703051146E+02  0.98413335939E+01 -0.40289206112E+01  0.17345248893E+02  0.51100000000E-03 0.  1.
        -12    1    3    3    0    0  0.14786343960E+02  0.55073354170E+01 -0.17288937266E+01  0.15873115151E+02  0.00000000000E+00 0.  1.
</event>
<event>
 7    1  0.1466590E-008  0.4614232E+02  0.7816164E-02  0.1320468E+00
        -11   -1    0    0    0    0  0.00000000000E+00  0.00000000000E+00  0.45593999997E+02  0.45594000000E+02  0.51100000000E-03 0.  1.
         11   -1    0    0    0    0 -0.00000000000E+00 -0.00000000000E+00 -0.45593999997E+02  0.45594000000E+02  0.51100000000E-03 0. -1.
    9900012    2    1    2    0    0 -0.24514245721E+02 -0.24044030986E+02  0.29155615089E+02  0.46142316960E+02  0.99999926962E+01 0.  0.
         12    1    1    2    0    0  0.24514245721E+02  0.24044030986E+02 -0.29155615089E+02  0.45045683040E+02  0.00000000000E+00 0. -1.
         11    1    3    3    0    0 -0.87579188340E+01 -0.52614349078E+01  0.12881121965E+02  0.16441020131E+02  0.51100000000E-03 0. -1.
        -11    1    3    3    0    0 -0.10095001530E+02 -0.89445827158E+01  0.91995824368E+01  0.16326265131E+02  0.51100000000E-03 0.  1.
         12    1    3    3    0    0 -0.56613253569E+01 -0.98380133624E+01  0.70749106869E+01  0.13375031699E+02  0.00000000000E+00 0. -1.
</event>
<event>
 7    1  0.1466590E-008  0.4614232E+02  0.7816164E-02  0.1320468E+00
        -11   -1    0    0    0    0  0.00000000000E+00  0.00000000000E+00  0.45593999997E+02  0.45594000000E+02  0.51100000000E-03 0. -1.
         11   -1    0    0    0    0 -0.00000000000E+00 -0.00000000000E+00 -0.45593999997E+02  0.45594000000E+02  0.51100000000E-03 0.  1.
    9900012    2    1    2    0    0  0.27051756713E+02  0.22492897282E+02 -0.28131576327E+02  0.46142317010E+02  0.99999931489E+01 0.  0.
         12    1    1    2    0    0 -0.27051756713E+02 -0.22492897282E+02  0.28131576327E+02  0.45045682990E+02  0.00000000000E+00 0. -1.
         11    1    3    3    0    0  0.83924902633E+01  0.41577495247E+01 -0.57329095607E+01  0.10981212420E+02  0.51100000000E-03 0. -1.
        -11    1    3    3    0    0  0.14876687260E+02  0.99801634532E+01 -0.15415649687E+02  0.23633910847E+02  0.51100000000E-03 0.  1.
        -12    1    3    3    0    0  0.37825791903E+01  0.83549843042E+01 -0.69830170788E+01  0.11527193743E+02  0.00000000000E+00 0.  1.
</event>
<event>
 7    1  0.1859940E-008  0.4614232E+02  0.7816164E-02  0.1320468E+00
        -11   -1    0    0    0    0  0.00000000000E+00  0.00000000000E+00  0.45593999997E+02  0.45594000000E+02  0.51100000000E-03 0. -1.
         11   -1    0    0    0    0 -0.00000000000E+00 -0.00000000000E+00 -0.45593999997E+02  0.45594000000E+02  0.51100000000E-03 0.  1.
    9900012    2    1    2    0    0 -0.40526014940E+02 -0.17758194225E+02 -0.84499797042E+01  0.46142317565E+02  0.99999982090E+01 0.  0.
         12    1    1    2    0    0  0.40526014940E+02  0.17758194225E+02  0.84499797042E+01  0.45045682435E+02  0.00000000000E+00 0. -1.
         11    1    3    3    0    0 -0.11068243232E+01  0.30634153937E+00  0.55410070767E+00  0.12751208086E+01  0.51100000000E-03 0. -1.
        -11    1    3    3    0    0 -0.34211654063E+02 -0.15269819357E+02 -0.51634868340E+01  0.37818861081E+02  0.51100000000E-03 0.  1.
        -12    1    3    3    0    0 -0.52075365541E+01 -0.27947164072E+01 -0.38405935779E+01  0.70483356751E+01  0.00000000000E+00 0.  1.
</event>
<event>
 7    1  0.1466590E-008  0.4614232E+02  0.7816164E-02  0.1320468E+00
        -11   -1    0    0    0    0  0.00000000000E+00  0.00000000000E+00  0.45593999997E+02  0.45594000000E+02  0.51100000000E-03 0.  1.
         11   -1    0    0    0    0 -0.00000000000E+00 -0.00000000000E+00 -0.45593999997E+02  0.45594000000E+02  0.51100000000E-03 0. -1.
    9900012    2    1    2    0    0  0.19657414864E+02  0.92216680232E+01  0.39467205633E+02  0.46142318290E+02  0.10000004821E+02 0.  0.
         12    1    1    2    0    0 -0.19657414864E+02 -0.92216680232E+01 -0.39467205633E+02  0.45045681710E+02  0.00000000000E+00 0. -1.
         11    1    3    3    0    0  0.10206644942E+02  0.39189209809E+01  0.14701876799E+02  0.18321537171E+02  0.51100000000E-03 0. -1.
        -11    1    3    3    0    0  0.82673434124E+01  0.11461513213E+01  0.16766923075E+02  0.18729451130E+02  0.51100000000E-03 0.  1.
         12    1    3    3    0    0  0.11834265096E+01  0.41565957210E+01  0.79984057583E+01  0.90913299888E+01  0.00000000000E+00 0. -1.
</event>
<event>
 7    1  0.1466590E-008  0.4614232E+02  0.7816164E-02  0.1320468E+00
        -11   -1    0    0    0    0  0.00000000000E+00  0.00000000000E+00  0.45593999997E+02  0.45594000000E+02  0.51100000000E-03 0.  1.
         11   -1    0    0    0    0 -0.00000000000E+00 -0.00000000000E+00 -0.45593999997E+02  0.45594000000E+02  0.51100000000E-03 0. -1.
    9900012    2    1    2    0    0 -0.91160460077E+01 -0.23185357714E+02  0.37529327772E+02  0.46142317075E+02  0.99999937415E+01 0.  0.
         12    1    1    2    0    0  0.91160460077E+01  0.23185357714E+02 -0.37529327772E+02  0.45045682925E+02  0.00000000000E+00 0. -1.
         11    1    3    3    0    0 -0.27145748036E+01 -0.83497410054E+01  0.67497699291E+01  0.11074587377E+02  0.51100000000E-03 0. -1.
        -11    1    3    3    0    0 -0.62785993950E+00 -0.69263723139E+01  0.14216342659E+02  0.15826346400E+02  0.51100000000E-03 0.  1.
        -12    1    3    3    0    0 -0.57736112646E+01 -0.79092443949E+01  0.16563215185E+02  0.19241383297E+02  0.00000000000E+00 0.  1.
</event>
<event>
 7    1  0.1466590E-008  0.4614232E+02  0.7816164E-02  0.1320468E+00
        -11   -1    0    0    0    0  0.00000000000E+00  0.00000000000E+00  0.45593999997E+02  0.45594000000E+02  0.51100000000E-03 0. -1.
         11   -1    0    0    0    0 -0.00000000000E+00 -0.00000000000E+00 -0.45593999997E+02  0.45594000000E+02  0.51100000000E-03 0.  1.
    9900012    2    1    2    0    0 -0.37774098553E+02  0.20718677507E+02 -0.13151700684E+02  0.46142319297E+02  0.10000014004E+02 0.  0.
         12    1    1    2    0    0  0.37774098553E+02 -0.20718677507E+02  0.13151700684E+02  0.45045680703E+02  0.00000000000E+00 0. -1.
         11    1    3    3    0    0 -0.19991026281E+02  0.89021218358E+01 -0.54136756433E+01  0.22543220470E+02  0.51100000000E-03 0. -1.
        -11    1    3    3    0    0 -0.21882180917E+01  0.42727905293E+01 -0.29164864849E+01  0.56170215419E+01  0.51100000000E-03 0.  1.
        -12    1    3    3    0    0 -0.15594854181E+02  0.75437651418E+01 -0.48215385555E+01  0.17982077285E+02  0.00000000000E+00 0.  1.
</event>
<event>
 7    1  0.1466590E-008  0.4614232E+02  0.7816164E-02  0.1320468E+00
        -11   -1    0    0    0    0  0.00000000000E+00  0.00000000000E+00  0.45593999997E+02  0.45594000000E+02  0.51100000000E-03 0.  1.
         11   -1    0    0    0    0 -0.00000000000E+00 -0.00000000000E+00 -0.45593999997E+02  0.45594000000E+02  0.51100000000E-03 0. -1.
    9900012    2    1    2    0    0 -0.16604974497E+02  0.41871355434E+02 -0.42172266914E+00  0.46142318365E+02  0.10000005511E+02 0.  0.
         12    1    1    2    0    0  0.16604974497E+02 -0.41871355434E+02  0.42172266914E+00  0.45045681635E+02  0.00000000000E+00 0. -1.
         11    1    3    3    0    0 -0.78442876145E+00  0.12875201330E+02  0.33650306705E+00  0.12903463580E+02  0.51100000000E-03 0. -1.
        -11    1    3    3    0    0 -0.64755829144E+01  0.15311958026E+02 -0.11382065788E+01  0.16663875514E+02  0.51100000000E-03 0.  1.
         12    1    3    3    0    0 -0.93449628213E+01  0.13684196077E+02  0.37998084263E+00  0.16574979272E+02  0.00000000000E+00 0. -1.
</event>
<event>
 7    1  0.1466590E-008  0.4614232E+02  0.7816164E-02  0.1320468E+00
        -11   -1    0    0    0    0  0.00000000000E+00  0.00000000000E+00  0.45593999997E+02  0.45594000000E+02  0.51100000000E-03 0. -1.
         11   -1    0    0    0    0 -0.00000000000E+00 -0.00000000000E+00 -0.45593999997E+02  0.45594000000E+02  0.51100000000E-03 0.  1.
    9900012    2    1    2    0    0  0.87435331263E+01  0.31176747380E+02 -0.31315723006E+02  0.46142318119E+02  0.10000003267E+02 0.  0.
         12    1    1    2    0    0 -0.87435331263E+01 -0.31176747380E+02  0.31315723006E+02  0.45045681881E+02  0.00000000000E+00 0. -1.
         11    1    3    3    0    0 -0.52979095146E+00  0.68151648617E+01 -0.42379911831E+01  0.80428676523E+01  0.51100000000E-03 0. -1.
        -11    1    3    3    0    0  0.98641448287E+01  0.22613873365E+02 -0.23492392849E+02  0.34067303148E+02  0.51100000000E-03 0.  1.
         12    1    3    3    0    0 -0.59082075086E+00  0.17477091534E+01 -0.35853389736E+01  0.40321473188E+01  0.00000000000E+00 0. -1.
</event>
<event>
 7    1  0.1466590E-008  0.4614232E+02  0.7816164E-02  0.1320468E+00
        -11   -1    0    0    0    0  0.00000000000E+00  0.00000000000E+00  0.45593999997E+02  0.45594000000E+02  0.51100000000E-03 0. -1.
         11   -1    0    0    0    0 -0.00000000000E+00 -0.00000000000E+00 -0.45593999997E+02  0.45594000000E+02  0.51100000000E-03 0.  1.
    9900012    2    1    2    0    0  0.41440232321E+02  0.17437520682E+02 -0.27845235951E+01  0.46142317033E+02  0.99999933567E+01 0.  0.
         12    1    1    2    0    0 -0.41440232321E+02 -0.17437520682E+02  0.27845235951E+01  0.45045682967E+02  0.00000000000E+00 0. -1.
         11    1    3    3    0    0  0.35995516130E+02  0.16053144230E+02 -0.19941359859E+01  0.39463365286E+02  0.51100000000E-03 0. -1.
        -11    1    3    3    0    0  0.49182266935E+01  0.15721778030E+01  0.58295860223E+00  0.51962041767E+01  0.51100000000E-03 0.  1.
         12    1    3    3    0    0  0.52648949759E+00 -0.18780135121E+00 -0.13733462114E+01  0.14827475696E+01  0.00000000000E+00 0. -1.
</event>
<event>
 7    1  0.1466590E-008  0.4614232E+02  0.7816164E-02  0.1320468E+00
        -11   -1    0    0    0    0  0.00000000000E+00  0.00000000000E+00  0.45593999997E+02  0.45594000000E+02  0.51100000000E-03 0.  1.
         11   -1    0    0    0    0 -0.00000000000E+00 -0.00000000000E+00 -0.45593999997E+02  0.45594000000E+02  0.51100000000E-03 0. -1.
    9900012    2    1    2    0    0 -0.20894410343E+02 -0.15863368199E+02  0.36618173837E+02  0.46142317750E+02  0.99999998970E+01 0.  0.
         12    1    1    2    0    0  0.20894410343E+02  0.15863368199E+02 -0.36618173837E+02  0.45045682250E+02  0.00000000000E+00 0. -1.
         11    1    3    3    0    0  0.10346594860E+01 -0.10384494999E+01  0.15936225494E+01  0.21653015279E+01  0.51100000000E-03 0. -1.
        -11    1    3    3    0    0 -0.65187413402E+01 -0.32797178303E+01  0.10749075309E+02  0.12992042102E+02  0.51100000000E-03 0.  1.
         12    1    3    3    0    0 -0.15410328489E+02 -0.11545200869E+02  0.24275475979E+02  0.30984974120E+02  0.00000000000E+00 0. -1.
</event>
<event>
 7    1  0.1466590E-008  0.4614232E+02  0.7816164E-02  0.1320468E+00
        -11   -1    0    0    0    0  0.00000000000E+00  0.00000000000E+00  0.45593999997E+02  0.45594000000E+02  0.51100000000E-03 0.  1.
         11   -1    0    0    0    0 -0.00000000000E+00 -0.00000000000E+00 -0.45593999997E+02  0.45594000000E+02  0.51100000000E-03 0. -1.
    9900012    2    1    2    0    0 -0.10852998944E+02  0.19355616191E+02  0.39200587181E+02  0.46142317637E+02  0.99999988664E+01 0.  0.
         12    1    1    2    0    0  0.10852998944E+02 -0.19355616191E+02 -0.39200587181E+02  0.45045682363E+02  0.00000000000E+00 0. -1.
         11    1    3    3    0    0 -0.14311944484E+01  0.47773559409E+01  0.37944291957E+01  0.62665094365E+01  0.51100000000E-03 0. -1.
        -11    1    3    3    0    0 -0.81690968598E+01  0.11858041658E+02  0.33098249722E+02  0.36094894797E+02  0.51100000000E-03 0.  1.
        -12    1    3    3    0    0 -0.12527076360E+01  0.27202185927E+01  0.23079082632E+01  0.37809134036E+01  0.00000000000E+00 0.  1.
</event>
<event>
 7    1  0.1466590E-008  0.4614232E+02  0.7816164E-02  0.1320468E+00
        -11   -1    0    0    0    0  0.00000000000E+00  0.00000000000E+00  0.45593999997E+02  0.45594000000E+02  0.51100000000E-03 0. -1.
         11   -1    0    0    0    0 -0.00000000000E+00 -0.00000000000E+00 -0.45593999997E+02  0.45594000000E+02  0.51100000000E-03 0.  1.
    9900012    2    1    2    0    0 -0.85318219968E+00 -0.14359645025E+02 -0.42687072932E+02  0.46142317403E+02  0.99999967334E+01 0.  0.
         12    1    1    2    0    0  0.85318219968E+00  0.14359645025E+02  0.42687072932E+02  0.45045682597E+02  0.00000000000E+00 0. -1.
         11    1    3    3    0    0 -0.36003549837E+01 -0.42699008250E+01 -0.97438377450E+01  0.11231072225E+02  0.51100000000E-03 0. -1.
        -11    1    3    3    0    0  0.22441990759E+01 -0.13410062354E+01 -0.10429042212E+02  0.10751727719E+02  0.51100000000E-03 0.  1.
        -12    1    3    3    0    0  0.50297370810E+00 -0.87487379647E+01 -0.22514192975E+02  0.24159517459E+02  0.00000000000E+00 0.  1.
</event>
<event>
 7    1  0.1466590E-008  0.4614232E+02  0.7816164E-02  0.1320468E+00
        -11   -1    0    0    0    0  0.00000000000E+00  0.00000000000E+00  0.45593999997E+02  0.45594000000E+02  0.51100000000E-03 0.  1.
         11   -1    0    0    0    0 -0.00000000000E+00 -0.00000000000E+00 -0.45593999997E+02  0.45594000000E+02  0.51100000000E-03 0. -1.
    9900012    2    1    2    0    0 -0.16059723329E+02 -0.25359751708E+02  0.33586929340E+02  0.46142317159E+02  0.99999945110E+01 0.  0.
         12    1    1    2    0    0  0.16059723329E+02  0.25359751708E+02 -0.33586929340E+02  0.45045682841E+02  0.00000000000E+00 0. -1.
         11    1    3    3    0    0 -0.51029970859E+01 -0.14411701491E+02  0.13068221034E+02  0.20112586119E+02  0.51100000000E-03 0. -1.
        -11    1    3    3    0    0 -0.90405600696E+01 -0.10377585393E+02  0.19242035166E+02  0.23657597565E+02  0.51100000000E-03 0.  1.
         12    1    3    3    0    0 -0.19161661731E+01 -0.57046482403E+00  0.12766731412E+01  0.23721334760E+01  0.00000000000E+00 0. -1.
</event>
<event>
 7    1  0.1466590E-008  0.4614232E+02  0.7816164E-02  0.1320468E+00
        -11   -1    0    0    0    0  0.00000000000E+00  0.00000000000E+00  0.45593999997E+02  0.45594000000E+02  0.51100000000E-03 0.  1.
         11   -1    0    0    0    0 -0.00000000000E+00 -0.00000000000E+00 -0.45593999997E+02  0.45594000000E+02  0.51100000000E-03 0. -1.
    9900012    2    1    2    0    0 -0.18832283819E+02  0.12252991334E+02  0.39042576496E+02  0.46142317744E+02  0.99999998457E+01 0.  0.
         12    1    1    2    0    0  0.18832283819E+02 -0.12252991334E+02 -0.39042576496E+02  0.45045682256E+02  0.00000000000E+00 0. -1.
         11    1    3    3    0    0 -0.45112562878E+01 -0.12764671413E+01  0.84359725645E+01  0.96512400771E+01  0.51100000000E-03 0. -1.
        -11    1    3    3    0    0 -0.18162511220E+01  0.17691705258E+01  0.57375006808E+01  0.62727702661E+01  0.51100000000E-03 0.  1.
         12    1    3    3    0    0 -0.12504776409E+02  0.11760287950E+02  0.24869103251E+02  0.30218307401E+02  0.00000000000E+00 0. -1.
</event>
<event>
 7    1  0.1466590E-008  0.4614232E+02  0.7816164E-02  0.1320468E+00
        -11   -1    0    0    0    0  0.00000000000E+00  0.00000000000E+00  0.45593999997E+02  0.45594000000E+02  0.51100000000E-03 0.  1.
         11   -1    0    0    0    0 -0.00000000000E+00 -0.00000000000E+00 -0.45593999997E+02  0.45594000000E+02  0.51100000000E-03 0. -1.
    9900012    2    1    2    0    0  0.12817205228E+02 -0.23481493580E+02  0.36241581569E+02  0.46142317352E+02  0.99999962709E+01 0.  0.
         12    1    1    2    0    0 -0.12817205228E+02  0.23481493580E+02 -0.36241581569E+02  0.45045682648E+02  0.00000000000E+00 0. -1.
         11    1    3    3    0    0  0.16166149051E+01 -0.27834728338E+01  0.18714244045E+01  0.37233579375E+01  0.51100000000E-03 0. -1.
        -11    1    3    3    0    0  0.31396098554E+01 -0.12143906969E+02  0.13229263969E+02  0.18230333292E+02  0.51100000000E-03 0.  1.
        -12    1    3    3    0    0  0.80609804674E+01 -0.85541137777E+01  0.21140893195E+02  0.24188626123E+02  0.00000000000E+00 0.  1.
</event>
<event>
 7    1  0.1466590E-008  0.4614232E+02  0.7816164E-02  0.1320468E+00
        -11   -1    0    0    0    0  0.00000000000E+00  0.00000000000E+00  0.45593999997E+02  0.45594000000E+02  0.51100000000E-03 0.  1.
         11   -1    0    0    0    0 -0.00000000000E+00 -0.00000000000E+00 -0.45593999997E+02  0.45594000000E+02  0.51100000000E-03 0. -1.
    9900012    2    1    2    0    0  0.68343935621E+01  0.13613545954E+02  0.42391932341E+02  0.46142317672E+02  0.99999991860E+01 0.  0.
         12    1    1    2    0    0 -0.68343935621E+01 -0.13613545954E+02 -0.42391932341E+02  0.45045682328E+02  0.00000000000E+00 0. -1.
         11    1    3    3    0    0  0.93040428750E+00  0.41815130967E+00  0.10006822462E+01  0.14289394231E+01  0.51100000000E-03 0. -1.
        -11    1    3    3    0    0 -0.50062188754E+00  0.94011185389E+01  0.24878742801E+02  0.26600441645E+02  0.51100000000E-03 0.  1.
        -12    1    3    3    0    0  0.64046111621E+01  0.37942761050E+01  0.16512507294E+02  0.18112936604E+02  0.00000000000E+00 0.  1.
</event>
<event>
 7    1  0.1466590E-008  0.4614232E+02  0.7816164E-02  0.1320468E+00
        -11   -1    0    0    0    0  0.00000000000E+00  0.00000000000E+00  0.45593999997E+02  0.45594000000E+02  0.51100000000E-03 0.  1.
         11   -1    0    0    0    0 -0.00000000000E+00 -0.00000000000E+00 -0.45593999997E+02  0.45594000000E+02  0.51100000000E-03 0. -1.
    9900012    2    1    2    0    0  0.34976641887E+02 -0.14481400828E+02  0.24413870218E+02  0.46142317558E+02  0.99999981468E+01 0.  0.
         12    1    1    2    0    0 -0.34976641887E+02  0.14481400828E+02 -0.24413870218E+02  0.45045682442E+02  0.00000000000E+00 0. -1.
         11    1    3    3    0    0  0.64717021114E+00  0.95408643379E+00  0.63548349903E+00  0.13164154906E+01  0.51100000000E-03 0. -1.
        -11    1    3    3    0    0  0.24399495736E+02 -0.83199094858E+01  0.16441177641E+02  0.30575621147E+02  0.51100000000E-03 0.  1.
        -12    1    3    3    0    0  0.99299759396E+01 -0.71155777761E+01  0.73372090780E+01  0.14250280920E+02  0.00000000000E+00 0.  1.
</event>
<event>
 7    1  0.1466590E-008  0.4614232E+02  0.7816164E-02  0.1320468E+00
        -11   -1    0    0    0    0  0.00000000000E+00  0.00000000000E+00  0.45593999997E+02  0.45594000000E+02  0.51100000000E-03 0. -1.
         11   -1    0    0    0    0 -0.00000000000E+00 -0.00000000000E+00 -0.45593999997E+02  0.45594000000E+02  0.51100000000E-03 0.  1.
    9900012    2    1    2    0    0  0.34528376678E+02  0.24359997277E+02 -0.15604336650E+02  0.46142316681E+02  0.99999901522E+01 0.  0.
         12    1    1    2    0    0 -0.34528376678E+02 -0.24359997277E+02  0.15604336650E+02  0.45045683319E+02  0.00000000000E+00 0. -1.
         11    1    3    3    0    0  0.23840626149E+01  0.11959269284E+01 -0.18288473930E+01  0.32339880670E+01  0.51100000000E-03 0. -1.
        -11    1    3    3    0    0 -0.27824608490E+00 -0.34361831681E+00 -0.60701508173E+00  0.75097403549E+00  0.51100000000E-03 0.  1.
        -12    1    3    3    0    0  0.32422560148E+02  0.23507688666E+02 -0.13168474175E+02  0.42157354579E+02  0.00000000000E+00 0.  1.
</event>
<event>
 7    1  0.1466590E-008  0.4614232E+02  0.7816164E-02  0.1320468E+00
        -11   -1    0    0    0    0  0.00000000000E+00  0.00000000000E+00  0.45593999997E+02  0.45594000000E+02  0.51100000000E-03 0.  1.
         11   -1    0    0    0    0 -0.00000000000E+00 -0.00000000000E+00 -0.45593999997E+02  0.45594000000E+02  0.51100000000E-03 0. -1.
    9900012    2    1    2    0    0  0.33690560215E+02  0.28082815043E+02  0.10267188270E+02  0.46142317595E+02  0.99999984878E+01 0.  0.
         12    1    1    2    0    0 -0.33690560215E+02 -0.28082815043E+02 -0.10267188270E+02  0.45045682405E+02  0.00000000000E+00 0. -1.
         11    1    3    3    0    0 -0.28614568060E-01  0.15854569845E+00 -0.41600877711E+00  0.44611556323E+00  0.51100000000E-03 0. -1.
        -11    1    3    3    0    0  0.79275791141E+01  0.27729628033E+01  0.23238917470E+01  0.87141440447E+01  0.51100000000E-03 0.  1.
        -12    1    3    3    0    0  0.25791595669E+02  0.25151306541E+02  0.83593052998E+01  0.36982057987E+02  0.00000000000E+00 0.  1.
</event>
<event>
 7    1  0.1466590E-008  0.4614232E+02  0.7816164E-02  0.1320468E+00
        -11   -1    0    0    0    0  0.00000000000E+00  0.00000000000E+00  0.45593999997E+02  0.45594000000E+02  0.51100000000E-03 0.  1.
         11   -1    0    0    0    0 -0.00000000000E+00 -0.00000000000E+00 -0.45593999997E+02  0.45594000000E+02  0.51100000000E-03 0. -1.
    9900012    2    1    2    0    0 -0.20113593010E+02 -0.13087464134E+02  0.38121846134E+02  0.46142317700E+02  0.99999994449E+01 0.  0.
         12    1    1    2    0    0  0.20113593010E+02  0.13087464134E+02 -0.38121846134E+02  0.45045682300E+02  0.00000000000E+00 0. -1.
         11    1    3    3    0    0  0.23364751845E+00 -0.71171000043E+00 -0.22530935249E+00  0.78223196881E+00  0.51100000000E-03 0. -1.
        -11    1    3    3    0    0 -0.15848114177E+02 -0.73491422779E+01  0.28334531286E+02  0.33286908517E+02  0.51100000000E-03 0.  1.
         12    1    3    3    0    0 -0.44991263515E+01 -0.50266118553E+01  0.10012624201E+02  0.12073177214E+02  0.00000000000E+00 0. -1.
</event>
<event>
 7    1  0.1466590E-008  0.4614232E+02  0.7816164E-02  0.1320468E+00
        -11   -1    0    0    0    0  0.00000000000E+00  0.00000000000E+00  0.45593999997E+02  0.45594000000E+02  0.51100000000E-03 0.  1.
         11   -1    0    0    0    0 -0.00000000000E+00 -0.00000000000E+00 -0.45593999997E+02  0.45594000000E+02  0.51100000000E-03 0. -1.
    9900012    2    1    2    0    0  0.37389094403E+02  0.24812543252E+02  0.39378443921E+01  0.46142319836E+02  0.10000018925E+02 0.  0.
         12    1    1    2    0    0 -0.37389094403E+02 -0.24812543252E+02 -0.39378443921E+01  0.45045680164E+02  0.00000000000E+00 0. -1.
         11    1    3    3    0    0  0.15479123102E+02  0.83411885419E+01 -0.13362205394E+01  0.17634176020E+02  0.51100000000E-03 0. -1.
        -11    1    3    3    0    0  0.17056492581E+02  0.12861545638E+02  0.65147398548E+01  0.22333497957E+02  0.51100000000E-03 0.  1.
        -12    1    3    3    0    0  0.48534787202E+01  0.36098090730E+01 -0.12406749233E+01  0.61746458600E+01  0.00000000000E+00 0.  1.
</event>
<event>
 7    1  0.1466590E-008  0.4614232E+02  0.7816164E-02  0.1320468E+00
        -11   -1    0    0    0    0  0.00000000000E+00  0.00000000000E+00  0.45593999997E+02  0.45594000000E+02  0.51100000000E-03 0. -1.
         11   -1    0    0    0    0 -0.00000000000E+00 -0.00000000000E+00 -0.45593999997E+02  0.45594000000E+02  0.51100000000E-03 0.  1.
    9900012    2    1    2    0    0  0.12968904241E+02  0.26500375928E+02 -0.34038961839E+02  0.46142319579E+02  0.10000016576E+02 0.  0.
         12    1    1    2    0    0 -0.12968904241E+02 -0.26500375928E+02  0.34038961839E+02  0.45045680421E+02  0.00000000000E+00 0. -1.
         11    1    3    3    0    0  0.27939694631E+01  0.83312767547E+01 -0.14554516441E+02  0.17001481900E+02  0.51100000000E-03 0. -1.
        -11    1    3    3    0    0  0.54147780967E+00  0.30833425088E+01 -0.58687250500E+01  0.66514760181E+01  0.51100000000E-03 0.  1.
         12    1    3    3    0    0  0.96334569681E+01  0.15085756664E+02 -0.13615720348E+02  0.22489361660E+02  0.00000000000E+00 0. -1.
</event>
<event>
 7    1  0.1466590E-008  0.4614232E+02  0.7816164E-02  0.1320468E+00
        -11   -1    0    0    0    0  0.00000000000E+00  0.00000000000E+00  0.45593999997E+02  0.45594000000E+02  0.51100000000E-03 0.  1.
         11   -1    0    0    0    0 -0.00000000000E+00 -0.00000000000E+00 -0.45593999997E+02  0.45594000000E+02  0.51100000000E-03 0. -1.
    9900012    2    1    2    0    0 -0.24076692194E+02  0.38017911746E+02  0.20161213412E+01  0.46142318012E+02  0.10000002289E+02 0.  0.
         12    1    1    2    0    0  0.24076692194E+02 -0.38017911746E+02 -0.20161213412E+01  0.45045681988E+02  0.00000000000E+00 0. -1.
         11    1    3    3    0    0 -0.50344731788E-01  0.48238913321E+01 -0.13918120134E+01  0.50209165616E+01  0.51100000000E-03 0. -1.
        -11    1    3    3    0    0 -0.14301939576E+02  0.20123068387E+02  0.19357094760E+01  0.24763487807E+02  0.51100000000E-03 0.  1.
         12    1    3    3    0    0 -0.97244078864E+01  0.13070952027E+02  0.14722238786E+01  0.16357913644E+02  0.00000000000E+00 0. -1.
</event>
<event>
 7    1  0.1466590E-008  0.4614232E+02  0.7816164E-02  0.1320468E+00
        -11   -1    0    0    0    0  0.00000000000E+00  0.00000000000E+00  0.45593999997E+02  0.45594000000E+02  0.51100000000E-03 0.  1.
         11   -1    0    0    0    0 -0.00000000000E+00 -0.00000000000E+00 -0.45593999997E+02  0.45594000000E+02  0.51100000000E-03 0. -1.
    9900012    2    1    2    0    0 -0.18592457109E+02  0.15970226206E+02  0.37793992284E+02  0.46142318306E+02  0.10000004973E+02 0.  0.
         12    1    1    2    0    0  0.18592457109E+02 -0.15970226206E+02 -0.37793992284E+02  0.45045681694E+02  0.00000000000E+00 0. -1.
         11    1    3    3    0    0 -0.28753166127E+01  0.12864317419E+00  0.18672854088E+01  0.34308526271E+01  0.51100000000E-03 0. -1.
        -11    1    3    3    0    0 -0.15816353487E+02  0.15486229182E+02  0.36066004839E+02  0.42317101002E+02  0.51100000000E-03 0.  1.
         12    1    3    3    0    0  0.99212990558E-01  0.35535384993E+00 -0.13929796333E+00  0.39436467735E+00  0.00000000000E+00 0. -1.
</event>
<event>
 7    1  0.1466590E-008  0.4614232E+02  0.7816164E-02  0.1320468E+00
        -11   -1    0    0    0    0  0.00000000000E+00  0.00000000000E+00  0.45593999997E+02  0.45594000000E+02  0.51100000000E-03 0.  1.
         11   -1    0    0    0    0 -0.00000000000E+00 -0.00000000000E+00 -0.45593999997E+02  0.45594000000E+02  0.51100000000E-03 0. -1.
    9900012    2    1    2    0    0  0.25425045940E+02  0.15138146127E+02  0.33963466995E+02  0.46142317415E+02  0.99999968424E+01 0.  0.
         12    1    1    2    0    0 -0.25425045940E+02 -0.15138146127E+02 -0.33963466995E+02  0.45045682585E+02  0.00000000000E+00 0. -1.
         11    1    3    3    0    0  0.26917053802E+01  0.52895417433E+00  0.45749299705E+00  0.27810736193E+01  0.51100000000E-03 0. -1.
        -11    1    3    3    0    0  0.20640723118E+02  0.12390547066E+02  0.26988648349E+02  0.36165622453E+02  0.51100000000E-03 0.  1.
        -12    1    3    3    0    0  0.20926174419E+01  0.22186448869E+01  0.65173256486E+01  0.71956213423E+01  0.00000000000E+00 0.  1.
</event>
<event>
 7    1  0.1466590E-008  0.4614232E+02  0.7816164E-02  0.1320468E+00
        -11   -1    0    0    0    0  0.00000000000E+00  0.00000000000E+00  0.45593999997E+02  0.45594000000E+02  0.51100000000E-03 0.  1.
         11   -1    0    0    0    0 -0.00000000000E+00 -0.00000000000E+00 -0.45593999997E+02  0.45594000000E+02  0.51100000000E-03 0. -1.
    9900012    2    1    2    0    0  0.14070581118E+02 -0.31810044155E+02  0.28622601777E+02  0.46142317692E+02  0.99999993696E+01 0.  0.
         12    1    1    2    0    0 -0.14070581118E+02  0.31810044155E+02 -0.28622601777E+02  0.45045682308E+02  0.00000000000E+00 0. -1.
         11    1    3    3    0    0  0.10193894924E+01 -0.90628619201E+01  0.44543142760E+01  0.10149656992E+02  0.51100000000E-03 0. -1.
        -11    1    3    3    0    0  0.42327313676E+01 -0.38053577243E+01  0.64026489107E+01  0.85668357972E+01  0.51100000000E-03 0.  1.
         12    1    3    3    0    0  0.88184602583E+01 -0.18941824510E+02  0.17765638590E+02  0.27425824903E+02  0.00000000000E+00 0. -1.
</event>
<event>
 7    1  0.1466590E-008  0.4614232E+02  0.7816164E-02  0.1320468E+00
        -11   -1    0    0    0    0  0.00000000000E+00  0.00000000000E+00  0.45593999997E+02  0.45594000000E+02  0.51100000000E-03 0.  1.
         11   -1    0    0    0    0 -0.00000000000E+00 -0.00000000000E+00 -0.45593999997E+02  0.45594000000E+02  0.51100000000E-03 0. -1.
    9900012    2    1    2    0    0  0.12224081212E+02  0.31760487205E+02  0.29511979698E+02  0.46142315915E+02  0.99999831670E+01 0.  0.
         12    1    1    2    0    0 -0.12224081212E+02 -0.31760487205E+02 -0.29511979698E+02  0.45045684085E+02  0.00000000000E+00 0. -1.
         11    1    3    3    0    0  0.31962676044E+00  0.10856670919E+02  0.79173474493E+01  0.13440753535E+02  0.51100000000E-03 0. -1.
        -11    1    3    3    0    0  0.45486793283E+01  0.91593273520E+01  0.12389648986E+02  0.16065091454E+02  0.51100000000E-03 0.  1.
        -12    1    3    3    0    0  0.73557751235E+01  0.11744488934E+02  0.92049832628E+01  0.16636470925E+02  0.00000000000E+00 0.  1.
</event>
<event>
 7    1  0.1466590E-008  0.4614232E+02  0.7816164E-02  0.1320468E+00
        -11   -1    0    0    0    0  0.00000000000E+00  0.00000000000E+00  0.45593999997E+02  0.45594000000E+02  0.51100000000E-03 0. -1.
         11   -1    0    0    0    0 -0.00000000000E+00 -0.00000000000E+00 -0.45593999997E+02  0.45594000000E+02  0.51100000000E-03 0.  1.
    9900012    2    1    2    0    0 -0.11506605608E+02  0.21647969456E+02 -0.37789904528E+02  0.46142318316E+02  0.10000005056E+02 0.  0.
         12    1    1    2    0    0  0.11506605608E+02 -0.21647969456E+02  0.37789904528E+02  0.45045681684E+02  0.00000000000E+00 0. -1.
         11    1    3    3    0    0 -0.58140430680E+01  0.45936458336E+01 -0.12297174957E+02  0.14357060668E+02  0.51100000000E-03 0.  1.
        -11    1    3    3    0    0 -0.55309818806E+01  0.69857979134E+01 -0.12321530079E+02  0.15205697511E+02  0.51100000000E-03 0. -1.
         12    1    3    3    0    0 -0.16158065979E+00  0.10068525709E+02 -0.13171199492E+02  0.16579560136E+02  0.00000000000E+00 0. -1.
</event>
<event>
 7    1  0.1466590E-008  0.4614232E+02  0.7816164E-02  0.1320468E+00
        -11   -1    0    0    0    0  0.00000000000E+00  0.00000000000E+00  0.45593999997E+02  0.45594000000E+02  0.51100000000E-03 0.  1.
         11   -1    0    0    0    0 -0.00000000000E+00 -0.00000000000E+00 -0.45593999997E+02  0.45594000000E+02  0.51100000000E-03 0. -1.
    9900012    2    1    2    0    0  0.21715374152E+02  0.21572154038E+02  0.33048423710E+02  0.46142316365E+02  0.99999872730E+01 0.  0.
         12    1    1    2    0    0 -0.21715374152E+02 -0.21572154038E+02 -0.33048423710E+02  0.45045683635E+02  0.00000000000E+00 0. -1.
         11    1    3    3    0    0  0.22629912462E+01  0.29934712458E+01  0.15998945848E+01  0.40794193734E+01  0.51100000000E-03 0. -1.
        -11    1    3    3    0    0  0.18259450593E+02  0.18239449285E+02  0.31614851675E+02  0.40811565675E+02  0.51100000000E-03 0.  1.
        -12    1    3    3    0    0  0.11929323122E+01  0.33923350697E+00 -0.16632254950E+00  0.12513313167E+01  0.00000000000E+00 0.  1.
</event>
<event>
 7    1  0.1466590E-008  0.4614232E+02  0.7816164E-02  0.1320468E+00
        -11   -1    0    0    0    0  0.00000000000E+00  0.00000000000E+00  0.45593999997E+02  0.45594000000E+02  0.51100000000E-03 0.  1.
         11   -1    0    0    0    0 -0.00000000000E+00 -0.00000000000E+00 -0.45593999997E+02  0.45594000000E+02  0.51100000000E-03 0. -1.
    9900012    2    1    2    0    0  0.36700299052E+02 -0.22212000908E+02  0.13741494707E+02  0.46142316392E+02  0.99999875190E+01 0.  0.
         12    1    1    2    0    0 -0.36700299052E+02  0.22212000908E+02 -0.13741494707E+02  0.45045683608E+02  0.00000000000E+00 0. -1.
         11    1    3    3    0    0  0.17676875172E+01 -0.39466020143E+01  0.19085540572E+01  0.47268346140E+01  0.51100000000E-03 0. -1.
        -11    1    3    3    0    0  0.22922540266E+02 -0.13277214783E+02  0.59926755610E+01  0.27159518502E+02  0.51100000000E-03 0.  1.
         12    1    3    3    0    0  0.12010071270E+02 -0.49881841110E+01  0.58402650889E+01  0.14255963276E+02  0.00000000000E+00 0. -1.
</event>
<event>
 7    1  0.1466590E-008  0.4614232E+02  0.7816164E-02  0.1320468E+00
        -11   -1    0    0    0    0  0.00000000000E+00  0.00000000000E+00  0.45593999997E+02  0.45594000000E+02  0.51100000000E-03 0.  1.
         11   -1    0    0    0    0 -0.00000000000E+00 -0.00000000000E+00 -0.45593999997E+02  0.45594000000E+02  0.51100000000E-03 0. -1.
    9900012    2    1    2    0    0  0.25069733857E+02 -0.24206781805E+02  0.28542134943E+02  0.46142319762E+02  0.10000018244E+02 0.  0.
         12    1    1    2    0    0 -0.25069733857E+02  0.24206781805E+02 -0.28542134943E+02  0.45045680238E+02  0.00000000000E+00 0. -1.
         11    1    3    3    0    0  0.19387358824E+01  0.57465544115E+00  0.19228830997E+01  0.27904131188E+01  0.51100000000E-03 0. -1.
        -11    1    3    3    0    0  0.13284445640E+02 -0.17459078341E+02  0.16625748276E+02  0.27526558420E+02  0.51100000000E-03 0.  1.
         12    1    3    3    0    0  0.98465523349E+01 -0.73223589056E+01  0.99935035676E+01  0.15825348223E+02  0.00000000000E+00 0. -1.
</event>
<event>
 7    1  0.1466590E-008  0.4614232E+02  0.7816164E-02  0.1320468E+00
        -11   -1    0    0    0    0  0.00000000000E+00  0.00000000000E+00  0.45593999997E+02  0.45594000000E+02  0.51100000000E-03 0. -1.
         11   -1    0    0    0    0 -0.00000000000E+00 -0.00000000000E+00 -0.45593999997E+02  0.45594000000E+02  0.51100000000E-03 0.  1.
    9900012    2    1    2    0    0 -0.24686294107E+02 -0.92202581864E+01 -0.36533372766E+02  0.46142316484E+02  0.99999883525E+01 0.  0.
         12    1    1    2    0    0  0.24686294107E+02  0.92202581864E+01  0.36533372766E+02  0.45045683516E+02  0.00000000000E+00 0. -1.
         11    1    3    3    0    0 -0.16841412291E+01 -0.14000595596E+01 -0.34829671682E+00  0.22176134276E+01  0.51100000000E-03 0. -1.
        -11    1    3    3    0    0 -0.16348817844E+02 -0.68633764319E+01 -0.22230799934E+02  0.28435861987E+02  0.51100000000E-03 0.  1.
        -12    1    3    3    0    0 -0.66533350345E+01 -0.95682219490E+00 -0.13954276115E+02  0.15488841070E+02  0.00000000000E+00 0.  1.
</event>
<event>
 7    1  0.1466590E-008  0.4614231E+02  0.7816164E-02  0.1320468E+00
        -11   -1    0    0    0    0  0.00000000000E+00  0.00000000000E+00  0.45593999997E+02  0.45594000000E+02  0.51100000000E-03 0. -1.
         11   -1    0    0    0    0 -0.00000000000E+00 -0.00000000000E+00 -0.45593999997E+02  0.45594000000E+02  0.51100000000E-03 0.  1.
    9900012    2    1    2    0    0  0.25649310696E+02 -0.46952095504E+01 -0.36731208514E+02  0.46142314182E+02  0.99999673609E+01 0.  0.
         12    1    1    2    0    0 -0.25649310696E+02  0.46952095504E+01  0.36731208514E+02  0.45045685818E+02  0.00000000000E+00 0. -1.
         11    1    3    3    0    0  0.17199544235E+02 -0.28047570150E+01 -0.16299904584E+02  0.23861640210E+02  0.51100000000E-03 0. -1.
        -11    1    3    3    0    0  0.42171753889E+01 -0.18980476462E+01 -0.97446250697E+01  0.10786327973E+02  0.51100000000E-03 0.  1.
         12    1    3    3    0    0  0.42325910720E+01  0.75951108711E-02 -0.10686678861E+02  0.11494345999E+02  0.00000000000E+00 0. -1.
</event>
<event>
 7    1  0.1466590E-008  0.4614232E+02  0.7816164E-02  0.1320468E+00
        -11   -1    0    0    0    0  0.00000000000E+00  0.00000000000E+00  0.45593999997E+02  0.45594000000E+02  0.51100000000E-03 0.  1.
         11   -1    0    0    0    0 -0.00000000000E+00 -0.00000000000E+00 -0.45593999997E+02  0.45594000000E+02  0.51100000000E-03 0. -1.
    9900012    2    1    2    0    0  0.31358338340E+02 -0.28623243526E+02  0.15049190596E+02  0.46142316622E+02  0.99999896108E+01 0.  0.
         12    1    1    2    0    0 -0.31358338340E+02  0.28623243526E+02 -0.15049190596E+02  0.45045683378E+02  0.00000000000E+00 0. -1.
         11    1    3    3    0    0  0.11696609990E+02 -0.10274664016E+02  0.79460137491E+01  0.17479088668E+02  0.51100000000E-03 0. -1.
        -11    1    3    3    0    0  0.16418389472E+02 -0.13448151949E+02  0.80742038332E+01  0.22707026919E+02  0.51100000000E-03 0.  1.
         12    1    3    3    0    0  0.32433388785E+01 -0.49004275609E+01 -0.97102698633E+00  0.59562010349E+01  0.00000000000E+00 0. -1.
</event>
<event>
 7    1  0.1466590E-008  0.4614232E+02  0.7816164E-02  0.1320468E+00
        -11   -1    0    0    0    0  0.00000000000E+00  0.00000000000E+00  0.45593999997E+02  0.45594000000E+02  0.51100000000E-03 0.  1.
         11   -1    0    0    0    0 -0.00000000000E+00 -0.00000000000E+00 -0.45593999997E+02  0.45594000000E+02  0.51100000000E-03 0. -1.
    9900012    2    1    2    0    0  0.14076373661E+02  0.13341413422E+02  0.40656806694E+02  0.46142317209E+02  0.99999949678E+01 0.  0.
         12    1    1    2    0    0 -0.14076373661E+02 -0.13341413422E+02 -0.40656806694E+02  0.45045682791E+02  0.00000000000E+00 0. -1.
         11    1    3    3    0    0  0.57856236108E+01  0.98711237172E+01  0.18379126349E+02  0.21649591442E+02  0.51100000000E-03 0. -1.
        -11    1    3    3    0    0  0.37337049947E+01 -0.44776722856E+00  0.12123874155E+02  0.12693674538E+02  0.51100000000E-03 0.  1.
        -12    1    3    3    0    0  0.45570450557E+01  0.39180569333E+01  0.10153806190E+02  0.11799051229E+02  0.00000000000E+00 0.  1.
</event>
<event>
 7    1  0.1466590E-008  0.4614232E+02  0.7816164E-02  0.1320468E+00
        -11   -1    0    0    0    0  0.00000000000E+00  0.00000000000E+00  0.45593999997E+02  0.45594000000E+02  0.51100000000E-03 0.  1.
         11   -1    0    0    0    0 -0.00000000000E+00 -0.00000000000E+00 -0.45593999997E+02  0.45594000000E+02  0.51100000000E-03 0. -1.
    9900012    2    1    2    0    0  0.19850566263E+02  0.40432351983E+02  0.54175082998E+00  0.46142316946E+02  0.99999925661E+01 0.  0.
         12    1    1    2    0    0 -0.19850566263E+02 -0.40432351983E+02 -0.54175082998E+00  0.45045683054E+02  0.00000000000E+00 0. -1.
         11    1    3    3    0    0  0.81379393409E+01  0.14366533126E+02 -0.17547850131E+01  0.16604294670E+02  0.51100000000E-03 0. -1.
        -11    1    3    3    0    0  0.48871926198E+01  0.18568768592E+02  0.27072332401E+01  0.19391052855E+02  0.51100000000E-03 0.  1.
        -12    1    3    3    0    0  0.68254343020E+01  0.74970502649E+01 -0.41069739703E+00  0.10146969421E+02  0.00000000000E+00 0.  1.
</event>
<event>
 7    1  0.1466590E-008  0.4614232E+02  0.7816164E-02  0.1320468E+00
        -11   -1    0    0    0    0  0.00000000000E+00  0.00000000000E+00  0.45593999997E+02  0.45594000000E+02  0.51100000000E-03 0.  1.
         11   -1    0    0    0    0 -0.00000000000E+00 -0.00000000000E+00 -0.45593999997E+02  0.45594000000E+02  0.51100000000E-03 0. -1.
    9900012    2    1    2    0    0 -0.27697714075E+01  0.20372744213E+02  0.40079834859E+02  0.46142317601E+02  0.99999985412E+01 0.  0.
         12    1    1    2    0    0  0.27697714075E+01 -0.20372744213E+02 -0.40079834859E+02  0.45045682399E+02  0.00000000000E+00 0. -1.
         11    1    3    3    0    0  0.27604545311E+01  0.32650809263E+01  0.95918159032E+01  0.10501609175E+02  0.51100000000E-03 0. -1.
        -11    1    3    3    0    0 -0.17799829165E+01  0.11118889322E+02  0.20759335176E+02  0.23616689779E+02  0.51100000000E-03 0.  1.
         12    1    3    3    0    0 -0.37502430221E+01  0.59887739647E+01  0.97286837805E+01  0.12024018647E+02  0.00000000000E+00 0. -1.
</event>
<event>
 7    1  0.1466590E-008  0.4614231E+02  0.7816164E-02  0.1320468E+00
        -11   -1    0    0    0    0  0.00000000000E+00  0.00000000000E+00  0.45593999997E+02  0.45594000000E+02  0.51100000000E-03 0.  1.
         11   -1    0    0    0    0 -0.00000000000E+00 -0.00000000000E+00 -0.45593999997E+02  0.45594000000E+02  0.51100000000E-03 0. -1.
    9900012    2    1    2    0    0 -0.43503923190E+02 -0.89701461327E+01  0.74872527620E+01  0.46142314208E+02  0.99999676023E+01 0.  0.
         12    1    1    2    0    0  0.43503923190E+02  0.89701461327E+01 -0.74872527620E+01  0.45045685792E+02  0.00000000000E+00 0. -1.
         11    1    3    3    0    0 -0.31418784886E+02 -0.41187706355E+01  0.89394550061E+01  0.32924431223E+02  0.51100000000E-03 0. -1.
        -11    1    3    3    0    0 -0.11583645281E+02 -0.49858562628E+01 -0.14816919901E+01  0.12697834937E+02  0.51100000000E-03 0.  1.
        -12    1    3    3    0    0 -0.50149302264E+00  0.13448076564E+00  0.29489746072E-01  0.52004804894E+00  0.00000000000E+00 0.  1.
</event>
<event>
 7    1  0.1466590E-008  0.4614232E+02  0.7816164E-02  0.1320468E+00
        -11   -1    0    0    0    0  0.00000000000E+00  0.00000000000E+00  0.45593999997E+02  0.45594000000E+02  0.51100000000E-03 0.  1.
         11   -1    0    0    0    0 -0.00000000000E+00 -0.00000000000E+00 -0.45593999997E+02  0.45594000000E+02  0.51100000000E-03 0. -1.
    9900012    2    1    2    0    0  0.19957547529E+02  0.13880913172E+02  0.37922685183E+02  0.46142317573E+02  0.99999982836E+01 0.  0.
         12    1    1    2    0    0 -0.19957547529E+02 -0.13880913172E+02 -0.37922685183E+02  0.45045682427E+02  0.00000000000E+00 0. -1.
         11    1    3    3    0    0  0.36050373402E+01  0.43514377144E+01  0.10226581956E+02  0.11683932693E+02  0.51100000000E-03 0. -1.
        -11    1    3    3    0    0  0.12255191537E+02  0.27786347509E+01  0.18019400631E+02  0.21968371129E+02  0.51100000000E-03 0.  1.
        -12    1    3    3    0    0  0.40973186516E+01  0.67508407067E+01  0.96767025954E+01  0.12490013751E+02  0.00000000000E+00 0.  1.
</event>
<event>
 7    1  0.1466590E-008  0.4614232E+02  0.7816164E-02  0.1320468E+00
        -11   -1    0    0    0    0  0.00000000000E+00  0.00000000000E+00  0.45593999997E+02  0.45594000000E+02  0.51100000000E-03 0.  1.
         11   -1    0    0    0    0 -0.00000000000E+00 -0.00000000000E+00 -0.45593999997E+02  0.45594000000E+02  0.51100000000E-03 0. -1.
    9900012    2    1    2    0    0  0.15115350466E+02 -0.24654030436E+02  0.34537206126E+02  0.46142316040E+02  0.99999843024E+01 0.  0.
         12    1    1    2    0    0 -0.15115350466E+02  0.24654030436E+02 -0.34537206126E+02  0.45045683960E+02  0.00000000000E+00 0. -1.
         11    1    3    3    0    0  0.24207897946E+01 -0.19929812236E+01  0.57118736445E+00  0.31872327580E+01  0.51100000000E-03 0. -1.
        -11    1    3    3    0    0  0.10825523811E+02 -0.15667964408E+02  0.24005564820E+02  0.30642196675E+02  0.51100000000E-03 0.  1.
        -12    1    3    3    0    0  0.18690368607E+01 -0.69930848044E+01  0.99604539416E+01  0.12312886607E+02  0.00000000000E+00 0.  1.
</event>
<event>
 7    1  0.1466590E-008  0.4614232E+02  0.7816164E-02  0.1320468E+00
        -11   -1    0    0    0    0  0.00000000000E+00  0.00000000000E+00  0.45593999997E+02  0.45594000000E+02  0.51100000000E-03 0.  1.
         11   -1    0    0    0    0 -0.00000000000E+00 -0.00000000000E+00 -0.45593999997E+02  0.45594000000E+02  0.51100000000E-03 0. -1.
    9900012    2    1    2    0    0 -0.20110162891E+02  0.36660389666E+02  0.16754422867E+02  0.46142317548E+02  0.99999980559E+01 0.  0.
         12    1    1    2    0    0  0.20110162891E+02 -0.36660389666E+02 -0.16754422867E+02  0.45045682452E+02  0.00000000000E+00 0. -1.
         11    1    3    3    0    0 -0.16627054084E+02  0.27586172025E+02  0.11057656376E+02  0.34054773223E+02  0.51100000000E-03 0. -1.
        -11    1    3    3    0    0 -0.22938029060E+01  0.45069946281E+01  0.52228005096E+00  0.50840248880E+01  0.51100000000E-03 0.  1.
         12    1    3    3    0    0 -0.11893059006E+01  0.45672230133E+01  0.51744864405E+01  0.70035194367E+01  0.00000000000E+00 0. -1.
</event>
<event>
 7    1  0.1466590E-008  0.4614232E+02  0.7816164E-02  0.1320468E+00
        -11   -1    0    0    0    0  0.00000000000E+00  0.00000000000E+00  0.45593999997E+02  0.45594000000E+02  0.51100000000E-03 0.  1.
         11   -1    0    0    0    0 -0.00000000000E+00 -0.00000000000E+00 -0.45593999997E+02  0.45594000000E+02  0.51100000000E-03 0. -1.
    9900012    2    1    2    0    0 -0.70726403761E+00 -0.28329607114E+02  0.35014947469E+02  0.46142318654E+02  0.10000008143E+02 0.  0.
         12    1    1    2    0    0  0.70726403761E+00  0.28329607114E+02 -0.35014947469E+02  0.45045681346E+02  0.00000000000E+00 0. -1.
         11    1    3    3    0    0 -0.37865440926E+00 -0.18011354658E+02  0.16026944845E+02  0.24112553517E+02  0.51100000000E-03 0. -1.
        -11    1    3    3    0    0 -0.30011974441E+00  0.34789872245E+00  0.12508169925E+01  0.13325347245E+01  0.51100000000E-03 0.  1.
        -12    1    3    3    0    0 -0.28489883936E-01 -0.10666151179E+02  0.17737185631E+02  0.20697230413E+02  0.00000000000E+00 0.  1.
</event>
<event>
 7    1  0.1466590E-008  0.4614232E+02  0.7816164E-02  0.1320468E+00
        -11   -1    0    0    0    0  0.00000000000E+00  0.00000000000E+00  0.45593999997E+02  0.45594000000E+02  0.51100000000E-03 0. -1.
         11   -1    0    0    0    0 -0.00000000000E+00 -0.00000000000E+00 -0.45593999997E+02  0.45594000000E+02  0.51100000000E-03 0.  1.
    9900012    2    1    2    0    0  0.40080985339E+02 -0.16157952290E+02  0.12710186599E+02  0.46142315952E+02  0.99999835056E+01 0.  0.
         12    1    1    2    0    0 -0.40080985339E+02  0.16157952290E+02 -0.12710186599E+02  0.45045684048E+02  0.00000000000E+00 0. -1.
         11    1    3    3    0    0  0.18170072151E+02 -0.10310940192E+02  0.89339500490E+01  0.22721850131E+02  0.51100000000E-03 0. -1.
        -11    1    3    3    0    0  0.10237188658E+02 -0.17683066618E+01 -0.32059632763E+00  0.10393734763E+02  0.51100000000E-03 0.  1.
         12    1    3    3    0    0  0.11673724530E+02 -0.40787054370E+01  0.40968328774E+01  0.13026731058E+02  0.00000000000E+00 0. -1.
</event>
<event>
 7    1  0.1466590E-008  0.4614232E+02  0.7816164E-02  0.1320468E+00
        -11   -1    0    0    0    0  0.00000000000E+00  0.00000000000E+00  0.45593999997E+02  0.45594000000E+02  0.51100000000E-03 0.  1.
         11   -1    0    0    0    0 -0.00000000000E+00 -0.00000000000E+00 -0.45593999997E+02  0.45594000000E+02  0.51100000000E-03 0. -1.
    9900012    2    1    2    0    0  0.20689732021E+02  0.40004702282E+02  0.81989612470E+00  0.46142318238E+02  0.10000004349E+02 0.  0.
         12    1    1    2    0    0 -0.20689732021E+02 -0.40004702282E+02 -0.81989612470E+00  0.45045681762E+02  0.00000000000E+00 0. -1.
         11    1    3    3    0    0  0.20171073205E+01  0.55959355286E+01 -0.12796923727E+01  0.60844744401E+01  0.51100000000E-03 0. -1.
        -11    1    3    3    0    0  0.95673966883E+01  0.15193316519E+02 -0.29689889418E+01  0.18198539552E+02  0.51100000000E-03 0.  1.
         12    1    3    3    0    0  0.91052280119E+01  0.19215450234E+02  0.50685774392E+01  0.21859304246E+02  0.00000000000E+00 0. -1.
</event>
<event>
 7    1  0.1466590E-008  0.4614232E+02  0.7816164E-02  0.1320468E+00
        -11   -1    0    0    0    0  0.00000000000E+00  0.00000000000E+00  0.45593999997E+02  0.45594000000E+02  0.51100000000E-03 0.  1.
         11   -1    0    0    0    0 -0.00000000000E+00 -0.00000000000E+00 -0.45593999997E+02  0.45594000000E+02  0.51100000000E-03 0. -1.
    9900012    2    1    2    0    0 -0.50225260318E+01 -0.95424160843E+01  0.43735910879E+02  0.46142319043E+02  0.10000011691E+02 0.  0.
         12    1    1    2    0    0  0.50225260318E+01  0.95424160843E+01 -0.43735910879E+02  0.45045680957E+02  0.00000000000E+00 0. -1.
         11    1    3    3    0    0 -0.43308417240E+01 -0.40401739637E+01  0.27411977278E+02  0.28044530558E+02  0.51100000000E-03 0. -1.
        -11    1    3    3    0    0 -0.13096121428E+00 -0.62062112718E+01  0.15964090690E+02  0.17128525943E+02  0.51100000000E-03 0.  1.
        -12    1    3    3    0    0 -0.56072309351E+00  0.70396915116E+00  0.35984291140E+00  0.96926254145E+00  0.00000000000E+00 0.  1.
</event>
<event>
 7    1  0.1466590E-008  0.4614232E+02  0.7816164E-02  0.1320468E+00
        -11   -1    0    0    0    0  0.00000000000E+00  0.00000000000E+00  0.45593999997E+02  0.45594000000E+02  0.51100000000E-03 0.  1.
         11   -1    0    0    0    0 -0.00000000000E+00 -0.00000000000E+00 -0.45593999997E+02  0.45594000000E+02  0.51100000000E-03 0. -1.
    9900012    2    1    2    0    0 -0.19000401292E+02  0.10711094541E+02  0.39412823778E+02  0.46142317924E+02  0.10000001485E+02 0.  0.
         12    1    1    2    0    0  0.19000401292E+02 -0.10711094541E+02 -0.39412823778E+02  0.45045682076E+02  0.00000000000E+00 0. -1.
         11    1    3    3    0    0 -0.24700893469E+01  0.29601824705E+01  0.21864527282E+01  0.44322226291E+01  0.51100000000E-03 0. -1.
        -11    1    3    3    0    0 -0.13290699318E+02  0.74971925866E+01  0.27429222432E+02  0.31388100110E+02  0.51100000000E-03 0.  1.
         12    1    3    3    0    0 -0.32396126275E+01  0.25371948365E+00  0.97971486184E+01  0.10321995185E+02  0.00000000000E+00 0. -1.
</event>
<event>
 7    1  0.1466590E-008  0.4614232E+02  0.7816164E-02  0.1320468E+00
        -11   -1    0    0    0    0  0.00000000000E+00  0.00000000000E+00  0.45593999997E+02  0.45594000000E+02  0.51100000000E-03 0.  1.
         11   -1    0    0    0    0 -0.00000000000E+00 -0.00000000000E+00 -0.45593999997E+02  0.45594000000E+02  0.51100000000E-03 0. -1.
    9900012    2    1    2    0    0  0.32580993602E+02  0.20980821877E+02  0.22965136535E+02  0.46142317334E+02  0.99999961095E+01 0.  0.
         12    1    1    2    0    0 -0.32580993602E+02 -0.20980821877E+02 -0.22965136535E+02  0.45045682666E+02  0.00000000000E+00 0. -1.
         11    1    3    3    0    0  0.27934134791E+01  0.21292306395E+01 -0.61391013394E+00  0.35656230725E+01  0.51100000000E-03 0. -1.
        -11    1    3    3    0    0  0.26285623788E+02  0.17286314679E+02  0.22183288195E+02  0.38494791446E+02  0.51100000000E-03 0.  1.
         12    1    3    3    0    0  0.35019563353E+01  0.15652765589E+01  0.13957584735E+01  0.40819028157E+01  0.00000000000E+00 0. -1.
</event>
<event>
 7    1  0.1466590E-008  0.4614232E+02  0.7816164E-02  0.1320468E+00
        -11   -1    0    0    0    0  0.00000000000E+00  0.00000000000E+00  0.45593999997E+02  0.45594000000E+02  0.51100000000E-03 0. -1.
         11   -1    0    0    0    0 -0.00000000000E+00 -0.00000000000E+00 -0.45593999997E+02  0.45594000000E+02  0.51100000000E-03 0.  1.
    9900012    2    1    2    0    0  0.22362235237E+02  0.39068821402E+02  0.16343396248E+01  0.46142318337E+02  0.10000005250E+02 0.  0.
         12    1    1    2    0    0 -0.22362235237E+02 -0.39068821402E+02 -0.16343396248E+01  0.45045681663E+02  0.00000000000E+00 0. -1.
         11    1    3    3    0    0  0.11126271216E+02  0.15798623705E+02 -0.24356958577E+01  0.19476217207E+02  0.51100000000E-03 0. -1.
        -11    1    3    3    0    0  0.21224783319E+01  0.53019195679E+01  0.30937961380E+01  0.64951397352E+01  0.51100000000E-03 0.  1.
        -12    1    3    3    0    0  0.91134856891E+01  0.17968278129E+02  0.97623934446E+00  0.20170961395E+02  0.00000000000E+00 0.  1.
</event>
<event>
 7    1  0.1466590E-008  0.4614232E+02  0.7816164E-02  0.1320468E+00
        -11   -1    0    0    0    0  0.00000000000E+00  0.00000000000E+00  0.45593999997E+02  0.45594000000E+02  0.51100000000E-03 0. -1.
         11   -1    0    0    0    0 -0.00000000000E+00 -0.00000000000E+00 -0.45593999997E+02  0.45594000000E+02  0.51100000000E-03 0.  1.
    9900012    2    1    2    0    0  0.15428089972E+02 -0.15529796349E+02 -0.39368928208E+02  0.46142322704E+02  0.10000045077E+02 0.  0.
         12    1    1    2    0    0 -0.15428089972E+02  0.15529796349E+02  0.39368928208E+02  0.45045677296E+02  0.00000000000E+00 0. -1.
         11    1    3    3    0    0  0.21664195740E+00 -0.41304254894E+01 -0.37362675118E+01  0.55737818079E+01  0.51100000000E-03 0. -1.
        -11    1    3    3    0    0  0.14788896785E+02 -0.11476136824E+02 -0.33337278141E+02  0.38233327067E+02  0.51100000000E-03 0.  1.
         12    1    3    3    0    0  0.42255122916E+00  0.76765964983E-01 -0.22953825547E+01  0.23352138290E+01  0.00000000000E+00 0. -1.
</event>
<event>
 7    1  0.1466590E-008  0.4614232E+02  0.7816164E-02  0.1320468E+00
        -11   -1    0    0    0    0  0.00000000000E+00  0.00000000000E+00  0.45593999997E+02  0.45594000000E+02  0.51100000000E-03 0. -1.
         11   -1    0    0    0    0 -0.00000000000E+00 -0.00000000000E+00 -0.45593999997E+02  0.45594000000E+02  0.51100000000E-03 0.  1.
    9900012    2    1    2    0    0  0.43231737721E+02 -0.11205059303E+02  0.58802314487E+01  0.46142316275E+02  0.99999864473E+01 0.  0.
         12    1    1    2    0    0 -0.43231737721E+02  0.11205059303E+02 -0.58802314487E+01  0.45045683725E+02  0.00000000000E+00 0. -1.
         11    1    3    3    0    0  0.15240245249E+01  0.48932429462E+00  0.46815857288E+00  0.16677115243E+01  0.51100000000E-03 0. -1.
        -11    1    3    3    0    0  0.35446977933E+02 -0.10996170033E+02  0.16775494138E+01  0.37151287626E+02  0.51100000000E-03 0.  1.
        -12    1    3    3    0    0  0.62607352629E+01 -0.69821356501E+00  0.37345234620E+01  0.73233171243E+01  0.00000000000E+00 0.  1.
</event>
<event>
 7    1  0.1466590E-008  0.4614232E+02  0.7816164E-02  0.1320468E+00
        -11   -1    0    0    0    0  0.00000000000E+00  0.00000000000E+00  0.45593999997E+02  0.45594000000E+02  0.51100000000E-03 0.  1.
         11   -1    0    0    0    0 -0.00000000000E+00 -0.00000000000E+00 -0.45593999997E+02  0.45594000000E+02  0.51100000000E-03 0. -1.
    9900012    2    1    2    0    0 -0.39768412201E+02  0.21104595441E+02 -0.14774644336E+01  0.46142318089E+02  0.10000002988E+02 0.  0.
         12    1    1    2    0    0  0.39768412201E+02 -0.21104595441E+02  0.14774644336E+01  0.45045681911E+02  0.00000000000E+00 0. -1.
         11    1    3    3    0    0 -0.10353014072E+02  0.10159502357E+02  0.32271439500E+00  0.14508774357E+02  0.51100000000E-03 0. -1.
        -11    1    3    3    0    0 -0.15645112346E+02  0.39447906189E+01 -0.90413413459E+00  0.16160085771E+02  0.51100000000E-03 0.  1.
         12    1    3    3    0    0 -0.13770285783E+02  0.70003024650E+01 -0.89604469404E+00  0.15473457960E+02  0.00000000000E+00 0. -1.
</event>
<event>
 7    1  0.1466590E-008  0.4614232E+02  0.7816164E-02  0.1320468E+00
        -11   -1    0    0    0    0  0.00000000000E+00  0.00000000000E+00  0.45593999997E+02  0.45594000000E+02  0.51100000000E-03 0.  1.
         11   -1    0    0    0    0 -0.00000000000E+00 -0.00000000000E+00 -0.45593999997E+02  0.45594000000E+02  0.51100000000E-03 0. -1.
    9900012    2    1    2    0    0 -0.40356550285E+02  0.57252330235E+01  0.19175091793E+02  0.46142316640E+02  0.99999897775E+01 0.  0.
         12    1    1    2    0    0  0.40356550285E+02 -0.57252330235E+01 -0.19175091793E+02  0.45045683360E+02  0.00000000000E+00 0. -1.
         11    1    3    3    0    0 -0.24382700377E+01 -0.10290886983E+01  0.25162371535E+01  0.36517987349E+01  0.51100000000E-03 0.  1.
        -11    1    3    3    0    0 -0.32152867470E+02  0.72747545215E+01  0.16063774635E+02  0.36671157544E+02  0.51100000000E-03 0. -1.
        -12    1    3    3    0    0 -0.57654127778E+01 -0.52043279967E+00  0.59508000477E+00  0.58193603609E+01  0.00000000000E+00 0.  1.
</event>
<event>
 7    1  0.1466590E-008  0.4614232E+02  0.7816164E-02  0.1320468E+00
        -11   -1    0    0    0    0  0.00000000000E+00  0.00000000000E+00  0.45593999997E+02  0.45594000000E+02  0.51100000000E-03 0.  1.
         11   -1    0    0    0    0 -0.00000000000E+00 -0.00000000000E+00 -0.45593999997E+02  0.45594000000E+02  0.51100000000E-03 0. -1.
    9900012    2    1    2    0    0 -0.17206558523E+02  0.41523617187E+02  0.29727087709E+01  0.46142318321E+02  0.10000005107E+02 0.  0.
         12    1    1    2    0    0  0.17206558523E+02 -0.41523617187E+02 -0.29727087709E+01  0.45045681679E+02  0.00000000000E+00 0. -1.
         11    1    3    3    0    0 -0.45929304285E+01  0.17096229369E+02  0.20402720190E+01  0.17819617805E+02  0.51100000000E-03 0.  1.
        -11    1    3    3    0    0 -0.15713243736E+01  0.26636785915E+01  0.23389038933E+01  0.38774625220E+01  0.51100000000E-03 0. -1.
         12    1    3    3    0    0 -0.11042303721E+02  0.21763709226E+02 -0.14064671414E+01  0.24445237994E+02  0.00000000000E+00 0. -1.
</event>
<event>
 7    1  0.1466590E-008  0.4614232E+02  0.7816164E-02  0.1320468E+00
        -11   -1    0    0    0    0  0.00000000000E+00  0.00000000000E+00  0.45593999997E+02  0.45594000000E+02  0.51100000000E-03 0.  1.
         11   -1    0    0    0    0 -0.00000000000E+00 -0.00000000000E+00 -0.45593999997E+02  0.45594000000E+02  0.51100000000E-03 0. -1.
    9900012    2    1    2    0    0 -0.17465399007E+02  0.15895042491E+02  0.38359105060E+02  0.46142317862E+02  0.10000000920E+02 0.  0.
         12    1    1    2    0    0  0.17465399007E+02 -0.15895042491E+02 -0.38359105060E+02  0.45045682138E+02  0.00000000000E+00 0. -1.
         11    1    3    3    0    0 -0.68773813710E+01  0.21080718957E+01  0.15409955779E+02  0.17006148271E+02  0.51100000000E-03 0. -1.
        -11    1    3    3    0    0 -0.50136377213E+01  0.97817894762E+01  0.15559796074E+02  0.19050648878E+02  0.51100000000E-03 0.  1.
         12    1    3    3    0    0 -0.55743799145E+01  0.40051811186E+01  0.73893532072E+01  0.10085520713E+02  0.00000000000E+00 0. -1.
</event>
<event>
 7    1  0.1466590E-008  0.4614231E+02  0.7816164E-02  0.1320468E+00
        -11   -1    0    0    0    0  0.00000000000E+00  0.00000000000E+00  0.45593999997E+02  0.45594000000E+02  0.51100000000E-03 0. -1.
         11   -1    0    0    0    0 -0.00000000000E+00 -0.00000000000E+00 -0.45593999997E+02  0.45594000000E+02  0.51100000000E-03 0.  1.
    9900012    2    1    2    0    0  0.36535124032E+02  0.25248976486E+02 -0.75357591026E+01  0.46142314670E+02  0.99999718101E+01 0.  0.
         12    1    1    2    0    0 -0.36535124032E+02 -0.25248976486E+02  0.75357591026E+01  0.45045685330E+02  0.00000000000E+00 0. -1.
         11    1    3    3    0    0  0.76640490257E+01  0.38024668276E+01 -0.29900090540E+01  0.90629220370E+01  0.51100000000E-03 0. -1.
        -11    1    3    3    0    0  0.27036441579E+02  0.20385163784E+02 -0.61587694233E+01  0.34415904998E+02  0.51100000000E-03 0.  1.
        -12    1    3    3    0    0  0.18346334278E+01  0.10613458738E+01  0.16130193747E+01  0.26634876350E+01  0.00000000000E+00 0.  1.
</event>
<event>
 7    1  0.1466590E-008  0.4614232E+02  0.7816164E-02  0.1320468E+00
        -11   -1    0    0    0    0  0.00000000000E+00  0.00000000000E+00  0.45593999997E+02  0.45594000000E+02  0.51100000000E-03 0.  1.
         11   -1    0    0    0    0 -0.00000000000E+00 -0.00000000000E+00 -0.45593999997E+02  0.45594000000E+02  0.51100000000E-03 0. -1.
    9900012    2    1    2    0    0  0.19306645997E+02 -0.72973173177E+00  0.40691945450E+02  0.46142317493E+02  0.99999975535E+01 0.  0.
         12    1    1    2    0    0 -0.19306645997E+02  0.72973173177E+00 -0.40691945450E+02  0.45045682507E+02  0.00000000000E+00 0. -1.
         11    1    3    3    0    0  0.30842431164E+01  0.49202885136E+00  0.28773126343E+01  0.42465958424E+01  0.51100000000E-03 0. -1.
        -11    1    3    3    0    0  0.15937209916E+02  0.73231707025E+00  0.34916868014E+02  0.38389042973E+02  0.51100000000E-03 0.  1.
        -12    1    3    3    0    0  0.28519296394E+00 -0.19540776534E+01  0.28977648016E+01  0.35066786775E+01  0.00000000000E+00 0.  1.
</event>
<event>
 7    1  0.1466590E-008  0.4614232E+02  0.7816164E-02  0.1320468E+00
        -11   -1    0    0    0    0  0.00000000000E+00  0.00000000000E+00  0.45593999997E+02  0.45594000000E+02  0.51100000000E-03 0.  1.
         11   -1    0    0    0    0 -0.00000000000E+00 -0.00000000000E+00 -0.45593999997E+02  0.45594000000E+02  0.51100000000E-03 0. -1.
    9900012    2    1    2    0    0  0.16994182658E+02 -0.40019558637E+01  0.41524638280E+02  0.46142317863E+02  0.10000000928E+02 0.  0.
         12    1    1    2    0    0 -0.16994182658E+02  0.40019558637E+01 -0.41524638280E+02  0.45045682137E+02  0.00000000000E+00 0. -1.
         11    1    3    3    0    0  0.64154414182E+01  0.68982299206E+00  0.98575220999E+01  0.11781531588E+02  0.51100000000E-03 0.  1.
        -11    1    3    3    0    0  0.10964147984E+02 -0.35071183528E+01  0.24295406944E+02  0.26884553539E+02  0.51100000000E-03 0. -1.
         12    1    3    3    0    0 -0.38540674375E+00 -0.11846605030E+01  0.73717092353E+01  0.74762327355E+01  0.00000000000E+00 0. -1.
</event>
<event>
 7    1  0.1466590E-008  0.4614232E+02  0.7816164E-02  0.1320468E+00
        -11   -1    0    0    0    0  0.00000000000E+00  0.00000000000E+00  0.45593999997E+02  0.45594000000E+02  0.51100000000E-03 0.  1.
         11   -1    0    0    0    0 -0.00000000000E+00 -0.00000000000E+00 -0.45593999997E+02  0.45594000000E+02  0.51100000000E-03 0. -1.
    9900012    2    1    2    0    0  0.24068323891E+02 -0.99885538282E+01  0.36743137749E+02  0.46142316587E+02  0.99999892906E+01 0.  0.
         12    1    1    2    0    0 -0.24068323891E+02  0.99885538282E+01 -0.36743137749E+02  0.45045683413E+02  0.00000000000E+00 0. -1.
         11    1    3    3    0    0  0.91868228971E+01 -0.68029176978E+01  0.92900273801E+01  0.14730309336E+02  0.51100000000E-03 0. -1.
        -11    1    3    3    0    0  0.32136868022E+01 -0.52515104866E+00  0.49584777258E+01  0.59321217203E+01  0.51100000000E-03 0.  1.
         12    1    3    3    0    0  0.11667814192E+02 -0.26604850817E+01  0.22494632643E+02  0.25479885531E+02  0.00000000000E+00 0. -1.
</event>
<event>
 7    1  0.1466590E-008  0.4614231E+02  0.7816164E-02  0.1320468E+00
        -11   -1    0    0    0    0  0.00000000000E+00  0.00000000000E+00  0.45593999997E+02  0.45594000000E+02  0.51100000000E-03 0.  1.
         11   -1    0    0    0    0 -0.00000000000E+00 -0.00000000000E+00 -0.45593999997E+02  0.45594000000E+02  0.51100000000E-03 0. -1.
    9900012    2    1    2    0    0 -0.14462573049E+01 -0.29243130797E+02  0.34232469464E+02  0.46142308479E+02  0.99999153585E+01 0.  0.
         12    1    1    2    0    0  0.14462573049E+01  0.29243130797E+02 -0.34232469464E+02  0.45045691521E+02  0.00000000000E+00 0. -1.
         11    1    3    3    0    0  0.16763876728E+01 -0.14565048911E+02  0.11332645574E+02  0.18530509474E+02  0.51100000000E-03 0. -1.
        -11    1    3    3    0    0 -0.20412435515E+01 -0.10571234627E+02  0.13278748502E+02  0.17095111547E+02  0.51100000000E-03 0.  1.
         12    1    3    3    0    0 -0.10814014262E+01 -0.41068472586E+01  0.96210753884E+01  0.10516687458E+02  0.00000000000E+00 0. -1.
</event>
<event>
 7    1  0.1466590E-008  0.4614232E+02  0.7816164E-02  0.1320468E+00
        -11   -1    0    0    0    0  0.00000000000E+00  0.00000000000E+00  0.45593999997E+02  0.45594000000E+02  0.51100000000E-03 0. -1.
         11   -1    0    0    0    0 -0.00000000000E+00 -0.00000000000E+00 -0.45593999997E+02  0.45594000000E+02  0.51100000000E-03 0.  1.
    9900012    2    1    2    0    0  0.42547397507E+01 -0.11127205198E+02 -0.43441869420E+02  0.46142317359E+02  0.99999963372E+01 0.  0.
         12    1    1    2    0    0 -0.42547397507E+01  0.11127205198E+02  0.43441869420E+02  0.45045682641E+02  0.00000000000E+00 0. -1.
         11    1    3    3    0    0  0.98367853520E+00 -0.18974067472E+01 -0.38779131976E+01  0.44278648188E+01  0.51100000000E-03 0. -1.
        -11    1    3    3    0    0 -0.25418269676E+01 -0.39190762820E+00 -0.95809364603E+01  0.99201219569E+01  0.51100000000E-03 0.  1.
        -12    1    3    3    0    0  0.58128881830E+01 -0.88378908224E+01 -0.29983019762E+02  0.31794330584E+02  0.00000000000E+00 0.  1.
</event>
<event>
 7    1  0.1466590E-008  0.4614232E+02  0.7816164E-02  0.1320468E+00
        -11   -1    0    0    0    0  0.00000000000E+00  0.00000000000E+00  0.45593999997E+02  0.45594000000E+02  0.51100000000E-03 0.  1.
         11   -1    0    0    0    0 -0.00000000000E+00 -0.00000000000E+00 -0.45593999997E+02  0.45594000000E+02  0.51100000000E-03 0. -1.
    9900012    2    1    2    0    0 -0.18251381185E+02 -0.34041240720E+02  0.23177456985E+02  0.46142317663E+02  0.99999991047E+01 0.  0.
         12    1    1    2    0    0  0.18251381185E+02  0.34041240720E+02 -0.23177456985E+02  0.45045682337E+02  0.00000000000E+00 0. -1.
         11    1    3    3    0    0 -0.15079513552E+02 -0.29503029875E+02  0.21081974394E+02  0.39271747419E+02  0.51100000000E-03 0. -1.
        -11    1    3    3    0    0 -0.21244936105E+00 -0.28992336054E+01  0.19184597008E+01  0.34829840818E+01  0.51100000000E-03 0.  1.
         12    1    3    3    0    0 -0.29594182718E+01 -0.16389772402E+01  0.17702289033E+00  0.33875861620E+01  0.00000000000E+00 0. -1.
</event>
<event>
 7    1  0.1466590E-008  0.4614232E+02  0.7816164E-02  0.1320468E+00
        -11   -1    0    0    0    0  0.00000000000E+00  0.00000000000E+00  0.45593999997E+02  0.45594000000E+02  0.51100000000E-03 0. -1.
         11   -1    0    0    0    0 -0.00000000000E+00 -0.00000000000E+00 -0.45593999997E+02  0.45594000000E+02  0.51100000000E-03 0.  1.
    9900012    2    1    2    0    0  0.35102939320E+02  0.33534434754E+00 -0.28227373801E+02  0.46142318337E+02  0.10000005253E+02 0.  0.
         12    1    1    2    0    0 -0.35102939320E+02 -0.33534434754E+00  0.28227373801E+02  0.45045681663E+02  0.00000000000E+00 0. -1.
         11    1    3    3    0    0  0.52982109606E+01 -0.26911669802E+01 -0.27909700671E+01  0.65652824216E+01  0.51100000000E-03 0. -1.
        -11    1    3    3    0    0  0.27892436525E+02  0.22680421087E+01 -0.24881631869E+02  0.37446330060E+02  0.51100000000E-03 0.  1.
         12    1    3    3    0    0  0.19122918351E+01  0.75846921908E+00 -0.55477186541E+00  0.21307058552E+01  0.00000000000E+00 0. -1.
</event>
<event>
 7    1  0.1466590E-008  0.4614232E+02  0.7816164E-02  0.1320468E+00
        -11   -1    0    0    0    0  0.00000000000E+00  0.00000000000E+00  0.45593999997E+02  0.45594000000E+02  0.51100000000E-03 0.  1.
         11   -1    0    0    0    0 -0.00000000000E+00 -0.00000000000E+00 -0.45593999997E+02  0.45594000000E+02  0.51100000000E-03 0. -1.
    9900012    2    1    2    0    0 -0.28179248132E+02  0.14238392882E+02  0.32129605185E+02  0.46142318892E+02  0.10000010312E+02 0.  0.
         12    1    1    2    0    0  0.28179248132E+02 -0.14238392882E+02 -0.32129605185E+02  0.45045681108E+02  0.00000000000E+00 0. -1.
         11    1    3    3    0    0 -0.50438566009E+01 -0.25110033795E-01  0.34348634650E+01  0.61024099508E+01  0.51100000000E-03 0. -1.
        -11    1    3    3    0    0 -0.18602044189E+02  0.13095164206E+02  0.20605861293E+02  0.30693987905E+02  0.51100000000E-03 0.  1.
         12    1    3    3    0    0 -0.45333473420E+01  0.11683387101E+01  0.80888804266E+01  0.93459210365E+01  0.00000000000E+00 0. -1.
</event>
<event>
 7    1  0.1466590E-008  0.4614232E+02  0.7816164E-02  0.1320468E+00
        -11   -1    0    0    0    0  0.00000000000E+00  0.00000000000E+00  0.45593999997E+02  0.45594000000E+02  0.51100000000E-03 0.  1.
         11   -1    0    0    0    0 -0.00000000000E+00 -0.00000000000E+00 -0.45593999997E+02  0.45594000000E+02  0.51100000000E-03 0. -1.
    9900012    2    1    2    0    0  0.37047817884E+02 -0.10366188340E+02  0.23433200105E+02  0.46142317212E+02  0.99999949955E+01 0.  0.
         12    1    1    2    0    0 -0.37047817884E+02  0.10366188340E+02 -0.23433200105E+02  0.45045682788E+02  0.00000000000E+00 0. -1.
         11    1    3    3    0    0  0.52561181793E+00  0.78068756903E+00  0.15888070088E+01  0.18466317543E+01  0.51100000000E-03 0. -1.
        -11    1    3    3    0    0  0.21253504330E+02 -0.39794654684E+01  0.13326465417E+02  0.25399651031E+02  0.51100000000E-03 0.  1.
         12    1    3    3    0    0  0.15268701736E+02 -0.71674104407E+01  0.85179276791E+01  0.18896034427E+02  0.00000000000E+00 0. -1.
</event>
<event>
 7    1  0.1466590E-008  0.4614232E+02  0.7816164E-02  0.1320468E+00
        -11   -1    0    0    0    0  0.00000000000E+00  0.00000000000E+00  0.45593999997E+02  0.45594000000E+02  0.51100000000E-03 0.  1.
         11   -1    0    0    0    0 -0.00000000000E+00 -0.00000000000E+00 -0.45593999997E+02  0.45594000000E+02  0.51100000000E-03 0. -1.
    9900012    2    1    2    0    0 -0.22527053845E+02 -0.21019337757E+02  0.32860809194E+02  0.46142317681E+02  0.99999992687E+01 0.  0.
         12    1    1    2    0    0  0.22527053845E+02  0.21019337757E+02 -0.32860809194E+02  0.45045682319E+02  0.00000000000E+00 0. -1.
         11    1    3    3    0    0 -0.16518545561E+02 -0.15227936194E+02  0.22630985282E+02  0.31889087213E+02  0.51100000000E-03 0. -1.
        -11    1    3    3    0    0 -0.30735525420E+01 -0.60464109446E+01  0.83535568094E+01  0.10760470351E+02  0.51100000000E-03 0.  1.
         12    1    3    3    0    0 -0.29349557423E+01  0.25500938211E+00  0.18762671030E+01  0.34927601172E+01  0.00000000000E+00 0. -1.
</event>
<event>
 7    1  0.1573873E-008  0.4614232E+02  0.7816164E-02  0.1320468E+00
        -11   -1    0    0    0    0  0.00000000000E+00  0.00000000000E+00  0.45593999997E+02  0.45594000000E+02  0.51100000000E-03 0.  1.
         11   -1    0    0    0    0 -0.00000000000E+00 -0.00000000000E+00 -0.45593999997E+02  0.45594000000E+02  0.51100000000E-03 0. -1.
    9900012    2    1    2    0    0  0.16058262342E+02 -0.34190543727E+02  0.24540832427E+02  0.46142317343E+02  0.99999961902E+01 0.  0.
         12    1    1    2    0    0 -0.16058262342E+02  0.34190543727E+02 -0.24540832427E+02  0.45045682657E+02  0.00000000000E+00 0. -1.
         11    1    3    3    0    0  0.55207767706E+00 -0.69832766396E+01  0.20170621034E+01  0.72896832700E+01  0.51100000000E-03 0. -1.
        -11    1    3    3    0    0  0.97931982845E+01 -0.13542541613E+02  0.13719484568E+02  0.21622474952E+02  0.51100000000E-03 0.  1.
        -12    1    3    3    0    0  0.57129863805E+01 -0.13664725475E+02  0.88042857550E+01  0.17230159121E+02  0.00000000000E+00 0.  1.
</event>
<event>
 7    1  0.1466590E-008  0.4614232E+02  0.7816164E-02  0.1320468E+00
        -11   -1    0    0    0    0  0.00000000000E+00  0.00000000000E+00  0.45593999997E+02  0.45594000000E+02  0.51100000000E-03 0.  1.
         11   -1    0    0    0    0 -0.00000000000E+00 -0.00000000000E+00 -0.45593999997E+02  0.45594000000E+02  0.51100000000E-03 0. -1.
    9900012    2    1    2    0    0 -0.62318379025E+01  0.33934044740E+02  0.28961323263E+02  0.46142318285E+02  0.10000004773E+02 0.  0.
         12    1    1    2    0    0  0.62318379025E+01 -0.33934044740E+02 -0.28961323263E+02  0.45045681715E+02  0.00000000000E+00 0. -1.
         11    1    3    3    0    0 -0.38910992345E+01  0.94869264944E+01  0.51684055792E+01  0.11482806454E+02  0.51100000000E-03 0. -1.
        -11    1    3    3    0    0  0.15561767812E+01  0.45076691306E+01  0.32769110628E+01  0.57860965720E+01  0.51100000000E-03 0.  1.
         12    1    3    3    0    0 -0.38969154493E+01  0.19939449115E+02  0.20516006621E+02  0.28873415259E+02  0.00000000000E+00 0. -1.
</event>
<event>
 7    1  0.1466590E-008  0.4614232E+02  0.7816164E-02  0.1320468E+00
        -11   -1    0    0    0    0  0.00000000000E+00  0.00000000000E+00  0.45593999997E+02  0.45594000000E+02  0.51100000000E-03 0.  1.
         11   -1    0    0    0    0 -0.00000000000E+00 -0.00000000000E+00 -0.45593999997E+02  0.45594000000E+02  0.51100000000E-03 0. -1.
    9900012    2    1    2    0    0  0.42693174078E+01  0.15232897790E+02  0.42176359229E+02  0.46142317366E+02  0.99999963966E+01 0.  0.
         12    1    1    2    0    0 -0.42693174078E+01 -0.15232897790E+02 -0.42176359229E+02  0.45045682634E+02  0.00000000000E+00 0. -1.
         11    1    3    3    0    0 -0.18447056161E+01 -0.90664098588E-02  0.54645736865E+01  0.57675459986E+01  0.51100000000E-03 0. -1.
        -11    1    3    3    0    0  0.42592435408E+01  0.13777959178E+02  0.32190725894E+02  0.35273448208E+02  0.51100000000E-03 0.  1.
         12    1    3    3    0    0  0.18547794831E+01  0.14640050216E+01  0.45210596478E+01  0.51013231591E+01  0.00000000000E+00 0. -1.
</event>
<event>
 7    1  0.1466590E-008  0.4614232E+02  0.7816164E-02  0.1320468E+00
        -11   -1    0    0    0    0  0.00000000000E+00  0.00000000000E+00  0.45593999997E+02  0.45594000000E+02  0.51100000000E-03 0. -1.
         11   -1    0    0    0    0 -0.00000000000E+00 -0.00000000000E+00 -0.45593999997E+02  0.45594000000E+02  0.51100000000E-03 0.  1.
    9900012    2    1    2    0    0 -0.49427503973E+01  0.38354464305E+02 -0.23100168774E+02  0.46142317510E+02  0.99999977109E+01 0.  0.
         12    1    1    2    0    0  0.49427503973E+01 -0.38354464305E+02  0.23100168774E+02  0.45045682490E+02  0.00000000000E+00 0. -1.
         11    1    3    3    0    0  0.16693219121E+01  0.16364859647E+02 -0.10178120904E+02  0.19343976125E+02  0.51100000000E-03 0.  1.
        -11    1    3    3    0    0 -0.30144851857E+01  0.16612481042E+02 -0.80810793271E+01  0.18718052534E+02  0.51100000000E-03 0. -1.
         12    1    3    3    0    0 -0.35975871236E+01  0.53771236151E+01 -0.48409685427E+01  0.80802888510E+01  0.00000000000E+00 0. -1.
</event>
<event>
 7    1  0.1466590E-008  0.4614232E+02  0.7816164E-02  0.1320468E+00
        -11   -1    0    0    0    0  0.00000000000E+00  0.00000000000E+00  0.45593999997E+02  0.45594000000E+02  0.51100000000E-03 0.  1.
         11   -1    0    0    0    0 -0.00000000000E+00 -0.00000000000E+00 -0.45593999997E+02  0.45594000000E+02  0.51100000000E-03 0. -1.
    9900012    2    1    2    0    0  0.17594462440E+02 -0.17930649690E+02  0.37390376067E+02  0.46142317307E+02  0.99999958576E+01 0.  0.
         12    1    1    2    0    0 -0.17594462440E+02  0.17930649690E+02 -0.37390376067E+02  0.45045682693E+02  0.00000000000E+00 0. -1.
         11    1    3    3    0    0  0.35250204345E+00 -0.27295383601E+01  0.30103331940E+01  0.40788164398E+01  0.51100000000E-03 0. -1.
        -11    1    3    3    0    0  0.13169069760E+02 -0.11949355449E+02  0.31330401464E+02  0.36025068357E+02  0.51100000000E-03 0.  1.
        -12    1    3    3    0    0  0.40728906371E+01 -0.32517558814E+01  0.30496414087E+01  0.60384325098E+01  0.00000000000E+00 0.  1.
</event>
<event>
 7    1  0.1466590E-008  0.4614232E+02  0.7816164E-02  0.1320468E+00
        -11   -1    0    0    0    0  0.00000000000E+00  0.00000000000E+00  0.45593999997E+02  0.45594000000E+02  0.51100000000E-03 0.  1.
         11   -1    0    0    0    0 -0.00000000000E+00 -0.00000000000E+00 -0.45593999997E+02  0.45594000000E+02  0.51100000000E-03 0. -1.
    9900012    2    1    2    0    0  0.26483137712E+02 -0.52013263562E+01  0.36065261692E+02  0.46142317856E+02  0.10000000865E+02 0.  0.
         12    1    1    2    0    0 -0.26483137712E+02  0.52013263562E+01 -0.36065261692E+02  0.45045682144E+02  0.00000000000E+00 0. -1.
         11    1    3    3    0    0  0.86597564283E+01 -0.21636936234E+01  0.89772968280E+01  0.12659573851E+02  0.51100000000E-03 0. -1.
        -11    1    3    3    0    0  0.12075229744E+02 -0.52975205424E+01  0.15487998570E+02  0.20340919282E+02  0.51100000000E-03 0.  1.
        -12    1    3    3    0    0  0.57481515397E+01  0.22598878096E+01  0.11599966294E+02  0.13141824723E+02  0.00000000000E+00 0.  1.
</event>
<event>
 7    1  0.1466590E-008  0.4614232E+02  0.7816164E-02  0.1320468E+00
        -11   -1    0    0    0    0  0.00000000000E+00  0.00000000000E+00  0.45593999997E+02  0.45594000000E+02  0.51100000000E-03 0.  1.
         11   -1    0    0    0    0 -0.00000000000E+00 -0.00000000000E+00 -0.45593999997E+02  0.45594000000E+02  0.51100000000E-03 0. -1.
    9900012    2    1    2    0    0  0.37518346794E+02 -0.12318752512E+02 -0.21673381154E+02  0.46142318073E+02  0.10000002844E+02 0.  0.
         12    1    1    2    0    0 -0.37518346794E+02  0.12318752512E+02  0.21673381154E+02  0.45045681927E+02  0.00000000000E+00 0. -1.
         11    1    3    3    0    0  0.16481428127E+02 -0.14509340187E+01 -0.89804943148E+01  0.18825301088E+02  0.51100000000E-03 0. -1.
        -11    1    3    3    0    0  0.14705441757E+02 -0.71038171289E+01 -0.61057546967E+01  0.17435437355E+02  0.51100000000E-03 0.  1.
         12    1    3    3    0    0  0.63314769094E+01 -0.37640013641E+01 -0.65871321427E+01  0.98815796302E+01  0.00000000000E+00 0. -1.
</event>
<event>
 7    1  0.1466590E-008  0.4614232E+02  0.7816164E-02  0.1320468E+00
        -11   -1    0    0    0    0  0.00000000000E+00  0.00000000000E+00  0.45593999997E+02  0.45594000000E+02  0.51100000000E-03 0.  1.
         11   -1    0    0    0    0 -0.00000000000E+00 -0.00000000000E+00 -0.45593999997E+02  0.45594000000E+02  0.51100000000E-03 0. -1.
    9900012    2    1    2    0    0 -0.35728943548E+02  0.14433641787E+02  0.23328651087E+02  0.46142318921E+02  0.10000010579E+02 0.  0.
         12    1    1    2    0    0  0.35728943548E+02 -0.14433641787E+02 -0.23328651087E+02  0.45045681079E+02  0.00000000000E+00 0. -1.
         11    1    3    3    0    0 -0.11866484960E+02  0.47155399424E+00  0.84451672085E+01  0.14572463001E+02  0.51100000000E-03 0. -1.
        -11    1    3    3    0    0 -0.87961066858E+01  0.67526463655E+01  0.50206687700E+01  0.12172791008E+02  0.51100000000E-03 0.  1.
        -12    1    3    3    0    0 -0.15066351902E+02  0.72094414275E+01  0.98628151089E+01  0.19397064912E+02  0.00000000000E+00 0.  1.
</event>
<event>
 7    1  0.1466590E-008  0.4614232E+02  0.7816164E-02  0.1320468E+00
        -11   -1    0    0    0    0  0.00000000000E+00  0.00000000000E+00  0.45593999997E+02  0.45594000000E+02  0.51100000000E-03 0. -1.
         11   -1    0    0    0    0 -0.00000000000E+00 -0.00000000000E+00 -0.45593999997E+02  0.45594000000E+02  0.51100000000E-03 0.  1.
    9900012    2    1    2    0    0  0.85960328429E+01  0.30240952300E+02 -0.32259983262E+02  0.46142317668E+02  0.99999991540E+01 0.  0.
         12    1    1    2    0    0 -0.85960328429E+01 -0.30240952300E+02  0.32259983262E+02  0.45045682332E+02  0.00000000000E+00 0. -1.
         11    1    3    3    0    0  0.36419215115E+01  0.13778451396E+02 -0.11093233188E+02  0.18060153322E+02  0.51100000000E-03 0. -1.
        -11    1    3    3    0    0 -0.63569217362E+00  0.88439558086E+01 -0.85344361671E+01  0.12306756674E+02  0.51100000000E-03 0.  1.
        -12    1    3    3    0    0  0.55898035050E+01  0.76185450951E+01 -0.12632313907E+02  0.15775407673E+02  0.00000000000E+00 0.  1.
</event>
<event>
 7    1  0.1466590E-008  0.4614232E+02  0.7816164E-02  0.1320468E+00
        -11   -1    0    0    0    0  0.00000000000E+00  0.00000000000E+00  0.45593999997E+02  0.45594000000E+02  0.51100000000E-03 0.  1.
         11   -1    0    0    0    0 -0.00000000000E+00 -0.00000000000E+00 -0.45593999997E+02  0.45594000000E+02  0.51100000000E-03 0. -1.
    9900012    2    1    2    0    0 -0.31007688492E+02  0.84458939943E+01  0.31564277080E+02  0.46142318092E+02  0.10000003018E+02 0.  0.
         12    1    1    2    0    0  0.31007688492E+02 -0.84458939943E+01 -0.31564277080E+02  0.45045681908E+02  0.00000000000E+00 0. -1.
         11    1    3    3    0    0 -0.59198555409E+01  0.30616997853E+01  0.29007992539E+01  0.72686540551E+01  0.51100000000E-03 0. -1.
        -11    1    3    3    0    0 -0.20257059762E+02  0.23689429221E+01  0.24132233491E+02  0.31596282286E+02  0.51100000000E-03 0.  1.
        -12    1    3    3    0    0 -0.48307731890E+01  0.30152512869E+01  0.45312443343E+01  0.72773817506E+01  0.00000000000E+00 0.  1.
</event>
<event>
 7    1  0.1466590E-008  0.4614232E+02  0.7816164E-02  0.1320468E+00
        -11   -1    0    0    0    0  0.00000000000E+00  0.00000000000E+00  0.45593999997E+02  0.45594000000E+02  0.51100000000E-03 0.  1.
         11   -1    0    0    0    0 -0.00000000000E+00 -0.00000000000E+00 -0.45593999997E+02  0.45594000000E+02  0.51100000000E-03 0. -1.
    9900012    2    1    2    0    0 -0.32211344454E+02  0.23328982625E+02  0.21149498984E+02  0.46142318196E+02  0.10000003969E+02 0.  0.
         12    1    1    2    0    0  0.32211344454E+02 -0.23328982625E+02 -0.21149498984E+02  0.45045681804E+02  0.00000000000E+00 0. -1.
         11    1    3    3    0    0 -0.13110469940E+02  0.41665094754E+01  0.81325646575E+01  0.15980701844E+02  0.51100000000E-03 0.  1.
        -11    1    3    3    0    0 -0.16072033096E+02  0.17440079120E+02  0.11582491251E+02  0.26393573297E+02  0.51100000000E-03 0. -1.
        -12    1    3    3    0    0 -0.30288414181E+01  0.17223940304E+01  0.14344430758E+01  0.37680430557E+01  0.00000000000E+00 0.  1.
</event>
<event>
 7    1  0.1466590E-008  0.4614233E+02  0.7816164E-02  0.1320468E+00
        -11   -1    0    0    0    0  0.00000000000E+00  0.00000000000E+00  0.45593999997E+02  0.45594000000E+02  0.51100000000E-03 0.  1.
         11   -1    0    0    0    0 -0.00000000000E+00 -0.00000000000E+00 -0.45593999997E+02  0.45594000000E+02  0.51100000000E-03 0. -1.
    9900012    2    1    2    0    0  0.26190071275E+02  0.14028034378E+02  0.33858629125E+02  0.46142330417E+02  0.10000115409E+02 0.  0.
         12    1    1    2    0    0 -0.26190071275E+02 -0.14028034378E+02 -0.33858629125E+02  0.45045669583E+02  0.00000000000E+00 0. -1.
         11    1    3    3    0    0  0.73740964073E+01  0.60101920848E+01  0.51265131580E+01  0.10806518595E+02  0.51100000000E-03 0. -1.
        -11    1    3    3    0    0  0.17378034226E+02  0.68380730750E+01  0.26676090620E+02  0.32563309537E+02  0.51100000000E-03 0.  1.
         12    1    3    3    0    0  0.14379406417E+01  0.11797692183E+01  0.20560253469E+01  0.27725022858E+01  0.00000000000E+00 0. -1.
</event>
<event>
 7    1  0.1466590E-008  0.4614232E+02  0.7816164E-02  0.1320468E+00
        -11   -1    0    0    0    0  0.00000000000E+00  0.00000000000E+00  0.45593999997E+02  0.45594000000E+02  0.51100000000E-03 0.  1.
         11   -1    0    0    0    0 -0.00000000000E+00 -0.00000000000E+00 -0.45593999997E+02  0.45594000000E+02  0.51100000000E-03 0. -1.
    9900012    2    1    2    0    0 -0.36910167190E+02 -0.18398620191E+02  0.18117492901E+02  0.46142320785E+02  0.10000027574E+02 0.  0.
         12    1    1    2    0    0  0.36910167190E+02  0.18398620191E+02 -0.18117492901E+02  0.45045679215E+02  0.00000000000E+00 0. -1.
         11    1    3    3    0    0 -0.22952640021E+02 -0.76397978327E+01  0.92189303188E+01  0.25887813182E+02  0.51100000000E-03 0. -1.
        -11    1    3    3    0    0 -0.20914538032E+01 -0.11000037477E+01  0.30872485755E+01  0.38878388964E+01  0.51100000000E-03 0.  1.
        -12    1    3    3    0    0 -0.11866073366E+02 -0.96588186101E+01  0.58113140070E+01  0.16366668707E+02  0.00000000000E+00 0.  1.
</event>
<event>
 7    1  0.1466590E-008  0.4614232E+02  0.7816164E-02  0.1320468E+00
        -11   -1    0    0    0    0  0.00000000000E+00  0.00000000000E+00  0.45593999997E+02  0.45594000000E+02  0.51100000000E-03 0.  1.
         11   -1    0    0    0    0 -0.00000000000E+00 -0.00000000000E+00 -0.45593999997E+02  0.45594000000E+02  0.51100000000E-03 0. -1.
    9900012    2    1    2    0    0  0.23070765271E+02 -0.12109651208E+02  0.36745199187E+02  0.46142317344E+02  0.99999961997E+01 0.  0.
         12    1    1    2    0    0 -0.23070765271E+02  0.12109651208E+02 -0.36745199187E+02  0.45045682656E+02  0.00000000000E+00 0. -1.
         11    1    3    3    0    0  0.14984181536E+02 -0.64659238625E+01  0.25095189920E+02  0.29934969936E+02  0.51100000000E-03 0. -1.
        -11    1    3    3    0    0  0.88192817423E+01 -0.51588268781E+01  0.97912438366E+01  0.14151384432E+02  0.51100000000E-03 0.  1.
         12    1    3    3    0    0 -0.73269800709E+00 -0.48490046777E+00  0.18587654306E+01  0.20559629761E+01  0.00000000000E+00 0. -1.
</event>
<event>
 7    1  0.1466590E-008  0.4614232E+02  0.7816164E-02  0.1320468E+00
        -11   -1    0    0    0    0  0.00000000000E+00  0.00000000000E+00  0.45593999997E+02  0.45594000000E+02  0.51100000000E-03 0.  1.
         11   -1    0    0    0    0 -0.00000000000E+00 -0.00000000000E+00 -0.45593999997E+02  0.45594000000E+02  0.51100000000E-03 0. -1.
    9900012    2    1    2    0    0  0.10552343146E+02 -0.61663220716E+01  0.43355945703E+02  0.46142317615E+02  0.99999986632E+01 0.  0.
         12    1    1    2    0    0 -0.10552343146E+02  0.61663220716E+01 -0.43355945703E+02  0.45045682385E+02  0.00000000000E+00 0. -1.
         11    1    3    3    0    0 -0.68198397342E+00 -0.83216066485E+00  0.10078782856E+01  0.14742497793E+01  0.51100000000E-03 0. -1.
        -11    1    3    3    0    0  0.85829223664E+01 -0.61137156846E+01  0.25447697850E+02  0.27543227878E+02  0.51100000000E-03 0.  1.
         12    1    3    3    0    0  0.26514047531E+01  0.77955427782E+00  0.16900369568E+02  0.17124839957E+02  0.00000000000E+00 0. -1.
</event>
<event>
 7    1  0.1466590E-008  0.4614232E+02  0.7816164E-02  0.1320468E+00
        -11   -1    0    0    0    0  0.00000000000E+00  0.00000000000E+00  0.45593999997E+02  0.45594000000E+02  0.51100000000E-03 0. -1.
         11   -1    0    0    0    0 -0.00000000000E+00 -0.00000000000E+00 -0.45593999997E+02  0.45594000000E+02  0.51100000000E-03 0.  1.
    9900012    2    1    2    0    0 -0.24472955226E+02 -0.35777732479E+02 -0.12253241374E+02  0.46142316489E+02  0.99999883968E+01 0.  0.
         12    1    1    2    0    0  0.24472955226E+02  0.35777732479E+02  0.12253241374E+02  0.45045683511E+02  0.00000000000E+00 0. -1.
         11    1    3    3    0    0 -0.87812663397E+00 -0.22498760701E+01 -0.25238846710E+01  0.34932853891E+01  0.51100000000E-03 0. -1.
        -11    1    3    3    0    0 -0.13908569162E+02 -0.18471649839E+02 -0.87388633655E+01  0.24718775801E+02  0.51100000000E-03 0.  1.
        -12    1    3    3    0    0 -0.96862594294E+01 -0.15056206571E+02 -0.99049333714E+00  0.17930255299E+02  0.00000000000E+00 0.  1.
</event>
<event>
 7    1  0.1466590E-008  0.4614232E+02  0.7816164E-02  0.1320468E+00
        -11   -1    0    0    0    0  0.00000000000E+00  0.00000000000E+00  0.45593999997E+02  0.45594000000E+02  0.51100000000E-03 0. -1.
         11   -1    0    0    0    0 -0.00000000000E+00 -0.00000000000E+00 -0.45593999997E+02  0.45594000000E+02  0.51100000000E-03 0.  1.
    9900012    2    1    2    0    0 -0.16131917387E+02 -0.25710107788E+02  0.33284607058E+02  0.46142317987E+02  0.10000002058E+02 0.  0.
         12    1    1    2    0    0  0.16131917387E+02  0.25710107788E+02 -0.33284607058E+02  0.45045682013E+02  0.00000000000E+00 0. -1.
         11    1    3    3    0    0  0.80304694501E-01 -0.56212451748E+01  0.40737220373E+01  0.69426261355E+01  0.51100000000E-03 0. -1.
        -11    1    3    3    0    0 -0.58944855535E+01 -0.10453475591E+02  0.12610057395E+02  0.17407862007E+02  0.51100000000E-03 0.  1.
        -12    1    3    3    0    0 -0.10317736528E+02 -0.96353870218E+01  0.16600827626E+02  0.21791829844E+02  0.00000000000E+00 0.  1.
</event>
<event>
 7    1  0.1466590E-008  0.4614232E+02  0.7816164E-02  0.1320468E+00
        -11   -1    0    0    0    0  0.00000000000E+00  0.00000000000E+00  0.45593999997E+02  0.45594000000E+02  0.51100000000E-03 0.  1.
         11   -1    0    0    0    0 -0.00000000000E+00 -0.00000000000E+00 -0.45593999997E+02  0.45594000000E+02  0.51100000000E-03 0. -1.
    9900012    2    1    2    0    0 -0.38689566769E+02 -0.46053426794E+01  0.22605793759E+02  0.46142315751E+02  0.99999816688E+01 0.  0.
         12    1    1    2    0    0  0.38689566769E+02  0.46053426794E+01 -0.22605793759E+02  0.45045684249E+02  0.00000000000E+00 0. -1.
         11    1    3    3    0    0 -0.46871746427E+01 -0.14054665733E+01  0.59671487904E+01  0.77169817525E+01  0.51100000000E-03 0. -1.
        -11    1    3    3    0    0 -0.18089467066E+02  0.11755049947E+01  0.83824839293E+01  0.19971896951E+02  0.51100000000E-03 0.  1.
         12    1    3    3    0    0 -0.15912925061E+02 -0.43753811008E+01  0.82561610394E+01  0.18453437048E+02  0.00000000000E+00 0. -1.
</event>
<event>
 7    1  0.1466590E-008  0.4614232E+02  0.7816164E-02  0.1320468E+00
        -11   -1    0    0    0    0  0.00000000000E+00  0.00000000000E+00  0.45593999997E+02  0.45594000000E+02  0.51100000000E-03 0.  1.
         11   -1    0    0    0    0 -0.00000000000E+00 -0.00000000000E+00 -0.45593999997E+02  0.45594000000E+02  0.51100000000E-03 0. -1.
    9900012    2    1    2    0    0  0.30397246661E+02  0.28492820466E+02  0.17125421081E+02  0.46142317966E+02  0.10000001870E+02 0.  0.
         12    1    1    2    0    0 -0.30397246661E+02 -0.28492820466E+02 -0.17125421081E+02  0.45045682034E+02  0.00000000000E+00 0. -1.
         11    1    3    3    0    0  0.23708353669E+01  0.50451968166E+00  0.10713483050E+01  0.26501297889E+01  0.51100000000E-03 0. -1.
        -11    1    3    3    0    0  0.97512463891E+01  0.15402721909E+02  0.70731772098E+01  0.19554040105E+02  0.51100000000E-03 0.  1.
         12    1    3    3    0    0  0.18275164905E+02  0.12585578876E+02  0.89808955666E+01  0.23938148072E+02  0.00000000000E+00 0. -1.
</event>
<event>
 7    1  0.1466590E-008  0.4614232E+02  0.7816164E-02  0.1320468E+00
        -11   -1    0    0    0    0  0.00000000000E+00  0.00000000000E+00  0.45593999997E+02  0.45594000000E+02  0.51100000000E-03 0.  1.
         11   -1    0    0    0    0 -0.00000000000E+00 -0.00000000000E+00 -0.45593999997E+02  0.45594000000E+02  0.51100000000E-03 0. -1.
    9900012    2    1    2    0    0 -0.11160569518E+02 -0.21354483720E+02  0.38059705992E+02  0.46142317554E+02  0.99999981074E+01 0.  0.
         12    1    1    2    0    0  0.11160569518E+02  0.21354483720E+02 -0.38059705992E+02  0.45045682446E+02  0.00000000000E+00 0. -1.
         11    1    3    3    0    0  0.75302145914E+00 -0.82631586549E+00  0.77522525174E+00  0.13604461325E+01  0.51100000000E-03 0. -1.
        -11    1    3    3    0    0 -0.10064063271E+02 -0.11996140861E+02  0.19840588701E+02  0.25275318501E+02  0.51100000000E-03 0.  1.
        -12    1    3    3    0    0 -0.18495277064E+01 -0.85320269929E+01  0.17443892039E+02  0.19506552920E+02  0.00000000000E+00 0.  1.
</event>
<event>
 7    1  0.1466590E-008  0.4614232E+02  0.7816164E-02  0.1320468E+00
        -11   -1    0    0    0    0  0.00000000000E+00  0.00000000000E+00  0.45593999997E+02  0.45594000000E+02  0.51100000000E-03 0.  1.
         11   -1    0    0    0    0 -0.00000000000E+00 -0.00000000000E+00 -0.45593999997E+02  0.45594000000E+02  0.51100000000E-03 0. -1.
    9900012    2    1    2    0    0 -0.30071457102E+02  0.30991585284E+02 -0.12819616731E+02  0.46142318034E+02  0.10000002490E+02 0.  0.
         12    1    1    2    0    0  0.30071457102E+02 -0.30991585284E+02  0.12819616731E+02  0.45045681966E+02  0.00000000000E+00 0. -1.
         11    1    3    3    0    0 -0.54033147898E+01  0.14108960916E+01 -0.25898096577E+01  0.61557739418E+01  0.51100000000E-03 0. -1.
        -11    1    3    3    0    0 -0.88479244724E+01  0.93991446849E+01 -0.48190617432E+01  0.13778717089E+02  0.51100000000E-03 0.  1.
         12    1    3    3    0    0 -0.15820217840E+02  0.20181544507E+02 -0.54107453303E+01  0.26207827003E+02  0.00000000000E+00 0. -1.
</event>
<event>
 7    1  0.1466590E-008  0.4614232E+02  0.7816164E-02  0.1320468E+00
        -11   -1    0    0    0    0  0.00000000000E+00  0.00000000000E+00  0.45593999997E+02  0.45594000000E+02  0.51100000000E-03 0. -1.
         11   -1    0    0    0    0 -0.00000000000E+00 -0.00000000000E+00 -0.45593999997E+02  0.45594000000E+02  0.51100000000E-03 0.  1.
    9900012    2    1    2    0    0  0.38003722381E+02 -0.24030404023E+02 -0.27148224023E+01  0.46142317710E+02  0.99999995318E+01 0.  0.
         12    1    1    2    0    0 -0.38003722381E+02  0.24030404023E+02  0.27148224023E+01  0.45045682290E+02  0.00000000000E+00 0. -1.
         11    1    3    3    0    0  0.28450134799E+02 -0.16062805636E+02 -0.49029438012E+01  0.33037293369E+02  0.51100000000E-03 0.  1.
        -11    1    3    3    0    0  0.11480114212E+01 -0.28071219482E+01  0.17109527516E+00  0.30376204025E+01  0.51100000000E-03 0. -1.
         12    1    3    3    0    0  0.84055761607E+01 -0.51604764391E+01  0.20170261237E+01  0.10067403938E+02  0.00000000000E+00 0. -1.
</event>
<event>
 7    1  0.1466590E-008  0.4614232E+02  0.7816164E-02  0.1320468E+00
        -11   -1    0    0    0    0  0.00000000000E+00  0.00000000000E+00  0.45593999997E+02  0.45594000000E+02  0.51100000000E-03 0.  1.
         11   -1    0    0    0    0 -0.00000000000E+00 -0.00000000000E+00 -0.45593999997E+02  0.45594000000E+02  0.51100000000E-03 0. -1.
    9900012    2    1    2    0    0 -0.22001225870E+02 -0.23417978863E+02  0.31569887975E+02  0.46142317626E+02  0.99999987685E+01 0.  0.
         12    1    1    2    0    0  0.22001225870E+02  0.23417978863E+02 -0.31569887975E+02  0.45045682374E+02  0.00000000000E+00 0. -1.
         11    1    3    3    0    0 -0.91302113847E+01 -0.75683556995E+01  0.16770894584E+02  0.20540293896E+02  0.51100000000E-03 0. -1.
        -11    1    3    3    0    0 -0.33637223056E+01 -0.57824649574E+01  0.71149503633E+01  0.97659637346E+01  0.51100000000E-03 0.  1.
         12    1    3    3    0    0 -0.95072921793E+01 -0.10067158206E+02  0.76840430272E+01  0.15836059995E+02  0.00000000000E+00 0. -1.
</event>
<event>
 7    1  0.1466590E-008  0.4614232E+02  0.7816164E-02  0.1320468E+00
        -11   -1    0    0    0    0  0.00000000000E+00  0.00000000000E+00  0.45593999997E+02  0.45594000000E+02  0.51100000000E-03 0.  1.
         11   -1    0    0    0    0 -0.00000000000E+00 -0.00000000000E+00 -0.45593999997E+02  0.45594000000E+02  0.51100000000E-03 0. -1.
    9900012    2    1    2    0    0  0.33286483130E+02  0.55426523347E+00  0.30344957562E+02  0.46142316316E+02  0.99999868259E+01 0.  0.
         12    1    1    2    0    0 -0.33286483130E+02 -0.55426523347E+00 -0.30344957562E+02  0.45045683684E+02  0.00000000000E+00 0. -1.
         11    1    3    3    0    0  0.39992397433E+01  0.42229250774E+00  0.16866826648E+01  0.43608655287E+01  0.51100000000E-03 0.  1.
        -11    1    3    3    0    0  0.85558687457E+01  0.35301174079E+01  0.69671201638E+01  0.11584704681E+02  0.51100000000E-03 0. -1.
        -12    1    3    3    0    0  0.20731374641E+02 -0.33981446822E+01  0.21691154733E+02  0.30196746107E+02  0.00000000000E+00 0.  1.
</event>
<event>
 7    1  0.1466590E-008  0.4614232E+02  0.7816164E-02  0.1320468E+00
        -11   -1    0    0    0    0  0.00000000000E+00  0.00000000000E+00  0.45593999997E+02  0.45594000000E+02  0.51100000000E-03 0. -1.
         11   -1    0    0    0    0 -0.00000000000E+00 -0.00000000000E+00 -0.45593999997E+02  0.45594000000E+02  0.51100000000E-03 0.  1.
    9900012    2    1    2    0    0 -0.44075214173E+02 -0.51278977269E+01  0.77584286108E+01  0.46142322583E+02  0.10000043968E+02 0.  0.
         12    1    1    2    0    0  0.44075214173E+02  0.51278977269E+01 -0.77584286108E+01  0.45045677417E+02  0.00000000000E+00 0. -1.
         11    1    3    3    0    0 -0.12938718392E+01  0.14730394443E+01  0.36134389863E+00  0.19936196264E+01  0.51100000000E-03 0. -1.
        -11    1    3    3    0    0 -0.34473295506E+02 -0.45894928481E+01  0.42343169032E+01  0.35034283031E+02  0.51100000000E-03 0.  1.
         12    1    3    3    0    0 -0.83080468277E+01 -0.20114443231E+01  0.31627678089E+01  0.91144199250E+01  0.00000000000E+00 0. -1.
</event>
<event>
 7    1  0.1466590E-008  0.4614232E+02  0.7816164E-02  0.1320468E+00
        -11   -1    0    0    0    0  0.00000000000E+00  0.00000000000E+00  0.45593999997E+02  0.45594000000E+02  0.51100000000E-03 0.  1.
         11   -1    0    0    0    0 -0.00000000000E+00 -0.00000000000E+00 -0.45593999997E+02  0.45594000000E+02  0.51100000000E-03 0. -1.
    9900012    2    1    2    0    0 -0.35368645376E+02  0.67025524230E+01  0.27078555382E+02  0.46142318228E+02  0.10000004262E+02 0.  0.
         12    1    1    2    0    0  0.35368645376E+02 -0.67025524230E+01 -0.27078555382E+02  0.45045681772E+02  0.00000000000E+00 0. -1.
         11    1    3    3    0    0 -0.28415708357E+01  0.36985150689E+00  0.64419084455E+00  0.29370558484E+01  0.51100000000E-03 0. -1.
        -11    1    3    3    0    0 -0.14777057062E+02  0.36094995212E+01  0.17371491710E+02  0.23090227949E+02  0.51100000000E-03 0.  1.
        -12    1    3    3    0    0 -0.17750017478E+02  0.27232013950E+01  0.90628728268E+01  0.20115034431E+02  0.00000000000E+00 0.  1.
</event>
<event>
 7    1  0.1466590E-008  0.4614232E+02  0.7816164E-02  0.1320468E+00
        -11   -1    0    0    0    0  0.00000000000E+00  0.00000000000E+00  0.45593999997E+02  0.45594000000E+02  0.51100000000E-03 0.  1.
         11   -1    0    0    0    0 -0.00000000000E+00 -0.00000000000E+00 -0.45593999997E+02  0.45594000000E+02  0.51100000000E-03 0. -1.
    9900012    2    1    2    0    0  0.36425327995E+02 -0.13015803966E+02 -0.23084580010E+02  0.46142317558E+02  0.99999981515E+01 0.  0.
         12    1    1    2    0    0 -0.36425327995E+02  0.13015803966E+02  0.23084580010E+02  0.45045682442E+02  0.00000000000E+00 0. -1.
         11    1    3    3    0    0  0.15915716442E+02 -0.23967431476E+01 -0.76017199775E+01  0.17800015574E+02  0.51100000000E-03 0.  1.
        -11    1    3    3    0    0  0.17771065654E+02 -0.69899462663E+01 -0.13476909903E+02  0.23373002035E+02  0.51100000000E-03 0. -1.
         12    1    3    3    0    0  0.27385458986E+01 -0.36291145519E+01 -0.20059501290E+01  0.49692999496E+01  0.00000000000E+00 0. -1.
</event>
<event>
 7    1  0.1466590E-008  0.4614232E+02  0.7816164E-02  0.1320468E+00
        -11   -1    0    0    0    0  0.00000000000E+00  0.00000000000E+00  0.45593999997E+02  0.45594000000E+02  0.51100000000E-03 0.  1.
         11   -1    0    0    0    0 -0.00000000000E+00 -0.00000000000E+00 -0.45593999997E+02  0.45594000000E+02  0.51100000000E-03 0. -1.
    9900012    2    1    2    0    0 -0.14942043206E+02 -0.42385171421E+02 -0.30571748905E+01  0.46142315080E+02  0.99999755541E+01 0.  0.
         12    1    1    2    0    0  0.14942043206E+02  0.42385171421E+02  0.30571748905E+01  0.45045684920E+02  0.00000000000E+00 0. -1.
         11    1    3    3    0    0 -0.21805408852E+01 -0.51097628253E+01 -0.32936012329E+01  0.64585016858E+01  0.51100000000E-03 0. -1.
        -11    1    3    3    0    0 -0.56001807490E+01 -0.97756679176E+01  0.31858565410E-01  0.11266176054E+02  0.51100000000E-03 0.  1.
         12    1    3    3    0    0 -0.71613215722E+01 -0.27499740678E+02  0.20456777697E+00  0.28417637340E+02  0.00000000000E+00 0. -1.
</event>
<event>
 7    1  0.1466590E-008  0.4614231E+02  0.7816164E-02  0.1320468E+00
        -11   -1    0    0    0    0  0.00000000000E+00  0.00000000000E+00  0.45593999997E+02  0.45594000000E+02  0.51100000000E-03 0. -1.
         11   -1    0    0    0    0 -0.00000000000E+00 -0.00000000000E+00 -0.45593999997E+02  0.45594000000E+02  0.51100000000E-03 0.  1.
    9900012    2    1    2    0    0  0.14494466554E+01 -0.15630342961E+02 -0.42222096908E+02  0.46142312260E+02  0.99999498367E+01 0.  0.
         12    1    1    2    0    0 -0.14494466554E+01  0.15630342961E+02  0.42222096908E+02  0.45045687740E+02  0.00000000000E+00 0. -1.
         11    1    3    3    0    0 -0.30311706536E+00 -0.19712998845E+01 -0.11926035818E+02  0.12091659679E+02  0.51100000000E-03 0. -1.
        -11    1    3    3    0    0 -0.22836974199E+01 -0.94080999087E+01 -0.18800254915E+02  0.21146564802E+02  0.51100000000E-03 0.  1.
        -12    1    3    3    0    0  0.40362611407E+01 -0.42509431677E+01 -0.11495806174E+02  0.12904087779E+02  0.00000000000E+00 0.  1.
</event>
<event>
 7    1  0.1466590E-008  0.4614232E+02  0.7816164E-02  0.1320468E+00
        -11   -1    0    0    0    0  0.00000000000E+00  0.00000000000E+00  0.45593999997E+02  0.45594000000E+02  0.51100000000E-03 0. -1.
         11   -1    0    0    0    0 -0.00000000000E+00 -0.00000000000E+00 -0.45593999997E+02  0.45594000000E+02  0.51100000000E-03 0.  1.
    9900012    2    1    2    0    0  0.12927795700E+02  0.34477402174E+02  0.25947915648E+02  0.46142317756E+02  0.99999999563E+01 0.  0.
         12    1    1    2    0    0 -0.12927795700E+02 -0.34477402174E+02 -0.25947915648E+02  0.45045682244E+02  0.00000000000E+00 0. -1.
         11    1    3    3    0    0  0.59858394380E+01  0.11489226591E+02  0.65618795870E+01  0.14522081993E+02  0.51100000000E-03 0. -1.
        -11    1    3    3    0    0  0.12125142141E+01  0.13670088217E+02  0.82608348710E+01  0.16018205131E+02  0.51100000000E-03 0.  1.
        -12    1    3    3    0    0  0.57294420477E+01  0.93180873652E+01  0.11125201190E+02  0.15602030632E+02  0.00000000000E+00 0.  1.
</event>
<event>
 7    1  0.1466590E-008  0.4614232E+02  0.7816164E-02  0.1320468E+00
        -11   -1    0    0    0    0  0.00000000000E+00  0.00000000000E+00  0.45593999997E+02  0.45594000000E+02  0.51100000000E-03 0.  1.
         11   -1    0    0    0    0 -0.00000000000E+00 -0.00000000000E+00 -0.45593999997E+02  0.45594000000E+02  0.51100000000E-03 0. -1.
    9900012    2    1    2    0    0 -0.13637641812E+02  0.41169189402E+02  0.12174813283E+02  0.46142317536E+02  0.99999979448E+01 0.  0.
         12    1    1    2    0    0  0.13637641812E+02 -0.41169189402E+02 -0.12174813283E+02  0.45045682464E+02  0.00000000000E+00 0. -1.
         11    1    3    3    0    0 -0.44722905968E+01  0.10708942076E+02  0.32283975039E+01  0.12045969212E+02  0.51100000000E-03 0. -1.
        -11    1    3    3    0    0 -0.66597172496E+01  0.12617111731E+02  0.72364860405E+01  0.15997189526E+02  0.51100000000E-03 0.  1.
        -12    1    3    3    0    0 -0.25056339660E+01  0.17843135595E+02  0.17099297390E+01  0.18099158797E+02  0.00000000000E+00 0.  1.
</event>
<event>
 7    1  0.1466590E-008  0.4614232E+02  0.7816164E-02  0.1320468E+00
        -11   -1    0    0    0    0  0.00000000000E+00  0.00000000000E+00  0.45593999997E+02  0.45594000000E+02  0.51100000000E-03 0.  1.
         11   -1    0    0    0    0 -0.00000000000E+00 -0.00000000000E+00 -0.45593999997E+02  0.45594000000E+02  0.51100000000E-03 0. -1.
    9900012    2    1    2    0    0  0.54225108600E+01  0.43840071120E+02  0.88180568464E+01  0.46142316674E+02  0.99999900830E+01 0.  0.
         12    1    1    2    0    0 -0.54225108600E+01 -0.43840071120E+02 -0.88180568464E+01  0.45045683326E+02  0.00000000000E+00 0. -1.
         11    1    3    3    0    0  0.46692007978E+01  0.25067730318E+02  0.39598777478E+01  0.25804518430E+02  0.51100000000E-03 0. -1.
        -11    1    3    3    0    0 -0.18444401914E+00  0.80700929855E+01  0.51772570103E+01  0.95898076520E+01  0.51100000000E-03 0.  1.
        -12    1    3    3    0    0  0.93775408132E+00  0.10702247816E+02 -0.31907791164E+00  0.10747990591E+02  0.00000000000E+00 0.  1.
</event>
<event>
 7    1  0.1466590E-008  0.4614232E+02  0.7816164E-02  0.1320468E+00
        -11   -1    0    0    0    0  0.00000000000E+00  0.00000000000E+00  0.45593999997E+02  0.45594000000E+02  0.51100000000E-03 0. -1.
         11   -1    0    0    0    0 -0.00000000000E+00 -0.00000000000E+00 -0.45593999997E+02  0.45594000000E+02  0.51100000000E-03 0.  1.
    9900012    2    1    2    0    0 -0.14959587133E+02  0.41680763024E+02  0.82485291490E+01  0.46142317781E+02  0.10000000185E+02 0.  0.
         12    1    1    2    0    0  0.14959587133E+02 -0.41680763024E+02 -0.82485291490E+01  0.45045682219E+02  0.00000000000E+00 0. -1.
         11    1    3    3    0    0 -0.24503466526E+01  0.11372435560E+02  0.14802610055E+01  0.11727218860E+02  0.51100000000E-03 0. -1.
        -11    1    3    3    0    0 -0.32217680675E+01  0.21330958691E+01 -0.43007920023E+00  0.38877828961E+01  0.51100000000E-03 0.  1.
        -12    1    3    3    0    0 -0.92874724126E+01  0.28175231595E+02  0.71983473438E+01  0.30527316025E+02  0.00000000000E+00 0.  1.
</event>
<event>
 7    1  0.1466590E-008  0.4614232E+02  0.7816164E-02  0.1320468E+00
        -11   -1    0    0    0    0  0.00000000000E+00  0.00000000000E+00  0.45593999997E+02  0.45594000000E+02  0.51100000000E-03 0.  1.
         11   -1    0    0    0    0 -0.00000000000E+00 -0.00000000000E+00 -0.45593999997E+02  0.45594000000E+02  0.51100000000E-03 0. -1.
    9900012    2    1    2    0    0  0.11816902548E+02 -0.94104506564E+01  0.42437220725E+02  0.46142317962E+02  0.10000001836E+02 0.  0.
         12    1    1    2    0    0 -0.11816902548E+02  0.94104506564E+01 -0.42437220725E+02  0.45045682038E+02  0.00000000000E+00 0. -1.
         11    1    3    3    0    0  0.47241699380E+01 -0.19778616738E+01  0.79806975974E+01  0.94826817307E+01  0.51100000000E-03 0. -1.
        -11    1    3    3    0    0  0.42534996788E+01 -0.67740406933E+01  0.15126686494E+02  0.17111298354E+02  0.51100000000E-03 0.  1.
        -12    1    3    3    0    0  0.28392329312E+01 -0.65854828943E+00  0.19329836634E+02  0.19548337877E+02  0.00000000000E+00 0.  1.
</event>
<event>
 7    1  0.1466590E-008  0.4614232E+02  0.7816164E-02  0.1320468E+00
        -11   -1    0    0    0    0  0.00000000000E+00  0.00000000000E+00  0.45593999997E+02  0.45594000000E+02  0.51100000000E-03 0.  1.
         11   -1    0    0    0    0 -0.00000000000E+00 -0.00000000000E+00 -0.45593999997E+02  0.45594000000E+02  0.51100000000E-03 0. -1.
    9900012    2    1    2    0    0 -0.25781754926E+02  0.36898794979E+02  0.17010287688E+01  0.46142318112E+02  0.10000003196E+02 0.  0.
         12    1    1    2    0    0  0.25781754926E+02 -0.36898794979E+02 -0.17010287688E+01  0.45045681888E+02  0.00000000000E+00 0. -1.
         11    1    3    3    0    0 -0.92909586085E+01  0.10823149948E+02 -0.15543412417E+01  0.14348465549E+02  0.51100000000E-03 0. -1.
        -11    1    3    3    0    0 -0.39983600059E+01  0.37620873532E+01  0.29218561364E+01  0.62191179063E+01  0.51100000000E-03 0.  1.
        -12    1    3    3    0    0 -0.12492436311E+02  0.22313557678E+02  0.33351387412E+00  0.25574734656E+02  0.00000000000E+00 0.  1.
</event>
<event>
 7    1  0.1466590E-008  0.4614232E+02  0.7816164E-02  0.1320468E+00
        -11   -1    0    0    0    0  0.00000000000E+00  0.00000000000E+00  0.45593999997E+02  0.45594000000E+02  0.51100000000E-03 0.  1.
         11   -1    0    0    0    0 -0.00000000000E+00 -0.00000000000E+00 -0.45593999997E+02  0.45594000000E+02  0.51100000000E-03 0. -1.
    9900012    2    1    2    0    0 -0.12279794709E+02  0.25776243410E+02  0.34841142126E+02  0.46142320217E+02  0.10000022398E+02 0.  0.
         12    1    1    2    0    0  0.12279794709E+02 -0.25776243410E+02 -0.34841142126E+02  0.45045679783E+02  0.00000000000E+00 0. -1.
         11    1    3    3    0    0 -0.29381922311E+00  0.67798695180E+00  0.24756523943E+01  0.25835733164E+01  0.51100000000E-03 0. -1.
        -11    1    3    3    0    0  0.26889235554E+00 -0.53496550208E+00  0.14593549052E+01  0.15774055242E+01  0.51100000000E-03 0.  1.
        -12    1    3    3    0    0 -0.12254867841E+02  0.25633221960E+02  0.30906134827E+02  0.41981341377E+02  0.00000000000E+00 0.  1.
</event>
<event>
 7    1  0.1466590E-008  0.4614232E+02  0.7816164E-02  0.1320468E+00
        -11   -1    0    0    0    0  0.00000000000E+00  0.00000000000E+00  0.45593999997E+02  0.45594000000E+02  0.51100000000E-03 0.  1.
         11   -1    0    0    0    0 -0.00000000000E+00 -0.00000000000E+00 -0.45593999997E+02  0.45594000000E+02  0.51100000000E-03 0. -1.
    9900012    2    1    2    0    0  0.94883210210E+01  0.67640550959E+01  0.43512444460E+02  0.46142317631E+02  0.99999988181E+01 0.  0.
         12    1    1    2    0    0 -0.94883210210E+01 -0.67640550959E+01 -0.43512444460E+02  0.45045682369E+02  0.00000000000E+00 0. -1.
         11    1    3    3    0    0  0.32417775969E+01 -0.70678631954E+00  0.14432859251E+02  0.14809324607E+02  0.51100000000E-03 0. -1.
        -11    1    3    3    0    0  0.74550689673E+01  0.52393086544E+01  0.23436302451E+02  0.25145351087E+02  0.51100000000E-03 0.  1.
        -12    1    3    3    0    0 -0.12085255432E+01  0.22315327611E+01  0.56432827589E+01  0.61876419377E+01  0.00000000000E+00 0.  1.
</event>
<event>
 7    1  0.1801826E-008  0.4614232E+02  0.7816164E-02  0.1320468E+00
        -11   -1    0    0    0    0  0.00000000000E+00  0.00000000000E+00  0.45593999997E+02  0.45594000000E+02  0.51100000000E-03 0. -1.
         11   -1    0    0    0    0 -0.00000000000E+00 -0.00000000000E+00 -0.45593999997E+02  0.45594000000E+02  0.51100000000E-03 0.  1.
    9900012    2    1    2    0    0  0.38913634239E+01 -0.24490062110E+02 -0.37605951883E+02  0.46142317982E+02  0.10000002012E+02 0.  0.
         12    1    1    2    0    0 -0.38913634239E+01  0.24490062110E+02  0.37605951883E+02  0.45045682018E+02  0.00000000000E+00 0. -1.
         11    1    3    3    0    0  0.25884224075E+00 -0.35195135150E+01 -0.13565474507E+01  0.37807665803E+01  0.51100000000E-03 0. -1.
        -11    1    3    3    0    0  0.39055748570E+01 -0.21007770679E+02 -0.34431899809E+02  0.40523273172E+02  0.51100000000E-03 0.  1.
        -12    1    3    3    0    0 -0.27305367386E+00  0.37222083652E-01 -0.18175046237E+01  0.18382782296E+01  0.00000000000E+00 0.  1.
</event>
<event>
 7    1  0.1466590E-008  0.4614232E+02  0.7816164E-02  0.1320468E+00
        -11   -1    0    0    0    0  0.00000000000E+00  0.00000000000E+00  0.45593999997E+02  0.45594000000E+02  0.51100000000E-03 0. -1.
         11   -1    0    0    0    0 -0.00000000000E+00 -0.00000000000E+00 -0.45593999997E+02  0.45594000000E+02  0.51100000000E-03 0.  1.
    9900012    2    1    2    0    0  0.12180042033E+02  0.85453669348E+01 -0.42517488330E+02  0.46142317256E+02  0.99999953954E+01 0.  0.
         12    1    1    2    0    0 -0.12180042033E+02 -0.85453669348E+01  0.42517488330E+02  0.45045682744E+02  0.00000000000E+00 0. -1.
         11    1    3    3    0    0  0.21448036353E+01  0.33423506899E+01 -0.19664946694E+02  0.20061944560E+02  0.51100000000E-03 0. -1.
        -11    1    3    3    0    0  0.89539168037E+01  0.60349288571E+01 -0.21897444124E+02  0.24414975975E+02  0.51100000000E-03 0.  1.
         12    1    3    3    0    0  0.10813215935E+01 -0.83191261213E+00 -0.95509751198E+00  0.16653967216E+01  0.00000000000E+00 0. -1.
</event>
<event>
 7    1  0.1466590E-008  0.4614232E+02  0.7816164E-02  0.1320468E+00
        -11   -1    0    0    0    0  0.00000000000E+00  0.00000000000E+00  0.45593999997E+02  0.45594000000E+02  0.51100000000E-03 0.  1.
         11   -1    0    0    0    0 -0.00000000000E+00 -0.00000000000E+00 -0.45593999997E+02  0.45594000000E+02  0.51100000000E-03 0. -1.
    9900012    2    1    2    0    0  0.25321269145E+02 -0.33230814634E+02 -0.16842204236E+02  0.46142317012E+02  0.99999931656E+01 0.  0.
         12    1    1    2    0    0 -0.25321269145E+02  0.33230814634E+02  0.16842204236E+02  0.45045682988E+02  0.00000000000E+00 0. -1.
         11    1    3    3    0    0  0.21378625171E+02 -0.27612186286E+02 -0.16282081675E+02  0.38530307936E+02  0.51100000000E-03 0. -1.
        -11    1    3    3    0    0  0.32901920239E+01 -0.53345325078E+01 -0.14888494634E+01  0.64419929849E+01  0.51100000000E-03 0.  1.
         12    1    3    3    0    0  0.65245195052E+00 -0.28409583999E+00  0.92872690237E+00  0.11700160910E+01  0.00000000000E+00 0. -1.
</event>
<event>
 7    1  0.1466590E-008  0.4614231E+02  0.7816164E-02  0.1320468E+00
        -11   -1    0    0    0    0  0.00000000000E+00  0.00000000000E+00  0.45593999997E+02  0.45594000000E+02  0.51100000000E-03 0.  1.
         11   -1    0    0    0    0 -0.00000000000E+00 -0.00000000000E+00 -0.45593999997E+02  0.45594000000E+02  0.51100000000E-03 0. -1.
    9900012    2    1    2    0    0  0.31749695558E+02 -0.17555749710E+02  0.26699558352E+02  0.46142312836E+02  0.99999550854E+01 0.  0.
         12    1    1    2    0    0 -0.31749695558E+02  0.17555749710E+02 -0.26699558352E+02  0.45045687164E+02  0.00000000000E+00 0. -1.
         11    1    3    3    0    0  0.17354727519E+02 -0.84768559116E+01  0.18370557363E+02  0.26655600378E+02  0.51100000000E-03 0. -1.
        -11    1    3    3    0    0  0.90238380787E+01 -0.78403971752E+01  0.68583941038E+01  0.13781837740E+02  0.51100000000E-03 0.  1.
        -12    1    3    3    0    0  0.53711299608E+01 -0.12384966234E+01  0.14706068846E+01  0.57048747183E+01  0.00000000000E+00 0.  1.
</event>
<event>
 7    1  0.1466590E-008  0.4614232E+02  0.7816164E-02  0.1320468E+00
        -11   -1    0    0    0    0  0.00000000000E+00  0.00000000000E+00  0.45593999997E+02  0.45594000000E+02  0.51100000000E-03 0.  1.
         11   -1    0    0    0    0 -0.00000000000E+00 -0.00000000000E+00 -0.45593999997E+02  0.45594000000E+02  0.51100000000E-03 0. -1.
    9900012    2    1    2    0    0 -0.12401770287E+02 -0.31358895872E+02  0.29865186313E+02  0.46142316410E+02  0.99999876824E+01 0.  0.
         12    1    1    2    0    0  0.12401770287E+02  0.31358895872E+02 -0.29865186313E+02  0.45045683590E+02  0.00000000000E+00 0. -1.
         11    1    3    3    0    0 -0.10004326290E+01 -0.13067368375E+00  0.35447845465E+01  0.36855717059E+01  0.51100000000E-03 0. -1.
        -11    1    3    3    0    0 -0.99583123159E+01 -0.26295947422E+02  0.21328608289E+02  0.35292412312E+02  0.51100000000E-03 0.  1.
        -12    1    3    3    0    0 -0.14430253420E+01 -0.49322747660E+01  0.49917934775E+01  0.71643323923E+01  0.00000000000E+00 0.  1.
</event>
<event>
 7    1  0.1466590E-008  0.4614232E+02  0.7816164E-02  0.1320468E+00
        -11   -1    0    0    0    0  0.00000000000E+00  0.00000000000E+00  0.45593999997E+02  0.45594000000E+02  0.51100000000E-03 0.  1.
         11   -1    0    0    0    0 -0.00000000000E+00 -0.00000000000E+00 -0.45593999997E+02  0.45594000000E+02  0.51100000000E-03 0. -1.
    9900012    2    1    2    0    0  0.26020219072E+02 -0.33485651053E+02  0.15191207745E+02  0.46142318523E+02  0.10000006946E+02 0.  0.
         12    1    1    2    0    0 -0.26020219072E+02  0.33485651053E+02 -0.15191207745E+02  0.45045681477E+02  0.00000000000E+00 0. -1.
         11    1    3    3    0    0  0.91065993850E+00 -0.16288843140E+00  0.16866787324E+00  0.94036337511E+00  0.51100000000E-03 0. -1.
        -11    1    3    3    0    0  0.38542465546E+01 -0.55443492430E+01 -0.82343391762E+00  0.68024310881E+01  0.51100000000E-03 0.  1.
        -12    1    3    3    0    0  0.21255312579E+02 -0.27778413379E+02  0.15845973790E+02  0.38399524060E+02  0.00000000000E+00 0.  1.
</event>
<event>
 7    1  0.1466590E-008  0.4614232E+02  0.7816164E-02  0.1320468E+00
        -11   -1    0    0    0    0  0.00000000000E+00  0.00000000000E+00  0.45593999997E+02  0.45594000000E+02  0.51100000000E-03 0.  1.
         11   -1    0    0    0    0 -0.00000000000E+00 -0.00000000000E+00 -0.45593999997E+02  0.45594000000E+02  0.51100000000E-03 0. -1.
    9900012    2    1    2    0    0  0.36776507581E+02  0.25340530433E+02  0.58702031375E+01  0.46142320103E+02  0.10000021356E+02 0.  0.
         12    1    1    2    0    0 -0.36776507581E+02 -0.25340530433E+02 -0.58702031375E+01  0.45045679897E+02  0.00000000000E+00 0. -1.
         11    1    3    3    0    0  0.45569167723E+01  0.73340396762E+01  0.34480182343E+00  0.86413261135E+01  0.51100000000E-03 0. -1.
        -11    1    3    3    0    0  0.22745209184E+02  0.14028223967E+02  0.51719223062E+01  0.27219191559E+02  0.51100000000E-03 0.  1.
         12    1    3    3    0    0  0.94743816244E+01  0.39782667903E+01  0.35347900779E+00  0.10281802431E+02  0.00000000000E+00 0. -1.
</event>
<event>
 7    1  0.1466590E-008  0.4614232E+02  0.7816164E-02  0.1320468E+00
        -11   -1    0    0    0    0  0.00000000000E+00  0.00000000000E+00  0.45593999997E+02  0.45594000000E+02  0.51100000000E-03 0.  1.
         11   -1    0    0    0    0 -0.00000000000E+00 -0.00000000000E+00 -0.45593999997E+02  0.45594000000E+02  0.51100000000E-03 0. -1.
    9900012    2    1    2    0    0 -0.25371058449E+02 -0.85916588977E+01  0.36216105516E+02  0.46142317541E+02  0.99999979940E+01 0.  0.
         12    1    1    2    0    0  0.25371058449E+02  0.85916588977E+01 -0.36216105516E+02  0.45045682459E+02  0.00000000000E+00 0. -1.
         11    1    3    3    0    0 -0.79120151539E+01 -0.21798092112E+01  0.16432107251E+02  0.18367517550E+02  0.51100000000E-03 0.  1.
        -11    1    3    3    0    0 -0.11657806422E+02 -0.65100748117E+01  0.11275564793E+02  0.17476380812E+02  0.51100000000E-03 0. -1.
        -12    1    3    3    0    0 -0.58012368730E+01  0.98225125177E-01  0.85084334721E+01  0.10298419179E+02  0.00000000000E+00 0.  1.
</event>
<event>
 7    1  0.1680209E-008  0.4614232E+02  0.7816164E-02  0.1320468E+00
        -11   -1    0    0    0    0  0.00000000000E+00  0.00000000000E+00  0.45593999997E+02  0.45594000000E+02  0.51100000000E-03 0. -1.
         11   -1    0    0    0    0 -0.00000000000E+00 -0.00000000000E+00 -0.45593999997E+02  0.45594000000E+02  0.51100000000E-03 0.  1.
    9900012    2    1    2    0    0  0.43084335769E+02  0.94834017571E+01 -0.91059666615E+01  0.46142317339E+02  0.99999961525E+01 0.  0.
         12    1    1    2    0    0 -0.43084335769E+02 -0.94834017571E+01  0.91059666615E+01  0.45045682661E+02  0.00000000000E+00 0. -1.
         11    1    3    3    0    0 -0.17723483617E+00  0.83590875071E+00  0.28620502247E+00  0.90114882382E+00  0.51100000000E-03 0. -1.
        -11    1    3    3    0    0  0.41437176784E+02  0.76599997599E+01 -0.85260739343E+01  0.42993129139E+02  0.51100000000E-03 0.  1.
        -12    1    3    3    0    0  0.18243938208E+01  0.98749324644E+00 -0.86609774967E+00  0.22480393763E+01  0.00000000000E+00 0.  1.
</event>
<event>
 7    1  0.1466590E-008  0.4614232E+02  0.7816164E-02  0.1320468E+00
        -11   -1    0    0    0    0  0.00000000000E+00  0.00000000000E+00  0.45593999997E+02  0.45594000000E+02  0.51100000000E-03 0. -1.
         11   -1    0    0    0    0 -0.00000000000E+00 -0.00000000000E+00 -0.45593999997E+02  0.45594000000E+02  0.51100000000E-03 0.  1.
    9900012    2    1    2    0    0  0.34949569099E+02 -0.70545656782E+00 -0.28410270756E+02  0.46142317259E+02  0.99999954222E+01 0.  0.
         12    1    1    2    0    0 -0.34949569099E+02  0.70545656782E+00  0.28410270756E+02  0.45045682741E+02  0.00000000000E+00 0. -1.
         11    1    3    3    0    0  0.98597990849E+01 -0.26358231226E+01 -0.62155160373E+01  0.11949721394E+02  0.51100000000E-03 0. -1.
        -11    1    3    3    0    0  0.32713057694E+01  0.19619982309E+01 -0.56206217138E+01  0.67928099639E+01  0.51100000000E-03 0.  1.
        -12    1    3    3    0    0  0.21818464245E+02 -0.31631676163E-01 -0.16574133005E+02  0.27399785901E+02  0.00000000000E+00 0.  1.
</event>
<event>
 7    1  0.1466590E-008  0.4614232E+02  0.7816164E-02  0.1320468E+00
        -11   -1    0    0    0    0  0.00000000000E+00  0.00000000000E+00  0.45593999997E+02  0.45594000000E+02  0.51100000000E-03 0.  1.
         11   -1    0    0    0    0 -0.00000000000E+00 -0.00000000000E+00 -0.45593999997E+02  0.45594000000E+02  0.51100000000E-03 0. -1.
    9900012    2    1    2    0    0  0.30054029988E+02 -0.62961776923E+00  0.33548061675E+02  0.46142316753E+02  0.99999908073E+01 0.  0.
         12    1    1    2    0    0 -0.30054029988E+02  0.62961776923E+00 -0.33548061675E+02  0.45045683247E+02  0.00000000000E+00 0. -1.
         11    1    3    3    0    0  0.79568545669E+01 -0.72048310276E+00  0.15591274734E+02  0.17519088977E+02  0.51100000000E-03 0. -1.
        -11    1    3    3    0    0  0.19173387043E+02  0.46453907683E+00  0.16653957042E+02  0.25400567960E+02  0.51100000000E-03 0.  1.
        -12    1    3    3    0    0  0.29237883779E+01 -0.37367374330E+00  0.13028298988E+01  0.32226598161E+01  0.00000000000E+00 0.  1.
</event>
<event>
 7    1  0.1466590E-008  0.4614232E+02  0.7816164E-02  0.1320468E+00
        -11   -1    0    0    0    0  0.00000000000E+00  0.00000000000E+00  0.45593999997E+02  0.45594000000E+02  0.51100000000E-03 0.  1.
         11   -1    0    0    0    0 -0.00000000000E+00 -0.00000000000E+00 -0.45593999997E+02  0.45594000000E+02  0.51100000000E-03 0. -1.
    9900012    2    1    2    0    0 -0.25015089813E+02 -0.35571757589E+02  0.11747701345E+02  0.46142321593E+02  0.10000034938E+02 0.  0.
         12    1    1    2    0    0  0.25015089813E+02  0.35571757589E+02 -0.11747701345E+02  0.45045678407E+02  0.00000000000E+00 0. -1.
         11    1    3    3    0    0 -0.25597645243E+01 -0.20625971281E+01 -0.55447598712E+00  0.33337884177E+01  0.51100000000E-03 0. -1.
        -11    1    3    3    0    0 -0.19966829616E+02 -0.26633752067E+02  0.76909567881E+01  0.34164043242E+02  0.51100000000E-03 0.  1.
        -12    1    3    3    0    0 -0.24884956725E+01 -0.68754083939E+01  0.46112205436E+01  0.86444899327E+01  0.00000000000E+00 0.  1.
</event>
<event>
 7    1  0.1466590E-008  0.4614233E+02  0.7816164E-02  0.1320468E+00
        -11   -1    0    0    0    0  0.00000000000E+00  0.00000000000E+00  0.45593999997E+02  0.45594000000E+02  0.51100000000E-03 0.  1.
         11   -1    0    0    0    0 -0.00000000000E+00 -0.00000000000E+00 -0.45593999997E+02  0.45594000000E+02  0.51100000000E-03 0. -1.
    9900012    2    1    2    0    0 -0.11117652326E+02 -0.19241708330E+02  0.39182486940E+02  0.46142325230E+02  0.10000068103E+02 0.  0.
         12    1    1    2    0    0  0.11117652326E+02  0.19241708330E+02 -0.39182486940E+02  0.45045674770E+02  0.00000000000E+00 0. -1.
         11    1    3    3    0    0 -0.24358913755E+01 -0.97528261861E+01  0.11289761096E+02  0.15116543629E+02  0.51100000000E-03 0. -1.
        -11    1    3    3    0    0 -0.50490713120E+01 -0.77700102824E+01  0.22210416149E+02  0.24065925427E+02  0.51100000000E-03 0.  1.
         12    1    3    3    0    0 -0.36326896386E+01 -0.17188718616E+01  0.56823096952E+01  0.69598561737E+01  0.00000000000E+00 0. -1.
</event>
<event>
 7    1  0.1466590E-008  0.4614232E+02  0.7816164E-02  0.1320468E+00
        -11   -1    0    0    0    0  0.00000000000E+00  0.00000000000E+00  0.45593999997E+02  0.45594000000E+02  0.51100000000E-03 0.  1.
         11   -1    0    0    0    0 -0.00000000000E+00 -0.00000000000E+00 -0.45593999997E+02  0.45594000000E+02  0.51100000000E-03 0. -1.
    9900012    2    1    2    0    0  0.13265256134E+02 -0.38960481000E+02  0.18309219339E+02  0.46142316379E+02  0.99999874000E+01 0.  0.
         12    1    1    2    0    0 -0.13265256134E+02  0.38960481000E+02 -0.18309219339E+02  0.45045683621E+02  0.00000000000E+00 0. -1.
         11    1    3    3    0    0  0.42298919351E+01 -0.50846078928E+01  0.28868697010E+01  0.72165947744E+01  0.51100000000E-03 0. -1.
        -11    1    3    3    0    0  0.93814377469E+01 -0.26963947191E+02  0.14244332987E+02  0.31905592689E+02  0.51100000000E-03 0.  1.
        -12    1    3    3    0    0 -0.34607354813E+00 -0.69119259159E+01  0.11780166514E+01  0.70201289161E+01  0.00000000000E+00 0.  1.
</event>
<event>
 7    1  0.1466590E-008  0.4614232E+02  0.7816164E-02  0.1320468E+00
        -11   -1    0    0    0    0  0.00000000000E+00  0.00000000000E+00  0.45593999997E+02  0.45594000000E+02  0.51100000000E-03 0. -1.
         11   -1    0    0    0    0 -0.00000000000E+00 -0.00000000000E+00 -0.45593999997E+02  0.45594000000E+02  0.51100000000E-03 0.  1.
    9900012    2    1    2    0    0 -0.17164990199E+02  0.30854914104E+02 -0.27972324095E+02  0.46142317319E+02  0.99999959725E+01 0.  0.
         12    1    1    2    0    0  0.17164990199E+02 -0.30854914104E+02  0.27972324095E+02  0.45045682681E+02  0.00000000000E+00 0. -1.
         11    1    3    3    0    0 -0.45755156787E+01  0.33312269110E+01 -0.60659894937E+01  0.82963031078E+01  0.51100000000E-03 0.  1.
        -11    1    3    3    0    0 -0.20605906725E-01  0.48947382224E+01 -0.25156035014E+01  0.55033760645E+01  0.51100000000E-03 0. -1.
         12    1    3    3    0    0 -0.12568868613E+02  0.22628948970E+02 -0.19390731100E+02  0.32342638147E+02  0.00000000000E+00 0. -1.
</event>
<event>
 7    1  0.1466590E-008  0.4614232E+02  0.7816164E-02  0.1320468E+00
        -11   -1    0    0    0    0  0.00000000000E+00  0.00000000000E+00  0.45593999997E+02  0.45594000000E+02  0.51100000000E-03 0. -1.
         11   -1    0    0    0    0 -0.00000000000E+00 -0.00000000000E+00 -0.45593999997E+02  0.45594000000E+02  0.51100000000E-03 0.  1.
    9900012    2    1    2    0    0 -0.19521604159E+02 -0.39134050015E+02 -0.10795673275E+02  0.46142318065E+02  0.10000002775E+02 0.  0.
         12    1    1    2    0    0  0.19521604159E+02  0.39134050015E+02  0.10795673275E+02  0.45045681935E+02  0.00000000000E+00 0. -1.
         11    1    3    3    0    0 -0.14978408599E+02 -0.27477159008E+02 -0.63109773254E+01  0.31924527034E+02  0.51100000000E-03 0.  1.
        -11    1    3    3    0    0  0.15996673864E-01 -0.18726595994E+01 -0.26863514751E+01  0.32746899667E+01  0.51100000000E-03 0. -1.
         12    1    3    3    0    0 -0.45591922339E+01 -0.97842314074E+01 -0.17983444741E+01  0.10943101064E+02  0.00000000000E+00 0. -1.
</event>
<event>
 7    1  0.1466590E-008  0.4614232E+02  0.7816164E-02  0.1320468E+00
        -11   -1    0    0    0    0  0.00000000000E+00  0.00000000000E+00  0.45593999997E+02  0.45594000000E+02  0.51100000000E-03 0.  1.
         11   -1    0    0    0    0 -0.00000000000E+00 -0.00000000000E+00 -0.45593999997E+02  0.45594000000E+02  0.51100000000E-03 0. -1.
    9900012    2    1    2    0    0 -0.23130363381E+02  0.38611631214E+02  0.18004643626E+01  0.46142318220E+02  0.10000004183E+02 0.  0.
         12    1    1    2    0    0  0.23130363381E+02 -0.38611631214E+02 -0.18004643626E+01  0.45045681780E+02  0.00000000000E+00 0. -1.
         11    1    3    3    0    0 -0.92078764277E+01  0.15073044507E+02  0.33235685840E+01  0.17972973249E+02  0.51100000000E-03 0. -1.
        -11    1    3    3    0    0 -0.12506574846E+02  0.22727042624E+02 -0.28076623652E+01  0.26092448123E+02  0.51100000000E-03 0.  1.
         12    1    3    3    0    0 -0.14159121065E+01  0.81154408269E+00  0.12845581439E+01  0.20768968478E+01  0.00000000000E+00 0. -1.
</event>
<event>
 7    1  0.1466590E-008  0.4614232E+02  0.7816164E-02  0.1320468E+00
        -11   -1    0    0    0    0  0.00000000000E+00  0.00000000000E+00  0.45593999997E+02  0.45594000000E+02  0.51100000000E-03 0. -1.
         11   -1    0    0    0    0 -0.00000000000E+00 -0.00000000000E+00 -0.45593999997E+02  0.45594000000E+02  0.51100000000E-03 0.  1.
    9900012    2    1    2    0    0 -0.27017131715E+02  0.19448022398E+02 -0.30347361066E+02  0.46142319797E+02  0.10000018564E+02 0.  0.
         12    1    1    2    0    0  0.27017131715E+02 -0.19448022398E+02  0.30347361066E+02  0.45045680203E+02  0.00000000000E+00 0. -1.
         11    1    3    3    0    0 -0.14877355786E+02  0.14222432015E+02 -0.13873728222E+02  0.24821233302E+02  0.51100000000E-03 0. -1.
        -11    1    3    3    0    0 -0.28613282230E+00  0.85484439810E+00 -0.11266179822E+01  0.14428788154E+01  0.51100000000E-03 0.  1.
         12    1    3    3    0    0 -0.11853643107E+02  0.43707459842E+01 -0.15347014862E+02  0.19878207679E+02  0.00000000000E+00 0. -1.
</event>
<event>
 7    1  0.1466590E-008  0.4614232E+02  0.7816164E-02  0.1320468E+00
        -11   -1    0    0    0    0  0.00000000000E+00  0.00000000000E+00  0.45593999997E+02  0.45594000000E+02  0.51100000000E-03 0.  1.
         11   -1    0    0    0    0 -0.00000000000E+00 -0.00000000000E+00 -0.45593999997E+02  0.45594000000E+02  0.51100000000E-03 0. -1.
    9900012    2    1    2    0    0  0.40276970818E+02  0.18442378466E+02 -0.81705447478E+01  0.46142317596E+02  0.99999984899E+01 0.  0.
         12    1    1    2    0    0 -0.40276970818E+02 -0.18442378466E+02  0.81705447478E+01  0.45045682404E+02  0.00000000000E+00 0. -1.
         11    1    3    3    0    0  0.41250621849E+01  0.44062658593E+01  0.36912959232E+00  0.60471128457E+01  0.51100000000E-03 0. -1.
        -11    1    3    3    0    0  0.24991735064E+02  0.94501764935E+01 -0.84706159039E+01  0.28029341614E+02  0.51100000000E-03 0.  1.
        -12    1    3    3    0    0  0.11160173570E+02  0.45859361137E+01 -0.69058436241E-01  0.12065863136E+02  0.00000000000E+00 0.  1.
</event>
<event>
 7    1  0.1466590E-008  0.4614232E+02  0.7816164E-02  0.1320468E+00
        -11   -1    0    0    0    0  0.00000000000E+00  0.00000000000E+00  0.45593999997E+02  0.45594000000E+02  0.51100000000E-03 0. -1.
         11   -1    0    0    0    0 -0.00000000000E+00 -0.00000000000E+00 -0.45593999997E+02  0.45594000000E+02  0.51100000000E-03 0.  1.
    9900012    2    1    2    0    0 -0.22211621660E+02  0.38961790903E+02  0.42114326144E+01  0.46142318167E+02  0.10000003701E+02 0.  0.
         12    1    1    2    0    0  0.22211621660E+02 -0.38961790903E+02 -0.42114326144E+01  0.45045681833E+02  0.00000000000E+00 0. -1.
         11    1    3    3    0    0 -0.20428903519E+01  0.26169576682E+01  0.93595732032E+00  0.34493310646E+01  0.51100000000E-03 0. -1.
        -11    1    3    3    0    0 -0.13591964220E+02  0.23902391123E+02 -0.22161880892E+01  0.27585816693E+02  0.51100000000E-03 0.  1.
        -12    1    3    3    0    0 -0.65767670882E+01  0.12442442112E+02  0.54916633833E+01  0.15107170409E+02  0.00000000000E+00 0.  1.
</event>
<event>
 7    1  0.1578061E-008  0.4614232E+02  0.7816164E-02  0.1320468E+00
        -11   -1    0    0    0    0  0.00000000000E+00  0.00000000000E+00  0.45593999997E+02  0.45594000000E+02  0.51100000000E-03 0. -1.
         11   -1    0    0    0    0 -0.00000000000E+00 -0.00000000000E+00 -0.45593999997E+02  0.45594000000E+02  0.51100000000E-03 0.  1.
    9900012    2    1    2    0    0  0.42100254312E+02  0.44528465370E+01 -0.15390070114E+02  0.46142317482E+02  0.99999974546E+01 0.  0.
         12    1    1    2    0    0 -0.42100254312E+02 -0.44528465370E+01  0.15390070114E+02  0.45045682518E+02  0.00000000000E+00 0. -1.
         11    1    3    3    0    0  0.75424859103E+01  0.19177854453E+01  0.51348234037E+00  0.77994012012E+01  0.51100000000E-03 0. -1.
        -11    1    3    3    0    0  0.26307236083E+02  0.46905405204E+00 -0.13063996010E+02  0.29376158259E+02  0.51100000000E-03 0.  1.
        -12    1    3    3    0    0  0.82505323185E+01  0.20660070397E+01 -0.28395564447E+01  0.89667580222E+01  0.00000000000E+00 0.  1.
</event>
<event>
 7    1  0.1466590E-008  0.4614232E+02  0.7816164E-02  0.1320468E+00
        -11   -1    0    0    0    0  0.00000000000E+00  0.00000000000E+00  0.45593999997E+02  0.45594000000E+02  0.51100000000E-03 0.  1.
         11   -1    0    0    0    0 -0.00000000000E+00 -0.00000000000E+00 -0.45593999997E+02  0.45594000000E+02  0.51100000000E-03 0. -1.
    9900012    2    1    2    0    0  0.23611175438E+02  0.21636352846E+02  0.31677975415E+02  0.46142317671E+02  0.99999991787E+01 0.  0.
         12    1    1    2    0    0 -0.23611175438E+02 -0.21636352846E+02 -0.31677975415E+02  0.45045682329E+02  0.00000000000E+00 0. -1.
         11    1    3    3    0    0  0.49906211380E+00  0.52447856831E-01 -0.91126638209E-01  0.51001774129E+00  0.51100000000E-03 0. -1.
        -11    1    3    3    0    0  0.36799761008E+01  0.81857760785E+01  0.10960304447E+02  0.14166066071E+02  0.51100000000E-03 0.  1.
        -12    1    3    3    0    0  0.19432137224E+02  0.13398128911E+02  0.20808797607E+02  0.31466233858E+02  0.00000000000E+00 0.  1.
</event>
<event>
 7    1  0.1466590E-008  0.4614232E+02  0.7816164E-02  0.1320468E+00
        -11   -1    0    0    0    0  0.00000000000E+00  0.00000000000E+00  0.45593999997E+02  0.45594000000E+02  0.51100000000E-03 0.  1.
         11   -1    0    0    0    0 -0.00000000000E+00 -0.00000000000E+00 -0.45593999997E+02  0.45594000000E+02  0.51100000000E-03 0. -1.
    9900012    2    1    2    0    0  0.42900542121E+02  0.12583403085E+02 -0.55058934263E+01  0.46142318633E+02  0.10000007946E+02 0.  0.
         12    1    1    2    0    0 -0.42900542121E+02 -0.12583403085E+02  0.55058934263E+01  0.45045681367E+02  0.00000000000E+00 0. -1.
         11    1    3    3    0    0  0.81238819990E+01  0.61606400253E+00  0.10023777642E+01  0.82086390488E+01  0.51100000000E-03 0. -1.
        -11    1    3    3    0    0  0.17989034890E+02  0.36220719972E+01 -0.55107902557E+01  0.19159686618E+02  0.51100000000E-03 0.  1.
        -12    1    3    3    0    0  0.16787625232E+02  0.83452670848E+01 -0.99748093485E+00  0.18773992965E+02  0.00000000000E+00 0.  1.
</event>
<event>
 7    1  0.1466590E-008  0.4614232E+02  0.7816164E-02  0.1320468E+00
        -11   -1    0    0    0    0  0.00000000000E+00  0.00000000000E+00  0.45593999997E+02  0.45594000000E+02  0.51100000000E-03 0.  1.
         11   -1    0    0    0    0 -0.00000000000E+00 -0.00000000000E+00 -0.45593999997E+02  0.45594000000E+02  0.51100000000E-03 0. -1.
    9900012    2    1    2    0    0  0.37742473108E+02 -0.17538296967E+02  0.17234479831E+02  0.46142318388E+02  0.10000005716E+02 0.  0.
         12    1    1    2    0    0 -0.37742473108E+02  0.17538296967E+02 -0.17234479831E+02  0.45045681612E+02  0.00000000000E+00 0. -1.
         11    1    3    3    0    0  0.11140454595E+02 -0.70476303739E+00  0.32991032762E+01  0.11640038754E+02  0.51100000000E-03 0. -1.
        -11    1    3    3    0    0  0.76453685967E+01 -0.51750496668E+01  0.51889414889E+01  0.10590463355E+02  0.51100000000E-03 0.  1.
         12    1    3    3    0    0  0.18956649917E+02 -0.11658484263E+02  0.87464350662E+01  0.23911816279E+02  0.00000000000E+00 0. -1.
</event>
<event>
 7    1  0.1466590E-008  0.4614232E+02  0.7816164E-02  0.1320468E+00
        -11   -1    0    0    0    0  0.00000000000E+00  0.00000000000E+00  0.45593999997E+02  0.45594000000E+02  0.51100000000E-03 0.  1.
         11   -1    0    0    0    0 -0.00000000000E+00 -0.00000000000E+00 -0.45593999997E+02  0.45594000000E+02  0.51100000000E-03 0. -1.
    9900012    2    1    2    0    0  0.85456852406E+01  0.13393889367E+02  0.42150782695E+02  0.46142317739E+02  0.99999997943E+01 0.  0.
         12    1    1    2    0    0 -0.85456852406E+01 -0.13393889367E+02 -0.42150782695E+02  0.45045682261E+02  0.00000000000E+00 0. -1.
         11    1    3    3    0    0  0.24416548531E+01  0.10207667281E+01  0.24334009402E+01  0.35951472197E+01  0.51100000000E-03 0. -1.
        -11    1    3    3    0    0  0.29852397011E+01  0.10456747350E+02  0.23103614876E+02  0.25534922005E+02  0.51100000000E-03 0.  1.
        -12    1    3    3    0    0  0.31187906864E+01  0.19163752898E+01  0.16613766879E+02  0.17012248514E+02  0.00000000000E+00 0.  1.
</event>
<event>
 7    1  0.1466590E-008  0.4614232E+02  0.7816164E-02  0.1320468E+00
        -11   -1    0    0    0    0  0.00000000000E+00  0.00000000000E+00  0.45593999997E+02  0.45594000000E+02  0.51100000000E-03 0.  1.
         11   -1    0    0    0    0 -0.00000000000E+00 -0.00000000000E+00 -0.45593999997E+02  0.45594000000E+02  0.51100000000E-03 0. -1.
    9900012    2    1    2    0    0  0.26992456949E+02 -0.67622958074E+01  0.35423044587E+02  0.46142318026E+02  0.10000002413E+02 0.  0.
         12    1    1    2    0    0 -0.26992456949E+02  0.67622958074E+01 -0.35423044587E+02  0.45045681974E+02  0.00000000000E+00 0. -1.
         11    1    3    3    0    0  0.15973182163E+01 -0.32304462970E+01  0.38283226939E+01  0.52576861518E+01  0.51100000000E-03 0. -1.
        -11    1    3    3    0    0  0.16980666634E+02 -0.30756900529E+01  0.18379425408E+02  0.25211231370E+02  0.51100000000E-03 0.  1.
        -12    1    3    3    0    0  0.84144720987E+01 -0.45615945749E+00  0.13215296485E+02  0.15673400504E+02  0.00000000000E+00 0.  1.
</event>
<event>
 7    1  0.1521299E-008  0.4614232E+02  0.7816164E-02  0.1320468E+00
        -11   -1    0    0    0    0  0.00000000000E+00  0.00000000000E+00  0.45593999997E+02  0.45594000000E+02  0.51100000000E-03 0.  1.
         11   -1    0    0    0    0 -0.00000000000E+00 -0.00000000000E+00 -0.45593999997E+02  0.45594000000E+02  0.51100000000E-03 0. -1.
    9900012    2    1    2    0    0  0.37692372677E+02  0.21111552412E+02  0.12755424187E+02  0.46142318193E+02  0.10000003940E+02 0.  0.
         12    1    1    2    0    0 -0.37692372677E+02 -0.21111552412E+02 -0.12755424187E+02  0.45045681807E+02  0.00000000000E+00 0. -1.
         11    1    3    3    0    0  0.49637287901E+00  0.34733701827E+00 -0.77201075423E+00  0.98134087097E+00  0.51100000000E-03 0. -1.
        -11    1    3    3    0    0  0.96258336945E+01  0.46324260959E+01  0.63304336140E+01  0.12417344154E+02  0.51100000000E-03 0.  1.
        -12    1    3    3    0    0  0.27570166103E+02  0.16131789298E+02  0.71970013271E+01  0.32743633168E+02  0.00000000000E+00 0.  1.
</event>
<event>
 7    1  0.1466590E-008  0.4614232E+02  0.7816164E-02  0.1320468E+00
        -11   -1    0    0    0    0  0.00000000000E+00  0.00000000000E+00  0.45593999997E+02  0.45594000000E+02  0.51100000000E-03 0. -1.
         11   -1    0    0    0    0 -0.00000000000E+00 -0.00000000000E+00 -0.45593999997E+02  0.45594000000E+02  0.51100000000E-03 0.  1.
    9900012    2    1    2    0    0  0.20347358382E+01  0.30013099265E+02 -0.33528901231E+02  0.46142317685E+02  0.99999993069E+01 0.  0.
         12    1    1    2    0    0 -0.20347358382E+01 -0.30013099265E+02  0.33528901231E+02  0.45045682315E+02  0.00000000000E+00 0. -1.
         11    1    3    3    0    0 -0.15584430784E+01  0.86549746996E+01 -0.85869633718E+01  0.12291186765E+02  0.51100000000E-03 0. -1.
        -11    1    3    3    0    0  0.32779459305E+01  0.11109553758E+02 -0.18221944078E+02  0.21591812348E+02  0.51100000000E-03 0.  1.
        -12    1    3    3    0    0  0.31523298607E+00  0.10248570808E+02 -0.67199937816E+01  0.12259318572E+02  0.00000000000E+00 0.  1.
</event>
<event>
 7    1  0.1724732E-008  0.4614232E+02  0.7816164E-02  0.1320468E+00
        -11   -1    0    0    0    0  0.00000000000E+00  0.00000000000E+00  0.45593999997E+02  0.45594000000E+02  0.51100000000E-03 0.  1.
         11   -1    0    0    0    0 -0.00000000000E+00 -0.00000000000E+00 -0.45593999997E+02  0.45594000000E+02  0.51100000000E-03 0. -1.
    9900012    2    1    2    0    0  0.90357841730E+01 -0.39958052811E+02  0.18730246234E+02  0.46142317587E+02  0.99999984127E+01 0.  0.
         12    1    1    2    0    0 -0.90357841730E+01  0.39958052811E+02 -0.18730246234E+02  0.45045682413E+02  0.00000000000E+00 0. -1.
         11    1    3    3    0    0  0.32701203870E+01 -0.51582553680E+01  0.49265602955E+01  0.78468007744E+01  0.51100000000E-03 0. -1.
        -11    1    3    3    0    0  0.52582142510E+01 -0.24353960251E+02  0.72301070487E+01  0.25942988363E+02  0.51100000000E-03 0.  1.
        -12    1    3    3    0    0  0.50744953494E+00 -0.10445837192E+02  0.65735788902E+01  0.12352528449E+02  0.00000000000E+00 0.  1.
</event>
<event>
 7    1  0.1466590E-008  0.4614232E+02  0.7816164E-02  0.1320468E+00
        -11   -1    0    0    0    0  0.00000000000E+00  0.00000000000E+00  0.45593999997E+02  0.45594000000E+02  0.51100000000E-03 0. -1.
         11   -1    0    0    0    0 -0.00000000000E+00 -0.00000000000E+00 -0.45593999997E+02  0.45594000000E+02  0.51100000000E-03 0.  1.
    9900012    2    1    2    0    0 -0.38897520728E+02  0.22622903468E+02 -0.20737629350E+01  0.46142319043E+02  0.10000011693E+02 0.  0.
         12    1    1    2    0    0  0.38897520728E+02 -0.22622903468E+02  0.20737629350E+01  0.45045680957E+02  0.00000000000E+00 0. -1.
         11    1    3    3    0    0 -0.11208645594E+02  0.96906088779E+01 -0.59920260069E+00  0.14829048536E+02  0.51100000000E-03 0. -1.
        -11    1    3    3    0    0 -0.19576489534E+01  0.38845132863E+00 -0.17968731605E+01  0.26855236501E+01  0.51100000000E-03 0.  1.
        -12    1    3    3    0    0 -0.25731226181E+02  0.12543843262E+02  0.32231282620E+00  0.28627746857E+02  0.00000000000E+00 0.  1.
</event>
<event>
 7    1  0.1466590E-008  0.4614232E+02  0.7816164E-02  0.1320468E+00
        -11   -1    0    0    0    0  0.00000000000E+00  0.00000000000E+00  0.45593999997E+02  0.45594000000E+02  0.51100000000E-03 0.  1.
         11   -1    0    0    0    0 -0.00000000000E+00 -0.00000000000E+00 -0.45593999997E+02  0.45594000000E+02  0.51100000000E-03 0. -1.
    9900012    2    1    2    0    0 -0.30013560165E+02  0.17871827770E+02  0.28441122794E+02  0.46142317772E+02  0.10000000102E+02 0.  0.
         12    1    1    2    0    0  0.30013560165E+02 -0.17871827770E+02 -0.28441122794E+02  0.45045682228E+02  0.00000000000E+00 0. -1.
         11    1    3    3    0    0 -0.35979878430E+01  0.22976287483E+01  0.68744073929E+01  0.80921005708E+01  0.51100000000E-03 0. -1.
        -11    1    3    3    0    0 -0.13398838856E+02  0.91833701813E+01  0.76630376641E+01  0.17960660263E+02  0.51100000000E-03 0.  1.
        -12    1    3    3    0    0 -0.13016733466E+02  0.63908288405E+01  0.13903677737E+02  0.20089556939E+02  0.00000000000E+00 0.  1.
</event>
<event>
 7    1  0.1466590E-008  0.4614232E+02  0.7816164E-02  0.1320468E+00
        -11   -1    0    0    0    0  0.00000000000E+00  0.00000000000E+00  0.45593999997E+02  0.45594000000E+02  0.51100000000E-03 0. -1.
         11   -1    0    0    0    0 -0.00000000000E+00 -0.00000000000E+00 -0.45593999997E+02  0.45594000000E+02  0.51100000000E-03 0.  1.
    9900012    2    1    2    0    0  0.33809320425E+01 -0.43433676750E+02  0.11454184295E+02  0.46142319682E+02  0.10000017513E+02 0.  0.
         12    1    1    2    0    0 -0.33809320425E+01  0.43433676750E+02 -0.11454184295E+02  0.45045680318E+02  0.00000000000E+00 0. -1.
         11    1    3    3    0    0  0.13213205625E+01 -0.95655771585E+01  0.67813467903E+01  0.11799695715E+02  0.51100000000E-03 0. -1.
        -11    1    3    3    0    0 -0.18531859590E+00 -0.28632852906E+01  0.10088034337E+01  0.30414519997E+01  0.51100000000E-03 0.  1.
         12    1    3    3    0    0  0.22449300759E+01 -0.31004814301E+02  0.36640340713E+01  0.31301171967E+02  0.00000000000E+00 0. -1.
</event>
<event>
 7    1  0.1466590E-008  0.4614232E+02  0.7816164E-02  0.1320468E+00
        -11   -1    0    0    0    0  0.00000000000E+00  0.00000000000E+00  0.45593999997E+02  0.45594000000E+02  0.51100000000E-03 0.  1.
         11   -1    0    0    0    0 -0.00000000000E+00 -0.00000000000E+00 -0.45593999997E+02  0.45594000000E+02  0.51100000000E-03 0. -1.
    9900012    2    1    2    0    0 -0.85454029852E+01 -0.22073857197E+02  0.38325374482E+02  0.46142318599E+02  0.10000007636E+02 0.  0.
         12    1    1    2    0    0  0.85454029852E+01  0.22073857197E+02 -0.38325374482E+02  0.45045681401E+02  0.00000000000E+00 0. -1.
         11    1    3    3    0    0  0.66215216079E+00 -0.25157703978E+00  0.41176911817E+01  0.41781715402E+01  0.51100000000E-03 0. -1.
        -11    1    3    3    0    0 -0.78222915621E+01 -0.12979321138E+02  0.18823804489E+02  0.24165815488E+02  0.51100000000E-03 0.  1.
        -12    1    3    3    0    0 -0.13852635839E+01 -0.88429590191E+01  0.15383878811E+02  0.17798331570E+02  0.00000000000E+00 0.  1.
</event>
<event>
 7    1  0.1466590E-008  0.4614231E+02  0.7816164E-02  0.1320468E+00
        -11   -1    0    0    0    0  0.00000000000E+00  0.00000000000E+00  0.45593999997E+02  0.45594000000E+02  0.51100000000E-03 0.  1.
         11   -1    0    0    0    0 -0.00000000000E+00 -0.00000000000E+00 -0.45593999997E+02  0.45594000000E+02  0.51100000000E-03 0. -1.
    9900012    2    1    2    0    0  0.31127810571E+02  0.29876240369E+02  0.12945407933E+02  0.46142313014E+02  0.99999567098E+01 0.  0.
         12    1    1    2    0    0 -0.31127810571E+02 -0.29876240369E+02 -0.12945407933E+02  0.45045686986E+02  0.00000000000E+00 0. -1.
         11    1    3    3    0    0  0.83060744137E+01  0.45044584565E+01  0.38967952634E+01  0.10220862573E+02  0.51100000000E-03 0. -1.
        -11    1    3    3    0    0  0.12169995086E+02  0.11568150456E+02  0.75850364928E+01  0.18424539729E+02  0.51100000000E-03 0.  1.
         12    1    3    3    0    0  0.10651741071E+02  0.13803631456E+02  0.14635761770E+01  0.17496910712E+02  0.00000000000E+00 0. -1.
</event>
<event>
 7    1  0.1466590E-008  0.4614232E+02  0.7816164E-02  0.1320468E+00
        -11   -1    0    0    0    0  0.00000000000E+00  0.00000000000E+00  0.45593999997E+02  0.45594000000E+02  0.51100000000E-03 0.  1.
         11   -1    0    0    0    0 -0.00000000000E+00 -0.00000000000E+00 -0.45593999997E+02  0.45594000000E+02  0.51100000000E-03 0. -1.
    9900012    2    1    2    0    0 -0.43947696021E+02 -0.13950967775E+01 -0.97860726498E+01  0.46142317649E+02  0.99999989758E+01 0.  0.
         12    1    1    2    0    0  0.43947696021E+02  0.13950967775E+01  0.97860726498E+01  0.45045682351E+02  0.00000000000E+00 0. -1.
         11    1    3    3    0    0 -0.10350723722E+02  0.52795671105E+00 -0.54150366434E+01  0.11693538471E+02  0.51100000000E-03 0. -1.
        -11    1    3    3    0    0 -0.28728663823E+02 -0.24579289640E+01 -0.56611322122E+01  0.29384110639E+02  0.51100000000E-03 0.  1.
         12    1    3    3    0    0 -0.48683084760E+01  0.53487547537E+00  0.12900962057E+01  0.50646685392E+01  0.00000000000E+00 0. -1.
</event>
<event>
 7    1  0.1466590E-008  0.4614232E+02  0.7816164E-02  0.1320468E+00
        -11   -1    0    0    0    0  0.00000000000E+00  0.00000000000E+00  0.45593999997E+02  0.45594000000E+02  0.51100000000E-03 0.  1.
         11   -1    0    0    0    0 -0.00000000000E+00 -0.00000000000E+00 -0.45593999997E+02  0.45594000000E+02  0.51100000000E-03 0. -1.
    9900012    2    1    2    0    0  0.31901378255E+02  0.16543785906E+02  0.27160976644E+02  0.46142318310E+02  0.10000005004E+02 0.  0.
         12    1    1    2    0    0 -0.31901378255E+02 -0.16543785906E+02 -0.27160976644E+02  0.45045681690E+02  0.00000000000E+00 0. -1.
         11    1    3    3    0    0  0.25419559576E+01  0.20917471649E+01  0.38732701597E+01  0.50832242016E+01  0.51100000000E-03 0. -1.
        -11    1    3    3    0    0  0.28562835247E+02  0.12455907445E+02  0.19665327287E+02  0.36847120446E+02  0.51100000000E-03 0.  1.
        -12    1    3    3    0    0  0.79658705093E+00  0.19961312964E+01  0.36223791977E+01  0.42119736626E+01  0.00000000000E+00 0.  1.
</event>
<event>
 7    1  0.1466590E-008  0.4614232E+02  0.7816164E-02  0.1320468E+00
        -11   -1    0    0    0    0  0.00000000000E+00  0.00000000000E+00  0.45593999997E+02  0.45594000000E+02  0.51100000000E-03 0. -1.
         11   -1    0    0    0    0 -0.00000000000E+00 -0.00000000000E+00 -0.45593999997E+02  0.45594000000E+02  0.51100000000E-03 0.  1.
    9900012    2    1    2    0    0 -0.68026745770E+01 -0.40342412794E+02 -0.18850113000E+02  0.46142318614E+02  0.10000007778E+02 0.  0.
         12    1    1    2    0    0  0.68026745770E+01  0.40342412794E+02  0.18850113000E+02  0.45045681386E+02  0.00000000000E+00 0. -1.
         11    1    3    3    0    0 -0.40341341780E+01 -0.26422761212E+02 -0.14174038472E+02  0.30254585033E+02  0.51100000000E-03 0. -1.
        -11    1    3    3    0    0 -0.43788415327E+01 -0.10395322293E+02 -0.39066724328E+01  0.11937297370E+02  0.51100000000E-03 0.  1.
         12    1    3    3    0    0  0.16103011337E+01 -0.35243292883E+01 -0.76940209518E+00  0.39504362111E+01  0.00000000000E+00 0. -1.
</event>
<event>
 7    1  0.1466590E-008  0.4614231E+02  0.7816164E-02  0.1320468E+00
        -11   -1    0    0    0    0  0.00000000000E+00  0.00000000000E+00  0.45593999997E+02  0.45594000000E+02  0.51100000000E-03 0.  1.
         11   -1    0    0    0    0 -0.00000000000E+00 -0.00000000000E+00 -0.45593999997E+02  0.45594000000E+02  0.51100000000E-03 0. -1.
    9900012    2    1    2    0    0  0.78201099700E+01 -0.49461779165E+00  0.44358933600E+02  0.46142314781E+02  0.99999728268E+01 0.  0.
         12    1    1    2    0    0 -0.78201099700E+01  0.49461779165E+00 -0.44358933600E+02  0.45045685219E+02  0.00000000000E+00 0. -1.
         11    1    3    3    0    0  0.40216557803E+01  0.11633839216E+01  0.10621728953E+02  0.11417018156E+02  0.51100000000E-03 0. -1.
        -11    1    3    3    0    0  0.38761648475E+01  0.20985105023E+01  0.16111099953E+02  0.16703171622E+02  0.51100000000E-03 0.  1.
         12    1    3    3    0    0 -0.77710657759E-01 -0.37565122156E+01  0.17626104693E+02  0.18022125003E+02  0.00000000000E+00 0. -1.
</event>
<event>
 7    1  0.1466590E-008  0.4614232E+02  0.7816164E-02  0.1320468E+00
        -11   -1    0    0    0    0  0.00000000000E+00  0.00000000000E+00  0.45593999997E+02  0.45594000000E+02  0.51100000000E-03 0.  1.
         11   -1    0    0    0    0 -0.00000000000E+00 -0.00000000000E+00 -0.45593999997E+02  0.45594000000E+02  0.51100000000E-03 0. -1.
    9900012    2    1    2    0    0 -0.87367808646E+01 -0.47071973317E+00  0.44187788222E+02  0.46142317134E+02  0.99999942809E+01 0.  0.
         12    1    1    2    0    0  0.87367808646E+01  0.47071973317E+00 -0.44187788222E+02  0.45045682866E+02  0.00000000000E+00 0. -1.
         11    1    3    3    0    0 -0.40473797415E+01 -0.79241109650E+00  0.72969323056E+01  0.83817909453E+01  0.51100000000E-03 0. -1.
        -11    1    3    3    0    0 -0.22156994446E+01  0.34293677713E+01  0.19172989774E+02  0.19602893268E+02  0.51100000000E-03 0.  1.
        -12    1    3    3    0    0 -0.24737016785E+01 -0.31076764080E+01  0.17717866142E+02  0.18157632921E+02  0.00000000000E+00 0.  1.
</event>
<event>
 7    1  0.1466590E-008  0.4614232E+02  0.7816164E-02  0.1320468E+00
        -11   -1    0    0    0    0  0.00000000000E+00  0.00000000000E+00  0.45593999997E+02  0.45594000000E+02  0.51100000000E-03 0.  1.
         11   -1    0    0    0    0 -0.00000000000E+00 -0.00000000000E+00 -0.45593999997E+02  0.45594000000E+02  0.51100000000E-03 0. -1.
    9900012    2    1    2    0    0  0.78170811022E+01  0.17152180832E+02  0.40912215931E+02  0.46142317891E+02  0.10000001189E+02 0.  0.
         12    1    1    2    0    0 -0.78170811022E+01 -0.17152180832E+02 -0.40912215931E+02  0.45045682109E+02  0.00000000000E+00 0. -1.
         11    1    3    3    0    0  0.54273353349E+01  0.37029617844E+01  0.19274842795E+02  0.20363876346E+02  0.51100000000E-03 0.  1.
        -11    1    3    3    0    0  0.56074833648E+00  0.10646953742E+02  0.16744379390E+02  0.19850599590E+02  0.51100000000E-03 0. -1.
        -12    1    3    3    0    0  0.18289974308E+01  0.28022653053E+01  0.48929937462E+01  0.59278419550E+01  0.00000000000E+00 0.  1.
</event>
<event>
 7    1  0.1466590E-008  0.4614232E+02  0.7816164E-02  0.1320468E+00
        -11   -1    0    0    0    0  0.00000000000E+00  0.00000000000E+00  0.45593999997E+02  0.45594000000E+02  0.51100000000E-03 0. -1.
         11   -1    0    0    0    0 -0.00000000000E+00 -0.00000000000E+00 -0.45593999997E+02  0.45594000000E+02  0.51100000000E-03 0.  1.
    9900012    2    1    2    0    0 -0.15042874324E+02  0.42458771572E+02  0.27952996604E+00  0.46142317761E+02  0.10000000000E+02 0.  0.
         12    1    1    2    0    0  0.15042874324E+02 -0.42458771572E+02 -0.27952996604E+00  0.45045682239E+02  0.00000000000E+00 0. -1.
         11    1    3    3    0    0 -0.81866680884E+01  0.30110116041E+02  0.12969013825E+01  0.31230154913E+02  0.51100000000E-03 0. -1.
        -11    1    3    3    0    0 -0.45907828655E+01  0.10183027010E+02 -0.24980925367E+01  0.11445950943E+02  0.51100000000E-03 0.  1.
         12    1    3    3    0    0 -0.22654233706E+01  0.21656285212E+01  0.14807211203E+01  0.34662119058E+01  0.00000000000E+00 0. -1.
</event>
<event>
 7    1  0.1466590E-008  0.4614232E+02  0.7816164E-02  0.1320468E+00
        -11   -1    0    0    0    0  0.00000000000E+00  0.00000000000E+00  0.45593999997E+02  0.45594000000E+02  0.51100000000E-03 0. -1.
         11   -1    0    0    0    0 -0.00000000000E+00 -0.00000000000E+00 -0.45593999997E+02  0.45594000000E+02  0.51100000000E-03 0.  1.
    9900012    2    1    2    0    0  0.23340286067E+02  0.38379167325E+02  0.33740474925E+01  0.46142316136E+02  0.99999851801E+01 0.  0.
         12    1    1    2    0    0 -0.23340286067E+02 -0.38379167325E+02 -0.33740474925E+01  0.45045683864E+02  0.00000000000E+00 0. -1.
         11    1    3    3    0    0  0.14331887839E+02  0.18893558427E+02  0.53715441812E+01  0.24315078577E+02  0.51100000000E-03 0. -1.
        -11    1    3    3    0    0  0.65059597425E+01  0.15787365300E+02 -0.38512374172E+00  0.17079717089E+02  0.51100000000E-03 0.  1.
        -12    1    3    3    0    0  0.25024384862E+01  0.36982435983E+01 -0.16123729470E+01  0.47475204696E+01  0.00000000000E+00 0.  1.
</event>
<event>
 7    1  0.1466590E-008  0.4614232E+02  0.7816164E-02  0.1320468E+00
        -11   -1    0    0    0    0  0.00000000000E+00  0.00000000000E+00  0.45593999997E+02  0.45594000000E+02  0.51100000000E-03 0.  1.
         11   -1    0    0    0    0 -0.00000000000E+00 -0.00000000000E+00 -0.45593999997E+02  0.45594000000E+02  0.51100000000E-03 0. -1.
    9900012    2    1    2    0    0 -0.24569836234E+02  0.26651674339E+02  0.26741819059E+02  0.46142317807E+02  0.10000000417E+02 0.  0.
         12    1    1    2    0    0  0.24569836234E+02 -0.26651674339E+02 -0.26741819059E+02  0.45045682193E+02  0.00000000000E+00 0. -1.
         11    1    3    3    0    0 -0.82214662421E+01  0.57116715217E+01  0.12052496379E+02  0.15667749295E+02  0.51100000000E-03 0. -1.
        -11    1    3    3    0    0 -0.13083877699E+02  0.15077797255E+02  0.11587691734E+02  0.23082513418E+02  0.51100000000E-03 0.  1.
         12    1    3    3    0    0 -0.32644922928E+01  0.58622055628E+01  0.31016309468E+01  0.73920550945E+01  0.00000000000E+00 0. -1.
</event>
<event>
 7    1  0.1466590E-008  0.4614232E+02  0.7816164E-02  0.1320468E+00
        -11   -1    0    0    0    0  0.00000000000E+00  0.00000000000E+00  0.45593999997E+02  0.45594000000E+02  0.51100000000E-03 0. -1.
         11   -1    0    0    0    0 -0.00000000000E+00 -0.00000000000E+00 -0.45593999997E+02  0.45594000000E+02  0.51100000000E-03 0.  1.
    9900012    2    1    2    0    0  0.44956511208E+02  0.44557933738E+00  0.27976911095E+01  0.46142317449E+02  0.99999971570E+01 0.  0.
         12    1    1    2    0    0 -0.44956511208E+02 -0.44557933738E+00 -0.27976911095E+01  0.45045682551E+02  0.00000000000E+00 0. -1.
         11    1    3    3    0    0  0.60639234374E+01  0.21617217005E+01  0.28896773538E+01  0.70565178123E+01  0.51100000000E-03 0. -1.
        -11    1    3    3    0    0  0.32857898819E+02 -0.74020182380E+00 -0.11277549452E+01  0.32885578070E+02  0.51100000000E-03 0.  1.
        -12    1    3    3    0    0  0.60346889511E+01 -0.97594053937E+00  0.10357687010E+01  0.62002215666E+01  0.00000000000E+00 0.  1.
</event>
<event>
 7    1  0.1466590E-008  0.4614232E+02  0.7816164E-02  0.1320468E+00
        -11   -1    0    0    0    0  0.00000000000E+00  0.00000000000E+00  0.45593999997E+02  0.45594000000E+02  0.51100000000E-03 0.  1.
         11   -1    0    0    0    0 -0.00000000000E+00 -0.00000000000E+00 -0.45593999997E+02  0.45594000000E+02  0.51100000000E-03 0. -1.
    9900012    2    1    2    0    0 -0.52023112515E+01 -0.33241036545E+02  0.29951341716E+02  0.46142318481E+02  0.10000006561E+02 0.  0.
         12    1    1    2    0    0  0.52023112515E+01  0.33241036545E+02 -0.29951341716E+02  0.45045681519E+02  0.00000000000E+00 0. -1.
         11    1    3    3    0    0 -0.24700622346E+01 -0.23076645597E+02  0.24077083769E+02  0.33441572070E+02  0.51100000000E-03 0.  1.
        -11    1    3    3    0    0 -0.38629199297E+00 -0.75348223266E+01  0.28773299693E+01  0.80747629693E+01  0.51100000000E-03 0. -1.
        -12    1    3    3    0    0 -0.23459570239E+01 -0.26295686221E+01  0.29969279776E+01  0.46259834413E+01  0.00000000000E+00 0.  1.
</event>
<event>
 7    1  0.1466590E-008  0.4614232E+02  0.7816164E-02  0.1320468E+00
        -11   -1    0    0    0    0  0.00000000000E+00  0.00000000000E+00  0.45593999997E+02  0.45594000000E+02  0.51100000000E-03 0.  1.
         11   -1    0    0    0    0 -0.00000000000E+00 -0.00000000000E+00 -0.45593999997E+02  0.45594000000E+02  0.51100000000E-03 0. -1.
    9900012    2    1    2    0    0  0.89132004816E+01 -0.28882426397E+02  0.33398710740E+02  0.46142316783E+02  0.99999910775E+01 0.  0.
         12    1    1    2    0    0 -0.89132004816E+01  0.28882426397E+02 -0.33398710740E+02  0.45045683217E+02  0.00000000000E+00 0. -1.
         11    1    3    3    0    0  0.48773373969E+01 -0.19149605963E+02  0.20262663362E+02  0.28303203978E+02  0.51100000000E-03 0. -1.
        -11    1    3    3    0    0  0.44349566246E+01 -0.34537029572E+01  0.47768432427E+01  0.73766615759E+01  0.51100000000E-03 0.  1.
         12    1    3    3    0    0 -0.39909353986E+00 -0.62791174775E+01  0.83592041348E+01  0.10462451229E+02  0.00000000000E+00 0. -1.
</event>
<event>
 7    1  0.1466590E-008  0.4614232E+02  0.7816164E-02  0.1320468E+00
        -11   -1    0    0    0    0  0.00000000000E+00  0.00000000000E+00  0.45593999997E+02  0.45594000000E+02  0.51100000000E-03 0. -1.
         11   -1    0    0    0    0 -0.00000000000E+00 -0.00000000000E+00 -0.45593999997E+02  0.45594000000E+02  0.51100000000E-03 0.  1.
    9900012    2    1    2    0    0 -0.28371158063E+02 -0.19692937860E+02 -0.28920217952E+02  0.46142318545E+02  0.10000007144E+02 0.  0.
         12    1    1    2    0    0  0.28371158063E+02  0.19692937860E+02  0.28920217952E+02  0.45045681455E+02  0.00000000000E+00 0. -1.
         11    1    3    3    0    0 -0.13357601659E+02 -0.12816183038E+02 -0.11080509925E+02  0.21574470335E+02  0.51100000000E-03 0. -1.
        -11    1    3    3    0    0 -0.66976260793E+01 -0.41939921057E+01 -0.63772106074E+01  0.10154633439E+02  0.51100000000E-03 0.  1.
         12    1    3    3    0    0 -0.83159303248E+01 -0.26827627162E+01 -0.11462497419E+02  0.14413214771E+02  0.00000000000E+00 0. -1.
</event>
<event>
 7    1  0.1466590E-008  0.4614232E+02  0.7816164E-02  0.1320468E+00
        -11   -1    0    0    0    0  0.00000000000E+00  0.00000000000E+00  0.45593999997E+02  0.45594000000E+02  0.51100000000E-03 0.  1.
         11   -1    0    0    0    0 -0.00000000000E+00 -0.00000000000E+00 -0.45593999997E+02  0.45594000000E+02  0.51100000000E-03 0. -1.
    9900012    2    1    2    0    0 -0.36758162567E+02  0.34394771044E+01  0.25809317073E+02  0.46142319121E+02  0.10000012400E+02 0.  0.
         12    1    1    2    0    0  0.36758162567E+02 -0.34394771044E+01 -0.25809317073E+02  0.45045680879E+02  0.00000000000E+00 0. -1.
         11    1    3    3    0    0 -0.16847751990E+02  0.86210627131E+00  0.14618443602E+02  0.22322384908E+02  0.51100000000E-03 0.  1.
        -11    1    3    3    0    0 -0.22589126440E+01  0.21900729980E+01  0.51699932571E+00  0.31884784198E+01  0.51100000000E-03 0. -1.
         12    1    3    3    0    0 -0.17651497933E+02  0.38729783514E+00  0.10673874145E+02  0.20631455794E+02  0.00000000000E+00 0. -1.
</event>
<event>
 7    1  0.1466590E-008  0.4614232E+02  0.7816164E-02  0.1320468E+00
        -11   -1    0    0    0    0  0.00000000000E+00  0.00000000000E+00  0.45593999997E+02  0.45594000000E+02  0.51100000000E-03 0.  1.
         11   -1    0    0    0    0 -0.00000000000E+00 -0.00000000000E+00 -0.45593999997E+02  0.45594000000E+02  0.51100000000E-03 0. -1.
    9900012    2    1    2    0    0 -0.18704367046E+02  0.24143056120E+02  0.33111521695E+02  0.46142319026E+02  0.10000011537E+02 0.  0.
         12    1    1    2    0    0  0.18704367046E+02 -0.24143056120E+02 -0.33111521695E+02  0.45045680974E+02  0.00000000000E+00 0. -1.
         11    1    3    3    0    0 -0.12823624129E+01  0.29212642320E+01  0.47071656792E+00  0.32248740160E+01  0.51100000000E-03 0. -1.
        -11    1    3    3    0    0 -0.16300397022E+02  0.21186761944E+02  0.31068564967E+02  0.40985821380E+02  0.51100000000E-03 0.  1.
         12    1    3    3    0    0 -0.11216076112E+01  0.35029943886E-01  0.15722401599E+01  0.19316236307E+01  0.00000000000E+00 0. -1.
</event>
<event>
 7    1  0.1466590E-008  0.4614232E+02  0.7816164E-02  0.1320468E+00
        -11   -1    0    0    0    0  0.00000000000E+00  0.00000000000E+00  0.45593999997E+02  0.45594000000E+02  0.51100000000E-03 0.  1.
         11   -1    0    0    0    0 -0.00000000000E+00 -0.00000000000E+00 -0.45593999997E+02  0.45594000000E+02  0.51100000000E-03 0. -1.
    9900012    2    1    2    0    0 -0.22689780596E+01 -0.65542942977E+01  0.44508495972E+02  0.46142320419E+02  0.10000024237E+02 0.  0.
         12    1    1    2    0    0  0.22689780596E+01  0.65542942977E+01 -0.44508495972E+02  0.45045679581E+02  0.00000000000E+00 0. -1.
         11    1    3    3    0    0  0.13449721235E+01 -0.12342107004E+01  0.46557948355E+01  0.50008651128E+01  0.51100000000E-03 0.  1.
        -11    1    3    3    0    0  0.20867184051E+01 -0.65697226159E+00  0.16774586670E+02  0.16916641642E+02  0.51100000000E-03 0. -1.
        -12    1    3    3    0    0 -0.57006685882E+01 -0.46631113357E+01  0.23078114467E+02  0.24224813664E+02  0.00000000000E+00 0.  1.
</event>
<event>
 7    1  0.1466590E-008  0.4614232E+02  0.7816164E-02  0.1320468E+00
        -11   -1    0    0    0    0  0.00000000000E+00  0.00000000000E+00  0.45593999997E+02  0.45594000000E+02  0.51100000000E-03 0.  1.
         11   -1    0    0    0    0 -0.00000000000E+00 -0.00000000000E+00 -0.45593999997E+02  0.45594000000E+02  0.51100000000E-03 0. -1.
    9900012    2    1    2    0    0  0.19831531508E+02  0.40175675047E+02  0.46625264769E+01  0.46142315850E+02  0.99999825734E+01 0.  0.
         12    1    1    2    0    0 -0.19831531508E+02 -0.40175675047E+02 -0.46625264769E+01  0.45045684150E+02  0.00000000000E+00 0. -1.
         11    1    3    3    0    0  0.12187539848E+01  0.45837097454E+01  0.31113263289E+01  0.56723987952E+01  0.51100000000E-03 0. -1.
        -11    1    3    3    0    0  0.15376639364E+02  0.29197389504E+02 -0.54305240725E+00  0.33003386162E+02  0.51100000000E-03 0.  1.
        -12    1    3    3    0    0  0.32361381590E+01  0.63945757971E+01  0.20942525553E+01  0.74665308929E+01  0.00000000000E+00 0.  1.
</event>
<event>
 7    1  0.1466590E-008  0.4614232E+02  0.7816164E-02  0.1320468E+00
        -11   -1    0    0    0    0  0.00000000000E+00  0.00000000000E+00  0.45593999997E+02  0.45594000000E+02  0.51100000000E-03 0.  1.
         11   -1    0    0    0    0 -0.00000000000E+00 -0.00000000000E+00 -0.45593999997E+02  0.45594000000E+02  0.51100000000E-03 0. -1.
    9900012    2    1    2    0    0  0.65700833590E+01 -0.21164843091E+02  0.39217301250E+02  0.46142319899E+02  0.10000019499E+02 0.  0.
         12    1    1    2    0    0 -0.65700833590E+01  0.21164843091E+02 -0.39217301250E+02  0.45045680101E+02  0.00000000000E+00 0. -1.
         11    1    3    3    0    0  0.24545301228E+01 -0.64947850506E+01  0.18400063830E+02  0.19666451133E+02  0.51100000000E-03 0. -1.
        -11    1    3    3    0    0  0.22896825046E+01 -0.12080209790E+01  0.20219219200E+01  0.32848332027E+01  0.51100000000E-03 0.  1.
        -12    1    3    3    0    0  0.18258707316E+01 -0.13462037061E+02  0.18795315500E+02  0.23191035564E+02  0.00000000000E+00 0.  1.
</event>
<event>
 7    1  0.1466590E-008  0.4614232E+02  0.7816164E-02  0.1320468E+00
        -11   -1    0    0    0    0  0.00000000000E+00  0.00000000000E+00  0.45593999997E+02  0.45594000000E+02  0.51100000000E-03 0. -1.
         11   -1    0    0    0    0 -0.00000000000E+00 -0.00000000000E+00 -0.45593999997E+02  0.45594000000E+02  0.51100000000E-03 0.  1.
    9900012    2    1    2    0    0 -0.36256210265E+02  0.17002997631E+02 -0.20627625608E+02  0.46142315973E+02  0.99999836948E+01 0.  0.
         12    1    1    2    0    0  0.36256210265E+02 -0.17002997631E+02  0.20627625608E+02  0.45045684027E+02  0.00000000000E+00 0. -1.
         11    1    3    3    0    0 -0.13252891097E+02  0.21476088765E+01 -0.36925016181E+01  0.13924292254E+02  0.51100000000E-03 0. -1.
        -11    1    3    3    0    0 -0.10972343465E+02  0.68382580445E+01 -0.73544955304E+01  0.14874229357E+02  0.51100000000E-03 0.  1.
         12    1    3    3    0    0 -0.12030975704E+02  0.80171307104E+01 -0.95806284597E+01  0.17343794363E+02  0.00000000000E+00 0. -1.
</event>
<event>
 7    1  0.1466590E-008  0.4614232E+02  0.7816164E-02  0.1320468E+00
        -11   -1    0    0    0    0  0.00000000000E+00  0.00000000000E+00  0.45593999997E+02  0.45594000000E+02  0.51100000000E-03 0. -1.
         11   -1    0    0    0    0 -0.00000000000E+00 -0.00000000000E+00 -0.45593999997E+02  0.45594000000E+02  0.51100000000E-03 0.  1.
    9900012    2    1    2    0    0 -0.44565571050E+02 -0.58998195868E+01 -0.28662603092E+01  0.46142318273E+02  0.10000004663E+02 0.  0.
         12    1    1    2    0    0  0.44565571050E+02  0.58998195868E+01  0.28662603092E+01  0.45045681727E+02  0.00000000000E+00 0. -1.
         11    1    3    3    0    0 -0.10410427990E+02 -0.25864916633E+01 -0.39947599786E+01  0.11446617737E+02  0.51100000000E-03 0. -1.
        -11    1    3    3    0    0 -0.65762008288E+01  0.13236688311E+01  0.32115780334E-01  0.67081702572E+01  0.51100000000E-03 0.  1.
         12    1    3    3    0    0 -0.27578942230E+02 -0.46369967546E+01  0.10963838890E+01  0.27987530278E+02  0.00000000000E+00 0. -1.
</event>
<event>
 7    1  0.1466590E-008  0.4614232E+02  0.7816164E-02  0.1320468E+00
        -11   -1    0    0    0    0  0.00000000000E+00  0.00000000000E+00  0.45593999997E+02  0.45594000000E+02  0.51100000000E-03 0.  1.
         11   -1    0    0    0    0 -0.00000000000E+00 -0.00000000000E+00 -0.45593999997E+02  0.45594000000E+02  0.51100000000E-03 0. -1.
    9900012    2    1    2    0    0 -0.10034792989E+01  0.32608530483E+02  0.31061073290E+02  0.46142317577E+02  0.99999983257E+01 0.  0.
         12    1    1    2    0    0  0.10034792989E+01 -0.32608530483E+02 -0.31061073290E+02  0.45045682423E+02  0.00000000000E+00 0. -1.
         11    1    3    3    0    0  0.10363681436E+01  0.19334963790E+01  0.42825637976E+01  0.48117377441E+01  0.51100000000E-03 0. -1.
        -11    1    3    3    0    0  0.72189079577E+00  0.11380229014E+02  0.61727899949E+01  0.12966652433E+02  0.51100000000E-03 0.  1.
        -12    1    3    3    0    0 -0.27617382383E+01  0.19294805090E+02  0.20605719498E+02  0.28363927400E+02  0.00000000000E+00 0.  1.
</event>
<event>
 7    1  0.1466590E-008  0.4614232E+02  0.7816164E-02  0.1320468E+00
        -11   -1    0    0    0    0  0.00000000000E+00  0.00000000000E+00  0.45593999997E+02  0.45594000000E+02  0.51100000000E-03 0.  1.
         11   -1    0    0    0    0 -0.00000000000E+00 -0.00000000000E+00 -0.45593999997E+02  0.45594000000E+02  0.51100000000E-03 0. -1.
    9900012    2    1    2    0    0 -0.57444233041E+01 -0.43234005265E+02  0.11266581806E+02  0.46142317899E+02  0.10000001255E+02 0.  0.
         12    1    1    2    0    0  0.57444233041E+01  0.43234005265E+02 -0.11266581806E+02  0.45045682101E+02  0.00000000000E+00 0. -1.
         11    1    3    3    0    0 -0.64124363035E+01 -0.26198324610E+02  0.53919039837E+01  0.27505348218E+02  0.51100000000E-03 0. -1.
        -11    1    3    3    0    0 -0.39829241608E+00 -0.14948942667E+02  0.63487407789E+01  0.16246108255E+02  0.51100000000E-03 0.  1.
         12    1    3    3    0    0  0.10663054155E+01 -0.20867379881E+01 -0.47406295680E+00  0.23908614257E+01  0.00000000000E+00 0. -1.
</event>
<event>
 7    1  0.1466590E-008  0.4614232E+02  0.7816164E-02  0.1320468E+00
        -11   -1    0    0    0    0  0.00000000000E+00  0.00000000000E+00  0.45593999997E+02  0.45594000000E+02  0.51100000000E-03 0.  1.
         11   -1    0    0    0    0 -0.00000000000E+00 -0.00000000000E+00 -0.45593999997E+02  0.45594000000E+02  0.51100000000E-03 0. -1.
    9900012    2    1    2    0    0 -0.29842027627E+01 -0.43067117582E+02 -0.12862014570E+02  0.46142317613E+02  0.99999986469E+01 0.  0.
         12    1    1    2    0    0  0.29842027627E+01  0.43067117582E+02  0.12862014570E+02  0.45045682387E+02  0.00000000000E+00 0. -1.
         11    1    3    3    0    0 -0.42059931521E+01 -0.20832286664E+02 -0.87729364198E+01  0.22992149959E+02  0.51100000000E-03 0. -1.
        -11    1    3    3    0    0  0.21305769494E+01 -0.21109753850E+02 -0.44058300345E+01  0.21669619385E+02  0.51100000000E-03 0.  1.
        -12    1    3    3    0    0 -0.90878655998E+00 -0.11250770678E+01  0.31675188384E+00  0.14805482687E+01  0.00000000000E+00 0.  1.
</event>
<event>
 7    1  0.1466590E-008  0.4614232E+02  0.7816164E-02  0.1320468E+00
        -11   -1    0    0    0    0  0.00000000000E+00  0.00000000000E+00  0.45593999997E+02  0.45594000000E+02  0.51100000000E-03 0.  1.
         11   -1    0    0    0    0 -0.00000000000E+00 -0.00000000000E+00 -0.45593999997E+02  0.45594000000E+02  0.51100000000E-03 0. -1.
    9900012    2    1    2    0    0  0.29936099275E+01 -0.12504548261E+02  0.43171612803E+02  0.46142316748E+02  0.99999907620E+01 0.  0.
         12    1    1    2    0    0 -0.29936099275E+01  0.12504548261E+02 -0.43171612803E+02  0.45045683252E+02  0.00000000000E+00 0. -1.
         11    1    3    3    0    0 -0.18285978943E+01 -0.22120705964E+01  0.71704693751E+01  0.77235133135E+01  0.51100000000E-03 0. -1.
        -11    1    3    3    0    0  0.49974564897E+01 -0.10861490180E+02  0.35868697516E+02  0.37808861423E+02  0.51100000000E-03 0.  1.
        -12    1    3    3    0    0 -0.17524866790E+00  0.56901251540E+00  0.13244591157E+00  0.60994201181E+00  0.00000000000E+00 0.  1.
</event>
<event>
 7    1  0.1466590E-008  0.4614232E+02  0.7816164E-02  0.1320468E+00
        -11   -1    0    0    0    0  0.00000000000E+00  0.00000000000E+00  0.45593999997E+02  0.45594000000E+02  0.51100000000E-03 0.  1.
         11   -1    0    0    0    0 -0.00000000000E+00 -0.00000000000E+00 -0.45593999997E+02  0.45594000000E+02  0.51100000000E-03 0. -1.
    9900012    2    1    2    0    0 -0.45277867945E+01  0.16940968242E+02  0.41492362892E+02  0.46142318336E+02  0.10000005244E+02 0.  0.
         12    1    1    2    0    0  0.45277867945E+01 -0.16940968242E+02 -0.41492362892E+02  0.45045681664E+02  0.00000000000E+00 0. -1.
         11    1    3    3    0    0 -0.36729971076E+01  0.41874929094E+01  0.12290384277E+02  0.13493685581E+02  0.51100000000E-03 0. -1.
        -11    1    3    3    0    0  0.13703091992E+00 -0.54628659454E+00  0.48603384201E+01  0.48928617736E+01  0.51100000000E-03 0.  1.
        -12    1    3    3    0    0 -0.99182060690E+00  0.13299761927E+02  0.24341640194E+02  0.27755770981E+02  0.00000000000E+00 0.  1.
</event>
<event>
 7    1  0.1466590E-008  0.4614232E+02  0.7816164E-02  0.1320468E+00
        -11   -1    0    0    0    0  0.00000000000E+00  0.00000000000E+00  0.45593999997E+02  0.45594000000E+02  0.51100000000E-03 0.  1.
         11   -1    0    0    0    0 -0.00000000000E+00 -0.00000000000E+00 -0.45593999997E+02  0.45594000000E+02  0.51100000000E-03 0. -1.
    9900012    2    1    2    0    0  0.21464413549E+02 -0.60371875243E+00  0.39598333290E+02  0.46142317358E+02  0.99999963268E+01 0.  0.
         12    1    1    2    0    0 -0.21464413549E+02  0.60371875243E+00 -0.39598333290E+02  0.45045682642E+02  0.00000000000E+00 0. -1.
         11    1    3    3    0    0  0.47368929294E+01 -0.37957614144E+00  0.15158059528E+02  0.15885496580E+02  0.51100000000E-03 0. -1.
        -11    1    3    3    0    0  0.11063416738E+01  0.13667180256E+01  0.94100524772E+00  0.19943422971E+01  0.51100000000E-03 0.  1.
        -12    1    3    3    0    0  0.15621178945E+02 -0.15908606366E+01  0.23499268514E+02  0.28262478482E+02  0.00000000000E+00 0.  1.
</event>
<event>
 7    1  0.1907531E-008  0.4614232E+02  0.7816164E-02  0.1320468E+00
        -11   -1    0    0    0    0  0.00000000000E+00  0.00000000000E+00  0.45593999997E+02  0.45594000000E+02  0.51100000000E-03 0. -1.
         11   -1    0    0    0    0 -0.00000000000E+00 -0.00000000000E+00 -0.45593999997E+02  0.45594000000E+02  0.51100000000E-03 0.  1.
    9900012    2    1    2    0    0 -0.41856394863E+02 -0.12931136630E+02 -0.10485296321E+02  0.46142317361E+02  0.99999963505E+01 0.  0.
         12    1    1    2    0    0  0.41856394863E+02  0.12931136630E+02  0.10485296321E+02  0.45045682639E+02  0.00000000000E+00 0. -1.
         11    1    3    3    0    0 -0.53610804522E+01 -0.60159770176E+00 -0.39091647672E+01  0.66621822887E+01  0.51100000000E-03 0. -1.
        -11    1    3    3    0    0 -0.36257882830E+02 -0.12210759885E+02 -0.58455425610E+01  0.38702804709E+02  0.51100000000E-03 0.  1.
        -12    1    3    3    0    0 -0.23743158095E+00 -0.11877904351E+00 -0.73058899257E+00  0.77733036276E+00  0.00000000000E+00 0.  1.
</event>
<event>
 7    1  0.1466590E-008  0.4614232E+02  0.7816164E-02  0.1320468E+00
        -11   -1    0    0    0    0  0.00000000000E+00  0.00000000000E+00  0.45593999997E+02  0.45594000000E+02  0.51100000000E-03 0.  1.
         11   -1    0    0    0    0 -0.00000000000E+00 -0.00000000000E+00 -0.45593999997E+02  0.45594000000E+02  0.51100000000E-03 0. -1.
    9900012    2    1    2    0    0 -0.25765588166E+02  0.27146164020E+02  0.25066584718E+02  0.46142318476E+02  0.10000006523E+02 0.  0.
         12    1    1    2    0    0  0.25765588166E+02 -0.27146164020E+02 -0.25066584718E+02  0.45045681524E+02  0.00000000000E+00 0. -1.
         11    1    3    3    0    0 -0.43371168726E+01  0.64857373695E+01  0.10314294777E+01  0.78701473316E+01  0.51100000000E-03 0. -1.
        -11    1    3    3    0    0 -0.18292863707E+02  0.17197684536E+02  0.20014683374E+02  0.32108826931E+02  0.51100000000E-03 0.  1.
         12    1    3    3    0    0 -0.31356075861E+01  0.34627421139E+01  0.40204718657E+01  0.61633442143E+01  0.00000000000E+00 0. -1.
</event>
<event>
 7    1  0.1466590E-008  0.4614232E+02  0.7816164E-02  0.1320468E+00
        -11   -1    0    0    0    0  0.00000000000E+00  0.00000000000E+00  0.45593999997E+02  0.45594000000E+02  0.51100000000E-03 0.  1.
         11   -1    0    0    0    0 -0.00000000000E+00 -0.00000000000E+00 -0.45593999997E+02  0.45594000000E+02  0.51100000000E-03 0. -1.
    9900012    2    1    2    0    0  0.38111665110E+02  0.15296812707E+02  0.18510048526E+02  0.46142318821E+02  0.10000009667E+02 0.  0.
         12    1    1    2    0    0 -0.38111665110E+02 -0.15296812707E+02 -0.18510048526E+02  0.45045681179E+02  0.00000000000E+00 0. -1.
         11    1    3    3    0    0  0.21813248719E+02  0.35968426881E+01  0.96097853250E+01  0.24106079550E+02  0.51100000000E-03 0. -1.
        -11    1    3    3    0    0  0.13321387146E+02  0.93008097145E+01  0.63685507920E+01  0.17450583265E+02  0.51100000000E-03 0.  1.
        -12    1    3    3    0    0  0.29770292450E+01  0.23991603039E+01  0.25317124093E+01  0.45856560068E+01  0.00000000000E+00 0.  1.
</event>
<event>
 7    1  0.1466590E-008  0.4614232E+02  0.7816164E-02  0.1320468E+00
        -11   -1    0    0    0    0  0.00000000000E+00  0.00000000000E+00  0.45593999997E+02  0.45594000000E+02  0.51100000000E-03 0.  1.
         11   -1    0    0    0    0 -0.00000000000E+00 -0.00000000000E+00 -0.45593999997E+02  0.45594000000E+02  0.51100000000E-03 0. -1.
    9900012    2    1    2    0    0  0.35940755914E+02  0.22276854732E+02  0.15527953465E+02  0.46142317285E+02  0.99999956582E+01 0.  0.
         12    1    1    2    0    0 -0.35940755914E+02 -0.22276854732E+02 -0.15527953465E+02  0.45045682715E+02  0.00000000000E+00 0. -1.
         11    1    3    3    0    0  0.19443120169E+02  0.15846228455E+02  0.64942464880E+01  0.25909710840E+02  0.51100000000E-03 0. -1.
        -11    1    3    3    0    0  0.16278866909E+02  0.67154012369E+01  0.91630289640E+01  0.19850924958E+02  0.51100000000E-03 0.  1.
         12    1    3    3    0    0  0.21876883634E+00 -0.28477495897E+00 -0.12932198720E+00  0.38168148683E+00  0.00000000000E+00 0. -1.
</event>
<event>
 7    1  0.1466590E-008  0.4614232E+02  0.7816164E-02  0.1320468E+00
        -11   -1    0    0    0    0  0.00000000000E+00  0.00000000000E+00  0.45593999997E+02  0.45594000000E+02  0.51100000000E-03 0.  1.
         11   -1    0    0    0    0 -0.00000000000E+00 -0.00000000000E+00 -0.45593999997E+02  0.45594000000E+02  0.51100000000E-03 0. -1.
    9900012    2    1    2    0    0  0.11884984531E+02 -0.14293897933E+02  0.41031026867E+02  0.46142317175E+02  0.99999946578E+01 0.  0.
         12    1    1    2    0    0 -0.11884984531E+02  0.14293897933E+02 -0.41031026867E+02  0.45045682825E+02  0.00000000000E+00 0. -1.
         11    1    3    3    0    0  0.35059660241E+00 -0.36745078428E+01  0.30089115324E+01  0.47621922195E+01  0.51100000000E-03 0. -1.
        -11    1    3    3    0    0  0.10400665296E+02 -0.71977903448E+01  0.31151367201E+02  0.33621268614E+02  0.51100000000E-03 0.  1.
        -12    1    3    3    0    0  0.11337226323E+01 -0.34215997458E+01  0.68707481330E+01  0.77588563419E+01  0.00000000000E+00 0.  1.
</event>
<event>
 7    1  0.1466590E-008  0.4614232E+02  0.7816164E-02  0.1320468E+00
        -11   -1    0    0    0    0  0.00000000000E+00  0.00000000000E+00  0.45593999997E+02  0.45594000000E+02  0.51100000000E-03 0.  1.
         11   -1    0    0    0    0 -0.00000000000E+00 -0.00000000000E+00 -0.45593999997E+02  0.45594000000E+02  0.51100000000E-03 0. -1.
    9900012    2    1    2    0    0  0.14426984431E+02  0.40397778255E+02  0.13747553206E+02  0.46142316668E+02  0.99999900296E+01 0.  0.
         12    1    1    2    0    0 -0.14426984431E+02 -0.40397778255E+02 -0.13747553206E+02  0.45045683332E+02  0.00000000000E+00 0. -1.
         11    1    3    3    0    0  0.35533954578E+01  0.39919237118E+01  0.30819391477E+01  0.61693130388E+01  0.51100000000E-03 0. -1.
        -11    1    3    3    0    0  0.71127520487E+01  0.30133142753E+02  0.10375678380E+02  0.32653517972E+02  0.51100000000E-03 0.  1.
        -12    1    3    3    0    0  0.37608369246E+01  0.62727117905E+01  0.28993567882E+00  0.73194856566E+01  0.00000000000E+00 0.  1.
</event>
<event>
 7    1  0.1466590E-008  0.4614232E+02  0.7816164E-02  0.1320468E+00
        -11   -1    0    0    0    0  0.00000000000E+00  0.00000000000E+00  0.45593999997E+02  0.45594000000E+02  0.51100000000E-03 0.  1.
         11   -1    0    0    0    0 -0.00000000000E+00 -0.00000000000E+00 -0.45593999997E+02  0.45594000000E+02  0.51100000000E-03 0. -1.
    9900012    2    1    2    0    0  0.96014327654E+00  0.14001921578E+02  0.42803479281E+02  0.46142317392E+02  0.99999966384E+01 0.  0.
         12    1    1    2    0    0 -0.96014327654E+00 -0.14001921578E+02 -0.42803479281E+02  0.45045682608E+02  0.00000000000E+00 0. -1.
         11    1    3    3    0    0 -0.32108862323E+01  0.34196688230E+01  0.15124283735E+02  0.15835020808E+02  0.51100000000E-03 0. -1.
        -11    1    3    3    0    0  0.30230954649E+01  0.94351660581E+01  0.18502233841E+02  0.20987951832E+02  0.51100000000E-03 0.  1.
        -12    1    3    3    0    0  0.11479340440E+01  0.11470866970E+01  0.91769617059E+01  0.93193447523E+01  0.00000000000E+00 0.  1.
</event>
<event>
 7    1  0.1466590E-008  0.4614232E+02  0.7816164E-02  0.1320468E+00
        -11   -1    0    0    0    0  0.00000000000E+00  0.00000000000E+00  0.45593999997E+02  0.45594000000E+02  0.51100000000E-03 0.  1.
         11   -1    0    0    0    0 -0.00000000000E+00 -0.00000000000E+00 -0.45593999997E+02  0.45594000000E+02  0.51100000000E-03 0. -1.
    9900012    2    1    2    0    0 -0.22937963756E+02  0.42683917615E+01  0.38532377382E+02  0.46142318118E+02  0.10000003251E+02 0.  0.
         12    1    1    2    0    0  0.22937963756E+02 -0.42683917615E+01 -0.38532377382E+02  0.45045681882E+02  0.00000000000E+00 0. -1.
         11    1    3    3    0    0 -0.62203000154E+01  0.85126991191E+00  0.60701560716E+01  0.87329025953E+01  0.51100000000E-03 0. -1.
        -11    1    3    3    0    0 -0.15978360825E+02  0.50338054776E+01  0.28356616678E+02  0.32935466020E+02  0.51100000000E-03 0.  1.
        -12    1    3    3    0    0 -0.73930291617E+00 -0.16166836281E+01  0.41056046325E+01  0.44739495028E+01  0.00000000000E+00 0.  1.
</event>
<event>
 7    1  0.1466590E-008  0.4614231E+02  0.7816164E-02  0.1320468E+00
        -11   -1    0    0    0    0  0.00000000000E+00  0.00000000000E+00  0.45593999997E+02  0.45594000000E+02  0.51100000000E-03 0.  1.
         11   -1    0    0    0    0 -0.00000000000E+00 -0.00000000000E+00 -0.45593999997E+02  0.45594000000E+02  0.51100000000E-03 0. -1.
    9900012    2    1    2    0    0  0.13318119494E+02  0.54974123657E+01  0.42679270974E+02  0.46142311855E+02  0.99999461443E+01 0.  0.
         12    1    1    2    0    0 -0.13318119494E+02 -0.54974123657E+01 -0.42679270974E+02  0.45045688145E+02  0.00000000000E+00 0. -1.
         11    1    3    3    0    0  0.13532722333E+01  0.40957268770E+01  0.84041366643E+01  0.94464722369E+01  0.51100000000E-03 0. -1.
        -11    1    3    3    0    0  0.80014525837E+01  0.31349452165E+01  0.19711970485E+02  0.21503788169E+02  0.51100000000E-03 0.  1.
        -12    1    3    3    0    0  0.39633946770E+01 -0.17332597277E+01  0.14563163825E+02  0.15192051450E+02  0.00000000000E+00 0.  1.
</event>
<event>
 7    1  0.1466590E-008  0.4614232E+02  0.7816164E-02  0.1320468E+00
        -11   -1    0    0    0    0  0.00000000000E+00  0.00000000000E+00  0.45593999997E+02  0.45594000000E+02  0.51100000000E-03 0.  1.
         11   -1    0    0    0    0 -0.00000000000E+00 -0.00000000000E+00 -0.45593999997E+02  0.45594000000E+02  0.51100000000E-03 0. -1.
    9900012    2    1    2    0    0  0.13225947590E+02  0.61777551949E+01  0.42614822578E+02  0.46142318162E+02  0.10000003652E+02 0.  0.
         12    1    1    2    0    0 -0.13225947590E+02 -0.61777551949E+01 -0.42614822578E+02  0.45045681838E+02  0.00000000000E+00 0. -1.
         11    1    3    3    0    0  0.50206834075E+01  0.56409427594E+01  0.10716509099E+02  0.13109960512E+02  0.51100000000E-03 0. -1.
        -11    1    3    3    0    0  0.64143565322E+01  0.14149599402E+01  0.23531804099E+02  0.24431370936E+02  0.51100000000E-03 0.  1.
         12    1    3    3    0    0  0.17909076507E+01 -0.87814750474E+00  0.83665093798E+01  0.86009867141E+01  0.00000000000E+00 0. -1.
</event>
<event>
 7    1  0.1466590E-008  0.4614231E+02  0.7816164E-02  0.1320468E+00
        -11   -1    0    0    0    0  0.00000000000E+00  0.00000000000E+00  0.45593999997E+02  0.45594000000E+02  0.51100000000E-03 0. -1.
         11   -1    0    0    0    0 -0.00000000000E+00 -0.00000000000E+00 -0.45593999997E+02  0.45594000000E+02  0.51100000000E-03 0.  1.
    9900012    2    1    2    0    0  0.12200755752E+02  0.81770366658E+01 -0.42583936134E+02  0.46142312235E+02  0.99999496069E+01 0.  0.
         12    1    1    2    0    0 -0.12200755752E+02 -0.81770366658E+01  0.42583936134E+02  0.45045687765E+02  0.00000000000E+00 0. -1.
         11    1    3    3    0    0  0.14922220068E+01  0.42674545102E+01 -0.94179900660E+01  0.10446838357E+02  0.51100000000E-03 0. -1.
        -11    1    3    3    0    0  0.72970960982E+01  0.51688826376E+01 -0.27883805188E+02  0.29282615170E+02  0.51100000000E-03 0.  1.
        -12    1    3    3    0    0  0.34114376473E+01 -0.12593004820E+01 -0.52821408804E+01  0.64128587078E+01  0.00000000000E+00 0.  1.
</event>
<event>
 7    1  0.1466590E-008  0.4614232E+02  0.7816164E-02  0.1320468E+00
        -11   -1    0    0    0    0  0.00000000000E+00  0.00000000000E+00  0.45593999997E+02  0.45594000000E+02  0.51100000000E-03 0.  1.
         11   -1    0    0    0    0 -0.00000000000E+00 -0.00000000000E+00 -0.45593999997E+02  0.45594000000E+02  0.51100000000E-03 0. -1.
    9900012    2    1    2    0    0  0.20361398578E+02  0.39535253673E+02 -0.71757017488E+01  0.46142317292E+02  0.99999957199E+01 0.  0.
         12    1    1    2    0    0 -0.20361398578E+02 -0.39535253673E+02  0.71757017488E+01  0.45045682708E+02  0.00000000000E+00 0. -1.
         11    1    3    3    0    0  0.98571704781E+01  0.14503043511E+02 -0.46754006757E+01  0.18148318177E+02  0.51100000000E-03 0. -1.
        -11    1    3    3    0    0  0.10952713539E+02  0.19962917270E+02 -0.16040176861E+01  0.22826582592E+02  0.51100000000E-03 0.  1.
        -12    1    3    3    0    0 -0.44848543899E+00  0.50692928922E+01 -0.89628338708E+00  0.51674165233E+01  0.00000000000E+00 0.  1.
</event>
<event>
 7    1  0.1466590E-008  0.4614232E+02  0.7816164E-02  0.1320468E+00
        -11   -1    0    0    0    0  0.00000000000E+00  0.00000000000E+00  0.45593999997E+02  0.45594000000E+02  0.51100000000E-03 0.  1.
         11   -1    0    0    0    0 -0.00000000000E+00 -0.00000000000E+00 -0.45593999997E+02  0.45594000000E+02  0.51100000000E-03 0. -1.
    9900012    2    1    2    0    0  0.20758240884E+02  0.31367849136E+02  0.24784398038E+02  0.46142324179E+02  0.10000058526E+02 0.  0.
         12    1    1    2    0    0 -0.20758240884E+02 -0.31367849136E+02 -0.24784398038E+02  0.45045675821E+02  0.00000000000E+00 0. -1.
         11    1    3    3    0    0  0.12550730875E+02  0.18087050958E+02  0.15328901606E+02  0.26826059766E+02  0.51100000000E-03 0. -1.
        -11    1    3    3    0    0  0.91475032946E+01  0.12501253522E+02  0.80603931763E+01  0.17462190429E+02  0.51100000000E-03 0.  1.
         12    1    3    3    0    0 -0.93999328510E+00  0.77954465517E+00  0.13951032556E+01  0.18540739843E+01  0.00000000000E+00 0. -1.
</event>
<event>
 7    1  0.1466590E-008  0.4614232E+02  0.7816164E-02  0.1320468E+00
        -11   -1    0    0    0    0  0.00000000000E+00  0.00000000000E+00  0.45593999997E+02  0.45594000000E+02  0.51100000000E-03 0.  1.
         11   -1    0    0    0    0 -0.00000000000E+00 -0.00000000000E+00 -0.45593999997E+02  0.45594000000E+02  0.51100000000E-03 0. -1.
    9900012    2    1    2    0    0  0.22863623763E+02  0.37771089674E+02 -0.89282128349E+01  0.46142317730E+02  0.99999997145E+01 0.  0.
         12    1    1    2    0    0 -0.22863623763E+02 -0.37771089674E+02  0.89282128349E+01  0.45045682270E+02  0.00000000000E+00 0. -1.
         11    1    3    3    0    0  0.71336471018E+01  0.12544838954E+02 -0.61305022871E+01  0.15679443992E+02  0.51100000000E-03 0. -1.
        -11    1    3    3    0    0  0.79880851864E+01  0.17077218720E+02 -0.36009201050E+01  0.19193945140E+02  0.51100000000E-03 0.  1.
        -12    1    3    3    0    0  0.77418914753E+01  0.81490319999E+01  0.80320955719E+00  0.11268928598E+02  0.00000000000E+00 0.  1.
</event>
<event>
 7    1  0.1466590E-008  0.4614232E+02  0.7816164E-02  0.1320468E+00
        -11   -1    0    0    0    0  0.00000000000E+00  0.00000000000E+00  0.45593999997E+02  0.45594000000E+02  0.51100000000E-03 0.  1.
         11   -1    0    0    0    0 -0.00000000000E+00 -0.00000000000E+00 -0.45593999997E+02  0.45594000000E+02  0.51100000000E-03 0. -1.
    9900012    2    1    2    0    0  0.92520157188E+01 -0.35936822424E+02  0.25535435819E+02  0.46142317818E+02  0.10000000515E+02 0.  0.
         12    1    1    2    0    0 -0.92520157188E+01  0.35936822424E+02 -0.25535435819E+02  0.45045682182E+02  0.00000000000E+00 0. -1.
         11    1    3    3    0    0  0.19861258444E+01 -0.11603259088E+02  0.10435997904E+02  0.15731826653E+02  0.51100000000E-03 0. -1.
        -11    1    3    3    0    0  0.31716721643E+00 -0.19093331422E+01 -0.76000447828E+00  0.20793641237E+01  0.51100000000E-03 0.  1.
        -12    1    3    3    0    0  0.69487226580E+01 -0.22424230194E+02  0.15859442394E+02  0.28331127041E+02  0.00000000000E+00 0.  1.
</event>
<event>
 7    1  0.1466590E-008  0.4614232E+02  0.7816164E-02  0.1320468E+00
        -11   -1    0    0    0    0  0.00000000000E+00  0.00000000000E+00  0.45593999997E+02  0.45594000000E+02  0.51100000000E-03 0.  1.
         11   -1    0    0    0    0 -0.00000000000E+00 -0.00000000000E+00 -0.45593999997E+02  0.45594000000E+02  0.51100000000E-03 0. -1.
    9900012    2    1    2    0    0  0.57391084310E+01 -0.38385735945E+02  0.22862876194E+02  0.46142320990E+02  0.10000029440E+02 0.  0.
         12    1    1    2    0    0 -0.57391084310E+01  0.38385735945E+02 -0.22862876194E+02  0.45045679010E+02  0.00000000000E+00 0. -1.
         11    1    3    3    0    0 -0.20119930264E+01 -0.98373087906E+01  0.64853769404E+01  0.11953278818E+02  0.51100000000E-03 0. -1.
        -11    1    3    3    0    0  0.70513871740E+01 -0.18143934628E+02  0.92062464281E+01  0.21533216165E+02  0.51100000000E-03 0.  1.
        -12    1    3    3    0    0  0.69971428334E+00 -0.10404492527E+02  0.71712528255E+01  0.12655826006E+02  0.00000000000E+00 0.  1.
</event>
<event>
 7    1  0.1466590E-008  0.4614232E+02  0.7816164E-02  0.1320468E+00
        -11   -1    0    0    0    0  0.00000000000E+00  0.00000000000E+00  0.45593999997E+02  0.45594000000E+02  0.51100000000E-03 0. -1.
         11   -1    0    0    0    0 -0.00000000000E+00 -0.00000000000E+00 -0.45593999997E+02  0.45594000000E+02  0.51100000000E-03 0.  1.
    9900012    2    1    2    0    0 -0.25085787319E+02 -0.29050685732E+02 -0.23576988022E+02  0.46142318397E+02  0.10000005797E+02 0.  0.
         12    1    1    2    0    0  0.25085787319E+02  0.29050685732E+02  0.23576988022E+02  0.45045681603E+02  0.00000000000E+00 0. -1.
         11    1    3    3    0    0 -0.13069677429E+02 -0.94169632814E+01 -0.81724098928E+01  0.18063331621E+02  0.51100000000E-03 0. -1.
        -11    1    3    3    0    0 -0.67693694207E+01 -0.72398431212E+01 -0.52274431576E+01  0.11205617029E+02  0.51100000000E-03 0.  1.
         12    1    3    3    0    0 -0.52467404693E+01 -0.12393879330E+02 -0.10177134971E+02  0.16873369747E+02  0.00000000000E+00 0. -1.
</event>
<event>
 7    1  0.1466590E-008  0.4614232E+02  0.7816164E-02  0.1320468E+00
        -11   -1    0    0    0    0  0.00000000000E+00  0.00000000000E+00  0.45593999997E+02  0.45594000000E+02  0.51100000000E-03 0.  1.
         11   -1    0    0    0    0 -0.00000000000E+00 -0.00000000000E+00 -0.45593999997E+02  0.45594000000E+02  0.51100000000E-03 0. -1.
    9900012    2    1    2    0    0  0.15315352672E+02  0.27398011794E+02  0.32309476324E+02  0.46142319429E+02  0.10000015211E+02 0.  0.
         12    1    1    2    0    0 -0.15315352672E+02 -0.27398011794E+02 -0.32309476324E+02  0.45045680571E+02  0.00000000000E+00 0. -1.
         11    1    3    3    0    0  0.42947653274E+01  0.37800074661E+01  0.11003952073E+02  0.12402436339E+02  0.51100000000E-03 0. -1.
        -11    1    3    3    0    0  0.61304145427E+01  0.15459854408E+02  0.12921563316E+02  0.21060766357E+02  0.51100000000E-03 0.  1.
         12    1    3    3    0    0  0.48901728019E+01  0.81581499202E+01  0.83839609354E+01  0.12679116733E+02  0.00000000000E+00 0. -1.
</event>
<event>
 7    1  0.1466590E-008  0.4614232E+02  0.7816164E-02  0.1320468E+00
        -11   -1    0    0    0    0  0.00000000000E+00  0.00000000000E+00  0.45593999997E+02  0.45594000000E+02  0.51100000000E-03 0.  1.
         11   -1    0    0    0    0 -0.00000000000E+00 -0.00000000000E+00 -0.45593999997E+02  0.45594000000E+02  0.51100000000E-03 0. -1.
    9900012    2    1    2    0    0 -0.14535288252E+02  0.24801212044E+02  0.34680523911E+02  0.46142318052E+02  0.10000002657E+02 0.  0.
         12    1    1    2    0    0  0.14535288252E+02 -0.24801212044E+02 -0.34680523911E+02  0.45045681948E+02  0.00000000000E+00 0. -1.
         11    1    3    3    0    0 -0.20904318152E+01  0.32891908803E+01  0.54240792164E+01  0.66790206938E+01  0.51100000000E-03 0. -1.
        -11    1    3    3    0    0 -0.67687251202E+01  0.19144324797E+02  0.21667116094E+02  0.29694860359E+02  0.51100000000E-03 0.  1.
        -12    1    3    3    0    0 -0.56761313162E+01  0.23676963665E+01  0.75893286006E+01  0.97684369994E+01  0.00000000000E+00 0.  1.
</event>
<event>
 7    1  0.1466590E-008  0.4614232E+02  0.7816164E-02  0.1320468E+00
        -11   -1    0    0    0    0  0.00000000000E+00  0.00000000000E+00  0.45593999997E+02  0.45594000000E+02  0.51100000000E-03 0.  1.
         11   -1    0    0    0    0 -0.00000000000E+00 -0.00000000000E+00 -0.45593999997E+02  0.45594000000E+02  0.51100000000E-03 0. -1.
    9900012    2    1    2    0    0  0.37012690859E+02 -0.18420035302E+02  0.17885092771E+02  0.46142317315E+02  0.99999959301E+01 0.  0.
         12    1    1    2    0    0 -0.37012690859E+02  0.18420035302E+02 -0.17885092771E+02  0.45045682685E+02  0.00000000000E+00 0. -1.
         11    1    3    3    0    0  0.61475674317E+01  0.28396473493E+00  0.33572128372E+01  0.70102852719E+01  0.51100000000E-03 0. -1.
        -11    1    3    3    0    0  0.24968999353E+02 -0.13196297137E+02  0.11900564101E+02  0.30646641137E+02  0.51100000000E-03 0.  1.
         12    1    3    3    0    0  0.58961240738E+01 -0.55077029002E+01  0.26273158332E+01  0.84853909054E+01  0.00000000000E+00 0. -1.
</event>
<event>
 7    1  0.1466590E-008  0.4614233E+02  0.7816164E-02  0.1320468E+00
        -11   -1    0    0    0    0  0.00000000000E+00  0.00000000000E+00  0.45593999997E+02  0.45594000000E+02  0.51100000000E-03 0.  1.
         11   -1    0    0    0    0 -0.00000000000E+00 -0.00000000000E+00 -0.45593999997E+02  0.45594000000E+02  0.51100000000E-03 0. -1.
    9900012    2    1    2    0    0 -0.22885542576E+01 -0.34205614364E+02  0.29220730466E+02  0.46142327360E+02  0.10000087530E+02 0.  0.
         12    1    1    2    0    0  0.22885542576E+01  0.34205614364E+02 -0.29220730466E+02  0.45045672640E+02  0.00000000000E+00 0. -1.
         11    1    3    3    0    0  0.34363839678E+00  0.19222578824E-01 -0.55336344729E+00  0.65166572811E+00  0.51100000000E-03 0. -1.
        -11    1    3    3    0    0 -0.10544173462E+01 -0.25660024912E+02  0.22483715784E+02  0.34133065349E+02  0.51100000000E-03 0.  1.
         12    1    3    3    0    0 -0.15777753082E+01 -0.85648120315E+01  0.72903781292E+01  0.11357596283E+02  0.00000000000E+00 0. -1.
</event>
<event>
 7    1  0.1466590E-008  0.4614232E+02  0.7816164E-02  0.1320468E+00
        -11   -1    0    0    0    0  0.00000000000E+00  0.00000000000E+00  0.45593999997E+02  0.45594000000E+02  0.51100000000E-03 0.  1.
         11   -1    0    0    0    0 -0.00000000000E+00 -0.00000000000E+00 -0.45593999997E+02  0.45594000000E+02  0.51100000000E-03 0. -1.
    9900012    2    1    2    0    0 -0.15713300237E+02  0.44300768998E+01  0.41983093082E+02  0.46142317739E+02  0.99999997949E+01 0.  0.
         12    1    1    2    0    0  0.15713300237E+02 -0.44300768998E+01 -0.41983093082E+02  0.45045682261E+02  0.00000000000E+00 0. -1.
         11    1    3    3    0    0 -0.44704831203E+00  0.31684586920E+00  0.89708947821E+01  0.89876135292E+01  0.51100000000E-03 0. -1.
        -11    1    3    3    0    0 -0.91727198562E+01  0.58775093613E+00  0.24127587476E+02  0.25819076637E+02  0.51100000000E-03 0.  1.
        -12    1    3    3    0    0 -0.60935320683E+01  0.35254800945E+01  0.88846108240E+01  0.11335627572E+02  0.00000000000E+00 0.  1.
</event>
<event>
 7    1  0.1466590E-008  0.4614232E+02  0.7816164E-02  0.1320468E+00
        -11   -1    0    0    0    0  0.00000000000E+00  0.00000000000E+00  0.45593999997E+02  0.45594000000E+02  0.51100000000E-03 0.  1.
         11   -1    0    0    0    0 -0.00000000000E+00 -0.00000000000E+00 -0.45593999997E+02  0.45594000000E+02  0.51100000000E-03 0. -1.
    9900012    2    1    2    0    0 -0.37736162050E+02 -0.24585812030E+02  0.79587396598E+00  0.46142317690E+02  0.99999993514E+01 0.  0.
         12    1    1    2    0    0  0.37736162050E+02  0.24585812030E+02 -0.79587396598E+00  0.45045682310E+02  0.00000000000E+00 0. -1.
         11    1    3    3    0    0 -0.16258560478E+02 -0.90323280634E+01  0.47819137499E+01  0.19203917268E+02  0.51100000000E-03 0. -1.
        -11    1    3    3    0    0 -0.13799470542E+02 -0.10837573311E+02 -0.16131878011E+01  0.17620464173E+02  0.51100000000E-03 0.  1.
         12    1    3    3    0    0 -0.76781310292E+01 -0.47159106556E+01 -0.23728519828E+01  0.93179362493E+01  0.00000000000E+00 0. -1.
</event>
<event>
 7    1  0.1466590E-008  0.4614232E+02  0.7816164E-02  0.1320468E+00
        -11   -1    0    0    0    0  0.00000000000E+00  0.00000000000E+00  0.45593999997E+02  0.45594000000E+02  0.51100000000E-03 0.  1.
         11   -1    0    0    0    0 -0.00000000000E+00 -0.00000000000E+00 -0.45593999997E+02  0.45594000000E+02  0.51100000000E-03 0. -1.
    9900012    2    1    2    0    0 -0.19123608416E+02 -0.16327345978E+02  0.37374039225E+02  0.46142318370E+02  0.10000005554E+02 0.  0.
         12    1    1    2    0    0  0.19123608416E+02  0.16327345978E+02 -0.37374039225E+02  0.45045681630E+02  0.00000000000E+00 0. -1.
         11    1    3    3    0    0 -0.16881431609E+02 -0.10981684763E+02  0.24789549940E+02  0.31939034424E+02  0.51100000000E-03 0. -1.
        -11    1    3    3    0    0 -0.18775947644E+01 -0.95440706649E+00  0.31337660839E+01  0.37758105193E+01  0.51100000000E-03 0.  1.
         12    1    3    3    0    0 -0.36458204215E+00 -0.43912541484E+01  0.94507232005E+01  0.10427473427E+02  0.00000000000E+00 0. -1.
</event>
<event>
 7    1  0.1516229E-008  0.4614231E+02  0.7816164E-02  0.1320468E+00
        -11   -1    0    0    0    0  0.00000000000E+00  0.00000000000E+00  0.45593999997E+02  0.45594000000E+02  0.51100000000E-03 0. -1.
         11   -1    0    0    0    0 -0.00000000000E+00 -0.00000000000E+00 -0.45593999997E+02  0.45594000000E+02  0.51100000000E-03 0.  1.
    9900012    2    1    2    0    0  0.92962523246E+01  0.57681459209E+01 -0.43696939340E+02  0.46142308504E+02  0.99999155901E+01 0.  0.
         12    1    1    2    0    0 -0.92962523246E+01 -0.57681459209E+01  0.43696939340E+02  0.45045691496E+02  0.00000000000E+00 0. -1.
         11    1    3    3    0    0 -0.49512437239E+00  0.28463546702E+01 -0.46473839340E+01  0.54722080319E+01  0.51100000000E-03 0. -1.
        -11    1    3    3    0    0  0.63053167868E+01 -0.46235730066E-01 -0.16573217433E+02  0.17732193713E+02  0.51100000000E-03 0.  1.
        -12    1    3    3    0    0  0.34860599101E+01  0.29680269807E+01 -0.22476337972E+02  0.22937906760E+02  0.00000000000E+00 0.  1.
</event>
<event>
 7    1  0.1466590E-008  0.4614232E+02  0.7816164E-02  0.1320468E+00
        -11   -1    0    0    0    0  0.00000000000E+00  0.00000000000E+00  0.45593999997E+02  0.45594000000E+02  0.51100000000E-03 0. -1.
         11   -1    0    0    0    0 -0.00000000000E+00 -0.00000000000E+00 -0.45593999997E+02  0.45594000000E+02  0.51100000000E-03 0.  1.
    9900012    2    1    2    0    0 -0.21363777604E+02  0.39580087963E+02 -0.24736819425E+01  0.46142318086E+02  0.10000002966E+02 0.  0.
         12    1    1    2    0    0  0.21363777604E+02 -0.39580087963E+02  0.24736819425E+01  0.45045681914E+02  0.00000000000E+00 0. -1.
         11    1    3    3    0    0 -0.80234604268E+01  0.15610092829E+02 -0.58498521100E+01  0.18500586081E+02  0.51100000000E-03 0. -1.
        -11    1    3    3    0    0 -0.70924583727E+01  0.12686891510E+02  0.16013243107E+01  0.14622736466E+02  0.51100000000E-03 0.  1.
         12    1    3    3    0    0 -0.62478588046E+01  0.11283103624E+02  0.17748458568E+01  0.13018995539E+02  0.00000000000E+00 0. -1.
</event>
<event>
 7    1  0.1466590E-008  0.4614232E+02  0.7816164E-02  0.1320468E+00
        -11   -1    0    0    0    0  0.00000000000E+00  0.00000000000E+00  0.45593999997E+02  0.45594000000E+02  0.51100000000E-03 0. -1.
         11   -1    0    0    0    0 -0.00000000000E+00 -0.00000000000E+00 -0.45593999997E+02  0.45594000000E+02  0.51100000000E-03 0.  1.
    9900012    2    1    2    0    0 -0.40957581304E+02  0.12072442277E+02 -0.14347339514E+02  0.46142317855E+02  0.10000000853E+02 0.  0.
         12    1    1    2    0    0  0.40957581304E+02 -0.12072442277E+02  0.14347339514E+02  0.45045682145E+02  0.00000000000E+00 0. -1.
         11    1    3    3    0    0 -0.69847708697E+01  0.27021865757E+01 -0.39569764950E+01  0.84703305505E+01  0.51100000000E-03 0. -1.
        -11    1    3    3    0    0 -0.20856012519E+02  0.98501231456E+01 -0.60170199980E+01  0.23837003043E+02  0.51100000000E-03 0.  1.
         12    1    3    3    0    0 -0.13116797915E+02 -0.47986744411E+00 -0.43733430206E+01  0.13834984261E+02  0.00000000000E+00 0. -1.
</event>
<event>
 7    1  0.1466590E-008  0.4614232E+02  0.7816164E-02  0.1320468E+00
        -11   -1    0    0    0    0  0.00000000000E+00  0.00000000000E+00  0.45593999997E+02  0.45594000000E+02  0.51100000000E-03 0.  1.
         11   -1    0    0    0    0 -0.00000000000E+00 -0.00000000000E+00 -0.45593999997E+02  0.45594000000E+02  0.51100000000E-03 0. -1.
    9900012    2    1    2    0    0 -0.33775531141E+02 -0.27251669609E+02  0.12069530111E+02  0.46142316994E+02  0.99999930081E+01 0.  0.
         12    1    1    2    0    0  0.33775531141E+02  0.27251669609E+02 -0.12069530111E+02  0.45045683006E+02  0.00000000000E+00 0. -1.
         11    1    3    3    0    0 -0.13264264496E+02 -0.65654400432E+01  0.73114607577E+01  0.16507670165E+02  0.51100000000E-03 0. -1.
        -11    1    3    3    0    0 -0.59061486513E+01 -0.43987168520E+01  0.87583995018E+00  0.74160904603E+01  0.51100000000E-03 0.  1.
         12    1    3    3    0    0 -0.14605117994E+02 -0.16287512714E+02  0.38822294026E+01  0.22218556370E+02  0.00000000000E+00 0. -1.
</event>
<event>
 7    1  0.1466590E-008  0.4614232E+02  0.7816164E-02  0.1320468E+00
        -11   -1    0    0    0    0  0.00000000000E+00  0.00000000000E+00  0.45593999997E+02  0.45594000000E+02  0.51100000000E-03 0. -1.
         11   -1    0    0    0    0 -0.00000000000E+00 -0.00000000000E+00 -0.45593999997E+02  0.45594000000E+02  0.51100000000E-03 0.  1.
    9900012    2    1    2    0    0  0.39176679343E+02 -0.15615116043E+02 -0.15826225997E+02  0.46142317824E+02  0.10000000574E+02 0.  0.
         12    1    1    2    0    0 -0.39176679343E+02  0.15615116043E+02  0.15826225997E+02  0.45045682176E+02  0.00000000000E+00 0. -1.
         11    1    3    3    0    0  0.13976385612E+02 -0.88079233093E+01 -0.47420484660E+01  0.17187375940E+02  0.51100000000E-03 0. -1.
        -11    1    3    3    0    0  0.11837841493E+01  0.68436088771E+00 -0.15094691348E+01  0.20367110907E+01  0.51100000000E-03 0.  1.
        -12    1    3    3    0    0  0.24016509582E+02 -0.74915536212E+01 -0.95747083964E+01  0.26918230793E+02  0.00000000000E+00 0.  1.
</event>
<event>
 7    1  0.1466590E-008  0.4614232E+02  0.7816164E-02  0.1320468E+00
        -11   -1    0    0    0    0  0.00000000000E+00  0.00000000000E+00  0.45593999997E+02  0.45594000000E+02  0.51100000000E-03 0.  1.
         11   -1    0    0    0    0 -0.00000000000E+00 -0.00000000000E+00 -0.45593999997E+02  0.45594000000E+02  0.51100000000E-03 0. -1.
    9900012    2    1    2    0    0 -0.21585082514E+02  0.37561152239E+02  0.12343318190E+02  0.46142318203E+02  0.10000004026E+02 0.  0.
         12    1    1    2    0    0  0.21585082514E+02 -0.37561152239E+02 -0.12343318190E+02  0.45045681797E+02  0.00000000000E+00 0. -1.
         11    1    3    3    0    0 -0.49847279675E+00  0.43001349715E+00 -0.74297259271E+00  0.99267077698E+00  0.51100000000E-03 0. -1.
        -11    1    3    3    0    0 -0.13633299213E+02  0.28446807662E+02  0.75464344940E+01  0.32435110412E+02  0.51100000000E-03 0.  1.
        -12    1    3    3    0    0 -0.74533105042E+01  0.86843310798E+01  0.55398562890E+01  0.12714537014E+02  0.00000000000E+00 0.  1.
</event>
<event>
 7    1  0.1466590E-008  0.4614232E+02  0.7816164E-02  0.1320468E+00
        -11   -1    0    0    0    0  0.00000000000E+00  0.00000000000E+00  0.45593999997E+02  0.45594000000E+02  0.51100000000E-03 0.  1.
         11   -1    0    0    0    0 -0.00000000000E+00 -0.00000000000E+00 -0.45593999997E+02  0.45594000000E+02  0.51100000000E-03 0. -1.
    9900012    2    1    2    0    0  0.33607388972E+02  0.17666212452E+02  0.24239674663E+02  0.46142317813E+02  0.10000000471E+02 0.  0.
         12    1    1    2    0    0 -0.33607388972E+02 -0.17666212452E+02 -0.24239674663E+02  0.45045682187E+02  0.00000000000E+00 0. -1.
         11    1    3    3    0    0  0.87693462423E+01  0.38593851039E+01  0.90519507923E+01  0.13180823203E+02  0.51100000000E-03 0. -1.
        -11    1    3    3    0    0  0.54715319347E+01  0.79618624926E-01  0.35629131903E+01  0.65298048593E+01  0.51100000000E-03 0.  1.
        -12    1    3    3    0    0  0.19366510795E+02  0.13727208723E+02  0.11624810681E+02  0.26431689751E+02  0.00000000000E+00 0.  1.
</event>
<event>
 7    1  0.1466590E-008  0.4614232E+02  0.7816164E-02  0.1320468E+00
        -11   -1    0    0    0    0  0.00000000000E+00  0.00000000000E+00  0.45593999997E+02  0.45594000000E+02  0.51100000000E-03 0.  1.
         11   -1    0    0    0    0 -0.00000000000E+00 -0.00000000000E+00 -0.45593999997E+02  0.45594000000E+02  0.51100000000E-03 0. -1.
    9900012    2    1    2    0    0  0.63442456737E+01  0.61543767773E+01  0.44169986623E+02  0.46142317355E+02  0.99999962929E+01 0.  0.
         12    1    1    2    0    0 -0.63442456737E+01 -0.61543767773E+01 -0.44169986623E+02  0.45045682645E+02  0.00000000000E+00 0. -1.
         11    1    3    3    0    0 -0.89290247930E+00  0.16082984937E+00  0.60997237542E+01  0.61668282947E+01  0.51100000000E-03 0. -1.
        -11    1    3    3    0    0  0.61994190594E+01  0.14051437806E+01  0.13038370715E+02  0.14505389925E+02  0.51100000000E-03 0.  1.
        -12    1    3    3    0    0  0.10377290936E+01  0.45884031473E+01  0.25031892154E+02  0.25470099134E+02  0.00000000000E+00 0.  1.
</event>
<event>
 7    1  0.1466590E-008  0.4614232E+02  0.7816164E-02  0.1320468E+00
        -11   -1    0    0    0    0  0.00000000000E+00  0.00000000000E+00  0.45593999997E+02  0.45594000000E+02  0.51100000000E-03 0.  1.
         11   -1    0    0    0    0 -0.00000000000E+00 -0.00000000000E+00 -0.45593999997E+02  0.45594000000E+02  0.51100000000E-03 0. -1.
    9900012    2    1    2    0    0 -0.39864626239E+02  0.15818173128E+02  0.13773537858E+02  0.46142319060E+02  0.10000011841E+02 0.  0.
         12    1    1    2    0    0  0.39864626239E+02 -0.15818173128E+02 -0.13773537858E+02  0.45045680940E+02  0.00000000000E+00 0. -1.
         11    1    3    3    0    0 -0.10934133219E+02  0.24767205051E+01  0.55675313779E+01  0.12517460589E+02  0.51100000000E-03 0. -1.
        -11    1    3    3    0    0 -0.13309129497E+02  0.62111965146E+01  0.73706485663E+01  0.16432843657E+02  0.51100000000E-03 0.  1.
         12    1    3    3    0    0 -0.15621363523E+02  0.71302561085E+01  0.83535791410E+00  0.17192014813E+02  0.00000000000E+00 0. -1.
</event>
<event>
 7    1  0.1466590E-008  0.4614232E+02  0.7816164E-02  0.1320468E+00
        -11   -1    0    0    0    0  0.00000000000E+00  0.00000000000E+00  0.45593999997E+02  0.45594000000E+02  0.51100000000E-03 0.  1.
         11   -1    0    0    0    0 -0.00000000000E+00 -0.00000000000E+00 -0.45593999997E+02  0.45594000000E+02  0.51100000000E-03 0. -1.
    9900012    2    1    2    0    0 -0.34371016056E+02 -0.14005853746E+02  0.25526119982E+02  0.46142317796E+02  0.10000000317E+02 0.  0.
         12    1    1    2    0    0  0.34371016056E+02  0.14005853746E+02 -0.25526119982E+02  0.45045682204E+02  0.00000000000E+00 0. -1.
         11    1    3    3    0    0 -0.37415151890E+00  0.75856118564E+00  0.92138799512E+00  0.12507439906E+01  0.51100000000E-03 0. -1.
        -11    1    3    3    0    0 -0.20953199663E+02 -0.12208165355E+02  0.16277537663E+02  0.29206747681E+02  0.51100000000E-03 0.  1.
        -12    1    3    3    0    0 -0.13043664874E+02 -0.25562495768E+01  0.83271943239E+01  0.15684826124E+02  0.00000000000E+00 0.  1.
</event>
<event>
 7    1  0.1466590E-008  0.4614232E+02  0.7816164E-02  0.1320468E+00
        -11   -1    0    0    0    0  0.00000000000E+00  0.00000000000E+00  0.45593999997E+02  0.45594000000E+02  0.51100000000E-03 0.  1.
         11   -1    0    0    0    0 -0.00000000000E+00 -0.00000000000E+00 -0.45593999997E+02  0.45594000000E+02  0.51100000000E-03 0. -1.
    9900012    2    1    2    0    0  0.87138838957E+01  0.36954266703E+02  0.24239713577E+02  0.46142319692E+02  0.10000017610E+02 0.  0.
         12    1    1    2    0    0 -0.87138838957E+01 -0.36954266703E+02 -0.24239713577E+02  0.45045680308E+02  0.00000000000E+00 0. -1.
         11    1    3    3    0    0 -0.87696096620E+00  0.63356768897E+01  0.72882935013E+01  0.96968595230E+01  0.51100000000E-03 0. -1.
        -11    1    3    3    0    0  0.46306321799E+01  0.12402170475E+02  0.53001489350E+01  0.14260019841E+02  0.51100000000E-03 0.  1.
        -12    1    3    3    0    0  0.49602126820E+01  0.18216419338E+02  0.11651271141E+02  0.22185440328E+02  0.00000000000E+00 0.  1.
</event>
<event>
 7    1  0.1466590E-008  0.4614232E+02  0.7816164E-02  0.1320468E+00
        -11   -1    0    0    0    0  0.00000000000E+00  0.00000000000E+00  0.45593999997E+02  0.45594000000E+02  0.51100000000E-03 0. -1.
         11   -1    0    0    0    0 -0.00000000000E+00 -0.00000000000E+00 -0.45593999997E+02  0.45594000000E+02  0.51100000000E-03 0.  1.
    9900012    2    1    2    0    0  0.22524068395E+02 -0.33330647214E+02 -0.20269379618E+02  0.46142318178E+02  0.10000003800E+02 0.  0.
         12    1    1    2    0    0 -0.22524068395E+02  0.33330647214E+02  0.20269379618E+02  0.45045681822E+02  0.00000000000E+00 0. -1.
         11    1    3    3    0    0  0.43592356129E+01 -0.88370624083E+01 -0.16298829239E+01  0.99876486594E+01  0.51100000000E-03 0. -1.
        -11    1    3    3    0    0  0.35146608580E+01 -0.22764716828E+01 -0.39530594132E+01  0.57586320646E+01  0.51100000000E-03 0.  1.
        -12    1    3    3    0    0  0.14650171924E+02 -0.22217113122E+02 -0.14686437281E+02  0.30396037454E+02  0.00000000000E+00 0.  1.
</event>
<event>
 7    1  0.1466590E-008  0.4614232E+02  0.7816164E-02  0.1320468E+00
        -11   -1    0    0    0    0  0.00000000000E+00  0.00000000000E+00  0.45593999997E+02  0.45594000000E+02  0.51100000000E-03 0.  1.
         11   -1    0    0    0    0 -0.00000000000E+00 -0.00000000000E+00 -0.45593999997E+02  0.45594000000E+02  0.51100000000E-03 0. -1.
    9900012    2    1    2    0    0  0.33198318619E+02 -0.19935966634E+02  0.23011787844E+02  0.46142317582E+02  0.99999983634E+01 0.  0.
         12    1    1    2    0    0 -0.33198318619E+02  0.19935966634E+02 -0.23011787844E+02  0.45045682418E+02  0.00000000000E+00 0. -1.
         11    1    3    3    0    0  0.64450943880E+01 -0.14649925747E+01  0.17458327304E+01  0.68361814705E+01  0.51100000000E-03 0. -1.
        -11    1    3    3    0    0  0.24014354863E+02 -0.15602798569E+02  0.16303296545E+02  0.32953513336E+02  0.51100000000E-03 0.  1.
         12    1    3    3    0    0  0.27388693679E+01 -0.28681754904E+01  0.49626585687E+01  0.63526227755E+01  0.00000000000E+00 0. -1.
</event>
<event>
 7    1  0.1466590E-008  0.4614231E+02  0.7816164E-02  0.1320468E+00
        -11   -1    0    0    0    0  0.00000000000E+00  0.00000000000E+00  0.45593999997E+02  0.45594000000E+02  0.51100000000E-03 0.  1.
         11   -1    0    0    0    0 -0.00000000000E+00 -0.00000000000E+00 -0.45593999997E+02  0.45594000000E+02  0.51100000000E-03 0. -1.
    9900012    2    1    2    0    0 -0.44310052593E+01  0.30981863944E+01  0.44720040201E+02  0.46142305843E+02  0.99998913171E+01 0.  0.
         12    1    1    2    0    0  0.44310052593E+01 -0.30981863944E+01 -0.44720040201E+02  0.45045694157E+02  0.00000000000E+00 0. -1.
         11    1    3    3    0    0  0.21165484851E+01  0.42442188113E+00  0.77052338015E+01  0.80019084986E+01  0.51100000000E-03 0. -1.
        -11    1    3    3    0    0 -0.42703366465E+01 -0.13398109106E+01  0.15326582902E+02  0.15966684442E+02  0.51100000000E-03 0.  1.
        -12    1    3    3    0    0 -0.22772170979E+01  0.40135754239E+01  0.21688223497E+02  0.22173712902E+02  0.00000000000E+00 0.  1.
</event>
<event>
 7    1  0.1466590E-008  0.4614232E+02  0.7816164E-02  0.1320468E+00
        -11   -1    0    0    0    0  0.00000000000E+00  0.00000000000E+00  0.45593999997E+02  0.45594000000E+02  0.51100000000E-03 0.  1.
         11   -1    0    0    0    0 -0.00000000000E+00 -0.00000000000E+00 -0.45593999997E+02  0.45594000000E+02  0.51100000000E-03 0. -1.
    9900012    2    1    2    0    0  0.42165291386E+01  0.42586413604E+02 -0.14061714065E+02  0.46142317143E+02  0.99999943648E+01 0.  0.
         12    1    1    2    0    0 -0.42165291386E+01 -0.42586413604E+02  0.14061714065E+02  0.45045682857E+02  0.00000000000E+00 0. -1.
         11    1    3    3    0    0  0.10386100789E+01  0.37329253974E+02 -0.12750722911E+02  0.39460522654E+02  0.51100000000E-03 0. -1.
        -11    1    3    3    0    0  0.34300030289E+01  0.47077727348E+01 -0.77913117294E+00  0.58766564087E+01  0.51100000000E-03 0.  1.
         12    1    3    3    0    0 -0.25208396926E+00  0.54938689481E+00 -0.53185998183E+00  0.80513808009E+00  0.00000000000E+00 0. -1.
</event>
<event>
 7    1  0.1466590E-008  0.4614232E+02  0.7816164E-02  0.1320468E+00
        -11   -1    0    0    0    0  0.00000000000E+00  0.00000000000E+00  0.45593999997E+02  0.45594000000E+02  0.51100000000E-03 0.  1.
         11   -1    0    0    0    0 -0.00000000000E+00 -0.00000000000E+00 -0.45593999997E+02  0.45594000000E+02  0.51100000000E-03 0. -1.
    9900012    2    1    2    0    0  0.37767806603E+02 -0.18728391927E+02  0.15873048721E+02  0.46142317016E+02  0.99999932097E+01 0.  0.
         12    1    1    2    0    0 -0.37767806603E+02  0.18728391927E+02 -0.15873048721E+02  0.45045682984E+02  0.00000000000E+00 0. -1.
         11    1    3    3    0    0  0.17108898945E+01 -0.20297551350E+01 -0.89821471714E+00  0.28024703528E+01  0.51100000000E-03 0. -1.
        -11    1    3    3    0    0  0.12063829669E+02 -0.62825077861E+01  0.36830773112E+01  0.14091520468E+02  0.51100000000E-03 0.  1.
         12    1    3    3    0    0  0.23993087039E+02 -0.10416129006E+02  0.13088186127E+02  0.29248326195E+02  0.00000000000E+00 0. -1.
</event>
<event>
 7    1  0.1466590E-008  0.4614232E+02  0.7816164E-02  0.1320468E+00
        -11   -1    0    0    0    0  0.00000000000E+00  0.00000000000E+00  0.45593999997E+02  0.45594000000E+02  0.51100000000E-03 0.  1.
         11   -1    0    0    0    0 -0.00000000000E+00 -0.00000000000E+00 -0.45593999997E+02  0.45594000000E+02  0.51100000000E-03 0. -1.
    9900012    2    1    2    0    0  0.22724428844E+02 -0.33814637320E+02  0.19216769118E+02  0.46142316758E+02  0.99999908543E+01 0.  0.
         12    1    1    2    0    0 -0.22724428844E+02  0.33814637320E+02 -0.19216769118E+02  0.45045683242E+02  0.00000000000E+00 0. -1.
         11    1    3    3    0    0  0.26099178452E+01 -0.63422760911E+01  0.15916997675E+01  0.70405713962E+01  0.51100000000E-03 0. -1.
        -11    1    3    3    0    0  0.65905235856E+01 -0.15417853945E+02  0.78064286585E+01  0.18495554873E+02  0.51100000000E-03 0.  1.
        -12    1    3    3    0    0  0.13523987414E+02 -0.12054507284E+02  0.98186406916E+01  0.20606190488E+02  0.00000000000E+00 0.  1.
</event>
<event>
 7    1  0.1466590E-008  0.4614232E+02  0.7816164E-02  0.1320468E+00
        -11   -1    0    0    0    0  0.00000000000E+00  0.00000000000E+00  0.45593999997E+02  0.45594000000E+02  0.51100000000E-03 0.  1.
         11   -1    0    0    0    0 -0.00000000000E+00 -0.00000000000E+00 -0.45593999997E+02  0.45594000000E+02  0.51100000000E-03 0. -1.
    9900012    2    1    2    0    0  0.36735376480E+02 -0.17756910479E+02  0.19087109725E+02  0.46142317492E+02  0.99999975483E+01 0.  0.
         12    1    1    2    0    0 -0.36735376480E+02  0.17756910479E+02 -0.19087109725E+02  0.45045682508E+02  0.00000000000E+00 0. -1.
         11    1    3    3    0    0  0.18057433355E+02 -0.62965573211E+01  0.54374072825E+01  0.19881723559E+02  0.51100000000E-03 0. -1.
        -11    1    3    3    0    0  0.16211777937E+02 -0.11645941633E+02  0.12119910264E+02  0.23352557150E+02  0.51100000000E-03 0.  1.
         12    1    3    3    0    0  0.24661651887E+01  0.18558847472E+00  0.15297921783E+01  0.29080367826E+01  0.00000000000E+00 0. -1.
</event>
<event>
 7    1  0.1466590E-008  0.4614232E+02  0.7816164E-02  0.1320468E+00
        -11   -1    0    0    0    0  0.00000000000E+00  0.00000000000E+00  0.45593999997E+02  0.45594000000E+02  0.51100000000E-03 0. -1.
         11   -1    0    0    0    0 -0.00000000000E+00 -0.00000000000E+00 -0.45593999997E+02  0.45594000000E+02  0.51100000000E-03 0.  1.
    9900012    2    1    2    0    0 -0.41328220308E+02 -0.11899247402E+02 -0.13397738138E+02  0.46142320188E+02  0.10000022130E+02 0.  0.
         12    1    1    2    0    0  0.41328220308E+02  0.11899247402E+02  0.13397738138E+02  0.45045679812E+02  0.00000000000E+00 0. -1.
         11    1    3    3    0    0 -0.11954601955E+02  0.61006657825E+00 -0.21331749694E+01  0.12158746846E+02  0.51100000000E-03 0. -1.
        -11    1    3    3    0    0 -0.12518262735E+02 -0.61685740261E+01 -0.36043242547E+01  0.14413513139E+02  0.51100000000E-03 0.  1.
         12    1    3    3    0    0 -0.16855355618E+02 -0.63407399539E+01 -0.76602389135E+01  0.19570060204E+02  0.00000000000E+00 0. -1.
</event>
<event>
 7    1  0.1466590E-008  0.4614232E+02  0.7816164E-02  0.1320468E+00
        -11   -1    0    0    0    0  0.00000000000E+00  0.00000000000E+00  0.45593999997E+02  0.45594000000E+02  0.51100000000E-03 0.  1.
         11   -1    0    0    0    0 -0.00000000000E+00 -0.00000000000E+00 -0.45593999997E+02  0.45594000000E+02  0.51100000000E-03 0. -1.
    9900012    2    1    2    0    0  0.10785460544E+02  0.16541133091E+01  0.43704133455E+02  0.46142317288E+02  0.99999956820E+01 0.  0.
         12    1    1    2    0    0 -0.10785460544E+02 -0.16541133091E+01 -0.43704133455E+02  0.45045682712E+02  0.00000000000E+00 0. -1.
         11    1    3    3    0    0 -0.19720889455E+00 -0.17438247230E+01  0.20562576887E+01  0.27033334896E+01  0.51100000000E-03 0. -1.
        -11    1    3    3    0    0  0.62196522369E+01  0.15674578260E+01  0.15110474690E+02  0.16415463551E+02  0.51100000000E-03 0.  1.
        -12    1    3    3    0    0  0.47630172017E+01  0.18304802061E+01  0.26537401076E+02  0.27023520247E+02  0.00000000000E+00 0.  1.
</event>
<event>
 7    1  0.1466590E-008  0.4614232E+02  0.7816164E-02  0.1320468E+00
        -11   -1    0    0    0    0  0.00000000000E+00  0.00000000000E+00  0.45593999997E+02  0.45594000000E+02  0.51100000000E-03 0.  1.
         11   -1    0    0    0    0 -0.00000000000E+00 -0.00000000000E+00 -0.45593999997E+02  0.45594000000E+02  0.51100000000E-03 0. -1.
    9900012    2    1    2    0    0  0.37817931808E+02  0.78678258318E+01  0.23173580484E+02  0.46142317831E+02  0.10000000641E+02 0.  0.
         12    1    1    2    0    0 -0.37817931808E+02 -0.78678258318E+01 -0.23173580484E+02  0.45045682169E+02  0.00000000000E+00 0. -1.
         11    1    3    3    0    0  0.15166548935E+02  0.46860931940E+01  0.74269901035E+01  0.17525520200E+02  0.51100000000E-03 0. -1.
        -11    1    3    3    0    0  0.18584821491E+02  0.49556659993E+01  0.11168415656E+02  0.22241576470E+02  0.51100000000E-03 0.  1.
         12    1    3    3    0    0  0.40665613826E+01 -0.17739333615E+01  0.45781747246E+01  0.63752211615E+01  0.00000000000E+00 0. -1.
</event>
<event>
 7    1  0.1466590E-008  0.4614232E+02  0.7816164E-02  0.1320468E+00
        -11   -1    0    0    0    0  0.00000000000E+00  0.00000000000E+00  0.45593999997E+02  0.45594000000E+02  0.51100000000E-03 0.  1.
         11   -1    0    0    0    0 -0.00000000000E+00 -0.00000000000E+00 -0.45593999997E+02  0.45594000000E+02  0.51100000000E-03 0. -1.
    9900012    2    1    2    0    0 -0.11096042331E+02  0.11784573015E+01  0.43641751656E+02  0.46142318690E+02  0.10000008475E+02 0.  0.
         12    1    1    2    0    0  0.11096042331E+02 -0.11784573015E+01 -0.43641751656E+02  0.45045681310E+02  0.00000000000E+00 0. -1.
         11    1    3    3    0    0 -0.33322731451E+01  0.74364860666E+00  0.23912222264E+02  0.24154739316E+02  0.51100000000E-03 0. -1.
        -11    1    3    3    0    0 -0.19129613478E+01 -0.19090739263E+01  0.26619755362E+01  0.37934283162E+01  0.51100000000E-03 0.  1.
        -12    1    3    3    0    0 -0.58508078376E+01  0.23438826212E+01  0.17067553857E+02  0.18194151059E+02  0.00000000000E+00 0.  1.
</event>
<event>
 7    1  0.1466590E-008  0.4614232E+02  0.7816164E-02  0.1320468E+00
        -11   -1    0    0    0    0  0.00000000000E+00  0.00000000000E+00  0.45593999997E+02  0.45594000000E+02  0.51100000000E-03 0.  1.
         11   -1    0    0    0    0 -0.00000000000E+00 -0.00000000000E+00 -0.45593999997E+02  0.45594000000E+02  0.51100000000E-03 0. -1.
    9900012    2    1    2    0    0 -0.28840758913E+02 -0.13297668947E+01  0.34576810133E+02  0.46142318146E+02  0.10000003510E+02 0.  0.
         12    1    1    2    0    0  0.28840758913E+02  0.13297668947E+01 -0.34576810133E+02  0.45045681854E+02  0.00000000000E+00 0. -1.
         11    1    3    3    0    0 -0.61136828053E+01 -0.16731175261E+01  0.36483697841E+01  0.73134835778E+01  0.51100000000E-03 0.  1.
        -11    1    3    3    0    0 -0.58933994729E+01  0.18101641698E+01  0.11744026071E+02  0.13263898382E+02  0.51100000000E-03 0. -1.
        -12    1    3    3    0    0 -0.16833676635E+02 -0.14668135384E+01  0.19184414278E+02  0.25564936186E+02  0.00000000000E+00 0.  1.
</event>
<event>
 7    1  0.1466590E-008  0.4614232E+02  0.7816164E-02  0.1320468E+00
        -11   -1    0    0    0    0  0.00000000000E+00  0.00000000000E+00  0.45593999997E+02  0.45594000000E+02  0.51100000000E-03 0.  1.
         11   -1    0    0    0    0 -0.00000000000E+00 -0.00000000000E+00 -0.45593999997E+02  0.45594000000E+02  0.51100000000E-03 0. -1.
    9900012    2    1    2    0    0 -0.15715827337E+02  0.51444040076E+01  0.41900613463E+02  0.46142317298E+02  0.99999957800E+01 0.  0.
         12    1    1    2    0    0  0.15715827337E+02 -0.51444040076E+01 -0.41900613463E+02  0.45045682702E+02  0.00000000000E+00 0. -1.
         11    1    3    3    0    0  0.12853464608E+00  0.72121496138E+00  0.30647843353E+01  0.31511228886E+01  0.51100000000E-03 0. -1.
        -11    1    3    3    0    0 -0.11348532655E+01  0.33759779205E+01  0.97590888795E+01  0.10388692645E+02  0.51100000000E-03 0.  1.
        -12    1    3    3    0    0 -0.14709508717E+02  0.10472111256E+01  0.29076740248E+02  0.32602501765E+02  0.00000000000E+00 0.  1.
</event>
<event>
 7    1  0.1466590E-008  0.4614232E+02  0.7816164E-02  0.1320468E+00
        -11   -1    0    0    0    0  0.00000000000E+00  0.00000000000E+00  0.45593999997E+02  0.45594000000E+02  0.51100000000E-03 0.  1.
         11   -1    0    0    0    0 -0.00000000000E+00 -0.00000000000E+00 -0.45593999997E+02  0.45594000000E+02  0.51100000000E-03 0. -1.
    9900012    2    1    2    0    0 -0.99924384285E+01  0.37059464883E+02  0.23576699581E+02  0.46142317340E+02  0.99999961616E+01 0.  0.
         12    1    1    2    0    0  0.99924384285E+01 -0.37059464883E+02 -0.23576699581E+02  0.45045682660E+02  0.00000000000E+00 0. -1.
         11    1    3    3    0    0 -0.28880753463E+01  0.72040579666E+01  0.78213323530E+01  0.11018741781E+02  0.51100000000E-03 0. -1.
        -11    1    3    3    0    0 -0.11572115989E+00 -0.36018228873E+00  0.19570584344E+00  0.42593861792E+00  0.51100000000E-03 0.  1.
        -12    1    3    3    0    0 -0.69886419224E+01  0.30215589205E+02  0.15559661385E+02  0.34697636942E+02  0.00000000000E+00 0.  1.
</event>
<event>
 7    1  0.1466590E-008  0.4614232E+02  0.7816164E-02  0.1320468E+00
        -11   -1    0    0    0    0  0.00000000000E+00  0.00000000000E+00  0.45593999997E+02  0.45594000000E+02  0.51100000000E-03 0. -1.
         11   -1    0    0    0    0 -0.00000000000E+00 -0.00000000000E+00 -0.45593999997E+02  0.45594000000E+02  0.51100000000E-03 0.  1.
    9900012    2    1    2    0    0  0.34362213433E+02  0.28302010922E+02 -0.68809820036E+01  0.46142318214E+02  0.10000004131E+02 0.  0.
         12    1    1    2    0    0 -0.34362213433E+02 -0.28302010922E+02  0.68809820036E+01  0.45045681786E+02  0.00000000000E+00 0. -1.
         11    1    3    3    0    0  0.78850365373E+01  0.66252937568E+01  0.66822401988E+00  0.10320602800E+02  0.51100000000E-03 0. -1.
        -11    1    3    3    0    0  0.45328589054E+01  0.28558582660E+01  0.14380954492E+01  0.55471483732E+01  0.51100000000E-03 0.  1.
        -12    1    3    3    0    0  0.21944317990E+02  0.18820858899E+02 -0.89873014727E+01  0.30274567041E+02  0.00000000000E+00 0.  1.
</event>
<event>
 7    1  0.1466590E-008  0.4614232E+02  0.7816164E-02  0.1320468E+00
        -11   -1    0    0    0    0  0.00000000000E+00  0.00000000000E+00  0.45593999997E+02  0.45594000000E+02  0.51100000000E-03 0.  1.
         11   -1    0    0    0    0 -0.00000000000E+00 -0.00000000000E+00 -0.45593999997E+02  0.45594000000E+02  0.51100000000E-03 0. -1.
    9900012    2    1    2    0    0 -0.68570136176E+01  0.15386614399E+02  0.41777349521E+02  0.46142317949E+02  0.10000001712E+02 0.  0.
         12    1    1    2    0    0  0.68570136176E+01 -0.15386614399E+02 -0.41777349521E+02  0.45045682051E+02  0.00000000000E+00 0. -1.
         11    1    3    3    0    0 -0.83428288865E+00 -0.94661896276E-01  0.86052809697E+00  0.12022885177E+01  0.51100000000E-03 0. -1.
        -11    1    3    3    0    0 -0.44930314577E+00  0.10773352479E+02  0.29312264307E+02  0.31232608536E+02  0.51100000000E-03 0.  1.
        -12    1    3    3    0    0 -0.55734275832E+01  0.47079238168E+01  0.11604557118E+02  0.13707420895E+02  0.00000000000E+00 0.  1.
</event>
<event>
 7    1  0.1466590E-008  0.4614232E+02  0.7816164E-02  0.1320468E+00
        -11   -1    0    0    0    0  0.00000000000E+00  0.00000000000E+00  0.45593999997E+02  0.45594000000E+02  0.51100000000E-03 0.  1.
         11   -1    0    0    0    0 -0.00000000000E+00 -0.00000000000E+00 -0.45593999997E+02  0.45594000000E+02  0.51100000000E-03 0. -1.
    9900012    2    1    2    0    0 -0.71267013549E+01 -0.44147893400E+02 -0.54117617630E+01  0.46142317308E+02  0.99999958639E+01 0.  0.
         12    1    1    2    0    0  0.71267013549E+01  0.44147893400E+02  0.54117617630E+01  0.45045682692E+02  0.00000000000E+00 0. -1.
         11    1    3    3    0    0 -0.58384188142E+01 -0.22600999225E+02 -0.57890792948E+01  0.24050067351E+02  0.51100000000E-03 0. -1.
        -11    1    3    3    0    0  0.16004339979E+01 -0.51112844914E+01  0.70035701389E+00  0.54015847991E+01  0.51100000000E-03 0.  1.
         12    1    3    3    0    0 -0.28887165387E+01 -0.16435609683E+02 -0.32303948200E+00  0.16690665158E+02  0.00000000000E+00 0. -1.
</event>
<event>
 7    1  0.1466590E-008  0.4614232E+02  0.7816164E-02  0.1320468E+00
        -11   -1    0    0    0    0  0.00000000000E+00  0.00000000000E+00  0.45593999997E+02  0.45594000000E+02  0.51100000000E-03 0. -1.
         11   -1    0    0    0    0 -0.00000000000E+00 -0.00000000000E+00 -0.45593999997E+02  0.45594000000E+02  0.51100000000E-03 0.  1.
    9900012    2    1    2    0    0 -0.23600080472E+02 -0.27493272868E+01 -0.38269967874E+02  0.46142322739E+02  0.10000045393E+02 0.  0.
         12    1    1    2    0    0  0.23600080472E+02  0.27493272868E+01  0.38269967874E+02  0.45045677261E+02  0.00000000000E+00 0. -1.
         11    1    3    3    0    0 -0.10229938411E+02 -0.41123767021E+01 -0.20991423904E+02  0.23710823685E+02  0.51100000000E-03 0. -1.
        -11    1    3    3    0    0 -0.56689303705E+01 -0.95684982331E+00 -0.10240328809E+02  0.11743792723E+02  0.51100000000E-03 0.  1.
         12    1    3    3    0    0 -0.77012116907E+01  0.23198992386E+01 -0.70382151606E+01  0.10687706331E+02  0.00000000000E+00 0. -1.
</event>
<event>
 7    1  0.1466590E-008  0.4614232E+02  0.7816164E-02  0.1320468E+00
        -11   -1    0    0    0    0  0.00000000000E+00  0.00000000000E+00  0.45593999997E+02  0.45594000000E+02  0.51100000000E-03 0.  1.
         11   -1    0    0    0    0 -0.00000000000E+00 -0.00000000000E+00 -0.45593999997E+02  0.45594000000E+02  0.51100000000E-03 0. -1.
    9900012    2    1    2    0    0 -0.10536122117E+02  0.43731362246E+02 -0.23815321194E+01  0.46142316429E+02  0.99999878559E+01 0.  0.
         12    1    1    2    0    0  0.10536122117E+02 -0.43731362246E+02  0.23815321194E+01  0.45045683571E+02  0.00000000000E+00 0. -1.
         11    1    3    3    0    0 -0.87902460009E+01  0.18230944310E+02 -0.20957142628E+01  0.20347672440E+02  0.51100000000E-03 0. -1.
        -11    1    3    3    0    0 -0.18444147846E+01  0.25547690624E+02 -0.14271540056E+00  0.25614580420E+02  0.51100000000E-03 0.  1.
         12    1    3    3    0    0  0.98538668806E-01 -0.47272688388E-01 -0.14310245601E+00  0.18006356998E+00  0.00000000000E+00 0. -1.
</event>
<event>
 7    1  0.1466590E-008  0.4614232E+02  0.7816164E-02  0.1320468E+00
        -11   -1    0    0    0    0  0.00000000000E+00  0.00000000000E+00  0.45593999997E+02  0.45594000000E+02  0.51100000000E-03 0.  1.
         11   -1    0    0    0    0 -0.00000000000E+00 -0.00000000000E+00 -0.45593999997E+02  0.45594000000E+02  0.51100000000E-03 0. -1.
    9900012    2    1    2    0    0  0.24793640675E+02 -0.19699967089E+02  0.32035919104E+02  0.46142318364E+02  0.10000005499E+02 0.  0.
         12    1    1    2    0    0 -0.24793640675E+02  0.19699967089E+02 -0.32035919104E+02  0.45045681636E+02  0.00000000000E+00 0. -1.
         11    1    3    3    0    0  0.77036218932E+01 -0.50948937750E+01  0.77256831939E+01  0.12041175770E+02  0.51100000000E-03 0. -1.
        -11    1    3    3    0    0  0.11769830376E+02 -0.72653211967E+01  0.19297082153E+02  0.23742181429E+02  0.51100000000E-03 0.  1.
         12    1    3    3    0    0  0.53201884061E+01 -0.73397521171E+01  0.50131537573E+01  0.10358961165E+02  0.00000000000E+00 0. -1.
</event>
<event>
 7    1  0.1466590E-008  0.4614232E+02  0.7816164E-02  0.1320468E+00
        -11   -1    0    0    0    0  0.00000000000E+00  0.00000000000E+00  0.45593999997E+02  0.45594000000E+02  0.51100000000E-03 0.  1.
         11   -1    0    0    0    0 -0.00000000000E+00 -0.00000000000E+00 -0.45593999997E+02  0.45594000000E+02  0.51100000000E-03 0. -1.
    9900012    2    1    2    0    0 -0.41233980129E+02  0.67720223867E+01  0.16822965760E+02  0.46142316728E+02  0.99999905772E+01 0.  0.
         12    1    1    2    0    0  0.41233980129E+02 -0.67720223867E+01 -0.16822965760E+02  0.45045683272E+02  0.00000000000E+00 0. -1.
         11    1    3    3    0    0 -0.14912566608E+02 -0.86921904227E+00  0.53765989451E+01  0.15876019686E+02  0.51100000000E-03 0. -1.
        -11    1    3    3    0    0 -0.18716275226E+02  0.33383347894E+01  0.97467208048E+01  0.21364503369E+02  0.51100000000E-03 0.  1.
        -12    1    3    3    0    0 -0.76051382956E+01  0.43029066395E+01  0.16996460102E+01  0.89017936734E+01  0.00000000000E+00 0.  1.
</event>
<event>
 7    1  0.1466590E-008  0.4614232E+02  0.7816164E-02  0.1320468E+00
        -11   -1    0    0    0    0  0.00000000000E+00  0.00000000000E+00  0.45593999997E+02  0.45594000000E+02  0.51100000000E-03 0.  1.
         11   -1    0    0    0    0 -0.00000000000E+00 -0.00000000000E+00 -0.45593999997E+02  0.45594000000E+02  0.51100000000E-03 0. -1.
    9900012    2    1    2    0    0 -0.18449221143E+02  0.39391870210E+01  0.40905038496E+02  0.46142321745E+02  0.10000036324E+02 0.  0.
         12    1    1    2    0    0  0.18449221143E+02 -0.39391870210E+01 -0.40905038496E+02  0.45045678255E+02  0.00000000000E+00 0. -1.
         11    1    3    3    0    0 -0.45113171235E+01 -0.44410792606E-01  0.27786679261E+01  0.52985800184E+01  0.51100000000E-03 0. -1.
        -11    1    3    3    0    0 -0.12892378796E+02  0.42355509434E+01  0.35098170073E+02  0.37630238712E+02  0.51100000000E-03 0.  1.
        -12    1    3    3    0    0 -0.10455252237E+01 -0.25195312975E+00  0.30282004967E+01  0.32135030140E+01  0.00000000000E+00 0.  1.
</event>
<event>
 7    1  0.1466590E-008  0.4614232E+02  0.7816164E-02  0.1320468E+00
        -11   -1    0    0    0    0  0.00000000000E+00  0.00000000000E+00  0.45593999997E+02  0.45594000000E+02  0.51100000000E-03 0. -1.
         11   -1    0    0    0    0 -0.00000000000E+00 -0.00000000000E+00 -0.45593999997E+02  0.45594000000E+02  0.51100000000E-03 0.  1.
    9900012    2    1    2    0    0  0.60060422822E+00 -0.27963694497E+02 -0.35309837054E+02  0.46142317320E+02  0.99999959750E+01 0.  0.
         12    1    1    2    0    0 -0.60060422822E+00  0.27963694497E+02  0.35309837054E+02  0.45045682680E+02  0.00000000000E+00 0. -1.
         11    1    3    3    0    0  0.19026606599E+01 -0.72497274220E+01 -0.67718610636E+01  0.10101325052E+02  0.51100000000E-03 0. -1.
        -11    1    3    3    0    0 -0.43334363606E+01 -0.11528785873E+02 -0.16805868612E+02  0.20835757593E+02  0.51100000000E-03 0.  1.
        -12    1    3    3    0    0  0.30313799289E+01 -0.91851812021E+01 -0.11732107378E+02  0.15205234675E+02  0.00000000000E+00 0.  1.
</event>
<event>
 7    1  0.1466590E-008  0.4614232E+02  0.7816164E-02  0.1320468E+00
        -11   -1    0    0    0    0  0.00000000000E+00  0.00000000000E+00  0.45593999997E+02  0.45594000000E+02  0.51100000000E-03 0.  1.
         11   -1    0    0    0    0 -0.00000000000E+00 -0.00000000000E+00 -0.45593999997E+02  0.45594000000E+02  0.51100000000E-03 0. -1.
    9900012    2    1    2    0    0 -0.24195342751E+01 -0.35425562401E+02  0.27718022078E+02  0.46142319125E+02  0.10000012436E+02 0.  0.
         12    1    1    2    0    0  0.24195342751E+01  0.35425562401E+02 -0.27718022078E+02  0.45045680875E+02  0.00000000000E+00 0. -1.
         11    1    3    3    0    0 -0.33286857705E+01 -0.46680465842E+01  0.57968583838E+01  0.81531819098E+01  0.51100000000E-03 0. -1.
        -11    1    3    3    0    0  0.18976187515E+01 -0.10298538709E+02  0.86533074306E+01  0.13584571625E+02  0.51100000000E-03 0.  1.
         12    1    3    3    0    0 -0.98846725611E+00 -0.20458977108E+02  0.13267856264E+02  0.24404565590E+02  0.00000000000E+00 0. -1.
</event>
<event>
 7    1  0.1466590E-008  0.4614232E+02  0.7816164E-02  0.1320468E+00
        -11   -1    0    0    0    0  0.00000000000E+00  0.00000000000E+00  0.45593999997E+02  0.45594000000E+02  0.51100000000E-03 0. -1.
         11   -1    0    0    0    0 -0.00000000000E+00 -0.00000000000E+00 -0.45593999997E+02  0.45594000000E+02  0.51100000000E-03 0.  1.
    9900012    2    1    2    0    0  0.42982874340E+01 -0.43054793631E+02 -0.12526889779E+02  0.46142317666E+02  0.99999991290E+01 0.  0.
         12    1    1    2    0    0 -0.42982874340E+01  0.43054793631E+02  0.12526889779E+02  0.45045682334E+02  0.00000000000E+00 0. -1.
         11    1    3    3    0    0  0.22722835419E+01 -0.28359763845E+01 -0.14638540856E+01  0.39177676798E+01  0.51100000000E-03 0. -1.
        -11    1    3    3    0    0  0.28977074474E+00 -0.36492827780E+02 -0.88320955422E+01  0.37547521335E+02  0.51100000000E-03 0.  1.
        -12    1    3    3    0    0  0.17362331474E+01 -0.37259894659E+01 -0.22309401507E+01  0.46770286506E+01  0.00000000000E+00 0.  1.
</event>
<event>
 7    1  0.1466590E-008  0.4614232E+02  0.7816164E-02  0.1320468E+00
        -11   -1    0    0    0    0  0.00000000000E+00  0.00000000000E+00  0.45593999997E+02  0.45594000000E+02  0.51100000000E-03 0. -1.
         11   -1    0    0    0    0 -0.00000000000E+00 -0.00000000000E+00 -0.45593999997E+02  0.45594000000E+02  0.51100000000E-03 0.  1.
    9900012    2    1    2    0    0 -0.17814902504E+02 -0.15751274106E+02 -0.38257541886E+02  0.46142324310E+02  0.10000059719E+02 0.  0.
         12    1    1    2    0    0  0.17814902504E+02  0.15751274106E+02  0.38257541886E+02  0.45045675690E+02  0.00000000000E+00 0. -1.
         11    1    3    3    0    0 -0.19106886400E+01 -0.44863907830E+01 -0.45220884881E+01  0.66503923111E+01  0.51100000000E-03 0. -1.
        -11    1    3    3    0    0 -0.13670001784E+02 -0.11134482705E+02 -0.25813495269E+02  0.31259913502E+02  0.51100000000E-03 0.  1.
        -12    1    3    3    0    0 -0.22342120802E+01 -0.13040061769E+00 -0.79219581289E+01  0.82320184971E+01  0.00000000000E+00 0.  1.
</event>
<event>
 7    1  0.1466590E-008  0.4614232E+02  0.7816164E-02  0.1320468E+00
        -11   -1    0    0    0    0  0.00000000000E+00  0.00000000000E+00  0.45593999997E+02  0.45594000000E+02  0.51100000000E-03 0.  1.
         11   -1    0    0    0    0 -0.00000000000E+00 -0.00000000000E+00 -0.45593999997E+02  0.45594000000E+02  0.51100000000E-03 0. -1.
    9900012    2    1    2    0    0 -0.40676499732E+02 -0.12505994730E+02  0.14769415445E+02  0.46142321326E+02  0.10000032505E+02 0.  0.
         12    1    1    2    0    0  0.40676499732E+02  0.12505994730E+02 -0.14769415445E+02  0.45045678674E+02  0.00000000000E+00 0. -1.
         11    1    3    3    0    0 -0.17783399104E+02 -0.11401935072E+01  0.85850862870E+01  0.19780117081E+02  0.51100000000E-03 0. -1.
        -11    1    3    3    0    0 -0.56670551066E+01 -0.37074166042E+01  0.14632876712E+01  0.69283232119E+01  0.51100000000E-03 0.  1.
         12    1    3    3    0    0 -0.17226045522E+02 -0.76583846191E+01  0.47210414870E+01  0.19433881033E+02  0.00000000000E+00 0. -1.
</event>
<event>
 7    1  0.1466590E-008  0.4614232E+02  0.7816164E-02  0.1320468E+00
        -11   -1    0    0    0    0  0.00000000000E+00  0.00000000000E+00  0.45593999997E+02  0.45594000000E+02  0.51100000000E-03 0.  1.
         11   -1    0    0    0    0 -0.00000000000E+00 -0.00000000000E+00 -0.45593999997E+02  0.45594000000E+02  0.51100000000E-03 0. -1.
    9900012    2    1    2    0    0  0.16206246522E+02  0.25827975913E+02  0.33157002618E+02  0.46142316647E+02  0.99999898449E+01 0.  0.
         12    1    1    2    0    0 -0.16206246522E+02 -0.25827975913E+02 -0.33157002618E+02  0.45045683353E+02  0.00000000000E+00 0. -1.
         11    1    3    3    0    0  0.42271978711E+01  0.13419682001E+02  0.15336249078E+02  0.20812438658E+02  0.51100000000E-03 0. -1.
        -11    1    3    3    0    0  0.69919434400E+01  0.36561567124E+01  0.70242056773E+01  0.10563816575E+02  0.51100000000E-03 0.  1.
        -12    1    3    3    0    0  0.49871052111E+01  0.87521372000E+01  0.10796547862E+02  0.14766061414E+02  0.00000000000E+00 0.  1.
</event>
<event>
 7    1  0.1466590E-008  0.4614232E+02  0.7816164E-02  0.1320468E+00
        -11   -1    0    0    0    0  0.00000000000E+00  0.00000000000E+00  0.45593999997E+02  0.45594000000E+02  0.51100000000E-03 0.  1.
         11   -1    0    0    0    0 -0.00000000000E+00 -0.00000000000E+00 -0.45593999997E+02  0.45594000000E+02  0.51100000000E-03 0. -1.
    9900012    2    1    2    0    0 -0.36631590805E+02  0.24230083756E+02  0.10007145929E+02  0.46142319038E+02  0.10000011639E+02 0.  0.
         12    1    1    2    0    0  0.36631590805E+02 -0.24230083756E+02 -0.10007145929E+02  0.45045680962E+02  0.00000000000E+00 0. -1.
         11    1    3    3    0    0 -0.28628680604E+01  0.51267897064E+01  0.21799678544E+01  0.62635649859E+01  0.51100000000E-03 0. -1.
        -11    1    3    3    0    0 -0.25924545779E+02  0.15891791970E+02  0.43508523606E+01  0.30717438734E+02  0.51100000000E-03 0.  1.
         12    1    3    3    0    0 -0.78441769657E+01  0.32115020794E+01  0.34763257142E+01  0.91613153175E+01  0.00000000000E+00 0. -1.
</event>
<event>
 7    1  0.1466590E-008  0.4614232E+02  0.7816164E-02  0.1320468E+00
        -11   -1    0    0    0    0  0.00000000000E+00  0.00000000000E+00  0.45593999997E+02  0.45594000000E+02  0.51100000000E-03 0. -1.
         11   -1    0    0    0    0 -0.00000000000E+00 -0.00000000000E+00 -0.45593999997E+02  0.45594000000E+02  0.51100000000E-03 0.  1.
    9900012    2    1    2    0    0  0.12524537159E+02  0.37775783850E+02 -0.21100701745E+02  0.46142317735E+02  0.99999997655E+01 0.  0.
         12    1    1    2    0    0 -0.12524537159E+02 -0.37775783850E+02  0.21100701745E+02  0.45045682265E+02  0.00000000000E+00 0. -1.
         11    1    3    3    0    0  0.31881999559E+01  0.20102155634E+02 -0.11135563009E+02  0.23200475079E+02  0.51100000000E-03 0. -1.
        -11    1    3    3    0    0  0.40039795090E+01  0.12684842214E+02 -0.55848914194E+01  0.14426645013E+02  0.51100000000E-03 0.  1.
         12    1    3    3    0    0  0.53323576942E+01  0.49887860021E+01 -0.43802473165E+01  0.85151976434E+01  0.00000000000E+00 0. -1.
</event>
<event>
 7    1  0.1466590E-008  0.4614231E+02  0.7816164E-02  0.1320468E+00
        -11   -1    0    0    0    0  0.00000000000E+00  0.00000000000E+00  0.45593999997E+02  0.45594000000E+02  0.51100000000E-03 0. -1.
         11   -1    0    0    0    0 -0.00000000000E+00 -0.00000000000E+00 -0.45593999997E+02  0.45594000000E+02  0.51100000000E-03 0.  1.
    9900012    2    1    2    0    0  0.21256771251E+02 -0.12946118046E+02 -0.37545460492E+02  0.46142313192E+02  0.99999583357E+01 0.  0.
         12    1    1    2    0    0 -0.21256771251E+02  0.12946118046E+02  0.37545460492E+02  0.45045686808E+02  0.00000000000E+00 0. -1.
         11    1    3    3    0    0  0.10507267681E+02 -0.77529955317E+01 -0.11831349330E+02  0.17620795699E+02  0.51100000000E-03 0. -1.
        -11    1    3    3    0    0  0.41344075305E+01 -0.88288096577E+00 -0.65636566435E+01  0.78073294552E+01  0.51100000000E-03 0.  1.
         12    1    3    3    0    0  0.66150960394E+01 -0.43102415487E+01 -0.19150454518E+02  0.20714188038E+02  0.00000000000E+00 0. -1.
</event>
<event>
 7    1  0.1466590E-008  0.4614232E+02  0.7816164E-02  0.1320468E+00
        -11   -1    0    0    0    0  0.00000000000E+00  0.00000000000E+00  0.45593999997E+02  0.45594000000E+02  0.51100000000E-03 0.  1.
         11   -1    0    0    0    0 -0.00000000000E+00 -0.00000000000E+00 -0.45593999997E+02  0.45594000000E+02  0.51100000000E-03 0. -1.
    9900012    2    1    2    0    0 -0.18630699289E+01 -0.45000816180E+02  0.75442577378E+00  0.46142316026E+02  0.99999841814E+01 0.  0.
         12    1    1    2    0    0  0.18630699289E+01  0.45000816180E+02 -0.75442577378E+00  0.45045683974E+02  0.00000000000E+00 0. -1.
         11    1    3    3    0    0 -0.25487444161E+01 -0.42395223295E+02 -0.28315953506E-01  0.42471777199E+02  0.51100000000E-03 0. -1.
        -11    1    3    3    0    0  0.51469175585E+00  0.33404110527E+00 -0.34728148435E-01  0.61457088197E+00  0.51100000000E-03 0.  1.
        -12    1    3    3    0    0  0.17098273135E+00 -0.29396339895E+01  0.81746987572E+00  0.30559679456E+01  0.00000000000E+00 0.  1.
</event>
<event>
 7    1  0.1466590E-008  0.4614232E+02  0.7816164E-02  0.1320468E+00
        -11   -1    0    0    0    0  0.00000000000E+00  0.00000000000E+00  0.45593999997E+02  0.45594000000E+02  0.51100000000E-03 0.  1.
         11   -1    0    0    0    0 -0.00000000000E+00 -0.00000000000E+00 -0.45593999997E+02  0.45594000000E+02  0.51100000000E-03 0. -1.
    9900012    2    1    2    0    0  0.39882938633E+02  0.13023559036E+02  0.16396694852E+02  0.46142317787E+02  0.10000000239E+02 0.  0.
         12    1    1    2    0    0 -0.39882938633E+02 -0.13023559036E+02 -0.16396694852E+02  0.45045682213E+02  0.00000000000E+00 0. -1.
         11    1    3    3    0    0  0.41542558052E+01  0.45614117222E+01  0.26446856683E+01  0.67125763117E+01  0.51100000000E-03 0. -1.
        -11    1    3    3    0    0  0.29545304365E+02  0.78647966784E+01  0.99786372297E+01  0.32161362503E+02  0.51100000000E-03 0.  1.
        -12    1    3    3    0    0  0.61833784628E+01  0.59735063496E+00  0.37733719536E+01  0.72683789730E+01  0.00000000000E+00 0.  1.
</event>
<event>
 7    1  0.1466590E-008  0.4614232E+02  0.7816164E-02  0.1320468E+00
        -11   -1    0    0    0    0  0.00000000000E+00  0.00000000000E+00  0.45593999997E+02  0.45594000000E+02  0.51100000000E-03 0.  1.
         11   -1    0    0    0    0 -0.00000000000E+00 -0.00000000000E+00 -0.45593999997E+02  0.45594000000E+02  0.51100000000E-03 0. -1.
    9900012    2    1    2    0    0  0.25716435322E+02 -0.34316179537E+02  0.13790513881E+02  0.46142317667E+02  0.99999991447E+01 0.  0.
         12    1    1    2    0    0 -0.25716435322E+02  0.34316179537E+02 -0.13790513881E+02  0.45045682333E+02  0.00000000000E+00 0. -1.
         11    1    3    3    0    0  0.65628854468E+01 -0.11432830663E+02  0.86408713929E+01  0.15762161687E+02  0.51100000000E-03 0.  1.
        -11    1    3    3    0    0  0.12772347945E+02 -0.13547688321E+02  0.27655201155E+01  0.18823411822E+02  0.51100000000E-03 0. -1.
        -12    1    3    3    0    0  0.63812019306E+01 -0.93356605532E+01  0.23841223727E+01  0.11556744158E+02  0.00000000000E+00 0.  1.
</event>
<event>
 7    1  0.1466590E-008  0.4614232E+02  0.7816164E-02  0.1320468E+00
        -11   -1    0    0    0    0  0.00000000000E+00  0.00000000000E+00  0.45593999997E+02  0.45594000000E+02  0.51100000000E-03 0.  1.
         11   -1    0    0    0    0 -0.00000000000E+00 -0.00000000000E+00 -0.45593999997E+02  0.45594000000E+02  0.51100000000E-03 0. -1.
    9900012    2    1    2    0    0  0.16797837326E+02 -0.38750320034E+02  0.15663932542E+02  0.46142318473E+02  0.10000006493E+02 0.  0.
         12    1    1    2    0    0 -0.16797837326E+02  0.38750320034E+02 -0.15663932542E+02  0.45045681527E+02  0.00000000000E+00 0. -1.
         11    1    3    3    0    0  0.44692110560E+01 -0.12319211870E+02  0.25525605834E+01  0.13351119591E+02  0.51100000000E-03 0. -1.
        -11    1    3    3    0    0  0.46620588236E+01 -0.16690883420E+02  0.52278417962E+01  0.18101124604E+02  0.51100000000E-03 0.  1.
        -12    1    3    3    0    0  0.76665674466E+01 -0.97402247442E+01  0.78835301621E+01  0.14690074278E+02  0.00000000000E+00 0.  1.
</event>
<event>
 7    1  0.1466590E-008  0.4614232E+02  0.7816164E-02  0.1320468E+00
        -11   -1    0    0    0    0  0.00000000000E+00  0.00000000000E+00  0.45593999997E+02  0.45594000000E+02  0.51100000000E-03 0.  1.
         11   -1    0    0    0    0 -0.00000000000E+00 -0.00000000000E+00 -0.45593999997E+02  0.45594000000E+02  0.51100000000E-03 0. -1.
    9900012    2    1    2    0    0  0.12651643582E+02 -0.39585220320E+02  0.17379866714E+02  0.46142317409E+02  0.99999967920E+01 0.  0.
         12    1    1    2    0    0 -0.12651643582E+02  0.39585220320E+02 -0.17379866714E+02  0.45045682591E+02  0.00000000000E+00 0. -1.
         11    1    3    3    0    0  0.11324316740E+01 -0.11404124393E+02  0.51731051637E+01  0.12573681719E+02  0.51100000000E-03 0. -1.
        -11    1    3    3    0    0  0.11896424707E+02 -0.24891586375E+02  0.12410676975E+02  0.30251295779E+02  0.51100000000E-03 0.  1.
        -12    1    3    3    0    0 -0.37721279982E+00 -0.32895095515E+01 -0.20391542511E+00  0.33173399111E+01  0.00000000000E+00 0.  1.
</event>
<event>
 7    1  0.1466590E-008  0.4614231E+02  0.7816164E-02  0.1320468E+00
        -11   -1    0    0    0    0  0.00000000000E+00  0.00000000000E+00  0.45593999997E+02  0.45594000000E+02  0.51100000000E-03 0. -1.
         11   -1    0    0    0    0 -0.00000000000E+00 -0.00000000000E+00 -0.45593999997E+02  0.45594000000E+02  0.51100000000E-03 0.  1.
    9900012    2    1    2    0    0  0.33225004537E+02 -0.11389334992E+02 -0.28204536213E+02  0.46142314956E+02  0.99999744219E+01 0.  0.
         12    1    1    2    0    0 -0.33225004537E+02  0.11389334992E+02  0.28204536213E+02  0.45045685044E+02  0.00000000000E+00 0. -1.
         11    1    3    3    0    0 -0.26540003210E+00  0.45503534936E+00  0.25067560781E+00  0.58338055133E+00  0.51100000000E-03 0. -1.
        -11    1    3    3    0    0  0.81481562075E+01 -0.30195831827E+01 -0.58912927343E+01  0.10498460007E+02  0.51100000000E-03 0.  1.
         12    1    3    3    0    0  0.25342248362E+02 -0.88247871586E+01 -0.22563919087E+02  0.35060474398E+02  0.00000000000E+00 0. -1.
</event>
<event>
 7    1  0.1779765E-008  0.4614232E+02  0.7816164E-02  0.1320468E+00
        -11   -1    0    0    0    0  0.00000000000E+00  0.00000000000E+00  0.45593999997E+02  0.45594000000E+02  0.51100000000E-03 0.  1.
         11   -1    0    0    0    0 -0.00000000000E+00 -0.00000000000E+00 -0.45593999997E+02  0.45594000000E+02  0.51100000000E-03 0. -1.
    9900012    2    1    2    0    0 -0.38751550332E+02 -0.76338213212E+01  0.21659999359E+02  0.46142318150E+02  0.10000003546E+02 0.  0.
         12    1    1    2    0    0  0.38751550332E+02  0.76338213212E+01 -0.21659999359E+02  0.45045681850E+02  0.00000000000E+00 0. -1.
         11    1    3    3    0    0 -0.18263505907E+01 -0.38444308810E+00 -0.59815018046E+00  0.19598818505E+01  0.51100000000E-03 0. -1.
        -11    1    3    3    0    0 -0.34112094039E+02 -0.56115036701E+01  0.18495896635E+02  0.39207424371E+02  0.51100000000E-03 0.  1.
        -12    1    3    3    0    0 -0.28131057020E+01 -0.16378745630E+01  0.37622529046E+01  0.49750119289E+01  0.00000000000E+00 0.  1.
</event>
<event>
 7    1  0.1466590E-008  0.4614232E+02  0.7816164E-02  0.1320468E+00
        -11   -1    0    0    0    0  0.00000000000E+00  0.00000000000E+00  0.45593999997E+02  0.45594000000E+02  0.51100000000E-03 0.  1.
         11   -1    0    0    0    0 -0.00000000000E+00 -0.00000000000E+00 -0.45593999997E+02  0.45594000000E+02  0.51100000000E-03 0. -1.
    9900012    2    1    2    0    0 -0.28325798491E+02 -0.33142672827E+02 -0.11328102350E+02  0.46142317353E+02  0.99999962798E+01 0.  0.
         12    1    1    2    0    0  0.28325798491E+02  0.33142672827E+02  0.11328102350E+02  0.45045682647E+02  0.00000000000E+00 0. -1.
         11    1    3    3    0    0 -0.21137580962E+02 -0.26670901849E+02 -0.58837016106E+01  0.34536245877E+02  0.51100000000E-03 0. -1.
        -11    1    3    3    0    0 -0.53013667589E+01 -0.55932469921E+01 -0.55889189842E+01  0.95197120282E+01  0.51100000000E-03 0.  1.
         12    1    3    3    0    0 -0.18868507702E+01 -0.87852398574E+00  0.14451824527E+00  0.20863594479E+01  0.00000000000E+00 0. -1.
</event>
<event>
 7    1  0.1466590E-008  0.4614232E+02  0.7816164E-02  0.1320468E+00
        -11   -1    0    0    0    0  0.00000000000E+00  0.00000000000E+00  0.45593999997E+02  0.45594000000E+02  0.51100000000E-03 0.  1.
         11   -1    0    0    0    0 -0.00000000000E+00 -0.00000000000E+00 -0.45593999997E+02  0.45594000000E+02  0.51100000000E-03 0. -1.
    9900012    2    1    2    0    0  0.32271488403E+02 -0.19954112069E+02  0.24279579692E+02  0.46142317163E+02  0.99999945443E+01 0.  0.
         12    1    1    2    0    0 -0.32271488403E+02  0.19954112069E+02 -0.24279579692E+02  0.45045682837E+02  0.00000000000E+00 0. -1.
         11    1    3    3    0    0  0.15717554198E+01 -0.16096878649E+00  0.18486329514E+01  0.24318244386E+01  0.51100000000E-03 0. -1.
        -11    1    3    3    0    0  0.26722492300E+02 -0.13454077583E+02  0.19268733592E+02  0.35586344191E+02  0.51100000000E-03 0.  1.
        -12    1    3    3    0    0  0.39772406830E+01 -0.63390656997E+01  0.31622131485E+01  0.81241485334E+01  0.00000000000E+00 0.  1.
</event>
<event>
 7    1  0.1466590E-008  0.4614232E+02  0.7816164E-02  0.1320468E+00
        -11   -1    0    0    0    0  0.00000000000E+00  0.00000000000E+00  0.45593999997E+02  0.45594000000E+02  0.51100000000E-03 0.  1.
         11   -1    0    0    0    0 -0.00000000000E+00 -0.00000000000E+00 -0.45593999997E+02  0.45594000000E+02  0.51100000000E-03 0. -1.
    9900012    2    1    2    0    0  0.25677906716E+02 -0.33905056235E+02  0.14839330527E+02  0.46142318053E+02  0.10000002659E+02 0.  0.
         12    1    1    2    0    0 -0.25677906716E+02  0.33905056235E+02 -0.14839330527E+02  0.45045681947E+02  0.00000000000E+00 0. -1.
         11    1    3    3    0    0  0.40268352362E+01 -0.46713273137E+01  0.42620859868E+01  0.74968045267E+01  0.51100000000E-03 0. -1.
        -11    1    3    3    0    0  0.17378844029E+02 -0.21391298237E+02  0.11070477118E+02  0.29701301722E+02  0.51100000000E-03 0.  1.
        -12    1    3    3    0    0  0.42722274502E+01 -0.78424306845E+01 -0.49323257869E+00  0.89442118045E+01  0.00000000000E+00 0.  1.
</event>
<event>
 7    1  0.1466590E-008  0.4614232E+02  0.7816164E-02  0.1320468E+00
        -11   -1    0    0    0    0  0.00000000000E+00  0.00000000000E+00  0.45593999997E+02  0.45594000000E+02  0.51100000000E-03 0.  1.
         11   -1    0    0    0    0 -0.00000000000E+00 -0.00000000000E+00 -0.45593999997E+02  0.45594000000E+02  0.51100000000E-03 0. -1.
    9900012    2    1    2    0    0 -0.63058201283E+01  0.32488129303E+02 -0.30559311247E+02  0.46142318553E+02  0.10000007221E+02 0.  0.
         12    1    1    2    0    0  0.63058201283E+01 -0.32488129303E+02  0.30559311247E+02  0.45045681447E+02  0.00000000000E+00 0. -1.
         11    1    3    3    0    0 -0.52818440569E+01  0.85767137560E+01 -0.65797021371E+01  0.12031225040E+02  0.51100000000E-03 0. -1.
        -11    1    3    3    0    0  0.13401312430E+01  0.12092441646E+02 -0.13029330771E+02  0.17826568859E+02  0.51100000000E-03 0.  1.
        -12    1    3    3    0    0 -0.23641073144E+01  0.11818973901E+02 -0.10950278339E+02  0.16284524653E+02  0.00000000000E+00 0.  1.
</event>
<event>
 7    1  0.1466590E-008  0.4614232E+02  0.7816164E-02  0.1320468E+00
        -11   -1    0    0    0    0  0.00000000000E+00  0.00000000000E+00  0.45593999997E+02  0.45594000000E+02  0.51100000000E-03 0.  1.
         11   -1    0    0    0    0 -0.00000000000E+00 -0.00000000000E+00 -0.45593999997E+02  0.45594000000E+02  0.51100000000E-03 0. -1.
    9900012    2    1    2    0    0  0.40564489330E+02  0.10441504063E+02  0.16571382001E+02  0.46142317598E+02  0.99999985113E+01 0.  0.
         12    1    1    2    0    0 -0.40564489330E+02 -0.10441504063E+02 -0.16571382001E+02  0.45045682402E+02  0.00000000000E+00 0. -1.
         11    1    3    3    0    0  0.52742928701E+01 -0.16574774216E+01  0.24804280864E+01  0.60595313709E+01  0.51100000000E-03 0. -1.
        -11    1    3    3    0    0  0.62362955148E+01  0.34429313246E+01  0.37594780077E+01  0.80547397851E+01  0.51100000000E-03 0.  1.
         12    1    3    3    0    0  0.29053900945E+02  0.86560501600E+01  0.10331475907E+02  0.32028046442E+02  0.00000000000E+00 0. -1.
</event>
<event>
 7    1  0.1466590E-008  0.4614232E+02  0.7816164E-02  0.1320468E+00
        -11   -1    0    0    0    0  0.00000000000E+00  0.00000000000E+00  0.45593999997E+02  0.45594000000E+02  0.51100000000E-03 0.  1.
         11   -1    0    0    0    0 -0.00000000000E+00 -0.00000000000E+00 -0.45593999997E+02  0.45594000000E+02  0.51100000000E-03 0. -1.
    9900012    2    1    2    0    0  0.43380751074E+02 -0.95826520888E+01  0.74428935151E+01  0.46142318201E+02  0.10000004014E+02 0.  0.
         12    1    1    2    0    0 -0.43380751074E+02  0.95826520888E+01 -0.74428935151E+01  0.45045681799E+02  0.00000000000E+00 0. -1.
         11    1    3    3    0    0  0.41642815165E+01 -0.35880301550E+01  0.25406452626E+01  0.60555825115E+01  0.51100000000E-03 0. -1.
        -11    1    3    3    0    0  0.21930568731E+02 -0.47124004826E+01  0.21144537457E+01  0.22530589829E+02  0.51100000000E-03 0.  1.
         12    1    3    3    0    0  0.17285900827E+02 -0.12822214512E+01  0.27877945068E+01  0.17556145860E+02  0.00000000000E+00 0. -1.
</event>
<event>
 7    1  0.1466590E-008  0.4614232E+02  0.7816164E-02  0.1320468E+00
        -11   -1    0    0    0    0  0.00000000000E+00  0.00000000000E+00  0.45593999997E+02  0.45594000000E+02  0.51100000000E-03 0.  1.
         11   -1    0    0    0    0 -0.00000000000E+00 -0.00000000000E+00 -0.45593999997E+02  0.45594000000E+02  0.51100000000E-03 0. -1.
    9900012    2    1    2    0    0  0.34006537748E+02 -0.86426421240E+01  0.28248426869E+02  0.46142317709E+02  0.99999995250E+01 0.  0.
         12    1    1    2    0    0 -0.34006537748E+02  0.86426421240E+01 -0.28248426869E+02  0.45045682291E+02  0.00000000000E+00 0. -1.
         11    1    3    3    0    0  0.23651595820E+02 -0.57183950484E+01  0.23433687503E+02  0.33782180762E+02  0.51100000000E-03 0. -1.
        -11    1    3    3    0    0  0.86804378738E+01 -0.11156256062E+01  0.28375778418E+01  0.92003516478E+01  0.51100000000E-03 0.  1.
         12    1    3    3    0    0  0.16745040543E+01 -0.18086214693E+01  0.19771615235E+01  0.31597852992E+01  0.00000000000E+00 0. -1.
</event>
<event>
 7    1  0.1466590E-008  0.4614232E+02  0.7816164E-02  0.1320468E+00
        -11   -1    0    0    0    0  0.00000000000E+00  0.00000000000E+00  0.45593999997E+02  0.45594000000E+02  0.51100000000E-03 0. -1.
         11   -1    0    0    0    0 -0.00000000000E+00 -0.00000000000E+00 -0.45593999997E+02  0.45594000000E+02  0.51100000000E-03 0.  1.
    9900012    2    1    2    0    0 -0.21636694016E+02  0.39150496528E+02 -0.53108920648E+01  0.46142317845E+02  0.10000000764E+02 0.  0.
         12    1    1    2    0    0  0.21636694016E+02 -0.39150496528E+02  0.53108920648E+01  0.45045682155E+02  0.00000000000E+00 0. -1.
         11    1    3    3    0    0 -0.55398530962E+01  0.69175388569E+01 -0.33269961374E+01  0.94663202842E+01  0.51100000000E-03 0. -1.
        -11    1    3    3    0    0 -0.66725969000E+00  0.11744845138E+01  0.12566576631E+01  0.18449493517E+01  0.51100000000E-03 0.  1.
        -12    1    3    3    0    0 -0.15429581230E+02  0.31058473157E+02 -0.32405535905E+01  0.34831048209E+02  0.00000000000E+00 0.  1.
</event>
<event>
 7    1  0.1466590E-008  0.4614231E+02  0.7816164E-02  0.1320468E+00
        -11   -1    0    0    0    0  0.00000000000E+00  0.00000000000E+00  0.45593999997E+02  0.45594000000E+02  0.51100000000E-03 0. -1.
         11   -1    0    0    0    0 -0.00000000000E+00 -0.00000000000E+00 -0.45593999997E+02  0.45594000000E+02  0.51100000000E-03 0.  1.
    9900012    2    1    2    0    0 -0.38355475984E+02  0.19706224230E+02 -0.13024436295E+02  0.46142314833E+02  0.99999733019E+01 0.  0.
         12    1    1    2    0    0  0.38355475984E+02 -0.19706224230E+02  0.13024436295E+02  0.45045685167E+02  0.00000000000E+00 0. -1.
         11    1    3    3    0    0 -0.42051555401E+01  0.60905681434E+00  0.60768504668E+00  0.42922680132E+01  0.51100000000E-03 0. -1.
        -11    1    3    3    0    0 -0.34285406226E+01  0.32767916856E+01 -0.33168107441E+01  0.57873559010E+01  0.51100000000E-03 0.  1.
        -12    1    3    3    0    0 -0.30721779821E+02  0.15820375730E+02 -0.10315310598E+02  0.36062690919E+02  0.00000000000E+00 0.  1.
</event>
<event>
 7    1  0.1466590E-008  0.4614232E+02  0.7816164E-02  0.1320468E+00
        -11   -1    0    0    0    0  0.00000000000E+00  0.00000000000E+00  0.45593999997E+02  0.45594000000E+02  0.51100000000E-03 0.  1.
         11   -1    0    0    0    0 -0.00000000000E+00 -0.00000000000E+00 -0.45593999997E+02  0.45594000000E+02  0.51100000000E-03 0. -1.
    9900012    2    1    2    0    0  0.17228389206E+02 -0.40807699459E+02  0.81870524412E+01  0.46142316995E+02  0.99999930102E+01 0.  0.
         12    1    1    2    0    0 -0.17228389206E+02  0.40807699459E+02 -0.81870524412E+01  0.45045683005E+02  0.00000000000E+00 0. -1.
         11    1    3    3    0    0  0.77030367244E+01 -0.29772586220E+02  0.59914627436E+01  0.31331155278E+02  0.51100000000E-03 0. -1.
        -11    1    3    3    0    0  0.80963507667E+01 -0.89924148658E+01  0.13337493522E+01  0.12173467396E+02  0.51100000000E-03 0.  1.
         12    1    3    3    0    0  0.14290017148E+01 -0.20426983728E+01  0.86184034535E+00  0.26376943197E+01  0.00000000000E+00 0. -1.
</event>
<event>
 7    1  0.1466590E-008  0.4614232E+02  0.7816164E-02  0.1320468E+00
        -11   -1    0    0    0    0  0.00000000000E+00  0.00000000000E+00  0.45593999997E+02  0.45594000000E+02  0.51100000000E-03 0.  1.
         11   -1    0    0    0    0 -0.00000000000E+00 -0.00000000000E+00 -0.45593999997E+02  0.45594000000E+02  0.51100000000E-03 0. -1.
    9900012    2    1    2    0    0  0.15410078919E+02 -0.36552677127E+02  0.21343494594E+02  0.46142317644E+02  0.99999989330E+01 0.  0.
         12    1    1    2    0    0 -0.15410078919E+02  0.36552677127E+02 -0.21343494594E+02  0.45045682356E+02  0.00000000000E+00 0. -1.
         11    1    3    3    0    0 -0.25942879971E+00 -0.80228379475E+01  0.43502189216E+01  0.91300403592E+01  0.51100000000E-03 0. -1.
        -11    1    3    3    0    0  0.12429774201E+02 -0.22846361314E+02  0.15583900568E+02  0.30320182538E+02  0.51100000000E-03 0.  1.
        -12    1    3    3    0    0  0.32397335178E+01 -0.56834778655E+01  0.14093751039E+01  0.66920947466E+01  0.00000000000E+00 0.  1.
</event>
<event>
 7    1  0.1466590E-008  0.4614232E+02  0.7816164E-02  0.1320468E+00
        -11   -1    0    0    0    0  0.00000000000E+00  0.00000000000E+00  0.45593999997E+02  0.45594000000E+02  0.51100000000E-03 0.  1.
         11   -1    0    0    0    0 -0.00000000000E+00 -0.00000000000E+00 -0.45593999997E+02  0.45594000000E+02  0.51100000000E-03 0. -1.
    9900012    2    1    2    0    0  0.30851673278E+02  0.24864760283E+02  0.21425010475E+02  0.46142321830E+02  0.10000037103E+02 0.  0.
         12    1    1    2    0    0 -0.30851673278E+02 -0.24864760283E+02 -0.21425010475E+02  0.45045678170E+02  0.00000000000E+00 0. -1.
         11    1    3    3    0    0  0.15590238223E+02  0.91794046148E+01  0.77117607426E+01  0.19666932932E+02  0.51100000000E-03 0. -1.
        -11    1    3    3    0    0  0.64059217198E+01  0.35850917723E+01  0.66312393379E+01  0.98925250323E+01  0.51100000000E-03 0.  1.
         12    1    3    3    0    0  0.88555133347E+01  0.12100263895E+02  0.70820103941E+01  0.16582863866E+02  0.00000000000E+00 0. -1.
</event>
<event>
 7    1  0.1466590E-008  0.4614232E+02  0.7816164E-02  0.1320468E+00
        -11   -1    0    0    0    0  0.00000000000E+00  0.00000000000E+00  0.45593999997E+02  0.45594000000E+02  0.51100000000E-03 0.  1.
         11   -1    0    0    0    0 -0.00000000000E+00 -0.00000000000E+00 -0.45593999997E+02  0.45594000000E+02  0.51100000000E-03 0. -1.
    9900012    2    1    2    0    0 -0.30975859438E+02  0.13012460035E+02  0.30004757034E+02  0.46142318423E+02  0.10000006034E+02 0.  0.
         12    1    1    2    0    0  0.30975859438E+02 -0.13012460035E+02 -0.30004757034E+02  0.45045681577E+02  0.00000000000E+00 0. -1.
         11    1    3    3    0    0 -0.83269877016E+01  0.47087248352E+01  0.11060320374E+02  0.14623320443E+02  0.51100000000E-03 0. -1.
        -11    1    3    3    0    0 -0.23071793076E+02  0.85273103422E+01  0.18933830889E+02  0.31040499509E+02  0.51100000000E-03 0.  1.
        -12    1    3    3    0    0  0.42292133905E+00 -0.22357514279E+00  0.10605771059E-01  0.47849847009E+00  0.00000000000E+00 0.  1.
</event>
<event>
 7    1  0.1466590E-008  0.4614232E+02  0.7816164E-02  0.1320468E+00
        -11   -1    0    0    0    0  0.00000000000E+00  0.00000000000E+00  0.45593999997E+02  0.45594000000E+02  0.51100000000E-03 0.  1.
         11   -1    0    0    0    0 -0.00000000000E+00 -0.00000000000E+00 -0.45593999997E+02  0.45594000000E+02  0.51100000000E-03 0. -1.
    9900012    2    1    2    0    0  0.33033292814E+02 -0.24803991028E+02  0.17963213025E+02  0.46142318439E+02  0.10000006184E+02 0.  0.
         12    1    1    2    0    0 -0.33033292814E+02  0.24803991028E+02 -0.17963213025E+02  0.45045681561E+02  0.00000000000E+00 0. -1.
         11    1    3    3    0    0  0.23914132566E+02 -0.19321952004E+02  0.14096219474E+02  0.33821989435E+02  0.51100000000E-03 0.  1.
        -11    1    3    3    0    0  0.39302303977E+01 -0.20841071288E+00 -0.76666882972E-01  0.39364989618E+01  0.51100000000E-03 0. -1.
         12    1    3    3    0    0  0.51889298505E+01 -0.52736283110E+01  0.39436604340E+01  0.83838300421E+01  0.00000000000E+00 0. -1.
</event>
<event>
 7    1  0.1466590E-008  0.4614232E+02  0.7816164E-02  0.1320468E+00
        -11   -1    0    0    0    0  0.00000000000E+00  0.00000000000E+00  0.45593999997E+02  0.45594000000E+02  0.51100000000E-03 0.  1.
         11   -1    0    0    0    0 -0.00000000000E+00 -0.00000000000E+00 -0.45593999997E+02  0.45594000000E+02  0.51100000000E-03 0. -1.
    9900012    2    1    2    0    0  0.24132386354E+02  0.18664245665E+02  0.33141925651E+02  0.46142319039E+02  0.10000011656E+02 0.  0.
         12    1    1    2    0    0 -0.24132386354E+02 -0.18664245665E+02 -0.33141925651E+02  0.45045680961E+02  0.00000000000E+00 0. -1.
         11    1    3    3    0    0  0.12950214682E+01  0.14723165472E+01  0.58110140677E+01  0.61329178516E+01  0.51100000000E-03 0. -1.
        -11    1    3    3    0    0  0.14170675552E+02  0.10126048561E+02  0.12512928199E+02  0.21445705338E+02  0.51100000000E-03 0.  1.
        -12    1    3    3    0    0  0.86666893336E+01  0.70658805568E+01  0.14817983384E+02  0.18563695850E+02  0.00000000000E+00 0.  1.
</event>
<event>
 7    1  0.1466590E-008  0.4614232E+02  0.7816164E-02  0.1320468E+00
        -11   -1    0    0    0    0  0.00000000000E+00  0.00000000000E+00  0.45593999997E+02  0.45594000000E+02  0.51100000000E-03 0.  1.
         11   -1    0    0    0    0 -0.00000000000E+00 -0.00000000000E+00 -0.45593999997E+02  0.45594000000E+02  0.51100000000E-03 0. -1.
    9900012    2    1    2    0    0 -0.44377352075E+02  0.75969669994E+01 -0.14318396831E+01  0.46142318190E+02  0.10000003914E+02 0.  0.
         12    1    1    2    0    0  0.44377352075E+02 -0.75969669994E+01  0.14318396831E+01  0.45045681810E+02  0.00000000000E+00 0. -1.
         11    1    3    3    0    0 -0.12983438408E+02 -0.11552276624E+00 -0.60422053336E+00  0.12998003736E+02  0.51100000000E-03 0. -1.
        -11    1    3    3    0    0 -0.21811153515E+02  0.84971994900E+01 -0.18193025406E+01  0.23478472668E+02  0.51100000000E-03 0.  1.
        -12    1    3    3    0    0 -0.95827601532E+01 -0.78470972433E+00  0.99168339088E+00  0.96658417871E+01  0.00000000000E+00 0.  1.
</event>
<event>
 7    1  0.1466590E-008  0.4614232E+02  0.7816164E-02  0.1320468E+00
        -11   -1    0    0    0    0  0.00000000000E+00  0.00000000000E+00  0.45593999997E+02  0.45594000000E+02  0.51100000000E-03 0.  1.
         11   -1    0    0    0    0 -0.00000000000E+00 -0.00000000000E+00 -0.45593999997E+02  0.45594000000E+02  0.51100000000E-03 0. -1.
    9900012    2    1    2    0    0 -0.18297667965E+02 -0.41105543408E+02  0.21547617525E+01  0.46142319296E+02  0.10000013997E+02 0.  0.
         12    1    1    2    0    0  0.18297667965E+02  0.41105543408E+02 -0.21547617525E+01  0.45045680704E+02  0.00000000000E+00 0. -1.
         11    1    3    3    0    0 -0.11854431822E+01 -0.15660760069E+01 -0.61699978434E+00  0.20587759938E+01  0.51100000000E-03 0. -1.
        -11    1    3    3    0    0  0.32341131327E+00 -0.22483658731E+01 -0.14607813967E+01  0.27006714956E+01  0.51100000000E-03 0.  1.
        -12    1    3    3    0    0 -0.17435636096E+02 -0.37291101528E+02  0.42325429335E+01  0.41382871807E+02  0.00000000000E+00 0.  1.
</event>
<event>
 7    1  0.1466590E-008  0.4614232E+02  0.7816164E-02  0.1320468E+00
        -11   -1    0    0    0    0  0.00000000000E+00  0.00000000000E+00  0.45593999997E+02  0.45594000000E+02  0.51100000000E-03 0.  1.
         11   -1    0    0    0    0 -0.00000000000E+00 -0.00000000000E+00 -0.45593999997E+02  0.45594000000E+02  0.51100000000E-03 0. -1.
    9900012    2    1    2    0    0  0.16346898212E+02  0.24126147609E+02  0.34348529304E+02  0.46142317133E+02  0.99999942714E+01 0.  0.
         12    1    1    2    0    0 -0.16346898212E+02 -0.24126147609E+02 -0.34348529304E+02  0.45045682867E+02  0.00000000000E+00 0. -1.
         11    1    3    3    0    0  0.31692507283E+00 -0.70451371673E+00  0.58289972875E-01  0.77471224393E+00  0.51100000000E-03 0. -1.
        -11    1    3    3    0    0  0.90836588527E+01  0.13647893992E+02  0.21234601175E+02  0.26826966953E+02  0.51100000000E-03 0.  1.
        -12    1    3    3    0    0  0.69463142868E+01  0.11182767334E+02  0.13055638156E+02  0.18540637936E+02  0.00000000000E+00 0.  1.
</event>
<event>
 7    1  0.1466590E-008  0.4614232E+02  0.7816164E-02  0.1320468E+00
        -11   -1    0    0    0    0  0.00000000000E+00  0.00000000000E+00  0.45593999997E+02  0.45594000000E+02  0.51100000000E-03 0.  1.
         11   -1    0    0    0    0 -0.00000000000E+00 -0.00000000000E+00 -0.45593999997E+02  0.45594000000E+02  0.51100000000E-03 0. -1.
    9900012    2    1    2    0    0 -0.14799087957E+02  0.71901539461E+01  0.41933306153E+02  0.46142317820E+02  0.10000000534E+02 0.  0.
         12    1    1    2    0    0  0.14799087957E+02 -0.71901539461E+01 -0.41933306153E+02  0.45045682180E+02  0.00000000000E+00 0. -1.
         11    1    3    3    0    0 -0.32925068015E+01  0.48517939664E+01  0.10070033497E+02  0.11652728463E+02  0.51100000000E-03 0. -1.
        -11    1    3    3    0    0 -0.94562619245E+01 -0.72587664354E+00  0.21870032613E+02  0.23837913358E+02  0.51100000000E-03 0.  1.
        -12    1    3    3    0    0 -0.20503192313E+01  0.30642366232E+01  0.99932400431E+01  0.10651675999E+02  0.00000000000E+00 0.  1.
</event>
<event>
 7    1  0.1466590E-008  0.4614232E+02  0.7816164E-02  0.1320468E+00
        -11   -1    0    0    0    0  0.00000000000E+00  0.00000000000E+00  0.45593999997E+02  0.45594000000E+02  0.51100000000E-03 0.  1.
         11   -1    0    0    0    0 -0.00000000000E+00 -0.00000000000E+00 -0.45593999997E+02  0.45594000000E+02  0.51100000000E-03 0. -1.
    9900012    2    1    2    0    0  0.42190420862E+01 -0.57868911512E+01  0.44472738677E+02  0.46142324173E+02  0.10000058468E+02 0.  0.
         12    1    1    2    0    0 -0.42190420862E+01  0.57868911512E+01 -0.44472738677E+02  0.45045675827E+02  0.00000000000E+00 0. -1.
         11    1    3    3    0    0 -0.22058687655E+01 -0.49946634857E+00  0.43339420176E+01  0.48885966613E+01  0.51100000000E-03 0. -1.
        -11    1    3    3    0    0  0.83668600010E+00 -0.19588965759E+01  0.19456411591E+02  0.19572666439E+02  0.51100000000E-03 0.  1.
         12    1    3    3    0    0  0.55882248516E+01 -0.33285282267E+01  0.20682385068E+02  0.21681061073E+02  0.00000000000E+00 0. -1.
</event>
<event>
 7    1  0.2044395E-008  0.4614232E+02  0.7816164E-02  0.1320468E+00
        -11   -1    0    0    0    0  0.00000000000E+00  0.00000000000E+00  0.45593999997E+02  0.45594000000E+02  0.51100000000E-03 0.  1.
         11   -1    0    0    0    0 -0.00000000000E+00 -0.00000000000E+00 -0.45593999997E+02  0.45594000000E+02  0.51100000000E-03 0. -1.
    9900012    2    1    2    0    0  0.34496135009E+02  0.28112534129E+02 -0.69868070863E+01  0.46142318975E+02  0.10000011073E+02 0.  0.
         12    1    1    2    0    0 -0.34496135009E+02 -0.28112534129E+02  0.69868070863E+01  0.45045681025E+02  0.00000000000E+00 0. -1.
         11    1    3    3    0    0  0.33920404544E+01  0.24103526929E+01  0.12050867534E+01  0.43322018527E+01  0.51100000000E-03 0. -1.
        -11    1    3    3    0    0  0.17167900295E+02  0.17717065166E+02 -0.72815331741E+01  0.25722595598E+02  0.51100000000E-03 0.  1.
        -12    1    3    3    0    0  0.13936194259E+02  0.79851162701E+01 -0.91036066565E+00  0.16087521525E+02  0.00000000000E+00 0.  1.
</event>
<event>
 7    1  0.1466590E-008  0.4614232E+02  0.7816164E-02  0.1320468E+00
        -11   -1    0    0    0    0  0.00000000000E+00  0.00000000000E+00  0.45593999997E+02  0.45594000000E+02  0.51100000000E-03 0.  1.
         11   -1    0    0    0    0 -0.00000000000E+00 -0.00000000000E+00 -0.45593999997E+02  0.45594000000E+02  0.51100000000E-03 0. -1.
    9900012    2    1    2    0    0 -0.33193078011E+02  0.25283242130E+02  0.16973233384E+02  0.46142318609E+02  0.10000007732E+02 0.  0.
         12    1    1    2    0    0  0.33193078011E+02 -0.25283242130E+02 -0.16973233384E+02  0.45045681391E+02  0.00000000000E+00 0. -1.
         11    1    3    3    0    0 -0.12707010343E+02  0.48835118181E+01  0.31311220337E+01  0.13968562023E+02  0.51100000000E-03 0. -1.
        -11    1    3    3    0    0 -0.19891902772E+02  0.20314996633E+02  0.13680362450E+02  0.31552166346E+02  0.51100000000E-03 0.  1.
        -12    1    3    3    0    0 -0.59416489546E+00  0.84733678984E-01  0.16174890038E+00  0.62159023973E+00  0.00000000000E+00 0.  1.
</event>
<event>
 7    1  0.1466590E-008  0.4614232E+02  0.7816164E-02  0.1320468E+00
        -11   -1    0    0    0    0  0.00000000000E+00  0.00000000000E+00  0.45593999997E+02  0.45594000000E+02  0.51100000000E-03 0.  1.
         11   -1    0    0    0    0 -0.00000000000E+00 -0.00000000000E+00 -0.45593999997E+02  0.45594000000E+02  0.51100000000E-03 0. -1.
    9900012    2    1    2    0    0 -0.71518977692E+01 -0.13619275249E+02  0.42337680645E+02  0.46142317606E+02  0.99999985823E+01 0.  0.
         12    1    1    2    0    0  0.71518977692E+01  0.13619275249E+02 -0.42337680645E+02  0.45045682394E+02  0.00000000000E+00 0. -1.
         11    1    3    3    0    0 -0.39711830718E+01 -0.58445526414E+00  0.52758394364E+01  0.66292054550E+01  0.51100000000E-03 0. -1.
        -11    1    3    3    0    0 -0.91084331018E+00 -0.75014019797E+01  0.23656755436E+02  0.24834305813E+02  0.51100000000E-03 0.  1.
         12    1    3    3    0    0 -0.22698713872E+01 -0.55334180052E+01  0.13405085773E+02  0.14678806338E+02  0.00000000000E+00 0. -1.
</event>
<event>
 7    1  0.1466590E-008  0.4614232E+02  0.7816164E-02  0.1320468E+00
        -11   -1    0    0    0    0  0.00000000000E+00  0.00000000000E+00  0.45593999997E+02  0.45594000000E+02  0.51100000000E-03 0.  1.
         11   -1    0    0    0    0 -0.00000000000E+00 -0.00000000000E+00 -0.45593999997E+02  0.45594000000E+02  0.51100000000E-03 0. -1.
    9900012    2    1    2    0    0  0.10892210312E+02  0.39247844221E+02 -0.19237462797E+02  0.46142317672E+02  0.99999991915E+01 0.  0.
         12    1    1    2    0    0 -0.10892210312E+02 -0.39247844221E+02  0.19237462797E+02  0.45045682328E+02  0.00000000000E+00 0. -1.
         11    1    3    3    0    0  0.36827266246E+01  0.12952556562E+02 -0.95007442150E+01  0.16480149810E+02  0.51100000000E-03 0. -1.
        -11    1    3    3    0    0  0.52603583027E+01  0.15586868358E+02 -0.26206413979E+01  0.16658018978E+02  0.51100000000E-03 0.  1.
        -12    1    3    3    0    0  0.19491253849E+01  0.10708419302E+02 -0.71160771840E+01  0.13004148884E+02  0.00000000000E+00 0.  1.
</event>
<event>
 7    1  0.1466590E-008  0.4614232E+02  0.7816164E-02  0.1320468E+00
        -11   -1    0    0    0    0  0.00000000000E+00  0.00000000000E+00  0.45593999997E+02  0.45594000000E+02  0.51100000000E-03 0.  1.
         11   -1    0    0    0    0 -0.00000000000E+00 -0.00000000000E+00 -0.45593999997E+02  0.45594000000E+02  0.51100000000E-03 0. -1.
    9900012    2    1    2    0    0  0.32267629753E+02 -0.26791815749E+02  0.16435085445E+02  0.46142319246E+02  0.10000013538E+02 0.  0.
         12    1    1    2    0    0 -0.32267629753E+02  0.26791815749E+02 -0.16435085445E+02  0.45045680754E+02  0.00000000000E+00 0. -1.
         11    1    3    3    0    0  0.17914362782E+02 -0.98362760914E+01  0.11156755798E+02  0.23284113069E+02  0.51100000000E-03 0. -1.
        -11    1    3    3    0    0  0.73562255119E+01 -0.93016940882E+01  0.24523008300E+01  0.12109886305E+02  0.51100000000E-03 0.  1.
         12    1    3    3    0    0  0.69970414596E+01 -0.76538455697E+01  0.28260288171E+01  0.10748319872E+02  0.00000000000E+00 0. -1.
</event>
<event>
 7    1  0.1466590E-008  0.4614232E+02  0.7816164E-02  0.1320468E+00
        -11   -1    0    0    0    0  0.00000000000E+00  0.00000000000E+00  0.45593999997E+02  0.45594000000E+02  0.51100000000E-03 0.  1.
         11   -1    0    0    0    0 -0.00000000000E+00 -0.00000000000E+00 -0.45593999997E+02  0.45594000000E+02  0.51100000000E-03 0. -1.
    9900012    2    1    2    0    0 -0.11904663745E+02  0.40412426063E+02  0.15944540952E+02  0.46142316684E+02  0.99999901798E+01 0.  0.
         12    1    1    2    0    0  0.11904663745E+02 -0.40412426063E+02 -0.15944540952E+02  0.45045683316E+02  0.00000000000E+00 0. -1.
         11    1    3    3    0    0  0.95514278876E+00  0.26144981362E+01  0.10845579925E+01  0.29873340208E+01  0.51100000000E-03 0. -1.
        -11    1    3    3    0    0 -0.14127362448E+01  0.11514947962E+02  0.64768584316E+01  0.13286818493E+02  0.51100000000E-03 0.  1.
        -12    1    3    3    0    0 -0.11447070289E+02  0.26282979965E+02  0.83831245282E+01  0.29868164170E+02  0.00000000000E+00 0.  1.
</event>
<event>
 7    1  0.1466590E-008  0.4614232E+02  0.7816164E-02  0.1320468E+00
        -11   -1    0    0    0    0  0.00000000000E+00  0.00000000000E+00  0.45593999997E+02  0.45594000000E+02  0.51100000000E-03 0.  1.
         11   -1    0    0    0    0 -0.00000000000E+00 -0.00000000000E+00 -0.45593999997E+02  0.45594000000E+02  0.51100000000E-03 0. -1.
    9900012    2    1    2    0    0 -0.30289906097E+02  0.55322396271E+01  0.32879010571E+02  0.46142318489E+02  0.10000006639E+02 0.  0.
         12    1    1    2    0    0  0.30289906097E+02 -0.55322396271E+01 -0.32879010571E+02  0.45045681511E+02  0.00000000000E+00 0. -1.
         11    1    3    3    0    0 -0.19394378797E+02  0.64975048475E+01  0.23184025132E+02  0.30916961684E+02  0.51100000000E-03 0. -1.
        -11    1    3    3    0    0 -0.10625694312E+02 -0.18512139745E+01  0.86251501148E+01  0.13810343499E+02  0.51100000000E-03 0.  1.
         12    1    3    3    0    0 -0.26983298709E+00  0.88594875406E+00  0.10698353248E+01  0.14150133066E+01  0.00000000000E+00 0. -1.
</event>
<event>
 7    1  0.1466590E-008  0.4614232E+02  0.7816164E-02  0.1320468E+00
        -11   -1    0    0    0    0  0.00000000000E+00  0.00000000000E+00  0.45593999997E+02  0.45594000000E+02  0.51100000000E-03 0. -1.
         11   -1    0    0    0    0 -0.00000000000E+00 -0.00000000000E+00 -0.45593999997E+02  0.45594000000E+02  0.51100000000E-03 0.  1.
    9900012    2    1    2    0    0 -0.37748997300E+02 -0.15585313587E+02 -0.19005916429E+02  0.46142315900E+02  0.99999830282E+01 0.  0.
         12    1    1    2    0    0  0.37748997300E+02  0.15585313587E+02  0.19005916429E+02  0.45045684100E+02  0.00000000000E+00 0. -1.
         11    1    3    3    0    0 -0.92495811155E+01 -0.43787448758E+01 -0.13624724007E+01  0.10323976405E+02  0.51100000000E-03 0.  1.
        -11    1    3    3    0    0 -0.14938875016E+01 -0.21369692086E+01 -0.22133752182E+01  0.34201414274E+01  0.51100000000E-03 0. -1.
        -12    1    3    3    0    0 -0.27005528683E+02 -0.90695995029E+01 -0.15430068810E+02  0.32398198068E+02  0.00000000000E+00 0.  1.
</event>
<event>
 7    1  0.1466590E-008  0.4614232E+02  0.7816164E-02  0.1320468E+00
        -11   -1    0    0    0    0  0.00000000000E+00  0.00000000000E+00  0.45593999997E+02  0.45594000000E+02  0.51100000000E-03 0.  1.
         11   -1    0    0    0    0 -0.00000000000E+00 -0.00000000000E+00 -0.45593999997E+02  0.45594000000E+02  0.51100000000E-03 0. -1.
    9900012    2    1    2    0    0  0.28578821788E+02  0.31487957691E+02 -0.14861787354E+02  0.46142320321E+02  0.10000023347E+02 0.  0.
         12    1    1    2    0    0 -0.28578821788E+02 -0.31487957691E+02  0.14861787354E+02  0.45045679679E+02  0.00000000000E+00 0. -1.
         11    1    3    3    0    0  0.44385364499E+01  0.74412403314E+01 -0.67085811781E+01  0.10957998228E+02  0.51100000000E-03 0. -1.
        -11    1    3    3    0    0  0.21479316053E+02  0.20630672852E+02 -0.80579250114E+01  0.30853133328E+02  0.51100000000E-03 0.  1.
         12    1    3    3    0    0  0.26609692851E+01  0.34160445080E+01 -0.95281164064E-01  0.43311887650E+01  0.00000000000E+00 0. -1.
</event>
<event>
 7    1  0.1466590E-008  0.4614232E+02  0.7816164E-02  0.1320468E+00
        -11   -1    0    0    0    0  0.00000000000E+00  0.00000000000E+00  0.45593999997E+02  0.45594000000E+02  0.51100000000E-03 0. -1.
         11   -1    0    0    0    0 -0.00000000000E+00 -0.00000000000E+00 -0.45593999997E+02  0.45594000000E+02  0.51100000000E-03 0.  1.
    9900012    2    1    2    0    0 -0.34234568954E+02  0.16325521210E+02 -0.24301957462E+02  0.46142317735E+02  0.99999997615E+01 0.  0.
         12    1    1    2    0    0  0.34234568954E+02 -0.16325521210E+02  0.24301957462E+02  0.45045682265E+02  0.00000000000E+00 0. -1.
         11    1    3    3    0    0 -0.24548325191E+02  0.88157658191E+01 -0.12941854333E+02  0.29117513467E+02  0.51100000000E-03 0. -1.
        -11    1    3    3    0    0 -0.81509034941E+01  0.63268123250E+01 -0.10946443372E+02  0.15042951995E+02  0.51100000000E-03 0.  1.
         12    1    3    3    0    0 -0.15353402692E+01  0.11829430654E+01 -0.41365975698E+00  0.19818522732E+01  0.00000000000E+00 0. -1.
</event>
<event>
 7    1  0.1466590E-008  0.4614232E+02  0.7816164E-02  0.1320468E+00
        -11   -1    0    0    0    0  0.00000000000E+00  0.00000000000E+00  0.45593999997E+02  0.45594000000E+02  0.51100000000E-03 0.  1.
         11   -1    0    0    0    0 -0.00000000000E+00 -0.00000000000E+00 -0.45593999997E+02  0.45594000000E+02  0.51100000000E-03 0. -1.
    9900012    2    1    2    0    0 -0.21695613341E+02 -0.12898380101E+02  0.37310126108E+02  0.46142319212E+02  0.10000013228E+02 0.  0.
         12    1    1    2    0    0  0.21695613341E+02  0.12898380101E+02 -0.37310126108E+02  0.45045680788E+02  0.00000000000E+00 0. -1.
         11    1    3    3    0    0 -0.20326946559E+02 -0.10447756977E+02  0.29643457017E+02  0.37430935420E+02  0.51100000000E-03 0.  1.
        -11    1    3    3    0    0  0.98028250050E+00 -0.66156155308E+00  0.21001628032E+01  0.24102492672E+01  0.51100000000E-03 0. -1.
        -12    1    3    3    0    0 -0.23489492827E+01 -0.17890615717E+01  0.55665062877E+01  0.63011345241E+01  0.00000000000E+00 0.  1.
</event>
<event>
 7    1  0.1466590E-008  0.4614232E+02  0.7816164E-02  0.1320468E+00
        -11   -1    0    0    0    0  0.00000000000E+00  0.00000000000E+00  0.45593999997E+02  0.45594000000E+02  0.51100000000E-03 0. -1.
         11   -1    0    0    0    0 -0.00000000000E+00 -0.00000000000E+00 -0.45593999997E+02  0.45594000000E+02  0.51100000000E-03 0.  1.
    9900012    2    1    2    0    0 -0.21899658989E+02  0.77854555799E+01 -0.38586332165E+02  0.46142318605E+02  0.10000007694E+02 0.  0.
         12    1    1    2    0    0  0.21899658989E+02 -0.77854555799E+01  0.38586332165E+02  0.45045681395E+02  0.00000000000E+00 0. -1.
         11    1    3    3    0    0 -0.61502556309E+01 -0.15801477510E+01 -0.12389263002E+02  0.13921794038E+02  0.51100000000E-03 0. -1.
        -11    1    3    3    0    0 -0.33416060754E+01  0.33570983152E+01 -0.46295067030E+01  0.66233505747E+01  0.51100000000E-03 0.  1.
        -12    1    3    3    0    0 -0.12407797283E+02  0.60085050157E+01 -0.21567562460E+02  0.25597173992E+02  0.00000000000E+00 0.  1.
</event>
<event>
 7    1  0.1466590E-008  0.4614232E+02  0.7816164E-02  0.1320468E+00
        -11   -1    0    0    0    0  0.00000000000E+00  0.00000000000E+00  0.45593999997E+02  0.45594000000E+02  0.51100000000E-03 0.  1.
         11   -1    0    0    0    0 -0.00000000000E+00 -0.00000000000E+00 -0.45593999997E+02  0.45594000000E+02  0.51100000000E-03 0. -1.
    9900012    2    1    2    0    0  0.17187299183E+02  0.91761365519E+01  0.40614146092E+02  0.46142316544E+02  0.99999889007E+01 0.  0.
         12    1    1    2    0    0 -0.17187299183E+02 -0.91761365519E+01 -0.40614146092E+02  0.45045683456E+02  0.00000000000E+00 0. -1.
         11    1    3    3    0    0 -0.15932219949E+00  0.11256913996E+01  0.25216191102E+01  0.27660672241E+01  0.51100000000E-03 0. -1.
        -11    1    3    3    0    0  0.60412166475E+01  0.45628699698E+01  0.22908647879E+02  0.24127209305E+02  0.51100000000E-03 0.  1.
        -12    1    3    3    0    0  0.11305404735E+02  0.34875751826E+01  0.15183879103E+02  0.19249040015E+02  0.00000000000E+00 0.  1.
</event>
<event>
 7    1  0.1466590E-008  0.4614232E+02  0.7816164E-02  0.1320468E+00
        -11   -1    0    0    0    0  0.00000000000E+00  0.00000000000E+00  0.45593999997E+02  0.45594000000E+02  0.51100000000E-03 0.  1.
         11   -1    0    0    0    0 -0.00000000000E+00 -0.00000000000E+00 -0.45593999997E+02  0.45594000000E+02  0.51100000000E-03 0. -1.
    9900012    2    1    2    0    0  0.20756814855E+01  0.42454052918E+02  0.14915038091E+02  0.46142318475E+02  0.10000006511E+02 0.  0.
         12    1    1    2    0    0 -0.20756814855E+01 -0.42454052918E+02 -0.14915038091E+02  0.45045681525E+02  0.00000000000E+00 0. -1.
         11    1    3    3    0    0  0.20294768602E+01  0.46146807743E+01  0.32863396676E+01  0.60178138595E+01  0.51100000000E-03 0. -1.
        -11    1    3    3    0    0 -0.47118305725E+00  0.10847290393E+01  0.16604828157E+01  0.20385911813E+01  0.51100000000E-03 0.  1.
        -12    1    3    3    0    0  0.51738768255E+00  0.36754643104E+02  0.99682156079E+01  0.38085913434E+02  0.00000000000E+00 0.  1.
</event>
<event>
 7    1  0.1466590E-008  0.4614232E+02  0.7816164E-02  0.1320468E+00
        -11   -1    0    0    0    0  0.00000000000E+00  0.00000000000E+00  0.45593999997E+02  0.45594000000E+02  0.51100000000E-03 0.  1.
         11   -1    0    0    0    0 -0.00000000000E+00 -0.00000000000E+00 -0.45593999997E+02  0.45594000000E+02  0.51100000000E-03 0. -1.
    9900012    2    1    2    0    0 -0.22011848353E+02  0.30829626217E+02  0.24374705264E+02  0.46142316774E+02  0.99999909952E+01 0.  0.
         12    1    1    2    0    0  0.22011848353E+02 -0.30829626217E+02 -0.24374705264E+02  0.45045683226E+02  0.00000000000E+00 0. -1.
         11    1    3    3    0    0 -0.40384167328E+01  0.35561844120E+01  0.47586735642E+00  0.54020095597E+01  0.51100000000E-03 0. -1.
        -11    1    3    3    0    0 -0.15815423928E+02  0.23894643446E+02  0.22698015707E+02  0.36555184813E+02  0.51100000000E-03 0.  1.
        -12    1    3    3    0    0 -0.21580076929E+01  0.33787983585E+01  0.12008222009E+01  0.41851224006E+01  0.00000000000E+00 0.  1.
</event>
<event>
 7    1  0.1466590E-008  0.4614232E+02  0.7816164E-02  0.1320468E+00
        -11   -1    0    0    0    0  0.00000000000E+00  0.00000000000E+00  0.45593999997E+02  0.45594000000E+02  0.51100000000E-03 0.  1.
         11   -1    0    0    0    0 -0.00000000000E+00 -0.00000000000E+00 -0.45593999997E+02  0.45594000000E+02  0.51100000000E-03 0. -1.
    9900012    2    1    2    0    0 -0.12598553497E+02  0.24938012925E+02  0.35333912920E+02  0.46142318286E+02  0.10000004787E+02 0.  0.
         12    1    1    2    0    0  0.12598553497E+02 -0.24938012925E+02 -0.35333912920E+02  0.45045681714E+02  0.00000000000E+00 0. -1.
         11    1    3    3    0    0 -0.20843147297E+01  0.12814251670E+02  0.13661092093E+02  0.18846083179E+02  0.51100000000E-03 0. -1.
        -11    1    3    3    0    0 -0.82784407548E+01  0.77165451797E+01  0.12395039811E+02  0.16784357688E+02  0.51100000000E-03 0.  1.
        -12    1    3    3    0    0 -0.22357980122E+01  0.44072160752E+01  0.92777810160E+01  0.10511877419E+02  0.00000000000E+00 0.  1.
</event>
<event>
 7    1  0.1466590E-008  0.4614232E+02  0.7816164E-02  0.1320468E+00
        -11   -1    0    0    0    0  0.00000000000E+00  0.00000000000E+00  0.45593999997E+02  0.45594000000E+02  0.51100000000E-03 0.  1.
         11   -1    0    0    0    0 -0.00000000000E+00 -0.00000000000E+00 -0.45593999997E+02  0.45594000000E+02  0.51100000000E-03 0. -1.
    9900012    2    1    2    0    0  0.44758448356E+02 -0.42139099529E+01 -0.28351025790E+01  0.46142317155E+02  0.99999944703E+01 0.  0.
         12    1    1    2    0    0 -0.44758448356E+02  0.42139099529E+01  0.28351025790E+01  0.45045682845E+02  0.00000000000E+00 0. -1.
         11    1    3    3    0    0  0.10168909638E+02  0.45115162004E+00  0.93232161655E+00  0.10221520673E+02  0.51100000000E-03 0. -1.
        -11    1    3    3    0    0  0.23130824498E+02 -0.16528791150E+01 -0.57892448251E+01  0.23901514748E+02  0.51100000000E-03 0.  1.
        -12    1    3    3    0    0  0.11458714221E+02 -0.30121824579E+01  0.20218206296E+01  0.12019281734E+02  0.00000000000E+00 0.  1.
</event>
<event>
 7    1  0.1466590E-008  0.4614232E+02  0.7816164E-02  0.1320468E+00
        -11   -1    0    0    0    0  0.00000000000E+00  0.00000000000E+00  0.45593999997E+02  0.45594000000E+02  0.51100000000E-03 0.  1.
         11   -1    0    0    0    0 -0.00000000000E+00 -0.00000000000E+00 -0.45593999997E+02  0.45594000000E+02  0.51100000000E-03 0. -1.
    9900012    2    1    2    0    0 -0.18804812560E+02 -0.57717109722E+01  0.40523818002E+02  0.46142318204E+02  0.10000004040E+02 0.  0.
         12    1    1    2    0    0  0.18804812560E+02  0.57717109722E+01 -0.40523818002E+02  0.45045681796E+02  0.00000000000E+00 0. -1.
         11    1    3    3    0    0 -0.52991127164E+01 -0.26738169759E+01  0.60402916336E+01  0.84684718859E+01  0.51100000000E-03 0. -1.
        -11    1    3    3    0    0 -0.13113613306E+02 -0.43129536715E+01  0.30230016604E+02  0.33232850126E+02  0.51100000000E-03 0.  1.
        -12    1    3    3    0    0 -0.39208653766E+00  0.12150596752E+01  0.42535097644E+01  0.44409961927E+01  0.00000000000E+00 0.  1.
</event>
<event>
 7    1  0.1466590E-008  0.4614233E+02  0.7816164E-02  0.1320468E+00
        -11   -1    0    0    0    0  0.00000000000E+00  0.00000000000E+00  0.45593999997E+02  0.45594000000E+02  0.51100000000E-03 0.  1.
         11   -1    0    0    0    0 -0.00000000000E+00 -0.00000000000E+00 -0.45593999997E+02  0.45594000000E+02  0.51100000000E-03 0. -1.
    9900012    2    1    2    0    0  0.18632363455E+01 -0.26033741762E+01  0.44931757884E+02  0.46142333468E+02  0.10000143223E+02 0.  0.
         12    1    1    2    0    0 -0.18632363455E+01  0.26033741762E+01 -0.44931757884E+02  0.45045666532E+02  0.00000000000E+00 0. -1.
         11    1    3    3    0    0  0.73092387761E+00  0.27968664737E+00  0.15777231518E+01  0.17611601121E+01  0.51100000000E-03 0. -1.
        -11    1    3    3    0    0  0.61661123726E+00 -0.16978546018E+01  0.11158462811E+01  0.21232128605E+01  0.51100000000E-03 0.  1.
        -12    1    3    3    0    0  0.51570123061E+00 -0.11852062218E+01  0.42238188451E+02  0.42257960495E+02  0.00000000000E+00 0.  1.
</event>
<event>
 7    1  0.1466590E-008  0.4614231E+02  0.7816164E-02  0.1320468E+00
        -11   -1    0    0    0    0  0.00000000000E+00  0.00000000000E+00  0.45593999997E+02  0.45594000000E+02  0.51100000000E-03 0.  1.
         11   -1    0    0    0    0 -0.00000000000E+00 -0.00000000000E+00 -0.45593999997E+02  0.45594000000E+02  0.51100000000E-03 0. -1.
    9900012    2    1    2    0    0 -0.19390113265E+02  0.29106128798E+02  0.28389623565E+02  0.46142312613E+02  0.99999530553E+01 0.  0.
         12    1    1    2    0    0  0.19390113265E+02 -0.29106128798E+02 -0.28389623565E+02  0.45045687387E+02  0.00000000000E+00 0. -1.
         11    1    3    3    0    0 -0.31053619594E+01  0.66793718415E+01  0.46198560824E+01  0.86948462654E+01  0.51100000000E-03 0. -1.
        -11    1    3    3    0    0 -0.92292943560E+01  0.85478224019E+01  0.15005383785E+02  0.19580773349E+02  0.51100000000E-03 0.  1.
        -12    1    3    3    0    0 -0.70554569497E+01  0.13878934554E+02  0.87643836970E+01  0.17866692999E+02  0.00000000000E+00 0.  1.
</event>
<event>
 7    1  0.1466590E-008  0.4614232E+02  0.7816164E-02  0.1320468E+00
        -11   -1    0    0    0    0  0.00000000000E+00  0.00000000000E+00  0.45593999997E+02  0.45594000000E+02  0.51100000000E-03 0.  1.
         11   -1    0    0    0    0 -0.00000000000E+00 -0.00000000000E+00 -0.45593999997E+02  0.45594000000E+02  0.51100000000E-03 0. -1.
    9900012    2    1    2    0    0  0.31198754437E+02  0.21543443271E+02  0.24323473345E+02  0.46142316722E+02  0.99999905255E+01 0.  0.
         12    1    1    2    0    0 -0.31198754437E+02 -0.21543443271E+02 -0.24323473345E+02  0.45045683278E+02  0.00000000000E+00 0. -1.
         11    1    3    3    0    0  0.11548426631E+02  0.91132994129E+01  0.14372275745E+02  0.20566494456E+02  0.51100000000E-03 0. -1.
        -11    1    3    3    0    0  0.13585459370E+02  0.86108828312E+01  0.49242636168E+01  0.16821426273E+02  0.51100000000E-03 0.  1.
        -12    1    3    3    0    0  0.60648684365E+01  0.38192610269E+01  0.50269339836E+01  0.87543959940E+01  0.00000000000E+00 0.  1.
</event>
<event>
 7    1  0.1466590E-008  0.4614232E+02  0.7816164E-02  0.1320468E+00
        -11   -1    0    0    0    0  0.00000000000E+00  0.00000000000E+00  0.45593999997E+02  0.45594000000E+02  0.51100000000E-03 0.  1.
         11   -1    0    0    0    0 -0.00000000000E+00 -0.00000000000E+00 -0.45593999997E+02  0.45594000000E+02  0.51100000000E-03 0. -1.
    9900012    2    1    2    0    0  0.32570940224E+02 -0.31103935317E+02  0.89025925866E+00  0.46142317623E+02  0.99999987386E+01 0.  0.
         12    1    1    2    0    0 -0.32570940224E+02  0.31103935317E+02 -0.89025925866E+00  0.45045682377E+02  0.00000000000E+00 0. -1.
         11    1    3    3    0    0  0.97894233446E+01 -0.73264731193E+01 -0.34157290177E+01  0.12695559175E+02  0.51100000000E-03 0. -1.
        -11    1    3    3    0    0  0.22401026740E+02 -0.23798278229E+02  0.45444849235E+01  0.32997217900E+02  0.51100000000E-03 0.  1.
         12    1    3    3    0    0  0.38049013905E+00  0.20816030924E-01 -0.23849664712E+00  0.44954054739E+00  0.00000000000E+00 0. -1.
</event>
<event>
 7    1  0.1466590E-008  0.4614232E+02  0.7816164E-02  0.1320468E+00
        -11   -1    0    0    0    0  0.00000000000E+00  0.00000000000E+00  0.45593999997E+02  0.45594000000E+02  0.51100000000E-03 0.  1.
         11   -1    0    0    0    0 -0.00000000000E+00 -0.00000000000E+00 -0.45593999997E+02  0.45594000000E+02  0.51100000000E-03 0. -1.
    9900012    2    1    2    0    0  0.17562800444E+02  0.39627728624E+02  0.12259877746E+02  0.46142318323E+02  0.10000005127E+02 0.  0.
         12    1    1    2    0    0 -0.17562800444E+02 -0.39627728624E+02 -0.12259877746E+02  0.45045681677E+02  0.00000000000E+00 0. -1.
         11    1    3    3    0    0  0.12532962626E+01  0.49114402737E+01  0.47098192215E+01  0.69192047552E+01  0.51100000000E-03 0. -1.
        -11    1    3    3    0    0  0.36783368761E+01  0.11294453719E+02  0.24292275965E+01  0.12124190445E+02  0.51100000000E-03 0.  1.
         12    1    3    3    0    0  0.12631167305E+02  0.23421834632E+02  0.51208309283E+01  0.27098923123E+02  0.00000000000E+00 0. -1.
</event>
<event>
 7    1  0.1466590E-008  0.4614232E+02  0.7816164E-02  0.1320468E+00
        -11   -1    0    0    0    0  0.00000000000E+00  0.00000000000E+00  0.45593999997E+02  0.45594000000E+02  0.51100000000E-03 0.  1.
         11   -1    0    0    0    0 -0.00000000000E+00 -0.00000000000E+00 -0.45593999997E+02  0.45594000000E+02  0.51100000000E-03 0. -1.
    9900012    2    1    2    0    0 -0.18956647168E+02  0.29241052509E+02  0.28543298269E+02  0.46142317635E+02  0.99999988461E+01 0.  0.
         12    1    1    2    0    0  0.18956647168E+02 -0.29241052509E+02 -0.28543298269E+02  0.45045682365E+02  0.00000000000E+00 0. -1.
         11    1    3    3    0    0  0.44160299302E+00  0.10892488688E+01  0.20473114088E+01  0.23607118773E+01  0.51100000000E-03 0. -1.
        -11    1    3    3    0    0 -0.13758176241E+02  0.14066813452E+02  0.14586438429E+02  0.24493404019E+02  0.51100000000E-03 0.  1.
        -12    1    3    3    0    0 -0.56400739198E+01  0.14084990189E+02  0.11909548431E+02  0.19288201738E+02  0.00000000000E+00 0.  1.
</event>
<event>
 7    1  0.1466590E-008  0.4614232E+02  0.7816164E-02  0.1320468E+00
        -11   -1    0    0    0    0  0.00000000000E+00  0.00000000000E+00  0.45593999997E+02  0.45594000000E+02  0.51100000000E-03 0. -1.
         11   -1    0    0    0    0 -0.00000000000E+00 -0.00000000000E+00 -0.45593999997E+02  0.45594000000E+02  0.51100000000E-03 0.  1.
    9900012    2    1    2    0    0  0.37790468634E+02  0.44165212819E+01 -0.24114073207E+02  0.46142315340E+02  0.99999779245E+01 0.  0.
         12    1    1    2    0    0 -0.37790468634E+02 -0.44165212819E+01  0.24114073207E+02  0.45045684660E+02  0.00000000000E+00 0. -1.
         11    1    3    3    0    0  0.10280524197E+02  0.22630142141E+01 -0.73257898279E+01  0.12824882377E+02  0.51100000000E-03 0. -1.
        -11    1    3    3    0    0  0.23977754927E+02 -0.26311924142E+00 -0.16333568186E+02  0.29013572910E+02  0.51100000000E-03 0.  1.
         12    1    3    3    0    0  0.35321895099E+01  0.24166263092E+01 -0.45471519299E+00  0.43038600534E+01  0.00000000000E+00 0. -1.
</event>
<event>
 7    1  0.1466590E-008  0.4614232E+02  0.7816164E-02  0.1320468E+00
        -11   -1    0    0    0    0  0.00000000000E+00  0.00000000000E+00  0.45593999997E+02  0.45594000000E+02  0.51100000000E-03 0.  1.
         11   -1    0    0    0    0 -0.00000000000E+00 -0.00000000000E+00 -0.45593999997E+02  0.45594000000E+02  0.51100000000E-03 0. -1.
    9900012    2    1    2    0    0 -0.25645427519E+02 -0.25662141624E+02  0.26699812270E+02  0.46142318291E+02  0.10000004836E+02 0.  0.
         12    1    1    2    0    0  0.25645427519E+02  0.25662141624E+02 -0.26699812270E+02  0.45045681709E+02  0.00000000000E+00 0. -1.
         11    1    3    3    0    0 -0.14808447218E+01 -0.15741325046E+01  0.46419231153E+01  0.51203754454E+01  0.51100000000E-03 0. -1.
        -11    1    3    3    0    0 -0.46318698841E+01 -0.24698468379E+01  0.50584226881E+01  0.72898561288E+01  0.51100000000E-03 0.  1.
         12    1    3    3    0    0 -0.19532712913E+02 -0.21618162282E+02  0.16999466466E+02  0.33732086717E+02  0.00000000000E+00 0. -1.
</event>
<event>
 7    1  0.1466590E-008  0.4614232E+02  0.7816164E-02  0.1320468E+00
        -11   -1    0    0    0    0  0.00000000000E+00  0.00000000000E+00  0.45593999997E+02  0.45594000000E+02  0.51100000000E-03 0. -1.
         11   -1    0    0    0    0 -0.00000000000E+00 -0.00000000000E+00 -0.45593999997E+02  0.45594000000E+02  0.51100000000E-03 0.  1.
    9900012    2    1    2    0    0 -0.52309765064E+01 -0.31828021332E+02 -0.31444036462E+02  0.46142317786E+02  0.10000000225E+02 0.  0.
         12    1    1    2    0    0  0.52309765064E+01  0.31828021332E+02  0.31444036462E+02  0.45045682214E+02  0.00000000000E+00 0. -1.
         11    1    3    3    0    0 -0.74403040295E+01 -0.26376797890E+02 -0.24697818610E+02  0.36892761286E+02  0.51100000000E-03 0. -1.
        -11    1    3    3    0    0  0.18960020779E+01 -0.55863048643E+01 -0.59286329196E+01  0.83636304600E+01  0.51100000000E-03 0.  1.
         12    1    3    3    0    0  0.31332544520E+00  0.13508142245E+00 -0.81758493271E+00  0.88592603952E+00  0.00000000000E+00 0. -1.
</event>
<event>
 7    1  0.1466590E-008  0.4614232E+02  0.7816164E-02  0.1320468E+00
        -11   -1    0    0    0    0  0.00000000000E+00  0.00000000000E+00  0.45593999997E+02  0.45594000000E+02  0.51100000000E-03 0.  1.
         11   -1    0    0    0    0 -0.00000000000E+00 -0.00000000000E+00 -0.45593999997E+02  0.45594000000E+02  0.51100000000E-03 0. -1.
    9900012    2    1    2    0    0 -0.23675446627E+02 -0.34415339281E+02  0.16857377104E+02  0.46142317481E+02  0.99999974423E+01 0.  0.
         12    1    1    2    0    0  0.23675446627E+02  0.34415339281E+02 -0.16857377104E+02  0.45045682519E+02  0.00000000000E+00 0. -1.
         11    1    3    3    0    0 -0.43660516769E+01 -0.32655540288E+01  0.43330859555E+01  0.69643294379E+01  0.51100000000E-03 0. -1.
        -11    1    3    3    0    0 -0.17842193506E+02 -0.30416798081E+02  0.11001466307E+02  0.36939920624E+02  0.51100000000E-03 0.  1.
        -12    1    3    3    0    0 -0.14672014443E+01 -0.73298717175E+00  0.15228248412E+01  0.22380674183E+01  0.00000000000E+00 0.  1.
</event>
<event>
 7    1  0.1466590E-008  0.4614232E+02  0.7816164E-02  0.1320468E+00
        -11   -1    0    0    0    0  0.00000000000E+00  0.00000000000E+00  0.45593999997E+02  0.45594000000E+02  0.51100000000E-03 0.  1.
         11   -1    0    0    0    0 -0.00000000000E+00 -0.00000000000E+00 -0.45593999997E+02  0.45594000000E+02  0.51100000000E-03 0. -1.
    9900012    2    1    2    0    0  0.20903294642E+02  0.23784917337E+02  0.32038156189E+02  0.46142317947E+02  0.10000001699E+02 0.  0.
         12    1    1    2    0    0 -0.20903294642E+02 -0.23784917337E+02 -0.32038156189E+02  0.45045682053E+02  0.00000000000E+00 0. -1.
         11    1    3    3    0    0  0.34542126109E+01  0.73493237289E+01  0.11600809469E+02  0.14160611732E+02  0.51100000000E-03 0. -1.
        -11    1    3    3    0    0  0.86677765298E+01  0.11506222080E+02  0.13587425694E+02  0.19802566343E+02  0.51100000000E-03 0.  1.
         12    1    3    3    0    0  0.87813055009E+01  0.49293715287E+01  0.68499210255E+01  0.12179139872E+02  0.00000000000E+00 0. -1.
</event>
<event>
 7    1  0.1466590E-008  0.4614232E+02  0.7816164E-02  0.1320468E+00
        -11   -1    0    0    0    0  0.00000000000E+00  0.00000000000E+00  0.45593999997E+02  0.45594000000E+02  0.51100000000E-03 0.  1.
         11   -1    0    0    0    0 -0.00000000000E+00 -0.00000000000E+00 -0.45593999997E+02  0.45594000000E+02  0.51100000000E-03 0. -1.
    9900012    2    1    2    0    0  0.17357080633E+02 -0.40661020976E+02  0.86328820062E+01  0.46142317336E+02  0.99999961227E+01 0.  0.
         12    1    1    2    0    0 -0.17357080633E+02  0.40661020976E+02 -0.86328820062E+01  0.45045682664E+02  0.00000000000E+00 0. -1.
         11    1    3    3    0    0  0.35412306043E+00 -0.70977552138E+01  0.30625784700E+01  0.77384054793E+01  0.51100000000E-03 0. -1.
        -11    1    3    3    0    0  0.49125817613E+01 -0.15292073989E+02  0.30692104461E+01  0.16352401643E+02  0.51100000000E-03 0.  1.
         12    1    3    3    0    0  0.12090375811E+02 -0.18271191773E+02  0.25010930900E+01  0.22051510214E+02  0.00000000000E+00 0. -1.
</event>
<event>
 7    1  0.1466590E-008  0.4614232E+02  0.7816164E-02  0.1320468E+00
        -11   -1    0    0    0    0  0.00000000000E+00  0.00000000000E+00  0.45593999997E+02  0.45594000000E+02  0.51100000000E-03 0.  1.
         11   -1    0    0    0    0 -0.00000000000E+00 -0.00000000000E+00 -0.45593999997E+02  0.45594000000E+02  0.51100000000E-03 0. -1.
    9900012    2    1    2    0    0  0.35033722600E+02 -0.11430150014E+02  0.25905662203E+02  0.46142318934E+02  0.10000010692E+02 0.  0.
         12    1    1    2    0    0 -0.35033722600E+02  0.11430150014E+02 -0.25905662203E+02  0.45045681066E+02  0.00000000000E+00 0. -1.
         11    1    3    3    0    0  0.38180129987E+00 -0.12481076137E+01 -0.35439626408E+00  0.13524576966E+01  0.51100000000E-03 0. -1.
        -11    1    3    3    0    0  0.46054487409E+01 -0.24196505342E+01  0.46108799717E+01  0.69516243560E+01  0.51100000000E-03 0.  1.
         12    1    3    3    0    0  0.30046472560E+02 -0.77623918663E+01  0.21649178495E+02  0.37838236881E+02  0.00000000000E+00 0. -1.
</event>
<event>
 7    1  0.1466590E-008  0.4614232E+02  0.7816164E-02  0.1320468E+00
        -11   -1    0    0    0    0  0.00000000000E+00  0.00000000000E+00  0.45593999997E+02  0.45594000000E+02  0.51100000000E-03 0.  1.
         11   -1    0    0    0    0 -0.00000000000E+00 -0.00000000000E+00 -0.45593999997E+02  0.45594000000E+02  0.51100000000E-03 0. -1.
    9900012    2    1    2    0    0 -0.41278645363E+01 -0.32753049784E+02  0.30648199504E+02  0.46142315760E+02  0.99999817522E+01 0.  0.
         12    1    1    2    0    0  0.41278645363E+01  0.32753049784E+02 -0.30648199504E+02  0.45045684240E+02  0.00000000000E+00 0. -1.
         11    1    3    3    0    0  0.60318590166E+00 -0.39418549637E+00 -0.47719063254E+00  0.86424915297E+00  0.51100000000E-03 0. -1.
        -11    1    3    3    0    0 -0.52332046759E+01 -0.30373808287E+02  0.28850076183E+02  0.42217076605E+02  0.51100000000E-03 0.  1.
         12    1    3    3    0    0  0.50215423796E+00 -0.19850560012E+01  0.22753139536E+01  0.30609900022E+01  0.00000000000E+00 0. -1.
</event>
<event>
 7    1  0.1466590E-008  0.4614232E+02  0.7816164E-02  0.1320468E+00
        -11   -1    0    0    0    0  0.00000000000E+00  0.00000000000E+00  0.45593999997E+02  0.45594000000E+02  0.51100000000E-03 0.  1.
         11   -1    0    0    0    0 -0.00000000000E+00 -0.00000000000E+00 -0.45593999997E+02  0.45594000000E+02  0.51100000000E-03 0. -1.
    9900012    2    1    2    0    0  0.24867938704E+02  0.35474384135E+02  0.12339660020E+02  0.46142317471E+02  0.99999973504E+01 0.  0.
         12    1    1    2    0    0 -0.24867938704E+02 -0.35474384135E+02 -0.12339660020E+02  0.45045682529E+02  0.00000000000E+00 0. -1.
         11    1    3    3    0    0 -0.45191351905E+00  0.49739962738E+00 -0.56165463316E+00  0.87583583284E+00  0.51100000000E-03 0. -1.
        -11    1    3    3    0    0  0.12817816474E+02  0.19649921182E+02  0.51297967742E+01  0.24015216777E+02  0.51100000000E-03 0.  1.
         12    1    3    3    0    0  0.12502035749E+02  0.15327063326E+02  0.77715178794E+01  0.21251264861E+02  0.00000000000E+00 0. -1.
</event>
<event>
 7    1  0.1466590E-008  0.4614232E+02  0.7816164E-02  0.1320468E+00
        -11   -1    0    0    0    0  0.00000000000E+00  0.00000000000E+00  0.45593999997E+02  0.45594000000E+02  0.51100000000E-03 0.  1.
         11   -1    0    0    0    0 -0.00000000000E+00 -0.00000000000E+00 -0.45593999997E+02  0.45594000000E+02  0.51100000000E-03 0. -1.
    9900012    2    1    2    0    0 -0.33084960382E+02 -0.29045865913E+02  0.95308190192E+01  0.46142318283E+02  0.10000004760E+02 0.  0.
         12    1    1    2    0    0  0.33084960382E+02  0.29045865913E+02 -0.95308190192E+01  0.45045681717E+02  0.00000000000E+00 0. -1.
         11    1    3    3    0    0 -0.27674079486E+01 -0.36842098461E+01  0.39856130396E+01  0.60923772460E+01  0.51100000000E-03 0. -1.
        -11    1    3    3    0    0 -0.21553739449E+02 -0.19897678039E+02  0.38987795215E+01  0.29591920478E+02  0.51100000000E-03 0.  1.
         12    1    3    3    0    0 -0.87638129850E+01 -0.54639780281E+01  0.16464264580E+01  0.10458020559E+02  0.00000000000E+00 0. -1.
</event>
<event>
 7    1  0.1466590E-008  0.4614232E+02  0.7816164E-02  0.1320468E+00
        -11   -1    0    0    0    0  0.00000000000E+00  0.00000000000E+00  0.45593999997E+02  0.45594000000E+02  0.51100000000E-03 0.  1.
         11   -1    0    0    0    0 -0.00000000000E+00 -0.00000000000E+00 -0.45593999997E+02  0.45594000000E+02  0.51100000000E-03 0. -1.
    9900012    2    1    2    0    0 -0.26437817630E+02 -0.33909505151E+02  0.13427611115E+02  0.46142317844E+02  0.10000000760E+02 0.  0.
         12    1    1    2    0    0  0.26437817630E+02  0.33909505151E+02 -0.13427611115E+02  0.45045682156E+02  0.00000000000E+00 0. -1.
         11    1    3    3    0    0 -0.61780376169E+01 -0.10011439053E+02 -0.62187636310E+00  0.11780653258E+02  0.51100000000E-03 0. -1.
        -11    1    3    3    0    0 -0.89240726919E+01 -0.11548020694E+02  0.64950157548E+01  0.15974388416E+02  0.51100000000E-03 0.  1.
         12    1    3    3    0    0 -0.11335707321E+02 -0.12350045405E+02  0.75544717235E+01  0.18387276171E+02  0.00000000000E+00 0. -1.
</event>
<event>
 7    1  0.1466590E-008  0.4614232E+02  0.7816164E-02  0.1320468E+00
        -11   -1    0    0    0    0  0.00000000000E+00  0.00000000000E+00  0.45593999997E+02  0.45594000000E+02  0.51100000000E-03 0.  1.
         11   -1    0    0    0    0 -0.00000000000E+00 -0.00000000000E+00 -0.45593999997E+02  0.45594000000E+02  0.51100000000E-03 0. -1.
    9900012    2    1    2    0    0 -0.36462558863E+02  0.23790549995E+01  0.26342656374E+02  0.46142316007E+02  0.99999840074E+01 0.  0.
         12    1    1    2    0    0  0.36462558863E+02 -0.23790549995E+01 -0.26342656374E+02  0.45045683993E+02  0.00000000000E+00 0. -1.
         11    1    3    3    0    0 -0.27252765760E+01  0.16821065453E+01  0.44939064724E+01  0.55183159106E+01  0.51100000000E-03 0. -1.
        -11    1    3    3    0    0 -0.78338077617E+01 -0.13387846803E+01  0.75704329620E+01  0.10975989430E+02  0.51100000000E-03 0.  1.
        -12    1    3    3    0    0 -0.25903474526E+02  0.20357331345E+01  0.14278316939E+02  0.29648010667E+02  0.00000000000E+00 0.  1.
</event>
<event>
 7    1  0.1466590E-008  0.4614232E+02  0.7816164E-02  0.1320468E+00
        -11   -1    0    0    0    0  0.00000000000E+00  0.00000000000E+00  0.45593999997E+02  0.45594000000E+02  0.51100000000E-03 0.  1.
         11   -1    0    0    0    0 -0.00000000000E+00 -0.00000000000E+00 -0.45593999997E+02  0.45594000000E+02  0.51100000000E-03 0. -1.
    9900012    2    1    2    0    0 -0.39752422823E+02 -0.13408604304E+02  0.16403282864E+02  0.46142317871E+02  0.10000001005E+02 0.  0.
         12    1    1    2    0    0  0.39752422823E+02  0.13408604304E+02 -0.16403282864E+02  0.45045682129E+02  0.00000000000E+00 0. -1.
         11    1    3    3    0    0 -0.75767765533E+01 -0.38068451670E+01 -0.58764109629E-01  0.84795675919E+01  0.51100000000E-03 0. -1.
        -11    1    3    3    0    0 -0.23587402171E+02 -0.49432566308E+01  0.11986438357E+02  0.26916092436E+02  0.51100000000E-03 0.  1.
        -12    1    3    3    0    0 -0.85882440996E+01 -0.46585025063E+01  0.44756086170E+01  0.10746657844E+02  0.00000000000E+00 0.  1.
</event>
<event>
 7    1  0.1466590E-008  0.4614232E+02  0.7816164E-02  0.1320468E+00
        -11   -1    0    0    0    0  0.00000000000E+00  0.00000000000E+00  0.45593999997E+02  0.45594000000E+02  0.51100000000E-03 0.  1.
         11   -1    0    0    0    0 -0.00000000000E+00 -0.00000000000E+00 -0.45593999997E+02  0.45594000000E+02  0.51100000000E-03 0. -1.
    9900012    2    1    2    0    0 -0.40009020370E+02 -0.19379831350E+02 -0.72673173886E+01  0.46142317897E+02  0.10000001236E+02 0.  0.
         12    1    1    2    0    0  0.40009020370E+02  0.19379831350E+02  0.72673173886E+01  0.45045682103E+02  0.00000000000E+00 0. -1.
         11    1    3    3    0    0 -0.10713965613E+02 -0.82842305831E+01  0.14293368487E+01  0.13618389758E+02  0.51100000000E-03 0.  1.
        -11    1    3    3    0    0 -0.24709544048E+02 -0.90069116199E+01 -0.73902346087E+01  0.27318521040E+02  0.51100000000E-03 0. -1.
        -12    1    3    3    0    0 -0.45855107088E+01 -0.20886891468E+01 -0.13064196286E+01  0.52054070983E+01  0.00000000000E+00 0.  1.
</event>
<event>
 7    1  0.1466590E-008  0.4614232E+02  0.7816164E-02  0.1320468E+00
        -11   -1    0    0    0    0  0.00000000000E+00  0.00000000000E+00  0.45593999997E+02  0.45594000000E+02  0.51100000000E-03 0.  1.
         11   -1    0    0    0    0 -0.00000000000E+00 -0.00000000000E+00 -0.45593999997E+02  0.45594000000E+02  0.51100000000E-03 0. -1.
    9900012    2    1    2    0    0 -0.14179883857E+02  0.42375428424E+02  0.56892369614E+01  0.46142318104E+02  0.10000003125E+02 0.  0.
         12    1    1    2    0    0  0.14179883857E+02 -0.42375428424E+02 -0.56892369614E+01  0.45045681896E+02  0.00000000000E+00 0. -1.
         11    1    3    3    0    0 -0.32706666401E+01  0.41662963514E+01  0.63925946204E+00  0.53351605861E+01  0.51100000000E-03 0. -1.
        -11    1    3    3    0    0 -0.20326773412E+01  0.11479828282E+02  0.48890312185E+01  0.12642027570E+02  0.51100000000E-03 0.  1.
        -12    1    3    3    0    0 -0.88765398762E+01  0.26729303790E+02  0.16094628091E+00  0.28165129948E+02  0.00000000000E+00 0.  1.
</event>
<event>
 7    1  0.1466590E-008  0.4614232E+02  0.7816164E-02  0.1320468E+00
        -11   -1    0    0    0    0  0.00000000000E+00  0.00000000000E+00  0.45593999997E+02  0.45594000000E+02  0.51100000000E-03 0. -1.
         11   -1    0    0    0    0 -0.00000000000E+00 -0.00000000000E+00 -0.45593999997E+02  0.45594000000E+02  0.51100000000E-03 0.  1.
    9900012    2    1    2    0    0  0.13051500146E+02 -0.35759008504E+02 -0.24084533529E+02  0.46142322066E+02  0.10000039257E+02 0.  0.
         12    1    1    2    0    0 -0.13051500146E+02  0.35759008504E+02  0.24084533529E+02  0.45045677934E+02  0.00000000000E+00 0. -1.
         11    1    3    3    0    0 -0.14264059301E+01 -0.19558536149E+01 -0.21365963417E+01  0.32287832737E+01  0.51100000000E-03 0. -1.
        -11    1    3    3    0    0  0.61934528712E+01 -0.11244146514E+02 -0.72404989982E+01  0.14738199188E+02  0.51100000000E-03 0.  1.
         12    1    3    3    0    0  0.82844532048E+01 -0.22559008375E+02 -0.14707438189E+02  0.28175339604E+02  0.00000000000E+00 0. -1.
</event>
<event>
 7    1  0.1466590E-008  0.4614232E+02  0.7816164E-02  0.1320468E+00
        -11   -1    0    0    0    0  0.00000000000E+00  0.00000000000E+00  0.45593999997E+02  0.45594000000E+02  0.51100000000E-03 0. -1.
         11   -1    0    0    0    0 -0.00000000000E+00 -0.00000000000E+00 -0.45593999997E+02  0.45594000000E+02  0.51100000000E-03 0.  1.
    9900012    2    1    2    0    0 -0.35425834330E+02  0.22940868081E+02  0.15742946213E+02  0.46142317391E+02  0.99999966222E+01 0.  0.
         12    1    1    2    0    0  0.35425834330E+02 -0.22940868081E+02 -0.15742946213E+02  0.45045682609E+02  0.00000000000E+00 0. -1.
         11    1    3    3    0    0 -0.13007191294E+02  0.37292824635E+01  0.33433237470E+01  0.13938162970E+02  0.51100000000E-03 0. -1.
        -11    1    3    3    0    0 -0.13210955911E+02  0.10577059794E+02  0.53651966244E+01  0.17753559785E+02  0.51100000000E-03 0.  1.
         12    1    3    3    0    0 -0.92076871252E+01  0.86345258230E+01  0.70344258421E+01  0.14450594635E+02  0.00000000000E+00 0. -1.
</event>
<event>
 7    1  0.1466590E-008  0.4614232E+02  0.7816164E-02  0.1320468E+00
        -11   -1    0    0    0    0  0.00000000000E+00  0.00000000000E+00  0.45593999997E+02  0.45594000000E+02  0.51100000000E-03 0. -1.
         11   -1    0    0    0    0 -0.00000000000E+00 -0.00000000000E+00 -0.45593999997E+02  0.45594000000E+02  0.51100000000E-03 0.  1.
    9900012    2    1    2    0    0  0.41837079950E+02  0.84636470609E+01  0.14392322542E+02  0.46142317317E+02  0.99999959464E+01 0.  0.
         12    1    1    2    0    0 -0.41837079950E+02 -0.84636470609E+01 -0.14392322542E+02  0.45045682683E+02  0.00000000000E+00 0. -1.
         11    1    3    3    0    0  0.10257117131E+02  0.32905457584E+01  0.38616799394E+00  0.10778927090E+02  0.51100000000E-03 0. -1.
        -11    1    3    3    0    0  0.15181232552E+02  0.52325672615E+01  0.74659281393E+01  0.17708463095E+02  0.51100000000E-03 0.  1.
         12    1    3    3    0    0  0.16398730266E+02 -0.59465959037E-01  0.65402264085E+01  0.17654927131E+02  0.00000000000E+00 0. -1.
</event>
<event>
 7    1  0.1466590E-008  0.4614232E+02  0.7816164E-02  0.1320468E+00
        -11   -1    0    0    0    0  0.00000000000E+00  0.00000000000E+00  0.45593999997E+02  0.45594000000E+02  0.51100000000E-03 0.  1.
         11   -1    0    0    0    0 -0.00000000000E+00 -0.00000000000E+00 -0.45593999997E+02  0.45594000000E+02  0.51100000000E-03 0. -1.
    9900012    2    1    2    0    0  0.56057735901E+01  0.38415668218E+02  0.22845683383E+02  0.46142317505E+02  0.99999976650E+01 0.  0.
         12    1    1    2    0    0 -0.56057735901E+01 -0.38415668218E+02 -0.22845683383E+02  0.45045682495E+02  0.00000000000E+00 0. -1.
         11    1    3    3    0    0 -0.77768111348E+00  0.74726342348E-01  0.54275059009E+00  0.95128881244E+00  0.51100000000E-03 0. -1.
        -11    1    3    3    0    0  0.53244303146E+01  0.34263177004E+02  0.21775925626E+02  0.40945155925E+02  0.51100000000E-03 0.  1.
         12    1    3    3    0    0  0.10590243890E+01  0.40777648716E+01  0.52700716721E+00  0.42458727676E+01  0.00000000000E+00 0. -1.
</event>
<event>
 7    1  0.1466590E-008  0.4614232E+02  0.7816164E-02  0.1320468E+00
        -11   -1    0    0    0    0  0.00000000000E+00  0.00000000000E+00  0.45593999997E+02  0.45594000000E+02  0.51100000000E-03 0.  1.
         11   -1    0    0    0    0 -0.00000000000E+00 -0.00000000000E+00 -0.45593999997E+02  0.45594000000E+02  0.51100000000E-03 0. -1.
    9900012    2    1    2    0    0  0.37402479377E+02  0.68110244671E+01  0.24161496078E+02  0.46142318624E+02  0.10000007872E+02 0.  0.
         12    1    1    2    0    0 -0.37402479377E+02 -0.68110244671E+01 -0.24161496078E+02  0.45045681376E+02  0.00000000000E+00 0. -1.
         11    1    3    3    0    0  0.45153922357E+01  0.36125748949E+01  0.49966149853E+01  0.76423573580E+01  0.51100000000E-03 0. -1.
        -11    1    3    3    0    0  0.25308304719E+02  0.38299573013E+01  0.16441173105E+02  0.30421884130E+02  0.51100000000E-03 0.  1.
        -12    1    3    3    0    0  0.75787824227E+01 -0.63150772913E+00  0.27237079876E+01  0.80780771366E+01  0.00000000000E+00 0.  1.
</event>
<event>
 7    1  0.1466590E-008  0.4614232E+02  0.7816164E-02  0.1320468E+00
        -11   -1    0    0    0    0  0.00000000000E+00  0.00000000000E+00  0.45593999997E+02  0.45594000000E+02  0.51100000000E-03 0.  1.
         11   -1    0    0    0    0 -0.00000000000E+00 -0.00000000000E+00 -0.45593999997E+02  0.45594000000E+02  0.51100000000E-03 0. -1.
    9900012    2    1    2    0    0  0.12955737845E+01  0.22825673312E+02  0.38812672768E+02  0.46142318288E+02  0.10000004801E+02 0.  0.
         12    1    1    2    0    0 -0.12955737845E+01 -0.22825673312E+02 -0.38812672768E+02  0.45045681712E+02  0.00000000000E+00 0. -1.
         11    1    3    3    0    0  0.15416559747E+01  0.20777980081E+02  0.27219400813E+02  0.34278228372E+02  0.51100000000E-03 0. -1.
        -11    1    3    3    0    0  0.28074697822E+00  0.29765819015E+00  0.51615974219E+01  0.51777898248E+01  0.51100000000E-03 0.  1.
         12    1    3    3    0    0 -0.52682916840E+00  0.17500350403E+01  0.64316745326E+01  0.66863000911E+01  0.00000000000E+00 0. -1.
</event>
<event>
 7    1  0.1466590E-008  0.4614232E+02  0.7816164E-02  0.1320468E+00
        -11   -1    0    0    0    0  0.00000000000E+00  0.00000000000E+00  0.45593999997E+02  0.45594000000E+02  0.51100000000E-03 0.  1.
         11   -1    0    0    0    0 -0.00000000000E+00 -0.00000000000E+00 -0.45593999997E+02  0.45594000000E+02  0.51100000000E-03 0. -1.
    9900012    2    1    2    0    0 -0.40302175747E+02  0.10788694538E+02  0.16983880293E+02  0.46142317748E+02  0.99999998779E+01 0.  0.
         12    1    1    2    0    0  0.40302175747E+02 -0.10788694538E+02 -0.16983880293E+02  0.45045682252E+02  0.00000000000E+00 0. -1.
         11    1    3    3    0    0 -0.15811038565E+01 -0.25651199841E+00  0.16683024356E+01  0.23127734624E+01  0.51100000000E-03 0.  1.
        -11    1    3    3    0    0 -0.48803618684E+01  0.34899729503E+01  0.19711557195E+00  0.60030573853E+01  0.51100000000E-03 0. -1.
        -12    1    3    3    0    0 -0.33840710022E+02  0.75552335865E+01  0.15118462285E+02  0.37826486900E+02  0.00000000000E+00 0.  1.
</event>
<event>
 7    1  0.1466590E-008  0.4614232E+02  0.7816164E-02  0.1320468E+00
        -11   -1    0    0    0    0  0.00000000000E+00  0.00000000000E+00  0.45593999997E+02  0.45594000000E+02  0.51100000000E-03 0.  1.
         11   -1    0    0    0    0 -0.00000000000E+00 -0.00000000000E+00 -0.45593999997E+02  0.45594000000E+02  0.51100000000E-03 0. -1.
    9900012    2    1    2    0    0 -0.42668835552E+02  0.11746842050E+02  0.83961696634E+01  0.46142317737E+02  0.99999997810E+01 0.  0.
         12    1    1    2    0    0  0.42668835552E+02 -0.11746842050E+02 -0.83961696634E+01  0.45045682263E+02  0.00000000000E+00 0. -1.
         11    1    3    3    0    0 -0.25560140351E+02  0.52677790856E+01  0.61074854881E+01  0.26802456053E+02  0.51100000000E-03 0.  1.
        -11    1    3    3    0    0 -0.78097196051E+01  0.55840155659E+01  0.27492707076E+01  0.99865629641E+01  0.51100000000E-03 0. -1.
         12    1    3    3    0    0 -0.92989755962E+01  0.89504739824E+00 -0.46058653231E+00  0.93532987196E+01  0.00000000000E+00 0. -1.
</event>
<event>
 7    1  0.1466590E-008  0.4614232E+02  0.7816164E-02  0.1320468E+00
        -11   -1    0    0    0    0  0.00000000000E+00  0.00000000000E+00  0.45593999997E+02  0.45594000000E+02  0.51100000000E-03 0.  1.
         11   -1    0    0    0    0 -0.00000000000E+00 -0.00000000000E+00 -0.45593999997E+02  0.45594000000E+02  0.51100000000E-03 0. -1.
    9900012    2    1    2    0    0 -0.26867275090E+02 -0.32527726643E+02  0.15786387049E+02  0.46142317772E+02  0.10000000097E+02 0.  0.
         12    1    1    2    0    0  0.26867275090E+02  0.32527726643E+02 -0.15786387049E+02  0.45045682228E+02  0.00000000000E+00 0. -1.
         11    1    3    3    0    0 -0.80214324523E+01 -0.39834246813E+01  0.26396807747E+01  0.93369676893E+01  0.51100000000E-03 0. -1.
        -11    1    3    3    0    0 -0.65273655766E+01 -0.96115246703E+01  0.62256343624E+01  0.13181290959E+02  0.51100000000E-03 0.  1.
         12    1    3    3    0    0 -0.12318477061E+02 -0.18932777292E+02  0.69210719117E+01  0.23624059124E+02  0.00000000000E+00 0. -1.
</event>
<event>
 7    1  0.1466590E-008  0.4614232E+02  0.7816164E-02  0.1320468E+00
        -11   -1    0    0    0    0  0.00000000000E+00  0.00000000000E+00  0.45593999997E+02  0.45594000000E+02  0.51100000000E-03 0.  1.
         11   -1    0    0    0    0 -0.00000000000E+00 -0.00000000000E+00 -0.45593999997E+02  0.45594000000E+02  0.51100000000E-03 0. -1.
    9900012    2    1    2    0    0 -0.39650586582E+02 -0.17308692547E+02 -0.12544056197E+02  0.46142320963E+02  0.10000029199E+02 0.  0.
         12    1    1    2    0    0  0.39650586582E+02  0.17308692547E+02  0.12544056197E+02  0.45045679037E+02  0.00000000000E+00 0. -1.
         11    1    3    3    0    0 -0.12327838705E+02 -0.62784648351E+01 -0.64890429538E+01  0.15280785534E+02  0.51100000000E-03 0. -1.
        -11    1    3    3    0    0 -0.15496527286E+02 -0.90028200575E+01 -0.13477644818E+01  0.17972467729E+02  0.51100000000E-03 0.  1.
        -12    1    3    3    0    0 -0.11826220591E+02 -0.20274076543E+01 -0.47072487615E+01  0.12889067700E+02  0.00000000000E+00 0.  1.
</event>
<event>
 7    1  0.1466590E-008  0.4614232E+02  0.7816164E-02  0.1320468E+00
        -11   -1    0    0    0    0  0.00000000000E+00  0.00000000000E+00  0.45593999997E+02  0.45594000000E+02  0.51100000000E-03 0. -1.
         11   -1    0    0    0    0 -0.00000000000E+00 -0.00000000000E+00 -0.45593999997E+02  0.45594000000E+02  0.51100000000E-03 0.  1.
    9900012    2    1    2    0    0  0.43153807942E+02  0.20330837307E+01 -0.12756523408E+02  0.46142318089E+02  0.10000002994E+02 0.  0.
         12    1    1    2    0    0 -0.43153807942E+02 -0.20330837307E+01  0.12756523408E+02  0.45045681911E+02  0.00000000000E+00 0. -1.
         11    1    3    3    0    0  0.23490141990E+01 -0.20345916035E+01 -0.83679847814E+00  0.32183322784E+01  0.51100000000E-03 0. -1.
        -11    1    3    3    0    0  0.33109093097E+02  0.21865959711E+01 -0.10956623203E+02  0.34943394797E+02  0.51100000000E-03 0.  1.
         12    1    3    3    0    0  0.76957006453E+01  0.18810793632E+01 -0.96310172682E+00  0.79805910138E+01  0.00000000000E+00 0. -1.
</event>
<event>
 7    1  0.1466590E-008  0.4614232E+02  0.7816164E-02  0.1320468E+00
        -11   -1    0    0    0    0  0.00000000000E+00  0.00000000000E+00  0.45593999997E+02  0.45594000000E+02  0.51100000000E-03 0.  1.
         11   -1    0    0    0    0 -0.00000000000E+00 -0.00000000000E+00 -0.45593999997E+02  0.45594000000E+02  0.51100000000E-03 0. -1.
    9900012    2    1    2    0    0 -0.27725230470E+02 -0.35487306366E+02  0.10372855168E+01  0.46142320085E+02  0.10000021192E+02 0.  0.
         12    1    1    2    0    0  0.27725230470E+02  0.35487306366E+02 -0.10372855168E+01  0.45045679915E+02  0.00000000000E+00 0. -1.
         11    1    3    3    0    0 -0.26446111199E+01 -0.94002327633E+01 -0.64904954649E+00  0.97867057560E+01  0.51100000000E-03 0. -1.
        -11    1    3    3    0    0 -0.22291304379E+02 -0.22820584011E+02  0.52263918494E+00  0.31905398564E+02  0.51100000000E-03 0.  1.
        -12    1    3    3    0    0 -0.27893149709E+01 -0.32664895917E+01  0.11636958784E+01  0.44502157653E+01  0.00000000000E+00 0.  1.
</event>
<event>
 7    1  0.1466590E-008  0.4614232E+02  0.7816164E-02  0.1320468E+00
        -11   -1    0    0    0    0  0.00000000000E+00  0.00000000000E+00  0.45593999997E+02  0.45594000000E+02  0.51100000000E-03 0. -1.
         11   -1    0    0    0    0 -0.00000000000E+00 -0.00000000000E+00 -0.45593999997E+02  0.45594000000E+02  0.51100000000E-03 0.  1.
    9900012    2    1    2    0    0 -0.28320781830E+02  0.33583088485E+02 -0.99610714459E+01  0.46142318076E+02  0.10000002871E+02 0.  0.
         12    1    1    2    0    0  0.28320781830E+02 -0.33583088485E+02  0.99610714459E+01  0.45045681924E+02  0.00000000000E+00 0. -1.
         11    1    3    3    0    0 -0.71178427150E+01  0.38345789242E+01 -0.23146253139E+01  0.84098258630E+01  0.51100000000E-03 0. -1.
        -11    1    3    3    0    0 -0.20748691044E+02  0.26439087792E+02 -0.68926894758E+01  0.34308056077E+02  0.51100000000E-03 0.  1.
        -12    1    3    3    0    0 -0.45424807120E+00  0.33094217686E+01 -0.75375665611E+00  0.34244361360E+01  0.00000000000E+00 0.  1.
</event>
<event>
 7    1  0.1466590E-008  0.4614232E+02  0.7816164E-02  0.1320468E+00
        -11   -1    0    0    0    0  0.00000000000E+00  0.00000000000E+00  0.45593999997E+02  0.45594000000E+02  0.51100000000E-03 0. -1.
         11   -1    0    0    0    0 -0.00000000000E+00 -0.00000000000E+00 -0.45593999997E+02  0.45594000000E+02  0.51100000000E-03 0.  1.
    9900012    2    1    2    0    0  0.23322904335E+02  0.23639656784E+02 -0.30435543545E+02  0.46142317073E+02  0.99999937264E+01 0.  0.
         12    1    1    2    0    0 -0.23322904335E+02 -0.23639656784E+02  0.30435543545E+02  0.45045682927E+02  0.00000000000E+00 0. -1.
         11    1    3    3    0    0  0.17918290100E+01  0.72751544436E+01 -0.69830490902E+01  0.10242143244E+02  0.51100000000E-03 0. -1.
        -11    1    3    3    0    0  0.35504827764E+01  0.18355631689E+01 -0.26019600679E+01  0.47692155066E+01  0.51100000000E-03 0.  1.
         12    1    3    3    0    0  0.17980592549E+02  0.14528939171E+02 -0.20850534387E+02  0.31130958322E+02  0.00000000000E+00 0. -1.
</event>
<event>
 7    1  0.1466590E-008  0.4614232E+02  0.7816164E-02  0.1320468E+00
        -11   -1    0    0    0    0  0.00000000000E+00  0.00000000000E+00  0.45593999997E+02  0.45594000000E+02  0.51100000000E-03 0.  1.
         11   -1    0    0    0    0 -0.00000000000E+00 -0.00000000000E+00 -0.45593999997E+02  0.45594000000E+02  0.51100000000E-03 0. -1.
    9900012    2    1    2    0    0 -0.19988651870E+02 -0.71804265483E+01  0.39724158427E+02  0.46142317724E+02  0.99999996636E+01 0.  0.
         12    1    1    2    0    0  0.19988651870E+02  0.71804265483E+01 -0.39724158427E+02  0.45045682276E+02  0.00000000000E+00 0. -1.
         11    1    3    3    0    0 -0.33252595432E+01 -0.80535375428E+00  0.11379169652E+01  0.36056623497E+01  0.51100000000E-03 0. -1.
        -11    1    3    3    0    0 -0.12748354444E+02 -0.47992209330E+01  0.30867019914E+02  0.33739086846E+02  0.51100000000E-03 0.  1.
         12    1    3    3    0    0 -0.39150378820E+01 -0.15758518611E+01  0.77192215476E+01  0.87975685281E+01  0.00000000000E+00 0. -1.
</event>
<event>
 7    1  0.1466590E-008  0.4614232E+02  0.7816164E-02  0.1320468E+00
        -11   -1    0    0    0    0  0.00000000000E+00  0.00000000000E+00  0.45593999997E+02  0.45594000000E+02  0.51100000000E-03 0.  1.
         11   -1    0    0    0    0 -0.00000000000E+00 -0.00000000000E+00 -0.45593999997E+02  0.45594000000E+02  0.51100000000E-03 0. -1.
    9900012    2    1    2    0    0  0.33101132454E+02 -0.30305996940E+02  0.38697672712E+01  0.46142317421E+02  0.99999968961E+01 0.  0.
         12    1    1    2    0    0 -0.33101132454E+02  0.30305996940E+02 -0.38697672712E+01  0.45045682579E+02  0.00000000000E+00 0. -1.
         11    1    3    3    0    0  0.96730104248E+01 -0.76290712579E+01  0.50050258200E+01  0.13297373525E+02  0.51100000000E-03 0. -1.
        -11    1    3    3    0    0  0.46471607139E+01 -0.55562849037E+01 -0.16387091640E+01  0.74265585985E+01  0.51100000000E-03 0.  1.
        -12    1    3    3    0    0  0.18780961316E+02 -0.17120640779E+02  0.50345061518E+00  0.25418385298E+02  0.00000000000E+00 0.  1.
</event>
<event>
 7    1  0.1466590E-008  0.4614232E+02  0.7816164E-02  0.1320468E+00
        -11   -1    0    0    0    0  0.00000000000E+00  0.00000000000E+00  0.45593999997E+02  0.45594000000E+02  0.51100000000E-03 0. -1.
         11   -1    0    0    0    0 -0.00000000000E+00 -0.00000000000E+00 -0.45593999997E+02  0.45594000000E+02  0.51100000000E-03 0.  1.
    9900012    2    1    2    0    0  0.24109804916E+02  0.26106099120E+02 -0.27682168243E+02  0.46142317155E+02  0.99999944716E+01 0.  0.
         12    1    1    2    0    0 -0.24109804916E+02 -0.26106099120E+02  0.27682168243E+02  0.45045682845E+02  0.00000000000E+00 0. -1.
         11    1    3    3    0    0  0.24336976830E+01  0.45789804923E+01 -0.10167088133E+01  0.52842827170E+01  0.51100000000E-03 0. -1.
        -11    1    3    3    0    0  0.11893715343E+02  0.83348842828E+01 -0.11995923732E+02  0.18837010036E+02  0.51100000000E-03 0.  1.
        -12    1    3    3    0    0  0.97823918898E+01  0.13192234345E+02 -0.14669535698E+02  0.22021024401E+02  0.00000000000E+00 0.  1.
</event>
<event>
 7    1  0.1466590E-008  0.4614232E+02  0.7816164E-02  0.1320468E+00
        -11   -1    0    0    0    0  0.00000000000E+00  0.00000000000E+00  0.45593999997E+02  0.45594000000E+02  0.51100000000E-03 0.  1.
         11   -1    0    0    0    0 -0.00000000000E+00 -0.00000000000E+00 -0.45593999997E+02  0.45594000000E+02  0.51100000000E-03 0. -1.
    9900012    2    1    2    0    0  0.29076652840E+02  0.15376774194E+02  0.30776884019E+02  0.46142317466E+02  0.99999973116E+01 0.  0.
         12    1    1    2    0    0 -0.29076652840E+02 -0.15376774194E+02 -0.30776884019E+02  0.45045682534E+02  0.00000000000E+00 0. -1.
         11    1    3    3    0    0  0.11701897055E+01  0.22154286286E+01  0.30537779931E+01  0.39500668662E+01  0.51100000000E-03 0. -1.
        -11    1    3    3    0    0  0.16928102496E+02  0.12011376258E+02  0.17568602484E+02  0.27193558193E+02  0.51100000000E-03 0.  1.
         12    1    3    3    0    0  0.10978360639E+02  0.11499693076E+01  0.10154503542E+02  0.14998692407E+02  0.00000000000E+00 0. -1.
</event>
<event>
 7    1  0.1466590E-008  0.4614232E+02  0.7816164E-02  0.1320468E+00
        -11   -1    0    0    0    0  0.00000000000E+00  0.00000000000E+00  0.45593999997E+02  0.45594000000E+02  0.51100000000E-03 0.  1.
         11   -1    0    0    0    0 -0.00000000000E+00 -0.00000000000E+00 -0.45593999997E+02  0.45594000000E+02  0.51100000000E-03 0. -1.
    9900012    2    1    2    0    0  0.33885862781E+02  0.95352305594E+01 -0.28105891764E+02  0.46142317963E+02  0.10000001845E+02 0.  0.
         12    1    1    2    0    0 -0.33885862781E+02 -0.95352305594E+01  0.28105891764E+02  0.45045682037E+02  0.00000000000E+00 0. -1.
         11    1    3    3    0    0  0.64300219404E+01  0.59399814643E+01 -0.79595906483E+01  0.11831468442E+02  0.51100000000E-03 0. -1.
        -11    1    3    3    0    0  0.25542163884E+02  0.36300981973E+01 -0.19294887359E+02  0.32216027490E+02  0.51100000000E-03 0.  1.
         12    1    3    3    0    0  0.19136769569E+01 -0.34849102279E-01 -0.85141375739E+00  0.20948220310E+01  0.00000000000E+00 0. -1.
</event>
<event>
 7    1  0.1466590E-008  0.4614232E+02  0.7816164E-02  0.1320468E+00
        -11   -1    0    0    0    0  0.00000000000E+00  0.00000000000E+00  0.45593999997E+02  0.45594000000E+02  0.51100000000E-03 0.  1.
         11   -1    0    0    0    0 -0.00000000000E+00 -0.00000000000E+00 -0.45593999997E+02  0.45594000000E+02  0.51100000000E-03 0. -1.
    9900012    2    1    2    0    0  0.41803339184E+02 -0.10527699832E+02 -0.13067586487E+02  0.46142318217E+02  0.10000004158E+02 0.  0.
         12    1    1    2    0    0 -0.41803339184E+02  0.10527699832E+02  0.13067586487E+02  0.45045681783E+02  0.00000000000E+00 0. -1.
         11    1    3    3    0    0  0.86345864728E+01 -0.48928090769E+01 -0.58330261762E+01  0.11511727014E+02  0.51100000000E-03 0. -1.
        -11    1    3    3    0    0  0.17544462973E+02 -0.22538537789E+01 -0.19596575476E+01  0.17796861966E+02  0.51100000000E-03 0.  1.
        -12    1    3    3    0    0  0.15624289738E+02 -0.33810369759E+01 -0.52749027636E+01  0.16833729237E+02  0.00000000000E+00 0.  1.
</event>
<event>
 7    1  0.1466590E-008  0.4614232E+02  0.7816164E-02  0.1320468E+00
        -11   -1    0    0    0    0  0.00000000000E+00  0.00000000000E+00  0.45593999997E+02  0.45594000000E+02  0.51100000000E-03 0.  1.
         11   -1    0    0    0    0 -0.00000000000E+00 -0.00000000000E+00 -0.45593999997E+02  0.45594000000E+02  0.51100000000E-03 0. -1.
    9900012    2    1    2    0    0 -0.42919253501E+02  0.13676640720E+02 -0.25598515798E-01  0.46142317879E+02  0.10000001070E+02 0.  0.
         12    1    1    2    0    0  0.42919253501E+02 -0.13676640720E+02  0.25598515798E-01  0.45045682121E+02  0.00000000000E+00 0. -1.
         11    1    3    3    0    0 -0.10102498196E+01 -0.53561144333E+00  0.79692650801E+00  0.13937634077E+01  0.51100000000E-03 0. -1.
        -11    1    3    3    0    0 -0.84203502270E+01  0.68826495287E+00 -0.17171037688E+01  0.86211630425E+01  0.51100000000E-03 0.  1.
        -12    1    3    3    0    0 -0.33488653455E+02  0.13523987211E+02  0.89457874496E+00  0.36127391428E+02  0.00000000000E+00 0.  1.
</event>
<event>
 7    1  0.1466590E-008  0.4614232E+02  0.7816164E-02  0.1320468E+00
        -11   -1    0    0    0    0  0.00000000000E+00  0.00000000000E+00  0.45593999997E+02  0.45594000000E+02  0.51100000000E-03 0. -1.
         11   -1    0    0    0    0 -0.00000000000E+00 -0.00000000000E+00 -0.45593999997E+02  0.45594000000E+02  0.51100000000E-03 0.  1.
    9900012    2    1    2    0    0 -0.12071756464E+02 -0.19651384245E+02 -0.38693788678E+02  0.46142317753E+02  0.99999999233E+01 0.  0.
         12    1    1    2    0    0  0.12071756464E+02  0.19651384245E+02  0.38693788678E+02  0.45045682247E+02  0.00000000000E+00 0. -1.
         11    1    3    3    0    0 -0.79767868247E+00 -0.57868642541E+01 -0.81000108608E+01  0.99867044304E+01  0.51100000000E-03 0. -1.
        -11    1    3    3    0    0 -0.10237644700E+01  0.81646388056E+00 -0.14765279092E+01  0.19735353774E+01  0.51100000000E-03 0.  1.
        -12    1    3    3    0    0 -0.10250313311E+02 -0.14680983872E+02 -0.29117249908E+02  0.34182077945E+02  0.00000000000E+00 0.  1.
</event>
<event>
 7    1  0.1466590E-008  0.4614232E+02  0.7816164E-02  0.1320468E+00
        -11   -1    0    0    0    0  0.00000000000E+00  0.00000000000E+00  0.45593999997E+02  0.45594000000E+02  0.51100000000E-03 0. -1.
         11   -1    0    0    0    0 -0.00000000000E+00 -0.00000000000E+00 -0.45593999997E+02  0.45594000000E+02  0.51100000000E-03 0.  1.
    9900012    2    1    2    0    0  0.22574837012E+02 -0.38357056852E+02 -0.69445263446E+01  0.46142317381E+02  0.99999965341E+01 0.  0.
         12    1    1    2    0    0 -0.22574837012E+02  0.38357056852E+02  0.69445263446E+01  0.45045682619E+02  0.00000000000E+00 0. -1.
         11    1    3    3    0    0  0.68364398976E+01 -0.19086708365E+02 -0.59130053157E+01  0.21118782607E+02  0.51100000000E-03 0.  1.
        -11    1    3    3    0    0  0.47513657710E+01 -0.44301230398E+01  0.36144432228E+00  0.65063130187E+01  0.51100000000E-03 0. -1.
        -12    1    3    3    0    0  0.10987031343E+02 -0.14840225447E+02 -0.13929653512E+01  0.18517221755E+02  0.00000000000E+00 0.  1.
</event>
<event>
 7    1  0.1466590E-008  0.4614232E+02  0.7816164E-02  0.1320468E+00
        -11   -1    0    0    0    0  0.00000000000E+00  0.00000000000E+00  0.45593999997E+02  0.45594000000E+02  0.51100000000E-03 0.  1.
         11   -1    0    0    0    0 -0.00000000000E+00 -0.00000000000E+00 -0.45593999997E+02  0.45594000000E+02  0.51100000000E-03 0. -1.
    9900012    2    1    2    0    0 -0.18222796008E+02  0.29642758119E+02  0.28606818726E+02  0.46142317844E+02  0.10000000755E+02 0.  0.
         12    1    1    2    0    0  0.18222796008E+02 -0.29642758119E+02 -0.28606818726E+02  0.45045682156E+02  0.00000000000E+00 0. -1.
         11    1    3    3    0    0 -0.55403272989E+01  0.40013462468E+01  0.83877304987E+01  0.10819427968E+02  0.51100000000E-03 0. -1.
        -11    1    3    3    0    0 -0.68589497534E+01  0.18539080788E+02  0.14272900978E+02  0.24381517811E+02  0.51100000000E-03 0.  1.
        -12    1    3    3    0    0 -0.58235189554E+01  0.71023310845E+01  0.59461872492E+01  0.10941372065E+02  0.00000000000E+00 0.  1.
</event>
<event>
 7    1  0.1466590E-008  0.4614232E+02  0.7816164E-02  0.1320468E+00
        -11   -1    0    0    0    0  0.00000000000E+00  0.00000000000E+00  0.45593999997E+02  0.45594000000E+02  0.51100000000E-03 0.  1.
         11   -1    0    0    0    0 -0.00000000000E+00 -0.00000000000E+00 -0.45593999997E+02  0.45594000000E+02  0.51100000000E-03 0. -1.
    9900012    2    1    2    0    0 -0.21894434205E+02 -0.37056266714E+02 -0.13288352094E+02  0.46142318150E+02  0.10000003545E+02 0.  0.
         12    1    1    2    0    0  0.21894434205E+02  0.37056266714E+02  0.13288352094E+02  0.45045681850E+02  0.00000000000E+00 0. -1.
         11    1    3    3    0    0 -0.76660349158E+01 -0.16742609212E+02 -0.82425449928E+01  0.20174801183E+02  0.51100000000E-03 0. -1.
        -11    1    3    3    0    0 -0.12832747194E+02 -0.15621851027E+02 -0.57583358273E+01  0.21020943409E+02  0.51100000000E-03 0.  1.
         12    1    3    3    0    0 -0.13956520959E+01 -0.46918064758E+01  0.71252872653E+00  0.49465735580E+01  0.00000000000E+00 0. -1.
</event>
<event>
 7    1  0.1466590E-008  0.4614232E+02  0.7816164E-02  0.1320468E+00
        -11   -1    0    0    0    0  0.00000000000E+00  0.00000000000E+00  0.45593999997E+02  0.45594000000E+02  0.51100000000E-03 0.  1.
         11   -1    0    0    0    0 -0.00000000000E+00 -0.00000000000E+00 -0.45593999997E+02  0.45594000000E+02  0.51100000000E-03 0. -1.
    9900012    2    1    2    0    0 -0.31188012466E+02  0.22044341311E+02  0.23884477977E+02  0.46142318812E+02  0.10000009586E+02 0.  0.
         12    1    1    2    0    0  0.31188012466E+02 -0.22044341311E+02 -0.23884477977E+02  0.45045681188E+02  0.00000000000E+00 0. -1.
         11    1    3    3    0    0 -0.68090691874E+01  0.32169852125E+01  0.85216359000E+01  0.11372365441E+02  0.51100000000E-03 0. -1.
        -11    1    3    3    0    0 -0.13239937453E+02  0.96771679576E+01  0.10853395180E+02  0.19665698834E+02  0.51100000000E-03 0.  1.
         12    1    3    3    0    0 -0.11139005826E+02  0.91501881406E+01  0.45094468966E+01  0.15104254537E+02  0.00000000000E+00 0. -1.
</event>
<event>
 7    1  0.1466590E-008  0.4614232E+02  0.7816164E-02  0.1320468E+00
        -11   -1    0    0    0    0  0.00000000000E+00  0.00000000000E+00  0.45593999997E+02  0.45594000000E+02  0.51100000000E-03 0.  1.
         11   -1    0    0    0    0 -0.00000000000E+00 -0.00000000000E+00 -0.45593999997E+02  0.45594000000E+02  0.51100000000E-03 0. -1.
    9900012    2    1    2    0    0  0.26036746456E+02 -0.31893629957E+02  0.18275605246E+02  0.46142317134E+02  0.99999942773E+01 0.  0.
         12    1    1    2    0    0 -0.26036746456E+02  0.31893629957E+02 -0.18275605246E+02  0.45045682866E+02  0.00000000000E+00 0. -1.
         11    1    3    3    0    0  0.99985791091E+01 -0.11153833878E+02  0.81692114513E+01  0.17062110373E+02  0.51100000000E-03 0.  1.
        -11    1    3    3    0    0  0.57755896950E+01 -0.62296660737E+01 -0.27169671398E+00  0.84994114549E+01  0.51100000000E-03 0. -1.
         12    1    3    3    0    0  0.10262577652E+02 -0.14510130006E+02  0.10378090508E+02  0.20580795306E+02  0.00000000000E+00 0. -1.
</event>
<event>
 7    1  0.2044497E-008  0.4614232E+02  0.7816164E-02  0.1320468E+00
        -11   -1    0    0    0    0  0.00000000000E+00  0.00000000000E+00  0.45593999997E+02  0.45594000000E+02  0.51100000000E-03 0. -1.
         11   -1    0    0    0    0 -0.00000000000E+00 -0.00000000000E+00 -0.45593999997E+02  0.45594000000E+02  0.51100000000E-03 0.  1.
    9900012    2    1    2    0    0 -0.26209002679E+02  0.10015730489E+02 -0.35240414234E+02  0.46142317920E+02  0.10000001453E+02 0.  0.
         12    1    1    2    0    0  0.26209002679E+02 -0.10015730489E+02  0.35240414234E+02  0.45045682080E+02  0.00000000000E+00 0. -1.
         11    1    3    3    0    0 -0.31611533455E+01  0.10054505913E+01 -0.98075097388E+00  0.34591464409E+01  0.51100000000E-03 0. -1.
        -11    1    3    3    0    0 -0.22169506149E+02  0.80378022004E+01 -0.29613141708E+02  0.37855401586E+02  0.51100000000E-03 0.  1.
        -12    1    3    3    0    0 -0.87834318422E+00  0.97247769710E+00 -0.46465215515E+01  0.48277698940E+01  0.00000000000E+00 0.  1.
</event>
<event>
 7    1  0.1466590E-008  0.4614232E+02  0.7816164E-02  0.1320468E+00
        -11   -1    0    0    0    0  0.00000000000E+00  0.00000000000E+00  0.45593999997E+02  0.45594000000E+02  0.51100000000E-03 0.  1.
         11   -1    0    0    0    0 -0.00000000000E+00 -0.00000000000E+00 -0.45593999997E+02  0.45594000000E+02  0.51100000000E-03 0. -1.
    9900012    2    1    2    0    0 -0.23503474515E+02 -0.24055538749E+01  0.38352489755E+02  0.46142317919E+02  0.10000001442E+02 0.  0.
         12    1    1    2    0    0  0.23503474515E+02  0.24055538749E+01 -0.38352489755E+02  0.45045682081E+02  0.00000000000E+00 0. -1.
         11    1    3    3    0    0 -0.10827031816E+02 -0.18948386199E+01  0.11929203864E+02  0.16221002942E+02  0.51100000000E-03 0.  1.
        -11    1    3    3    0    0  0.60544046748E-01 -0.27687799774E+00  0.49172671145E+01  0.49254282193E+01  0.51100000000E-03 0. -1.
        -12    1    3    3    0    0 -0.12736986746E+02 -0.23383725731E+00  0.21506018776E+02  0.24995886758E+02  0.00000000000E+00 0.  1.
</event>
<event>
 7    1  0.1466590E-008  0.4614232E+02  0.7816164E-02  0.1320468E+00
        -11   -1    0    0    0    0  0.00000000000E+00  0.00000000000E+00  0.45593999997E+02  0.45594000000E+02  0.51100000000E-03 0.  1.
         11   -1    0    0    0    0 -0.00000000000E+00 -0.00000000000E+00 -0.45593999997E+02  0.45594000000E+02  0.51100000000E-03 0. -1.
    9900012    2    1    2    0    0  0.37487802154E+02  0.18570430961E+02  0.16700807044E+02  0.46142321269E+02  0.10000031986E+02 0.  0.
         12    1    1    2    0    0 -0.37487802154E+02 -0.18570430961E+02 -0.16700807044E+02  0.45045678731E+02  0.00000000000E+00 0. -1.
         11    1    3    3    0    0  0.10898293226E+01 -0.71271879957E+00 -0.60570210344E+00  0.14361654984E+01  0.51100000000E-03 0. -1.
        -11    1    3    3    0    0  0.34788952582E+02  0.18776281666E+02  0.16658275044E+02  0.42898928922E+02  0.51100000000E-03 0.  1.
         12    1    3    3    0    0  0.16090202494E+01  0.50686809479E+00  0.64823410340E+00  0.18072268484E+01  0.00000000000E+00 0. -1.
</event>
<event>
 7    1  0.1466590E-008  0.4614232E+02  0.7816164E-02  0.1320468E+00
        -11   -1    0    0    0    0  0.00000000000E+00  0.00000000000E+00  0.45593999997E+02  0.45594000000E+02  0.51100000000E-03 0.  1.
         11   -1    0    0    0    0 -0.00000000000E+00 -0.00000000000E+00 -0.45593999997E+02  0.45594000000E+02  0.51100000000E-03 0. -1.
    9900012    2    1    2    0    0 -0.41096478975E+02 -0.47529475600E+00  0.18438194765E+02  0.46142317460E+02  0.99999972575E+01 0.  0.
         12    1    1    2    0    0  0.41096478975E+02  0.47529475600E+00 -0.18438194765E+02  0.45045682540E+02  0.00000000000E+00 0. -1.
         11    1    3    3    0    0 -0.87936271589E+01 -0.24403882690E+01  0.41750956145E+01  0.10035676219E+02  0.51100000000E-03 0. -1.
        -11    1    3    3    0    0 -0.16839788084E+02 -0.24101426586E+01  0.86511558438E+01  0.19084804113E+02  0.51100000000E-03 0.  1.
        -12    1    3    3    0    0 -0.15463063733E+02  0.43752361716E+01  0.56119433065E+01  0.17021837129E+02  0.00000000000E+00 0.  1.
</event>
<event>
 7    1  0.1756953E-008  0.4614232E+02  0.7816164E-02  0.1320468E+00
        -11   -1    0    0    0    0  0.00000000000E+00  0.00000000000E+00  0.45593999997E+02  0.45594000000E+02  0.51100000000E-03 0. -1.
         11   -1    0    0    0    0 -0.00000000000E+00 -0.00000000000E+00 -0.45593999997E+02  0.45594000000E+02  0.51100000000E-03 0.  1.
    9900012    2    1    2    0    0  0.15799348382E+02  0.31253016079E+02 -0.28332717833E+02  0.46142319596E+02  0.10000016728E+02 0.  0.
         12    1    1    2    0    0 -0.15799348382E+02 -0.31253016079E+02  0.28332717833E+02  0.45045680404E+02  0.00000000000E+00 0. -1.
         11    1    3    3    0    0  0.76339793251E+00  0.10510664049E+00  0.39097606942E+00  0.86411015341E+00  0.51100000000E-03 0. -1.
        -11    1    3    3    0    0  0.13361607617E+02  0.28577291230E+02 -0.23968231679E+02  0.39619064379E+02  0.51100000000E-03 0.  1.
        -12    1    3    3    0    0  0.16743428318E+01  0.25706182081E+01 -0.47554622232E+01  0.56591450632E+01  0.00000000000E+00 0.  1.
</event>
<event>
 7    1  0.1466590E-008  0.4614232E+02  0.7816164E-02  0.1320468E+00
        -11   -1    0    0    0    0  0.00000000000E+00  0.00000000000E+00  0.45593999997E+02  0.45594000000E+02  0.51100000000E-03 0.  1.
         11   -1    0    0    0    0 -0.00000000000E+00 -0.00000000000E+00 -0.45593999997E+02  0.45594000000E+02  0.51100000000E-03 0. -1.
    9900012    2    1    2    0    0 -0.75354974261E+01 -0.18679260501E+02  0.40291624510E+02  0.46142317632E+02  0.99999988222E+01 0.  0.
         12    1    1    2    0    0  0.75354974261E+01  0.18679260501E+02 -0.40291624510E+02  0.45045682368E+02  0.00000000000E+00 0. -1.
         11    1    3    3    0    0  0.33850844505E+00 -0.45658735149E+01  0.72923236661E+01  0.86104456118E+01  0.51100000000E-03 0. -1.
        -11    1    3    3    0    0 -0.93310773593E+01 -0.12108793483E+02  0.29724162142E+02  0.33424806651E+02  0.51100000000E-03 0.  1.
        -12    1    3    3    0    0  0.14570714882E+01 -0.20045935025E+01  0.32751387021E+01  0.41070653696E+01  0.00000000000E+00 0.  1.
</event>
<event>
 7    1  0.1466590E-008  0.4614232E+02  0.7816164E-02  0.1320468E+00
        -11   -1    0    0    0    0  0.00000000000E+00  0.00000000000E+00  0.45593999997E+02  0.45594000000E+02  0.51100000000E-03 0.  1.
         11   -1    0    0    0    0 -0.00000000000E+00 -0.00000000000E+00 -0.45593999997E+02  0.45594000000E+02  0.51100000000E-03 0. -1.
    9900012    2    1    2    0    0 -0.39079638712E+02 -0.10359356798E+02  0.19864015522E+02  0.46142317101E+02  0.99999939846E+01 0.  0.
         12    1    1    2    0    0  0.39079638712E+02  0.10359356798E+02 -0.19864015522E+02  0.45045682899E+02  0.00000000000E+00 0. -1.
         11    1    3    3    0    0 -0.13063101211E+02 -0.14574343813E+01  0.36664274185E+01  0.13645930474E+02  0.51100000000E-03 0. -1.
        -11    1    3    3    0    0 -0.19984731170E+02 -0.67901477139E+01  0.92148507376E+01  0.23030611375E+02  0.51100000000E-03 0.  1.
         12    1    3    3    0    0 -0.60318063308E+01 -0.21117747032E+01  0.69827373661E+01  0.94657752527E+01  0.00000000000E+00 0. -1.
</event>
<event>
 7    1  0.1466590E-008  0.4614232E+02  0.7816164E-02  0.1320468E+00
        -11   -1    0    0    0    0  0.00000000000E+00  0.00000000000E+00  0.45593999997E+02  0.45594000000E+02  0.51100000000E-03 0. -1.
         11   -1    0    0    0    0 -0.00000000000E+00 -0.00000000000E+00 -0.45593999997E+02  0.45594000000E+02  0.51100000000E-03 0.  1.
    9900012    2    1    2    0    0 -0.29350217225E+02  0.33646180611E+02  0.59676451674E+01  0.46142317524E+02  0.99999978409E+01 0.  0.
         12    1    1    2    0    0  0.29350217225E+02 -0.33646180611E+02 -0.59676451674E+01  0.45045682476E+02  0.00000000000E+00 0. -1.
         11    1    3    3    0    0 -0.94064948871E+01  0.16764869763E+02  0.43379808008E+01  0.19706879051E+02  0.51100000000E-03 0. -1.
        -11    1    3    3    0    0 -0.13663877134E+02  0.11641426748E+02  0.28190014568E+01  0.18170611562E+02  0.51100000000E-03 0.  1.
         12    1    3    3    0    0 -0.62798452032E+01  0.52398841002E+01 -0.11893370902E+01  0.82648269113E+01  0.00000000000E+00 0. -1.
</event>
<event>
 7    1  0.1466590E-008  0.4614232E+02  0.7816164E-02  0.1320468E+00
        -11   -1    0    0    0    0  0.00000000000E+00  0.00000000000E+00  0.45593999997E+02  0.45594000000E+02  0.51100000000E-03 0.  1.
         11   -1    0    0    0    0 -0.00000000000E+00 -0.00000000000E+00 -0.45593999997E+02  0.45594000000E+02  0.51100000000E-03 0. -1.
    9900012    2    1    2    0    0 -0.78121647765E+01  0.17188677515E+02  0.40897835635E+02  0.46142317490E+02  0.99999975253E+01 0.  0.
         12    1    1    2    0    0  0.78121647765E+01 -0.17188677515E+02 -0.40897835635E+02  0.45045682510E+02  0.00000000000E+00 0. -1.
         11    1    3    3    0    0 -0.24491646218E+01  0.96956324680E+01  0.14625185964E+02  0.17717216515E+02  0.51100000000E-03 0. -1.
        -11    1    3    3    0    0  0.90580374842E+00  0.24411544732E+00  0.88848780142E+00  0.12920849882E+01  0.51100000000E-03 0.  1.
        -12    1    3    3    0    0 -0.62688039031E+01  0.72489295997E+01  0.25384161869E+02  0.27133015986E+02  0.00000000000E+00 0.  1.
</event>
<event>
 7    1  0.1466590E-008  0.4614232E+02  0.7816164E-02  0.1320468E+00
        -11   -1    0    0    0    0  0.00000000000E+00  0.00000000000E+00  0.45593999997E+02  0.45594000000E+02  0.51100000000E-03 0.  1.
         11   -1    0    0    0    0 -0.00000000000E+00 -0.00000000000E+00 -0.45593999997E+02  0.45594000000E+02  0.51100000000E-03 0. -1.
    9900012    2    1    2    0    0  0.14350906232E+01  0.38442644099E+01  0.44858395527E+02  0.46142317596E+02  0.99999984975E+01 0.  0.
         12    1    1    2    0    0 -0.14350906232E+01 -0.38442644099E+01 -0.44858395527E+02  0.45045682404E+02  0.00000000000E+00 0. -1.
         11    1    3    3    0    0 -0.29765357252E+00  0.33921379718E+00  0.76936333743E-01  0.45780247924E+00  0.51100000000E-03 0. -1.
        -11    1    3    3    0    0  0.90954401744E-01 -0.20183114544E+01  0.24983384965E+02  0.25064943215E+02  0.51100000000E-03 0.  1.
        -12    1    3    3    0    0  0.16417897940E+01  0.55233620671E+01  0.19798074229E+02  0.20619571902E+02  0.00000000000E+00 0.  1.
</event>
<event>
 7    1  0.1466590E-008  0.4614233E+02  0.7816164E-02  0.1320468E+00
        -11   -1    0    0    0    0  0.00000000000E+00  0.00000000000E+00  0.45593999997E+02  0.45594000000E+02  0.51100000000E-03 0.  1.
         11   -1    0    0    0    0 -0.00000000000E+00 -0.00000000000E+00 -0.45593999997E+02  0.45594000000E+02  0.51100000000E-03 0. -1.
    9900012    2    1    2    0    0  0.14542527201E+02  0.41243097837E+01  0.42433680832E+02  0.46142330979E+02  0.10000120528E+02 0.  0.
         12    1    1    2    0    0 -0.14542527201E+02 -0.41243097837E+01 -0.42433680832E+02  0.45045669021E+02  0.00000000000E+00 0. -1.
         11    1    3    3    0    0  0.11712801742E+02  0.39053066535E+01  0.23877619738E+02  0.26880882971E+02  0.51100000000E-03 0.  1.
        -11    1    3    3    0    0  0.19709899131E+01  0.18445387261E+01  0.15171801358E+02  0.15410083746E+02  0.51100000000E-03 0. -1.
        -12    1    3    3    0    0  0.85873554678E+00 -0.16255355959E+01  0.33842597362E+01  0.38513642615E+01  0.00000000000E+00 0.  1.
</event>
<event>
 7    1  0.1466590E-008  0.4614232E+02  0.7816164E-02  0.1320468E+00
        -11   -1    0    0    0    0  0.00000000000E+00  0.00000000000E+00  0.45593999997E+02  0.45594000000E+02  0.51100000000E-03 0. -1.
         11   -1    0    0    0    0 -0.00000000000E+00 -0.00000000000E+00 -0.45593999997E+02  0.45594000000E+02  0.51100000000E-03 0.  1.
    9900012    2    1    2    0    0 -0.33348670137E+02 -0.28555707110E+02 -0.10077262780E+02  0.46142318370E+02  0.10000005549E+02 0.  0.
         12    1    1    2    0    0  0.33348670137E+02  0.28555707110E+02  0.10077262780E+02  0.45045681630E+02  0.00000000000E+00 0. -1.
         11    1    3    3    0    0 -0.20736069375E+01 -0.98964416117E+00 -0.20578891437E+01  0.30845014647E+01  0.51100000000E-03 0.  1.
        -11    1    3    3    0    0 -0.86388276382E+00 -0.29597363256E+01 -0.13850614569E+01  0.33800485273E+01  0.51100000000E-03 0. -1.
         12    1    3    3    0    0 -0.30411180435E+02 -0.24606326623E+02 -0.66343121792E+01  0.39677768378E+02  0.00000000000E+00 0. -1.
</event>
<event>
 7    1  0.1466590E-008  0.4614232E+02  0.7816164E-02  0.1320468E+00
        -11   -1    0    0    0    0  0.00000000000E+00  0.00000000000E+00  0.45593999997E+02  0.45594000000E+02  0.51100000000E-03 0.  1.
         11   -1    0    0    0    0 -0.00000000000E+00 -0.00000000000E+00 -0.45593999997E+02  0.45594000000E+02  0.51100000000E-03 0. -1.
    9900012    2    1    2    0    0 -0.32239923561E+02 -0.23290079021E+02  0.21148831801E+02  0.46142317204E+02  0.99999949214E+01 0.  0.
         12    1    1    2    0    0  0.32239923561E+02  0.23290079021E+02 -0.21148831801E+02  0.45045682796E+02  0.00000000000E+00 0. -1.
         11    1    3    3    0    0 -0.77064214692E+01 -0.23552794476E+01  0.77440154998E+01  0.11176137502E+02  0.51100000000E-03 0. -1.
        -11    1    3    3    0    0 -0.18505185144E+02 -0.16552727919E+02  0.10738062098E+02  0.27050705289E+02  0.51100000000E-03 0.  1.
        -12    1    3    3    0    0 -0.60283169478E+01 -0.43820716544E+01  0.26667542034E+01  0.79154744134E+01  0.00000000000E+00 0.  1.
</event>
<event>
 7    1  0.1466590E-008  0.4614232E+02  0.7816164E-02  0.1320468E+00
        -11   -1    0    0    0    0  0.00000000000E+00  0.00000000000E+00  0.45593999997E+02  0.45594000000E+02  0.51100000000E-03 0.  1.
         11   -1    0    0    0    0 -0.00000000000E+00 -0.00000000000E+00 -0.45593999997E+02  0.45594000000E+02  0.51100000000E-03 0. -1.
    9900012    2    1    2    0    0  0.67728113007E+01  0.10731698770E+02  0.43221212184E+02  0.46142317476E+02  0.99999974010E+01 0.  0.
         12    1    1    2    0    0 -0.67728113007E+01 -0.10731698770E+02 -0.43221212184E+02  0.45045682524E+02  0.00000000000E+00 0. -1.
         11    1    3    3    0    0  0.72638925950E+01  0.88096762013E+01  0.31004248239E+02  0.33039944606E+02  0.51100000000E-03 0. -1.
        -11    1    3    3    0    0  0.17219330191E+00 -0.60064646372E+00  0.87066049139E+01  0.87289974279E+01  0.51100000000E-03 0.  1.
         12    1    3    3    0    0 -0.66327459626E+00  0.25226690324E+01  0.35103590306E+01  0.43733754425E+01  0.00000000000E+00 0. -1.
</event>
<event>
 7    1  0.1466590E-008  0.4614232E+02  0.7816164E-02  0.1320468E+00
        -11   -1    0    0    0    0  0.00000000000E+00  0.00000000000E+00  0.45593999997E+02  0.45594000000E+02  0.51100000000E-03 0.  1.
         11   -1    0    0    0    0 -0.00000000000E+00 -0.00000000000E+00 -0.45593999997E+02  0.45594000000E+02  0.51100000000E-03 0. -1.
    9900012    2    1    2    0    0 -0.44694010792E+02 -0.75205830743E+00  0.55671631093E+01  0.46142317660E+02  0.99999990793E+01 0.  0.
         12    1    1    2    0    0  0.44694010792E+02  0.75205830743E+00 -0.55671631093E+01  0.45045682340E+02  0.00000000000E+00 0. -1.
         11    1    3    3    0    0 -0.58497566021E+01  0.11055547500E+01 -0.91396390359E+00  0.60230585160E+01  0.51100000000E-03 0. -1.
        -11    1    3    3    0    0 -0.21602290082E+02 -0.89923946445E+00  0.73302737846E+01  0.22829815646E+02  0.51100000000E-03 0.  1.
         12    1    3    3    0    0 -0.17241964108E+02 -0.95837359303E+00 -0.84914677171E+00  0.17289443498E+02  0.00000000000E+00 0. -1.
</event>
<event>
 7    1  0.1466590E-008  0.4614232E+02  0.7816164E-02  0.1320468E+00
        -11   -1    0    0    0    0  0.00000000000E+00  0.00000000000E+00  0.45593999997E+02  0.45594000000E+02  0.51100000000E-03 0.  1.
         11   -1    0    0    0    0 -0.00000000000E+00 -0.00000000000E+00 -0.45593999997E+02  0.45594000000E+02  0.51100000000E-03 0. -1.
    9900012    2    1    2    0    0 -0.19456571269E+02 -0.38077926153E+02  0.14164276162E+02  0.46142319354E+02  0.10000014528E+02 0.  0.
         12    1    1    2    0    0  0.19456571269E+02  0.38077926153E+02 -0.14164276162E+02  0.45045680646E+02  0.00000000000E+00 0. -1.
         11    1    3    3    0    0 -0.71630863058E+01 -0.16871151748E+02  0.98401146366E+01  0.20803207038E+02  0.51100000000E-03 0. -1.
        -11    1    3    3    0    0 -0.96428952791E+00 -0.55815713246E+01  0.81770921383E+00  0.57229748702E+01  0.51100000000E-03 0.  1.
         12    1    3    3    0    0 -0.11329195435E+02 -0.15625203080E+02  0.35064523114E+01  0.19616137446E+02  0.00000000000E+00 0. -1.
</event>
<event>
 7    1  0.1466590E-008  0.4614232E+02  0.7816164E-02  0.1320468E+00
        -11   -1    0    0    0    0  0.00000000000E+00  0.00000000000E+00  0.45593999997E+02  0.45594000000E+02  0.51100000000E-03 0. -1.
         11   -1    0    0    0    0 -0.00000000000E+00 -0.00000000000E+00 -0.45593999997E+02  0.45594000000E+02  0.51100000000E-03 0.  1.
    9900012    2    1    2    0    0 -0.32920011492E+02 -0.18044527339E+01 -0.30694140678E+02  0.46142317873E+02  0.10000001024E+02 0.  0.
         12    1    1    2    0    0  0.32920011492E+02  0.18044527339E+01  0.30694140678E+02  0.45045682127E+02  0.00000000000E+00 0. -1.
         11    1    3    3    0    0 -0.41052786796E+01  0.44575889034E-01 -0.59021418041E+01  0.71896159970E+01  0.51100000000E-03 0. -1.
        -11    1    3    3    0    0 -0.24184736860E+02 -0.28898197244E+01 -0.23899687372E+02  0.34124003455E+02  0.51100000000E-03 0.  1.
        -12    1    3    3    0    0 -0.46299959520E+01  0.10407911014E+01 -0.89231150187E+00  0.48286984218E+01  0.00000000000E+00 0.  1.
</event>
<event>
 7    1  0.1466590E-008  0.4614232E+02  0.7816164E-02  0.1320468E+00
        -11   -1    0    0    0    0  0.00000000000E+00  0.00000000000E+00  0.45593999997E+02  0.45594000000E+02  0.51100000000E-03 0.  1.
         11   -1    0    0    0    0 -0.00000000000E+00 -0.00000000000E+00 -0.45593999997E+02  0.45594000000E+02  0.51100000000E-03 0. -1.
    9900012    2    1    2    0    0 -0.23372909185E+02  0.34533774384E+02  0.17036403631E+02  0.46142317569E+02  0.99999982505E+01 0.  0.
         12    1    1    2    0    0  0.23372909185E+02 -0.34533774384E+02 -0.17036403631E+02  0.45045682431E+02  0.00000000000E+00 0. -1.
         11    1    3    3    0    0 -0.29411087865E+01  0.10382427854E+02  0.60091489697E+01  0.12351307649E+02  0.51100000000E-03 0. -1.
        -11    1    3    3    0    0 -0.47926179325E+01  0.68556813595E+01  0.10581122639E+01  0.84314385116E+01  0.51100000000E-03 0.  1.
         12    1    3    3    0    0 -0.15639182466E+02  0.17295665170E+02  0.99691423969E+01  0.25359571408E+02  0.00000000000E+00 0. -1.
</event>
<event>
 7    1  0.1466590E-008  0.4614232E+02  0.7816164E-02  0.1320468E+00
        -11   -1    0    0    0    0  0.00000000000E+00  0.00000000000E+00  0.45593999997E+02  0.45594000000E+02  0.51100000000E-03 0. -1.
         11   -1    0    0    0    0 -0.00000000000E+00 -0.00000000000E+00 -0.45593999997E+02  0.45594000000E+02  0.51100000000E-03 0.  1.
    9900012    2    1    2    0    0 -0.88401154247E+01  0.20707815135E+02 -0.39014768774E+02  0.46142318400E+02  0.10000005822E+02 0.  0.
         12    1    1    2    0    0  0.88401154247E+01 -0.20707815135E+02  0.39014768774E+02  0.45045681600E+02  0.00000000000E+00 0. -1.
         11    1    3    3    0    0 -0.12266261158E+01  0.42953617943E+01 -0.24243926986E+01  0.50825608496E+01  0.51100000000E-03 0. -1.
        -11    1    3    3    0    0 -0.34623597405E+01  0.30901600354E+01 -0.10245547568E+02  0.11247589486E+02  0.51100000000E-03 0.  1.
        -12    1    3    3    0    0 -0.41511295684E+01  0.13322293305E+02 -0.26344828507E+02  0.29812168064E+02  0.00000000000E+00 0.  1.
</event>
<event>
 7    1  0.1466590E-008  0.4614232E+02  0.7816164E-02  0.1320468E+00
        -11   -1    0    0    0    0  0.00000000000E+00  0.00000000000E+00  0.45593999997E+02  0.45594000000E+02  0.51100000000E-03 0. -1.
         11   -1    0    0    0    0 -0.00000000000E+00 -0.00000000000E+00 -0.45593999997E+02  0.45594000000E+02  0.51100000000E-03 0.  1.
    9900012    2    1    2    0    0 -0.32200034103E+02 -0.11808626578E+02 -0.29203215495E+02  0.46142315932E+02  0.99999833188E+01 0.  0.
         12    1    1    2    0    0  0.32200034103E+02  0.11808626578E+02  0.29203215495E+02  0.45045684068E+02  0.00000000000E+00 0. -1.
         11    1    3    3    0    0  0.31332977657E+00 -0.13707669669E+00 -0.17686765998E+01  0.18014390763E+01  0.51100000000E-03 0. -1.
        -11    1    3    3    0    0 -0.25646360679E+02 -0.98055767671E+01 -0.23869258091E+02  0.36381679922E+02  0.51100000000E-03 0.  1.
         12    1    3    3    0    0 -0.68670032008E+01 -0.18659731143E+01 -0.35652808040E+01  0.79591969340E+01  0.00000000000E+00 0. -1.
</event>
<event>
 7    1  0.1466590E-008  0.4614232E+02  0.7816164E-02  0.1320468E+00
        -11   -1    0    0    0    0  0.00000000000E+00  0.00000000000E+00  0.45593999997E+02  0.45594000000E+02  0.51100000000E-03 0.  1.
         11   -1    0    0    0    0 -0.00000000000E+00 -0.00000000000E+00 -0.45593999997E+02  0.45594000000E+02  0.51100000000E-03 0. -1.
    9900012    2    1    2    0    0  0.17127161244E+02 -0.40736960680E+02 -0.87334886153E+01  0.46142318286E+02  0.10000004783E+02 0.  0.
         12    1    1    2    0    0 -0.17127161244E+02  0.40736960680E+02  0.87334886153E+01  0.45045681714E+02  0.00000000000E+00 0. -1.
         11    1    3    3    0    0 -0.31469395581E+00 -0.86743203504E+01 -0.12486886459E+01  0.87693836398E+01  0.51100000000E-03 0. -1.
        -11    1    3    3    0    0  0.75811818818E+01 -0.11008662849E+02 -0.28247878774E+01  0.13661786239E+02  0.51100000000E-03 0.  1.
         12    1    3    3    0    0  0.98606733180E+01 -0.21053977481E+02 -0.46600120920E+01  0.23711148406E+02  0.00000000000E+00 0. -1.
</event>
<event>
 7    1  0.1466590E-008  0.4614232E+02  0.7816164E-02  0.1320468E+00
        -11   -1    0    0    0    0  0.00000000000E+00  0.00000000000E+00  0.45593999997E+02  0.45594000000E+02  0.51100000000E-03 0. -1.
         11   -1    0    0    0    0 -0.00000000000E+00 -0.00000000000E+00 -0.45593999997E+02  0.45594000000E+02  0.51100000000E-03 0.  1.
    9900012    2    1    2    0    0 -0.25447605635E+02  0.33012110378E+02  0.17080206725E+02  0.46142317345E+02  0.99999962019E+01 0.  0.
         12    1    1    2    0    0  0.25447605635E+02 -0.33012110378E+02 -0.17080206725E+02  0.45045682655E+02  0.00000000000E+00 0. -1.
         11    1    3    3    0    0 -0.18623347303E+00  0.10759177342E+01 -0.23807550307E+00  0.11175697220E+01  0.51100000000E-03 0. -1.
        -11    1    3    3    0    0 -0.19573036237E+02  0.22058518742E+02  0.15997491561E+02  0.33549988571E+02  0.51100000000E-03 0.  1.
         12    1    3    3    0    0 -0.56883359254E+01  0.98776739015E+01  0.13207906662E+01  0.11474759051E+02  0.00000000000E+00 0. -1.
</event>
<event>
 7    1  0.1466590E-008  0.4614232E+02  0.7816164E-02  0.1320468E+00
        -11   -1    0    0    0    0  0.00000000000E+00  0.00000000000E+00  0.45593999997E+02  0.45594000000E+02  0.51100000000E-03 0.  1.
         11   -1    0    0    0    0 -0.00000000000E+00 -0.00000000000E+00 -0.45593999997E+02  0.45594000000E+02  0.51100000000E-03 0. -1.
    9900012    2    1    2    0    0  0.28842327749E+02 -0.32511449938E+02  0.11842266915E+02  0.46142317268E+02  0.99999955076E+01 0.  0.
         12    1    1    2    0    0 -0.28842327749E+02  0.32511449938E+02 -0.11842266915E+02  0.45045682732E+02  0.00000000000E+00 0. -1.
         11    1    3    3    0    0  0.52736548721E+01 -0.98605354085E+01  0.47350240417E+00  0.11192220470E+02  0.51100000000E-03 0. -1.
        -11    1    3    3    0    0  0.19587822005E+02 -0.19676023448E+02  0.11312882658E+02  0.29980159838E+02  0.51100000000E-03 0.  1.
         12    1    3    3    0    0  0.39808508720E+01 -0.29748910816E+01  0.55881852808E-01  0.49699369608E+01  0.00000000000E+00 0. -1.
</event>
<event>
 7    1  0.1466590E-008  0.4614232E+02  0.7816164E-02  0.1320468E+00
        -11   -1    0    0    0    0  0.00000000000E+00  0.00000000000E+00  0.45593999997E+02  0.45594000000E+02  0.51100000000E-03 0.  1.
         11   -1    0    0    0    0 -0.00000000000E+00 -0.00000000000E+00 -0.45593999997E+02  0.45594000000E+02  0.51100000000E-03 0. -1.
    9900012    2    1    2    0    0 -0.21418924775E+02  0.24537182307E+02  0.31117037335E+02  0.46142315783E+02  0.99999819586E+01 0.  0.
         12    1    1    2    0    0  0.21418924775E+02 -0.24537182307E+02 -0.31117037335E+02  0.45045684217E+02  0.00000000000E+00 0. -1.
         11    1    3    3    0    0 -0.59904856167E+01  0.35943583356E+01  0.88593320593E+01  0.11282424144E+02  0.51100000000E-03 0. -1.
        -11    1    3    3    0    0 -0.49065968776E+01  0.47176451269E+01  0.95220329471E+01  0.11704699064E+02  0.51100000000E-03 0.  1.
        -12    1    3    3    0    0 -0.10521842281E+02  0.16225178844E+02  0.12735672329E+02  0.23155192575E+02  0.00000000000E+00 0.  1.
</event>
<event>
 7    1  0.1466590E-008  0.4614232E+02  0.7816164E-02  0.1320468E+00
        -11   -1    0    0    0    0  0.00000000000E+00  0.00000000000E+00  0.45593999997E+02  0.45594000000E+02  0.51100000000E-03 0.  1.
         11   -1    0    0    0    0 -0.00000000000E+00 -0.00000000000E+00 -0.45593999997E+02  0.45594000000E+02  0.51100000000E-03 0. -1.
    9900012    2    1    2    0    0  0.25729906246E+02  0.46834683821E+01  0.36676294291E+02  0.46142317472E+02  0.99999973604E+01 0.  0.
         12    1    1    2    0    0 -0.25729906246E+02 -0.46834683821E+01 -0.36676294291E+02  0.45045682528E+02  0.00000000000E+00 0. -1.
         11    1    3    3    0    0  0.49698350294E+01 -0.22208854911E+01  0.48498380537E+01  0.72905776172E+01  0.51100000000E-03 0. -1.
        -11    1    3    3    0    0  0.15691014621E+02  0.34252665690E+01  0.21547828826E+02  0.26874696617E+02  0.51100000000E-03 0.  1.
         12    1    3    3    0    0  0.50690565963E+01  0.34790873042E+01  0.10278627411E+02  0.11977043237E+02  0.00000000000E+00 0. -1.
</event>
<event>
 7    1  0.1466590E-008  0.4614232E+02  0.7816164E-02  0.1320468E+00
        -11   -1    0    0    0    0  0.00000000000E+00  0.00000000000E+00  0.45593999997E+02  0.45594000000E+02  0.51100000000E-03 0. -1.
         11   -1    0    0    0    0 -0.00000000000E+00 -0.00000000000E+00 -0.45593999997E+02  0.45594000000E+02  0.51100000000E-03 0.  1.
    9900012    2    1    2    0    0  0.38403693607E+02  0.20279743925E+02 -0.11958339596E+02  0.46142316719E+02  0.99999905013E+01 0.  0.
         12    1    1    2    0    0 -0.38403693607E+02 -0.20279743925E+02  0.11958339596E+02  0.45045683281E+02  0.00000000000E+00 0. -1.
         11    1    3    3    0    0  0.18487971583E+02  0.84659674625E+01 -0.81130660229E+01  0.21892910699E+02  0.51100000000E-03 0. -1.
        -11    1    3    3    0    0  0.37303580498E+01  0.12062654954E+01  0.14602680991E+01  0.41836623678E+01  0.51100000000E-03 0.  1.
        -12    1    3    3    0    0  0.16185363974E+02  0.10607510967E+02 -0.53055416721E+01  0.20065743652E+02  0.00000000000E+00 0.  1.
</event>
<event>
 7    1  0.1466590E-008  0.4614232E+02  0.7816164E-02  0.1320468E+00
        -11   -1    0    0    0    0  0.00000000000E+00  0.00000000000E+00  0.45593999997E+02  0.45594000000E+02  0.51100000000E-03 0.  1.
         11   -1    0    0    0    0 -0.00000000000E+00 -0.00000000000E+00 -0.45593999997E+02  0.45594000000E+02  0.51100000000E-03 0. -1.
    9900012    2    1    2    0    0 -0.19661182573E+02 -0.21290294106E+02  0.34485862985E+02  0.46142317975E+02  0.10000001951E+02 0.  0.
         12    1    1    2    0    0  0.19661182573E+02  0.21290294106E+02 -0.34485862985E+02  0.45045682025E+02  0.00000000000E+00 0. -1.
         11    1    3    3    0    0 -0.97227922754E+01 -0.63988153240E+01  0.19363161270E+02  0.22592245170E+02  0.51100000000E-03 0. -1.
        -11    1    3    3    0    0 -0.19345627830E+01 -0.47386923141E+01  0.40104096532E+01  0.65023937021E+01  0.51100000000E-03 0.  1.
         12    1    3    3    0    0 -0.80038275146E+01 -0.10152786467E+02  0.11112292062E+02  0.17047679103E+02  0.00000000000E+00 0. -1.
</event>
<event>
 7    1  0.1472949E-008  0.4614233E+02  0.7816164E-02  0.1320468E+00
        -11   -1    0    0    0    0  0.00000000000E+00  0.00000000000E+00  0.45593999997E+02  0.45594000000E+02  0.51100000000E-03 0. -1.
         11   -1    0    0    0    0 -0.00000000000E+00 -0.00000000000E+00 -0.45593999997E+02  0.45594000000E+02  0.51100000000E-03 0.  1.
    9900012    2    1    2    0    0  0.33254825159E+01 -0.43075184900E+02 -0.12750777033E+02  0.46142326478E+02  0.10000079486E+02 0.  0.
         12    1    1    2    0    0 -0.33254825159E+01  0.43075184900E+02  0.12750777033E+02  0.45045673522E+02  0.00000000000E+00 0. -1.
         11    1    3    3    0    0 -0.15668290181E+01 -0.12286392803E+02 -0.53521942425E+00  0.12397453826E+02  0.51100000000E-03 0. -1.
        -11    1    3    3    0    0  0.46791787645E+01 -0.17585666873E+02 -0.80501465846E+01  0.19898624414E+02  0.51100000000E-03 0.  1.
        -12    1    3    3    0    0  0.21313276947E+00 -0.13203125224E+02 -0.41654110240E+01  0.13846248238E+02  0.00000000000E+00 0.  1.
</event>
<event>
 7    1  0.1466590E-008  0.4614232E+02  0.7816164E-02  0.1320468E+00
        -11   -1    0    0    0    0  0.00000000000E+00  0.00000000000E+00  0.45593999997E+02  0.45594000000E+02  0.51100000000E-03 0.  1.
         11   -1    0    0    0    0 -0.00000000000E+00 -0.00000000000E+00 -0.45593999997E+02  0.45594000000E+02  0.51100000000E-03 0. -1.
    9900012    2    1    2    0    0  0.28470397907E+02 -0.34103453969E+02 -0.74501186029E+01  0.46142318777E+02  0.10000009267E+02 0.  0.
         12    1    1    2    0    0 -0.28470397907E+02  0.34103453969E+02  0.74501186029E+01  0.45045681223E+02  0.00000000000E+00 0. -1.
         11    1    3    3    0    0  0.16013775777E+02 -0.17586959769E+02 -0.26889248363E+01  0.23936843685E+02  0.51100000000E-03 0. -1.
        -11    1    3    3    0    0  0.67972397836E+01 -0.10419107859E+02  0.34369117789E+00  0.12445015112E+02  0.51100000000E-03 0.  1.
         12    1    3    3    0    0  0.56593823465E+01 -0.60973863412E+01 -0.51048849445E+01  0.97604599806E+01  0.00000000000E+00 0. -1.
</event>
<event>
 7    1  0.1466590E-008  0.4614232E+02  0.7816164E-02  0.1320468E+00
        -11   -1    0    0    0    0  0.00000000000E+00  0.00000000000E+00  0.45593999997E+02  0.45594000000E+02  0.51100000000E-03 0.  1.
         11   -1    0    0    0    0 -0.00000000000E+00 -0.00000000000E+00 -0.45593999997E+02  0.45594000000E+02  0.51100000000E-03 0. -1.
    9900012    2    1    2    0    0 -0.17934774158E+02  0.26271694861E+02  0.31894440241E+02  0.46142318817E+02  0.10000009627E+02 0.  0.
         12    1    1    2    0    0  0.17934774158E+02 -0.26271694861E+02 -0.31894440241E+02  0.45045681183E+02  0.00000000000E+00 0. -1.
         11    1    3    3    0    0 -0.78473479049E+01  0.45875007148E+01  0.96808521299E+01  0.13279492843E+02  0.51100000000E-03 0. -1.
        -11    1    3    3    0    0 -0.83206539183E+01  0.14387298724E+02  0.13956267332E+02  0.21702650629E+02  0.51100000000E-03 0.  1.
         12    1    3    3    0    0 -0.17667723348E+01  0.72968954224E+01  0.82573207789E+01  0.11160175345E+02  0.00000000000E+00 0. -1.
</event>
<event>
 7    1  0.1466590E-008  0.4614232E+02  0.7816164E-02  0.1320468E+00
        -11   -1    0    0    0    0  0.00000000000E+00  0.00000000000E+00  0.45593999997E+02  0.45594000000E+02  0.51100000000E-03 0.  1.
         11   -1    0    0    0    0 -0.00000000000E+00 -0.00000000000E+00 -0.45593999997E+02  0.45594000000E+02  0.51100000000E-03 0. -1.
    9900012    2    1    2    0    0  0.43603787950E+02  0.88589975554E+01  0.70243430602E+01  0.46142317003E+02  0.99999930864E+01 0.  0.
         12    1    1    2    0    0 -0.43603787950E+02 -0.88589975554E+01 -0.70243430602E+01  0.45045682997E+02  0.00000000000E+00 0. -1.
         11    1    3    3    0    0  0.69768016246E+00  0.10522614635E+01  0.60428237238E-01  0.12639871952E+01  0.51100000000E-03 0. -1.
        -11    1    3    3    0    0  0.86990272392E+01  0.18189318231E+01 -0.17881075883E+01  0.90652587881E+01  0.51100000000E-03 0.  1.
        -12    1    3    3    0    0  0.34207080548E+02  0.59878042688E+01  0.87520224112E+01  0.35813071020E+02  0.00000000000E+00 0.  1.
</event>
<event>
 7    1  0.1466590E-008  0.4614232E+02  0.7816164E-02  0.1320468E+00
        -11   -1    0    0    0    0  0.00000000000E+00  0.00000000000E+00  0.45593999997E+02  0.45594000000E+02  0.51100000000E-03 0.  1.
         11   -1    0    0    0    0 -0.00000000000E+00 -0.00000000000E+00 -0.45593999997E+02  0.45594000000E+02  0.51100000000E-03 0. -1.
    9900012    2    1    2    0    0 -0.37050564749E+02 -0.19867481040E+02  0.16175670633E+02  0.46142317948E+02  0.10000001707E+02 0.  0.
         12    1    1    2    0    0  0.37050564749E+02  0.19867481040E+02 -0.16175670633E+02  0.45045682052E+02  0.00000000000E+00 0. -1.
         11    1    3    3    0    0 -0.60317233131E+00 -0.13891914081E+00  0.71084748149E+00  0.94256023256E+00  0.51100000000E-03 0. -1.
        -11    1    3    3    0    0 -0.24619575578E+02 -0.16676492686E+02  0.76696079228E+01  0.30709148407E+02  0.51100000000E-03 0.  1.
        -12    1    3    3    0    0 -0.11827816839E+02 -0.30520692137E+01  0.77952152292E+01  0.14490609309E+02  0.00000000000E+00 0.  1.
</event>
<event>
 7    1  0.1466590E-008  0.4614232E+02  0.7816164E-02  0.1320468E+00
        -11   -1    0    0    0    0  0.00000000000E+00  0.00000000000E+00  0.45593999997E+02  0.45594000000E+02  0.51100000000E-03 0.  1.
         11   -1    0    0    0    0 -0.00000000000E+00 -0.00000000000E+00 -0.45593999997E+02  0.45594000000E+02  0.51100000000E-03 0. -1.
    9900012    2    1    2    0    0 -0.26787047045E+02  0.16343232963E+02  0.32318203758E+02  0.46142318218E+02  0.10000004164E+02 0.  0.
         12    1    1    2    0    0  0.26787047045E+02 -0.16343232963E+02 -0.32318203758E+02  0.45045681782E+02  0.00000000000E+00 0. -1.
         11    1    3    3    0    0 -0.14356006562E+02  0.59831955655E+01  0.19454967570E+02  0.24907615643E+02  0.51100000000E-03 0. -1.
        -11    1    3    3    0    0 -0.11697764586E+02  0.74925602478E+01  0.11165633609E+02  0.17822668979E+02  0.51100000000E-03 0.  1.
         12    1    3    3    0    0 -0.73327589665E+00  0.28674771499E+01  0.16976025794E+01  0.34120335965E+01  0.00000000000E+00 0. -1.
</event>
<event>
 7    1  0.1466590E-008  0.4614232E+02  0.7816164E-02  0.1320468E+00
        -11   -1    0    0    0    0  0.00000000000E+00  0.00000000000E+00  0.45593999997E+02  0.45594000000E+02  0.51100000000E-03 0.  1.
         11   -1    0    0    0    0 -0.00000000000E+00 -0.00000000000E+00 -0.45593999997E+02  0.45594000000E+02  0.51100000000E-03 0. -1.
    9900012    2    1    2    0    0 -0.27983920257E+02 -0.41043224487E+01  0.35059493968E+02  0.46142319041E+02  0.10000011675E+02 0.  0.
         12    1    1    2    0    0  0.27983920257E+02  0.41043224487E+01 -0.35059493968E+02  0.45045680959E+02  0.00000000000E+00 0. -1.
         11    1    3    3    0    0 -0.23633304202E+01  0.69769952667E+00  0.30883282940E+01  0.39509349802E+01  0.51100000000E-03 0. -1.
        -11    1    3    3    0    0 -0.17309799884E+02  0.10147704076E+01  0.21349801973E+02  0.27504053802E+02  0.51100000000E-03 0.  1.
        -12    1    3    3    0    0 -0.83107899531E+01 -0.58167923829E+01  0.10621363702E+02  0.14687330259E+02  0.00000000000E+00 0.  1.
</event>
<event>
 7    1  0.1466590E-008  0.4614232E+02  0.7816164E-02  0.1320468E+00
        -11   -1    0    0    0    0  0.00000000000E+00  0.00000000000E+00  0.45593999997E+02  0.45594000000E+02  0.51100000000E-03 0.  1.
         11   -1    0    0    0    0 -0.00000000000E+00 -0.00000000000E+00 -0.45593999997E+02  0.45594000000E+02  0.51100000000E-03 0. -1.
    9900012    2    1    2    0    0  0.13678106256E+02 -0.25589351090E+02  0.34455885005E+02  0.46142317727E+02  0.99999996926E+01 0.  0.
         12    1    1    2    0    0 -0.13678106256E+02  0.25589351090E+02 -0.34455885005E+02  0.45045682273E+02  0.00000000000E+00 0. -1.
         11    1    3    3    0    0  0.33972611472E+00 -0.71963584721E+01  0.11869647745E+02  0.13884938853E+02  0.51100000000E-03 0. -1.
        -11    1    3    3    0    0  0.15256454671E+01 -0.27450724533E+01  0.50835334407E+01  0.59753936581E+01  0.51100000000E-03 0.  1.
         12    1    3    3    0    0  0.11812734674E+02 -0.15647920165E+02  0.17502703819E+02  0.26281985217E+02  0.00000000000E+00 0. -1.
</event>
<event>
 7    1  0.1466590E-008  0.4614232E+02  0.7816164E-02  0.1320468E+00
        -11   -1    0    0    0    0  0.00000000000E+00  0.00000000000E+00  0.45593999997E+02  0.45594000000E+02  0.51100000000E-03 0.  1.
         11   -1    0    0    0    0 -0.00000000000E+00 -0.00000000000E+00 -0.45593999997E+02  0.45594000000E+02  0.51100000000E-03 0. -1.
    9900012    2    1    2    0    0 -0.86439562064E+01 -0.38535652405E+02  0.21665617200E+02  0.46142318144E+02  0.10000003494E+02 0.  0.
         12    1    1    2    0    0  0.86439562064E+01  0.38535652405E+02 -0.21665617200E+02  0.45045681856E+02  0.00000000000E+00 0. -1.
         11    1    3    3    0    0 -0.17379721699E+01 -0.20239621579E+02  0.13000644792E+02  0.24118034625E+02  0.51100000000E-03 0. -1.
        -11    1    3    3    0    0 -0.61059817974E+01 -0.18441305794E+02  0.81827199943E+01  0.21078939249E+02  0.51100000000E-03 0.  1.
         12    1    3    3    0    0 -0.80000223910E+00  0.14527496740E+00  0.48225241323E+00  0.94534426998E+00  0.00000000000E+00 0. -1.
</event>
<event>
 7    1  0.1466590E-008  0.4614232E+02  0.7816164E-02  0.1320468E+00
        -11   -1    0    0    0    0  0.00000000000E+00  0.00000000000E+00  0.45593999997E+02  0.45594000000E+02  0.51100000000E-03 0.  1.
         11   -1    0    0    0    0 -0.00000000000E+00 -0.00000000000E+00 -0.45593999997E+02  0.45594000000E+02  0.51100000000E-03 0. -1.
    9900012    2    1    2    0    0  0.14275790625E+02 -0.39931928739E+02  0.15190666993E+02  0.46142317693E+02  0.99999993801E+01 0.  0.
         12    1    1    2    0    0 -0.14275790625E+02  0.39931928739E+02 -0.15190666993E+02  0.45045682307E+02  0.00000000000E+00 0. -1.
         11    1    3    3    0    0  0.18412418325E+01 -0.89289068804E+00  0.24480082716E+01  0.31906378713E+01  0.51100000000E-03 0. -1.
        -11    1    3    3    0    0  0.89417090001E+01 -0.30205123008E+02  0.10320089622E+02  0.33148270933E+02  0.51100000000E-03 0.  1.
        -12    1    3    3    0    0  0.34928397924E+01 -0.88339150432E+01  0.24225691000E+01  0.98034088893E+01  0.00000000000E+00 0.  1.
</event>
<event>
 7    1  0.1466590E-008  0.4614232E+02  0.7816164E-02  0.1320468E+00
        -11   -1    0    0    0    0  0.00000000000E+00  0.00000000000E+00  0.45593999997E+02  0.45594000000E+02  0.51100000000E-03 0.  1.
         11   -1    0    0    0    0 -0.00000000000E+00 -0.00000000000E+00 -0.45593999997E+02  0.45594000000E+02  0.51100000000E-03 0. -1.
    9900012    2    1    2    0    0  0.29800785205E+02 -0.18086245420E+02  0.28529181115E+02  0.46142320437E+02  0.10000024401E+02 0.  0.
         12    1    1    2    0    0 -0.29800785205E+02  0.18086245420E+02 -0.28529181115E+02  0.45045679563E+02  0.00000000000E+00 0. -1.
         11    1    3    3    0    0  0.32290410642E+01  0.64664626835E+00  0.39525447564E+01  0.51446543036E+01  0.51100000000E-03 0. -1.
        -11    1    3    3    0    0  0.15561726821E+02 -0.88997293381E+01  0.11683435113E+02  0.21398018138E+02  0.51100000000E-03 0.  1.
        -12    1    3    3    0    0  0.11010017319E+02 -0.98331623503E+01  0.12893201246E+02  0.19599647995E+02  0.00000000000E+00 0.  1.
</event>
<event>
 7    1  0.1466590E-008  0.4614232E+02  0.7816164E-02  0.1320468E+00
        -11   -1    0    0    0    0  0.00000000000E+00  0.00000000000E+00  0.45593999997E+02  0.45594000000E+02  0.51100000000E-03 0.  1.
         11   -1    0    0    0    0 -0.00000000000E+00 -0.00000000000E+00 -0.45593999997E+02  0.45594000000E+02  0.51100000000E-03 0. -1.
    9900012    2    1    2    0    0  0.26998766780E+02 -0.82805224642E+01  0.35094344076E+02  0.46142318231E+02  0.10000004282E+02 0.  0.
         12    1    1    2    0    0 -0.26998766780E+02  0.82805224642E+01 -0.35094344076E+02  0.45045681769E+02  0.00000000000E+00 0. -1.
         11    1    3    3    0    0  0.11679143094E+02 -0.70977134384E+01  0.19889358646E+02  0.24132271072E+02  0.51100000000E-03 0.  1.
        -11    1    3    3    0    0  0.29818325122E+01  0.12227375583E+01  0.42669172524E+01  0.53472418467E+01  0.51100000000E-03 0. -1.
        -12    1    3    3    0    0  0.12337791174E+02 -0.24055465840E+01  0.10938068178E+02  0.16662805312E+02  0.00000000000E+00 0.  1.
</event>
<event>
 7    1  0.1466590E-008  0.4614232E+02  0.7816164E-02  0.1320468E+00
        -11   -1    0    0    0    0  0.00000000000E+00  0.00000000000E+00  0.45593999997E+02  0.45594000000E+02  0.51100000000E-03 0. -1.
         11   -1    0    0    0    0 -0.00000000000E+00 -0.00000000000E+00 -0.45593999997E+02  0.45594000000E+02  0.51100000000E-03 0.  1.
    9900012    2    1    2    0    0  0.28576827697E+02  0.25060615214E+02 -0.24175275667E+02  0.46142317968E+02  0.10000001883E+02 0.  0.
         12    1    1    2    0    0 -0.28576827697E+02 -0.25060615214E+02  0.24175275667E+02  0.45045682032E+02  0.00000000000E+00 0. -1.
         11    1    3    3    0    0  0.14999168957E+02  0.10102938503E+02 -0.94811133751E+01  0.20419009449E+02  0.51100000000E-03 0. -1.
        -11    1    3    3    0    0  0.23152584509E+01  0.68440456854E+01 -0.53584765053E+01  0.89952572924E+01  0.51100000000E-03 0.  1.
         12    1    3    3    0    0  0.11262400289E+02  0.81136310262E+01 -0.93356857869E+01  0.16728051226E+02  0.00000000000E+00 0. -1.
</event>
<event>
 7    1  0.1466590E-008  0.4614233E+02  0.7816164E-02  0.1320468E+00
        -11   -1    0    0    0    0  0.00000000000E+00  0.00000000000E+00  0.45593999997E+02  0.45594000000E+02  0.51100000000E-03 0. -1.
         11   -1    0    0    0    0 -0.00000000000E+00 -0.00000000000E+00 -0.45593999997E+02  0.45594000000E+02  0.51100000000E-03 0.  1.
    9900012    2    1    2    0    0 -0.44761274247E+02 -0.96587517474E+00  0.49606523220E+01  0.46142326972E+02  0.10000083991E+02 0.  0.
         12    1    1    2    0    0  0.44761274247E+02  0.96587517474E+00 -0.49606523220E+01  0.45045673028E+02  0.00000000000E+00 0. -1.
         11    1    3    3    0    0 -0.11417462597E+02  0.14790766621E+01 -0.23695137083E+01  0.11754178636E+02  0.51100000000E-03 0. -1.
        -11    1    3    3    0    0 -0.25534154381E+02 -0.99433592870E+00  0.67153071134E+01  0.26421148608E+02  0.51100000000E-03 0.  1.
        -12    1    3    3    0    0 -0.78096572694E+01 -0.14506159081E+01  0.61485891692E+00  0.79669997280E+01  0.00000000000E+00 0.  1.
</event>
<event>
 7    1  0.1466590E-008  0.4614232E+02  0.7816164E-02  0.1320468E+00
        -11   -1    0    0    0    0  0.00000000000E+00  0.00000000000E+00  0.45593999997E+02  0.45594000000E+02  0.51100000000E-03 0.  1.
         11   -1    0    0    0    0 -0.00000000000E+00 -0.00000000000E+00 -0.45593999997E+02  0.45594000000E+02  0.51100000000E-03 0. -1.
    9900012    2    1    2    0    0 -0.20393083730E+02  0.35477710779E+01  0.40008111721E+02  0.46142317108E+02  0.99999940485E+01 0.  0.
         12    1    1    2    0    0  0.20393083730E+02 -0.35477710779E+01 -0.40008111721E+02  0.45045682892E+02  0.00000000000E+00 0. -1.
         11    1    3    3    0    0 -0.18082853367E+02  0.36747366947E+01  0.27648988222E+02  0.33240935992E+02  0.51100000000E-03 0. -1.
        -11    1    3    3    0    0 -0.21054556719E+01 -0.13206208665E+01  0.80028672288E+01  0.83799085438E+01  0.51100000000E-03 0.  1.
         12    1    3    3    0    0 -0.20477469149E+00  0.11936552496E+01  0.43562562711E+01  0.45214725731E+01  0.00000000000E+00 0. -1.
</event>
<event>
 7    1  0.1466590E-008  0.4614232E+02  0.7816164E-02  0.1320468E+00
        -11   -1    0    0    0    0  0.00000000000E+00  0.00000000000E+00  0.45593999997E+02  0.45594000000E+02  0.51100000000E-03 0. -1.
         11   -1    0    0    0    0 -0.00000000000E+00 -0.00000000000E+00 -0.45593999997E+02  0.45594000000E+02  0.51100000000E-03 0.  1.
    9900012    2    1    2    0    0  0.76152240745E+01  0.30792913687E+02 -0.31983092297E+02  0.46142319142E+02  0.10000012594E+02 0.  0.
         12    1    1    2    0    0 -0.76152240745E+01 -0.30792913687E+02  0.31983092297E+02  0.45045680858E+02  0.00000000000E+00 0. -1.
         11    1    3    3    0    0 -0.14760972515E+01  0.46545854196E+01 -0.64340449855E+01  0.80771878560E+01  0.51100000000E-03 0. -1.
        -11    1    3    3    0    0 -0.23208360659E+00  0.45538309239E+00  0.17303165975E+00  0.53960798519E+00  0.51100000000E-03 0.  1.
        -12    1    3    3    0    0  0.93234049326E+01  0.25682945175E+02 -0.25722078971E+02  0.37525523301E+02  0.00000000000E+00 0.  1.
</event>
<event>
 7    1  0.1466590E-008  0.4614231E+02  0.7816164E-02  0.1320468E+00
        -11   -1    0    0    0    0  0.00000000000E+00  0.00000000000E+00  0.45593999997E+02  0.45594000000E+02  0.51100000000E-03 0. -1.
         11   -1    0    0    0    0 -0.00000000000E+00 -0.00000000000E+00 -0.45593999997E+02  0.45594000000E+02  0.51100000000E-03 0.  1.
    9900012    2    1    2    0    0 -0.24490150336E+02  0.13466469431E+02 -0.35327053763E+02  0.46142312193E+02  0.99999492286E+01 0.  0.
         12    1    1    2    0    0  0.24490150336E+02 -0.13466469431E+02  0.35327053763E+02  0.45045687807E+02  0.00000000000E+00 0. -1.
         11    1    3    3    0    0 -0.29643129541E+01  0.33831701112E+01 -0.10254469579E+02  0.11197639836E+02  0.51100000000E-03 0. -1.
        -11    1    3    3    0    0 -0.14248032145E+02  0.56860195904E+01 -0.12613090927E+02  0.19860193901E+02  0.51100000000E-03 0.  1.
         12    1    3    3    0    0 -0.72778052367E+01  0.43972797295E+01 -0.12459493257E+02  0.15084478456E+02  0.00000000000E+00 0. -1.
</event>
<event>
 7    1  0.1466590E-008  0.4614232E+02  0.7816164E-02  0.1320468E+00
        -11   -1    0    0    0    0  0.00000000000E+00  0.00000000000E+00  0.45593999997E+02  0.45594000000E+02  0.51100000000E-03 0. -1.
         11   -1    0    0    0    0 -0.00000000000E+00 -0.00000000000E+00 -0.45593999997E+02  0.45594000000E+02  0.51100000000E-03 0.  1.
    9900012    2    1    2    0    0 -0.33654772151E+02  0.25851542743E+02  0.15105219117E+02  0.46142316574E+02  0.99999891744E+01 0.  0.
         12    1    1    2    0    0  0.33654772151E+02 -0.25851542743E+02 -0.15105219117E+02  0.45045683426E+02  0.00000000000E+00 0. -1.
         11    1    3    3    0    0 -0.81029152452E+01  0.10521754697E+02  0.15689396586E+01  0.13372588728E+02  0.51100000000E-03 0. -1.
        -11    1    3    3    0    0 -0.19665689414E+02  0.12195254039E+02  0.98426557905E+01  0.25146400030E+02  0.51100000000E-03 0.  1.
         12    1    3    3    0    0 -0.58861674923E+01  0.31345340072E+01  0.36936236676E+01  0.76233278158E+01  0.00000000000E+00 0. -1.
</event>
<event>
 7    1  0.1466590E-008  0.4614232E+02  0.7816164E-02  0.1320468E+00
        -11   -1    0    0    0    0  0.00000000000E+00  0.00000000000E+00  0.45593999997E+02  0.45594000000E+02  0.51100000000E-03 0. -1.
         11   -1    0    0    0    0 -0.00000000000E+00 -0.00000000000E+00 -0.45593999997E+02  0.45594000000E+02  0.51100000000E-03 0.  1.
    9900012    2    1    2    0    0  0.33551635334E+02  0.24690366680E+02 -0.17140216390E+02  0.46142318095E+02  0.10000003042E+02 0.  0.
         12    1    1    2    0    0 -0.33551635334E+02 -0.24690366680E+02  0.17140216390E+02  0.45045681905E+02  0.00000000000E+00 0. -1.
         11    1    3    3    0    0  0.72898639691E+01  0.89251564620E+01 -0.29492834225E+01  0.11895327130E+02  0.51100000000E-03 0. -1.
        -11    1    3    3    0    0  0.15476921372E+02  0.98079191842E+01 -0.11509082867E+02  0.21637683854E+02  0.51100000000E-03 0.  1.
        -12    1    3    3    0    0  0.10784849994E+02  0.59572910341E+01 -0.26818501002E+01  0.12609307111E+02  0.00000000000E+00 0.  1.
</event>
<event>
 7    1  0.1466590E-008  0.4614232E+02  0.7816164E-02  0.1320468E+00
        -11   -1    0    0    0    0  0.00000000000E+00  0.00000000000E+00  0.45593999997E+02  0.45594000000E+02  0.51100000000E-03 0.  1.
         11   -1    0    0    0    0 -0.00000000000E+00 -0.00000000000E+00 -0.45593999997E+02  0.45594000000E+02  0.51100000000E-03 0. -1.
    9900012    2    1    2    0    0 -0.25431658725E+02 -0.13953416241E+02  0.34462246010E+02  0.46142317739E+02  0.99999998027E+01 0.  0.
         12    1    1    2    0    0  0.25431658725E+02  0.13953416241E+02 -0.34462246010E+02  0.45045682261E+02  0.00000000000E+00 0. -1.
         11    1    3    3    0    0 -0.10945567014E+02 -0.84484558743E+01  0.16151981712E+02  0.21261899196E+02  0.51100000000E-03 0. -1.
        -11    1    3    3    0    0 -0.12781920392E+02 -0.54276073000E+01  0.12030477748E+02  0.18373045611E+02  0.51100000000E-03 0.  1.
        -12    1    3    3    0    0 -0.17041713185E+01 -0.77353066775E-01  0.62797865495E+01  0.65073729328E+01  0.00000000000E+00 0.  1.
</event>
<event>
 7    1  0.1466590E-008  0.4614232E+02  0.7816164E-02  0.1320468E+00
        -11   -1    0    0    0    0  0.00000000000E+00  0.00000000000E+00  0.45593999997E+02  0.45594000000E+02  0.51100000000E-03 0.  1.
         11   -1    0    0    0    0 -0.00000000000E+00 -0.00000000000E+00 -0.45593999997E+02  0.45594000000E+02  0.51100000000E-03 0. -1.
    9900012    2    1    2    0    0 -0.61366917385E+00 -0.22827477101E+02  0.38828382018E+02  0.46142317068E+02  0.99999936804E+01 0.  0.
         12    1    1    2    0    0  0.61366917385E+00  0.22827477101E+02 -0.38828382018E+02  0.45045682932E+02  0.00000000000E+00 0. -1.
         11    1    3    3    0    0 -0.20912935277E+01 -0.75623655218E+01  0.15177513358E+02  0.17085660446E+02  0.51100000000E-03 0.  1.
        -11    1    3    3    0    0 -0.14280207575E+00 -0.13114707891E+02  0.14656801118E+02  0.19668191955E+02  0.51100000000E-03 0. -1.
        -12    1    3    3    0    0  0.16204264296E+01 -0.21504036872E+01  0.89940675427E+01  0.93884646665E+01  0.00000000000E+00 0.  1.
</event>
<event>
 7    1  0.1466590E-008  0.4614232E+02  0.7816164E-02  0.1320468E+00
        -11   -1    0    0    0    0  0.00000000000E+00  0.00000000000E+00  0.45593999997E+02  0.45594000000E+02  0.51100000000E-03 0. -1.
         11   -1    0    0    0    0 -0.00000000000E+00 -0.00000000000E+00 -0.45593999997E+02  0.45594000000E+02  0.51100000000E-03 0.  1.
    9900012    2    1    2    0    0  0.20749026297E+02  0.38658325556E+01 -0.39795060772E+02  0.46142316350E+02  0.99999871358E+01 0.  0.
         12    1    1    2    0    0 -0.20749026297E+02 -0.38658325556E+01  0.39795060772E+02  0.45045683650E+02  0.00000000000E+00 0. -1.
         11    1    3    3    0    0  0.59337832464E+01 -0.34180342427E+00 -0.19941604521E+02  0.20808512785E+02  0.51100000000E-03 0. -1.
        -11    1    3    3    0    0  0.12600016366E+02  0.27289471247E+01 -0.14848709726E+02  0.19664479287E+02  0.51100000000E-03 0.  1.
         12    1    3    3    0    0  0.22152266847E+01  0.14786888551E+01 -0.50047465255E+01  0.56693242789E+01  0.00000000000E+00 0. -1.
</event>
<event>
 7    1  0.1466590E-008  0.4614232E+02  0.7816164E-02  0.1320468E+00
        -11   -1    0    0    0    0  0.00000000000E+00  0.00000000000E+00  0.45593999997E+02  0.45594000000E+02  0.51100000000E-03 0. -1.
         11   -1    0    0    0    0 -0.00000000000E+00 -0.00000000000E+00 -0.45593999997E+02  0.45594000000E+02  0.51100000000E-03 0.  1.
    9900012    2    1    2    0    0 -0.36097694374E+02 -0.26772037708E+02  0.30541549803E+01  0.46142318689E+02  0.10000008459E+02 0.  0.
         12    1    1    2    0    0  0.36097694374E+02  0.26772037708E+02 -0.30541549803E+01  0.45045681311E+02  0.00000000000E+00 0. -1.
         11    1    3    3    0    0 -0.12097398872E-02  0.77527709934E-01  0.51372102317E+00  0.51953975790E+00  0.51100000000E-03 0. -1.
        -11    1    3    3    0    0 -0.22160782499E+02 -0.16505847938E+02 -0.19351582956E+01  0.27699966336E+02  0.51100000000E-03 0.  1.
        -12    1    3    3    0    0 -0.13935702135E+02 -0.10343717479E+02  0.44755922527E+01  0.17922812595E+02  0.00000000000E+00 0.  1.
</event>
<event>
 7    1  0.1466590E-008  0.4614232E+02  0.7816164E-02  0.1320468E+00
        -11   -1    0    0    0    0  0.00000000000E+00  0.00000000000E+00  0.45593999997E+02  0.45594000000E+02  0.51100000000E-03 0.  1.
         11   -1    0    0    0    0 -0.00000000000E+00 -0.00000000000E+00 -0.45593999997E+02  0.45594000000E+02  0.51100000000E-03 0. -1.
    9900012    2    1    2    0    0  0.12579753059E+02  0.36607157360E+02  0.23038647427E+02  0.46142318383E+02  0.10000005675E+02 0.  0.
         12    1    1    2    0    0 -0.12579753059E+02 -0.36607157360E+02 -0.23038647427E+02  0.45045681617E+02  0.00000000000E+00 0. -1.
         11    1    3    3    0    0  0.44647681694E+01  0.22748098488E+02  0.15346414722E+02  0.27801485297E+02  0.51100000000E-03 0. -1.
        -11    1    3    3    0    0  0.66123540787E+01  0.12982851100E+02  0.55731752724E+01  0.15599292677E+02  0.51100000000E-03 0.  1.
         12    1    3    3    0    0  0.15026308110E+01  0.87620777244E+00  0.21190574330E+01  0.27415404099E+01  0.00000000000E+00 0. -1.
</event>
<event>
 7    1  0.1466590E-008  0.4614232E+02  0.7816164E-02  0.1320468E+00
        -11   -1    0    0    0    0  0.00000000000E+00  0.00000000000E+00  0.45593999997E+02  0.45594000000E+02  0.51100000000E-03 0. -1.
         11   -1    0    0    0    0 -0.00000000000E+00 -0.00000000000E+00 -0.45593999997E+02  0.45594000000E+02  0.51100000000E-03 0.  1.
    9900012    2    1    2    0    0  0.75402059069E+01  0.31930634173E+02 -0.30865731755E+02  0.46142317626E+02  0.99999987665E+01 0.  0.
         12    1    1    2    0    0 -0.75402059069E+01 -0.31930634173E+02  0.30865731755E+02  0.45045682374E+02  0.00000000000E+00 0. -1.
         11    1    3    3    0    0  0.32725523414E+01  0.40685250734E+01 -0.23727668631E+01  0.57351999048E+01  0.51100000000E-03 0. -1.
        -11    1    3    3    0    0  0.53549198993E+01  0.21837875827E+02 -0.21444143945E+02  0.31071197234E+02  0.51100000000E-03 0.  1.
        -12    1    3    3    0    0 -0.10872663338E+01  0.60242332725E+01 -0.70488209468E+01  0.93359204872E+01  0.00000000000E+00 0.  1.
</event>
