<event>
 7    1  0.2414091E-009  0.4778727E+02  0.7816164E-02  0.1312668E+00
        -11   -1    0    0    0    0  0.00000000000E+00  0.00000000000E+00  0.45593999997E+02  0.45594000000E+02  0.51100000000E-03 0.  1.
         11   -1    0    0    0    0 -0.00000000000E+00 -0.00000000000E+00 -0.45593999997E+02  0.45594000000E+02  0.51100000000E-03 0. -1.
    9900012    2    1    2    0    0 -0.26472036783E+02 -0.12761280225E+02  0.31937503797E+02  0.47787272434E+02  0.20000006336E+02 0.  0.
         12    1    1    2    0    0  0.26472036783E+02  0.12761280225E+02 -0.31937503797E+02  0.43400727566E+02  0.00000000000E+00 0. -1.
         11    1    3    3    0    0 -0.11593604888E+02 -0.10567078972E+01  0.71594351227E+01  0.13666960797E+02  0.51100000000E-03 0. -1.
        -11    1    3    3    0    0  0.32453051000E+00 -0.62688735383E+00 -0.15845182815E+01  0.17346487402E+01  0.51100000000E-03 0.  1.
        -12    1    3    3    0    0 -0.15202962405E+02 -0.11077684974E+02  0.26362586956E+02  0.32385662897E+02  0.00000000000E+00 0.  1.
</event>
<event>
 7    1  0.2414091E-009  0.4778727E+02  0.7816164E-02  0.1312668E+00
        -11   -1    0    0    0    0  0.00000000000E+00  0.00000000000E+00  0.45593999997E+02  0.45594000000E+02  0.51100000000E-03 0.  1.
         11   -1    0    0    0    0 -0.00000000000E+00 -0.00000000000E+00 -0.45593999997E+02  0.45594000000E+02  0.51100000000E-03 0. -1.
    9900012    2    1    2    0    0 -0.53992075969E+01 -0.29955069943E+02  0.30938094620E+02  0.47787270090E+02  0.19999995648E+02 0.  0.
         12    1    1    2    0    0  0.53992075969E+01  0.29955069943E+02 -0.30938094620E+02  0.43400729910E+02  0.00000000000E+00 0. -1.
         11    1    3    3    0    0  0.43206843546E+01 -0.53134199924E+01  0.63019706017E+01  0.93067491119E+01  0.51100000000E-03 0. -1.
        -11    1    3    3    0    0  0.22348392589E+01 -0.94047597461E-01  0.22509835429E+01  0.31733702329E+01  0.51100000000E-03 0.  1.
        -12    1    3    3    0    0 -0.11954731210E+02 -0.24547602354E+02  0.22385140476E+02  0.35307150745E+02  0.00000000000E+00 0.  1.
</event>
<event>
 7    1  0.2414091E-009  0.4778727E+02  0.7816164E-02  0.1312668E+00
        -11   -1    0    0    0    0  0.00000000000E+00  0.00000000000E+00  0.45593999997E+02  0.45594000000E+02  0.51100000000E-03 0. -1.
         11   -1    0    0    0    0 -0.00000000000E+00 -0.00000000000E+00 -0.45593999997E+02  0.45594000000E+02  0.51100000000E-03 0.  1.
    9900012    2    1    2    0    0  0.15735003750E+02 -0.20382462315E+02 -0.34936917377E+02  0.47787270641E+02  0.19999998161E+02 0.  0.
         12    1    1    2    0    0 -0.15735003750E+02  0.20382462315E+02  0.34936917377E+02  0.43400729359E+02  0.00000000000E+00 0. -1.
         11    1    3    3    0    0  0.13014855092E+02 -0.68386679420E+01 -0.18041039001E+02  0.23273008417E+02  0.51100000000E-03 0. -1.
        -11    1    3    3    0    0  0.49929767040E+01 -0.13005039808E+02 -0.17227443976E+02  0.22155037870E+02  0.51100000000E-03 0.  1.
         12    1    3    3    0    0 -0.22728280459E+01 -0.53875456474E+00  0.33156559990E+00  0.23592243543E+01  0.00000000000E+00 0. -1.
</event>
<event>
 7    1  0.2414091E-009  0.4778727E+02  0.7816164E-02  0.1312668E+00
        -11   -1    0    0    0    0  0.00000000000E+00  0.00000000000E+00  0.45593999997E+02  0.45594000000E+02  0.51100000000E-03 0.  1.
         11   -1    0    0    0    0 -0.00000000000E+00 -0.00000000000E+00 -0.45593999997E+02  0.45594000000E+02  0.51100000000E-03 0. -1.
    9900012    2    1    2    0    0  0.21068193778E+02  0.30342912865E+02  0.22782932597E+02  0.47787272265E+02  0.20000005567E+02 0.  0.
         12    1    1    2    0    0 -0.21068193778E+02 -0.30342912865E+02 -0.22782932597E+02  0.43400727735E+02  0.00000000000E+00 0. -1.
         11    1    3    3    0    0 -0.58420364772E+00  0.11301190085E+02  0.44950188170E+01  0.12176345332E+02  0.51100000000E-03 0. -1.
        -11    1    3    3    0    0  0.49565984043E+01  0.10883336851E+02  0.66187401017E+01  0.13668306755E+02  0.51100000000E-03 0.  1.
        -12    1    3    3    0    0  0.16695799022E+02  0.81583859285E+01  0.11669173678E+02  0.21942620178E+02  0.00000000000E+00 0.  1.
</event>
<event>
 7    1  0.2414091E-009  0.4778728E+02  0.7816164E-02  0.1312668E+00
        -11   -1    0    0    0    0  0.00000000000E+00  0.00000000000E+00  0.45593999997E+02  0.45594000000E+02  0.51100000000E-03 0.  1.
         11   -1    0    0    0    0 -0.00000000000E+00 -0.00000000000E+00 -0.45593999997E+02  0.45594000000E+02  0.51100000000E-03 0. -1.
    9900012    2    1    2    0    0  0.17508529629E+02 -0.15630604446E+02  0.36506965301E+02  0.47787275114E+02  0.20000018555E+02 0.  0.
         12    1    1    2    0    0 -0.17508529629E+02  0.15630604446E+02 -0.36506965301E+02  0.43400724886E+02  0.00000000000E+00 0. -1.
         11    1    3    3    0    0  0.90446685820E+01 -0.30521034017E+01  0.55678819710E+01  0.11050912851E+02  0.51100000000E-03 0. -1.
        -11    1    3    3    0    0  0.11344318410E+02 -0.87533667095E+01  0.26873265590E+02  0.30454677681E+02  0.51100000000E-03 0.  1.
         12    1    3    3    0    0 -0.28804573621E+01 -0.38251343349E+01  0.40658177401E+01  0.62816845823E+01  0.00000000000E+00 0. -1.
</event>
<event>
 7    1  0.2414091E-009  0.4778727E+02  0.7816164E-02  0.1312668E+00
        -11   -1    0    0    0    0  0.00000000000E+00  0.00000000000E+00  0.45593999997E+02  0.45594000000E+02  0.51100000000E-03 0. -1.
         11   -1    0    0    0    0 -0.00000000000E+00 -0.00000000000E+00 -0.45593999997E+02  0.45594000000E+02  0.51100000000E-03 0.  1.
    9900012    2    1    2    0    0 -0.15010997024E+02 -0.18921282143E+02 -0.36059372195E+02  0.47787271058E+02  0.20000000064E+02 0.  0.
         12    1    1    2    0    0  0.15010997024E+02  0.18921282143E+02  0.36059372195E+02  0.43400728942E+02  0.00000000000E+00 0. -1.
         11    1    3    3    0    0 -0.36903017237E+01 -0.10346427241E+02 -0.97281035282E+01  0.14673202853E+02  0.51100000000E-03 0.  1.
        -11    1    3    3    0    0 -0.11100325630E+02 -0.11136875314E+02 -0.15867127763E+02  0.22338598088E+02  0.51100000000E-03 0. -1.
         12    1    3    3    0    0 -0.22036967116E+00  0.25620204123E+01 -0.10464140903E+02  0.10775470116E+02  0.00000000000E+00 0. -1.
</event>
<event>
 7    1  0.2414091E-009  0.4778729E+02  0.7816164E-02  0.1312668E+00
        -11   -1    0    0    0    0  0.00000000000E+00  0.00000000000E+00  0.45593999997E+02  0.45594000000E+02  0.51100000000E-03 0. -1.
         11   -1    0    0    0    0 -0.00000000000E+00 -0.00000000000E+00 -0.45593999997E+02  0.45594000000E+02  0.51100000000E-03 0.  1.
    9900012    2    1    2    0    0 -0.34139370103E+02 -0.11833792676E+02 -0.24043418679E+02  0.47787294684E+02  0.20000107781E+02 0.  0.
         12    1    1    2    0    0  0.34139370103E+02  0.11833792676E+02  0.24043418679E+02  0.43400705316E+02  0.00000000000E+00 0. -1.
         11    1    3    3    0    0 -0.22452023127E+01 -0.24012052315E+01  0.18364894771E+01  0.37655562470E+01  0.51100000000E-03 0. -1.
        -11    1    3    3    0    0 -0.75024789836E+01 -0.77360535852E+01 -0.11000753289E+02  0.15399684709E+02  0.51100000000E-03 0.  1.
         12    1    3    3    0    0 -0.24391688807E+02 -0.16965338598E+01 -0.14879154868E+02  0.28622053727E+02  0.00000000000E+00 0. -1.
</event>
<event>
 7    1  0.2414091E-009  0.4778726E+02  0.7816164E-02  0.1312668E+00
        -11   -1    0    0    0    0  0.00000000000E+00  0.00000000000E+00  0.45593999997E+02  0.45594000000E+02  0.51100000000E-03 0.  1.
         11   -1    0    0    0    0 -0.00000000000E+00 -0.00000000000E+00 -0.45593999997E+02  0.45594000000E+02  0.51100000000E-03 0. -1.
    9900012    2    1    2    0    0  0.24735975610E+01 -0.23246956225E+02  0.36566162924E+02  0.47787263490E+02  0.19999965557E+02 0.  0.
         12    1    1    2    0    0 -0.24735975610E+01  0.23246956225E+02 -0.36566162924E+02  0.43400736510E+02  0.00000000000E+00 0. -1.
         11    1    3    3    0    0 -0.57690446496E+00 -0.15501287643E+01  0.10835321626E+01  0.19773113453E+01  0.51100000000E-03 0. -1.
        -11    1    3    3    0    0  0.43429023557E+01 -0.22979685903E+02  0.21686175519E+02  0.31893839123E+02  0.51100000000E-03 0.  1.
         12    1    3    3    0    0 -0.12924003298E+01  0.12828584425E+01  0.13796455242E+02  0.13916113022E+02  0.00000000000E+00 0. -1.
</event>
<event>
 7    1  0.2414091E-009  0.4778727E+02  0.7816164E-02  0.1312668E+00
        -11   -1    0    0    0    0  0.00000000000E+00  0.00000000000E+00  0.45593999997E+02  0.45594000000E+02  0.51100000000E-03 0.  1.
         11   -1    0    0    0    0 -0.00000000000E+00 -0.00000000000E+00 -0.45593999997E+02  0.45594000000E+02  0.51100000000E-03 0. -1.
    9900012    2    1    2    0    0  0.33661537722E+02  0.26711812297E+02  0.60830325492E+01  0.47787270479E+02  0.19999997420E+02 0.  0.
         12    1    1    2    0    0 -0.33661537722E+02 -0.26711812297E+02 -0.60830325492E+01  0.43400729521E+02  0.00000000000E+00 0. -1.
         11    1    3    3    0    0  0.95227994385E+01  0.26726308835E+01  0.63712557690E-01  0.98909415394E+01  0.51100000000E-03 0. -1.
        -11    1    3    3    0    0  0.14715457073E+02  0.43697058134E+01  0.32061324107E+00  0.15353885465E+02  0.51100000000E-03 0.  1.
        -12    1    3    3    0    0  0.94232812102E+01  0.19669475600E+02  0.56987067505E+01  0.22542443474E+02  0.00000000000E+00 0.  1.
</event>
<event>
 7    1  0.2414091E-009  0.4778727E+02  0.7816164E-02  0.1312668E+00
        -11   -1    0    0    0    0  0.00000000000E+00  0.00000000000E+00  0.45593999997E+02  0.45594000000E+02  0.51100000000E-03 0.  1.
         11   -1    0    0    0    0 -0.00000000000E+00 -0.00000000000E+00 -0.45593999997E+02  0.45594000000E+02  0.51100000000E-03 0. -1.
    9900012    2    1    2    0    0 -0.30327637502E+02 -0.21282455834E+02  0.22603417121E+02  0.47787274334E+02  0.20000014999E+02 0.  0.
         12    1    1    2    0    0  0.30327637502E+02  0.21282455834E+02 -0.22603417121E+02  0.43400725666E+02  0.00000000000E+00 0. -1.
         11    1    3    3    0    0 -0.25932112125E+01 -0.84001475646E+01  0.83006392447E+01  0.12090816169E+02  0.51100000000E-03 0. -1.
        -11    1    3    3    0    0 -0.11603815772E+02 -0.11310565283E+02  0.47608760895E+01  0.16889149442E+02  0.51100000000E-03 0.  1.
         12    1    3    3    0    0 -0.16130610518E+02 -0.15717429867E+01  0.95419017867E+01  0.18807308723E+02  0.00000000000E+00 0. -1.
</event>
<event>
 7    1  0.2414091E-009  0.4778727E+02  0.7816164E-02  0.1312668E+00
        -11   -1    0    0    0    0  0.00000000000E+00  0.00000000000E+00  0.45593999997E+02  0.45594000000E+02  0.51100000000E-03 0.  1.
         11   -1    0    0    0    0 -0.00000000000E+00 -0.00000000000E+00 -0.45593999997E+02  0.45594000000E+02  0.51100000000E-03 0. -1.
    9900012    2    1    2    0    0  0.73493507570E+01  0.12081570346E+02  0.41032256704E+02  0.47787269720E+02  0.19999993961E+02 0.  0.
         12    1    1    2    0    0 -0.73493507570E+01 -0.12081570346E+02 -0.41032256704E+02  0.43400730280E+02  0.00000000000E+00 0. -1.
         11    1    3    3    0    0  0.10435276527E+02  0.10575354333E+02  0.13938686994E+02  0.20372042383E+02  0.51100000000E-03 0. -1.
        -11    1    3    3    0    0  0.31065633282E+00  0.42563556194E-01  0.74429940188E+00  0.80765145589E+00  0.51100000000E-03 0.  1.
        -12    1    3    3    0    0 -0.33965821026E+01  0.14636524569E+01  0.26349270308E+02  0.26607575881E+02  0.00000000000E+00 0.  1.
</event>
<event>
 7    1  0.2414091E-009  0.4778727E+02  0.7816164E-02  0.1312668E+00
        -11   -1    0    0    0    0  0.00000000000E+00  0.00000000000E+00  0.45593999997E+02  0.45594000000E+02  0.51100000000E-03 0. -1.
         11   -1    0    0    0    0 -0.00000000000E+00 -0.00000000000E+00 -0.45593999997E+02  0.45594000000E+02  0.51100000000E-03 0.  1.
    9900012    2    1    2    0    0 -0.77041499980E+01  0.23485079864E+02 -0.35675210762E+02  0.47787267675E+02  0.19999984637E+02 0.  0.
         12    1    1    2    0    0  0.77041499980E+01 -0.23485079864E+02  0.35675210762E+02  0.43400732325E+02  0.00000000000E+00 0. -1.
         11    1    3    3    0    0 -0.11007484584E+01  0.23847236821E+01 -0.10177300874E+02  0.10510756754E+02  0.51100000000E-03 0. -1.
        -11    1    3    3    0    0 -0.14453894661E+01  0.81553187413E+01 -0.21094953250E+02  0.22662643874E+02  0.51100000000E-03 0.  1.
        -12    1    3    3    0    0 -0.51580120735E+01  0.12945037441E+02 -0.44029566380E+01  0.14613867047E+02  0.00000000000E+00 0.  1.
</event>
<event>
 7    1  0.2414091E-009  0.4778727E+02  0.7816164E-02  0.1312668E+00
        -11   -1    0    0    0    0  0.00000000000E+00  0.00000000000E+00  0.45593999997E+02  0.45594000000E+02  0.51100000000E-03 0. -1.
         11   -1    0    0    0    0 -0.00000000000E+00 -0.00000000000E+00 -0.45593999997E+02  0.45594000000E+02  0.51100000000E-03 0.  1.
    9900012    2    1    2    0    0  0.36679464886E+02  0.23020828339E+02  0.28777857238E+01  0.47787270370E+02  0.19999996926E+02 0.  0.
         12    1    1    2    0    0 -0.36679464886E+02 -0.23020828339E+02 -0.28777857238E+01  0.43400729630E+02  0.00000000000E+00 0. -1.
         11    1    3    3    0    0  0.10506708090E+02  0.95448931351E+01 -0.67872564813E+01  0.15734126943E+02  0.51100000000E-03 0. -1.
        -11    1    3    3    0    0  0.88904243519E+01  0.79958376066E+01  0.11184683853E+01  0.12009331204E+02  0.51100000000E-03 0.  1.
        -12    1    3    3    0    0  0.17282332443E+02  0.54800975978E+01  0.85465738197E+01  0.20043812223E+02  0.00000000000E+00 0.  1.
</event>
<event>
 7    1  0.2414091E-009  0.4778727E+02  0.7816164E-02  0.1312668E+00
        -11   -1    0    0    0    0  0.00000000000E+00  0.00000000000E+00  0.45593999997E+02  0.45594000000E+02  0.51100000000E-03 0. -1.
         11   -1    0    0    0    0 -0.00000000000E+00 -0.00000000000E+00 -0.45593999997E+02  0.45594000000E+02  0.51100000000E-03 0.  1.
    9900012    2    1    2    0    0 -0.20944444252E+02 -0.37373344988E+02 -0.69416672894E+01  0.47787269530E+02  0.19999993095E+02 0.  0.
         12    1    1    2    0    0  0.20944444252E+02  0.37373344988E+02  0.69416672894E+01  0.43400730470E+02  0.00000000000E+00 0. -1.
         11    1    3    3    0    0  0.13191920321E+01 -0.28908066311E+01  0.21068974741E+01  0.38126169259E+01  0.51100000000E-03 0.  1.
        -11    1    3    3    0    0 -0.79808809721E+01 -0.16580512644E+02  0.20689776173E+01  0.18517249506E+02  0.51100000000E-03 0. -1.
        -12    1    3    3    0    0 -0.14282755312E+02 -0.17902025712E+02 -0.11117542381E+02  0.25457403098E+02  0.00000000000E+00 0.  1.
</event>
<event>
 7    1  0.2414091E-009  0.4778727E+02  0.7816164E-02  0.1312668E+00
        -11   -1    0    0    0    0  0.00000000000E+00  0.00000000000E+00  0.45593999997E+02  0.45594000000E+02  0.51100000000E-03 0.  1.
         11   -1    0    0    0    0 -0.00000000000E+00 -0.00000000000E+00 -0.45593999997E+02  0.45594000000E+02  0.51100000000E-03 0. -1.
    9900012    2    1    2    0    0 -0.45525374592E+01  0.32521761852E+02  0.28376623160E+02  0.47787270361E+02  0.19999996882E+02 0.  0.
         12    1    1    2    0    0  0.45525374592E+01 -0.32521761852E+02 -0.28376623160E+02  0.43400729639E+02  0.00000000000E+00 0. -1.
         11    1    3    3    0    0 -0.14917131959E+01 -0.83969911503E+00  0.62073827713E+01  0.64390918609E+01  0.51100000000E-03 0. -1.
        -11    1    3    3    0    0 -0.41486462893E+00  0.11944378828E+02  0.13662160717E+02  0.18151995317E+02  0.51100000000E-03 0.  1.
        -12    1    3    3    0    0 -0.26459596344E+01  0.21417082139E+02  0.85070796716E+01  0.23196183183E+02  0.00000000000E+00 0.  1.
</event>
<event>
 7    1  0.2414091E-009  0.4778727E+02  0.7816164E-02  0.1312668E+00
        -11   -1    0    0    0    0  0.00000000000E+00  0.00000000000E+00  0.45593999997E+02  0.45594000000E+02  0.51100000000E-03 0. -1.
         11   -1    0    0    0    0 -0.00000000000E+00 -0.00000000000E+00 -0.45593999997E+02  0.45594000000E+02  0.51100000000E-03 0.  1.
    9900012    2    1    2    0    0  0.23572705301E+02 -0.20795627498E+02 -0.29924784586E+02  0.47787270850E+02  0.19999999113E+02 0.  0.
         12    1    1    2    0    0 -0.23572705301E+02  0.20795627498E+02  0.29924784586E+02  0.43400729150E+02  0.00000000000E+00 0. -1.
         11    1    3    3    0    0  0.12412535150E+02 -0.15958567105E+02 -0.26346342518E+02  0.33209586827E+02  0.51100000000E-03 0. -1.
        -11    1    3    3    0    0  0.39444611116E+01 -0.42421026907E+01 -0.44233406037E+01  0.72883572262E+01  0.51100000000E-03 0.  1.
         12    1    3    3    0    0  0.72157090393E+01 -0.59495770215E+00  0.84489853568E+00  0.72893267963E+01  0.00000000000E+00 0. -1.
</event>
<event>
 7    1  0.2414091E-009  0.4778724E+02  0.7816164E-02  0.1312668E+00
        -11   -1    0    0    0    0  0.00000000000E+00  0.00000000000E+00  0.45593999997E+02  0.45594000000E+02  0.51100000000E-03 0.  1.
         11   -1    0    0    0    0 -0.00000000000E+00 -0.00000000000E+00 -0.45593999997E+02  0.45594000000E+02  0.51100000000E-03 0. -1.
    9900012    2    1    2    0    0  0.31140599557E+02 -0.24337693277E+02  0.17932242438E+02  0.47787244549E+02  0.19999879198E+02 0.  0.
         12    1    1    2    0    0 -0.31140599557E+02  0.24337693277E+02 -0.17932242438E+02  0.43400755451E+02  0.00000000000E+00 0. -1.
         11    1    3    3    0    0  0.10927635688E+02 -0.17657466637E+00  0.17644609000E+01  0.11070579157E+02  0.51100000000E-03 0. -1.
        -11    1    3    3    0    0  0.29967200413E+01 -0.47777606266E+01 -0.85227237756E+00  0.57038317014E+01  0.51100000000E-03 0.  1.
        -12    1    3    3    0    0  0.17216243828E+02 -0.19383357984E+02  0.17020053915E+02  0.31012833691E+02  0.00000000000E+00 0.  1.
</event>
<event>
 7    1  0.2414091E-009  0.4778727E+02  0.7816164E-02  0.1312668E+00
        -11   -1    0    0    0    0  0.00000000000E+00  0.00000000000E+00  0.45593999997E+02  0.45594000000E+02  0.51100000000E-03 0. -1.
         11   -1    0    0    0    0 -0.00000000000E+00 -0.00000000000E+00 -0.45593999997E+02  0.45594000000E+02  0.51100000000E-03 0.  1.
    9900012    2    1    2    0    0 -0.20733009927E+02  0.23449287274E+02 -0.30064873473E+02  0.47787269692E+02  0.19999993835E+02 0.  0.
         12    1    1    2    0    0  0.20733009927E+02 -0.23449287274E+02  0.30064873473E+02  0.43400730308E+02  0.00000000000E+00 0. -1.
         11    1    3    3    0    0 -0.28248386205E+01  0.21234448636E+01  0.79965351423E+00  0.36232826725E+01  0.51100000000E-03 0. -1.
        -11    1    3    3    0    0 -0.28889696078E+01 -0.21406594665E+01 -0.23376094908E+01  0.42887045525E+01  0.51100000000E-03 0.  1.
        -12    1    3    3    0    0 -0.15019201699E+02  0.23466501877E+02 -0.28526917496E+02  0.39875282467E+02  0.00000000000E+00 0.  1.
</event>
<event>
 7    1  0.2414091E-009  0.4778727E+02  0.7816164E-02  0.1312668E+00
        -11   -1    0    0    0    0  0.00000000000E+00  0.00000000000E+00  0.45593999997E+02  0.45594000000E+02  0.51100000000E-03 0.  1.
         11   -1    0    0    0    0 -0.00000000000E+00 -0.00000000000E+00 -0.45593999997E+02  0.45594000000E+02  0.51100000000E-03 0. -1.
    9900012    2    1    2    0    0 -0.21520112235E+02  0.37633638628E+02 -0.20536266895E+01  0.47787269942E+02  0.19999994972E+02 0.  0.
         12    1    1    2    0    0  0.21520112235E+02 -0.37633638628E+02  0.20536266895E+01  0.43400730058E+02  0.00000000000E+00 0. -1.
         11    1    3    3    0    0  0.23322096134E+00 -0.13966479018E+01 -0.11745843531E+01  0.18397461896E+01  0.51100000000E-03 0. -1.
        -11    1    3    3    0    0 -0.65797249412E+01  0.16655084025E+02 -0.50183389954E+01  0.18597535608E+02  0.51100000000E-03 0.  1.
        -12    1    3    3    0    0 -0.15173608256E+02  0.22375202505E+02  0.41392966590E+01  0.27349988144E+02  0.00000000000E+00 0.  1.
</event>
<event>
 7    1  0.2414091E-009  0.4778727E+02  0.7816164E-02  0.1312668E+00
        -11   -1    0    0    0    0  0.00000000000E+00  0.00000000000E+00  0.45593999997E+02  0.45594000000E+02  0.51100000000E-03 0.  1.
         11   -1    0    0    0    0 -0.00000000000E+00 -0.00000000000E+00 -0.45593999997E+02  0.45594000000E+02  0.51100000000E-03 0. -1.
    9900012    2    1    2    0    0 -0.25509607044E+00 -0.29999784695E+02  0.31361935331E+02  0.47787272547E+02  0.20000006849E+02 0.  0.
         12    1    1    2    0    0  0.25509607044E+00  0.29999784695E+02 -0.31361935331E+02  0.43400727453E+02  0.00000000000E+00 0. -1.
         11    1    3    3    0    0  0.41151894715E+01 -0.12823300822E+02  0.20432269999E+02  0.24471401389E+02  0.51100000000E-03 0. -1.
        -11    1    3    3    0    0 -0.11258992060E+01  0.53526601484E+00 -0.10984860727E+01  0.16615747476E+01  0.51100000000E-03 0.  1.
        -12    1    3    3    0    0 -0.32443863359E+01 -0.17711749888E+02  0.12028151405E+02  0.21654296410E+02  0.00000000000E+00 0.  1.
</event>
<event>
 7    1  0.2414091E-009  0.4778727E+02  0.7816164E-02  0.1312668E+00
        -11   -1    0    0    0    0  0.00000000000E+00  0.00000000000E+00  0.45593999997E+02  0.45594000000E+02  0.51100000000E-03 0. -1.
         11   -1    0    0    0    0 -0.00000000000E+00 -0.00000000000E+00 -0.45593999997E+02  0.45594000000E+02  0.51100000000E-03 0.  1.
    9900012    2    1    2    0    0  0.42602917284E+02  0.80150645105E+01 -0.20912717207E+01  0.47787271462E+02  0.20000001905E+02 0.  0.
         12    1    1    2    0    0 -0.42602917284E+02 -0.80150645105E+01  0.20912717207E+01  0.43400728538E+02  0.00000000000E+00 0. -1.
         11    1    3    3    0    0  0.50604247653E+01  0.52570351662E+01  0.12631324499E+01  0.74053913732E+01  0.51100000000E-03 0. -1.
        -11    1    3    3    0    0  0.92089006162E+01  0.28433197386E+01  0.49791298114E+01  0.10848043678E+02  0.51100000000E-03 0.  1.
        -12    1    3    3    0    0  0.28333591902E+02 -0.85290394328E-01 -0.83335339820E+01  0.29533836411E+02  0.00000000000E+00 0.  1.
</event>
<event>
 7    1  0.2414091E-009  0.4778727E+02  0.7816164E-02  0.1312668E+00
        -11   -1    0    0    0    0  0.00000000000E+00  0.00000000000E+00  0.45593999997E+02  0.45594000000E+02  0.51100000000E-03 0.  1.
         11   -1    0    0    0    0 -0.00000000000E+00 -0.00000000000E+00 -0.45593999997E+02  0.45594000000E+02  0.51100000000E-03 0. -1.
    9900012    2    1    2    0    0 -0.18511466922E+02 -0.28548425502E+02  0.26943205992E+02  0.47787270105E+02  0.19999995717E+02 0.  0.
         12    1    1    2    0    0  0.18511466922E+02  0.28548425502E+02 -0.26943205992E+02  0.43400729895E+02  0.00000000000E+00 0. -1.
         11    1    3    3    0    0 -0.25345458072E+01 -0.64944547204E+01  0.47086141533E+01  0.84126637916E+01  0.51100000000E-03 0. -1.
        -11    1    3    3    0    0 -0.16037837180E+02 -0.74409447180E+01  0.14346202045E+02  0.22768254064E+02  0.51100000000E-03 0.  1.
        -12    1    3    3    0    0  0.60916065327E-01 -0.14613026064E+02  0.78883897932E+01  0.16606352250E+02  0.00000000000E+00 0.  1.
</event>
<event>
 7    1  0.2414091E-009  0.4778721E+02  0.7816164E-02  0.1312668E+00
        -11   -1    0    0    0    0  0.00000000000E+00  0.00000000000E+00  0.45593999997E+02  0.45594000000E+02  0.51100000000E-03 0.  1.
         11   -1    0    0    0    0 -0.00000000000E+00 -0.00000000000E+00 -0.45593999997E+02  0.45594000000E+02  0.51100000000E-03 0. -1.
    9900012    2    1    2    0    0 -0.42792829151E+02 -0.14245128296E+01  0.70973714247E+01  0.47787214930E+02  0.19999744151E+02 0.  0.
         12    1    1    2    0    0  0.42792829151E+02  0.14245128296E+01 -0.70973714247E+01  0.43400785070E+02  0.00000000000E+00 0. -1.
         11    1    3    3    0    0 -0.52068722208E+01 -0.63555771504E+00 -0.84551675747E+00  0.53132241418E+01  0.51100000000E-03 0. -1.
        -11    1    3    3    0    0 -0.26267722992E+02 -0.50305098263E+01  0.12544363005E+02  0.29540825035E+02  0.51100000000E-03 0.  1.
        -12    1    3    3    0    0 -0.11318233938E+02  0.42415547118E+01 -0.46014748228E+01  0.12933165753E+02  0.00000000000E+00 0.  1.
</event>
<event>
 7    1  0.2414091E-009  0.4778728E+02  0.7816164E-02  0.1312668E+00
        -11   -1    0    0    0    0  0.00000000000E+00  0.00000000000E+00  0.45593999997E+02  0.45594000000E+02  0.51100000000E-03 0.  1.
         11   -1    0    0    0    0 -0.00000000000E+00 -0.00000000000E+00 -0.45593999997E+02  0.45594000000E+02  0.51100000000E-03 0. -1.
    9900012    2    1    2    0    0 -0.56659531473E+01  0.32791259188E+00  0.43028040096E+02  0.47787276662E+02  0.20000025613E+02 0.  0.
         12    1    1    2    0    0  0.56659531473E+01 -0.32791259188E+00 -0.43028040096E+02  0.43400723338E+02  0.00000000000E+00 0. -1.
         11    1    3    3    0    0 -0.10385876714E+01  0.20492226144E+01  0.18117111544E+01  0.29257948053E+01  0.51100000000E-03 0. -1.
        -11    1    3    3    0    0 -0.76332559050E+01 -0.35017655772E+01  0.40413410137E+02  0.41276781331E+02  0.51100000000E-03 0.  1.
         12    1    3    3    0    0  0.30058904291E+01  0.17804555548E+01  0.80291880515E+00  0.35847005261E+01  0.00000000000E+00 0. -1.
</event>
<event>
 7    1  0.2414091E-009  0.4778727E+02  0.7816164E-02  0.1312668E+00
        -11   -1    0    0    0    0  0.00000000000E+00  0.00000000000E+00  0.45593999997E+02  0.45594000000E+02  0.51100000000E-03 0.  1.
         11   -1    0    0    0    0 -0.00000000000E+00 -0.00000000000E+00 -0.45593999997E+02  0.45594000000E+02  0.51100000000E-03 0. -1.
    9900012    2    1    2    0    0 -0.20847045465E+01 -0.36869692321E+02  0.22801381445E+02  0.47787271888E+02  0.20000003845E+02 0.  0.
         12    1    1    2    0    0  0.20847045465E+01  0.36869692321E+02 -0.22801381445E+02  0.43400728112E+02  0.00000000000E+00 0. -1.
         11    1    3    3    0    0 -0.35599572844E+00  0.33979706176E+00  0.25035153373E+01  0.25514278958E+01  0.51100000000E-03 0. -1.
        -11    1    3    3    0    0 -0.16453987174E+01 -0.40007954828E+01 -0.24608443668E+01  0.49768922726E+01  0.51100000000E-03 0.  1.
        -12    1    3    3    0    0 -0.83310100643E-01 -0.33208693900E+02  0.22758710474E+02  0.40258951719E+02  0.00000000000E+00 0.  1.
</event>
<event>
 7    1  0.2414091E-009  0.4778727E+02  0.7816164E-02  0.1312668E+00
        -11   -1    0    0    0    0  0.00000000000E+00  0.00000000000E+00  0.45593999997E+02  0.45594000000E+02  0.51100000000E-03 0.  1.
         11   -1    0    0    0    0 -0.00000000000E+00 -0.00000000000E+00 -0.45593999997E+02  0.45594000000E+02  0.51100000000E-03 0. -1.
    9900012    2    1    2    0    0  0.34476827883E+02  0.20889569486E+02  0.16080962810E+02  0.47787272598E+02  0.20000007081E+02 0.  0.
         12    1    1    2    0    0 -0.34476827883E+02 -0.20889569486E+02 -0.16080962810E+02  0.43400727402E+02  0.00000000000E+00 0. -1.
         11    1    3    3    0    0  0.99648094381E+00 -0.18881045250E+01 -0.78984987407E+00  0.22763514785E+01  0.51100000000E-03 0. -1.
        -11    1    3    3    0    0  0.82971130602E+01  0.79058579883E+01 -0.54152694749E+00  0.11473357284E+02  0.51100000000E-03 0.  1.
        -12    1    3    3    0    0  0.25183233879E+02  0.14871816023E+02  0.17412339632E+02  0.34037563835E+02  0.00000000000E+00 0.  1.
</event>
<event>
 7    1  0.2414091E-009  0.4778727E+02  0.7816164E-02  0.1312668E+00
        -11   -1    0    0    0    0  0.00000000000E+00  0.00000000000E+00  0.45593999997E+02  0.45594000000E+02  0.51100000000E-03 0.  1.
         11   -1    0    0    0    0 -0.00000000000E+00 -0.00000000000E+00 -0.45593999997E+02  0.45594000000E+02  0.51100000000E-03 0. -1.
    9900012    2    1    2    0    0 -0.14230095506E+02  0.27663287848E+02  0.30263353368E+02  0.47787266484E+02  0.19999979205E+02 0.  0.
         12    1    1    2    0    0  0.14230095506E+02 -0.27663287848E+02 -0.30263353368E+02  0.43400733516E+02  0.00000000000E+00 0. -1.
         11    1    3    3    0    0 -0.54610071345E+01  0.35479717542E+01  0.61900438035E+01  0.89848397338E+01  0.51100000000E-03 0. -1.
        -11    1    3    3    0    0 -0.78962293646E+01  0.19219917168E+02  0.26161398595E+02  0.33409196800E+02  0.51100000000E-03 0.  1.
         12    1    3    3    0    0 -0.87285900698E+00  0.48953989260E+01 -0.20880890305E+01  0.53932299497E+01  0.00000000000E+00 0. -1.
</event>
<event>
 7    1  0.2414091E-009  0.4778727E+02  0.7816164E-02  0.1312668E+00
        -11   -1    0    0    0    0  0.00000000000E+00  0.00000000000E+00  0.45593999997E+02  0.45594000000E+02  0.51100000000E-03 0.  1.
         11   -1    0    0    0    0 -0.00000000000E+00 -0.00000000000E+00 -0.45593999997E+02  0.45594000000E+02  0.51100000000E-03 0. -1.
    9900012    2    1    2    0    0  0.46933943818E+01 -0.35294356497E+02  0.24817402823E+02  0.47787273805E+02  0.20000012587E+02 0.  0.
         12    1    1    2    0    0 -0.46933943818E+01  0.35294356497E+02 -0.24817402823E+02  0.43400726195E+02  0.00000000000E+00 0. -1.
         11    1    3    3    0    0  0.30378521041E+01 -0.10072414056E+02  0.73638468657E+01  0.12841663103E+02  0.51100000000E-03 0. -1.
        -11    1    3    3    0    0  0.32715937002E+01 -0.17792375018E+02  0.19961434536E+02  0.26939391291E+02  0.51100000000E-03 0.  1.
         12    1    3    3    0    0 -0.16160514224E+01 -0.74295674233E+01 -0.25078785791E+01  0.80062194115E+01  0.00000000000E+00 0. -1.
</event>
<event>
 7    1  0.2414091E-009  0.4778727E+02  0.7816164E-02  0.1312668E+00
        -11   -1    0    0    0    0  0.00000000000E+00  0.00000000000E+00  0.45593999997E+02  0.45594000000E+02  0.51100000000E-03 0.  1.
         11   -1    0    0    0    0 -0.00000000000E+00 -0.00000000000E+00 -0.45593999997E+02  0.45594000000E+02  0.51100000000E-03 0. -1.
    9900012    2    1    2    0    0  0.42867780261E+01 -0.40259704493E+02  0.15633397137E+02  0.47787269848E+02  0.19999994544E+02 0.  0.
         12    1    1    2    0    0 -0.42867780261E+01  0.40259704493E+02 -0.15633397137E+02  0.43400730152E+02  0.00000000000E+00 0. -1.
         11    1    3    3    0    0  0.14133596862E+01 -0.10096818321E+02  0.11656342620E+02  0.15485917775E+02  0.51100000000E-03 0. -1.
        -11    1    3    3    0    0  0.50094250364E+01 -0.17832249014E+02  0.63172224986E+01  0.19570149321E+02  0.51100000000E-03 0.  1.
         12    1    3    3    0    0 -0.21360066965E+01 -0.12330637157E+02 -0.23401679810E+01  0.12731202751E+02  0.00000000000E+00 0. -1.
</event>
<event>
 7    1  0.2414091E-009  0.4778730E+02  0.7816164E-02  0.1312668E+00
        -11   -1    0    0    0    0  0.00000000000E+00  0.00000000000E+00  0.45593999997E+02  0.45594000000E+02  0.51100000000E-03 0. -1.
         11   -1    0    0    0    0 -0.00000000000E+00 -0.00000000000E+00 -0.45593999997E+02  0.45594000000E+02  0.51100000000E-03 0.  1.
    9900012    2    1    2    0    0 -0.19718465668E+02 -0.26195289995E+02 -0.28436066490E+02  0.47787297430E+02  0.20000120301E+02 0.  0.
         12    1    1    2    0    0  0.19718465668E+02  0.26195289995E+02  0.28436066490E+02  0.43400702570E+02  0.00000000000E+00 0. -1.
         11    1    3    3    0    0 -0.16482636462E+01 -0.11769977273E+02 -0.96560689820E+01  0.15313027346E+02  0.51100000000E-03 0. -1.
        -11    1    3    3    0    0 -0.86803703574E+01 -0.12224556767E+02 -0.17000335202E+02  0.22667157187E+02  0.51100000000E-03 0.  1.
         12    1    3    3    0    0 -0.93898316639E+01 -0.22007559544E+01 -0.17796623059E+01  0.98071128968E+01  0.00000000000E+00 0. -1.
</event>
<event>
 7    1  0.2414091E-009  0.4778731E+02  0.7816164E-02  0.1312668E+00
        -11   -1    0    0    0    0  0.00000000000E+00  0.00000000000E+00  0.45593999997E+02  0.45594000000E+02  0.51100000000E-03 0.  1.
         11   -1    0    0    0    0 -0.00000000000E+00 -0.00000000000E+00 -0.45593999997E+02  0.45594000000E+02  0.51100000000E-03 0. -1.
    9900012    2    1    2    0    0 -0.38901871720E+02 -0.18291506181E+02 -0.59737155397E+01  0.47787307620E+02  0.20000166761E+02 0.  0.
         12    1    1    2    0    0  0.38901871720E+02  0.18291506181E+02  0.59737155397E+01  0.43400692380E+02  0.00000000000E+00 0. -1.
         11    1    3    3    0    0 -0.29692104897E+01 -0.99588351325E+00  0.18822689831E+01  0.36538926763E+01  0.51100000000E-03 0. -1.
        -11    1    3    3    0    0 -0.10671674178E+02 -0.50387544430E+01 -0.10676988833E+02  0.15914514347E+02  0.51100000000E-03 0.  1.
        -12    1    3    3    0    0 -0.25260987053E+02 -0.12256868225E+02  0.28210043102E+01  0.28218900597E+02  0.00000000000E+00 0.  1.
</event>
<event>
 7    1  0.2414091E-009  0.4778727E+02  0.7816164E-02  0.1312668E+00
        -11   -1    0    0    0    0  0.00000000000E+00  0.00000000000E+00  0.45593999997E+02  0.45594000000E+02  0.51100000000E-03 0.  1.
         11   -1    0    0    0    0 -0.00000000000E+00 -0.00000000000E+00 -0.45593999997E+02  0.45594000000E+02  0.51100000000E-03 0. -1.
    9900012    2    1    2    0    0 -0.12813040434E+02 -0.35619251509E+02  0.21230136659E+02  0.47787265147E+02  0.19999973110E+02 0.  0.
         12    1    1    2    0    0  0.12813040434E+02  0.35619251509E+02 -0.21230136659E+02  0.43400734853E+02  0.00000000000E+00 0. -1.
         11    1    3    3    0    0  0.10730493883E+01 -0.76633806576E+01 -0.48187167074E+00  0.77531308941E+01  0.51100000000E-03 0. -1.
        -11    1    3    3    0    0 -0.52289607486E-01 -0.12937144994E+02  0.59535048083E+01  0.14241371934E+02  0.51100000000E-03 0.  1.
         12    1    3    3    0    0 -0.13833800215E+02 -0.15018725857E+02  0.15758503522E+02  0.25792762319E+02  0.00000000000E+00 0. -1.
</event>
<event>
 7    1  0.2414091E-009  0.4778727E+02  0.7816164E-02  0.1312668E+00
        -11   -1    0    0    0    0  0.00000000000E+00  0.00000000000E+00  0.45593999997E+02  0.45594000000E+02  0.51100000000E-03 0. -1.
         11   -1    0    0    0    0 -0.00000000000E+00 -0.00000000000E+00 -0.45593999997E+02  0.45594000000E+02  0.51100000000E-03 0.  1.
    9900012    2    1    2    0    0  0.18425555392E+02  0.37771739628E+02  0.10835948450E+02  0.47787272070E+02  0.20000004675E+02 0.  0.
         12    1    1    2    0    0 -0.18425555392E+02 -0.37771739628E+02 -0.10835948450E+02  0.43400727930E+02  0.00000000000E+00 0. -1.
         11    1    3    3    0    0  0.17045951487E+01  0.54227250408E+01  0.60528204408E+01  0.83035069121E+01  0.51100000000E-03 0. -1.
        -11    1    3    3    0    0  0.14764483334E+02  0.22515616383E+02  0.93020110623E+01  0.28486318809E+02  0.51100000000E-03 0.  1.
         12    1    3    3    0    0  0.19564769096E+01  0.98333982042E+01 -0.45188830527E+01  0.10997446348E+02  0.00000000000E+00 0. -1.
</event>
<event>
 7    1  0.2414091E-009  0.4778727E+02  0.7816164E-02  0.1312668E+00
        -11   -1    0    0    0    0  0.00000000000E+00  0.00000000000E+00  0.45593999997E+02  0.45594000000E+02  0.51100000000E-03 0.  1.
         11   -1    0    0    0    0 -0.00000000000E+00 -0.00000000000E+00 -0.45593999997E+02  0.45594000000E+02  0.51100000000E-03 0. -1.
    9900012    2    1    2    0    0  0.25378245932E+02 -0.33567989688E+02  0.10618752032E+02  0.47787271977E+02  0.20000004250E+02 0.  0.
         12    1    1    2    0    0 -0.25378245932E+02  0.33567989688E+02 -0.10618752032E+02  0.43400728023E+02  0.00000000000E+00 0. -1.
         11    1    3    3    0    0  0.53669645339E+01 -0.97814328063E+01  0.19385358668E+00  0.11158777510E+02  0.51100000000E-03 0. -1.
        -11    1    3    3    0    0  0.21832348743E+02 -0.16964498138E+02  0.10477755289E+02  0.29567363847E+02  0.51100000000E-03 0.  1.
         12    1    3    3    0    0 -0.18210673451E+01 -0.68220587437E+01 -0.52856843258E-01  0.70611306193E+01  0.00000000000E+00 0. -1.
</event>
<event>
 7    1  0.2414091E-009  0.4778727E+02  0.7816164E-02  0.1312668E+00
        -11   -1    0    0    0    0  0.00000000000E+00  0.00000000000E+00  0.45593999997E+02  0.45594000000E+02  0.51100000000E-03 0. -1.
         11   -1    0    0    0    0 -0.00000000000E+00 -0.00000000000E+00 -0.45593999997E+02  0.45594000000E+02  0.51100000000E-03 0.  1.
    9900012    2    1    2    0    0  0.33491649661E+02 -0.13797447370E+02 -0.23907382324E+02  0.47787273272E+02  0.20000010155E+02 0.  0.
         12    1    1    2    0    0 -0.33491649661E+02  0.13797447370E+02  0.23907382324E+02  0.43400726728E+02  0.00000000000E+00 0. -1.
         11    1    3    3    0    0  0.47884024711E+01 -0.93938961437E+01 -0.10957485359E+02  0.15206596221E+02  0.51100000000E-03 0. -1.
        -11    1    3    3    0    0  0.14877526617E+02 -0.38279061805E+01 -0.33055815238E+01  0.15713705274E+02  0.51100000000E-03 0.  1.
        -12    1    3    3    0    0  0.13825720573E+02 -0.57564504624E+00 -0.96443154413E+01  0.16866971777E+02  0.00000000000E+00 0.  1.
</event>
<event>
 7    1  0.2414091E-009  0.4778726E+02  0.7816164E-02  0.1312668E+00
        -11   -1    0    0    0    0  0.00000000000E+00  0.00000000000E+00  0.45593999997E+02  0.45594000000E+02  0.51100000000E-03 0.  1.
         11   -1    0    0    0    0 -0.00000000000E+00 -0.00000000000E+00 -0.45593999997E+02  0.45594000000E+02  0.51100000000E-03 0. -1.
    9900012    2    1    2    0    0 -0.32859084656E+02  0.61149155748E+01  0.27685964348E+02  0.47787259697E+02  0.19999948263E+02 0.  0.
         12    1    1    2    0    0  0.32859084656E+02 -0.61149155748E+01 -0.27685964348E+02  0.43400740303E+02  0.00000000000E+00 0. -1.
         11    1    3    3    0    0 -0.66174442071E+01  0.52421134138E+01  0.97777110607E+01  0.12917970225E+02  0.51100000000E-03 0. -1.
        -11    1    3    3    0    0 -0.15825571084E+02  0.72731177803E+01  0.81621123403E+01  0.19234526781E+02  0.51100000000E-03 0.  1.
         12    1    3    3    0    0 -0.10416069366E+02 -0.64003156192E+01  0.97461409473E+01  0.15634762692E+02  0.00000000000E+00 0. -1.
</event>
<event>
 7    1  0.2414091E-009  0.4778728E+02  0.7816164E-02  0.1312668E+00
        -11   -1    0    0    0    0  0.00000000000E+00  0.00000000000E+00  0.45593999997E+02  0.45594000000E+02  0.51100000000E-03 0.  1.
         11   -1    0    0    0    0 -0.00000000000E+00 -0.00000000000E+00 -0.45593999997E+02  0.45594000000E+02  0.51100000000E-03 0. -1.
    9900012    2    1    2    0    0 -0.17056778729E+02  0.39628122155E+02 -0.47223461174E+01  0.47787282046E+02  0.20000050159E+02 0.  0.
         12    1    1    2    0    0  0.17056778729E+02 -0.39628122155E+02  0.47223461174E+01  0.43400717954E+02  0.00000000000E+00 0. -1.
         11    1    3    3    0    0  0.26108625265E+01  0.86262784730E+00 -0.12870985651E+01  0.30360093730E+01  0.51100000000E-03 0. -1.
        -11    1    3    3    0    0 -0.28113687825E+01  0.14507697199E+01 -0.20748418953E+01  0.37833181683E+01  0.51100000000E-03 0.  1.
        -12    1    3    3    0    0 -0.16856272473E+02  0.37314724587E+02 -0.13604056571E+01  0.40967954504E+02  0.00000000000E+00 0.  1.
</event>
<event>
 7    1  0.2414091E-009  0.4778727E+02  0.7816164E-02  0.1312668E+00
        -11   -1    0    0    0    0  0.00000000000E+00  0.00000000000E+00  0.45593999997E+02  0.45594000000E+02  0.51100000000E-03 0. -1.
         11   -1    0    0    0    0 -0.00000000000E+00 -0.00000000000E+00 -0.45593999997E+02  0.45594000000E+02  0.51100000000E-03 0.  1.
    9900012    2    1    2    0    0  0.39718115868E+02  0.16022009059E+02  0.70277661155E+01  0.47787274212E+02  0.20000014442E+02 0.  0.
         12    1    1    2    0    0 -0.39718115868E+02 -0.16022009059E+02 -0.70277661155E+01  0.43400725788E+02  0.00000000000E+00 0. -1.
         11    1    3    3    0    0  0.92952567643E+00  0.24913379237E+01 -0.22974772370E+01  0.35141406558E+01  0.51100000000E-03 0. -1.
        -11    1    3    3    0    0  0.17380966353E+02  0.12810291290E+02  0.22192681269E+01  0.21705453360E+02  0.51100000000E-03 0.  1.
         12    1    3    3    0    0  0.21407623838E+02  0.72037984554E+00  0.71059752257E+01  0.22567680196E+02  0.00000000000E+00 0. -1.
</event>
<event>
 7    1  0.2414091E-009  0.4778727E+02  0.7816164E-02  0.1312668E+00
        -11   -1    0    0    0    0  0.00000000000E+00  0.00000000000E+00  0.45593999997E+02  0.45594000000E+02  0.51100000000E-03 0.  1.
         11   -1    0    0    0    0 -0.00000000000E+00 -0.00000000000E+00 -0.45593999997E+02  0.45594000000E+02  0.51100000000E-03 0. -1.
    9900012    2    1    2    0    0 -0.20228592482E+02  0.34529528672E+02  0.16796994551E+02  0.47787270397E+02  0.19999997048E+02 0.  0.
         12    1    1    2    0    0  0.20228592482E+02 -0.34529528672E+02 -0.16796994551E+02  0.43400729603E+02  0.00000000000E+00 0. -1.
         11    1    3    3    0    0 -0.30409787717E+01 -0.59875610722E+00  0.41078518157E+00  0.31264685337E+01  0.51100000000E-03 0. -1.
        -11    1    3    3    0    0  0.38625556591E+00  0.92725814048E+01 -0.17524375071E+00  0.92822771938E+01  0.51100000000E-03 0.  1.
        -12    1    3    3    0    0 -0.17573869276E+02  0.25855703375E+02  0.16561453120E+02  0.35378524669E+02  0.00000000000E+00 0.  1.
</event>
<event>
 7    1  0.2414091E-009  0.4778727E+02  0.7816164E-02  0.1312668E+00
        -11   -1    0    0    0    0  0.00000000000E+00  0.00000000000E+00  0.45593999997E+02  0.45594000000E+02  0.51100000000E-03 0.  1.
         11   -1    0    0    0    0 -0.00000000000E+00 -0.00000000000E+00 -0.45593999997E+02  0.45594000000E+02  0.51100000000E-03 0. -1.
    9900012    2    1    2    0    0  0.15163440582E+02 -0.24324945726E+01  0.40592810759E+02  0.47787271372E+02  0.20000001493E+02 0.  0.
         12    1    1    2    0    0 -0.15163440582E+02  0.24324945726E+01 -0.40592810759E+02  0.43400728628E+02  0.00000000000E+00 0. -1.
         11    1    3    3    0    0  0.29719979105E+01 -0.16357023455E+01  0.79312155823E+01  0.86262665515E+01  0.51100000000E-03 0. -1.
        -11    1    3    3    0    0  0.14240339125E+02  0.18181442755E+01  0.32833241381E+02  0.35834545440E+02  0.51100000000E-03 0.  1.
         12    1    3    3    0    0 -0.20488964539E+01 -0.26149365026E+01 -0.17164620446E+00  0.33264593807E+01  0.00000000000E+00 0. -1.
</event>
<event>
 7    1  0.2414091E-009  0.4778727E+02  0.7816164E-02  0.1312668E+00
        -11   -1    0    0    0    0  0.00000000000E+00  0.00000000000E+00  0.45593999997E+02  0.45594000000E+02  0.51100000000E-03 0.  1.
         11   -1    0    0    0    0 -0.00000000000E+00 -0.00000000000E+00 -0.45593999997E+02  0.45594000000E+02  0.51100000000E-03 0. -1.
    9900012    2    1    2    0    0 -0.29534830417E+01 -0.21761427684E+01  0.43245399067E+02  0.47787271897E+02  0.20000003887E+02 0.  0.
         12    1    1    2    0    0  0.29534830417E+01  0.21761427684E+01 -0.43245399067E+02  0.43400728103E+02  0.00000000000E+00 0. -1.
         11    1    3    3    0    0 -0.29359596694E+01 -0.89201111366E+01  0.21965826916E+02  0.23889030835E+02  0.51100000000E-03 0. -1.
        -11    1    3    3    0    0  0.24046481421E+01 -0.86723028899E+00  0.80330327807E+01  0.84299488123E+01  0.51100000000E-03 0.  1.
        -12    1    3    3    0    0 -0.24221715143E+01  0.76111986572E+01  0.13246539370E+02  0.15468292250E+02  0.00000000000E+00 0.  1.
</event>
<event>
 7    1  0.2414091E-009  0.4778727E+02  0.7816164E-02  0.1312668E+00
        -11   -1    0    0    0    0  0.00000000000E+00  0.00000000000E+00  0.45593999997E+02  0.45594000000E+02  0.51100000000E-03 0.  1.
         11   -1    0    0    0    0 -0.00000000000E+00 -0.00000000000E+00 -0.45593999997E+02  0.45594000000E+02  0.51100000000E-03 0. -1.
    9900012    2    1    2    0    0  0.37675617409E+02 -0.16780924764E+02  0.13511925360E+02  0.47787266020E+02  0.19999977090E+02 0.  0.
         12    1    1    2    0    0 -0.37675617409E+02  0.16780924764E+02 -0.13511925360E+02  0.43400733980E+02  0.00000000000E+00 0. -1.
         11    1    3    3    0    0  0.15696538864E+02 -0.35003833904E+01 -0.11732240031E+00  0.16082530305E+02  0.51100000000E-03 0. -1.
        -11    1    3    3    0    0  0.13861177854E+01  0.38204873904E+00 -0.20007423431E+01  0.24637885337E+01  0.51100000000E-03 0.  1.
        -12    1    3    3    0    0  0.20592960760E+02 -0.13662590113E+02  0.15629990103E+02  0.29240947181E+02  0.00000000000E+00 0.  1.
</event>
<event>
 7    1  0.2414091E-009  0.4778728E+02  0.7816164E-02  0.1312668E+00
        -11   -1    0    0    0    0  0.00000000000E+00  0.00000000000E+00  0.45593999997E+02  0.45594000000E+02  0.51100000000E-03 0.  1.
         11   -1    0    0    0    0 -0.00000000000E+00 -0.00000000000E+00 -0.45593999997E+02  0.45594000000E+02  0.51100000000E-03 0. -1.
    9900012    2    1    2    0    0 -0.26201474052E+02  0.26956771474E+02 -0.21689586419E+02  0.47787275008E+02  0.20000018073E+02 0.  0.
         12    1    1    2    0    0  0.26201474052E+02 -0.26956771474E+02  0.21689586419E+02  0.43400724992E+02  0.00000000000E+00 0. -1.
         11    1    3    3    0    0  0.10851653691E+01  0.10548207698E+01  0.24299932782E+01  0.28627082156E+01  0.51100000000E-03 0. -1.
        -11    1    3    3    0    0 -0.10317028781E+01  0.25336969012E+01 -0.20973099351E+01  0.34471350483E+01  0.51100000000E-03 0.  1.
        -12    1    3    3    0    0 -0.26254936543E+02  0.23368253803E+02 -0.22022269762E+02  0.41477431745E+02  0.00000000000E+00 0.  1.
</event>
<event>
 7    1  0.2414091E-009  0.4778727E+02  0.7816164E-02  0.1312668E+00
        -11   -1    0    0    0    0  0.00000000000E+00  0.00000000000E+00  0.45593999997E+02  0.45594000000E+02  0.51100000000E-03 0.  1.
         11   -1    0    0    0    0 -0.00000000000E+00 -0.00000000000E+00 -0.45593999997E+02  0.45594000000E+02  0.51100000000E-03 0. -1.
    9900012    2    1    2    0    0  0.75109043779E+01  0.42670832971E+02 -0.25317617166E+01  0.47787268573E+02  0.19999988731E+02 0.  0.
         12    1    1    2    0    0 -0.75109043779E+01 -0.42670832971E+02  0.25317617166E+01  0.43400731427E+02  0.00000000000E+00 0. -1.
         11    1    3    3    0    0  0.10520951464E+00  0.11710217465E+02 -0.66700840439E+01  0.13477027993E+02  0.51100000000E-03 0. -1.
        -11    1    3    3    0    0  0.11051042471E+01  0.21389902396E+02 -0.16326818985E+01  0.21480568670E+02  0.51100000000E-03 0.  1.
        -12    1    3    3    0    0  0.63005906162E+01  0.95707131099E+01  0.57710042258E+01  0.12829671910E+02  0.00000000000E+00 0.  1.
</event>
<event>
 7    1  0.2414091E-009  0.4778725E+02  0.7816164E-02  0.1312668E+00
        -11   -1    0    0    0    0  0.00000000000E+00  0.00000000000E+00  0.45593999997E+02  0.45594000000E+02  0.51100000000E-03 0. -1.
         11   -1    0    0    0    0 -0.00000000000E+00 -0.00000000000E+00 -0.45593999997E+02  0.45594000000E+02  0.51100000000E-03 0.  1.
    9900012    2    1    2    0    0 -0.15225683275E+02  0.40641619937E+02 -0.24924537438E+00  0.47787253168E+02  0.19999918495E+02 0.  0.
         12    1    1    2    0    0  0.15225683275E+02 -0.40641619937E+02  0.24924537438E+00  0.43400746832E+02  0.00000000000E+00 0. -1.
         11    1    3    3    0    0 -0.39536327361E+01  0.32487673111E+01  0.34894016592E+01  0.61936762148E+01  0.51100000000E-03 0. -1.
        -11    1    3    3    0    0 -0.64451131859E+01  0.37923762828E+01 -0.52924332519E+00  0.74967793490E+01  0.51100000000E-03 0.  1.
        -12    1    3    3    0    0 -0.48269373527E+01  0.33600476343E+02 -0.32094037083E+01  0.34096797604E+02  0.00000000000E+00 0.  1.
</event>
<event>
 7    1  0.2414091E-009  0.4778727E+02  0.7816164E-02  0.1312668E+00
        -11   -1    0    0    0    0  0.00000000000E+00  0.00000000000E+00  0.45593999997E+02  0.45594000000E+02  0.51100000000E-03 0. -1.
         11   -1    0    0    0    0 -0.00000000000E+00 -0.00000000000E+00 -0.45593999997E+02  0.45594000000E+02  0.51100000000E-03 0.  1.
    9900012    2    1    2    0    0 -0.42365150934E+02  0.23758384585E+01 -0.91199043089E+01  0.47787271013E+02  0.19999999854E+02 0.  0.
         12    1    1    2    0    0  0.42365150934E+02 -0.23758384585E+01  0.91199043089E+01  0.43400728987E+02  0.00000000000E+00 0. -1.
         11    1    3    3    0    0 -0.61222805681E+01 -0.46175356006E+01 -0.24841594635E+01  0.80607073436E+01  0.51100000000E-03 0. -1.
        -11    1    3    3    0    0 -0.24900948913E+02 -0.75104840246E+00 -0.73511017625E+01  0.25974218522E+02  0.51100000000E-03 0.  1.
         12    1    3    3    0    0 -0.11341921453E+02  0.77444224616E+01  0.71535691714E+00  0.13752345146E+02  0.00000000000E+00 0. -1.
</event>
<event>
 7    1  0.2414091E-009  0.4778727E+02  0.7816164E-02  0.1312668E+00
        -11   -1    0    0    0    0  0.00000000000E+00  0.00000000000E+00  0.45593999997E+02  0.45594000000E+02  0.51100000000E-03 0. -1.
         11   -1    0    0    0    0 -0.00000000000E+00 -0.00000000000E+00 -0.45593999997E+02  0.45594000000E+02  0.51100000000E-03 0.  1.
    9900012    2    1    2    0    0  0.29294144895E+02 -0.31419296490E+02  0.61890513733E+01  0.47787268740E+02  0.19999989492E+02 0.  0.
         12    1    1    2    0    0 -0.29294144895E+02  0.31419296490E+02 -0.61890513733E+01  0.43400731260E+02  0.00000000000E+00 0. -1.
         11    1    3    3    0    0  0.44746104795E+01 -0.96835094924E+01  0.69904273722E+01  0.12753766900E+02  0.51100000000E-03 0. -1.
        -11    1    3    3    0    0  0.52596072905E+01 -0.11904012358E+02  0.10918656180E+01  0.13059906196E+02  0.51100000000E-03 0.  1.
         12    1    3    3    0    0  0.19559927125E+02 -0.98317746395E+01 -0.18932416169E+01  0.21973595644E+02  0.00000000000E+00 0. -1.
</event>
<event>
 7    1  0.2414091E-009  0.4778727E+02  0.7816164E-02  0.1312668E+00
        -11   -1    0    0    0    0  0.00000000000E+00  0.00000000000E+00  0.45593999997E+02  0.45594000000E+02  0.51100000000E-03 0. -1.
         11   -1    0    0    0    0 -0.00000000000E+00 -0.00000000000E+00 -0.45593999997E+02  0.45594000000E+02  0.51100000000E-03 0.  1.
    9900012    2    1    2    0    0 -0.38478357318E+02 -0.14522918168E+02 -0.13860889927E+02  0.47787269550E+02  0.19999993188E+02 0.  0.
         12    1    1    2    0    0  0.38478357318E+02  0.14522918168E+02  0.13860889927E+02  0.43400730450E+02  0.00000000000E+00 0. -1.
         11    1    3    3    0    0 -0.39356956055E+01  0.13985944374E+01 -0.28938635125E+01  0.50813593250E+01  0.51100000000E-03 0. -1.
        -11    1    3    3    0    0 -0.31994636802E+02 -0.86023914509E+01 -0.11141074231E+02  0.34953990589E+02  0.51100000000E-03 0.  1.
         12    1    3    3    0    0 -0.25480249104E+01 -0.73191211541E+01  0.17404781709E+00  0.77519196368E+01  0.00000000000E+00 0. -1.
</event>
<event>
 7    1  0.2414091E-009  0.4778727E+02  0.7816164E-02  0.1312668E+00
        -11   -1    0    0    0    0  0.00000000000E+00  0.00000000000E+00  0.45593999997E+02  0.45594000000E+02  0.51100000000E-03 0.  1.
         11   -1    0    0    0    0 -0.00000000000E+00 -0.00000000000E+00 -0.45593999997E+02  0.45594000000E+02  0.51100000000E-03 0. -1.
    9900012    2    1    2    0    0 -0.61754505302E+01 -0.27964193744E+02  0.32611206346E+02  0.47787273044E+02  0.20000009115E+02 0.  0.
         12    1    1    2    0    0  0.61754505302E+01  0.27964193744E+02 -0.32611206346E+02  0.43400726956E+02  0.00000000000E+00 0. -1.
         11    1    3    3    0    0  0.63389391348E+00 -0.80670658432E+01  0.12330445845E+02  0.14748534429E+02  0.51100000000E-03 0. -1.
        -11    1    3    3    0    0 -0.96418574264E+01 -0.12703723886E+02  0.19613179458E+02  0.25278979883E+02  0.51100000000E-03 0.  1.
         12    1    3    3    0    0  0.28325129827E+01 -0.71934040148E+01  0.66758104273E+00  0.77597587312E+01  0.00000000000E+00 0. -1.
</event>
<event>
 7    1  0.2414091E-009  0.4778727E+02  0.7816164E-02  0.1312668E+00
        -11   -1    0    0    0    0  0.00000000000E+00  0.00000000000E+00  0.45593999997E+02  0.45594000000E+02  0.51100000000E-03 0. -1.
         11   -1    0    0    0    0 -0.00000000000E+00 -0.00000000000E+00 -0.45593999997E+02  0.45594000000E+02  0.51100000000E-03 0.  1.
    9900012    2    1    2    0    0 -0.26367263167E+02 -0.29485274000E+02 -0.17860835595E+02  0.47787269615E+02  0.19999993484E+02 0.  0.
         12    1    1    2    0    0  0.26367263167E+02  0.29485274000E+02  0.17860835595E+02  0.43400730385E+02  0.00000000000E+00 0. -1.
         11    1    3    3    0    0 -0.94229515380E+01 -0.31143525938E+01 -0.10963644432E+02  0.14788262483E+02  0.51100000000E-03 0.  1.
        -11    1    3    3    0    0 -0.60586289455E+01 -0.41539369779E+01 -0.11928767647E+00  0.73468637476E+01  0.51100000000E-03 0. -1.
        -12    1    3    3    0    0 -0.10885682683E+02 -0.22216984429E+02 -0.67779034865E+01  0.25652143385E+02  0.00000000000E+00 0.  1.
</event>
<event>
 7    1  0.2414091E-009  0.4778727E+02  0.7816164E-02  0.1312668E+00
        -11   -1    0    0    0    0  0.00000000000E+00  0.00000000000E+00  0.45593999997E+02  0.45594000000E+02  0.51100000000E-03 0. -1.
         11   -1    0    0    0    0 -0.00000000000E+00 -0.00000000000E+00 -0.45593999997E+02  0.45594000000E+02  0.51100000000E-03 0.  1.
    9900012    2    1    2    0    0  0.80494022511E+01  0.80735193635E+01 -0.41876587570E+02  0.47787272149E+02  0.20000005034E+02 0.  0.
         12    1    1    2    0    0 -0.80494022511E+01 -0.80735193635E+01  0.41876587570E+02  0.43400727851E+02  0.00000000000E+00 0. -1.
         11    1    3    3    0    0 -0.86961456612E+00  0.78330520848E+01 -0.23648775348E+02  0.24927444918E+02  0.51100000000E-03 0. -1.
        -11    1    3    3    0    0 -0.22177861472E+01  0.10864722114E+01 -0.20973438900E+01  0.32400384126E+01  0.51100000000E-03 0.  1.
        -12    1    3    3    0    0  0.11136802964E+02 -0.84600493271E+00 -0.16130468333E+02  0.19619788817E+02  0.00000000000E+00 0.  1.
</event>
<event>
 7    1  0.2414091E-009  0.4778727E+02  0.7816164E-02  0.1312668E+00
        -11   -1    0    0    0    0  0.00000000000E+00  0.00000000000E+00  0.45593999997E+02  0.45594000000E+02  0.51100000000E-03 0.  1.
         11   -1    0    0    0    0 -0.00000000000E+00 -0.00000000000E+00 -0.45593999997E+02  0.45594000000E+02  0.51100000000E-03 0. -1.
    9900012    2    1    2    0    0  0.26837265888E+02  0.33630578862E+02  0.56893583349E+01  0.47787268748E+02  0.19999989530E+02 0.  0.
         12    1    1    2    0    0 -0.26837265888E+02 -0.33630578862E+02 -0.56893583349E+01  0.43400731252E+02  0.00000000000E+00 0. -1.
         11    1    3    3    0    0  0.30074510677E+01  0.31685943607E+01  0.57205609397E+00  0.44059051945E+01  0.51100000000E-03 0. -1.
        -11    1    3    3    0    0  0.19223084089E+02  0.30754751046E+02  0.89788722179E+01  0.37363107745E+02  0.51100000000E-03 0.  1.
         12    1    3    3    0    0  0.46067307319E+01 -0.29276654544E+00 -0.38615699770E+01  0.60182558083E+01  0.00000000000E+00 0. -1.
</event>
<event>
 7    1  0.2414091E-009  0.4778726E+02  0.7816164E-02  0.1312668E+00
        -11   -1    0    0    0    0  0.00000000000E+00  0.00000000000E+00  0.45593999997E+02  0.45594000000E+02  0.51100000000E-03 0.  1.
         11   -1    0    0    0    0 -0.00000000000E+00 -0.00000000000E+00 -0.45593999997E+02  0.45594000000E+02  0.51100000000E-03 0. -1.
    9900012    2    1    2    0    0  0.26932870818E+02  0.22620147355E+02  0.25427803904E+02  0.47787264888E+02  0.19999971931E+02 0.  0.
         12    1    1    2    0    0 -0.26932870818E+02 -0.22620147355E+02 -0.25427803904E+02  0.43400735112E+02  0.00000000000E+00 0. -1.
         11    1    3    3    0    0  0.10138279585E+02  0.12835165296E+02  0.13422231754E+02  0.21158508611E+02  0.51100000000E-03 0. -1.
        -11    1    3    3    0    0  0.14505467762E+02  0.10962130376E+02  0.45515775573E+01  0.18742832120E+02  0.51100000000E-03 0.  1.
         12    1    3    3    0    0  0.22891234713E+01 -0.11771483165E+01  0.74539945926E+01  0.78859241571E+01  0.00000000000E+00 0. -1.
</event>
<event>
 7    1  0.2414091E-009  0.4778727E+02  0.7816164E-02  0.1312668E+00
        -11   -1    0    0    0    0  0.00000000000E+00  0.00000000000E+00  0.45593999997E+02  0.45594000000E+02  0.51100000000E-03 0. -1.
         11   -1    0    0    0    0 -0.00000000000E+00 -0.00000000000E+00 -0.45593999997E+02  0.45594000000E+02  0.51100000000E-03 0.  1.
    9900012    2    1    2    0    0 -0.16180885906E+02  0.39377217798E+02 -0.84402073410E+01  0.47787269013E+02  0.19999990738E+02 0.  0.
         12    1    1    2    0    0  0.16180885906E+02 -0.39377217798E+02  0.84402073410E+01  0.43400730987E+02  0.00000000000E+00 0. -1.
         11    1    3    3    0    0  0.14893223362E+01  0.60336528665E+00  0.16050094436E+01  0.22711640771E+01  0.51100000000E-03 0. -1.
        -11    1    3    3    0    0 -0.10039638143E+02  0.22246345571E+02 -0.12018538092E+02  0.27205504653E+02  0.51100000000E-03 0.  1.
         12    1    3    3    0    0 -0.76305701000E+01  0.16527506941E+02  0.19733213078E+01  0.18310600283E+02  0.00000000000E+00 0. -1.
</event>
<event>
 7    1  0.2414091E-009  0.4778728E+02  0.7816164E-02  0.1312668E+00
        -11   -1    0    0    0    0  0.00000000000E+00  0.00000000000E+00  0.45593999997E+02  0.45594000000E+02  0.51100000000E-03 0. -1.
         11   -1    0    0    0    0 -0.00000000000E+00 -0.00000000000E+00 -0.45593999997E+02  0.45594000000E+02  0.51100000000E-03 0.  1.
    9900012    2    1    2    0    0 -0.36595405369E+02 -0.85586640677E+01 -0.21705953728E+02  0.47787275905E+02  0.20000022163E+02 0.  0.
         12    1    1    2    0    0  0.36595405369E+02  0.85586640677E+01  0.21705953728E+02  0.43400724095E+02  0.00000000000E+00 0. -1.
         11    1    3    3    0    0 -0.13064356840E+02 -0.33245764475E+01 -0.37342651127E+01  0.13988386769E+02  0.51100000000E-03 0.  1.
        -11    1    3    3    0    0 -0.27071010785E+01  0.43215780208E+01 -0.78954154368E+00  0.51602140410E+01  0.51100000000E-03 0. -1.
        -12    1    3    3    0    0 -0.20823947450E+02 -0.95556656410E+01 -0.17182147071E+02  0.28638675096E+02  0.00000000000E+00 0.  1.
</event>
<event>
 7    1  0.2414091E-009  0.4778727E+02  0.7816164E-02  0.1312668E+00
        -11   -1    0    0    0    0  0.00000000000E+00  0.00000000000E+00  0.45593999997E+02  0.45594000000E+02  0.51100000000E-03 0.  1.
         11   -1    0    0    0    0 -0.00000000000E+00 -0.00000000000E+00 -0.45593999997E+02  0.45594000000E+02  0.51100000000E-03 0. -1.
    9900012    2    1    2    0    0  0.39664888816E+02  0.49449038098E+01  0.16907624234E+02  0.47787271484E+02  0.20000002004E+02 0.  0.
         12    1    1    2    0    0 -0.39664888816E+02 -0.49449038098E+01 -0.16907624234E+02  0.43400728516E+02  0.00000000000E+00 0. -1.
         11    1    3    3    0    0  0.89607626237E+00  0.43787169599E+01  0.95097162257E+00  0.45695144349E+01  0.51100000000E-03 0. -1.
        -11    1    3    3    0    0  0.15432459503E+02  0.53661973245E+01  0.63904419582E+01  0.17544076741E+02  0.51100000000E-03 0.  1.
         12    1    3    3    0    0  0.23336353051E+02 -0.48000104746E+01  0.95662106530E+01  0.25673680308E+02  0.00000000000E+00 0. -1.
</event>
<event>
 7    1  0.2414091E-009  0.4778727E+02  0.7816164E-02  0.1312668E+00
        -11   -1    0    0    0    0  0.00000000000E+00  0.00000000000E+00  0.45593999997E+02  0.45594000000E+02  0.51100000000E-03 0.  1.
         11   -1    0    0    0    0 -0.00000000000E+00 -0.00000000000E+00 -0.45593999997E+02  0.45594000000E+02  0.51100000000E-03 0. -1.
    9900012    2    1    2    0    0 -0.26848726903E+02 -0.17868427535E+01  0.34052556233E+02  0.47787268101E+02  0.19999986580E+02 0.  0.
         12    1    1    2    0    0  0.26848726903E+02  0.17868427535E+01 -0.34052556233E+02  0.43400731899E+02  0.00000000000E+00 0. -1.
         11    1    3    3    0    0 -0.39393819232E+01  0.52589811881E+01  0.13612978268E+02  0.15115845681E+02  0.51100000000E-03 0. -1.
        -11    1    3    3    0    0 -0.39030590563E+01  0.17106334273E+01  0.55081625633E+01  0.69641935502E+01  0.51100000000E-03 0.  1.
        -12    1    3    3    0    0 -0.19006285923E+02 -0.87564573689E+01  0.14931415402E+02  0.25707228870E+02  0.00000000000E+00 0.  1.
</event>
<event>
 7    1  0.2414091E-009  0.4778727E+02  0.7816164E-02  0.1312668E+00
        -11   -1    0    0    0    0  0.00000000000E+00  0.00000000000E+00  0.45593999997E+02  0.45594000000E+02  0.51100000000E-03 0. -1.
         11   -1    0    0    0    0 -0.00000000000E+00 -0.00000000000E+00 -0.45593999997E+02  0.45594000000E+02  0.51100000000E-03 0.  1.
    9900012    2    1    2    0    0 -0.42574572705E+02  0.43319035425E+01  0.72293647051E+01  0.47787270244E+02  0.19999996349E+02 0.  0.
         12    1    1    2    0    0  0.42574572705E+02 -0.43319035425E+01 -0.72293647051E+01  0.43400729756E+02  0.00000000000E+00 0. -1.
         11    1    3    3    0    0 -0.22928141995E+02  0.29592831902E+01  0.85195298086E+01  0.24638170402E+02  0.51100000000E-03 0. -1.
        -11    1    3    3    0    0 -0.98022124384E+01 -0.41504562305E+01  0.30225943361E+01  0.11065519978E+02  0.51100000000E-03 0.  1.
        -12    1    3    3    0    0 -0.98442182719E+01  0.55230765829E+01 -0.43127594396E+01  0.12083579863E+02  0.00000000000E+00 0.  1.
</event>
<event>
 7    1  0.2414091E-009  0.4778728E+02  0.7816164E-02  0.1312668E+00
        -11   -1    0    0    0    0  0.00000000000E+00  0.00000000000E+00  0.45593999997E+02  0.45594000000E+02  0.51100000000E-03 0. -1.
         11   -1    0    0    0    0 -0.00000000000E+00 -0.00000000000E+00 -0.45593999997E+02  0.45594000000E+02  0.51100000000E-03 0.  1.
    9900012    2    1    2    0    0 -0.94112966679E+01  0.18348840644E+02 -0.38188608233E+02  0.47787282763E+02  0.20000053429E+02 0.  0.
         12    1    1    2    0    0  0.94112966679E+01 -0.18348840644E+02  0.38188608233E+02  0.43400717237E+02  0.00000000000E+00 0. -1.
         11    1    3    3    0    0 -0.69218302910E+01  0.96052135871E+01 -0.92167666860E+01  0.15004021162E+02  0.51100000000E-03 0. -1.
        -11    1    3    3    0    0 -0.63293272644E+01  0.22221981209E+01 -0.77367715839E+01  0.10239930806E+02  0.51100000000E-03 0.  1.
         12    1    3    3    0    0  0.38398608874E+01  0.65214289360E+01 -0.21235069963E+02  0.22543330795E+02  0.00000000000E+00 0. -1.
</event>
<event>
 7    1  0.2414091E-009  0.4778727E+02  0.7816164E-02  0.1312668E+00
        -11   -1    0    0    0    0  0.00000000000E+00  0.00000000000E+00  0.45593999997E+02  0.45594000000E+02  0.51100000000E-03 0.  1.
         11   -1    0    0    0    0 -0.00000000000E+00 -0.00000000000E+00 -0.45593999997E+02  0.45594000000E+02  0.51100000000E-03 0. -1.
    9900012    2    1    2    0    0  0.57679564118E+01  0.66774379668E+00  0.43010563701E+02  0.47787265066E+02  0.19999972742E+02 0.  0.
         12    1    1    2    0    0 -0.57679564118E+01 -0.66774379668E+00 -0.43010563701E+02  0.43400734934E+02  0.00000000000E+00 0. -1.
         11    1    3    3    0    0 -0.43271864502E+01 -0.33331317345E+01  0.11347790450E+02  0.12593913534E+02  0.51100000000E-03 0. -1.
        -11    1    3    3    0    0  0.11459946622E+01  0.46913684845E+01  0.45562228287E+01  0.66393831603E+01  0.51100000000E-03 0.  1.
        -12    1    3    3    0    0  0.89491481997E+01 -0.69049295340E+00  0.27106550422E+02  0.28553968372E+02  0.00000000000E+00 0.  1.
</event>
<event>
 7    1  0.2414091E-009  0.4778727E+02  0.7816164E-02  0.1312668E+00
        -11   -1    0    0    0    0  0.00000000000E+00  0.00000000000E+00  0.45593999997E+02  0.45594000000E+02  0.51100000000E-03 0.  1.
         11   -1    0    0    0    0 -0.00000000000E+00 -0.00000000000E+00 -0.45593999997E+02  0.45594000000E+02  0.51100000000E-03 0. -1.
    9900012    2    1    2    0    0  0.27437306875E+01  0.39238087125E+02  0.18343069914E+02  0.47787265523E+02  0.19999974824E+02 0.  0.
         12    1    1    2    0    0 -0.27437306875E+01 -0.39238087125E+02 -0.18343069914E+02  0.43400734477E+02  0.00000000000E+00 0. -1.
         11    1    3    3    0    0 -0.35326359210E+01  0.11614054918E+01  0.10207880751E+01  0.38562141826E+01  0.51100000000E-03 0. -1.
        -11    1    3    3    0    0 -0.31588592445E+01  0.13327603146E+02  0.79398276882E+01  0.15831748524E+02  0.51100000000E-03 0.  1.
         12    1    3    3    0    0  0.94352258529E+01  0.24749078487E+02  0.93824541505E+01  0.28099302816E+02  0.00000000000E+00 0. -1.
</event>
<event>
 7    1  0.2414091E-009  0.4778727E+02  0.7816164E-02  0.1312668E+00
        -11   -1    0    0    0    0  0.00000000000E+00  0.00000000000E+00  0.45593999997E+02  0.45594000000E+02  0.51100000000E-03 0.  1.
         11   -1    0    0    0    0 -0.00000000000E+00 -0.00000000000E+00 -0.45593999997E+02  0.45594000000E+02  0.51100000000E-03 0. -1.
    9900012    2    1    2    0    0 -0.15659148501E+02 -0.18374693756E+02  0.36066398310E+02  0.47787269713E+02  0.19999993930E+02 0.  0.
         12    1    1    2    0    0  0.15659148501E+02  0.18374693756E+02 -0.36066398310E+02  0.43400730287E+02  0.00000000000E+00 0. -1.
         11    1    3    3    0    0 -0.83959767649E+01 -0.37629839965E+01  0.15390087073E+02  0.17930623379E+02  0.51100000000E-03 0. -1.
        -11    1    3    3    0    0 -0.18947806800E+01  0.27143875824E+01  0.42365359411E+01  0.53764608074E+01  0.51100000000E-03 0.  1.
         12    1    3    3    0    0 -0.53683910558E+01 -0.17326097342E+02  0.16439775296E+02  0.24480185527E+02  0.00000000000E+00 0. -1.
</event>
<event>
 7    1  0.2414091E-009  0.4778727E+02  0.7816164E-02  0.1312668E+00
        -11   -1    0    0    0    0  0.00000000000E+00  0.00000000000E+00  0.45593999997E+02  0.45594000000E+02  0.51100000000E-03 0. -1.
         11   -1    0    0    0    0 -0.00000000000E+00 -0.00000000000E+00 -0.45593999997E+02  0.45594000000E+02  0.51100000000E-03 0.  1.
    9900012    2    1    2    0    0  0.25654176707E+02 -0.28832509701E+02  0.19853792690E+02  0.47787268643E+02  0.19999989051E+02 0.  0.
         12    1    1    2    0    0 -0.25654176707E+02  0.28832509701E+02 -0.19853792690E+02  0.43400731357E+02  0.00000000000E+00 0. -1.
         11    1    3    3    0    0  0.18468594278E+02 -0.18067830890E+02  0.13684953891E+02  0.29237192939E+02  0.51100000000E-03 0. -1.
        -11    1    3    3    0    0  0.26409077452E+01 -0.12214574997E+02  0.57655796356E+01  0.13762708486E+02  0.51100000000E-03 0.  1.
         12    1    3    3    0    0  0.45446746834E+01  0.14498961862E+01  0.40325916313E+00  0.47873672182E+01  0.00000000000E+00 0. -1.
</event>
<event>
 7    1  0.4624978E-008  0.4778727E+02  0.7816164E-02  0.1312668E+00
        -11   -1    0    0    0    0  0.00000000000E+00  0.00000000000E+00  0.45593999997E+02  0.45594000000E+02  0.51100000000E-03 0.  1.
         11   -1    0    0    0    0 -0.00000000000E+00 -0.00000000000E+00 -0.45593999997E+02  0.45594000000E+02  0.51100000000E-03 0. -1.
    9900012    2    1    2    0    0  0.11636980083E+02 -0.13179329861E+02  0.39680086799E+02  0.47787270404E+02  0.19999997082E+02 0.  0.
         12    1    1    2    0    0 -0.11636980083E+02  0.13179329861E+02 -0.39680086799E+02  0.43400729596E+02  0.00000000000E+00 0. -1.
         11    1    3    3    0    0  0.20454975312E+01 -0.57864565497E+01  0.51774505224E+01  0.80295164066E+01  0.51100000000E-03 0. -1.
        -11    1    3    3    0    0  0.90199024907E+01 -0.96227159333E+01  0.35000078925E+02  0.37402684769E+02  0.51100000000E-03 0.  1.
        -12    1    3    3    0    0  0.57158006065E+00  0.22298426219E+01 -0.49744264842E+00  0.23550692288E+01  0.00000000000E+00 0.  1.
</event>
<event>
 7    1  0.2414091E-009  0.4778727E+02  0.7816164E-02  0.1312668E+00
        -11   -1    0    0    0    0  0.00000000000E+00  0.00000000000E+00  0.45593999997E+02  0.45594000000E+02  0.51100000000E-03 0.  1.
         11   -1    0    0    0    0 -0.00000000000E+00 -0.00000000000E+00 -0.45593999997E+02  0.45594000000E+02  0.51100000000E-03 0. -1.
    9900012    2    1    2    0    0  0.22959330570E+02  0.25668546302E+02  0.26412459451E+02  0.47787272544E+02  0.20000006837E+02 0.  0.
         12    1    1    2    0    0 -0.22959330570E+02 -0.25668546302E+02 -0.26412459451E+02  0.43400727456E+02  0.00000000000E+00 0. -1.
         11    1    3    3    0    0 -0.85036294221E+00  0.38730953903E+01 -0.84080683705E+00  0.40535097674E+01  0.51100000000E-03 0. -1.
        -11    1    3    3    0    0  0.68268142871E+01  0.13239272452E+02  0.91705351601E+01  0.17492353865E+02  0.51100000000E-03 0.  1.
        -12    1    3    3    0    0  0.16982879225E+02  0.85561784597E+01  0.18082731128E+02  0.26241408911E+02  0.00000000000E+00 0.  1.
</event>
<event>
 7    1  0.2414091E-009  0.4778728E+02  0.7816164E-02  0.1312668E+00
        -11   -1    0    0    0    0  0.00000000000E+00  0.00000000000E+00  0.45593999997E+02  0.45594000000E+02  0.51100000000E-03 0.  1.
         11   -1    0    0    0    0 -0.00000000000E+00 -0.00000000000E+00 -0.45593999997E+02  0.45594000000E+02  0.51100000000E-03 0. -1.
    9900012    2    1    2    0    0  0.70921948709E+01 -0.33270767443E+02  0.26951431849E+02  0.47787275662E+02  0.20000021053E+02 0.  0.
         12    1    1    2    0    0 -0.70921948709E+01  0.33270767443E+02 -0.26951431849E+02  0.43400724338E+02  0.00000000000E+00 0. -1.
         11    1    3    3    0    0  0.47818825087E+01 -0.53966509833E+01  0.38292529301E+01  0.81641546057E+01  0.51100000000E-03 0. -1.
        -11    1    3    3    0    0  0.44110298896E+01 -0.29298971317E+02  0.21550939487E+02  0.36637820595E+02  0.51100000000E-03 0.  1.
         12    1    3    3    0    0 -0.21007175275E+01  0.14248548567E+01  0.15712394320E+01  0.29853004615E+01  0.00000000000E+00 0. -1.
</event>
<event>
 7    1  0.2414091E-009  0.4778727E+02  0.7816164E-02  0.1312668E+00
        -11   -1    0    0    0    0  0.00000000000E+00  0.00000000000E+00  0.45593999997E+02  0.45594000000E+02  0.51100000000E-03 0.  1.
         11   -1    0    0    0    0 -0.00000000000E+00 -0.00000000000E+00 -0.45593999997E+02  0.45594000000E+02  0.51100000000E-03 0. -1.
    9900012    2    1    2    0    0 -0.35761484211E+02  0.80207115634E+00  0.24578364183E+02  0.47787273543E+02  0.20000011392E+02 0.  0.
         12    1    1    2    0    0  0.35761484211E+02 -0.80207115634E+00 -0.24578364183E+02  0.43400726457E+02  0.00000000000E+00 0. -1.
         11    1    3    3    0    0 -0.18215174552E+02 -0.35373470500E+01  0.12628147034E+02  0.22444943882E+02  0.51100000000E-03 0. -1.
        -11    1    3    3    0    0 -0.97185163986E+01 -0.76200513725E+00 -0.51756164319E+00  0.97620737108E+01  0.51100000000E-03 0.  1.
         12    1    3    3    0    0 -0.78277932606E+01  0.51014233436E+01  0.12467778792E+02  0.15580255950E+02  0.00000000000E+00 0. -1.
</event>
<event>
 7    1  0.2414091E-009  0.4778727E+02  0.7816164E-02  0.1312668E+00
        -11   -1    0    0    0    0  0.00000000000E+00  0.00000000000E+00  0.45593999997E+02  0.45594000000E+02  0.51100000000E-03 0.  1.
         11   -1    0    0    0    0 -0.00000000000E+00 -0.00000000000E+00 -0.45593999997E+02  0.45594000000E+02  0.51100000000E-03 0. -1.
    9900012    2    1    2    0    0  0.96555809607E+01  0.27547966119E+02  0.32117019153E+02  0.47787267284E+02  0.19999982856E+02 0.  0.
         12    1    1    2    0    0 -0.96555809607E+01 -0.27547966119E+02 -0.32117019153E+02  0.43400732716E+02  0.00000000000E+00 0. -1.
         11    1    3    3    0    0  0.40613131607E+00  0.85523333267E+01  0.91021954250E+01  0.12496291842E+02  0.51100000000E-03 0. -1.
        -11    1    3    3    0    0  0.29032856070E+01  0.19460629363E+02  0.20594737237E+02  0.28483124208E+02  0.51100000000E-03 0.  1.
         12    1    3    3    0    0  0.63461640377E+01 -0.46499657125E+00  0.24200864916E+01  0.68078512345E+01  0.00000000000E+00 0. -1.
</event>
<event>
 7    1  0.2414091E-009  0.4778725E+02  0.7816164E-02  0.1312668E+00
        -11   -1    0    0    0    0  0.00000000000E+00  0.00000000000E+00  0.45593999997E+02  0.45594000000E+02  0.51100000000E-03 0.  1.
         11   -1    0    0    0    0 -0.00000000000E+00 -0.00000000000E+00 -0.45593999997E+02  0.45594000000E+02  0.51100000000E-03 0. -1.
    9900012    2    1    2    0    0  0.27182730779E+02  0.30686006345E+02 -0.14251075372E+02  0.47787251305E+02  0.19999910000E+02 0.  0.
         12    1    1    2    0    0 -0.27182730779E+02 -0.30686006345E+02  0.14251075372E+02  0.43400748695E+02  0.00000000000E+00 0. -1.
         11    1    3    3    0    0  0.51206437841E+01  0.98132838130E+01 -0.47201427341E+01  0.12033340336E+02  0.51100000000E-03 0. -1.
        -11    1    3    3    0    0  0.23930035192E+02  0.16940018831E+02 -0.10757996707E+02  0.31230518979E+02  0.51100000000E-03 0.  1.
        -12    1    3    3    0    0 -0.18679481963E+01  0.39327037006E+01  0.12270640697E+01  0.45233919896E+01  0.00000000000E+00 0.  1.
</event>
<event>
 7    1  0.2414091E-009  0.4778727E+02  0.7816164E-02  0.1312668E+00
        -11   -1    0    0    0    0  0.00000000000E+00  0.00000000000E+00  0.45593999997E+02  0.45594000000E+02  0.51100000000E-03 0.  1.
         11   -1    0    0    0    0 -0.00000000000E+00 -0.00000000000E+00 -0.45593999997E+02  0.45594000000E+02  0.51100000000E-03 0. -1.
    9900012    2    1    2    0    0 -0.26516804494E+02 -0.15346051777E+02  0.30740543036E+02  0.47787271759E+02  0.20000003260E+02 0.  0.
         12    1    1    2    0    0  0.26516804494E+02  0.15346051777E+02 -0.30740543036E+02  0.43400728241E+02  0.00000000000E+00 0. -1.
         11    1    3    3    0    0 -0.47443738508E+01  0.10344119657E+01 -0.10497776446E+01  0.49680101364E+01  0.51100000000E-03 0. -1.
        -11    1    3    3    0    0 -0.74006307673E+01 -0.80744142895E+00  0.93985232216E+01  0.11989726286E+02  0.51100000000E-03 0.  1.
        -12    1    3    3    0    0 -0.14371799875E+02 -0.15573022314E+02  0.22391797459E+02  0.30829535337E+02  0.00000000000E+00 0.  1.
</event>
<event>
 7    1  0.2414091E-009  0.4778729E+02  0.7816164E-02  0.1312668E+00
        -11   -1    0    0    0    0  0.00000000000E+00  0.00000000000E+00  0.45593999997E+02  0.45594000000E+02  0.51100000000E-03 0.  1.
         11   -1    0    0    0    0 -0.00000000000E+00 -0.00000000000E+00 -0.45593999997E+02  0.45594000000E+02  0.51100000000E-03 0. -1.
    9900012    2    1    2    0    0  0.15079238876E+02  0.33363949919E+02  0.23304179793E+02  0.47787292689E+02  0.20000098686E+02 0.  0.
         12    1    1    2    0    0 -0.15079238876E+02 -0.33363949919E+02 -0.23304179793E+02  0.43400707311E+02  0.00000000000E+00 0. -1.
         11    1    3    3    0    0  0.14869087047E+01  0.11053669280E+02  0.38573636446E+00  0.11159896722E+02  0.51100000000E-03 0. -1.
        -11    1    3    3    0    0  0.49950649600E+00  0.81688347669E+01  0.11855507211E+02  0.14405985551E+02  0.51100000000E-03 0.  1.
        -12    1    3    3    0    0  0.13092823675E+02  0.14141445872E+02  0.11062936218E+02  0.22221410417E+02  0.00000000000E+00 0.  1.
</event>
<event>
 7    1  0.2414091E-009  0.4778730E+02  0.7816164E-02  0.1312668E+00
        -11   -1    0    0    0    0  0.00000000000E+00  0.00000000000E+00  0.45593999997E+02  0.45594000000E+02  0.51100000000E-03 0.  1.
         11   -1    0    0    0    0 -0.00000000000E+00 -0.00000000000E+00 -0.45593999997E+02  0.45594000000E+02  0.51100000000E-03 0. -1.
    9900012    2    1    2    0    0  0.30031194514E+01 -0.33196337948E+02  0.27795770458E+02  0.47787303750E+02  0.20000149118E+02 0.  0.
         12    1    1    2    0    0 -0.30031194514E+01  0.33196337948E+02 -0.27795770458E+02  0.43400696250E+02  0.00000000000E+00 0. -1.
         11    1    3    3    0    0 -0.90873131390E-01  0.14427563179E+01  0.16331585284E+01  0.21810572572E+01  0.51100000000E-03 0. -1.
        -11    1    3    3    0    0 -0.23071938319E+00 -0.84855229980E+01  0.35099381542E-01  0.84887316020E+01  0.51100000000E-03 0.  1.
         12    1    3    3    0    0  0.33247119660E+01 -0.26153571268E+02  0.26127512548E+02  0.37117514891E+02  0.00000000000E+00 0. -1.
</event>
<event>
 7    1  0.2414091E-009  0.4778726E+02  0.7816164E-02  0.1312668E+00
        -11   -1    0    0    0    0  0.00000000000E+00  0.00000000000E+00  0.45593999997E+02  0.45594000000E+02  0.51100000000E-03 0.  1.
         11   -1    0    0    0    0 -0.00000000000E+00 -0.00000000000E+00 -0.45593999997E+02  0.45594000000E+02  0.51100000000E-03 0. -1.
    9900012    2    1    2    0    0 -0.23618149225E+02 -0.16373451724E+01  0.36374804452E+02  0.47787259557E+02  0.19999947626E+02 0.  0.
         12    1    1    2    0    0  0.23618149225E+02  0.16373451724E+01 -0.36374804452E+02  0.43400740443E+02  0.00000000000E+00 0. -1.
         11    1    3    3    0    0 -0.18412363859E+02 -0.34807010866E+01  0.23465868244E+02  0.30029608649E+02  0.51100000000E-03 0. -1.
        -11    1    3    3    0    0 -0.71923348231E+01  0.42811514609E+01  0.11706319973E+02  0.14390825745E+02  0.51100000000E-03 0.  1.
        -12    1    3    3    0    0  0.19865494569E+01 -0.24377955467E+01  0.12026162348E+01  0.33668251633E+01  0.00000000000E+00 0.  1.
</event>
<event>
 7    1  0.2414091E-009  0.4778726E+02  0.7816164E-02  0.1312668E+00
        -11   -1    0    0    0    0  0.00000000000E+00  0.00000000000E+00  0.45593999997E+02  0.45594000000E+02  0.51100000000E-03 0. -1.
         11   -1    0    0    0    0 -0.00000000000E+00 -0.00000000000E+00 -0.45593999997E+02  0.45594000000E+02  0.51100000000E-03 0.  1.
    9900012    2    1    2    0    0 -0.12780891106E+02  0.40445630987E+02 -0.91882414763E+01  0.47787262393E+02  0.19999960557E+02 0.  0.
         12    1    1    2    0    0  0.12780891106E+02 -0.40445630987E+02  0.91882414763E+01  0.43400737607E+02  0.00000000000E+00 0. -1.
         11    1    3    3    0    0 -0.47896244311E+01  0.43401547541E+01 -0.68707215879E+01  0.94331469235E+01  0.51100000000E-03 0. -1.
        -11    1    3    3    0    0 -0.84349499813E+00  0.15567495419E+02 -0.51618562624E+01  0.16422641619E+02  0.51100000000E-03 0.  1.
        -12    1    3    3    0    0 -0.71477716766E+01  0.20537980814E+02  0.28443363740E+01  0.21931473851E+02  0.00000000000E+00 0.  1.
</event>
<event>
 7    1  0.2414091E-009  0.4778727E+02  0.7816164E-02  0.1312668E+00
        -11   -1    0    0    0    0  0.00000000000E+00  0.00000000000E+00  0.45593999997E+02  0.45594000000E+02  0.51100000000E-03 0. -1.
         11   -1    0    0    0    0 -0.00000000000E+00 -0.00000000000E+00 -0.45593999997E+02  0.45594000000E+02  0.51100000000E-03 0.  1.
    9900012    2    1    2    0    0  0.22016911568E+02 -0.75580501197E+01 -0.36629972890E+02  0.47787269240E+02  0.19999991773E+02 0.  0.
         12    1    1    2    0    0 -0.22016911568E+02  0.75580501197E+01  0.36629972890E+02  0.43400730760E+02  0.00000000000E+00 0. -1.
         11    1    3    3    0    0  0.15030490372E+02  0.89821667546E+00 -0.20132146211E+02  0.25140122222E+02  0.51100000000E-03 0. -1.
        -11    1    3    3    0    0  0.61785262406E+01 -0.53532786453E+00 -0.11986623611E+02  0.13495921913E+02  0.51100000000E-03 0.  1.
         12    1    3    3    0    0  0.80789495521E+00 -0.79209389307E+01 -0.45112030672E+01  0.91512251046E+01  0.00000000000E+00 0. -1.
</event>
<event>
 7    1  0.2414091E-009  0.4778728E+02  0.7816164E-02  0.1312668E+00
        -11   -1    0    0    0    0  0.00000000000E+00  0.00000000000E+00  0.45593999997E+02  0.45594000000E+02  0.51100000000E-03 0. -1.
         11   -1    0    0    0    0 -0.00000000000E+00 -0.00000000000E+00 -0.45593999997E+02  0.45594000000E+02  0.51100000000E-03 0.  1.
    9900012    2    1    2    0    0 -0.23004578521E+02  0.36544545414E+02  0.43483766066E+01  0.47787276371E+02  0.20000024284E+02 0.  0.
         12    1    1    2    0    0  0.23004578521E+02 -0.36544545414E+02 -0.43483766066E+01  0.43400723629E+02  0.00000000000E+00 0. -1.
         11    1    3    3    0    0 -0.51070998854E+01  0.12071758861E+02 -0.11217206986E+01  0.13155534532E+02  0.51100000000E-03 0.  1.
        -11    1    3    3    0    0 -0.12091494984E+02  0.16103849470E+02  0.11099130325E+02  0.22994106048E+02  0.51100000000E-03 0. -1.
         12    1    3    3    0    0 -0.58059836518E+01  0.83689370826E+01 -0.56290330200E+01  0.11637635791E+02  0.00000000000E+00 0. -1.
</event>
<event>
 7    1  0.2414091E-009  0.4778727E+02  0.7816164E-02  0.1312668E+00
        -11   -1    0    0    0    0  0.00000000000E+00  0.00000000000E+00  0.45593999997E+02  0.45594000000E+02  0.51100000000E-03 0.  1.
         11   -1    0    0    0    0 -0.00000000000E+00 -0.00000000000E+00 -0.45593999997E+02  0.45594000000E+02  0.51100000000E-03 0. -1.
    9900012    2    1    2    0    0  0.11881979797E+02 -0.86800516425E+01  0.40830117030E+02  0.47787271929E+02  0.20000004032E+02 0.  0.
         12    1    1    2    0    0 -0.11881979797E+02  0.86800516425E+01 -0.40830117030E+02  0.43400728071E+02  0.00000000000E+00 0. -1.
         11    1    3    3    0    0  0.34496052236E+01 -0.80242450450E+00 -0.73084120093E-01  0.35424571746E+01  0.51100000000E-03 0. -1.
        -11    1    3    3    0    0  0.71467440712E+01 -0.36161442117E+01  0.90632973391E+01  0.12095280431E+02  0.51100000000E-03 0.  1.
        -12    1    3    3    0    0  0.12856305024E+01 -0.42614829263E+01  0.31839903811E+02  0.32149534323E+02  0.00000000000E+00 0.  1.
</event>
<event>
 7    1  0.2414091E-009  0.4778727E+02  0.7816164E-02  0.1312668E+00
        -11   -1    0    0    0    0  0.00000000000E+00  0.00000000000E+00  0.45593999997E+02  0.45594000000E+02  0.51100000000E-03 0. -1.
         11   -1    0    0    0    0 -0.00000000000E+00 -0.00000000000E+00 -0.45593999997E+02  0.45594000000E+02  0.51100000000E-03 0.  1.
    9900012    2    1    2    0    0 -0.15924073982E+02  0.37418069530E+02 -0.15163622257E+02  0.47787268445E+02  0.19999988150E+02 0.  0.
         12    1    1    2    0    0  0.15924073982E+02 -0.37418069530E+02  0.15163622257E+02  0.43400731555E+02  0.00000000000E+00 0. -1.
         11    1    3    3    0    0 -0.18841396387E+01 -0.53549493192E-01 -0.15133158174E+01  0.24172245967E+01  0.51100000000E-03 0.  1.
        -11    1    3    3    0    0 -0.13364649345E+02  0.32305896245E+02 -0.50628305698E+01  0.35325869245E+02  0.51100000000E-03 0. -1.
        -12    1    3    3    0    0 -0.67528499854E+00  0.51657227782E+01 -0.85874758700E+01  0.10044174604E+02  0.00000000000E+00 0.  1.
</event>
<event>
 7    1  0.2414091E-009  0.4778727E+02  0.7816164E-02  0.1312668E+00
        -11   -1    0    0    0    0  0.00000000000E+00  0.00000000000E+00  0.45593999997E+02  0.45594000000E+02  0.51100000000E-03 0. -1.
         11   -1    0    0    0    0 -0.00000000000E+00 -0.00000000000E+00 -0.45593999997E+02  0.45594000000E+02  0.51100000000E-03 0.  1.
    9900012    2    1    2    0    0  0.31100589854E+02  0.25033913233E+02 -0.17019973511E+02  0.47787274207E+02  0.20000014422E+02 0.  0.
         12    1    1    2    0    0 -0.31100589854E+02 -0.25033913233E+02  0.17019973511E+02  0.43400725793E+02  0.00000000000E+00 0. -1.
         11    1    3    3    0    0 -0.45249120351E-01  0.21638452225E+01 -0.20559412257E+01  0.29851579882E+01  0.51100000000E-03 0. -1.
        -11    1    3    3    0    0  0.28176696477E+02  0.25319858224E+02 -0.11409326797E+02  0.39562535094E+02  0.51100000000E-03 0.  1.
         12    1    3    3    0    0  0.29691424970E+01 -0.24497902137E+01 -0.35547054883E+01  0.52395811252E+01  0.00000000000E+00 0. -1.
</event>
<event>
 7    1  0.2414091E-009  0.4778727E+02  0.7816164E-02  0.1312668E+00
        -11   -1    0    0    0    0  0.00000000000E+00  0.00000000000E+00  0.45593999997E+02  0.45594000000E+02  0.51100000000E-03 0.  1.
         11   -1    0    0    0    0 -0.00000000000E+00 -0.00000000000E+00 -0.45593999997E+02  0.45594000000E+02  0.51100000000E-03 0. -1.
    9900012    2    1    2    0    0  0.24322354639E+02  0.31725719159E+02 -0.16897484320E+02  0.47787272268E+02  0.20000005576E+02 0.  0.
         12    1    1    2    0    0 -0.24322354639E+02 -0.31725719159E+02  0.16897484320E+02  0.43400727732E+02  0.00000000000E+00 0. -1.
         11    1    3    3    0    0  0.55174703749E+01  0.15597887618E+01 -0.47009443475E+01  0.74144654790E+01  0.51100000000E-03 0. -1.
        -11    1    3    3    0    0  0.10426614670E+02  0.84425569434E+01 -0.10484471245E+02  0.17026896334E+02  0.51100000000E-03 0.  1.
        -12    1    3    3    0    0  0.83782695945E+01  0.21723373454E+02 -0.17120687271E+01  0.23345910454E+02  0.00000000000E+00 0.  1.
</event>
<event>
 7    1  0.2414091E-009  0.4778727E+02  0.7816164E-02  0.1312668E+00
        -11   -1    0    0    0    0  0.00000000000E+00  0.00000000000E+00  0.45593999997E+02  0.45594000000E+02  0.51100000000E-03 0.  1.
         11   -1    0    0    0    0 -0.00000000000E+00 -0.00000000000E+00 -0.45593999997E+02  0.45594000000E+02  0.51100000000E-03 0. -1.
    9900012    2    1    2    0    0 -0.38883984187E+01  0.42559671386E+02 -0.75616064549E+01  0.47787272322E+02  0.20000005827E+02 0.  0.
         12    1    1    2    0    0  0.38883984187E+01 -0.42559671386E+02  0.75616064549E+01  0.43400727678E+02  0.00000000000E+00 0. -1.
         11    1    3    3    0    0  0.12495902347E+00  0.15353548689E+01  0.26007911243E+01  0.30227543837E+01  0.51100000000E-03 0. -1.
        -11    1    3    3    0    0 -0.86846708513E+01  0.16737151338E+02 -0.39926289266E+01  0.19274253000E+02  0.51100000000E-03 0.  1.
        -12    1    3    3    0    0  0.46713134090E+01  0.24287165179E+02 -0.61697686526E+01  0.25490264938E+02  0.00000000000E+00 0.  1.
</event>
<event>
 7    1  0.2414091E-009  0.4778727E+02  0.7816164E-02  0.1312668E+00
        -11   -1    0    0    0    0  0.00000000000E+00  0.00000000000E+00  0.45593999997E+02  0.45594000000E+02  0.51100000000E-03 0.  1.
         11   -1    0    0    0    0 -0.00000000000E+00 -0.00000000000E+00 -0.45593999997E+02  0.45594000000E+02  0.51100000000E-03 0. -1.
    9900012    2    1    2    0    0 -0.70089286885E+01 -0.37021355801E+02  0.21538746969E+02  0.47787268581E+02  0.19999988767E+02 0.  0.
         12    1    1    2    0    0  0.70089286885E+01  0.37021355801E+02 -0.21538746969E+02  0.43400731419E+02  0.00000000000E+00 0. -1.
         11    1    3    3    0    0 -0.27094597355E+01 -0.11653474687E+02 -0.19963669924E+01  0.12129720762E+02  0.51100000000E-03 0. -1.
        -11    1    3    3    0    0 -0.14817843984E+01 -0.74171391086E+00  0.31723584387E+01  0.35790617281E+01  0.51100000000E-03 0.  1.
        -12    1    3    3    0    0 -0.28176845547E+01 -0.24626167204E+02  0.20362755523E+02  0.32078486091E+02  0.00000000000E+00 0.  1.
</event>
<event>
 7    1  0.2414091E-009  0.4778729E+02  0.7816164E-02  0.1312668E+00
        -11   -1    0    0    0    0  0.00000000000E+00  0.00000000000E+00  0.45593999997E+02  0.45594000000E+02  0.51100000000E-03 0.  1.
         11   -1    0    0    0    0 -0.00000000000E+00 -0.00000000000E+00 -0.45593999997E+02  0.45594000000E+02  0.51100000000E-03 0. -1.
    9900012    2    1    2    0    0 -0.39197211269E+01 -0.17338543761E+02  0.39593340671E+02  0.47787286424E+02  0.20000070121E+02 0.  0.
         12    1    1    2    0    0  0.39197211269E+01  0.17338543761E+02 -0.39593340671E+02  0.43400713576E+02  0.00000000000E+00 0. -1.
         11    1    3    3    0    0 -0.19882236998E+01 -0.92756136865E+00  0.98875141929E+01  0.10127997865E+02  0.51100000000E-03 0. -1.
        -11    1    3    3    0    0  0.10337546103E+01 -0.18497222311E+02  0.28183087998E+02  0.33726878468E+02  0.51100000000E-03 0.  1.
         12    1    3    3    0    0 -0.29652520374E+01  0.20862399190E+01  0.15227384792E+01  0.39324100907E+01  0.00000000000E+00 0. -1.
</event>
<event>
 7    1  0.2414091E-009  0.4778727E+02  0.7816164E-02  0.1312668E+00
        -11   -1    0    0    0    0  0.00000000000E+00  0.00000000000E+00  0.45593999997E+02  0.45594000000E+02  0.51100000000E-03 0.  1.
         11   -1    0    0    0    0 -0.00000000000E+00 -0.00000000000E+00 -0.45593999997E+02  0.45594000000E+02  0.51100000000E-03 0. -1.
    9900012    2    1    2    0    0  0.21683792624E+02  0.31927537044E+02  0.19851165529E+02  0.47787271238E+02  0.20000000882E+02 0.  0.
         12    1    1    2    0    0 -0.21683792624E+02 -0.31927537044E+02 -0.19851165529E+02  0.43400728762E+02  0.00000000000E+00 0. -1.
         11    1    3    3    0    0 -0.17567566324E+01  0.22220060799E+01  0.45964218932E+01  0.53991295007E+01  0.51100000000E-03 0. -1.
        -11    1    3    3    0    0  0.58452489364E+01  0.15524125511E+02  0.93030339494E+01  0.19018723641E+02  0.51100000000E-03 0.  1.
        -12    1    3    3    0    0  0.17595300320E+02  0.14181405453E+02  0.59517096861E+01  0.23369418096E+02  0.00000000000E+00 0.  1.
</event>
<event>
 7    1  0.2414091E-009  0.4778727E+02  0.7816164E-02  0.1312668E+00
        -11   -1    0    0    0    0  0.00000000000E+00  0.00000000000E+00  0.45593999997E+02  0.45594000000E+02  0.51100000000E-03 0.  1.
         11   -1    0    0    0    0 -0.00000000000E+00 -0.00000000000E+00 -0.45593999997E+02  0.45594000000E+02  0.51100000000E-03 0. -1.
    9900012    2    1    2    0    0  0.24831648581E+02  0.31922756425E+02  0.15746428375E+02  0.47787272407E+02  0.20000006212E+02 0.  0.
         12    1    1    2    0    0 -0.24831648581E+02 -0.31922756425E+02 -0.15746428375E+02  0.43400727593E+02  0.00000000000E+00 0. -1.
         11    1    3    3    0    0  0.13022264561E+02  0.14703791028E+02  0.96206721212E+01  0.21870943674E+02  0.51100000000E-03 0. -1.
        -11    1    3    3    0    0  0.61417613223E+01  0.85188659748E+01  0.10314349628E+02  0.14719990426E+02  0.51100000000E-03 0.  1.
         12    1    3    3    0    0  0.56676226981E+01  0.87000994226E+01 -0.41885933742E+01  0.11196338306E+02  0.00000000000E+00 0. -1.
</event>
<event>
 7    1  0.2414091E-009  0.4778727E+02  0.7816164E-02  0.1312668E+00
        -11   -1    0    0    0    0  0.00000000000E+00  0.00000000000E+00  0.45593999997E+02  0.45594000000E+02  0.51100000000E-03 0.  1.
         11   -1    0    0    0    0 -0.00000000000E+00 -0.00000000000E+00 -0.45593999997E+02  0.45594000000E+02  0.51100000000E-03 0. -1.
    9900012    2    1    2    0    0  0.26859105900E+01  0.12339144459E+02  0.41522942681E+02  0.47787269930E+02  0.19999994921E+02 0.  0.
         12    1    1    2    0    0 -0.26859105900E+01 -0.12339144459E+02 -0.41522942681E+02  0.43400730070E+02  0.00000000000E+00 0. -1.
         11    1    3    3    0    0 -0.39370215030E+01  0.46972999012E+01  0.24383268499E+01  0.65962264034E+01  0.51100000000E-03 0. -1.
        -11    1    3    3    0    0  0.27431407685E+01  0.65765414659E+01  0.13245627425E+02  0.15040690312E+02  0.51100000000E-03 0.  1.
         12    1    3    3    0    0  0.38797913245E+01  0.10653030915E+01  0.25838988407E+02  0.26150353215E+02  0.00000000000E+00 0. -1.
</event>
<event>
 7    1  0.2414091E-009  0.4778727E+02  0.7816164E-02  0.1312668E+00
        -11   -1    0    0    0    0  0.00000000000E+00  0.00000000000E+00  0.45593999997E+02  0.45594000000E+02  0.51100000000E-03 0. -1.
         11   -1    0    0    0    0 -0.00000000000E+00 -0.00000000000E+00 -0.45593999997E+02  0.45594000000E+02  0.51100000000E-03 0.  1.
    9900012    2    1    2    0    0  0.10811586204E+02  0.40604866501E+02 -0.10861766733E+02  0.47787267790E+02  0.19999985161E+02 0.  0.
         12    1    1    2    0    0 -0.10811586204E+02 -0.40604866501E+02  0.10861766733E+02  0.43400732210E+02  0.00000000000E+00 0. -1.
         11    1    3    3    0    0  0.71310154483E+01  0.19155018535E+02 -0.95441041874E+01  0.22557837693E+02  0.51100000000E-03 0. -1.
        -11    1    3    3    0    0  0.62079873652E+01  0.21692794589E+02 -0.52574710397E+00  0.22569733151E+02  0.51100000000E-03 0.  1.
        -12    1    3    3    0    0 -0.25274166091E+01 -0.24294662299E+00 -0.79191544121E+00  0.26596969458E+01  0.00000000000E+00 0.  1.
</event>
<event>
 7    1  0.2414091E-009  0.4778727E+02  0.7816164E-02  0.1312668E+00
        -11   -1    0    0    0    0  0.00000000000E+00  0.00000000000E+00  0.45593999997E+02  0.45594000000E+02  0.51100000000E-03 0.  1.
         11   -1    0    0    0    0 -0.00000000000E+00 -0.00000000000E+00 -0.45593999997E+02  0.45594000000E+02  0.51100000000E-03 0. -1.
    9900012    2    1    2    0    0  0.15819174128E+02 -0.40415054840E+02  0.11836523376E-01  0.47787273418E+02  0.20000010820E+02 0.  0.
         12    1    1    2    0    0 -0.15819174128E+02  0.40415054840E+02 -0.11836523376E-01  0.43400726582E+02  0.00000000000E+00 0. -1.
         11    1    3    3    0    0  0.78179527890E+01 -0.67362057520E+01 -0.69946706393E+00  0.10343408924E+02  0.51100000000E-03 0. -1.
        -11    1    3    3    0    0  0.20689651059E+01 -0.51034197307E+01  0.55983292233E+01  0.78528211434E+01  0.51100000000E-03 0.  1.
        -12    1    3    3    0    0  0.59322562326E+01 -0.28575429357E+02 -0.48870256359E+01  0.29591043350E+02  0.00000000000E+00 0.  1.
</event>
<event>
 7    1  0.2414091E-009  0.4778727E+02  0.7816164E-02  0.1312668E+00
        -11   -1    0    0    0    0  0.00000000000E+00  0.00000000000E+00  0.45593999997E+02  0.45594000000E+02  0.51100000000E-03 0.  1.
         11   -1    0    0    0    0 -0.00000000000E+00 -0.00000000000E+00 -0.45593999997E+02  0.45594000000E+02  0.51100000000E-03 0. -1.
    9900012    2    1    2    0    0  0.24826388631E+02  0.34795985273E+02  0.75175215025E+01  0.47787270823E+02  0.19999998992E+02 0.  0.
         12    1    1    2    0    0 -0.24826388631E+02 -0.34795985273E+02 -0.75175215025E+01  0.43400729177E+02  0.00000000000E+00 0. -1.
         11    1    3    3    0    0 -0.15403199089E+01 -0.45280923015E+00 -0.98634545836E+00  0.18842768493E+01  0.51100000000E-03 0. -1.
        -11    1    3    3    0    0  0.93750665093E+01  0.14289942053E+02 -0.14314404156E+01  0.17150607507E+02  0.51100000000E-03 0.  1.
        -12    1    3    3    0    0  0.16991642030E+02  0.20958852450E+02  0.99353073765E+01  0.28752386467E+02  0.00000000000E+00 0.  1.
</event>
<event>
 7    1  0.2414091E-009  0.4778727E+02  0.7816164E-02  0.1312668E+00
        -11   -1    0    0    0    0  0.00000000000E+00  0.00000000000E+00  0.45593999997E+02  0.45594000000E+02  0.51100000000E-03 0.  1.
         11   -1    0    0    0    0 -0.00000000000E+00 -0.00000000000E+00 -0.45593999997E+02  0.45594000000E+02  0.51100000000E-03 0. -1.
    9900012    2    1    2    0    0 -0.49190620679E+01  0.24467755273E+02  0.35507110565E+02  0.47787272812E+02  0.20000008060E+02 0.  0.
         12    1    1    2    0    0  0.49190620679E+01 -0.24467755273E+02 -0.35507110565E+02  0.43400727188E+02  0.00000000000E+00 0. -1.
         11    1    3    3    0    0 -0.69962005167E+01  0.12920798177E+02  0.11817553801E+02  0.18855991761E+02  0.51100000000E-03 0. -1.
        -11    1    3    3    0    0 -0.23169137970E+01  0.11492577028E+02  0.20047085044E+02  0.23223544848E+02  0.51100000000E-03 0.  1.
         12    1    3    3    0    0  0.43940522457E+01  0.54380068526E-01  0.36424717204E+01  0.57077362031E+01  0.00000000000E+00 0. -1.
</event>
<event>
 7    1  0.2414091E-009  0.4778727E+02  0.7816164E-02  0.1312668E+00
        -11   -1    0    0    0    0  0.00000000000E+00  0.00000000000E+00  0.45593999997E+02  0.45594000000E+02  0.51100000000E-03 0. -1.
         11   -1    0    0    0    0 -0.00000000000E+00 -0.00000000000E+00 -0.45593999997E+02  0.45594000000E+02  0.51100000000E-03 0.  1.
    9900012    2    1    2    0    0  0.94426598413E+01 -0.98034043064E+01 -0.41211075662E+02  0.47787270535E+02  0.19999997677E+02 0.  0.
         12    1    1    2    0    0 -0.94426598413E+01  0.98034043064E+01  0.41211075662E+02  0.43400729465E+02  0.00000000000E+00 0. -1.
         11    1    3    3    0    0 -0.33450868643E+01  0.15876771140E+01 -0.28934986972E+01  0.46992190542E+01  0.51100000000E-03 0. -1.
        -11    1    3    3    0    0  0.30425790972E+01 -0.75896609516E+00 -0.17399779415E+02  0.17680091659E+02  0.51100000000E-03 0.  1.
        -12    1    3    3    0    0  0.97451676084E+01 -0.10632115325E+02 -0.20917797550E+02  0.25407959822E+02  0.00000000000E+00 0.  1.
</event>
<event>
 7    1  0.2414091E-009  0.4778727E+02  0.7816164E-02  0.1312668E+00
        -11   -1    0    0    0    0  0.00000000000E+00  0.00000000000E+00  0.45593999997E+02  0.45594000000E+02  0.51100000000E-03 0.  1.
         11   -1    0    0    0    0 -0.00000000000E+00 -0.00000000000E+00 -0.45593999997E+02  0.45594000000E+02  0.51100000000E-03 0. -1.
    9900012    2    1    2    0    0  0.35943105209E+02  0.23395075914E+02  0.66623436069E+01  0.47787271764E+02  0.20000003283E+02 0.  0.
         12    1    1    2    0    0 -0.35943105209E+02 -0.23395075914E+02 -0.66623436069E+01  0.43400728236E+02  0.00000000000E+00 0. -1.
         11    1    3    3    0    0  0.19901372787E+02  0.10358795807E+02  0.33025733078E+00  0.22438323456E+02  0.51100000000E-03 0. -1.
        -11    1    3    3    0    0  0.54577811965E+01  0.79445738868E+01 -0.32701689901E+01  0.10178292358E+02  0.51100000000E-03 0.  1.
         12    1    3    3    0    0  0.10583951225E+02  0.50917062199E+01  0.96022552662E+01  0.15170655951E+02  0.00000000000E+00 0. -1.
</event>
<event>
 7    1  0.2414091E-009  0.4778728E+02  0.7816164E-02  0.1312668E+00
        -11   -1    0    0    0    0  0.00000000000E+00  0.00000000000E+00  0.45593999997E+02  0.45594000000E+02  0.51100000000E-03 0.  1.
         11   -1    0    0    0    0 -0.00000000000E+00 -0.00000000000E+00 -0.45593999997E+02  0.45594000000E+02  0.51100000000E-03 0. -1.
    9900012    2    1    2    0    0  0.39576691651E+02 -0.12752331139E+02  0.12437300530E+02  0.47787275168E+02  0.20000018799E+02 0.  0.
         12    1    1    2    0    0 -0.39576691651E+02  0.12752331139E+02 -0.12437300530E+02  0.43400724832E+02  0.00000000000E+00 0. -1.
         11    1    3    3    0    0  0.79161779991E+01 -0.14889957225E+01  0.75189083270E+01  0.11018936658E+02  0.51100000000E-03 0. -1.
        -11    1    3    3    0    0  0.11952773252E+02  0.16988043965E+01  0.52804461178E+01  0.13177171026E+02  0.51100000000E-03 0.  1.
         12    1    3    3    0    0  0.19707740400E+02 -0.12962139813E+02 -0.36205391501E+00  0.23591167484E+02  0.00000000000E+00 0. -1.
</event>
<event>
 7    1  0.2414091E-009  0.4778727E+02  0.7816164E-02  0.1312668E+00
        -11   -1    0    0    0    0  0.00000000000E+00  0.00000000000E+00  0.45593999997E+02  0.45594000000E+02  0.51100000000E-03 0. -1.
         11   -1    0    0    0    0 -0.00000000000E+00 -0.00000000000E+00 -0.45593999997E+02  0.45594000000E+02  0.51100000000E-03 0.  1.
    9900012    2    1    2    0    0  0.32825673046E+02  0.21099291520E+02  0.18997850862E+02  0.47787271308E+02  0.20000001203E+02 0.  0.
         12    1    1    2    0    0 -0.32825673046E+02 -0.21099291520E+02 -0.18997850862E+02  0.43400728692E+02  0.00000000000E+00 0. -1.
         11    1    3    3    0    0  0.22088640636E+01  0.62327850578E+00  0.63745888313E+01  0.67751708153E+01  0.51100000000E-03 0. -1.
        -11    1    3    3    0    0  0.31087675616E+00  0.33833314870E+01 -0.11564182926E+01  0.35889942654E+01  0.51100000000E-03 0.  1.
        -12    1    3    3    0    0  0.30305932226E+02  0.17092681528E+02  0.13779680323E+02  0.37423106228E+02  0.00000000000E+00 0.  1.
</event>
<event>
 7    1  0.2414091E-009  0.4778727E+02  0.7816164E-02  0.1312668E+00
        -11   -1    0    0    0    0  0.00000000000E+00  0.00000000000E+00  0.45593999997E+02  0.45594000000E+02  0.51100000000E-03 0.  1.
         11   -1    0    0    0    0 -0.00000000000E+00 -0.00000000000E+00 -0.45593999997E+02  0.45594000000E+02  0.51100000000E-03 0. -1.
    9900012    2    1    2    0    0  0.35105822019E+02 -0.21401862038E+02  0.13898388712E+02  0.47787266744E+02  0.19999980394E+02 0.  0.
         12    1    1    2    0    0 -0.35105822019E+02  0.21401862038E+02 -0.13898388712E+02  0.43400733256E+02  0.00000000000E+00 0. -1.
         11    1    3    3    0    0  0.13910251137E+02 -0.78833063189E+01  0.72429756606E+01  0.17552843128E+02  0.51100000000E-03 0. -1.
        -11    1    3    3    0    0  0.10358996508E+02 -0.80965828680E+01  0.11221445080E+02  0.17285378004E+02  0.51100000000E-03 0.  1.
         12    1    3    3    0    0  0.10836574374E+02 -0.54219728508E+01 -0.45660320289E+01  0.12949045612E+02  0.00000000000E+00 0. -1.
</event>
<event>
 7    1  0.2414091E-009  0.4778727E+02  0.7816164E-02  0.1312668E+00
        -11   -1    0    0    0    0  0.00000000000E+00  0.00000000000E+00  0.45593999997E+02  0.45594000000E+02  0.51100000000E-03 0. -1.
         11   -1    0    0    0    0 -0.00000000000E+00 -0.00000000000E+00 -0.45593999997E+02  0.45594000000E+02  0.51100000000E-03 0.  1.
    9900012    2    1    2    0    0  0.22993288970E+02  0.35978293084E+02  0.77778101646E+01  0.47787271413E+02  0.20000001682E+02 0.  0.
         12    1    1    2    0    0 -0.22993288970E+02 -0.35978293084E+02 -0.77778101646E+01  0.43400728587E+02  0.00000000000E+00 0. -1.
         11    1    3    3    0    0 -0.18737696204E+01  0.22430370194E-01 -0.45718558119E+00  0.19288687433E+01  0.51100000000E-03 0. -1.
        -11    1    3    3    0    0  0.34977728199E+01  0.60394515161E+01 -0.27289311448E+01  0.74937610563E+01  0.51100000000E-03 0.  1.
         12    1    3    3    0    0  0.21369285770E+02  0.29916411198E+02  0.10963926891E+02  0.38364641614E+02  0.00000000000E+00 0. -1.
</event>
<event>
 7    1  0.2414091E-009  0.4778727E+02  0.7816164E-02  0.1312668E+00
        -11   -1    0    0    0    0  0.00000000000E+00  0.00000000000E+00  0.45593999997E+02  0.45594000000E+02  0.51100000000E-03 0. -1.
         11   -1    0    0    0    0 -0.00000000000E+00 -0.00000000000E+00 -0.45593999997E+02  0.45594000000E+02  0.51100000000E-03 0.  1.
    9900012    2    1    2    0    0  0.43019864387E+02 -0.41837401118E+01  0.39256513874E+01  0.47787272448E+02  0.20000006399E+02 0.  0.
         12    1    1    2    0    0 -0.43019864387E+02  0.41837401118E+01 -0.39256513874E+01  0.43400727552E+02  0.00000000000E+00 0. -1.
         11    1    3    3    0    0  0.18715416956E+02 -0.50131975373E+01  0.75829895363E+01  0.20806266170E+02  0.51100000000E-03 0. -1.
        -11    1    3    3    0    0  0.40392776854E+01 -0.34785296450E+01  0.16753003734E+01  0.55877154825E+01  0.51100000000E-03 0.  1.
         12    1    3    3    0    0  0.20265169746E+02  0.43079870706E+01 -0.53326385223E+01  0.21393290795E+02  0.00000000000E+00 0. -1.
</event>
<event>
 7    1  0.2414091E-009  0.4778727E+02  0.7816164E-02  0.1312668E+00
        -11   -1    0    0    0    0  0.00000000000E+00  0.00000000000E+00  0.45593999997E+02  0.45594000000E+02  0.51100000000E-03 0. -1.
         11   -1    0    0    0    0 -0.00000000000E+00 -0.00000000000E+00 -0.45593999997E+02  0.45594000000E+02  0.51100000000E-03 0.  1.
    9900012    2    1    2    0    0 -0.22793042232E+02 -0.35546280055E+02 -0.10028070490E+02  0.47787274226E+02  0.20000014506E+02 0.  0.
         12    1    1    2    0    0  0.22793042232E+02  0.35546280055E+02  0.10028070490E+02  0.43400725774E+02  0.00000000000E+00 0. -1.
         11    1    3    3    0    0 -0.11347830026E+02 -0.12563822756E+02 -0.21127354621E+01  0.17061258451E+02  0.51100000000E-03 0. -1.
        -11    1    3    3    0    0 -0.10677468864E+02 -0.21747811456E+02 -0.11529010463E+02  0.26830835376E+02  0.51100000000E-03 0.  1.
         12    1    3    3    0    0 -0.76774334147E+00 -0.12346458438E+01  0.36136754343E+01  0.38951803992E+01  0.00000000000E+00 0. -1.
</event>
<event>
 7    1  0.2414091E-009  0.4778727E+02  0.7816164E-02  0.1312668E+00
        -11   -1    0    0    0    0  0.00000000000E+00  0.00000000000E+00  0.45593999997E+02  0.45594000000E+02  0.51100000000E-03 0.  1.
         11   -1    0    0    0    0 -0.00000000000E+00 -0.00000000000E+00 -0.45593999997E+02  0.45594000000E+02  0.51100000000E-03 0. -1.
    9900012    2    1    2    0    0  0.52970773503E+01 -0.32176084562E+02  0.28640247433E+02  0.47787271674E+02  0.20000002871E+02 0.  0.
         12    1    1    2    0    0 -0.52970773503E+01  0.32176084562E+02 -0.28640247433E+02  0.43400728326E+02  0.00000000000E+00 0. -1.
         11    1    3    3    0    0 -0.63070890464E+01 -0.61869916135E+01  0.74248160562E+01  0.11540629584E+02  0.51100000000E-03 0. -1.
        -11    1    3    3    0    0 -0.43001927863E+00 -0.58925459371E+01  0.33935337020E+01  0.68134488659E+01  0.51100000000E-03 0.  1.
        -12    1    3    3    0    0  0.12034185675E+02 -0.20096547011E+02  0.17821897675E+02  0.29433193224E+02  0.00000000000E+00 0.  1.
</event>
<event>
 7    1  0.2414091E-009  0.4778728E+02  0.7816164E-02  0.1312668E+00
        -11   -1    0    0    0    0  0.00000000000E+00  0.00000000000E+00  0.45593999997E+02  0.45594000000E+02  0.51100000000E-03 0.  1.
         11   -1    0    0    0    0 -0.00000000000E+00 -0.00000000000E+00 -0.45593999997E+02  0.45594000000E+02  0.51100000000E-03 0. -1.
    9900012    2    1    2    0    0 -0.37529188714E+02  0.19863437956E+01  0.21707995562E+02  0.47787278364E+02  0.20000033373E+02 0.  0.
         12    1    1    2    0    0  0.37529188714E+02 -0.19863437956E+01 -0.21707995562E+02  0.43400721636E+02  0.00000000000E+00 0. -1.
         11    1    3    3    0    0 -0.13008861367E+02 -0.53704947345E+01  0.75651514531E+01  0.15978241597E+02  0.51100000000E-03 0. -1.
        -11    1    3    3    0    0 -0.15501558842E+02 -0.70171951614E+00  0.11788578836E+02  0.19487465922E+02  0.51100000000E-03 0.  1.
        -12    1    3    3    0    0 -0.90187685047E+01  0.80585580463E+01  0.23542652736E+01  0.12321570846E+02  0.00000000000E+00 0.  1.
</event>
<event>
 7    1  0.2414091E-009  0.4778727E+02  0.7816164E-02  0.1312668E+00
        -11   -1    0    0    0    0  0.00000000000E+00  0.00000000000E+00  0.45593999997E+02  0.45594000000E+02  0.51100000000E-03 0.  1.
         11   -1    0    0    0    0 -0.00000000000E+00 -0.00000000000E+00 -0.45593999997E+02  0.45594000000E+02  0.51100000000E-03 0. -1.
    9900012    2    1    2    0    0 -0.35438737126E+02 -0.21186207510E+02 -0.13374011999E+02  0.47787266427E+02  0.19999978945E+02 0.  0.
         12    1    1    2    0    0  0.35438737126E+02  0.21186207510E+02  0.13374011999E+02  0.43400733573E+02  0.00000000000E+00 0. -1.
         11    1    3    3    0    0  0.84934250084E+00 -0.80600307706E+00 -0.31575690750E+01  0.33676796713E+01  0.51100000000E-03 0. -1.
        -11    1    3    3    0    0 -0.79238161093E+01 -0.91871216060E+01  0.37959476474E+00  0.12138128257E+02  0.51100000000E-03 0.  1.
        -12    1    3    3    0    0 -0.28364263518E+02 -0.11193082827E+02 -0.10596037688E+02  0.32281458498E+02  0.00000000000E+00 0.  1.
</event>
<event>
 7    1  0.2414091E-009  0.4778727E+02  0.7816164E-02  0.1312668E+00
        -11   -1    0    0    0    0  0.00000000000E+00  0.00000000000E+00  0.45593999997E+02  0.45594000000E+02  0.51100000000E-03 0.  1.
         11   -1    0    0    0    0 -0.00000000000E+00 -0.00000000000E+00 -0.45593999997E+02  0.45594000000E+02  0.51100000000E-03 0. -1.
    9900012    2    1    2    0    0 -0.94815506685E+01  0.17625363005E+02  0.38510649588E+02  0.47787270100E+02  0.19999995693E+02 0.  0.
         12    1    1    2    0    0  0.94815506685E+01 -0.17625363005E+02 -0.38510649588E+02  0.43400729900E+02  0.00000000000E+00 0. -1.
         11    1    3    3    0    0 -0.10716115197E+01 -0.15040316679E+01  0.31955053238E+00  0.18741865732E+01  0.51100000000E-03 0. -1.
        -11    1    3    3    0    0 -0.43429328194E+01  0.69757534117E+01  0.29000721718E+02  0.30142396413E+02  0.51100000000E-03 0.  1.
         12    1    3    3    0    0 -0.40670063294E+01  0.12153641262E+02  0.91903773385E+01  0.15770687113E+02  0.00000000000E+00 0. -1.
</event>
<event>
 7    1  0.2414091E-009  0.4778726E+02  0.7816164E-02  0.1312668E+00
        -11   -1    0    0    0    0  0.00000000000E+00  0.00000000000E+00  0.45593999997E+02  0.45594000000E+02  0.51100000000E-03 0.  1.
         11   -1    0    0    0    0 -0.00000000000E+00 -0.00000000000E+00 -0.45593999997E+02  0.45594000000E+02  0.51100000000E-03 0. -1.
    9900012    2    1    2    0    0 -0.18221526833E+02 -0.21845064296E+02  0.32777934175E+02  0.47787264488E+02  0.19999970108E+02 0.  0.
         12    1    1    2    0    0  0.18221526833E+02  0.21845064296E+02 -0.32777934175E+02  0.43400735512E+02  0.00000000000E+00 0. -1.
         11    1    3    3    0    0 -0.41869063571E+01 -0.12821979156E+02  0.64643257821E+01  0.14957300639E+02  0.51100000000E-03 0. -1.
        -11    1    3    3    0    0 -0.46531727662E+01 -0.46649790841E+01  0.28337840433E+01  0.71724736955E+01  0.51100000000E-03 0.  1.
         12    1    3    3    0    0 -0.93814477095E+01 -0.43581060551E+01  0.23479824349E+02  0.25657490154E+02  0.00000000000E+00 0. -1.
</event>
<event>
 7    1  0.2414091E-009  0.4778727E+02  0.7816164E-02  0.1312668E+00
        -11   -1    0    0    0    0  0.00000000000E+00  0.00000000000E+00  0.45593999997E+02  0.45594000000E+02  0.51100000000E-03 0.  1.
         11   -1    0    0    0    0 -0.00000000000E+00 -0.00000000000E+00 -0.45593999997E+02  0.45594000000E+02  0.51100000000E-03 0. -1.
    9900012    2    1    2    0    0 -0.11002273964E+02 -0.12230307065E+02  0.40162082830E+02  0.47787270277E+02  0.19999996502E+02 0.  0.
         12    1    1    2    0    0  0.11002273964E+02  0.12230307065E+02 -0.40162082830E+02  0.43400729723E+02  0.00000000000E+00 0. -1.
         11    1    3    3    0    0 -0.98480760483E+01 -0.57461592319E+01  0.10846356257E+02  0.15736784681E+02  0.51100000000E-03 0. -1.
        -11    1    3    3    0    0 -0.33775105093E+01 -0.72622589212E+01  0.28425550516E+02  0.29532353517E+02  0.51100000000E-03 0.  1.
         12    1    3    3    0    0  0.22233125939E+01  0.77811108840E+00  0.89017605647E+00  0.25181320790E+01  0.00000000000E+00 0. -1.
</event>
<event>
 7    1  0.2414091E-009  0.4778727E+02  0.7816164E-02  0.1312668E+00
        -11   -1    0    0    0    0  0.00000000000E+00  0.00000000000E+00  0.45593999997E+02  0.45594000000E+02  0.51100000000E-03 0.  1.
         11   -1    0    0    0    0 -0.00000000000E+00 -0.00000000000E+00 -0.45593999997E+02  0.45594000000E+02  0.51100000000E-03 0. -1.
    9900012    2    1    2    0    0  0.37287532592E+02  0.37413358597E+01  0.21892133717E+02  0.47787271901E+02  0.20000003907E+02 0.  0.
         12    1    1    2    0    0 -0.37287532592E+02 -0.37413358597E+01 -0.21892133717E+02  0.43400728099E+02  0.00000000000E+00 0. -1.
         11    1    3    3    0    0 -0.14387050770E+01 -0.99226792677E+00 -0.56017206317E+00  0.18352822504E+01  0.51100000000E-03 0. -1.
        -11    1    3    3    0    0  0.68182605163E+01  0.29808786039E+00  0.25371725561E+00  0.68294879419E+01  0.51100000000E-03 0.  1.
        -12    1    3    3    0    0  0.31907977153E+02  0.44355159261E+01  0.22198588525E+02  0.39122501709E+02  0.00000000000E+00 0.  1.
</event>
<event>
 7    1  0.2414091E-009  0.4778728E+02  0.7816164E-02  0.1312668E+00
        -11   -1    0    0    0    0  0.00000000000E+00  0.00000000000E+00  0.45593999997E+02  0.45594000000E+02  0.51100000000E-03 0. -1.
         11   -1    0    0    0    0 -0.00000000000E+00 -0.00000000000E+00 -0.45593999997E+02  0.45594000000E+02  0.51100000000E-03 0.  1.
    9900012    2    1    2    0    0  0.19387179555E+02 -0.25480858580E+02 -0.29299926048E+02  0.47787279367E+02  0.20000037946E+02 0.  0.
         12    1    1    2    0    0 -0.19387179555E+02  0.25480858580E+02  0.29299926048E+02  0.43400720633E+02  0.00000000000E+00 0. -1.
         11    1    3    3    0    0 -0.14286984369E+01 -0.54725572255E+01 -0.71111749271E-01  0.56564228052E+01  0.51100000000E-03 0. -1.
        -11    1    3    3    0    0  0.15971285871E+01 -0.63660052101E+01 -0.44268693021E+01  0.79166921209E+01  0.51100000000E-03 0.  1.
        -12    1    3    3    0    0  0.19218749405E+02 -0.13642296144E+02 -0.24801944997E+02  0.34214164441E+02  0.00000000000E+00 0.  1.
</event>
<event>
 7    1  0.2414091E-009  0.4778722E+02  0.7816164E-02  0.1312668E+00
        -11   -1    0    0    0    0  0.00000000000E+00  0.00000000000E+00  0.45593999997E+02  0.45594000000E+02  0.51100000000E-03 0.  1.
         11   -1    0    0    0    0 -0.00000000000E+00 -0.00000000000E+00 -0.45593999997E+02  0.45594000000E+02  0.51100000000E-03 0. -1.
    9900012    2    1    2    0    0  0.27084841034E+02  0.54698716922E+00  0.33907820717E+02  0.47787215277E+02  0.19999745733E+02 0.  0.
         12    1    1    2    0    0 -0.27084841034E+02 -0.54698716922E+00 -0.33907820717E+02  0.43400784723E+02  0.00000000000E+00 0. -1.
         11    1    3    3    0    0  0.75871123431E+00  0.36991299489E+01  0.56002089980E+01  0.67543723764E+01  0.51100000000E-03 0. -1.
        -11    1    3    3    0    0  0.90513499682E+01 -0.19585395677E+01  0.18990936773E+01  0.94535374618E+01  0.51100000000E-03 0.  1.
        -12    1    3    3    0    0  0.17274779831E+02 -0.11936032120E+01  0.26408518042E+02  0.31579305439E+02  0.00000000000E+00 0.  1.
</event>
<event>
 7    1  0.2414091E-009  0.4778728E+02  0.7816164E-02  0.1312668E+00
        -11   -1    0    0    0    0  0.00000000000E+00  0.00000000000E+00  0.45593999997E+02  0.45594000000E+02  0.51100000000E-03 0.  1.
         11   -1    0    0    0    0 -0.00000000000E+00 -0.00000000000E+00 -0.45593999997E+02  0.45594000000E+02  0.51100000000E-03 0. -1.
    9900012    2    1    2    0    0 -0.13576254305E+02 -0.10188323582E+02  0.39943788641E+02  0.47787275705E+02  0.20000021247E+02 0.  0.
         12    1    1    2    0    0  0.13576254305E+02  0.10188323582E+02 -0.39943788641E+02  0.43400724295E+02  0.00000000000E+00 0. -1.
         11    1    3    3    0    0  0.33095113882E+01 -0.12895780903E+01  0.49670364620E+01  0.61063351329E+01  0.51100000000E-03 0. -1.
        -11    1    3    3    0    0  0.90447953816E+00  0.87396574415E+00  0.19280618260E-01  0.12578836831E+01  0.51100000000E-03 0.  1.
        -12    1    3    3    0    0 -0.17790245231E+02 -0.97727112354E+01  0.34957471561E+02  0.40423056889E+02  0.00000000000E+00 0.  1.
</event>
<event>
 7    1  0.2414091E-009  0.4778727E+02  0.7816164E-02  0.1312668E+00
        -11   -1    0    0    0    0  0.00000000000E+00  0.00000000000E+00  0.45593999997E+02  0.45594000000E+02  0.51100000000E-03 0.  1.
         11   -1    0    0    0    0 -0.00000000000E+00 -0.00000000000E+00 -0.45593999997E+02  0.45594000000E+02  0.51100000000E-03 0. -1.
    9900012    2    1    2    0    0  0.29245295916E+00 -0.35449333057E+02  0.25037619758E+02  0.47787272517E+02  0.20000006713E+02 0.  0.
         12    1    1    2    0    0 -0.29245295916E+00  0.35449333057E+02 -0.25037619758E+02  0.43400727483E+02  0.00000000000E+00 0. -1.
         11    1    3    3    0    0  0.54450119124E+01 -0.96692045567E+01  0.12965946085E+02  0.17066265837E+02  0.51100000000E-03 0. -1.
        -11    1    3    3    0    0 -0.13185906131E+01 -0.15598318440E+02  0.12190335597E+02  0.19840627551E+02  0.51100000000E-03 0.  1.
        -12    1    3    3    0    0 -0.38339683402E+01 -0.10181810060E+02 -0.11866192439E+00  0.10880379129E+02  0.00000000000E+00 0.  1.
</event>
<event>
 7    1  0.2414091E-009  0.4778726E+02  0.7816164E-02  0.1312668E+00
        -11   -1    0    0    0    0  0.00000000000E+00  0.00000000000E+00  0.45593999997E+02  0.45594000000E+02  0.51100000000E-03 0. -1.
         11   -1    0    0    0    0 -0.00000000000E+00 -0.00000000000E+00 -0.45593999997E+02  0.45594000000E+02  0.51100000000E-03 0.  1.
    9900012    2    1    2    0    0 -0.10927308281E+01 -0.32696614973E+02 -0.28519487220E+02  0.47787264492E+02  0.19999970125E+02 0.  0.
         12    1    1    2    0    0  0.10927308281E+01  0.32696614973E+02  0.28519487220E+02  0.43400735508E+02  0.00000000000E+00 0. -1.
         11    1    3    3    0    0 -0.19922690236E+01 -0.20914362535E+01 -0.43401016481E+01  0.52134176930E+01  0.51100000000E-03 0. -1.
        -11    1    3    3    0    0 -0.78507366059E+01 -0.11946809369E+02 -0.11773272586E+02  0.18519456445E+02  0.51100000000E-03 0.  1.
        -12    1    3    3    0    0  0.87502748014E+01 -0.18658369350E+02 -0.12406112985E+02  0.24054390354E+02  0.00000000000E+00 0.  1.
</event>
<event>
 7    1  0.2414091E-009  0.4778727E+02  0.7816164E-02  0.1312668E+00
        -11   -1    0    0    0    0  0.00000000000E+00  0.00000000000E+00  0.45593999997E+02  0.45594000000E+02  0.51100000000E-03 0.  1.
         11   -1    0    0    0    0 -0.00000000000E+00 -0.00000000000E+00 -0.45593999997E+02  0.45594000000E+02  0.51100000000E-03 0. -1.
    9900012    2    1    2    0    0 -0.31910211647E+02 -0.24782608329E+02  0.15848779666E+02  0.47787273049E+02  0.20000009141E+02 0.  0.
         12    1    1    2    0    0  0.31910211647E+02  0.24782608329E+02 -0.15848779666E+02  0.43400726951E+02  0.00000000000E+00 0. -1.
         11    1    3    3    0    0 -0.40625029985E+01 -0.83728782122E-01  0.82001199182E+01  0.91516614915E+01  0.51100000000E-03 0. -1.
        -11    1    3    3    0    0 -0.30360177095E+01 -0.48457399616E+01  0.31889201241E+01  0.65473514590E+01  0.51100000000E-03 0.  1.
        -12    1    3    3    0    0 -0.24811690939E+02 -0.19853139585E+02  0.44597396233E+01  0.32088260099E+02  0.00000000000E+00 0.  1.
</event>
<event>
 7    1  0.2414091E-009  0.4778727E+02  0.7816164E-02  0.1312668E+00
        -11   -1    0    0    0    0  0.00000000000E+00  0.00000000000E+00  0.45593999997E+02  0.45594000000E+02  0.51100000000E-03 0.  1.
         11   -1    0    0    0    0 -0.00000000000E+00 -0.00000000000E+00 -0.45593999997E+02  0.45594000000E+02  0.51100000000E-03 0. -1.
    9900012    2    1    2    0    0  0.12906731751E+02 -0.25394977674E+02  0.32743468634E+02  0.47787270124E+02  0.19999995805E+02 0.  0.
         12    1    1    2    0    0 -0.12906731751E+02  0.25394977674E+02 -0.32743468634E+02  0.43400729876E+02  0.00000000000E+00 0. -1.
         11    1    3    3    0    0  0.48438925972E+00  0.71746141716E-01  0.61726303573E+01  0.61920227917E+01  0.51100000000E-03 0. -1.
        -11    1    3    3    0    0 -0.29871521275E+01 -0.17052138204E+01  0.14285432436E+01  0.37244554053E+01  0.51100000000E-03 0.  1.
        -12    1    3    3    0    0  0.15409494619E+02 -0.23761509995E+02  0.25142295033E+02  0.37870791927E+02  0.00000000000E+00 0.  1.
</event>
<event>
 7    1  0.2414091E-009  0.4778727E+02  0.7816164E-02  0.1312668E+00
        -11   -1    0    0    0    0  0.00000000000E+00  0.00000000000E+00  0.45593999997E+02  0.45594000000E+02  0.51100000000E-03 0.  1.
         11   -1    0    0    0    0 -0.00000000000E+00 -0.00000000000E+00 -0.45593999997E+02  0.45594000000E+02  0.51100000000E-03 0. -1.
    9900012    2    1    2    0    0  0.19528573993E+02  0.65707094675E+01  0.38197955331E+02  0.47787271705E+02  0.20000003010E+02 0.  0.
         12    1    1    2    0    0 -0.19528573993E+02 -0.65707094675E+01 -0.38197955331E+02  0.43400728295E+02  0.00000000000E+00 0. -1.
         11    1    3    3    0    0  0.40647251278E+01  0.54712593352E+01  0.22641448731E+02  0.23645123598E+02  0.51100000000E-03 0. -1.
        -11    1    3    3    0    0  0.53750310442E+01 -0.35173870585E+01  0.95956150379E+01  0.11547242037E+02  0.51100000000E-03 0.  1.
         12    1    3    3    0    0  0.10088817821E+02  0.46168371908E+01  0.59608915618E+01  0.12594906069E+02  0.00000000000E+00 0. -1.
</event>
<event>
 7    1  0.2414091E-009  0.4778728E+02  0.7816164E-02  0.1312668E+00
        -11   -1    0    0    0    0  0.00000000000E+00  0.00000000000E+00  0.45593999997E+02  0.45594000000E+02  0.51100000000E-03 0. -1.
         11   -1    0    0    0    0 -0.00000000000E+00 -0.00000000000E+00 -0.45593999997E+02  0.45594000000E+02  0.51100000000E-03 0.  1.
    9900012    2    1    2    0    0  0.41344646805E+01  0.27314862941E+02 -0.33472783585E+02  0.47787276773E+02  0.20000026120E+02 0.  0.
         12    1    1    2    0    0 -0.41344646805E+01 -0.27314862941E+02  0.33472783585E+02  0.43400723227E+02  0.00000000000E+00 0. -1.
         11    1    3    3    0    0  0.15312478006E+01 -0.20788651458E+00 -0.43742375339E+01  0.46391692030E+01  0.51100000000E-03 0. -1.
        -11    1    3    3    0    0 -0.22363749851E+01  0.88792023618E+01 -0.11834299839E+01  0.92326656196E+01  0.51100000000E-03 0.  1.
        -12    1    3    3    0    0  0.48395918650E+01  0.18643547094E+02 -0.27915116067E+02  0.33915441951E+02  0.00000000000E+00 0.  1.
</event>
<event>
 7    1  0.2414091E-009  0.4778727E+02  0.7816164E-02  0.1312668E+00
        -11   -1    0    0    0    0  0.00000000000E+00  0.00000000000E+00  0.45593999997E+02  0.45594000000E+02  0.51100000000E-03 0.  1.
         11   -1    0    0    0    0 -0.00000000000E+00 -0.00000000000E+00 -0.45593999997E+02  0.45594000000E+02  0.51100000000E-03 0. -1.
    9900012    2    1    2    0    0  0.21937015581E+02  0.16512684104E+02  0.33611337635E+02  0.47787269516E+02  0.19999993033E+02 0.  0.
         12    1    1    2    0    0 -0.21937015581E+02 -0.16512684104E+02 -0.33611337635E+02  0.43400730484E+02  0.00000000000E+00 0. -1.
         11    1    3    3    0    0 -0.50974385341E+00 -0.11741754313E+01  0.75456841456E+01  0.76534878471E+01  0.51100000000E-03 0. -1.
        -11    1    3    3    0    0  0.79838336285E+00  0.45420703550E+01  0.14974270110E+01  0.48487222047E+01  0.51100000000E-03 0.  1.
        -12    1    3    3    0    0  0.21648376071E+02  0.13144789181E+02  0.24568226478E+02  0.35285059464E+02  0.00000000000E+00 0.  1.
</event>
<event>
 7    1  0.2414091E-009  0.4778727E+02  0.7816164E-02  0.1312668E+00
        -11   -1    0    0    0    0  0.00000000000E+00  0.00000000000E+00  0.45593999997E+02  0.45594000000E+02  0.51100000000E-03 0.  1.
         11   -1    0    0    0    0 -0.00000000000E+00 -0.00000000000E+00 -0.45593999997E+02  0.45594000000E+02  0.51100000000E-03 0. -1.
    9900012    2    1    2    0    0  0.33515739179E+02  0.27570698049E+02 -0.41850055967E+00  0.47787270670E+02  0.19999998295E+02 0.  0.
         12    1    1    2    0    0 -0.33515739179E+02 -0.27570698049E+02  0.41850055967E+00  0.43400729330E+02  0.00000000000E+00 0. -1.
         11    1    3    3    0    0  0.84904937812E+01  0.11958870071E+02 -0.33893141788E+01  0.15052923599E+02  0.51100000000E-03 0. -1.
        -11    1    3    3    0    0  0.23189673543E+02  0.17404585603E+02  0.25142759207E+00  0.28995581994E+02  0.51100000000E-03 0.  1.
        -12    1    3    3    0    0  0.18355718550E+01 -0.17927576256E+01  0.27193860271E+01  0.37387650773E+01  0.00000000000E+00 0.  1.
</event>
<event>
 7    1  0.2414091E-009  0.4778727E+02  0.7816164E-02  0.1312668E+00
        -11   -1    0    0    0    0  0.00000000000E+00  0.00000000000E+00  0.45593999997E+02  0.45594000000E+02  0.51100000000E-03 0. -1.
         11   -1    0    0    0    0 -0.00000000000E+00 -0.00000000000E+00 -0.45593999997E+02  0.45594000000E+02  0.51100000000E-03 0.  1.
    9900012    2    1    2    0    0  0.18231128312E+02  0.60449789202E+01 -0.38919244655E+02  0.47787269428E+02  0.19999992628E+02 0.  0.
         12    1    1    2    0    0 -0.18231128312E+02 -0.60449789202E+01  0.38919244655E+02  0.43400730572E+02  0.00000000000E+00 0. -1.
         11    1    3    3    0    0 -0.31275848225E+01  0.26579756983E+01 -0.35102221820E+01  0.54007667662E+01  0.51100000000E-03 0. -1.
        -11    1    3    3    0    0  0.52242485168E+01 -0.29038749754E+01 -0.94252104256E+01  0.11160638614E+02  0.51100000000E-03 0.  1.
        -12    1    3    3    0    0  0.16134464618E+02  0.62908781974E+01 -0.25983812048E+02  0.31225864048E+02  0.00000000000E+00 0.  1.
</event>
<event>
 7    1  0.2414091E-009  0.4778727E+02  0.7816164E-02  0.1312668E+00
        -11   -1    0    0    0    0  0.00000000000E+00  0.00000000000E+00  0.45593999997E+02  0.45594000000E+02  0.51100000000E-03 0. -1.
         11   -1    0    0    0    0 -0.00000000000E+00 -0.00000000000E+00 -0.45593999997E+02  0.45594000000E+02  0.51100000000E-03 0.  1.
    9900012    2    1    2    0    0  0.29934997442E+02  0.22536158880E+02 -0.21900698720E+02  0.47787272664E+02  0.20000007385E+02 0.  0.
         12    1    1    2    0    0 -0.29934997442E+02 -0.22536158880E+02  0.21900698720E+02  0.43400727336E+02  0.00000000000E+00 0. -1.
         11    1    3    3    0    0  0.17872586989E+01 -0.51419483468E+00 -0.36808795468E+01  0.41240228520E+01  0.51100000000E-03 0.  1.
        -11    1    3    3    0    0  0.87840102658E+01  0.17155161194E+02 -0.68960860378E+01  0.20469841104E+02  0.51100000000E-03 0. -1.
        -12    1    3    3    0    0  0.19363728477E+02  0.58951925206E+01 -0.11323733135E+02  0.23193408708E+02  0.00000000000E+00 0.  1.
</event>
<event>
 7    1  0.2414091E-009  0.4778730E+02  0.7816164E-02  0.1312668E+00
        -11   -1    0    0    0    0  0.00000000000E+00  0.00000000000E+00  0.45593999997E+02  0.45594000000E+02  0.51100000000E-03 0.  1.
         11   -1    0    0    0    0 -0.00000000000E+00 -0.00000000000E+00 -0.45593999997E+02  0.45594000000E+02  0.51100000000E-03 0. -1.
    9900012    2    1    2    0    0 -0.27345841940E+02 -0.14865772592E+01  0.33669212260E+02  0.47787299112E+02  0.20000127970E+02 0.  0.
         12    1    1    2    0    0  0.27345841940E+02  0.14865772592E+01 -0.33669212260E+02  0.43400700888E+02  0.00000000000E+00 0. -1.
         11    1    3    3    0    0 -0.14071342863E+01 -0.26272275761E+01  0.35607551315E+00  0.30015232247E+01  0.51100000000E-03 0. -1.
        -11    1    3    3    0    0  0.86316019105E+00  0.21151127681E+00 -0.93307889208E+00  0.12885724720E+01  0.51100000000E-03 0.  1.
        -12    1    3    3    0    0 -0.26801867845E+02  0.92913904004E+00  0.34246215639E+02  0.43497203415E+02  0.00000000000E+00 0.  1.
</event>
<event>
 7    1  0.2414091E-009  0.4778728E+02  0.7816164E-02  0.1312668E+00
        -11   -1    0    0    0    0  0.00000000000E+00  0.00000000000E+00  0.45593999997E+02  0.45594000000E+02  0.51100000000E-03 0.  1.
         11   -1    0    0    0    0 -0.00000000000E+00 -0.00000000000E+00 -0.45593999997E+02  0.45594000000E+02  0.51100000000E-03 0. -1.
    9900012    2    1    2    0    0 -0.29171394869E+02 -0.77338153122E+01  0.31190381933E+02  0.47787284533E+02  0.20000061502E+02 0.  0.
         12    1    1    2    0    0  0.29171394869E+02  0.77338153122E+01 -0.31190381933E+02  0.43400715467E+02  0.00000000000E+00 0. -1.
         11    1    3    3    0    0 -0.22198493293E+01 -0.20133188387E+01 -0.12354331075E+01  0.32415241809E+01  0.51100000000E-03 0. -1.
        -11    1    3    3    0    0 -0.56390679712E+01 -0.55953890788E+01  0.15166051713E+02  0.17120648100E+02  0.51100000000E-03 0.  1.
         12    1    3    3    0    0 -0.21312477569E+02 -0.12510739473E+00  0.17259763327E+02  0.27425112253E+02  0.00000000000E+00 0. -1.
</event>
<event>
 7    1  0.2414091E-009  0.4778731E+02  0.7816164E-02  0.1312668E+00
        -11   -1    0    0    0    0  0.00000000000E+00  0.00000000000E+00  0.45593999997E+02  0.45594000000E+02  0.51100000000E-03 0.  1.
         11   -1    0    0    0    0 -0.00000000000E+00 -0.00000000000E+00 -0.45593999997E+02  0.45594000000E+02  0.51100000000E-03 0. -1.
    9900012    2    1    2    0    0 -0.26469945332E+02 -0.29930815336E+02  0.16944256776E+02  0.47787313943E+02  0.20000195592E+02 0.  0.
         12    1    1    2    0    0  0.26469945332E+02  0.29930815336E+02 -0.16944256776E+02  0.43400686057E+02  0.00000000000E+00 0. -1.
         11    1    3    3    0    0 -0.61602610798E+01 -0.51632843976E+01 -0.52987464539E+00  0.80553764495E+01  0.51100000000E-03 0. -1.
        -11    1    3    3    0    0 -0.24484572394E+01 -0.28493044538E+01 -0.30128117635E+01  0.48156529886E+01  0.51100000000E-03 0.  1.
        -12    1    3    3    0    0 -0.17861227012E+02 -0.21918226484E+02  0.20486943185E+02  0.34916284505E+02  0.00000000000E+00 0.  1.
</event>
<event>
 7    1  0.2414091E-009  0.4778725E+02  0.7816164E-02  0.1312668E+00
        -11   -1    0    0    0    0  0.00000000000E+00  0.00000000000E+00  0.45593999997E+02  0.45594000000E+02  0.51100000000E-03 0.  1.
         11   -1    0    0    0    0 -0.00000000000E+00 -0.00000000000E+00 -0.45593999997E+02  0.45594000000E+02  0.51100000000E-03 0. -1.
    9900012    2    1    2    0    0  0.25652359831E+02 -0.14886282260E+02  0.31685642762E+02  0.47787252061E+02  0.19999913449E+02 0.  0.
         12    1    1    2    0    0 -0.25652359831E+02  0.14886282260E+02 -0.31685642762E+02  0.43400747939E+02  0.00000000000E+00 0. -1.
         11    1    3    3    0    0  0.19093941015E+02 -0.97899508464E+01  0.12634700930E+02  0.24900951566E+02  0.51100000000E-03 0. -1.
        -11    1    3    3    0    0  0.78956902612E+01 -0.59421688059E+01  0.11459930496E+02  0.15132128141E+02  0.51100000000E-03 0.  1.
         12    1    3    3    0    0 -0.13372714452E+01  0.84583739259E+00  0.75910113352E+01  0.77541723546E+01  0.00000000000E+00 0. -1.
</event>
<event>
 7    1  0.2414091E-009  0.4778726E+02  0.7816164E-02  0.1312668E+00
        -11   -1    0    0    0    0  0.00000000000E+00  0.00000000000E+00  0.45593999997E+02  0.45594000000E+02  0.51100000000E-03 0.  1.
         11   -1    0    0    0    0 -0.00000000000E+00 -0.00000000000E+00 -0.45593999997E+02  0.45594000000E+02  0.51100000000E-03 0. -1.
    9900012    2    1    2    0    0  0.12539873610E+02 -0.20380519934E+02  0.36207875338E+02  0.47787259691E+02  0.19999948233E+02 0.  0.
         12    1    1    2    0    0 -0.12539873610E+02  0.20380519934E+02 -0.36207875338E+02  0.43400740309E+02  0.00000000000E+00 0. -1.
         11    1    3    3    0    0 -0.18744855193E+00 -0.10015729389E+02  0.13765841680E+02  0.17024933761E+02  0.51100000000E-03 0. -1.
        -11    1    3    3    0    0  0.17320129617E+01 -0.90717346762E+01  0.14285945597E+02  0.17011304500E+02  0.51100000000E-03 0.  1.
         12    1    3    3    0    0  0.10995309201E+02 -0.12930558686E+01  0.81560880608E+01  0.13751021429E+02  0.00000000000E+00 0. -1.
</event>
<event>
 7    1  0.2414091E-009  0.4778727E+02  0.7816164E-02  0.1312668E+00
        -11   -1    0    0    0    0  0.00000000000E+00  0.00000000000E+00  0.45593999997E+02  0.45594000000E+02  0.51100000000E-03 0. -1.
         11   -1    0    0    0    0 -0.00000000000E+00 -0.00000000000E+00 -0.45593999997E+02  0.45594000000E+02  0.51100000000E-03 0.  1.
    9900012    2    1    2    0    0  0.26559200926E+02  0.34146229940E+02 -0.35024734650E+01  0.47787268517E+02  0.19999988476E+02 0.  0.
         12    1    1    2    0    0 -0.26559200926E+02 -0.34146229940E+02  0.35024734650E+01  0.43400731483E+02  0.00000000000E+00 0. -1.
         11    1    3    3    0    0 -0.99339924470E+00  0.64074130369E+00 -0.34981000002E+01  0.36924375892E+01  0.51100000000E-03 0. -1.
        -11    1    3    3    0    0  0.15439552701E+01  0.81343049530E+00  0.14864879050E+01  0.22924034548E+01  0.51100000000E-03 0.  1.
        -12    1    3    3    0    0  0.26008644900E+02  0.32692058141E+02 -0.14908613698E+01  0.41802427473E+02  0.00000000000E+00 0.  1.
</event>
<event>
 7    1  0.2414091E-009  0.4778727E+02  0.7816164E-02  0.1312668E+00
        -11   -1    0    0    0    0  0.00000000000E+00  0.00000000000E+00  0.45593999997E+02  0.45594000000E+02  0.51100000000E-03 0.  1.
         11   -1    0    0    0    0 -0.00000000000E+00 -0.00000000000E+00 -0.45593999997E+02  0.45594000000E+02  0.51100000000E-03 0. -1.
    9900012    2    1    2    0    0  0.23583370910E+02  0.27559342284E+02  0.23831295383E+02  0.47787269934E+02  0.19999994938E+02 0.  0.
         12    1    1    2    0    0 -0.23583370910E+02 -0.27559342284E+02 -0.23831295383E+02  0.43400730066E+02  0.00000000000E+00 0. -1.
         11    1    3    3    0    0  0.16408353355E+01  0.20188487809E+01 -0.20633318231E+01  0.33204562144E+01  0.51100000000E-03 0. -1.
        -11    1    3    3    0    0  0.18628046360E+01  0.73406947756E+00  0.72142542138E+01  0.74869461887E+01  0.51100000000E-03 0.  1.
        -12    1    3    3    0    0  0.20079730938E+02  0.24806424026E+02  0.18680372992E+02  0.36979867531E+02  0.00000000000E+00 0.  1.
</event>
<event>
 7    1  0.2414091E-009  0.4778727E+02  0.7816164E-02  0.1312668E+00
        -11   -1    0    0    0    0  0.00000000000E+00  0.00000000000E+00  0.45593999997E+02  0.45594000000E+02  0.51100000000E-03 0.  1.
         11   -1    0    0    0    0 -0.00000000000E+00 -0.00000000000E+00 -0.45593999997E+02  0.45594000000E+02  0.51100000000E-03 0. -1.
    9900012    2    1    2    0    0  0.69661610053E+01 -0.32226404857E+02  0.28223303414E+02  0.47787269306E+02  0.19999992075E+02 0.  0.
         12    1    1    2    0    0 -0.69661610053E+01  0.32226404857E+02 -0.28223303414E+02  0.43400730694E+02  0.00000000000E+00 0. -1.
         11    1    3    3    0    0  0.99818514471E+01 -0.17004005395E+02  0.63980879134E+01  0.20729425631E+02  0.51100000000E-03 0. -1.
        -11    1    3    3    0    0 -0.79880178251E+00 -0.10622483093E+02  0.12475894056E+02  0.16404973761E+02  0.51100000000E-03 0.  1.
         12    1    3    3    0    0 -0.22168886593E+01 -0.45999163688E+01  0.93493214441E+01  0.10652869913E+02  0.00000000000E+00 0. -1.
</event>
<event>
 7    1  0.2414091E-009  0.4778727E+02  0.7816164E-02  0.1312668E+00
        -11   -1    0    0    0    0  0.00000000000E+00  0.00000000000E+00  0.45593999997E+02  0.45594000000E+02  0.51100000000E-03 0.  1.
         11   -1    0    0    0    0 -0.00000000000E+00 -0.00000000000E+00 -0.45593999997E+02  0.45594000000E+02  0.51100000000E-03 0. -1.
    9900012    2    1    2    0    0  0.23872817180E+01 -0.43332398853E+02 -0.47679312090E+00  0.47787271481E+02  0.20000001989E+02 0.  0.
         12    1    1    2    0    0 -0.23872817180E+01  0.43332398853E+02  0.47679312090E+00  0.43400728519E+02  0.00000000000E+00 0. -1.
         11    1    3    3    0    0 -0.23139498659E+01  0.42344989776E+00  0.78433663804E-01  0.23536834746E+01  0.51100000000E-03 0. -1.
        -11    1    3    3    0    0 -0.19662158019E+01 -0.14707277590E+01  0.86271596091E+00  0.26025610100E+01  0.51100000000E-03 0.  1.
        -12    1    3    3    0    0  0.66674473857E+01 -0.42285120991E+02 -0.14179427456E+01  0.42831026996E+02  0.00000000000E+00 0.  1.
</event>
<event>
 7    1  0.2414091E-009  0.4778727E+02  0.7816164E-02  0.1312668E+00
        -11   -1    0    0    0    0  0.00000000000E+00  0.00000000000E+00  0.45593999997E+02  0.45594000000E+02  0.51100000000E-03 0.  1.
         11   -1    0    0    0    0 -0.00000000000E+00 -0.00000000000E+00 -0.45593999997E+02  0.45594000000E+02  0.51100000000E-03 0. -1.
    9900012    2    1    2    0    0  0.69146041926E+01 -0.41619992178E+02 -0.10177792017E+02  0.47787274772E+02  0.20000016994E+02 0.  0.
         12    1    1    2    0    0 -0.69146041926E+01  0.41619992178E+02  0.10177792017E+02  0.43400725228E+02  0.00000000000E+00 0. -1.
         11    1    3    3    0    0 -0.14602627248E+01 -0.16895752081E+02  0.23062806053E+01  0.17114839646E+02  0.51100000000E-03 0. -1.
        -11    1    3    3    0    0 -0.20480400384E+01 -0.84066702041E+01 -0.36864587278E+01  0.94051342431E+01  0.51100000000E-03 0.  1.
         12    1    3    3    0    0  0.10422906956E+02 -0.16317569892E+02 -0.87976138941E+01  0.21267300883E+02  0.00000000000E+00 0. -1.
</event>
<event>
 7    1  0.2414091E-009  0.4778727E+02  0.7816164E-02  0.1312668E+00
        -11   -1    0    0    0    0  0.00000000000E+00  0.00000000000E+00  0.45593999997E+02  0.45594000000E+02  0.51100000000E-03 0.  1.
         11   -1    0    0    0    0 -0.00000000000E+00 -0.00000000000E+00 -0.45593999997E+02  0.45594000000E+02  0.51100000000E-03 0. -1.
    9900012    2    1    2    0    0 -0.55275484770E+01 -0.83258369152E+01  0.42234460604E+02  0.47787274027E+02  0.20000013597E+02 0.  0.
         12    1    1    2    0    0  0.55275484770E+01  0.83258369152E+01 -0.42234460604E+02  0.43400725973E+02  0.00000000000E+00 0. -1.
         11    1    3    3    0    0 -0.29988829492E+01 -0.47841127914E+01  0.14228965448E+02  0.15308314477E+02  0.51100000000E-03 0. -1.
        -11    1    3    3    0    0 -0.36130722170E+01  0.14859930782E+01  0.26945877227E+02  0.27227610362E+02  0.51100000000E-03 0.  1.
         12    1    3    3    0    0  0.10844066893E+01 -0.50277172020E+01  0.10596179296E+01  0.52513491874E+01  0.00000000000E+00 0. -1.
</event>
<event>
 7    1  0.2414091E-009  0.4778727E+02  0.7816164E-02  0.1312668E+00
        -11   -1    0    0    0    0  0.00000000000E+00  0.00000000000E+00  0.45593999997E+02  0.45594000000E+02  0.51100000000E-03 0.  1.
         11   -1    0    0    0    0 -0.00000000000E+00 -0.00000000000E+00 -0.45593999997E+02  0.45594000000E+02  0.51100000000E-03 0. -1.
    9900012    2    1    2    0    0 -0.19245984177E+02  0.62604502815E+01  0.38392997544E+02  0.47787269533E+02  0.19999993110E+02 0.  0.
         12    1    1    2    0    0  0.19245984177E+02 -0.62604502815E+01 -0.38392997544E+02  0.43400730467E+02  0.00000000000E+00 0. -1.
         11    1    3    3    0    0 -0.47999155933E+01  0.22313157835E+01  0.29445041429E+01  0.60570673380E+01  0.51100000000E-03 0. -1.
        -11    1    3    3    0    0 -0.16429246424E+02  0.37718135422E+01  0.35917305269E+02  0.39676183454E+02  0.51100000000E-03 0.  1.
         12    1    3    3    0    0  0.19831778407E+01  0.25732095585E+00 -0.46881186780E+00  0.20540187413E+01  0.00000000000E+00 0. -1.
</event>
<event>
 7    1  0.2414091E-009  0.4778727E+02  0.7816164E-02  0.1312668E+00
        -11   -1    0    0    0    0  0.00000000000E+00  0.00000000000E+00  0.45593999997E+02  0.45594000000E+02  0.51100000000E-03 0.  1.
         11   -1    0    0    0    0 -0.00000000000E+00 -0.00000000000E+00 -0.45593999997E+02  0.45594000000E+02  0.51100000000E-03 0. -1.
    9900012    2    1    2    0    0  0.79624646624E+01  0.13286440951E+02  0.40542481548E+02  0.47787272279E+02  0.20000005630E+02 0.  0.
         12    1    1    2    0    0 -0.79624646624E+01 -0.13286440951E+02 -0.40542481548E+02  0.43400727721E+02  0.00000000000E+00 0. -1.
         11    1    3    3    0    0  0.30623541070E+00 -0.10982227362E+01 -0.10882476374E+01  0.15761207081E+01  0.51100000000E-03 0. -1.
        -11    1    3    3    0    0 -0.29151977862E+01  0.32695712328E+01  0.60933639535E+01  0.75045025624E+01  0.51100000000E-03 0.  1.
         12    1    3    3    0    0  0.10571427038E+02  0.11115092454E+02  0.35537365232E+02  0.38706649009E+02  0.00000000000E+00 0. -1.
</event>
<event>
 7    1  0.2414091E-009  0.4778727E+02  0.7816164E-02  0.1312668E+00
        -11   -1    0    0    0    0  0.00000000000E+00  0.00000000000E+00  0.45593999997E+02  0.45594000000E+02  0.51100000000E-03 0. -1.
         11   -1    0    0    0    0 -0.00000000000E+00 -0.00000000000E+00 -0.45593999997E+02  0.45594000000E+02  0.51100000000E-03 0.  1.
    9900012    2    1    2    0    0  0.65524288216E-02  0.41503970070E+02 -0.12690301688E+02  0.47787270381E+02  0.19999996975E+02 0.  0.
         12    1    1    2    0    0 -0.65524288216E-02 -0.41503970070E+02  0.12690301688E+02  0.43400729619E+02  0.00000000000E+00 0. -1.
         11    1    3    3    0    0 -0.31149990785E+01  0.80363372250E+01 -0.41502268797E+00  0.86289153053E+01  0.51100000000E-03 0. -1.
        -11    1    3    3    0    0  0.39145861699E+01  0.18731510699E+02  0.12006204227E+01  0.19173809419E+02  0.51100000000E-03 0.  1.
         12    1    3    3    0    0 -0.79303466254E+00  0.14736122146E+02 -0.13475899422E+02  0.19984545657E+02  0.00000000000E+00 0. -1.
</event>
<event>
 7    1  0.2414091E-009  0.4778727E+02  0.7816164E-02  0.1312668E+00
        -11   -1    0    0    0    0  0.00000000000E+00  0.00000000000E+00  0.45593999997E+02  0.45594000000E+02  0.51100000000E-03 0.  1.
         11   -1    0    0    0    0 -0.00000000000E+00 -0.00000000000E+00 -0.45593999997E+02  0.45594000000E+02  0.51100000000E-03 0. -1.
    9900012    2    1    2    0    0 -0.33315321881E+02 -0.14653405457E+02  0.23642978825E+02  0.47787269462E+02  0.19999992784E+02 0.  0.
         12    1    1    2    0    0  0.33315321881E+02  0.14653405457E+02 -0.23642978825E+02  0.43400730538E+02  0.00000000000E+00 0. -1.
         11    1    3    3    0    0 -0.78358314671E+00 -0.24934983888E+01 -0.52822123888E+00  0.26665623377E+01  0.51100000000E-03 0. -1.
        -11    1    3    3    0    0 -0.17418294036E+02 -0.10281475763E+02  0.53738989748E+01  0.20928079258E+02  0.51100000000E-03 0.  1.
         12    1    3    3    0    0 -0.15113444699E+02 -0.18784313055E+01  0.18797301089E+02  0.24192627866E+02  0.00000000000E+00 0. -1.
</event>
<event>
 7    1  0.2414091E-009  0.4778727E+02  0.7816164E-02  0.1312668E+00
        -11   -1    0    0    0    0  0.00000000000E+00  0.00000000000E+00  0.45593999997E+02  0.45594000000E+02  0.51100000000E-03 0.  1.
         11   -1    0    0    0    0 -0.00000000000E+00 -0.00000000000E+00 -0.45593999997E+02  0.45594000000E+02  0.51100000000E-03 0. -1.
    9900012    2    1    2    0    0  0.28878822857E+02 -0.80323476637E+01  0.31386595044E+02  0.47787269971E+02  0.19999995104E+02 0.  0.
         12    1    1    2    0    0 -0.28878822857E+02  0.80323476637E+01 -0.31386595044E+02  0.43400730029E+02  0.00000000000E+00 0. -1.
         11    1    3    3    0    0  0.18367070177E+02 -0.72605082350E+01  0.12661678476E+02  0.23460229087E+02  0.51100000000E-03 0. -1.
        -11    1    3    3    0    0  0.11644900187E+02 -0.38306994766E+01  0.15125312414E+02  0.19469284392E+02  0.51100000000E-03 0.  1.
         12    1    3    3    0    0 -0.11331475072E+01  0.30588600479E+01  0.35996041535E+01  0.48577564912E+01  0.00000000000E+00 0. -1.
</event>
<event>
 7    1  0.2414091E-009  0.4778727E+02  0.7816164E-02  0.1312668E+00
        -11   -1    0    0    0    0  0.00000000000E+00  0.00000000000E+00  0.45593999997E+02  0.45594000000E+02  0.51100000000E-03 0.  1.
         11   -1    0    0    0    0 -0.00000000000E+00 -0.00000000000E+00 -0.45593999997E+02  0.45594000000E+02  0.51100000000E-03 0. -1.
    9900012    2    1    2    0    0 -0.37115781280E+02 -0.26495875547E+01  0.22338793679E+02  0.47787271467E+02  0.20000001926E+02 0.  0.
         12    1    1    2    0    0  0.37115781280E+02  0.26495875547E+01 -0.22338793679E+02  0.43400728533E+02  0.00000000000E+00 0. -1.
         11    1    3    3    0    0 -0.23459370067E+02 -0.81343458648E+01  0.79626608692E+01  0.26075152827E+02  0.51100000000E-03 0. -1.
        -11    1    3    3    0    0 -0.40974581765E+00  0.82882394553E+00 -0.66260106164E+00  0.11374889871E+01  0.51100000000E-03 0.  1.
        -12    1    3    3    0    0 -0.13246665395E+02  0.46559343646E+01  0.15038733871E+02  0.20574629653E+02  0.00000000000E+00 0.  1.
</event>
<event>
 7    1  0.2414091E-009  0.4778727E+02  0.7816164E-02  0.1312668E+00
        -11   -1    0    0    0    0  0.00000000000E+00  0.00000000000E+00  0.45593999997E+02  0.45594000000E+02  0.51100000000E-03 0.  1.
         11   -1    0    0    0    0 -0.00000000000E+00 -0.00000000000E+00 -0.45593999997E+02  0.45594000000E+02  0.51100000000E-03 0. -1.
    9900012    2    1    2    0    0 -0.24907310270E+02  0.20978204855E+02  0.28690835907E+02  0.47787271333E+02  0.20000001314E+02 0.  0.
         12    1    1    2    0    0  0.24907310270E+02 -0.20978204855E+02 -0.28690835907E+02  0.43400728667E+02  0.00000000000E+00 0. -1.
         11    1    3    3    0    0 -0.77860132252E+01 -0.57340819239E+00  0.55730557604E+01  0.95921712697E+01  0.51100000000E-03 0. -1.
        -11    1    3    3    0    0 -0.46068502935E+01  0.56803042016E+01  0.14465776216E+02  0.16209491271E+02  0.51100000000E-03 0.  1.
         12    1    3    3    0    0 -0.12514446751E+02  0.15871308846E+02  0.86520039299E+01  0.21985608792E+02  0.00000000000E+00 0. -1.
</event>
<event>
 7    1  0.2414091E-009  0.4778727E+02  0.7816164E-02  0.1312668E+00
        -11   -1    0    0    0    0  0.00000000000E+00  0.00000000000E+00  0.45593999997E+02  0.45594000000E+02  0.51100000000E-03 0. -1.
         11   -1    0    0    0    0 -0.00000000000E+00 -0.00000000000E+00 -0.45593999997E+02  0.45594000000E+02  0.51100000000E-03 0.  1.
    9900012    2    1    2    0    0  0.15227822527E+02  0.29165398699E+02 -0.28303996648E+02  0.47787270900E+02  0.19999999343E+02 0.  0.
         12    1    1    2    0    0 -0.15227822527E+02 -0.29165398699E+02  0.28303996648E+02  0.43400729100E+02  0.00000000000E+00 0. -1.
         11    1    3    3    0    0  0.15415973900E+01  0.99034228430E+01 -0.40308891991E+01  0.10802887323E+02  0.51100000000E-03 0. -1.
        -11    1    3    3    0    0  0.71307887778E+01  0.12466323810E+02 -0.44630487417E+01  0.15039154971E+02  0.51100000000E-03 0.  1.
        -12    1    3    3    0    0  0.65554363589E+01  0.67956520460E+01 -0.19810058707E+02  0.21945228606E+02  0.00000000000E+00 0.  1.
</event>
<event>
 7    1  0.2414091E-009  0.4778726E+02  0.7816164E-02  0.1312668E+00
        -11   -1    0    0    0    0  0.00000000000E+00  0.00000000000E+00  0.45593999997E+02  0.45594000000E+02  0.51100000000E-03 0. -1.
         11   -1    0    0    0    0 -0.00000000000E+00 -0.00000000000E+00 -0.45593999997E+02  0.45594000000E+02  0.51100000000E-03 0.  1.
    9900012    2    1    2    0    0  0.23352745155E+02  0.31126749983E+02 -0.19219743619E+02  0.47787264804E+02  0.19999971547E+02 0.  0.
         12    1    1    2    0    0 -0.23352745155E+02 -0.31126749983E+02  0.19219743619E+02  0.43400735196E+02  0.00000000000E+00 0. -1.
         11    1    3    3    0    0  0.75775618306E+01 -0.99096580669E-01 -0.30326234992E+01  0.81624793401E+01  0.51100000000E-03 0.  1.
        -11    1    3    3    0    0  0.47363239475E+01  0.64808135636E+01  0.67878391452E-01  0.80273480502E+01  0.51100000000E-03 0. -1.
        -12    1    3    3    0    0  0.11038859377E+02  0.24745033000E+02 -0.16254998511E+02  0.31597437414E+02  0.00000000000E+00 0.  1.
</event>
<event>
 7    1  0.2414091E-009  0.4778727E+02  0.7816164E-02  0.1312668E+00
        -11   -1    0    0    0    0  0.00000000000E+00  0.00000000000E+00  0.45593999997E+02  0.45594000000E+02  0.51100000000E-03 0.  1.
         11   -1    0    0    0    0 -0.00000000000E+00 -0.00000000000E+00 -0.45593999997E+02  0.45594000000E+02  0.51100000000E-03 0. -1.
    9900012    2    1    2    0    0 -0.37109134504E+02 -0.43699037666E+01 -0.22078035865E+02  0.47787267400E+02  0.19999983383E+02 0.  0.
         12    1    1    2    0    0  0.37109134504E+02  0.43699037666E+01  0.22078035865E+02  0.43400732600E+02  0.00000000000E+00 0. -1.
         11    1    3    3    0    0 -0.20891599534E+01  0.21790810924E+01 -0.39067415992E+01  0.49371665864E+01  0.51100000000E-03 0. -1.
        -11    1    3    3    0    0 -0.18382377905E+02 -0.28378735396E-01 -0.15539426600E+01  0.18447963597E+02  0.51100000000E-03 0.  1.
         12    1    3    3    0    0 -0.16637596645E+02 -0.65206061237E+01 -0.16617351606E+02  0.24402137217E+02  0.00000000000E+00 0. -1.
</event>
<event>
 7    1  0.2414091E-009  0.4778727E+02  0.7816164E-02  0.1312668E+00
        -11   -1    0    0    0    0  0.00000000000E+00  0.00000000000E+00  0.45593999997E+02  0.45594000000E+02  0.51100000000E-03 0. -1.
         11   -1    0    0    0    0 -0.00000000000E+00 -0.00000000000E+00 -0.45593999997E+02  0.45594000000E+02  0.51100000000E-03 0.  1.
    9900012    2    1    2    0    0  0.37025626167E+02  0.21860840588E+02 -0.59016713392E+01  0.47787273406E+02  0.20000010768E+02 0.  0.
         12    1    1    2    0    0 -0.37025626167E+02 -0.21860840588E+02  0.59016713392E+01  0.43400726594E+02  0.00000000000E+00 0. -1.
         11    1    3    3    0    0  0.94711494380E+01  0.39121402729E+01 -0.18185720545E+01  0.10407435696E+02  0.51100000000E-03 0.  1.
        -11    1    3    3    0    0  0.10087162745E+02  0.21234598117E+01  0.57928368156E+01  0.11824419329E+02  0.51100000000E-03 0. -1.
         12    1    3    3    0    0  0.17467313984E+02  0.15825240503E+02 -0.98759361003E+01  0.25555418381E+02  0.00000000000E+00 0. -1.
</event>
<event>
 7    1  0.2414091E-009  0.4778727E+02  0.7816164E-02  0.1312668E+00
        -11   -1    0    0    0    0  0.00000000000E+00  0.00000000000E+00  0.45593999997E+02  0.45594000000E+02  0.51100000000E-03 0.  1.
         11   -1    0    0    0    0 -0.00000000000E+00 -0.00000000000E+00 -0.45593999997E+02  0.45594000000E+02  0.51100000000E-03 0. -1.
    9900012    2    1    2    0    0  0.40725590675E+02 -0.11946686510E+02  0.90733871660E+01  0.47787269487E+02  0.19999992900E+02 0.  0.
         12    1    1    2    0    0 -0.40725590675E+02  0.11946686510E+02 -0.90733871660E+01  0.43400730513E+02  0.00000000000E+00 0. -1.
         11    1    3    3    0    0  0.78375824050E+01 -0.50807229596E+01  0.17554069314E+01  0.95038359362E+01  0.51100000000E-03 0. -1.
        -11    1    3    3    0    0  0.29553596889E+02 -0.10950750888E+02  0.33711370041E+01  0.31696980914E+02  0.51100000000E-03 0.  1.
         12    1    3    3    0    0  0.33344113808E+01  0.40847873379E+01  0.39468432305E+01  0.65864526369E+01  0.00000000000E+00 0. -1.
</event>
<event>
 7    1  0.2414091E-009  0.4778727E+02  0.7816164E-02  0.1312668E+00
        -11   -1    0    0    0    0  0.00000000000E+00  0.00000000000E+00  0.45593999997E+02  0.45594000000E+02  0.51100000000E-03 0. -1.
         11   -1    0    0    0    0 -0.00000000000E+00 -0.00000000000E+00 -0.45593999997E+02  0.45594000000E+02  0.51100000000E-03 0.  1.
    9900012    2    1    2    0    0 -0.23840802272E+02 -0.18052947036E+02 -0.31453631734E+02  0.47787266148E+02  0.19999977674E+02 0.  0.
         12    1    1    2    0    0  0.23840802272E+02  0.18052947036E+02  0.31453631734E+02  0.43400733852E+02  0.00000000000E+00 0. -1.
         11    1    3    3    0    0  0.16295060238E+01 -0.47633837956E+01 -0.62124105517E+01  0.79961966077E+01  0.51100000000E-03 0. -1.
        -11    1    3    3    0    0 -0.12568475941E+02 -0.12104854448E+02 -0.17423181775E+02  0.24658900059E+02  0.51100000000E-03 0.  1.
        -12    1    3    3    0    0 -0.12901832355E+02 -0.11847087923E+01 -0.78180394072E+01  0.15132169481E+02  0.00000000000E+00 0.  1.
</event>
<event>
 7    1  0.2414091E-009  0.4778727E+02  0.7816164E-02  0.1312668E+00
        -11   -1    0    0    0    0  0.00000000000E+00  0.00000000000E+00  0.45593999997E+02  0.45594000000E+02  0.51100000000E-03 0.  1.
         11   -1    0    0    0    0 -0.00000000000E+00 -0.00000000000E+00 -0.45593999997E+02  0.45594000000E+02  0.51100000000E-03 0. -1.
    9900012    2    1    2    0    0  0.14789666782E+02  0.54636762735E+01  0.40435592867E+02  0.47787272213E+02  0.20000005326E+02 0.  0.
         12    1    1    2    0    0 -0.14789666782E+02 -0.54636762735E+01 -0.40435592867E+02  0.43400727787E+02  0.00000000000E+00 0. -1.
         11    1    3    3    0    0  0.17208638832E+01  0.45476164085E+01  0.38702780315E+01  0.62145989255E+01  0.51100000000E-03 0.  1.
        -11    1    3    3    0    0  0.96513368912E+01  0.72710808467E+01  0.18256618109E+02  0.21893401414E+02  0.51100000000E-03 0. -1.
        -12    1    3    3    0    0  0.34174660074E+01 -0.63550209817E+01  0.18308696727E+02  0.19679271873E+02  0.00000000000E+00 0.  1.
</event>
<event>
 7    1  0.2414091E-009  0.4778728E+02  0.7816164E-02  0.1312668E+00
        -11   -1    0    0    0    0  0.00000000000E+00  0.00000000000E+00  0.45593999997E+02  0.45594000000E+02  0.51100000000E-03 0. -1.
         11   -1    0    0    0    0 -0.00000000000E+00 -0.00000000000E+00 -0.45593999997E+02  0.45594000000E+02  0.51100000000E-03 0.  1.
    9900012    2    1    2    0    0 -0.28923302687E+02 -0.11147533462E+02  0.30377588894E+02  0.47787275955E+02  0.20000022389E+02 0.  0.
         12    1    1    2    0    0  0.28923302687E+02  0.11147533462E+02 -0.30377588894E+02  0.43400724045E+02  0.00000000000E+00 0. -1.
         11    1    3    3    0    0 -0.86975510924E+01 -0.54522367261E+01  0.57693901409E+01  0.11775404162E+02  0.51100000000E-03 0. -1.
        -11    1    3    3    0    0 -0.16573926906E+02 -0.10758160929E+02  0.20849485970E+02  0.28725148305E+02  0.51100000000E-03 0.  1.
         12    1    3    3    0    0 -0.36518246890E+01  0.50628641937E+01  0.37587127830E+01  0.72867234879E+01  0.00000000000E+00 0. -1.
</event>
<event>
 7    1  0.2414091E-009  0.4778728E+02  0.7816164E-02  0.1312668E+00
        -11   -1    0    0    0    0  0.00000000000E+00  0.00000000000E+00  0.45593999997E+02  0.45594000000E+02  0.51100000000E-03 0.  1.
         11   -1    0    0    0    0 -0.00000000000E+00 -0.00000000000E+00 -0.45593999997E+02  0.45594000000E+02  0.51100000000E-03 0. -1.
    9900012    2    1    2    0    0  0.41435618592E+02 -0.92566059748E+01  0.90015221388E+01  0.47787278311E+02  0.20000033131E+02 0.  0.
         12    1    1    2    0    0 -0.41435618592E+02  0.92566059748E+01 -0.90015221388E+01  0.43400721689E+02  0.00000000000E+00 0. -1.
         11    1    3    3    0    0  0.13861194327E+02 -0.54291052305E+01  0.35392453314E+01  0.15301442728E+02  0.51100000000E-03 0. -1.
        -11    1    3    3    0    0  0.27600728959E+02 -0.44528217038E-01  0.68808763114E+01  0.28445538857E+02  0.51100000000E-03 0.  1.
         12    1    3    3    0    0 -0.26304693338E-01 -0.37829725273E+01 -0.14185995039E+01  0.40402967257E+01  0.00000000000E+00 0. -1.
</event>
<event>
 7    1  0.2414091E-009  0.4778727E+02  0.7816164E-02  0.1312668E+00
        -11   -1    0    0    0    0  0.00000000000E+00  0.00000000000E+00  0.45593999997E+02  0.45594000000E+02  0.51100000000E-03 0.  1.
         11   -1    0    0    0    0 -0.00000000000E+00 -0.00000000000E+00 -0.45593999997E+02  0.45594000000E+02  0.51100000000E-03 0. -1.
    9900012    2    1    2    0    0  0.14347246663E+02 -0.20774221281E+02  0.35301719723E+02  0.47787272217E+02  0.20000005347E+02 0.  0.
         12    1    1    2    0    0 -0.14347246663E+02  0.20774221281E+02 -0.35301719723E+02  0.43400727783E+02  0.00000000000E+00 0. -1.
         11    1    3    3    0    0  0.13239393141E+02 -0.18983408227E+02  0.27462806117E+02  0.35914579751E+02  0.51100000000E-03 0. -1.
        -11    1    3    3    0    0  0.20655063515E+01 -0.80179703933E+00  0.94772133650E+01  0.97327677671E+01  0.51100000000E-03 0.  1.
         12    1    3    3    0    0 -0.95765282905E+00 -0.98901601493E+00 -0.16382997584E+01  0.21399246989E+01  0.00000000000E+00 0. -1.
</event>
<event>
 7    1  0.2414091E-009  0.4778729E+02  0.7816164E-02  0.1312668E+00
        -11   -1    0    0    0    0  0.00000000000E+00  0.00000000000E+00  0.45593999997E+02  0.45594000000E+02  0.51100000000E-03 0. -1.
         11   -1    0    0    0    0 -0.00000000000E+00 -0.00000000000E+00 -0.45593999997E+02  0.45594000000E+02  0.51100000000E-03 0.  1.
    9900012    2    1    2    0    0 -0.18991630033E+01 -0.30917848110E+02 -0.30399040181E+02  0.47787288072E+02  0.20000077637E+02 0.  0.
         12    1    1    2    0    0  0.18991630033E+01  0.30917848110E+02  0.30399040181E+02  0.43400711928E+02  0.00000000000E+00 0. -1.
         11    1    3    3    0    0 -0.83970084682E+00  0.11094185874E+01  0.32468779521E+00  0.14287510419E+01  0.51100000000E-03 0. -1.
        -11    1    3    3    0    0 -0.59429090357E+01 -0.11853181643E+02 -0.16630619678E+02  0.21269546163E+02  0.51100000000E-03 0.  1.
         12    1    3    3    0    0  0.48834468792E+01 -0.20174085055E+02 -0.14093108299E+02  0.25088990867E+02  0.00000000000E+00 0. -1.
</event>
<event>
 7    1  0.2414091E-009  0.4778727E+02  0.7816164E-02  0.1312668E+00
        -11   -1    0    0    0    0  0.00000000000E+00  0.00000000000E+00  0.45593999997E+02  0.45594000000E+02  0.51100000000E-03 0.  1.
         11   -1    0    0    0    0 -0.00000000000E+00 -0.00000000000E+00 -0.45593999997E+02  0.45594000000E+02  0.51100000000E-03 0. -1.
    9900012    2    1    2    0    0  0.22481364729E+02  0.43186880742E+01  0.36872217422E+02  0.47787271384E+02  0.20000001547E+02 0.  0.
         12    1    1    2    0    0 -0.22481364729E+02 -0.43186880742E+01 -0.36872217422E+02  0.43400728616E+02  0.00000000000E+00 0. -1.
         11    1    3    3    0    0 -0.71148201769E+00  0.41945966326E+01  0.63185452520E+01  0.76174051970E+01  0.51100000000E-03 0. -1.
        -11    1    3    3    0    0  0.14842953891E+02  0.49133223562E+01  0.23542332194E+02  0.28261199943E+02  0.51100000000E-03 0.  1.
        -12    1    3    3    0    0  0.83498928557E+01 -0.47892309146E+01  0.70113399762E+01  0.11908666244E+02  0.00000000000E+00 0.  1.
</event>
<event>
 7    1  0.2414091E-009  0.4778729E+02  0.7816164E-02  0.1312668E+00
        -11   -1    0    0    0    0  0.00000000000E+00  0.00000000000E+00  0.45593999997E+02  0.45594000000E+02  0.51100000000E-03 0. -1.
         11   -1    0    0    0    0 -0.00000000000E+00 -0.00000000000E+00 -0.45593999997E+02  0.45594000000E+02  0.51100000000E-03 0.  1.
    9900012    2    1    2    0    0 -0.18933746772E+02 -0.22532462895E+02 -0.31897072213E+02  0.47787287255E+02  0.20000073912E+02 0.  0.
         12    1    1    2    0    0  0.18933746772E+02  0.22532462895E+02  0.31897072213E+02  0.43400712745E+02  0.00000000000E+00 0. -1.
         11    1    3    3    0    0 -0.47039266986E+01 -0.24756693455E+01 -0.14080779658E+02  0.15050721615E+02  0.51100000000E-03 0. -1.
        -11    1    3    3    0    0 -0.61614232213E+01 -0.78100806515E+01 -0.14690046059E+02  0.17741419035E+02  0.51100000000E-03 0.  1.
        -12    1    3    3    0    0 -0.80683968525E+01 -0.12246712898E+02 -0.31262464973E+01  0.14995146606E+02  0.00000000000E+00 0.  1.
</event>
<event>
 7    1  0.2414091E-009  0.4778729E+02  0.7816164E-02  0.1312668E+00
        -11   -1    0    0    0    0  0.00000000000E+00  0.00000000000E+00  0.45593999997E+02  0.45594000000E+02  0.51100000000E-03 0.  1.
         11   -1    0    0    0    0 -0.00000000000E+00 -0.00000000000E+00 -0.45593999997E+02  0.45594000000E+02  0.51100000000E-03 0. -1.
    9900012    2    1    2    0    0  0.39830744613E+02  0.12248128009E+02  0.12129176347E+02  0.47787288312E+02  0.20000078731E+02 0.  0.
         12    1    1    2    0    0 -0.39830744613E+02 -0.12248128009E+02 -0.12129176347E+02  0.43400711688E+02  0.00000000000E+00 0. -1.
         11    1    3    3    0    0  0.14768350648E+01 -0.57022955204E-02  0.20432153048E+01  0.25210718688E+01  0.51100000000E-03 0. -1.
        -11    1    3    3    0    0  0.38557775595E+02  0.74227194117E+01  0.94714025196E+01  0.40391908698E+02  0.51100000000E-03 0.  1.
         12    1    3    3    0    0 -0.20386604681E+00  0.48311108926E+01  0.61455852229E+00  0.48743077456E+01  0.00000000000E+00 0. -1.
</event>
<event>
 7    1  0.2414091E-009  0.4778727E+02  0.7816164E-02  0.1312668E+00
        -11   -1    0    0    0    0  0.00000000000E+00  0.00000000000E+00  0.45593999997E+02  0.45594000000E+02  0.51100000000E-03 0.  1.
         11   -1    0    0    0    0 -0.00000000000E+00 -0.00000000000E+00 -0.45593999997E+02  0.45594000000E+02  0.51100000000E-03 0. -1.
    9900012    2    1    2    0    0  0.33766921781E+02 -0.22392144898E+02  0.15556673082E+02  0.47787271468E+02  0.20000001933E+02 0.  0.
         12    1    1    2    0    0 -0.33766921781E+02  0.22392144898E+02 -0.15556673082E+02  0.43400728532E+02  0.00000000000E+00 0. -1.
         11    1    3    3    0    0  0.82776264641E+01 -0.26902979281E+01 -0.93829729876E+00  0.87542678108E+01  0.51100000000E-03 0. -1.
        -11    1    3    3    0    0  0.20138139560E+02 -0.10158226730E+02  0.48817918788E+01  0.23077394295E+02  0.51100000000E-03 0.  1.
        -12    1    3    3    0    0  0.53511557569E+01 -0.95436202395E+01  0.11613178502E+02  0.15955609363E+02  0.00000000000E+00 0.  1.
</event>
<event>
 7    1  0.2414091E-009  0.4778727E+02  0.7816164E-02  0.1312668E+00
        -11   -1    0    0    0    0  0.00000000000E+00  0.00000000000E+00  0.45593999997E+02  0.45594000000E+02  0.51100000000E-03 0.  1.
         11   -1    0    0    0    0 -0.00000000000E+00 -0.00000000000E+00 -0.45593999997E+02  0.45594000000E+02  0.51100000000E-03 0. -1.
    9900012    2    1    2    0    0 -0.27194537192E+02 -0.32433909337E+02  0.95980132022E+01  0.47787272064E+02  0.20000004649E+02 0.  0.
         12    1    1    2    0    0  0.27194537192E+02  0.32433909337E+02 -0.95980132022E+01  0.43400727936E+02  0.00000000000E+00 0. -1.
         11    1    3    3    0    0 -0.25598710709E+01 -0.11167866285E+02  0.46896526178E+00  0.11467087945E+02  0.51100000000E-03 0. -1.
        -11    1    3    3    0    0  0.39214255406E+00  0.64458797201E+00  0.22235809548E+01  0.23481017780E+01  0.51100000000E-03 0.  1.
        -12    1    3    3    0    0 -0.25026808675E+02 -0.21910631024E+02  0.69054669856E+01  0.33972082341E+02  0.00000000000E+00 0.  1.
</event>
<event>
 7    1  0.2414091E-009  0.4778727E+02  0.7816164E-02  0.1312668E+00
        -11   -1    0    0    0    0  0.00000000000E+00  0.00000000000E+00  0.45593999997E+02  0.45594000000E+02  0.51100000000E-03 0.  1.
         11   -1    0    0    0    0 -0.00000000000E+00 -0.00000000000E+00 -0.45593999997E+02  0.45594000000E+02  0.51100000000E-03 0. -1.
    9900012    2    1    2    0    0  0.36928692268E+02 -0.99703954645E+01  0.20505762203E+02  0.47787269800E+02  0.19999994325E+02 0.  0.
         12    1    1    2    0    0 -0.36928692268E+02  0.99703954645E+01 -0.20505762203E+02  0.43400730200E+02  0.00000000000E+00 0. -1.
         11    1    3    3    0    0  0.15147749841E+02 -0.12000740134E+02  0.16238042731E+02  0.25241753524E+02  0.51100000000E-03 0.  1.
        -11    1    3    3    0    0  0.17036448555E+00  0.36553194162E+00 -0.14071967466E+00  0.42712989387E+00  0.51100000000E-03 0. -1.
        -12    1    3    3    0    0  0.21610577942E+02  0.16648127280E+01  0.44084391474E+01  0.22118386382E+02  0.00000000000E+00 0.  1.
</event>
<event>
 7    1  0.2414091E-009  0.4778727E+02  0.7816164E-02  0.1312668E+00
        -11   -1    0    0    0    0  0.00000000000E+00  0.00000000000E+00  0.45593999997E+02  0.45594000000E+02  0.51100000000E-03 0. -1.
         11   -1    0    0    0    0 -0.00000000000E+00 -0.00000000000E+00 -0.45593999997E+02  0.45594000000E+02  0.51100000000E-03 0.  1.
    9900012    2    1    2    0    0 -0.20834500208E+02 -0.17231222858E+02 -0.33950430557E+02  0.47787272182E+02  0.20000005185E+02 0.  0.
         12    1    1    2    0    0  0.20834500208E+02  0.17231222858E+02  0.33950430557E+02  0.43400727818E+02  0.00000000000E+00 0. -1.
         11    1    3    3    0    0 -0.19796940625E+01 -0.65094107335E+01 -0.71683819580E+01  0.98831835375E+01  0.51100000000E-03 0. -1.
        -11    1    3    3    0    0 -0.16762946435E+01 -0.93833805424E+01 -0.10768736374E+02  0.14381358680E+02  0.51100000000E-03 0.  1.
         12    1    3    3    0    0 -0.17178511502E+02 -0.13384315826E+01 -0.16013312226E+02  0.23522729964E+02  0.00000000000E+00 0. -1.
</event>
<event>
 7    1  0.2414091E-009  0.4778727E+02  0.7816164E-02  0.1312668E+00
        -11   -1    0    0    0    0  0.00000000000E+00  0.00000000000E+00  0.45593999997E+02  0.45594000000E+02  0.51100000000E-03 0. -1.
         11   -1    0    0    0    0 -0.00000000000E+00 -0.00000000000E+00 -0.45593999997E+02  0.45594000000E+02  0.51100000000E-03 0.  1.
    9900012    2    1    2    0    0 -0.24571281554E+02  0.32788152183E+02 -0.14311271151E+02  0.47787270943E+02  0.19999999536E+02 0.  0.
         12    1    1    2    0    0  0.24571281554E+02 -0.32788152183E+02  0.14311271151E+02  0.43400729057E+02  0.00000000000E+00 0. -1.
         11    1    3    3    0    0  0.76451362151E-01  0.22066478515E+01 -0.25845454370E+00  0.22230471348E+01  0.51100000000E-03 0. -1.
        -11    1    3    3    0    0 -0.25732467185E+02  0.26242962391E+02 -0.16697080919E+02  0.40368867385E+02  0.51100000000E-03 0.  1.
        -12    1    3    3    0    0  0.10847342697E+01  0.43385419407E+01  0.26442643117E+01  0.51953564225E+01  0.00000000000E+00 0.  1.
</event>
<event>
 7    1  0.2414091E-009  0.4778727E+02  0.7816164E-02  0.1312668E+00
        -11   -1    0    0    0    0  0.00000000000E+00  0.00000000000E+00  0.45593999997E+02  0.45594000000E+02  0.51100000000E-03 0.  1.
         11   -1    0    0    0    0 -0.00000000000E+00 -0.00000000000E+00 -0.45593999997E+02  0.45594000000E+02  0.51100000000E-03 0. -1.
    9900012    2    1    2    0    0 -0.35813291009E+02 -0.17277111355E+02  0.17393472339E+02  0.47787271093E+02  0.20000000221E+02 0.  0.
         12    1    1    2    0    0  0.35813291009E+02  0.17277111355E+02 -0.17393472339E+02  0.43400728907E+02  0.00000000000E+00 0. -1.
         11    1    3    3    0    0 -0.11615397157E+02 -0.16186207283E+01  0.39268636617E+01  0.12367604564E+02  0.51100000000E-03 0. -1.
        -11    1    3    3    0    0 -0.13387198731E+02 -0.85212878809E+01  0.15644055636E+02  0.22283758974E+02  0.51100000000E-03 0.  1.
        -12    1    3    3    0    0 -0.10810695121E+02 -0.71372027458E+01 -0.21774469587E+01  0.13135907555E+02  0.00000000000E+00 0.  1.
</event>
<event>
 7    1  0.2414091E-009  0.4778728E+02  0.7816164E-02  0.1312668E+00
        -11   -1    0    0    0    0  0.00000000000E+00  0.00000000000E+00  0.45593999997E+02  0.45594000000E+02  0.51100000000E-03 0.  1.
         11   -1    0    0    0    0 -0.00000000000E+00 -0.00000000000E+00 -0.45593999997E+02  0.45594000000E+02  0.51100000000E-03 0. -1.
    9900012    2    1    2    0    0  0.14247749557E+02  0.36366248173E+02  0.18924063639E+02  0.47787279289E+02  0.20000037591E+02 0.  0.
         12    1    1    2    0    0 -0.14247749557E+02 -0.36366248173E+02 -0.18924063639E+02  0.43400720711E+02  0.00000000000E+00 0. -1.
         11    1    3    3    0    0  0.89654346535E+01  0.19746620983E+02  0.10935005661E+02  0.24287494886E+02  0.51100000000E-03 0. -1.
        -11    1    3    3    0    0  0.70138834615E+01  0.16669859983E+02  0.10143167993E+02  0.20735540752E+02  0.51100000000E-03 0.  1.
         12    1    3    3    0    0 -0.17315685579E+01 -0.50232793217E-01 -0.21541100156E+01  0.27642436513E+01  0.00000000000E+00 0. -1.
</event>
<event>
 7    1  0.2414091E-009  0.4778727E+02  0.7816164E-02  0.1312668E+00
        -11   -1    0    0    0    0  0.00000000000E+00  0.00000000000E+00  0.45593999997E+02  0.45594000000E+02  0.51100000000E-03 0.  1.
         11   -1    0    0    0    0 -0.00000000000E+00 -0.00000000000E+00 -0.45593999997E+02  0.45594000000E+02  0.51100000000E-03 0. -1.
    9900012    2    1    2    0    0  0.25794382797E+02  0.15420875602E+02  0.31312455448E+02  0.47787268965E+02  0.19999990518E+02 0.  0.
         12    1    1    2    0    0 -0.25794382797E+02 -0.15420875602E+02 -0.31312455448E+02  0.43400731035E+02  0.00000000000E+00 0. -1.
         11    1    3    3    0    0  0.13358531483E+02  0.39971610979E+01  0.75972123511E+01  0.15879083601E+02  0.51100000000E-03 0. -1.
        -11    1    3    3    0    0  0.11697736673E+02  0.11492231698E+02  0.12375234460E+02  0.20543973833E+02  0.51100000000E-03 0.  1.
         12    1    3    3    0    0  0.73811464084E+00 -0.68517193759E-01  0.11340008637E+02  0.11364211531E+02  0.00000000000E+00 0. -1.
</event>
<event>
 7    1  0.2414091E-009  0.4778726E+02  0.7816164E-02  0.1312668E+00
        -11   -1    0    0    0    0  0.00000000000E+00  0.00000000000E+00  0.45593999997E+02  0.45594000000E+02  0.51100000000E-03 0.  1.
         11   -1    0    0    0    0 -0.00000000000E+00 -0.00000000000E+00 -0.45593999997E+02  0.45594000000E+02  0.51100000000E-03 0. -1.
    9900012    2    1    2    0    0  0.19652415017E+02 -0.33860850113E+02  0.18730975716E+02  0.47787262245E+02  0.19999959882E+02 0.  0.
         12    1    1    2    0    0 -0.19652415017E+02  0.33860850113E+02 -0.18730975716E+02  0.43400737755E+02  0.00000000000E+00 0. -1.
         11    1    3    3    0    0 -0.13722540392E+01 -0.42493993698E+01 -0.41651933484E-01  0.44656703077E+01  0.51100000000E-03 0. -1.
        -11    1    3    3    0    0  0.12287067254E+01 -0.10979880190E+02  0.15913606581E+01  0.11162433347E+02  0.51100000000E-03 0.  1.
        -12    1    3    3    0    0  0.19795962331E+02 -0.18631570553E+02  0.17181266991E+02  0.32159158591E+02  0.00000000000E+00 0.  1.
</event>
<event>
 7    1  0.2414091E-009  0.4778728E+02  0.7816164E-02  0.1312668E+00
        -11   -1    0    0    0    0  0.00000000000E+00  0.00000000000E+00  0.45593999997E+02  0.45594000000E+02  0.51100000000E-03 0. -1.
         11   -1    0    0    0    0 -0.00000000000E+00 -0.00000000000E+00 -0.45593999997E+02  0.45594000000E+02  0.51100000000E-03 0.  1.
    9900012    2    1    2    0    0 -0.24773919420E+02  0.34295040967E+02 -0.96812079691E+01  0.47787277586E+02  0.20000029824E+02 0.  0.
         12    1    1    2    0    0  0.24773919420E+02 -0.34295040967E+02  0.96812079691E+01  0.43400722414E+02  0.00000000000E+00 0. -1.
         11    1    3    3    0    0 -0.15050454452E+02  0.12010781125E+02 -0.20213202874E+01  0.19361321711E+02  0.51100000000E-03 0. -1.
        -11    1    3    3    0    0 -0.23527619978E+01  0.89114551146E+01  0.31245422994E+01  0.97320237423E+01  0.51100000000E-03 0.  1.
        -12    1    3    3    0    0 -0.73707029705E+01  0.13372804727E+02 -0.10784429981E+02  0.18693932132E+02  0.00000000000E+00 0.  1.
</event>
<event>
 7    1  0.2414091E-009  0.4778727E+02  0.7816164E-02  0.1312668E+00
        -11   -1    0    0    0    0  0.00000000000E+00  0.00000000000E+00  0.45593999997E+02  0.45594000000E+02  0.51100000000E-03 0. -1.
         11   -1    0    0    0    0 -0.00000000000E+00 -0.00000000000E+00 -0.45593999997E+02  0.45594000000E+02  0.51100000000E-03 0.  1.
    9900012    2    1    2    0    0  0.32247689853E+02 -0.14115850141E+01 -0.29012365904E+02  0.47787269033E+02  0.19999990830E+02 0.  0.
         12    1    1    2    0    0 -0.32247689853E+02  0.14115850141E+01  0.29012365904E+02  0.43400730967E+02  0.00000000000E+00 0. -1.
         11    1    3    3    0    0  0.50845414948E+01  0.52590139159E+01 -0.54293427484E+01  0.91097504094E+01  0.51100000000E-03 0. -1.
        -11    1    3    3    0    0  0.19608366168E+02 -0.53458764139E+00 -0.10141115002E+02  0.22082029379E+02  0.51100000000E-03 0.  1.
         12    1    3    3    0    0  0.75547821899E+01 -0.61360112886E+01 -0.13441908154E+02  0.16595489245E+02  0.00000000000E+00 0. -1.
</event>
<event>
 7    1  0.2414091E-009  0.4778727E+02  0.7816164E-02  0.1312668E+00
        -11   -1    0    0    0    0  0.00000000000E+00  0.00000000000E+00  0.45593999997E+02  0.45594000000E+02  0.51100000000E-03 0.  1.
         11   -1    0    0    0    0 -0.00000000000E+00 -0.00000000000E+00 -0.45593999997E+02  0.45594000000E+02  0.51100000000E-03 0. -1.
    9900012    2    1    2    0    0  0.25019032424E+02  0.62456870070E+01  0.34909348173E+02  0.47787272131E+02  0.20000004956E+02 0.  0.
         12    1    1    2    0    0 -0.25019032424E+02 -0.62456870070E+01 -0.34909348173E+02  0.43400727869E+02  0.00000000000E+00 0. -1.
         11    1    3    3    0    0  0.21299285643E+02  0.56445071594E+01  0.31256958291E+02  0.38242874785E+02  0.51100000000E-03 0. -1.
        -11    1    3    3    0    0  0.47775924396E+01  0.33688366296E+01  0.22179294065E+01  0.62524923725E+01  0.51100000000E-03 0.  1.
         12    1    3    3    0    0 -0.10578456581E+01 -0.27676567819E+01  0.14344604757E+01  0.32919049736E+01  0.00000000000E+00 0. -1.
</event>
<event>
 7    1  0.2414091E-009  0.4778727E+02  0.7816164E-02  0.1312668E+00
        -11   -1    0    0    0    0  0.00000000000E+00  0.00000000000E+00  0.45593999997E+02  0.45594000000E+02  0.51100000000E-03 0.  1.
         11   -1    0    0    0    0 -0.00000000000E+00 -0.00000000000E+00 -0.45593999997E+02  0.45594000000E+02  0.51100000000E-03 0. -1.
    9900012    2    1    2    0    0 -0.83932099912E+01  0.34665640286E+02  0.24727933945E+02  0.47787270656E+02  0.19999998231E+02 0.  0.
         12    1    1    2    0    0  0.83932099912E+01 -0.34665640286E+02 -0.24727933945E+02  0.43400729344E+02  0.00000000000E+00 0. -1.
         11    1    3    3    0    0 -0.11129047876E+02  0.21004527365E+02  0.19186346314E+02  0.30547696502E+02  0.51100000000E-03 0. -1.
        -11    1    3    3    0    0 -0.26530560141E+01  0.78894279562E+01  0.18684555406E+01  0.85307037259E+01  0.51100000000E-03 0.  1.
        -12    1    3    3    0    0  0.53888938988E+01  0.57716849645E+01  0.36731320898E+01  0.87088704279E+01  0.00000000000E+00 0.  1.
</event>
<event>
 7    1  0.2414091E-009  0.4778727E+02  0.7816164E-02  0.1312668E+00
        -11   -1    0    0    0    0  0.00000000000E+00  0.00000000000E+00  0.45593999997E+02  0.45594000000E+02  0.51100000000E-03 0.  1.
         11   -1    0    0    0    0 -0.00000000000E+00 -0.00000000000E+00 -0.45593999997E+02  0.45594000000E+02  0.51100000000E-03 0. -1.
    9900012    2    1    2    0    0  0.34809841564E+02  0.10759797475E+02  0.23582299627E+02  0.47787272275E+02  0.20000005610E+02 0.  0.
         12    1    1    2    0    0 -0.34809841564E+02 -0.10759797475E+02 -0.23582299627E+02  0.43400727725E+02  0.00000000000E+00 0. -1.
         11    1    3    3    0    0  0.17750330130E+02  0.32716872241E+01  0.14044538950E+02  0.22869788622E+02  0.51100000000E-03 0.  1.
        -11    1    3    3    0    0  0.19092547790E+02  0.77900530748E+01  0.72890628986E+01  0.21871002405E+02  0.51100000000E-03 0. -1.
        -12    1    3    3    0    0 -0.20330363562E+01 -0.30194282418E+00  0.22486977781E+01  0.30464812476E+01  0.00000000000E+00 0.  1.
</event>
<event>
 7    1  0.2414091E-009  0.4778727E+02  0.7816164E-02  0.1312668E+00
        -11   -1    0    0    0    0  0.00000000000E+00  0.00000000000E+00  0.45593999997E+02  0.45594000000E+02  0.51100000000E-03 0. -1.
         11   -1    0    0    0    0 -0.00000000000E+00 -0.00000000000E+00 -0.45593999997E+02  0.45594000000E+02  0.51100000000E-03 0.  1.
    9900012    2    1    2    0    0  0.24663701568E+01 -0.81822995597E+01 -0.42551029115E+02  0.47787273202E+02  0.20000009838E+02 0.  0.
         12    1    1    2    0    0 -0.24663701568E+01  0.81822995597E+01  0.42551029115E+02  0.43400726798E+02  0.00000000000E+00 0. -1.
         11    1    3    3    0    0  0.37216052947E+01 -0.70885399895E+01 -0.48037261655E+01  0.93366766296E+01  0.51100000000E-03 0. -1.
        -11    1    3    3    0    0 -0.22901336239E+01 -0.32459903285E+01 -0.13131875894E+02  0.13719596568E+02  0.51100000000E-03 0.  1.
         12    1    3    3    0    0  0.10348984860E+01  0.21522307583E+01 -0.24615427056E+02  0.24731000005E+02  0.00000000000E+00 0. -1.
</event>
<event>
 7    1  0.2414091E-009  0.4778727E+02  0.7816164E-02  0.1312668E+00
        -11   -1    0    0    0    0  0.00000000000E+00  0.00000000000E+00  0.45593999997E+02  0.45594000000E+02  0.51100000000E-03 0. -1.
         11   -1    0    0    0    0 -0.00000000000E+00 -0.00000000000E+00 -0.45593999997E+02  0.45594000000E+02  0.51100000000E-03 0.  1.
    9900012    2    1    2    0    0  0.83237672841E+01 -0.42277188573E+02  0.51939675762E+01  0.47787273340E+02  0.20000010466E+02 0.  0.
         12    1    1    2    0    0 -0.83237672841E+01  0.42277188573E+02 -0.51939675762E+01  0.43400726660E+02  0.00000000000E+00 0. -1.
         11    1    3    3    0    0  0.33482624393E+01 -0.10415728833E+02 -0.20197364905E+01  0.11125538379E+02  0.51100000000E-03 0. -1.
        -11    1    3    3    0    0  0.78526426304E+01 -0.31250174253E+02  0.42752501642E+01  0.32504078996E+02  0.51100000000E-03 0.  1.
         12    1    3    3    0    0 -0.28771377856E+01 -0.61128548708E+00  0.29384539025E+01  0.41576559647E+01  0.00000000000E+00 0. -1.
</event>
<event>
 7    1  0.2414091E-009  0.4778727E+02  0.7816164E-02  0.1312668E+00
        -11   -1    0    0    0    0  0.00000000000E+00  0.00000000000E+00  0.45593999997E+02  0.45594000000E+02  0.51100000000E-03 0.  1.
         11   -1    0    0    0    0 -0.00000000000E+00 -0.00000000000E+00 -0.45593999997E+02  0.45594000000E+02  0.51100000000E-03 0. -1.
    9900012    2    1    2    0    0 -0.19736795525E+02  0.38435917981E+02  0.40941853014E+01  0.47787271412E+02  0.20000001678E+02 0.  0.
         12    1    1    2    0    0  0.19736795525E+02 -0.38435917981E+02 -0.40941853014E+01  0.43400728588E+02  0.00000000000E+00 0. -1.
         11    1    3    3    0    0 -0.76022760696E+01  0.14027622009E+02 -0.71204555042E+01  0.17471968049E+02  0.51100000000E-03 0. -1.
        -11    1    3    3    0    0  0.20938651370E-01 -0.46616704755E+00  0.30631320387E+00  0.55819188755E+00  0.51100000000E-03 0.  1.
        -12    1    3    3    0    0 -0.12155458107E+02  0.24874463020E+02  0.10908327602E+02  0.29757111476E+02  0.00000000000E+00 0.  1.
</event>
<event>
 7    1  0.2414091E-009  0.4778727E+02  0.7816164E-02  0.1312668E+00
        -11   -1    0    0    0    0  0.00000000000E+00  0.00000000000E+00  0.45593999997E+02  0.45594000000E+02  0.51100000000E-03 0.  1.
         11   -1    0    0    0    0 -0.00000000000E+00 -0.00000000000E+00 -0.45593999997E+02  0.45594000000E+02  0.51100000000E-03 0. -1.
    9900012    2    1    2    0    0 -0.20444312221E+02 -0.26321895148E+02  0.27799485469E+02  0.47787268915E+02  0.19999990290E+02 0.  0.
         12    1    1    2    0    0  0.20444312221E+02  0.26321895148E+02 -0.27799485469E+02  0.43400731085E+02  0.00000000000E+00 0. -1.
         11    1    3    3    0    0 -0.28606448615E+01 -0.10573379445E+02  0.65332985670E+01  0.12753965357E+02  0.51100000000E-03 0. -1.
        -11    1    3    3    0    0 -0.44390288106E+01 -0.12827973538E+02  0.65025598291E+01  0.15051417423E+02  0.51100000000E-03 0.  1.
         12    1    3    3    0    0 -0.13144638549E+02 -0.29205421657E+01  0.14763627073E+02  0.19981886134E+02  0.00000000000E+00 0. -1.
</event>
<event>
 7    1  0.2414091E-009  0.4778725E+02  0.7816164E-02  0.1312668E+00
        -11   -1    0    0    0    0  0.00000000000E+00  0.00000000000E+00  0.45593999997E+02  0.45594000000E+02  0.51100000000E-03 0.  1.
         11   -1    0    0    0    0 -0.00000000000E+00 -0.00000000000E+00 -0.45593999997E+02  0.45594000000E+02  0.51100000000E-03 0. -1.
    9900012    2    1    2    0    0 -0.12819816059E+02 -0.13083766758E+02  0.39345809038E+02  0.47787247412E+02  0.19999892249E+02 0.  0.
         12    1    1    2    0    0  0.12819816059E+02  0.13083766758E+02 -0.39345809038E+02  0.43400752588E+02  0.00000000000E+00 0. -1.
         11    1    3    3    0    0  0.20779446200E+00 -0.43583089443E+01  0.13088282102E+02  0.13796418522E+02  0.51100000000E-03 0. -1.
        -11    1    3    3    0    0 -0.12629762898E+02 -0.12503606542E+02  0.22087216559E+02  0.28349536557E+02  0.51100000000E-03 0.  1.
         12    1    3    3    0    0 -0.39784762239E+00  0.37781487279E+01  0.41703103765E+01  0.56412923322E+01  0.00000000000E+00 0. -1.
</event>
<event>
 7    1  0.2414091E-009  0.4778728E+02  0.7816164E-02  0.1312668E+00
        -11   -1    0    0    0    0  0.00000000000E+00  0.00000000000E+00  0.45593999997E+02  0.45594000000E+02  0.51100000000E-03 0.  1.
         11   -1    0    0    0    0 -0.00000000000E+00 -0.00000000000E+00 -0.45593999997E+02  0.45594000000E+02  0.51100000000E-03 0. -1.
    9900012    2    1    2    0    0  0.42989067229E+02  0.59619047309E+01 -0.13509730070E+00  0.47787280415E+02  0.20000042722E+02 0.  0.
         12    1    1    2    0    0 -0.42989067229E+02 -0.59619047309E+01  0.13509730070E+00  0.43400719585E+02  0.00000000000E+00 0. -1.
         11    1    3    3    0    0  0.30357062602E+00  0.12670094657E+01 -0.19733484699E+01  0.23646506203E+01  0.51100000000E-03 0. -1.
        -11    1    3    3    0    0  0.65186210478E+01 -0.82388146818E+00 -0.49324835527E+01  0.82158745912E+01  0.51100000000E-03 0.  1.
        -12    1    3    3    0    0  0.36166875555E+02  0.55187767333E+01  0.67707347219E+01  0.37206755203E+02  0.00000000000E+00 0.  1.
</event>
<event>
 7    1  0.2414091E-009  0.4778727E+02  0.7816164E-02  0.1312668E+00
        -11   -1    0    0    0    0  0.00000000000E+00  0.00000000000E+00  0.45593999997E+02  0.45594000000E+02  0.51100000000E-03 0.  1.
         11   -1    0    0    0    0 -0.00000000000E+00 -0.00000000000E+00 -0.45593999997E+02  0.45594000000E+02  0.51100000000E-03 0. -1.
    9900012    2    1    2    0    0 -0.21952237223E+02 -0.22232435332E+02  0.30123770855E+02  0.47787268780E+02  0.19999989675E+02 0.  0.
         12    1    1    2    0    0  0.21952237223E+02  0.22232435332E+02 -0.30123770855E+02  0.43400731220E+02  0.00000000000E+00 0. -1.
         11    1    3    3    0    0 -0.12675959500E+02 -0.57994431479E+01  0.85137955916E+01  0.16333958666E+02  0.51100000000E-03 0. -1.
        -11    1    3    3    0    0 -0.76142008420E+01 -0.18606332358E+02  0.19372027189E+02  0.27918579762E+02  0.51100000000E-03 0.  1.
         12    1    3    3    0    0 -0.16620768809E+01  0.21733401741E+01  0.22379480748E+01  0.35347303513E+01  0.00000000000E+00 0. -1.
</event>
<event>
 7    1  0.2414091E-009  0.4778729E+02  0.7816164E-02  0.1312668E+00
        -11   -1    0    0    0    0  0.00000000000E+00  0.00000000000E+00  0.45593999997E+02  0.45594000000E+02  0.51100000000E-03 0.  1.
         11   -1    0    0    0    0 -0.00000000000E+00 -0.00000000000E+00 -0.45593999997E+02  0.45594000000E+02  0.51100000000E-03 0. -1.
    9900012    2    1    2    0    0  0.18886740007E+02  0.59677596118E+01  0.38617336513E+02  0.47787288229E+02  0.20000078351E+02 0.  0.
         12    1    1    2    0    0 -0.18886740007E+02 -0.59677596118E+01 -0.38617336513E+02  0.43400711771E+02  0.00000000000E+00 0. -1.
         11    1    3    3    0    0  0.18264467775E+01 -0.98546897200E+00  0.11901407735E+01  0.23923821283E+01  0.51100000000E-03 0. -1.
        -11    1    3    3    0    0  0.19710273845E+02  0.37558870297E+01  0.35584536964E+02  0.40851693400E+02  0.51100000000E-03 0.  1.
         12    1    3    3    0    0 -0.26499806164E+01  0.31973415540E+01  0.18426587753E+01  0.45432127006E+01  0.00000000000E+00 0. -1.
</event>
<event>
 7    1  0.2414091E-009  0.4778729E+02  0.7816164E-02  0.1312668E+00
        -11   -1    0    0    0    0  0.00000000000E+00  0.00000000000E+00  0.45593999997E+02  0.45594000000E+02  0.51100000000E-03 0. -1.
         11   -1    0    0    0    0 -0.00000000000E+00 -0.00000000000E+00 -0.45593999997E+02  0.45594000000E+02  0.51100000000E-03 0.  1.
    9900012    2    1    2    0    0 -0.37378995585E+02  0.18499826453E+02 -0.12007861993E+02  0.47787289875E+02  0.20000085856E+02 0.  0.
         12    1    1    2    0    0  0.37378995585E+02 -0.18499826453E+02  0.12007861993E+02  0.43400710125E+02  0.00000000000E+00 0. -1.
         11    1    3    3    0    0 -0.98800837192E+00  0.51767993117E+01  0.12150989652E+00  0.52716388887E+01  0.51100000000E-03 0. -1.
        -11    1    3    3    0    0 -0.92174169431E+01  0.37487384175E+01 -0.92074108009E+01  0.13556925490E+02  0.51100000000E-03 0.  1.
         12    1    3    3    0    0 -0.27173570270E+02  0.95742887233E+01 -0.29219610890E+01  0.28958725496E+02  0.00000000000E+00 0. -1.
</event>
<event>
 7    1  0.2414091E-009  0.4778727E+02  0.7816164E-02  0.1312668E+00
        -11   -1    0    0    0    0  0.00000000000E+00  0.00000000000E+00  0.45593999997E+02  0.45594000000E+02  0.51100000000E-03 0.  1.
         11   -1    0    0    0    0 -0.00000000000E+00 -0.00000000000E+00 -0.45593999997E+02  0.45594000000E+02  0.51100000000E-03 0. -1.
    9900012    2    1    2    0    0  0.19669352040E+02  0.12491101902E+02  0.36615736392E+02  0.47787272035E+02  0.20000004517E+02 0.  0.
         12    1    1    2    0    0 -0.19669352040E+02 -0.12491101902E+02 -0.36615736392E+02  0.43400727965E+02  0.00000000000E+00 0. -1.
         11    1    3    3    0    0 -0.99671416898E+00 -0.37722124337E+00 -0.59657041561E+00  0.12213236766E+01  0.51100000000E-03 0. -1.
        -11    1    3    3    0    0  0.34819914075E+01  0.95492653956E+01  0.17213031764E+02  0.19990027427E+02  0.51100000000E-03 0.  1.
         12    1    3    3    0    0  0.17184074801E+02  0.33190577494E+01  0.19999275043E+02  0.26575920932E+02  0.00000000000E+00 0. -1.
</event>
<event>
 7    1  0.2414091E-009  0.4778727E+02  0.7816164E-02  0.1312668E+00
        -11   -1    0    0    0    0  0.00000000000E+00  0.00000000000E+00  0.45593999997E+02  0.45594000000E+02  0.51100000000E-03 0.  1.
         11   -1    0    0    0    0 -0.00000000000E+00 -0.00000000000E+00 -0.45593999997E+02  0.45594000000E+02  0.51100000000E-03 0. -1.
    9900012    2    1    2    0    0  0.91595897981E+01 -0.38747066742E+02  0.17273962153E+02  0.47787273798E+02  0.20000012553E+02 0.  0.
         12    1    1    2    0    0 -0.91595897981E+01  0.38747066742E+02 -0.17273962153E+02  0.43400726202E+02  0.00000000000E+00 0. -1.
         11    1    3    3    0    0 -0.14894012295E+01 -0.16701156187E+02  0.19940314794E+01  0.16885588406E+02  0.51100000000E-03 0. -1.
        -11    1    3    3    0    0  0.52185285862E+01 -0.18514921144E+02  0.71854576475E+01  0.20534511133E+02  0.51100000000E-03 0.  1.
         12    1    3    3    0    0  0.54304624414E+01 -0.35309894110E+01  0.80944730265E+01  0.10367174259E+02  0.00000000000E+00 0. -1.
</event>
<event>
 7    1  0.2414091E-009  0.4778727E+02  0.7816164E-02  0.1312668E+00
        -11   -1    0    0    0    0  0.00000000000E+00  0.00000000000E+00  0.45593999997E+02  0.45594000000E+02  0.51100000000E-03 0.  1.
         11   -1    0    0    0    0 -0.00000000000E+00 -0.00000000000E+00 -0.45593999997E+02  0.45594000000E+02  0.51100000000E-03 0. -1.
    9900012    2    1    2    0    0  0.14082891517E+02  0.14205525399E+02  0.38516210719E+02  0.47787271049E+02  0.20000000019E+02 0.  0.
         12    1    1    2    0    0 -0.14082891517E+02 -0.14205525399E+02 -0.38516210719E+02  0.43400728951E+02  0.00000000000E+00 0. -1.
         11    1    3    3    0    0 -0.16814507799E+01  0.42445601173E+01  0.25153860520E+01  0.52125554737E+01  0.51100000000E-03 0. -1.
        -11    1    3    3    0    0  0.42260388444E+01  0.54895436819E+01  0.34259037078E+01  0.77286034072E+01  0.51100000000E-03 0.  1.
        -12    1    3    3    0    0  0.11538303452E+02  0.44714215999E+01  0.32574920960E+02  0.34846112168E+02  0.00000000000E+00 0.  1.
</event>
<event>
 7    1  0.2414091E-009  0.4778727E+02  0.7816164E-02  0.1312668E+00
        -11   -1    0    0    0    0  0.00000000000E+00  0.00000000000E+00  0.45593999997E+02  0.45594000000E+02  0.51100000000E-03 0.  1.
         11   -1    0    0    0    0 -0.00000000000E+00 -0.00000000000E+00 -0.45593999997E+02  0.45594000000E+02  0.51100000000E-03 0. -1.
    9900012    2    1    2    0    0 -0.70612982161E+01  0.70013228732E+01  0.42246215894E+02  0.47787271759E+02  0.20000003257E+02 0.  0.
         12    1    1    2    0    0  0.70612982161E+01 -0.70013228732E+01 -0.42246215894E+02  0.43400728241E+02  0.00000000000E+00 0. -1.
         11    1    3    3    0    0  0.84231302828E+00  0.22907228953E+00  0.23463956422E+00  0.90389232637E+00  0.51100000000E-03 0. -1.
        -11    1    3    3    0    0 -0.37229317368E+01  0.11378545989E+02  0.37019810080E+02  0.38907555412E+02  0.51100000000E-03 0.  1.
        -12    1    3    3    0    0 -0.41806795075E+01 -0.46062954053E+01  0.49917662500E+01  0.79758240201E+01  0.00000000000E+00 0.  1.
</event>
<event>
 7    1  0.2414091E-009  0.4778727E+02  0.7816164E-02  0.1312668E+00
        -11   -1    0    0    0    0  0.00000000000E+00  0.00000000000E+00  0.45593999997E+02  0.45594000000E+02  0.51100000000E-03 0.  1.
         11   -1    0    0    0    0 -0.00000000000E+00 -0.00000000000E+00 -0.45593999997E+02  0.45594000000E+02  0.51100000000E-03 0. -1.
    9900012    2    1    2    0    0  0.23348857935E+02  0.80458064450E+01  0.35689201324E+02  0.47787271211E+02  0.20000000761E+02 0.  0.
         12    1    1    2    0    0 -0.23348857935E+02 -0.80458064450E+01 -0.35689201324E+02  0.43400728789E+02  0.00000000000E+00 0. -1.
         11    1    3    3    0    0 -0.24069396807E+01 -0.74459762546E+00  0.61797288524E+01  0.66735922262E+01  0.51100000000E-03 0. -1.
        -11    1    3    3    0    0  0.31212305900E+01  0.79953924096E+00  0.89378814740E+01  0.95008983206E+01  0.51100000000E-03 0.  1.
        -12    1    3    3    0    0  0.22634567026E+02  0.79908648295E+01  0.20571590997E+02  0.31612780665E+02  0.00000000000E+00 0.  1.
</event>
<event>
 7    1  0.2414091E-009  0.4778727E+02  0.7816164E-02  0.1312668E+00
        -11   -1    0    0    0    0  0.00000000000E+00  0.00000000000E+00  0.45593999997E+02  0.45594000000E+02  0.51100000000E-03 0.  1.
         11   -1    0    0    0    0 -0.00000000000E+00 -0.00000000000E+00 -0.45593999997E+02  0.45594000000E+02  0.51100000000E-03 0. -1.
    9900012    2    1    2    0    0 -0.34738788401E+02 -0.57006807690E+01  0.25383892408E+02  0.47787272189E+02  0.20000005217E+02 0.  0.
         12    1    1    2    0    0  0.34738788401E+02  0.57006807690E+01 -0.25383892408E+02  0.43400727811E+02  0.00000000000E+00 0. -1.
         11    1    3    3    0    0 -0.16600859371E+02  0.72193424912E+01  0.11801292386E+02  0.21609672374E+02  0.51100000000E-03 0. -1.
        -11    1    3    3    0    0 -0.42537140692E+01 -0.34591319771E+01  0.44060305145E+01  0.70336891155E+01  0.51100000000E-03 0.  1.
         12    1    3    3    0    0 -0.13884214960E+02 -0.94608912830E+01  0.91765695076E+01  0.19143910699E+02  0.00000000000E+00 0. -1.
</event>
<event>
 7    1  0.2414091E-009  0.4778727E+02  0.7816164E-02  0.1312668E+00
        -11   -1    0    0    0    0  0.00000000000E+00  0.00000000000E+00  0.45593999997E+02  0.45594000000E+02  0.51100000000E-03 0.  1.
         11   -1    0    0    0    0 -0.00000000000E+00 -0.00000000000E+00 -0.45593999997E+02  0.45594000000E+02  0.51100000000E-03 0. -1.
    9900012    2    1    2    0    0  0.41500687431E+02 -0.11645397109E+01 -0.12647534584E+02  0.47787270270E+02  0.19999996471E+02 0.  0.
         12    1    1    2    0    0 -0.41500687431E+02  0.11645397109E+01  0.12647534584E+02  0.43400729730E+02  0.00000000000E+00 0. -1.
         11    1    3    3    0    0  0.65455410452E+01  0.13566469780E+01 -0.66369886894E+01  0.94198841672E+01  0.51100000000E-03 0. -1.
        -11    1    3    3    0    0  0.31307586916E+02 -0.42788211182E+01 -0.95280736110E+01  0.33003901219E+02  0.51100000000E-03 0.  1.
         12    1    3    3    0    0  0.36475594701E+01  0.17576344292E+01  0.35175277160E+01  0.53634848846E+01  0.00000000000E+00 0. -1.
</event>
<event>
 7    1  0.2414091E-009  0.4778727E+02  0.7816164E-02  0.1312668E+00
        -11   -1    0    0    0    0  0.00000000000E+00  0.00000000000E+00  0.45593999997E+02  0.45594000000E+02  0.51100000000E-03 0. -1.
         11   -1    0    0    0    0 -0.00000000000E+00 -0.00000000000E+00 -0.45593999997E+02  0.45594000000E+02  0.51100000000E-03 0.  1.
    9900012    2    1    2    0    0 -0.71039462393E+01  0.13645178997E+02 -0.40582837014E+02  0.47787267032E+02  0.19999981706E+02 0.  0.
         12    1    1    2    0    0  0.71039462393E+01 -0.13645178997E+02  0.40582837014E+02  0.43400732968E+02  0.00000000000E+00 0. -1.
         11    1    3    3    0    0 -0.66584608864E+01  0.11445715585E+01 -0.21004124154E+02  0.22063961049E+02  0.51100000000E-03 0. -1.
        -11    1    3    3    0    0 -0.50563956201E+01  0.74301814481E+01 -0.14982290701E+02  0.17471226859E+02  0.51100000000E-03 0.  1.
         12    1    3    3    0    0  0.46109102673E+01  0.50704259904E+01 -0.45964221589E+01  0.82520791247E+01  0.00000000000E+00 0. -1.
</event>
<event>
 7    1  0.2414091E-009  0.4778728E+02  0.7816164E-02  0.1312668E+00
        -11   -1    0    0    0    0  0.00000000000E+00  0.00000000000E+00  0.45593999997E+02  0.45594000000E+02  0.51100000000E-03 0.  1.
         11   -1    0    0    0    0 -0.00000000000E+00 -0.00000000000E+00 -0.45593999997E+02  0.45594000000E+02  0.51100000000E-03 0. -1.
    9900012    2    1    2    0    0  0.56698977480E+01  0.42998040107E+02 -0.16257448646E+01  0.47787282957E+02  0.20000054314E+02 0.  0.
         12    1    1    2    0    0 -0.56698977480E+01 -0.42998040107E+02  0.16257448646E+01  0.43400717043E+02  0.00000000000E+00 0. -1.
         11    1    3    3    0    0  0.16838266559E+01  0.19131385778E+02 -0.24535036602E+01  0.19361427491E+02  0.51100000000E-03 0.  1.
        -11    1    3    3    0    0  0.31567775900E+01  0.51261619259E+00  0.36893393918E+01  0.48825449842E+01  0.51100000000E-03 0. -1.
         12    1    3    3    0    0  0.82929350210E+00  0.23354038136E+02 -0.28615805962E+01  0.23543310482E+02  0.00000000000E+00 0. -1.
</event>
<event>
 7    1  0.2414091E-009  0.4778727E+02  0.7816164E-02  0.1312668E+00
        -11   -1    0    0    0    0  0.00000000000E+00  0.00000000000E+00  0.45593999997E+02  0.45594000000E+02  0.51100000000E-03 0.  1.
         11   -1    0    0    0    0 -0.00000000000E+00 -0.00000000000E+00 -0.45593999997E+02  0.45594000000E+02  0.51100000000E-03 0. -1.
    9900012    2    1    2    0    0  0.73520946609E+01 -0.37388473202E+02  0.20776713870E+02  0.47787273468E+02  0.20000011049E+02 0.  0.
         12    1    1    2    0    0 -0.73520946609E+01  0.37388473202E+02 -0.20776713870E+02  0.43400726532E+02  0.00000000000E+00 0. -1.
         11    1    3    3    0    0 -0.13282554165E+01 -0.43724878591E+01  0.14645625044E+01  0.47987348458E+01  0.51100000000E-03 0. -1.
        -11    1    3    3    0    0  0.10524319445E+02 -0.22388531741E+02  0.20511122899E+02  0.32135864951E+02  0.51100000000E-03 0.  1.
        -12    1    3    3    0    0 -0.18439693673E+01 -0.10627453601E+02 -0.11989715329E+01  0.10852673671E+02  0.00000000000E+00 0.  1.
</event>
<event>
 7    1  0.2414091E-009  0.4778727E+02  0.7816164E-02  0.1312668E+00
        -11   -1    0    0    0    0  0.00000000000E+00  0.00000000000E+00  0.45593999997E+02  0.45594000000E+02  0.51100000000E-03 0.  1.
         11   -1    0    0    0    0 -0.00000000000E+00 -0.00000000000E+00 -0.45593999997E+02  0.45594000000E+02  0.51100000000E-03 0. -1.
    9900012    2    1    2    0    0 -0.18990010205E+02 -0.10094970765E+01  0.39012610699E+02  0.47787269989E+02  0.19999995190E+02 0.  0.
         12    1    1    2    0    0  0.18990010205E+02  0.10094970765E+01 -0.39012610699E+02  0.43400730011E+02  0.00000000000E+00 0. -1.
         11    1    3    3    0    0 -0.61770310012E+01 -0.29641387922E+01  0.76332765984E+01  0.10257131307E+02  0.51100000000E-03 0. -1.
        -11    1    3    3    0    0 -0.12419705762E+02  0.23196203964E+01  0.33257651333E+02  0.35576693248E+02  0.51100000000E-03 0.  1.
         12    1    3    3    0    0 -0.39327344231E+00 -0.36497868068E+00 -0.18783172328E+01  0.19534454343E+01  0.00000000000E+00 0. -1.
</event>
<event>
 7    1  0.2414091E-009  0.4778726E+02  0.7816164E-02  0.1312668E+00
        -11   -1    0    0    0    0  0.00000000000E+00  0.00000000000E+00  0.45593999997E+02  0.45594000000E+02  0.51100000000E-03 0.  1.
         11   -1    0    0    0    0 -0.00000000000E+00 -0.00000000000E+00 -0.45593999997E+02  0.45594000000E+02  0.51100000000E-03 0. -1.
    9900012    2    1    2    0    0 -0.13402270517E+02  0.14841720528E+02  0.38519170216E+02  0.47787262710E+02  0.19999961999E+02 0.  0.
         12    1    1    2    0    0  0.13402270517E+02 -0.14841720528E+02 -0.38519170216E+02  0.43400737290E+02  0.00000000000E+00 0. -1.
         11    1    3    3    0    0  0.64048517275E-01  0.64105369380E+01  0.53480001128E+00  0.64331250073E+01  0.51100000000E-03 0. -1.
        -11    1    3    3    0    0 -0.32376966784E+01  0.32513131046E+01  0.75898208093E+01  0.88689963843E+01  0.51100000000E-03 0.  1.
         12    1    3    3    0    0 -0.10228622356E+02  0.51798704850E+01  0.30394549395E+02  0.32485141318E+02  0.00000000000E+00 0. -1.
</event>
<event>
 7    1  0.2414091E-009  0.4778727E+02  0.7816164E-02  0.1312668E+00
        -11   -1    0    0    0    0  0.00000000000E+00  0.00000000000E+00  0.45593999997E+02  0.45594000000E+02  0.51100000000E-03 0.  1.
         11   -1    0    0    0    0 -0.00000000000E+00 -0.00000000000E+00 -0.45593999997E+02  0.45594000000E+02  0.51100000000E-03 0. -1.
    9900012    2    1    2    0    0  0.32770656220E+02  0.11881271823E+02  0.25856197068E+02  0.47787268946E+02  0.19999990432E+02 0.  0.
         12    1    1    2    0    0 -0.32770656220E+02 -0.11881271823E+02 -0.25856197068E+02  0.43400731054E+02  0.00000000000E+00 0. -1.
         11    1    3    3    0    0  0.50738516447E+01  0.62676306036E+01  0.23374182701E+01  0.83958732915E+01  0.51100000000E-03 0. -1.
        -11    1    3    3    0    0  0.49093892351E+01  0.50096601208E+01  0.11881219531E+02  0.13797179965E+02  0.51100000000E-03 0.  1.
        -12    1    3    3    0    0  0.22787415340E+02  0.60398109882E+00  0.11637559266E+02  0.25594215689E+02  0.00000000000E+00 0.  1.
</event>
<event>
 7    1  0.2414091E-009  0.4778727E+02  0.7816164E-02  0.1312668E+00
        -11   -1    0    0    0    0  0.00000000000E+00  0.00000000000E+00  0.45593999997E+02  0.45594000000E+02  0.51100000000E-03 0. -1.
         11   -1    0    0    0    0 -0.00000000000E+00 -0.00000000000E+00 -0.45593999997E+02  0.45594000000E+02  0.51100000000E-03 0.  1.
    9900012    2    1    2    0    0  0.20794088714E+02  0.36632515558E+02 -0.10454079710E+02  0.47787273000E+02  0.20000008915E+02 0.  0.
         12    1    1    2    0    0 -0.20794088714E+02 -0.36632515558E+02  0.10454079710E+02  0.43400727000E+02  0.00000000000E+00 0. -1.
         11    1    3    3    0    0  0.16442282786E+02  0.15286247704E+02 -0.58330627657E+01  0.23195746454E+02  0.51100000000E-03 0. -1.
        -11    1    3    3    0    0  0.75413741384E+01  0.14966454236E+02 -0.48768366422E+01  0.17454243387E+02  0.51100000000E-03 0.  1.
         12    1    3    3    0    0 -0.31895682104E+01  0.63798136183E+01  0.25581969822E+00  0.71372831590E+01  0.00000000000E+00 0. -1.
</event>
<event>
 7    1  0.2414091E-009  0.4778727E+02  0.7816164E-02  0.1312668E+00
        -11   -1    0    0    0    0  0.00000000000E+00  0.00000000000E+00  0.45593999997E+02  0.45594000000E+02  0.51100000000E-03 0.  1.
         11   -1    0    0    0    0 -0.00000000000E+00 -0.00000000000E+00 -0.45593999997E+02  0.45594000000E+02  0.51100000000E-03 0. -1.
    9900012    2    1    2    0    0  0.30804828431E+01  0.21206845035E+02  0.37741274458E+02  0.47787269031E+02  0.19999990822E+02 0.  0.
         12    1    1    2    0    0 -0.30804828431E+01 -0.21206845035E+02 -0.37741274458E+02  0.43400730969E+02  0.00000000000E+00 0. -1.
         11    1    3    3    0    0 -0.42626702282E-02  0.71702027143E+01  0.17801586169E+01  0.73878812996E+01  0.51100000000E-03 0. -1.
        -11    1    3    3    0    0 -0.38395032549E+01  0.24687178365E+01  0.59513515845E+01  0.75003292557E+01  0.51100000000E-03 0.  1.
         12    1    3    3    0    0  0.69242487682E+01  0.11567924485E+02  0.30009764256E+02  0.32899058476E+02  0.00000000000E+00 0. -1.
</event>
<event>
 7    1  0.2414091E-009  0.4778728E+02  0.7816164E-02  0.1312668E+00
        -11   -1    0    0    0    0  0.00000000000E+00  0.00000000000E+00  0.45593999997E+02  0.45594000000E+02  0.51100000000E-03 0.  1.
         11   -1    0    0    0    0 -0.00000000000E+00 -0.00000000000E+00 -0.45593999997E+02  0.45594000000E+02  0.51100000000E-03 0. -1.
    9900012    2    1    2    0    0 -0.14132282130E+02 -0.28208920338E+02  0.29801985484E+02  0.47787275079E+02  0.20000018397E+02 0.  0.
         12    1    1    2    0    0  0.14132282130E+02  0.28208920338E+02 -0.29801985484E+02  0.43400724921E+02  0.00000000000E+00 0. -1.
         11    1    3    3    0    0  0.35802401922E+01 -0.62454928871E+01  0.15294072621E+01  0.73595779819E+01  0.51100000000E-03 0. -1.
        -11    1    3    3    0    0 -0.59630837093E+00  0.23881455114E+00  0.16341711388E+01  0.17558848581E+01  0.51100000000E-03 0.  1.
        -12    1    3    3    0    0 -0.17116213951E+02 -0.22202242002E+02  0.26638407083E+02  0.38671812239E+02  0.00000000000E+00 0.  1.
</event>
<event>
 7    1  0.2414091E-009  0.4778727E+02  0.7816164E-02  0.1312668E+00
        -11   -1    0    0    0    0  0.00000000000E+00  0.00000000000E+00  0.45593999997E+02  0.45594000000E+02  0.51100000000E-03 0.  1.
         11   -1    0    0    0    0 -0.00000000000E+00 -0.00000000000E+00 -0.45593999997E+02  0.45594000000E+02  0.51100000000E-03 0. -1.
    9900012    2    1    2    0    0  0.22044756578E+02  0.35509960749E+02 -0.11691652964E+02  0.47787270121E+02  0.19999995791E+02 0.  0.
         12    1    1    2    0    0 -0.22044756578E+02 -0.35509960749E+02  0.11691652964E+02  0.43400729879E+02  0.00000000000E+00 0. -1.
         11    1    3    3    0    0  0.15298187830E+01  0.10507057488E+02  0.11869556628E+01  0.10683981775E+02  0.51100000000E-03 0. -1.
        -11    1    3    3    0    0  0.48379372700E+01  0.15607072559E+02 -0.42024168968E+01  0.16871474711E+02  0.51100000000E-03 0.  1.
        -12    1    3    3    0    0  0.15677000525E+02  0.93958307024E+01 -0.86761917298E+01  0.20231813636E+02  0.00000000000E+00 0.  1.
</event>
<event>
 7    1  0.2414091E-009  0.4778727E+02  0.7816164E-02  0.1312668E+00
        -11   -1    0    0    0    0  0.00000000000E+00  0.00000000000E+00  0.45593999997E+02  0.45594000000E+02  0.51100000000E-03 0.  1.
         11   -1    0    0    0    0 -0.00000000000E+00 -0.00000000000E+00 -0.45593999997E+02  0.45594000000E+02  0.51100000000E-03 0. -1.
    9900012    2    1    2    0    0  0.75337473452E+01  0.39502698530E+02  0.16321848617E+02  0.47787270945E+02  0.19999999548E+02 0.  0.
         12    1    1    2    0    0 -0.75337473452E+01 -0.39502698530E+02 -0.16321848617E+02  0.43400729055E+02  0.00000000000E+00 0. -1.
         11    1    3    3    0    0 -0.28056835693E+01  0.10453669565E+02  0.10628997195E+02  0.15169925817E+02  0.51100000000E-03 0. -1.
        -11    1    3    3    0    0  0.76327126219E+00  0.12604762239E+02  0.49808537451E+01  0.13574664578E+02  0.51100000000E-03 0.  1.
        -12    1    3    3    0    0  0.95761596523E+01  0.16444266726E+02  0.71199767689E+00  0.19042680550E+02  0.00000000000E+00 0.  1.
</event>
<event>
 7    1  0.2414091E-009  0.4778728E+02  0.7816164E-02  0.1312668E+00
        -11   -1    0    0    0    0  0.00000000000E+00  0.00000000000E+00  0.45593999997E+02  0.45594000000E+02  0.51100000000E-03 0. -1.
         11   -1    0    0    0    0 -0.00000000000E+00 -0.00000000000E+00 -0.45593999997E+02  0.45594000000E+02  0.51100000000E-03 0.  1.
    9900012    2    1    2    0    0 -0.38975949264E+02  0.18754761408E+02 -0.35717190541E+01  0.47787275657E+02  0.20000021029E+02 0.  0.
         12    1    1    2    0    0  0.38975949264E+02 -0.18754761408E+02  0.35717190541E+01  0.43400724343E+02  0.00000000000E+00 0. -1.
         11    1    3    3    0    0 -0.79392008539E+01 -0.13530218009E+01  0.15608795732E+01  0.82035311601E+01  0.51100000000E-03 0. -1.
        -11    1    3    3    0    0 -0.26769428750E+02  0.10595138683E+02 -0.44907936409E+01  0.29138059425E+02  0.51100000000E-03 0.  1.
         12    1    3    3    0    0 -0.42673196609E+01  0.95126445258E+01 -0.64180498646E+00  0.10445685071E+02  0.00000000000E+00 0. -1.
</event>
<event>
 7    1  0.2414091E-009  0.4778727E+02  0.7816164E-02  0.1312668E+00
        -11   -1    0    0    0    0  0.00000000000E+00  0.00000000000E+00  0.45593999997E+02  0.45594000000E+02  0.51100000000E-03 0. -1.
         11   -1    0    0    0    0 -0.00000000000E+00 -0.00000000000E+00 -0.45593999997E+02  0.45594000000E+02  0.51100000000E-03 0.  1.
    9900012    2    1    2    0    0  0.13785334478E+02 -0.38111270533E+02  0.15528001102E+02  0.47787271820E+02  0.20000003535E+02 0.  0.
         12    1    1    2    0    0 -0.13785334478E+02  0.38111270533E+02 -0.15528001102E+02  0.43400728180E+02  0.00000000000E+00 0. -1.
         11    1    3    3    0    0  0.12068818843E+02 -0.79505549570E+01  0.81960593253E+01  0.16614544866E+02  0.51100000000E-03 0.  1.
        -11    1    3    3    0    0 -0.52469152533E+00 -0.30338690912E+01  0.73156567633E+00  0.31646250108E+01  0.51100000000E-03 0. -1.
        -12    1    3    3    0    0  0.22412071611E+01 -0.27126846485E+02  0.66003761005E+01  0.28008101943E+02  0.00000000000E+00 0.  1.
</event>
<event>
 7    1  0.2414091E-009  0.4778727E+02  0.7816164E-02  0.1312668E+00
        -11   -1    0    0    0    0  0.00000000000E+00  0.00000000000E+00  0.45593999997E+02  0.45594000000E+02  0.51100000000E-03 0. -1.
         11   -1    0    0    0    0 -0.00000000000E+00 -0.00000000000E+00 -0.45593999997E+02  0.45594000000E+02  0.51100000000E-03 0.  1.
    9900012    2    1    2    0    0  0.84493240491E+01 -0.99016066723E+01 -0.41402781039E+02  0.47787272249E+02  0.20000005492E+02 0.  0.
         12    1    1    2    0    0 -0.84493240491E+01  0.99016066723E+01  0.41402781039E+02  0.43400727751E+02  0.00000000000E+00 0. -1.
         11    1    3    3    0    0  0.22963699403E+01 -0.33741650410E+01 -0.13760985047E+01  0.43071976948E+01  0.51100000000E-03 0. -1.
        -11    1    3    3    0    0 -0.44674139724E+01 -0.54685948523E+00 -0.75266996848E+01  0.87697235591E+01  0.51100000000E-03 0.  1.
        -12    1    3    3    0    0  0.10620368081E+02 -0.59805821461E+01 -0.32499982849E+02  0.34710350995E+02  0.00000000000E+00 0.  1.
</event>
<event>
 7    1  0.2414091E-009  0.4778728E+02  0.7816164E-02  0.1312668E+00
        -11   -1    0    0    0    0  0.00000000000E+00  0.00000000000E+00  0.45593999997E+02  0.45594000000E+02  0.51100000000E-03 0.  1.
         11   -1    0    0    0    0 -0.00000000000E+00 -0.00000000000E+00 -0.45593999997E+02  0.45594000000E+02  0.51100000000E-03 0. -1.
    9900012    2    1    2    0    0 -0.14493271468E+01  0.42905247917E+02 -0.63766654560E+01  0.47787277537E+02  0.20000029603E+02 0.  0.
         12    1    1    2    0    0  0.14493271468E+01 -0.42905247917E+02  0.63766654560E+01  0.43400722463E+02  0.00000000000E+00 0. -1.
         11    1    3    3    0    0 -0.11259157282E+01 -0.15425644946E+01  0.41653334028E-01  0.19102164035E+01  0.51100000000E-03 0. -1.
        -11    1    3    3    0    0  0.30427578676E+01  0.52398012381E+01 -0.12511777883E+01  0.61870298670E+01  0.51100000000E-03 0.  1.
        -12    1    3    3    0    0 -0.33661692862E+01  0.39208011173E+02 -0.51671410018E+01  0.39690031267E+02  0.00000000000E+00 0.  1.
</event>
<event>
 7    1  0.2414091E-009  0.4778726E+02  0.7816164E-02  0.1312668E+00
        -11   -1    0    0    0    0  0.00000000000E+00  0.00000000000E+00  0.45593999997E+02  0.45594000000E+02  0.51100000000E-03 0. -1.
         11   -1    0    0    0    0 -0.00000000000E+00 -0.00000000000E+00 -0.45593999997E+02  0.45594000000E+02  0.51100000000E-03 0.  1.
    9900012    2    1    2    0    0 -0.43181120148E+02 -0.22675324992E+01 -0.37246598390E+01  0.47787263465E+02  0.19999965443E+02 0.  0.
         12    1    1    2    0    0  0.43181120148E+02  0.22675324992E+01  0.37246598390E+01  0.43400736535E+02  0.00000000000E+00 0. -1.
         11    1    3    3    0    0 -0.95734405781E+01 -0.10792714206E+01  0.55566683524E+01  0.11121697476E+02  0.51100000000E-03 0. -1.
        -11    1    3    3    0    0 -0.60014633821E+01 -0.47267041421E+01 -0.20138675012E+01  0.79003137499E+01  0.51100000000E-03 0.  1.
         12    1    3    3    0    0 -0.27606216188E+02  0.35384430635E+01 -0.72674606903E+01  0.28765252239E+02  0.00000000000E+00 0. -1.
</event>
<event>
 7    1  0.2414091E-009  0.4778727E+02  0.7816164E-02  0.1312668E+00
        -11   -1    0    0    0    0  0.00000000000E+00  0.00000000000E+00  0.45593999997E+02  0.45594000000E+02  0.51100000000E-03 0. -1.
         11   -1    0    0    0    0 -0.00000000000E+00 -0.00000000000E+00 -0.45593999997E+02  0.45594000000E+02  0.51100000000E-03 0.  1.
    9900012    2    1    2    0    0 -0.25303885812E+02  0.72968712505E+01 -0.34497714841E+02  0.47787270784E+02  0.19999998812E+02 0.  0.
         12    1    1    2    0    0  0.25303885812E+02 -0.72968712505E+01  0.34497714841E+02  0.43400729216E+02  0.00000000000E+00 0. -1.
         11    1    3    3    0    0 -0.14027053330E+01  0.14429875341E+00 -0.65983113756E+00  0.15568499519E+01  0.51100000000E-03 0. -1.
        -11    1    3    3    0    0 -0.18027129759E+02 -0.42438762378E+01 -0.22244530248E+02  0.28944896253E+02  0.51100000000E-03 0.  1.
         12    1    3    3    0    0 -0.58740507198E+01  0.11396448735E+02 -0.11593353456E+02  0.17285524579E+02  0.00000000000E+00 0. -1.
</event>
<event>
 7    1  0.2414091E-009  0.4778727E+02  0.7816164E-02  0.1312668E+00
        -11   -1    0    0    0    0  0.00000000000E+00  0.00000000000E+00  0.45593999997E+02  0.45594000000E+02  0.51100000000E-03 0. -1.
         11   -1    0    0    0    0 -0.00000000000E+00 -0.00000000000E+00 -0.45593999997E+02  0.45594000000E+02  0.51100000000E-03 0.  1.
    9900012    2    1    2    0    0  0.37860495722E+02 -0.20851630274E+02  0.39262380067E+01  0.47787274588E+02  0.20000016158E+02 0.  0.
         12    1    1    2    0    0 -0.37860495722E+02  0.20851630274E+02 -0.39262380067E+01  0.43400725412E+02  0.00000000000E+00 0. -1.
         11    1    3    3    0    0  0.78670018014E+01 -0.77989298404E+01  0.30162307900E+01  0.11480882912E+02  0.51100000000E-03 0. -1.
        -11    1    3    3    0    0  0.14214098858E+02 -0.11374798820E+02  0.67229720282E+01  0.19406828894E+02  0.51100000000E-03 0.  1.
        -12    1    3    3    0    0  0.15779395062E+02 -0.16779016135E+01 -0.58129648115E+01  0.16899562782E+02  0.00000000000E+00 0.  1.
</event>
<event>
 7    1  0.2414091E-009  0.4778729E+02  0.7816164E-02  0.1312668E+00
        -11   -1    0    0    0    0  0.00000000000E+00  0.00000000000E+00  0.45593999997E+02  0.45594000000E+02  0.51100000000E-03 0. -1.
         11   -1    0    0    0    0 -0.00000000000E+00 -0.00000000000E+00 -0.45593999997E+02  0.45594000000E+02  0.51100000000E-03 0.  1.
    9900012    2    1    2    0    0  0.12398194901E+02  0.10640740476E+02 -0.40207974350E+02  0.47787288070E+02  0.20000077628E+02 0.  0.
         12    1    1    2    0    0 -0.12398194901E+02 -0.10640740476E+02  0.40207974350E+02  0.43400711930E+02  0.00000000000E+00 0. -1.
         11    1    3    3    0    0  0.10466160014E+02  0.24073711785E+01 -0.15988424748E+02  0.19260469040E+02  0.51100000000E-03 0. -1.
        -11    1    3    3    0    0  0.56145866297E+01  0.93614309224E+01 -0.15146981057E+02  0.18670592045E+02  0.51100000000E-03 0.  1.
         12    1    3    3    0    0 -0.36825517435E+01 -0.11280616252E+01 -0.90725685453E+01  0.98562269852E+01  0.00000000000E+00 0. -1.
</event>
<event>
 7    1  0.2414091E-009  0.4778727E+02  0.7816164E-02  0.1312668E+00
        -11   -1    0    0    0    0  0.00000000000E+00  0.00000000000E+00  0.45593999997E+02  0.45594000000E+02  0.51100000000E-03 0.  1.
         11   -1    0    0    0    0 -0.00000000000E+00 -0.00000000000E+00 -0.45593999997E+02  0.45594000000E+02  0.51100000000E-03 0. -1.
    9900012    2    1    2    0    0 -0.17500669207E+02  0.36312697088E+02  0.16085326364E+02  0.47787272855E+02  0.20000008255E+02 0.  0.
         12    1    1    2    0    0  0.17500669207E+02 -0.36312697088E+02 -0.16085326364E+02  0.43400727145E+02  0.00000000000E+00 0. -1.
         11    1    3    3    0    0 -0.27993441629E+01  0.97476460577E+01  0.64551920889E+01  0.12021748482E+02  0.51100000000E-03 0. -1.
        -11    1    3    3    0    0 -0.14719038955E+02  0.99589257356E+01  0.60909710008E+01  0.18786437596E+02  0.51100000000E-03 0.  1.
        -12    1    3    3    0    0  0.17713910451E-01  0.16606125294E+02  0.35391632742E+01  0.16979086776E+02  0.00000000000E+00 0.  1.
</event>
<event>
 7    1  0.2414091E-009  0.4778725E+02  0.7816164E-02  0.1312668E+00
        -11   -1    0    0    0    0  0.00000000000E+00  0.00000000000E+00  0.45593999997E+02  0.45594000000E+02  0.51100000000E-03 0. -1.
         11   -1    0    0    0    0 -0.00000000000E+00 -0.00000000000E+00 -0.45593999997E+02  0.45594000000E+02  0.51100000000E-03 0.  1.
    9900012    2    1    2    0    0  0.40121064353E+02  0.16026253045E+02  0.41333711811E+01  0.47787247140E+02  0.19999891009E+02 0.  0.
         12    1    1    2    0    0 -0.40121064353E+02 -0.16026253045E+02 -0.41333711811E+01  0.43400752860E+02  0.00000000000E+00 0. -1.
         11    1    3    3    0    0  0.19342448607E+02 -0.17733803264E+01 -0.95341726493E+00  0.19446958647E+02  0.51100000000E-03 0. -1.
        -11    1    3    3    0    0  0.56891579709E+00  0.10213014689E+01  0.13873824951E+01  0.18142635761E+01  0.51100000000E-03 0.  1.
        -12    1    3    3    0    0  0.20209699949E+02  0.16778331903E+02  0.36994059509E+01  0.26526024916E+02  0.00000000000E+00 0.  1.
</event>
<event>
 7    1  0.2414091E-009  0.4778727E+02  0.7816164E-02  0.1312668E+00
        -11   -1    0    0    0    0  0.00000000000E+00  0.00000000000E+00  0.45593999997E+02  0.45594000000E+02  0.51100000000E-03 0.  1.
         11   -1    0    0    0    0 -0.00000000000E+00 -0.00000000000E+00 -0.45593999997E+02  0.45594000000E+02  0.51100000000E-03 0. -1.
    9900012    2    1    2    0    0 -0.13921030037E+02  0.74578199111E+01  0.40425348211E+02  0.47787274971E+02  0.20000017901E+02 0.  0.
         12    1    1    2    0    0  0.13921030037E+02 -0.74578199111E+01 -0.40425348211E+02  0.43400725029E+02  0.00000000000E+00 0. -1.
         11    1    3    3    0    0 -0.19437779374E+01  0.34073013198E+01 -0.55980293150E-01  0.39231503933E+01  0.51100000000E-03 0. -1.
        -11    1    3    3    0    0 -0.33018701377E+01  0.21080747980E+01  0.20568165394E+01  0.44245700693E+01  0.51100000000E-03 0.  1.
         12    1    3    3    0    0 -0.86753819621E+01  0.19424437934E+01  0.38424511964E+02  0.39439554508E+02  0.00000000000E+00 0. -1.
</event>
<event>
 7    1  0.2414091E-009  0.4778726E+02  0.7816164E-02  0.1312668E+00
        -11   -1    0    0    0    0  0.00000000000E+00  0.00000000000E+00  0.45593999997E+02  0.45594000000E+02  0.51100000000E-03 0.  1.
         11   -1    0    0    0    0 -0.00000000000E+00 -0.00000000000E+00 -0.45593999997E+02  0.45594000000E+02  0.51100000000E-03 0. -1.
    9900012    2    1    2    0    0  0.47606926310E+01  0.43012850994E+02 -0.32946196278E+01  0.47787261949E+02  0.19999958528E+02 0.  0.
         12    1    1    2    0    0 -0.47606926310E+01 -0.43012850994E+02  0.32946196278E+01  0.43400738051E+02  0.00000000000E+00 0. -1.
         11    1    3    3    0    0 -0.52353595400E+01  0.18793080031E+02  0.37470648575E+01  0.19865279809E+02  0.51100000000E-03 0. -1.
        -11    1    3    3    0    0  0.34836935796E+01  0.11665922505E+02 -0.11777232287E+00  0.12175538568E+02  0.51100000000E-03 0.  1.
         12    1    3    3    0    0  0.65123585913E+01  0.12553848457E+02 -0.69239121624E+01  0.15746443571E+02  0.00000000000E+00 0. -1.
</event>
<event>
 7    1  0.2414091E-009  0.4778727E+02  0.7816164E-02  0.1312668E+00
        -11   -1    0    0    0    0  0.00000000000E+00  0.00000000000E+00  0.45593999997E+02  0.45594000000E+02  0.51100000000E-03 0.  1.
         11   -1    0    0    0    0 -0.00000000000E+00 -0.00000000000E+00 -0.45593999997E+02  0.45594000000E+02  0.51100000000E-03 0. -1.
    9900012    2    1    2    0    0 -0.23430076478E+02  0.36307189717E+02  0.40549915252E+01  0.47787268841E+02  0.19999989952E+02 0.  0.
         12    1    1    2    0    0  0.23430076478E+02 -0.36307189717E+02 -0.40549915252E+01  0.43400731159E+02  0.00000000000E+00 0. -1.
         11    1    3    3    0    0 -0.52630499160E+01 -0.97073787168E+00 -0.60180937921E+00  0.53855548669E+01  0.51100000000E-03 0. -1.
        -11    1    3    3    0    0 -0.45853289238E+01  0.40276138466E+01  0.18393214716E+01  0.63741680535E+01  0.51100000000E-03 0.  1.
        -12    1    3    3    0    0 -0.13581697638E+02  0.33250313742E+02  0.28174794329E+01  0.36027545920E+02  0.00000000000E+00 0.  1.
</event>
<event>
 7    1  0.2414091E-009  0.4778731E+02  0.7816164E-02  0.1312668E+00
        -11   -1    0    0    0    0  0.00000000000E+00  0.00000000000E+00  0.45593999997E+02  0.45594000000E+02  0.51100000000E-03 0.  1.
         11   -1    0    0    0    0 -0.00000000000E+00 -0.00000000000E+00 -0.45593999997E+02  0.45594000000E+02  0.51100000000E-03 0. -1.
    9900012    2    1    2    0    0 -0.41146787311E+02  0.11679099386E+02  0.73593812339E+01  0.47787309215E+02  0.20000174033E+02 0.  0.
         12    1    1    2    0    0  0.41146787311E+02 -0.11679099386E+02 -0.73593812339E+01  0.43400690785E+02  0.00000000000E+00 0. -1.
         11    1    3    3    0    0 -0.13382848712E+02  0.12408848754E+02  0.52900875748E+01  0.19001715550E+02  0.51100000000E-03 0.  1.
        -11    1    3    3    0    0 -0.10220821070E+02  0.21509884928E+01 -0.17807369686E+01  0.10595421618E+02  0.51100000000E-03 0. -1.
         12    1    3    3    0    0 -0.17543117529E+02 -0.28807378606E+01  0.38500306277E+01  0.18190172047E+02  0.00000000000E+00 0. -1.
</event>
<event>
 7    1  0.2414091E-009  0.4778726E+02  0.7816164E-02  0.1312668E+00
        -11   -1    0    0    0    0  0.00000000000E+00  0.00000000000E+00  0.45593999997E+02  0.45594000000E+02  0.51100000000E-03 0.  1.
         11   -1    0    0    0    0 -0.00000000000E+00 -0.00000000000E+00 -0.45593999997E+02  0.45594000000E+02  0.51100000000E-03 0. -1.
    9900012    2    1    2    0    0 -0.26538776246E+02 -0.32463892047E+02  0.11198817839E+02  0.47787257466E+02  0.19999938091E+02 0.  0.
         12    1    1    2    0    0  0.26538776246E+02  0.32463892047E+02 -0.11198817839E+02  0.43400742534E+02  0.00000000000E+00 0. -1.
         11    1    3    3    0    0  0.10620099823E+01  0.23119753128E-01  0.44422491456E+01  0.45674913747E+01  0.51100000000E-03 0. -1.
        -11    1    3    3    0    0 -0.48245593156E+01 -0.66748312340E+01  0.68592195576E+00  0.82643955485E+01  0.51100000000E-03 0.  1.
         12    1    3    3    0    0 -0.22776226913E+02 -0.25812180566E+02  0.60706467371E+01  0.34955370543E+02  0.00000000000E+00 0. -1.
</event>
<event>
 7    1  0.2414091E-009  0.4778727E+02  0.7816164E-02  0.1312668E+00
        -11   -1    0    0    0    0  0.00000000000E+00  0.00000000000E+00  0.45593999997E+02  0.45594000000E+02  0.51100000000E-03 0.  1.
         11   -1    0    0    0    0 -0.00000000000E+00 -0.00000000000E+00 -0.45593999997E+02  0.45594000000E+02  0.51100000000E-03 0. -1.
    9900012    2    1    2    0    0  0.11803101147E+02 -0.40769618492E+02 -0.90635682855E+01  0.47787271219E+02  0.20000000796E+02 0.  0.
         12    1    1    2    0    0 -0.11803101147E+02  0.40769618492E+02  0.90635682855E+01  0.43400728781E+02  0.00000000000E+00 0. -1.
         11    1    3    3    0    0 -0.28516360106E+00 -0.25190137304E+02 -0.28239188429E+01  0.25349533596E+02  0.51100000000E-03 0. -1.
        -11    1    3    3    0    0  0.98473497444E-01 -0.27332972847E+01 -0.38223833238E+01  0.47001303824E+01  0.51100000000E-03 0.  1.
        -12    1    3    3    0    0  0.11989791251E+02 -0.12846183903E+02 -0.24172661188E+01  0.17737607240E+02  0.00000000000E+00 0.  1.
</event>
<event>
 7    1  0.2414091E-009  0.4778727E+02  0.7816164E-02  0.1312668E+00
        -11   -1    0    0    0    0  0.00000000000E+00  0.00000000000E+00  0.45593999997E+02  0.45594000000E+02  0.51100000000E-03 0.  1.
         11   -1    0    0    0    0 -0.00000000000E+00 -0.00000000000E+00 -0.45593999997E+02  0.45594000000E+02  0.51100000000E-03 0. -1.
    9900012    2    1    2    0    0 -0.22941372774E+02  0.35477209667E+02 -0.99340101576E+01  0.47787267883E+02  0.19999985585E+02 0.  0.
         12    1    1    2    0    0  0.22941372774E+02 -0.35477209667E+02  0.99340101576E+01  0.43400732117E+02  0.00000000000E+00 0. -1.
         11    1    3    3    0    0 -0.67010666102E+01  0.79116389330E+00 -0.13038580560E+01  0.68724289820E+01  0.51100000000E-03 0. -1.
        -11    1    3    3    0    0  0.48976337639E+00  0.23705426054E+01 -0.33670048486E+01  0.41468135141E+01  0.51100000000E-03 0.  1.
        -12    1    3    3    0    0 -0.16730069541E+02  0.32315503168E+02 -0.52631472530E+01  0.36768025387E+02  0.00000000000E+00 0.  1.
</event>
<event>
 7    1  0.2414091E-009  0.4778727E+02  0.7816164E-02  0.1312668E+00
        -11   -1    0    0    0    0  0.00000000000E+00  0.00000000000E+00  0.45593999997E+02  0.45594000000E+02  0.51100000000E-03 0.  1.
         11   -1    0    0    0    0 -0.00000000000E+00 -0.00000000000E+00 -0.45593999997E+02  0.45594000000E+02  0.51100000000E-03 0. -1.
    9900012    2    1    2    0    0 -0.34121458228E+02  0.42934632015E+01  0.26474810282E+02  0.47787270544E+02  0.19999997718E+02 0.  0.
         12    1    1    2    0    0  0.34121458228E+02 -0.42934632015E+01 -0.26474810282E+02  0.43400729456E+02  0.00000000000E+00 0. -1.
         11    1    3    3    0    0 -0.25512084545E+02  0.31383240845E+00  0.12321108663E+02  0.28333278447E+02  0.51100000000E-03 0. -1.
        -11    1    3    3    0    0 -0.92810669736E+01  0.69355410495E-01  0.87962279016E+01  0.12787362507E+02  0.51100000000E-03 0.  1.
        -12    1    3    3    0    0  0.67169329102E+00  0.39102753826E+01  0.53574737172E+01  0.66666295888E+01  0.00000000000E+00 0.  1.
</event>
<event>
 7    1  0.2414091E-009  0.4778727E+02  0.7816164E-02  0.1312668E+00
        -11   -1    0    0    0    0  0.00000000000E+00  0.00000000000E+00  0.45593999997E+02  0.45594000000E+02  0.51100000000E-03 0.  1.
         11   -1    0    0    0    0 -0.00000000000E+00 -0.00000000000E+00 -0.45593999997E+02  0.45594000000E+02  0.51100000000E-03 0. -1.
    9900012    2    1    2    0    0  0.18012866648E+02 -0.25046665918E+02  0.30525807800E+02  0.47787265210E+02  0.19999973396E+02 0.  0.
         12    1    1    2    0    0 -0.18012866648E+02  0.25046665918E+02 -0.30525807800E+02  0.43400734790E+02  0.00000000000E+00 0. -1.
         11    1    3    3    0    0  0.70806929529E+00 -0.84141076149E+01  0.10259077582E+02  0.13287108119E+02  0.51100000000E-03 0. -1.
        -11    1    3    3    0    0  0.13397599066E+01 -0.41936811860E+01  0.11740373329E+02  0.12538671566E+02  0.51100000000E-03 0.  1.
        -12    1    3    3    0    0  0.15965037447E+02 -0.12438877117E+02  0.85263568900E+01  0.21961485524E+02  0.00000000000E+00 0.  1.
</event>
<event>
 7    1  0.2414091E-009  0.4778727E+02  0.7816164E-02  0.1312668E+00
        -11   -1    0    0    0    0  0.00000000000E+00  0.00000000000E+00  0.45593999997E+02  0.45594000000E+02  0.51100000000E-03 0.  1.
         11   -1    0    0    0    0 -0.00000000000E+00 -0.00000000000E+00 -0.45593999997E+02  0.45594000000E+02  0.51100000000E-03 0. -1.
    9900012    2    1    2    0    0 -0.19829726521E+02 -0.29188380255E+02 -0.25267450870E+02  0.47787266490E+02  0.19999979232E+02 0.  0.
         12    1    1    2    0    0  0.19829726521E+02  0.29188380255E+02  0.25267450870E+02  0.43400733510E+02  0.00000000000E+00 0. -1.
         11    1    3    3    0    0 -0.17085737816E+01  0.21501264014E+01 -0.55579208874E+00  0.28019944711E+01  0.51100000000E-03 0. -1.
        -11    1    3    3    0    0  0.14666365069E+00 -0.50130711921E+01 -0.97693702238E+00  0.51094813054E+01  0.51100000000E-03 0.  1.
        -12    1    3    3    0    0 -0.18267816390E+02 -0.26325435464E+02 -0.23734721758E+02  0.39875790713E+02  0.00000000000E+00 0.  1.
</event>
<event>
 7    1  0.2414091E-009  0.4778727E+02  0.7816164E-02  0.1312668E+00
        -11   -1    0    0    0    0  0.00000000000E+00  0.00000000000E+00  0.45593999997E+02  0.45594000000E+02  0.51100000000E-03 0. -1.
         11   -1    0    0    0    0 -0.00000000000E+00 -0.00000000000E+00 -0.45593999997E+02  0.45594000000E+02  0.51100000000E-03 0.  1.
    9900012    2    1    2    0    0  0.38192807081E+02 -0.80851643488E+01 -0.18962146735E+02  0.47787269545E+02  0.19999993162E+02 0.  0.
         12    1    1    2    0    0 -0.38192807081E+02  0.80851643488E+01  0.18962146735E+02  0.43400730455E+02  0.00000000000E+00 0. -1.
         11    1    3    3    0    0  0.23941583465E+02 -0.78918731753E+00 -0.13317307329E+02  0.27407533822E+02  0.51100000000E-03 0. -1.
        -11    1    3    3    0    0  0.10803408789E+02 -0.20297010581E+01 -0.80674049717E+01  0.13635114634E+02  0.51100000000E-03 0.  1.
         12    1    3    3    0    0  0.34478148270E+01 -0.52662759731E+01  0.24225655667E+01  0.67446210888E+01  0.00000000000E+00 0. -1.
</event>
<event>
 7    1  0.2414091E-009  0.4778728E+02  0.7816164E-02  0.1312668E+00
        -11   -1    0    0    0    0  0.00000000000E+00  0.00000000000E+00  0.45593999997E+02  0.45594000000E+02  0.51100000000E-03 0.  1.
         11   -1    0    0    0    0 -0.00000000000E+00 -0.00000000000E+00 -0.45593999997E+02  0.45594000000E+02  0.51100000000E-03 0. -1.
    9900012    2    1    2    0    0 -0.15779269534E+02  0.10002699131E+02  0.39173754781E+02  0.47787281105E+02  0.20000045872E+02 0.  0.
         12    1    1    2    0    0  0.15779269534E+02 -0.10002699131E+02 -0.39173754781E+02  0.43400718895E+02  0.00000000000E+00 0. -1.
         11    1    3    3    0    0  0.95913116403E+00  0.37968193984E+01  0.85357029768E+01  0.93911658330E+01  0.51100000000E-03 0. -1.
        -11    1    3    3    0    0 -0.10183412443E+02  0.19225332341E+01  0.28430662981E+02  0.30260545613E+02  0.51100000000E-03 0.  1.
         12    1    3    3    0    0 -0.65549882557E+01  0.42833464988E+01  0.22073888229E+01  0.81355696590E+01  0.00000000000E+00 0. -1.
</event>
<event>
 7    1  0.2414091E-009  0.4778727E+02  0.7816164E-02  0.1312668E+00
        -11   -1    0    0    0    0  0.00000000000E+00  0.00000000000E+00  0.45593999997E+02  0.45594000000E+02  0.51100000000E-03 0.  1.
         11   -1    0    0    0    0 -0.00000000000E+00 -0.00000000000E+00 -0.45593999997E+02  0.45594000000E+02  0.51100000000E-03 0. -1.
    9900012    2    1    2    0    0 -0.31990712164E+02  0.57681155719E+01  0.28756676679E+02  0.47787271025E+02  0.19999999910E+02 0.  0.
         12    1    1    2    0    0  0.31990712164E+02 -0.57681155719E+01 -0.28756676679E+02  0.43400728975E+02  0.00000000000E+00 0. -1.
         11    1    3    3    0    0 -0.15457833806E+02 -0.30844908544E+01  0.93521798376E+01  0.18328174426E+02  0.51100000000E-03 0. -1.
        -11    1    3    3    0    0 -0.14124116414E+02  0.35878777973E+01  0.18576823942E+02  0.23610631496E+02  0.51100000000E-03 0.  1.
        -12    1    3    3    0    0 -0.24087619428E+01  0.52647286290E+01  0.82767289859E+00  0.58484651031E+01  0.00000000000E+00 0.  1.
</event>
<event>
 7    1  0.2414091E-009  0.4778726E+02  0.7816164E-02  0.1312668E+00
        -11   -1    0    0    0    0  0.00000000000E+00  0.00000000000E+00  0.45593999997E+02  0.45594000000E+02  0.51100000000E-03 0.  1.
         11   -1    0    0    0    0 -0.00000000000E+00 -0.00000000000E+00 -0.45593999997E+02  0.45594000000E+02  0.51100000000E-03 0. -1.
    9900012    2    1    2    0    0 -0.17419945460E+02  0.12382262881E+02  0.37773659016E+02  0.47787259807E+02  0.19999948764E+02 0.  0.
         12    1    1    2    0    0  0.17419945460E+02 -0.12382262881E+02 -0.37773659016E+02  0.43400740193E+02  0.00000000000E+00 0. -1.
         11    1    3    3    0    0 -0.36156822213E+01  0.46358419981E+01  0.13636013853E+02  0.14849412884E+02  0.51100000000E-03 0. -1.
        -11    1    3    3    0    0 -0.34993009788E+01  0.69051130748E+01  0.20605939650E+02  0.22012052222E+02  0.51100000000E-03 0.  1.
         12    1    3    3    0    0 -0.10304962260E+02  0.84130780786E+00  0.35317055131E+01  0.10925794701E+02  0.00000000000E+00 0. -1.
</event>
<event>
 7    1  0.2414091E-009  0.4778727E+02  0.7816164E-02  0.1312668E+00
        -11   -1    0    0    0    0  0.00000000000E+00  0.00000000000E+00  0.45593999997E+02  0.45594000000E+02  0.51100000000E-03 0.  1.
         11   -1    0    0    0    0 -0.00000000000E+00 -0.00000000000E+00 -0.45593999997E+02  0.45594000000E+02  0.51100000000E-03 0. -1.
    9900012    2    1    2    0    0 -0.29023494676E+02  0.15825002704E+02  0.28121688866E+02  0.47787270300E+02  0.19999996605E+02 0.  0.
         12    1    1    2    0    0  0.29023494676E+02 -0.15825002704E+02 -0.28121688866E+02  0.43400729700E+02  0.00000000000E+00 0. -1.
         11    1    3    3    0    0 -0.26779645206E+01  0.22483443691E+01  0.70450657288E+01  0.78650809125E+01  0.51100000000E-03 0. -1.
        -11    1    3    3    0    0 -0.18697585502E+02  0.16328558853E+02  0.11490942759E+02  0.27354401905E+02  0.51100000000E-03 0.  1.
        -12    1    3    3    0    0 -0.76479446540E+01 -0.27519005179E+01  0.95856803786E+01  0.12567787483E+02  0.00000000000E+00 0.  1.
</event>
<event>
 7    1  0.2414091E-009  0.4778728E+02  0.7816164E-02  0.1312668E+00
        -11   -1    0    0    0    0  0.00000000000E+00  0.00000000000E+00  0.45593999997E+02  0.45594000000E+02  0.51100000000E-03 0.  1.
         11   -1    0    0    0    0 -0.00000000000E+00 -0.00000000000E+00 -0.45593999997E+02  0.45594000000E+02  0.51100000000E-03 0. -1.
    9900012    2    1    2    0    0  0.22469043154E+02 -0.21967147184E+02  0.29936745188E+02  0.47787283783E+02  0.20000058082E+02 0.  0.
         12    1    1    2    0    0 -0.22469043154E+02  0.21967147184E+02 -0.29936745188E+02  0.43400716217E+02  0.00000000000E+00 0. -1.
         11    1    3    3    0    0  0.21042468512E+02 -0.11900335696E+02  0.13872739836E+02  0.27872143469E+02  0.51100000000E-03 0. -1.
        -11    1    3    3    0    0  0.32337810917E+01 -0.72879644276E+01  0.84870517726E+01  0.11644819179E+02  0.51100000000E-03 0.  1.
         12    1    3    3    0    0 -0.18072064501E+01 -0.27788470604E+01  0.75769535797E+01  0.82703211357E+01  0.00000000000E+00 0. -1.
</event>
<event>
 7    1  0.2414091E-009  0.4778729E+02  0.7816164E-02  0.1312668E+00
        -11   -1    0    0    0    0  0.00000000000E+00  0.00000000000E+00  0.45593999997E+02  0.45594000000E+02  0.51100000000E-03 0.  1.
         11   -1    0    0    0    0 -0.00000000000E+00 -0.00000000000E+00 -0.45593999997E+02  0.45594000000E+02  0.51100000000E-03 0. -1.
    9900012    2    1    2    0    0  0.18902493795E+02  0.26692520714E+02  0.28527649703E+02  0.47787288816E+02  0.20000081026E+02 0.  0.
         12    1    1    2    0    0 -0.18902493795E+02 -0.26692520714E+02 -0.28527649703E+02  0.43400711184E+02  0.00000000000E+00 0. -1.
         11    1    3    3    0    0  0.74771779913E+01  0.14427638415E+02  0.57242492391E+01  0.17228812222E+02  0.51100000000E-03 0. -1.
        -11    1    3    3    0    0  0.10906550559E+02  0.11661141637E+02  0.12640921687E+02  0.20364870997E+02  0.51100000000E-03 0.  1.
         12    1    3    3    0    0  0.51876524381E+00  0.60374066218E+00  0.10162478777E+02  0.10193605597E+02  0.00000000000E+00 0. -1.
</event>
<event>
 7    1  0.2414091E-009  0.4778727E+02  0.7816164E-02  0.1312668E+00
        -11   -1    0    0    0    0  0.00000000000E+00  0.00000000000E+00  0.45593999997E+02  0.45594000000E+02  0.51100000000E-03 0. -1.
         11   -1    0    0    0    0 -0.00000000000E+00 -0.00000000000E+00 -0.45593999997E+02  0.45594000000E+02  0.51100000000E-03 0.  1.
    9900012    2    1    2    0    0  0.24861730796E+02 -0.30322006986E+02  0.18603586045E+02  0.47787272131E+02  0.20000004955E+02 0.  0.
         12    1    1    2    0    0 -0.24861730796E+02  0.30322006986E+02 -0.18603586045E+02  0.43400727869E+02  0.00000000000E+00 0. -1.
         11    1    3    3    0    0 -0.83526234171E+00 -0.12182464222E+01 -0.35005754842E+00  0.15180013416E+01  0.51100000000E-03 0. -1.
        -11    1    3    3    0    0  0.11239659276E+02 -0.21041199071E+01  0.34621824065E+01  0.11947550733E+02  0.51100000000E-03 0.  1.
         12    1    3    3    0    0  0.14457333861E+02 -0.26999640657E+02  0.15491461187E+02  0.34321720057E+02  0.00000000000E+00 0. -1.
</event>
<event>
 7    1  0.2414091E-009  0.4778728E+02  0.7816164E-02  0.1312668E+00
        -11   -1    0    0    0    0  0.00000000000E+00  0.00000000000E+00  0.45593999997E+02  0.45594000000E+02  0.51100000000E-03 0. -1.
         11   -1    0    0    0    0 -0.00000000000E+00 -0.00000000000E+00 -0.45593999997E+02  0.45594000000E+02  0.51100000000E-03 0.  1.
    9900012    2    1    2    0    0  0.67671149908E+00  0.33634249132E+02 -0.27420825185E+02  0.47787282184E+02  0.20000050789E+02 0.  0.
         12    1    1    2    0    0 -0.67671149908E+00 -0.33634249132E+02  0.27420825185E+02  0.43400717816E+02  0.00000000000E+00 0. -1.
         11    1    3    3    0    0 -0.63299864919E+01  0.23156644379E+02 -0.11895055076E+02  0.26791626367E+02  0.51100000000E-03 0. -1.
        -11    1    3    3    0    0 -0.12994688665E+00  0.52059958266E+01 -0.66414075802E+01  0.84396429810E+01  0.51100000000E-03 0.  1.
        -12    1    3    3    0    0  0.71366448776E+01  0.52716089269E+01 -0.88843625289E+01  0.12556012836E+02  0.00000000000E+00 0.  1.
</event>
<event>
 7    1  0.2414091E-009  0.4778727E+02  0.7816164E-02  0.1312668E+00
        -11   -1    0    0    0    0  0.00000000000E+00  0.00000000000E+00  0.45593999997E+02  0.45594000000E+02  0.51100000000E-03 0. -1.
         11   -1    0    0    0    0 -0.00000000000E+00 -0.00000000000E+00 -0.45593999997E+02  0.45594000000E+02  0.51100000000E-03 0.  1.
    9900012    2    1    2    0    0  0.10421743893E+02 -0.10062596525E+02 -0.40911546102E+02  0.47787271906E+02  0.20000003929E+02 0.  0.
         12    1    1    2    0    0 -0.10421743893E+02  0.10062596525E+02  0.40911546102E+02  0.43400728094E+02  0.00000000000E+00 0. -1.
         11    1    3    3    0    0  0.73386535330E+01  0.34693018891E+00 -0.15960437004E+02  0.17570194816E+02  0.51100000000E-03 0. -1.
        -11    1    3    3    0    0 -0.31736649795E+01 -0.32032451551E+00 -0.12946497625E+02  0.13333662596E+02  0.51100000000E-03 0.  1.
        -12    1    3    3    0    0  0.62567553391E+01 -0.10089202199E+02 -0.12004611473E+02  0.16883414495E+02  0.00000000000E+00 0.  1.
</event>
<event>
 7    1  0.2414091E-009  0.4778728E+02  0.7816164E-02  0.1312668E+00
        -11   -1    0    0    0    0  0.00000000000E+00  0.00000000000E+00  0.45593999997E+02  0.45594000000E+02  0.51100000000E-03 0. -1.
         11   -1    0    0    0    0 -0.00000000000E+00 -0.00000000000E+00 -0.45593999997E+02  0.45594000000E+02  0.51100000000E-03 0.  1.
    9900012    2    1    2    0    0 -0.41623726232E+02 -0.22640697332E+01 -0.12081469630E+02  0.47787279895E+02  0.20000040355E+02 0.  0.
         12    1    1    2    0    0  0.41623726232E+02  0.22640697332E+01  0.12081469630E+02  0.43400720105E+02  0.00000000000E+00 0. -1.
         11    1    3    3    0    0 -0.68225143447E+01 -0.18180561625E+01 -0.98644655819E+01  0.12130940263E+02  0.51100000000E-03 0. -1.
        -11    1    3    3    0    0 -0.12250268311E+02 -0.29948313443E+01 -0.29442573068E+01  0.12950163698E+02  0.51100000000E-03 0.  1.
         12    1    3    3    0    0 -0.22550943577E+02  0.25488177736E+01  0.72725325852E+00  0.22706175934E+02  0.00000000000E+00 0. -1.
</event>
<event>
 7    1  0.2414091E-009  0.4778727E+02  0.7816164E-02  0.1312668E+00
        -11   -1    0    0    0    0  0.00000000000E+00  0.00000000000E+00  0.45593999997E+02  0.45594000000E+02  0.51100000000E-03 0. -1.
         11   -1    0    0    0    0 -0.00000000000E+00 -0.00000000000E+00 -0.45593999997E+02  0.45594000000E+02  0.51100000000E-03 0.  1.
    9900012    2    1    2    0    0 -0.13493715882E+02  0.29351254621E+02 -0.28983557610E+02  0.47787272726E+02  0.20000007668E+02 0.  0.
         12    1    1    2    0    0  0.13493715882E+02 -0.29351254621E+02  0.28983557610E+02  0.43400727274E+02  0.00000000000E+00 0. -1.
         11    1    3    3    0    0 -0.11446635354E+02  0.12844761064E+02 -0.16012172633E+02  0.23503255528E+02  0.51100000000E-03 0. -1.
        -11    1    3    3    0    0 -0.36248887039E+01  0.15280775391E+02 -0.14796989444E+02  0.21577599763E+02  0.51100000000E-03 0.  1.
        -12    1    3    3    0    0  0.15778081765E+01  0.12257181655E+01  0.18256044666E+01  0.27064174348E+01  0.00000000000E+00 0.  1.
</event>
<event>
 7    1  0.2414091E-009  0.4778725E+02  0.7816164E-02  0.1312668E+00
        -11   -1    0    0    0    0  0.00000000000E+00  0.00000000000E+00  0.45593999997E+02  0.45594000000E+02  0.51100000000E-03 0.  1.
         11   -1    0    0    0    0 -0.00000000000E+00 -0.00000000000E+00 -0.45593999997E+02  0.45594000000E+02  0.51100000000E-03 0. -1.
    9900012    2    1    2    0    0  0.40744292050E+02  0.11854041487E+01  0.14903786021E+02  0.47787247064E+02  0.19999890663E+02 0.  0.
         12    1    1    2    0    0 -0.40744292050E+02 -0.11854041487E+01 -0.14903786021E+02  0.43400752936E+02  0.00000000000E+00 0. -1.
         11    1    3    3    0    0  0.27608180869E+02 -0.47978521981E+01  0.82099469663E+01  0.29199901816E+02  0.51100000000E-03 0. -1.
        -11    1    3    3    0    0  0.14379854224E+02  0.45509796477E+01  0.46149043366E+01  0.15773045538E+02  0.51100000000E-03 0.  1.
         12    1    3    3    0    0 -0.12437430424E+01  0.14322766990E+01  0.20789347176E+01  0.28142997101E+01  0.00000000000E+00 0. -1.
</event>
<event>
 7    1  0.2414091E-009  0.4778727E+02  0.7816164E-02  0.1312668E+00
        -11   -1    0    0    0    0  0.00000000000E+00  0.00000000000E+00  0.45593999997E+02  0.45594000000E+02  0.51100000000E-03 0.  1.
         11   -1    0    0    0    0 -0.00000000000E+00 -0.00000000000E+00 -0.45593999997E+02  0.45594000000E+02  0.51100000000E-03 0. -1.
    9900012    2    1    2    0    0  0.17758831843E+02 -0.38996511430E+02  0.68934098892E+01  0.47787272909E+02  0.20000008502E+02 0.  0.
         12    1    1    2    0    0 -0.17758831843E+02  0.38996511430E+02 -0.68934098892E+01  0.43400727091E+02  0.00000000000E+00 0. -1.
         11    1    3    3    0    0  0.43942984166E+01 -0.22312784422E+02  0.21366217925E+01  0.22841527098E+02  0.51100000000E-03 0. -1.
        -11    1    3    3    0    0  0.51296117523E+01 -0.15016264659E+02  0.15165304164E+01  0.15940545342E+02  0.51100000000E-03 0.  1.
        -12    1    3    3    0    0  0.82349216736E+01 -0.16674623492E+01  0.32402576803E+01  0.90052004692E+01  0.00000000000E+00 0.  1.
</event>
<event>
 7    1  0.2414091E-009  0.4778726E+02  0.7816164E-02  0.1312668E+00
        -11   -1    0    0    0    0  0.00000000000E+00  0.00000000000E+00  0.45593999997E+02  0.45594000000E+02  0.51100000000E-03 0.  1.
         11   -1    0    0    0    0 -0.00000000000E+00 -0.00000000000E+00 -0.45593999997E+02  0.45594000000E+02  0.51100000000E-03 0. -1.
    9900012    2    1    2    0    0  0.13126205421E+02 -0.16579145594E+02  0.37900641002E+02  0.47787263534E+02  0.19999965756E+02 0.  0.
         12    1    1    2    0    0 -0.13126205421E+02  0.16579145594E+02 -0.37900641002E+02  0.43400736466E+02  0.00000000000E+00 0. -1.
         11    1    3    3    0    0 -0.91099645070E+00 -0.10664467232E+01  0.82542985156E+01  0.83726141314E+01  0.51100000000E-03 0. -1.
        -11    1    3    3    0    0  0.42640534589E+00 -0.11623092199E+02  0.15739893324E+02  0.19570956438E+02  0.51100000000E-03 0.  1.
         12    1    3    3    0    0  0.13610796526E+02 -0.38896066719E+01  0.13906449162E+02  0.19843692964E+02  0.00000000000E+00 0. -1.
</event>
<event>
 7    1  0.2414091E-009  0.4778727E+02  0.7816164E-02  0.1312668E+00
        -11   -1    0    0    0    0  0.00000000000E+00  0.00000000000E+00  0.45593999997E+02  0.45594000000E+02  0.51100000000E-03 0. -1.
         11   -1    0    0    0    0 -0.00000000000E+00 -0.00000000000E+00 -0.45593999997E+02  0.45594000000E+02  0.51100000000E-03 0.  1.
    9900012    2    1    2    0    0 -0.31485569012E+02 -0.24318102342E+02 -0.17346820355E+02  0.47787270352E+02  0.19999996844E+02 0.  0.
         12    1    1    2    0    0  0.31485569012E+02  0.24318102342E+02  0.17346820355E+02  0.43400729648E+02  0.00000000000E+00 0. -1.
         11    1    3    3    0    0 -0.40245826180E+01 -0.33842585547E+00 -0.32760644482E+01  0.52004226596E+01  0.51100000000E-03 0. -1.
        -11    1    3    3    0    0 -0.89209216176E+01 -0.53677851949E+01  0.34978041135E+01  0.10983195996E+02  0.51100000000E-03 0.  1.
        -12    1    3    3    0    0 -0.18540064776E+02 -0.18611891292E+02 -0.17568560021E+02  0.31603651697E+02  0.00000000000E+00 0.  1.
</event>
<event>
 7    1  0.2414091E-009  0.4778727E+02  0.7816164E-02  0.1312668E+00
        -11   -1    0    0    0    0  0.00000000000E+00  0.00000000000E+00  0.45593999997E+02  0.45594000000E+02  0.51100000000E-03 0.  1.
         11   -1    0    0    0    0 -0.00000000000E+00 -0.00000000000E+00 -0.45593999997E+02  0.45594000000E+02  0.51100000000E-03 0. -1.
    9900012    2    1    2    0    0 -0.13736645934E+02  0.40669266153E+02 -0.63983518119E+01  0.47787267784E+02  0.19999985136E+02 0.  0.
         12    1    1    2    0    0  0.13736645934E+02 -0.40669266153E+02  0.63983518119E+01  0.43400732216E+02  0.00000000000E+00 0. -1.
         11    1    3    3    0    0  0.12373995176E+01  0.31790640092E+01  0.80692239461E+00  0.35055284270E+01  0.51100000000E-03 0. -1.
        -11    1    3    3    0    0 -0.33184863407E+01  0.25975900526E+02  0.46533540927E+00  0.26191149211E+02  0.51100000000E-03 0.  1.
         12    1    3    3    0    0 -0.11655559111E+02  0.11514301618E+02 -0.76706096157E+01  0.18090590146E+02  0.00000000000E+00 0. -1.
</event>
<event>
 7    1  0.2414091E-009  0.4778727E+02  0.7816164E-02  0.1312668E+00
        -11   -1    0    0    0    0  0.00000000000E+00  0.00000000000E+00  0.45593999997E+02  0.45594000000E+02  0.51100000000E-03 0.  1.
         11   -1    0    0    0    0 -0.00000000000E+00 -0.00000000000E+00 -0.45593999997E+02  0.45594000000E+02  0.51100000000E-03 0. -1.
    9900012    2    1    2    0    0 -0.10939552334E+02  0.40985150478E+02  0.91742554689E+01  0.47787270416E+02  0.19999997137E+02 0.  0.
         12    1    1    2    0    0  0.10939552334E+02 -0.40985150478E+02 -0.91742554689E+01  0.43400729584E+02  0.00000000000E+00 0. -1.
         11    1    3    3    0    0 -0.90860684729E+01  0.92181223240E+01  0.48739356105E+01  0.13830606208E+02  0.51100000000E-03 0. -1.
        -11    1    3    3    0    0 -0.59590284451E+01  0.25275227840E+02  0.39567203557E+01  0.26267904344E+02  0.51100000000E-03 0.  1.
         12    1    3    3    0    0  0.41055445837E+01  0.64918003137E+01  0.34359950266E+00  0.76887598649E+01  0.00000000000E+00 0. -1.
</event>
<event>
 7    1  0.2414091E-009  0.4778727E+02  0.7816164E-02  0.1312668E+00
        -11   -1    0    0    0    0  0.00000000000E+00  0.00000000000E+00  0.45593999997E+02  0.45594000000E+02  0.51100000000E-03 0.  1.
         11   -1    0    0    0    0 -0.00000000000E+00 -0.00000000000E+00 -0.45593999997E+02  0.45594000000E+02  0.51100000000E-03 0. -1.
    9900012    2    1    2    0    0  0.94132394875E+01 -0.42312914924E+02  0.21521281686E+01  0.47787268408E+02  0.19999987981E+02 0.  0.
         12    1    1    2    0    0 -0.94132394875E+01  0.42312914924E+02 -0.21521281686E+01  0.43400731592E+02  0.00000000000E+00 0. -1.
         11    1    3    3    0    0  0.27333854779E+01 -0.20913684904E+02  0.14061979071E+01  0.21138377545E+02  0.51100000000E-03 0.  1.
        -11    1    3    3    0    0  0.77570729097E+01 -0.19446493922E+02  0.52834865050E+01  0.21592904758E+02  0.51100000000E-03 0. -1.
        -12    1    3    3    0    0 -0.10772189001E+01 -0.19527360980E+01 -0.45375562435E+01  0.50559861046E+01  0.00000000000E+00 0.  1.
</event>
<event>
 7    1  0.2414091E-009  0.4778731E+02  0.7816164E-02  0.1312668E+00
        -11   -1    0    0    0    0  0.00000000000E+00  0.00000000000E+00  0.45593999997E+02  0.45594000000E+02  0.51100000000E-03 0.  1.
         11   -1    0    0    0    0 -0.00000000000E+00 -0.00000000000E+00 -0.45593999997E+02  0.45594000000E+02  0.51100000000E-03 0. -1.
    9900012    2    1    2    0    0  0.44487771535E+01  0.73846503582E+01  0.42535815090E+02  0.47787305945E+02  0.20000159126E+02 0.  0.
         12    1    1    2    0    0 -0.44487771535E+01 -0.73846503582E+01 -0.42535815090E+02  0.43400694055E+02  0.00000000000E+00 0. -1.
         11    1    3    3    0    0 -0.28266247191E+01  0.63465228121E+00  0.97866866180E+01  0.10206460015E+02  0.51100000000E-03 0. -1.
        -11    1    3    3    0    0  0.44580860614E+01  0.31826943127E+01  0.32574509349E+02  0.33031844241E+02  0.51100000000E-03 0.  1.
         12    1    3    3    0    0  0.28173158111E+01  0.35673037643E+01  0.17461912329E+00  0.45490016888E+01  0.00000000000E+00 0. -1.
</event>
<event>
 7    1  0.2414091E-009  0.4778727E+02  0.7816164E-02  0.1312668E+00
        -11   -1    0    0    0    0  0.00000000000E+00  0.00000000000E+00  0.45593999997E+02  0.45594000000E+02  0.51100000000E-03 0.  1.
         11   -1    0    0    0    0 -0.00000000000E+00 -0.00000000000E+00 -0.45593999997E+02  0.45594000000E+02  0.51100000000E-03 0. -1.
    9900012    2    1    2    0    0 -0.10779168345E+02  0.15311355919E+02  0.39153482665E+02  0.47787270800E+02  0.19999998888E+02 0.  0.
         12    1    1    2    0    0  0.10779168345E+02 -0.15311355919E+02 -0.39153482665E+02  0.43400729200E+02  0.00000000000E+00 0. -1.
         11    1    3    3    0    0 -0.23535197772E+01 -0.19351429255E+01  0.55801307061E+01  0.63578056311E+01  0.51100000000E-03 0. -1.
        -11    1    3    3    0    0 -0.12652315851E+02  0.11218831391E+02  0.23125542973E+02  0.28648455669E+02  0.51100000000E-03 0.  1.
        -12    1    3    3    0    0  0.42266672830E+01  0.60276674535E+01  0.10447808986E+02  0.12781009501E+02  0.00000000000E+00 0.  1.
</event>
<event>
 7    1  0.2414091E-009  0.4778728E+02  0.7816164E-02  0.1312668E+00
        -11   -1    0    0    0    0  0.00000000000E+00  0.00000000000E+00  0.45593999997E+02  0.45594000000E+02  0.51100000000E-03 0.  1.
         11   -1    0    0    0    0 -0.00000000000E+00 -0.00000000000E+00 -0.45593999997E+02  0.45594000000E+02  0.51100000000E-03 0. -1.
    9900012    2    1    2    0    0 -0.18467321622E+02  0.93946181240E+01  0.38135574783E+02  0.47787275563E+02  0.20000020604E+02 0.  0.
         12    1    1    2    0    0  0.18467321622E+02 -0.93946181240E+01 -0.38135574783E+02  0.43400724437E+02  0.00000000000E+00 0. -1.
         11    1    3    3    0    0 -0.90534466775E+01  0.15129790957E+01  0.31198108175E+02  0.32520392932E+02  0.51100000000E-03 0. -1.
        -11    1    3    3    0    0 -0.60767733107E+01  0.21325839059E+01  0.54926195890E+01  0.84642754087E+01  0.51100000000E-03 0.  1.
         12    1    3    3    0    0 -0.33371016341E+01  0.57490551224E+01  0.14448470189E+01  0.68026072225E+01  0.00000000000E+00 0. -1.
</event>
<event>
 7    1  0.2414091E-009  0.4778727E+02  0.7816164E-02  0.1312668E+00
        -11   -1    0    0    0    0  0.00000000000E+00  0.00000000000E+00  0.45593999997E+02  0.45594000000E+02  0.51100000000E-03 0.  1.
         11   -1    0    0    0    0 -0.00000000000E+00 -0.00000000000E+00 -0.45593999997E+02  0.45594000000E+02  0.51100000000E-03 0. -1.
    9900012    2    1    2    0    0 -0.35835883089E+02 -0.12236589639E+02  0.21205626820E+02  0.47787271302E+02  0.20000001173E+02 0.  0.
         12    1    1    2    0    0  0.35835883089E+02  0.12236589639E+02 -0.21205626820E+02  0.43400728698E+02  0.00000000000E+00 0. -1.
         11    1    3    3    0    0 -0.13984307393E+02 -0.25721653565E+01 -0.10711432009E+01  0.14259180759E+02  0.51100000000E-03 0. -1.
        -11    1    3    3    0    0 -0.14692426039E+01  0.70607262218E+00  0.37755428772E+01  0.41124125104E+01  0.51100000000E-03 0.  1.
         12    1    3    3    0    0 -0.20382333091E+02 -0.10370496905E+02  0.18501227144E+02  0.29415678032E+02  0.00000000000E+00 0. -1.
</event>
<event>
 7    1  0.2414091E-009  0.4778727E+02  0.7816164E-02  0.1312668E+00
        -11   -1    0    0    0    0  0.00000000000E+00  0.00000000000E+00  0.45593999997E+02  0.45594000000E+02  0.51100000000E-03 0.  1.
         11   -1    0    0    0    0 -0.00000000000E+00 -0.00000000000E+00 -0.45593999997E+02  0.45594000000E+02  0.51100000000E-03 0. -1.
    9900012    2    1    2    0    0  0.12783569231E+02  0.30692250270E+02  0.27896043328E+02  0.47787273021E+02  0.20000009010E+02 0.  0.
         12    1    1    2    0    0 -0.12783569231E+02 -0.30692250270E+02 -0.27896043328E+02  0.43400726979E+02  0.00000000000E+00 0. -1.
         11    1    3    3    0    0  0.43518347544E+01  0.11033869509E+02  0.62539940565E+01  0.13408847228E+02  0.51100000000E-03 0.  1.
        -11    1    3    3    0    0  0.10964238114E+02  0.54083526070E+01  0.10434503985E+02  0.16073072793E+02  0.51100000000E-03 0. -1.
         12    1    3    3    0    0 -0.25325036366E+01  0.14250028154E+02  0.11207545287E+02  0.18305352999E+02  0.00000000000E+00 0. -1.
</event>
<event>
 7    1  0.2414091E-009  0.4778727E+02  0.7816164E-02  0.1312668E+00
        -11   -1    0    0    0    0  0.00000000000E+00  0.00000000000E+00  0.45593999997E+02  0.45594000000E+02  0.51100000000E-03 0.  1.
         11   -1    0    0    0    0 -0.00000000000E+00 -0.00000000000E+00 -0.45593999997E+02  0.45594000000E+02  0.51100000000E-03 0. -1.
    9900012    2    1    2    0    0 -0.37249148100E+02  0.20348146095E+02  0.90596474141E+01  0.47787270802E+02  0.19999998896E+02 0.  0.
         12    1    1    2    0    0  0.37249148100E+02 -0.20348146095E+02 -0.90596474141E+01  0.43400729198E+02  0.00000000000E+00 0. -1.
         11    1    3    3    0    0 -0.12375594932E+02  0.85705568560E+00 -0.18238647895E+01  0.12538595511E+02  0.51100000000E-03 0. -1.
        -11    1    3    3    0    0 -0.10532279852E+02  0.16948069809E+01  0.36827008777E+01  0.11285547200E+02  0.51100000000E-03 0.  1.
        -12    1    3    3    0    0 -0.14341273316E+02  0.17796283428E+02  0.72008113258E+01  0.23963128091E+02  0.00000000000E+00 0.  1.
</event>
<event>
 7    1  0.2414091E-009  0.4778727E+02  0.7816164E-02  0.1312668E+00
        -11   -1    0    0    0    0  0.00000000000E+00  0.00000000000E+00  0.45593999997E+02  0.45594000000E+02  0.51100000000E-03 0. -1.
         11   -1    0    0    0    0 -0.00000000000E+00 -0.00000000000E+00 -0.45593999997E+02  0.45594000000E+02  0.51100000000E-03 0.  1.
    9900012    2    1    2    0    0 -0.26050276864E+02 -0.29912626191E+02 -0.17613666577E+02  0.47787269815E+02  0.19999994394E+02 0.  0.
         12    1    1    2    0    0  0.26050276864E+02  0.29912626191E+02  0.17613666577E+02  0.43400730185E+02  0.00000000000E+00 0. -1.
         11    1    3    3    0    0 -0.12590439434E+02 -0.75176552198E+01 -0.68092674369E+01  0.16167882621E+02  0.51100000000E-03 0. -1.
        -11    1    3    3    0    0 -0.19806521714E+01 -0.29410200519E+00 -0.59083840176E+01  0.62384678387E+01  0.51100000000E-03 0.  1.
        -12    1    3    3    0    0 -0.11479185258E+02 -0.22100868966E+02 -0.48960151224E+01  0.25380919356E+02  0.00000000000E+00 0.  1.
</event>
<event>
 7    1  0.2414091E-009  0.4778727E+02  0.7816164E-02  0.1312668E+00
        -11   -1    0    0    0    0  0.00000000000E+00  0.00000000000E+00  0.45593999997E+02  0.45594000000E+02  0.51100000000E-03 0.  1.
         11   -1    0    0    0    0 -0.00000000000E+00 -0.00000000000E+00 -0.45593999997E+02  0.45594000000E+02  0.51100000000E-03 0. -1.
    9900012    2    1    2    0    0  0.35302367849E+02  0.44541741535E+01  0.24850077588E+02  0.47787271904E+02  0.20000003917E+02 0.  0.
         12    1    1    2    0    0 -0.35302367849E+02 -0.44541741535E+01 -0.24850077588E+02  0.43400728096E+02  0.00000000000E+00 0. -1.
         11    1    3    3    0    0 -0.92147962496E-01  0.14799746965E+01 -0.81845132080E+00  0.16937175606E+01  0.51100000000E-03 0. -1.
        -11    1    3    3    0    0  0.16123381182E+02  0.68495934321E+01  0.66370815612E+01  0.18733157845E+02  0.51100000000E-03 0.  1.
         12    1    3    3    0    0  0.19271134630E+02 -0.38753939751E+01  0.19031447348E+02  0.27360396498E+02  0.00000000000E+00 0. -1.
</event>
<event>
 7    1  0.2414091E-009  0.4778727E+02  0.7816164E-02  0.1312668E+00
        -11   -1    0    0    0    0  0.00000000000E+00  0.00000000000E+00  0.45593999997E+02  0.45594000000E+02  0.51100000000E-03 0.  1.
         11   -1    0    0    0    0 -0.00000000000E+00 -0.00000000000E+00 -0.45593999997E+02  0.45594000000E+02  0.51100000000E-03 0. -1.
    9900012    2    1    2    0    0  0.24052236832E+02  0.16358250353E+02  0.32210574631E+02  0.47787267642E+02  0.19999984485E+02 0.  0.
         12    1    1    2    0    0 -0.24052236832E+02 -0.16358250353E+02 -0.32210574631E+02  0.43400732358E+02  0.00000000000E+00 0. -1.
         11    1    3    3    0    0  0.61959941763E+01  0.81047319030E+01  0.20654569189E+02  0.23036671888E+02  0.51100000000E-03 0. -1.
        -11    1    3    3    0    0  0.77495939381E+01  0.86368644277E+01  0.77012800432E+01  0.13927000679E+02  0.51100000000E-03 0.  1.
        -12    1    3    3    0    0  0.10106648717E+02 -0.38334597774E+00  0.38547253988E+01  0.10823595074E+02  0.00000000000E+00 0.  1.
</event>
<event>
 7    1  0.2414091E-009  0.4778728E+02  0.7816164E-02  0.1312668E+00
        -11   -1    0    0    0    0  0.00000000000E+00  0.00000000000E+00  0.45593999997E+02  0.45594000000E+02  0.51100000000E-03 0.  1.
         11   -1    0    0    0    0 -0.00000000000E+00 -0.00000000000E+00 -0.45593999997E+02  0.45594000000E+02  0.51100000000E-03 0. -1.
    9900012    2    1    2    0    0  0.88750047677E+01  0.14848845027E+02  0.39804132749E+02  0.47787275442E+02  0.20000020050E+02 0.  0.
         12    1    1    2    0    0 -0.88750047677E+01 -0.14848845027E+02 -0.39804132749E+02  0.43400724558E+02  0.00000000000E+00 0. -1.
         11    1    3    3    0    0 -0.43810455116E+01  0.72457420273E+01  0.22373854856E+02  0.23922452188E+02  0.51100000000E-03 0. -1.
        -11    1    3    3    0    0  0.49096815193E+00  0.21002974905E+01  0.39542135660E+01  0.45042318392E+01  0.51100000000E-03 0.  1.
        -12    1    3    3    0    0  0.12765082127E+02  0.55028055090E+01  0.13476064327E+02  0.19360591415E+02  0.00000000000E+00 0.  1.
</event>
<event>
 7    1  0.2414091E-009  0.4778727E+02  0.7816164E-02  0.1312668E+00
        -11   -1    0    0    0    0  0.00000000000E+00  0.00000000000E+00  0.45593999997E+02  0.45594000000E+02  0.51100000000E-03 0.  1.
         11   -1    0    0    0    0 -0.00000000000E+00 -0.00000000000E+00 -0.45593999997E+02  0.45594000000E+02  0.51100000000E-03 0. -1.
    9900012    2    1    2    0    0 -0.30010539669E+01  0.37642393096E+02  0.21393150394E+02  0.47787274583E+02  0.20000016134E+02 0.  0.
         12    1    1    2    0    0  0.30010539669E+01 -0.37642393096E+02 -0.21393150394E+02  0.43400725417E+02  0.00000000000E+00 0. -1.
         11    1    3    3    0    0  0.20043447392E+01  0.93427131604E+01  0.77184155101E+01  0.12283225361E+02  0.51100000000E-03 0. -1.
        -11    1    3    3    0    0 -0.67427695516E+01  0.26205177679E+02  0.16409796583E+02  0.31645816510E+02  0.51100000000E-03 0.  1.
         12    1    3    3    0    0  0.17373708455E+01  0.20945022575E+01 -0.27350616994E+01  0.38582327121E+01  0.00000000000E+00 0. -1.
</event>
<event>
 7    1  0.2414091E-009  0.4778728E+02  0.7816164E-02  0.1312668E+00
        -11   -1    0    0    0    0  0.00000000000E+00  0.00000000000E+00  0.45593999997E+02  0.45594000000E+02  0.51100000000E-03 0. -1.
         11   -1    0    0    0    0 -0.00000000000E+00 -0.00000000000E+00 -0.45593999997E+02  0.45594000000E+02  0.51100000000E-03 0.  1.
    9900012    2    1    2    0    0 -0.32968283121E+02  0.27298280270E+02 -0.71776651101E+01  0.47787277954E+02  0.20000031505E+02 0.  0.
         12    1    1    2    0    0  0.32968283121E+02 -0.27298280270E+02  0.71776651101E+01  0.43400722046E+02  0.00000000000E+00 0. -1.
         11    1    3    3    0    0 -0.89020936914E+01  0.76841140963E+01 -0.46774269788E+01  0.12655876301E+02  0.51100000000E-03 0. -1.
        -11    1    3    3    0    0 -0.24662593237E+02  0.18728116485E+02 -0.59378953643E+01  0.31531642106E+02  0.51100000000E-03 0.  1.
         12    1    3    3    0    0  0.59640380739E+00  0.88604968784E+00  0.34376572329E+01  0.35997595478E+01  0.00000000000E+00 0. -1.
</event>
<event>
 7    1  0.2414091E-009  0.4778727E+02  0.7816164E-02  0.1312668E+00
        -11   -1    0    0    0    0  0.00000000000E+00  0.00000000000E+00  0.45593999997E+02  0.45594000000E+02  0.51100000000E-03 0.  1.
         11   -1    0    0    0    0 -0.00000000000E+00 -0.00000000000E+00 -0.45593999997E+02  0.45594000000E+02  0.51100000000E-03 0. -1.
    9900012    2    1    2    0    0 -0.20014058312E+01 -0.31241221513E+00  0.43353431338E+02  0.47787271487E+02  0.20000002017E+02 0.  0.
         12    1    1    2    0    0  0.20014058312E+01  0.31241221513E+00 -0.43353431338E+02  0.43400728513E+02  0.00000000000E+00 0. -1.
         11    1    3    3    0    0 -0.44521268721E+01  0.31873888210E+01  0.74939503134E+01  0.92811730262E+01  0.51100000000E-03 0. -1.
        -11    1    3    3    0    0  0.55967539208E+01  0.16847654759E+01  0.75162817882E+01  0.95213749710E+01  0.51100000000E-03 0.  1.
         12    1    3    3    0    0 -0.31460328798E+01 -0.51845665121E+01  0.28343199237E+02  0.28984723489E+02  0.00000000000E+00 0. -1.
</event>
<event>
 7    1  0.2414091E-009  0.4778727E+02  0.7816164E-02  0.1312668E+00
        -11   -1    0    0    0    0  0.00000000000E+00  0.00000000000E+00  0.45593999997E+02  0.45594000000E+02  0.51100000000E-03 0.  1.
         11   -1    0    0    0    0 -0.00000000000E+00 -0.00000000000E+00 -0.45593999997E+02  0.45594000000E+02  0.51100000000E-03 0. -1.
    9900012    2    1    2    0    0 -0.33549900139E+02  0.19032453285E+00  0.27531640267E+02  0.47787271452E+02  0.20000001857E+02 0.  0.
         12    1    1    2    0    0  0.33549900139E+02 -0.19032453285E+00 -0.27531640267E+02  0.43400728548E+02  0.00000000000E+00 0. -1.
         11    1    3    3    0    0 -0.17082205523E+02 -0.26889823495E+01  0.11717289521E+02  0.20888447659E+02  0.51100000000E-03 0. -1.
        -11    1    3    3    0    0 -0.10202540075E+02 -0.52168865404E+01  0.93694005666E+01  0.14801803823E+02  0.51100000000E-03 0.  1.
        -12    1    3    3    0    0 -0.62651545403E+01  0.80961934228E+01  0.64449501792E+01  0.12097019970E+02  0.00000000000E+00 0.  1.
</event>
<event>
 7    1  0.2414091E-009  0.4778727E+02  0.7816164E-02  0.1312668E+00
        -11   -1    0    0    0    0  0.00000000000E+00  0.00000000000E+00  0.45593999997E+02  0.45594000000E+02  0.51100000000E-03 0.  1.
         11   -1    0    0    0    0 -0.00000000000E+00 -0.00000000000E+00 -0.45593999997E+02  0.45594000000E+02  0.51100000000E-03 0. -1.
    9900012    2    1    2    0    0  0.13313271124E+02 -0.25055181884E+01  0.41232295914E+02  0.47787273788E+02  0.20000012507E+02 0.  0.
         12    1    1    2    0    0 -0.13313271124E+02  0.25055181884E+01 -0.41232295914E+02  0.43400726212E+02  0.00000000000E+00 0. -1.
         11    1    3    3    0    0  0.61365647856E+00 -0.31707258276E+01 -0.85020095793E-01  0.32306818515E+01  0.51100000000E-03 0. -1.
        -11    1    3    3    0    0  0.48563439537E+01  0.32779289638E+01  0.64125096561E+01  0.86861484698E+01  0.51100000000E-03 0.  1.
         12    1    3    3    0    0  0.78432706921E+01 -0.26127213245E+01  0.34904806354E+02  0.35870443466E+02  0.00000000000E+00 0. -1.
</event>
<event>
 7    1  0.2414091E-009  0.4778727E+02  0.7816164E-02  0.1312668E+00
        -11   -1    0    0    0    0  0.00000000000E+00  0.00000000000E+00  0.45593999997E+02  0.45594000000E+02  0.51100000000E-03 0.  1.
         11   -1    0    0    0    0 -0.00000000000E+00 -0.00000000000E+00 -0.45593999997E+02  0.45594000000E+02  0.51100000000E-03 0. -1.
    9900012    2    1    2    0    0  0.16803792691E+02  0.22259349167E+02  0.33253228673E+02  0.47787270843E+02  0.19999999082E+02 0.  0.
         12    1    1    2    0    0 -0.16803792691E+02 -0.22259349167E+02 -0.33253228673E+02  0.43400729157E+02  0.00000000000E+00 0. -1.
         11    1    3    3    0    0  0.15875964614E+02  0.13709232189E+02  0.17395851584E+02  0.27250778929E+02  0.51100000000E-03 0. -1.
        -11    1    3    3    0    0  0.17951942872E+01  0.82319416419E+01  0.53324401452E+01  0.99710833859E+01  0.51100000000E-03 0.  1.
        -12    1    3    3    0    0 -0.86736621005E+00  0.31817533608E+00  0.10524936945E+02  0.10565408528E+02  0.00000000000E+00 0.  1.
</event>
<event>
 7    1  0.2414091E-009  0.4778727E+02  0.7816164E-02  0.1312668E+00
        -11   -1    0    0    0    0  0.00000000000E+00  0.00000000000E+00  0.45593999997E+02  0.45594000000E+02  0.51100000000E-03 0.  1.
         11   -1    0    0    0    0 -0.00000000000E+00 -0.00000000000E+00 -0.45593999997E+02  0.45594000000E+02  0.51100000000E-03 0. -1.
    9900012    2    1    2    0    0 -0.38359509505E+02 -0.11882332211E+02  0.16461515856E+02  0.47787270830E+02  0.19999999021E+02 0.  0.
         12    1    1    2    0    0  0.38359509505E+02  0.11882332211E+02 -0.16461515856E+02  0.43400729170E+02  0.00000000000E+00 0. -1.
         11    1    3    3    0    0 -0.22345945763E+01 -0.59491646233E+01  0.46155803708E+01  0.78542698614E+01  0.51100000000E-03 0. -1.
        -11    1    3    3    0    0 -0.12577346535E+02 -0.51700036386E+00  0.92713978292E+01  0.15633801624E+02  0.51100000000E-03 0.  1.
        -12    1    3    3    0    0 -0.23547568393E+02 -0.54161672236E+01  0.25745376555E+01  0.24299199344E+02  0.00000000000E+00 0.  1.
</event>
<event>
 7    1  0.2414091E-009  0.4778727E+02  0.7816164E-02  0.1312668E+00
        -11   -1    0    0    0    0  0.00000000000E+00  0.00000000000E+00  0.45593999997E+02  0.45594000000E+02  0.51100000000E-03 0.  1.
         11   -1    0    0    0    0 -0.00000000000E+00 -0.00000000000E+00 -0.45593999997E+02  0.45594000000E+02  0.51100000000E-03 0. -1.
    9900012    2    1    2    0    0 -0.88522520103E+01  0.41213011684E+02 -0.10331917286E+02  0.47787271752E+02  0.20000003225E+02 0.  0.
         12    1    1    2    0    0  0.88522520103E+01 -0.41213011684E+02  0.10331917286E+02  0.43400728248E+02  0.00000000000E+00 0. -1.
         11    1    3    3    0    0 -0.25464523254E+01  0.12857569374E+02 -0.45500207527E+01  0.13874588238E+02  0.51100000000E-03 0. -1.
        -11    1    3    3    0    0 -0.83453103057E+01  0.29414839245E+02 -0.36767610024E+01  0.30796031297E+02  0.51100000000E-03 0.  1.
         12    1    3    3    0    0  0.20395106207E+01 -0.10593969356E+01 -0.21051355308E+01  0.31166522171E+01  0.00000000000E+00 0. -1.
</event>
<event>
 7    1  0.2414091E-009  0.4778727E+02  0.7816164E-02  0.1312668E+00
        -11   -1    0    0    0    0  0.00000000000E+00  0.00000000000E+00  0.45593999997E+02  0.45594000000E+02  0.51100000000E-03 0.  1.
         11   -1    0    0    0    0 -0.00000000000E+00 -0.00000000000E+00 -0.45593999997E+02  0.45594000000E+02  0.51100000000E-03 0. -1.
    9900012    2    1    2    0    0 -0.28705173382E+02  0.25067680908E+02  0.20766505522E+02  0.47787270092E+02  0.19999995656E+02 0.  0.
         12    1    1    2    0    0  0.28705173382E+02 -0.25067680908E+02 -0.20766505522E+02  0.43400729908E+02  0.00000000000E+00 0. -1.
         11    1    3    3    0    0 -0.54386961290E+01  0.45197601638E+01  0.55830919280E+01  0.90099147199E+01  0.51100000000E-03 0. -1.
        -11    1    3    3    0    0 -0.21182789391E+02  0.22947677966E+02  0.10174958795E+02  0.32845643199E+02  0.51100000000E-03 0.  1.
         12    1    3    3    0    0 -0.20836878616E+01 -0.23997572218E+01  0.50084547991E+01  0.59317121730E+01  0.00000000000E+00 0. -1.
</event>
<event>
 7    1  0.2414091E-009  0.4778727E+02  0.7816164E-02  0.1312668E+00
        -11   -1    0    0    0    0  0.00000000000E+00  0.00000000000E+00  0.45593999997E+02  0.45594000000E+02  0.51100000000E-03 0.  1.
         11   -1    0    0    0    0 -0.00000000000E+00 -0.00000000000E+00 -0.45593999997E+02  0.45594000000E+02  0.51100000000E-03 0. -1.
    9900012    2    1    2    0    0 -0.17047108963E+02 -0.20681141466E+02  0.34136638003E+02  0.47787267397E+02  0.19999983370E+02 0.  0.
         12    1    1    2    0    0  0.17047108963E+02  0.20681141466E+02 -0.34136638003E+02  0.43400732603E+02  0.00000000000E+00 0. -1.
         11    1    3    3    0    0 -0.38243798924E+01 -0.70051675414E+00  0.14781042715E+01  0.41594948951E+01  0.51100000000E-03 0. -1.
        -11    1    3    3    0    0 -0.37508090873E+01  0.24297999483E+01  0.66615591618E+01  0.80217745746E+01  0.51100000000E-03 0.  1.
        -12    1    3    3    0    0 -0.94719199838E+01 -0.22410424660E+02  0.25996974569E+02  0.35605997927E+02  0.00000000000E+00 0.  1.
</event>
<event>
 7    1  0.2414091E-009  0.4778727E+02  0.7816164E-02  0.1312668E+00
        -11   -1    0    0    0    0  0.00000000000E+00  0.00000000000E+00  0.45593999997E+02  0.45594000000E+02  0.51100000000E-03 0.  1.
         11   -1    0    0    0    0 -0.00000000000E+00 -0.00000000000E+00 -0.45593999997E+02  0.45594000000E+02  0.51100000000E-03 0. -1.
    9900012    2    1    2    0    0 -0.33875999420E+02 -0.15573105036E+02  0.22215267509E+02  0.47787273650E+02  0.20000011881E+02 0.  0.
         12    1    1    2    0    0  0.33875999420E+02  0.15573105036E+02 -0.22215267509E+02  0.43400726350E+02  0.00000000000E+00 0. -1.
         11    1    3    3    0    0 -0.71863339249E+01 -0.76438553499E+01  0.10820220304E+02  0.15071466006E+02  0.51100000000E-03 0. -1.
        -11    1    3    3    0    0 -0.23845772681E+02 -0.10876740247E+02  0.11494044789E+02  0.28618829798E+02  0.51100000000E-03 0.  1.
         12    1    3    3    0    0 -0.28438928146E+01  0.29474905608E+01 -0.98997584178E-01  0.40969778457E+01  0.00000000000E+00 0. -1.
</event>
<event>
 7    1  0.2414091E-009  0.4778727E+02  0.7816164E-02  0.1312668E+00
        -11   -1    0    0    0    0  0.00000000000E+00  0.00000000000E+00  0.45593999997E+02  0.45594000000E+02  0.51100000000E-03 0.  1.
         11   -1    0    0    0    0 -0.00000000000E+00 -0.00000000000E+00 -0.45593999997E+02  0.45594000000E+02  0.51100000000E-03 0. -1.
    9900012    2    1    2    0    0  0.10653538928E+02 -0.41977765868E+02  0.28271383934E+01  0.47787269240E+02  0.19999991774E+02 0.  0.
         12    1    1    2    0    0 -0.10653538928E+02  0.41977765868E+02 -0.28271383934E+01  0.43400730760E+02  0.00000000000E+00 0. -1.
         11    1    3    3    0    0 -0.29931269160E+01 -0.59286629591E+01  0.88599050788E+00  0.67002113891E+01  0.51100000000E-03 0. -1.
        -11    1    3    3    0    0  0.45046299868E+01 -0.14626362914E+02  0.76441577148E+01  0.17107171912E+02  0.51100000000E-03 0.  1.
         12    1    3    3    0    0  0.91420358575E+01 -0.21422739995E+02 -0.57030098293E+01  0.23979885939E+02  0.00000000000E+00 0. -1.
</event>
<event>
 7    1  0.2414091E-009  0.4778727E+02  0.7816164E-02  0.1312668E+00
        -11   -1    0    0    0    0  0.00000000000E+00  0.00000000000E+00  0.45593999997E+02  0.45594000000E+02  0.51100000000E-03 0. -1.
         11   -1    0    0    0    0 -0.00000000000E+00 -0.00000000000E+00 -0.45593999997E+02  0.45594000000E+02  0.51100000000E-03 0.  1.
    9900012    2    1    2    0    0 -0.23016250659E+02  0.35616718893E+02 -0.92371506052E+01  0.47787269471E+02  0.19999992828E+02 0.  0.
         12    1    1    2    0    0  0.23016250659E+02 -0.35616718893E+02  0.92371506052E+01  0.43400730529E+02  0.00000000000E+00 0. -1.
         11    1    3    3    0    0 -0.26786100218E+01  0.42676371332E+01  0.38233413807E+01  0.63249994407E+01  0.51100000000E-03 0. -1.
        -11    1    3    3    0    0  0.58556311895E+00  0.58352335541E+01 -0.44486715985E+01  0.73609451873E+01  0.51100000000E-03 0.  1.
        -12    1    3    3    0    0 -0.20923203756E+02  0.25513848206E+02 -0.86118203874E+01  0.34101324843E+02  0.00000000000E+00 0.  1.
</event>
<event>
 7    1  0.2414091E-009  0.4778727E+02  0.7816164E-02  0.1312668E+00
        -11   -1    0    0    0    0  0.00000000000E+00  0.00000000000E+00  0.45593999997E+02  0.45594000000E+02  0.51100000000E-03 0.  1.
         11   -1    0    0    0    0 -0.00000000000E+00 -0.00000000000E+00 -0.45593999997E+02  0.45594000000E+02  0.51100000000E-03 0. -1.
    9900012    2    1    2    0    0  0.28263867088E+02 -0.31886680902E+01  0.32781238158E+02  0.47787270028E+02  0.19999995364E+02 0.  0.
         12    1    1    2    0    0 -0.28263867088E+02  0.31886680902E+01 -0.32781238158E+02  0.43400729972E+02  0.00000000000E+00 0. -1.
         11    1    3    3    0    0  0.11962367719E+02  0.23512399907E+01  0.64718198347E+01  0.13802573064E+02  0.51100000000E-03 0. -1.
        -11    1    3    3    0    0  0.44147468761E+01  0.39717702450E+01  0.10322150895E+02  0.11908473799E+02  0.51100000000E-03 0.  1.
        -12    1    3    3    0    0  0.11886752493E+02 -0.95116783259E+01  0.15987267428E+02  0.22076223165E+02  0.00000000000E+00 0.  1.
</event>
<event>
 7    1  0.2414091E-009  0.4778727E+02  0.7816164E-02  0.1312668E+00
        -11   -1    0    0    0    0  0.00000000000E+00  0.00000000000E+00  0.45593999997E+02  0.45594000000E+02  0.51100000000E-03 0.  1.
         11   -1    0    0    0    0 -0.00000000000E+00 -0.00000000000E+00 -0.45593999997E+02  0.45594000000E+02  0.51100000000E-03 0. -1.
    9900012    2    1    2    0    0  0.22112177197E+01 -0.16105879685E+02  0.40240956385E+02  0.47787269419E+02  0.19999992587E+02 0.  0.
         12    1    1    2    0    0 -0.22112177197E+01  0.16105879685E+02 -0.40240956385E+02  0.43400730581E+02  0.00000000000E+00 0. -1.
         11    1    3    3    0    0 -0.27469274105E+00  0.14092422298E+01  0.18876168373E+00  0.14481198150E+01  0.51100000000E-03 0. -1.
        -11    1    3    3    0    0  0.20351398095E+01 -0.40588877175E+01  0.27693283287E+02  0.28063041585E+02  0.51100000000E-03 0.  1.
         12    1    3    3    0    0  0.45077065128E+00 -0.13456234198E+02  0.12358911414E+02  0.18276108019E+02  0.00000000000E+00 0. -1.
</event>
<event>
 7    1  0.2414091E-009  0.4778727E+02  0.7816164E-02  0.1312668E+00
        -11   -1    0    0    0    0  0.00000000000E+00  0.00000000000E+00  0.45593999997E+02  0.45594000000E+02  0.51100000000E-03 0.  1.
         11   -1    0    0    0    0 -0.00000000000E+00 -0.00000000000E+00 -0.45593999997E+02  0.45594000000E+02  0.51100000000E-03 0. -1.
    9900012    2    1    2    0    0  0.10910387663E+02 -0.14649467001E+02  0.39369783303E+02  0.47787270977E+02  0.19999999693E+02 0.  0.
         12    1    1    2    0    0 -0.10910387663E+02  0.14649467001E+02 -0.39369783303E+02  0.43400729023E+02  0.00000000000E+00 0. -1.
         11    1    3    3    0    0  0.75477176429E+01 -0.33290777382E+01  0.13849046557E+02  0.16119767089E+02  0.51100000000E-03 0. -1.
        -11    1    3    3    0    0  0.71332753226E+01 -0.54823586255E+01  0.56675120396E+01  0.10632994212E+02  0.51100000000E-03 0.  1.
         12    1    3    3    0    0 -0.37706053023E+01 -0.58380306372E+01  0.19853224707E+02  0.21034509676E+02  0.00000000000E+00 0. -1.
</event>
<event>
 7    1  0.2414091E-009  0.4778727E+02  0.7816164E-02  0.1312668E+00
        -11   -1    0    0    0    0  0.00000000000E+00  0.00000000000E+00  0.45593999997E+02  0.45594000000E+02  0.51100000000E-03 0.  1.
         11   -1    0    0    0    0 -0.00000000000E+00 -0.00000000000E+00 -0.45593999997E+02  0.45594000000E+02  0.51100000000E-03 0. -1.
    9900012    2    1    2    0    0  0.13383865247E+02  0.29293545132E+02  0.29092670383E+02  0.47787272986E+02  0.20000008852E+02 0.  0.
         12    1    1    2    0    0 -0.13383865247E+02 -0.29293545132E+02 -0.29092670383E+02  0.43400727014E+02  0.00000000000E+00 0. -1.
         11    1    3    3    0    0  0.19113700427E+01 -0.13662376702E+01  0.70201052729E+00  0.24520929536E+01  0.51100000000E-03 0. -1.
        -11    1    3    3    0    0 -0.26047118082E+01  0.93494237556E+01  0.63371069330E+01  0.11591167875E+02  0.51100000000E-03 0.  1.
        -12    1    3    3    0    0  0.14077207013E+02  0.21310359046E+02  0.22053552922E+02  0.33744012157E+02  0.00000000000E+00 0.  1.
</event>
<event>
 7    1  0.2414091E-009  0.4778727E+02  0.7816164E-02  0.1312668E+00
        -11   -1    0    0    0    0  0.00000000000E+00  0.00000000000E+00  0.45593999997E+02  0.45594000000E+02  0.51100000000E-03 0.  1.
         11   -1    0    0    0    0 -0.00000000000E+00 -0.00000000000E+00 -0.45593999997E+02  0.45594000000E+02  0.51100000000E-03 0. -1.
    9900012    2    1    2    0    0  0.41420821017E+02  0.11016939118E+01  0.12912198045E+02  0.47787274181E+02  0.20000014303E+02 0.  0.
         12    1    1    2    0    0 -0.41420821017E+02 -0.11016939118E+01 -0.12912198045E+02  0.43400725819E+02  0.00000000000E+00 0. -1.
         11    1    3    3    0    0  0.30195216710E+02  0.65262503479E+01  0.63938207673E+01  0.31547171030E+02  0.51100000000E-03 0. -1.
        -11    1    3    3    0    0  0.10421455223E+02 -0.12886397552E+01  0.56995952785E+01  0.11947916470E+02  0.51100000000E-03 0.  1.
         12    1    3    3    0    0  0.80414908469E+00 -0.41359166809E+01  0.81878199950E+00  0.42921866810E+01  0.00000000000E+00 0. -1.
</event>
<event>
 7    1  0.2414091E-009  0.4778727E+02  0.7816164E-02  0.1312668E+00
        -11   -1    0    0    0    0  0.00000000000E+00  0.00000000000E+00  0.45593999997E+02  0.45594000000E+02  0.51100000000E-03 0.  1.
         11   -1    0    0    0    0 -0.00000000000E+00 -0.00000000000E+00 -0.45593999997E+02  0.45594000000E+02  0.51100000000E-03 0. -1.
    9900012    2    1    2    0    0  0.33330545251E+02 -0.27772348095E+02  0.11809779605E+01  0.47787271039E+02  0.19999999973E+02 0.  0.
         12    1    1    2    0    0 -0.33330545251E+02  0.27772348095E+02 -0.11809779605E+01  0.43400728961E+02  0.00000000000E+00 0. -1.
         11    1    3    3    0    0  0.25887463408E+02 -0.13206480041E+02 -0.54070910422E+01  0.29560252208E+02  0.51100000000E-03 0. -1.
        -11    1    3    3    0    0  0.50795173594E+01 -0.62152026349E+01  0.48427059846E+01  0.93745422241E+01  0.51100000000E-03 0.  1.
        -12    1    3    3    0    0  0.23635644834E+01 -0.83506654189E+01  0.17453630182E+01  0.88524766066E+01  0.00000000000E+00 0.  1.
</event>
<event>
 7    1  0.2414091E-009  0.4778727E+02  0.7816164E-02  0.1312668E+00
        -11   -1    0    0    0    0  0.00000000000E+00  0.00000000000E+00  0.45593999997E+02  0.45594000000E+02  0.51100000000E-03 0.  1.
         11   -1    0    0    0    0 -0.00000000000E+00 -0.00000000000E+00 -0.45593999997E+02  0.45594000000E+02  0.51100000000E-03 0. -1.
    9900012    2    1    2    0    0  0.28907675101E+02  0.16031166482E+02  0.28124217902E+02  0.47787267159E+02  0.19999982286E+02 0.  0.
         12    1    1    2    0    0 -0.28907675101E+02 -0.16031166482E+02 -0.28124217902E+02  0.43400732841E+02  0.00000000000E+00 0. -1.
         11    1    3    3    0    0  0.14272702972E+02  0.17253110094E+02  0.16771680706E+02  0.27976224406E+02  0.51100000000E-03 0.  1.
        -11    1    3    3    0    0  0.18494185726E+00  0.45076722643E+00  0.29954195425E+01  0.30347871556E+01  0.51100000000E-03 0. -1.
        -12    1    3    3    0    0  0.14450030272E+02 -0.16727108387E+01  0.83571176531E+01  0.16776255598E+02  0.00000000000E+00 0.  1.
</event>
<event>
 7    1  0.2414091E-009  0.4778727E+02  0.7816164E-02  0.1312668E+00
        -11   -1    0    0    0    0  0.00000000000E+00  0.00000000000E+00  0.45593999997E+02  0.45594000000E+02  0.51100000000E-03 0.  1.
         11   -1    0    0    0    0 -0.00000000000E+00 -0.00000000000E+00 -0.45593999997E+02  0.45594000000E+02  0.51100000000E-03 0. -1.
    9900012    2    1    2    0    0  0.20907584911E+02 -0.28921284280E+02  0.24699305094E+02  0.47787268862E+02  0.19999990048E+02 0.  0.
         12    1    1    2    0    0 -0.20907584911E+02  0.28921284280E+02 -0.24699305094E+02  0.43400731138E+02  0.00000000000E+00 0. -1.
         11    1    3    3    0    0  0.26175268290E+01 -0.14980567551E+01  0.75500811325E+01  0.81301504359E+01  0.51100000000E-03 0. -1.
        -11    1    3    3    0    0  0.15124131434E+02 -0.19106713846E+02  0.18580815140E+02  0.30643964449E+02  0.51100000000E-03 0.  1.
         12    1    3    3    0    0  0.31659266480E+01 -0.83165136788E+01 -0.14315911784E+01  0.90131539770E+01  0.00000000000E+00 0. -1.
</event>
<event>
 7    1  0.2414091E-009  0.4778727E+02  0.7816164E-02  0.1312668E+00
        -11   -1    0    0    0    0  0.00000000000E+00  0.00000000000E+00  0.45593999997E+02  0.45594000000E+02  0.51100000000E-03 0.  1.
         11   -1    0    0    0    0 -0.00000000000E+00 -0.00000000000E+00 -0.45593999997E+02  0.45594000000E+02  0.51100000000E-03 0. -1.
    9900012    2    1    2    0    0 -0.83260066101E+01 -0.40892080243E+02 -0.11922196033E+02  0.47787269927E+02  0.19999994903E+02 0.  0.
         12    1    1    2    0    0  0.83260066101E+01  0.40892080243E+02  0.11922196033E+02  0.43400730073E+02  0.00000000000E+00 0. -1.
         11    1    3    3    0    0 -0.33422293286E+01 -0.17613990619E+02 -0.72863630744E+01  0.19352370644E+02  0.51100000000E-03 0. -1.
        -11    1    3    3    0    0  0.88038056159E-01 -0.19768121036E+02 -0.80969042224E+01  0.21362261543E+02  0.51100000000E-03 0.  1.
         12    1    3    3    0    0 -0.50718153376E+01 -0.35099685881E+01  0.34610712640E+01  0.70726377401E+01  0.00000000000E+00 0. -1.
</event>
<event>
 7    1  0.2414091E-009  0.4778727E+02  0.7816164E-02  0.1312668E+00
        -11   -1    0    0    0    0  0.00000000000E+00  0.00000000000E+00  0.45593999997E+02  0.45594000000E+02  0.51100000000E-03 0.  1.
         11   -1    0    0    0    0 -0.00000000000E+00 -0.00000000000E+00 -0.45593999997E+02  0.45594000000E+02  0.51100000000E-03 0. -1.
    9900012    2    1    2    0    0  0.19231505355E+02  0.33178191910E+02  0.20321915915E+02  0.47787268634E+02  0.19999989011E+02 0.  0.
         12    1    1    2    0    0 -0.19231505355E+02 -0.33178191910E+02 -0.20321915915E+02  0.43400731366E+02  0.00000000000E+00 0. -1.
         11    1    3    3    0    0  0.21462255742E+01  0.41410897575E+00  0.31515648070E+01  0.38353789190E+01  0.51100000000E-03 0. -1.
        -11    1    3    3    0    0  0.10206487420E+02  0.61802835139E+01  0.10009248832E+02  0.15574124444E+02  0.51100000000E-03 0.  1.
         12    1    3    3    0    0  0.68787923615E+01  0.26583799420E+02  0.71611022758E+01  0.28377765271E+02  0.00000000000E+00 0. -1.
</event>
<event>
 7    1  0.2414091E-009  0.4778725E+02  0.7816164E-02  0.1312668E+00
        -11   -1    0    0    0    0  0.00000000000E+00  0.00000000000E+00  0.45593999997E+02  0.45594000000E+02  0.51100000000E-03 0.  1.
         11   -1    0    0    0    0 -0.00000000000E+00 -0.00000000000E+00 -0.45593999997E+02  0.45594000000E+02  0.51100000000E-03 0. -1.
    9900012    2    1    2    0    0 -0.98617121557E+01  0.32937614167E+02  0.26485566581E+02  0.47787250804E+02  0.19999907714E+02 0.  0.
         12    1    1    2    0    0  0.98617121557E+01 -0.32937614167E+02 -0.26485566581E+02  0.43400749196E+02  0.00000000000E+00 0. -1.
         11    1    3    3    0    0 -0.93825935920E+00 -0.83364660012E+00  0.18326160397E+00  0.12684172640E+01  0.51100000000E-03 0. -1.
        -11    1    3    3    0    0 -0.41988275361E-01  0.22299846306E+02  0.92820978652E+01  0.24154549247E+02  0.51100000000E-03 0.  1.
         12    1    3    3    0    0 -0.88814645212E+01  0.11471414461E+02  0.17020207112E+02  0.22364284292E+02  0.00000000000E+00 0. -1.
</event>
<event>
 7    1  0.2414091E-009  0.4778727E+02  0.7816164E-02  0.1312668E+00
        -11   -1    0    0    0    0  0.00000000000E+00  0.00000000000E+00  0.45593999997E+02  0.45594000000E+02  0.51100000000E-03 0.  1.
         11   -1    0    0    0    0 -0.00000000000E+00 -0.00000000000E+00 -0.45593999997E+02  0.45594000000E+02  0.51100000000E-03 0. -1.
    9900012    2    1    2    0    0  0.30027332333E+01  0.15795198648E+02  0.40312758376E+02  0.47787271952E+02  0.20000004140E+02 0.  0.
         12    1    1    2    0    0 -0.30027332333E+01 -0.15795198648E+02 -0.40312758376E+02  0.43400728048E+02  0.00000000000E+00 0. -1.
         11    1    3    3    0    0 -0.81919346822E+00  0.40870729744E+00 -0.14224114184E+01  0.16915596642E+01  0.51100000000E-03 0. -1.
        -11    1    3    3    0    0 -0.19125355459E+01  0.13611112261E+01  0.16460286808E+02  0.16626829465E+02  0.51100000000E-03 0.  1.
         12    1    3    3    0    0  0.57344622474E+01  0.14025380124E+02  0.25274882986E+02  0.29468882824E+02  0.00000000000E+00 0. -1.
</event>
<event>
 7    1  0.2414091E-009  0.4778729E+02  0.7816164E-02  0.1312668E+00
        -11   -1    0    0    0    0  0.00000000000E+00  0.00000000000E+00  0.45593999997E+02  0.45594000000E+02  0.51100000000E-03 0.  1.
         11   -1    0    0    0    0 -0.00000000000E+00 -0.00000000000E+00 -0.45593999997E+02  0.45594000000E+02  0.51100000000E-03 0. -1.
    9900012    2    1    2    0    0 -0.10501817444E+02  0.21065419640E+02  0.36463426216E+02  0.47787291185E+02  0.20000091827E+02 0.  0.
         12    1    1    2    0    0  0.10501817444E+02 -0.21065419640E+02 -0.36463426216E+02  0.43400708815E+02  0.00000000000E+00 0. -1.
         11    1    3    3    0    0  0.17141763596E+01  0.40040457208E+01  0.44565853519E+00  0.43782867102E+01  0.51100000000E-03 0. -1.
        -11    1    3    3    0    0 -0.12921093440E+01  0.69932943110E+01  0.41137186392E+01  0.82157405741E+01  0.51100000000E-03 0.  1.
        -12    1    3    3    0    0 -0.10923884459E+02  0.10068079608E+02  0.31904049042E+02  0.35193263900E+02  0.00000000000E+00 0.  1.
</event>
<event>
 7    1  0.2414091E-009  0.4778727E+02  0.7816164E-02  0.1312668E+00
        -11   -1    0    0    0    0  0.00000000000E+00  0.00000000000E+00  0.45593999997E+02  0.45594000000E+02  0.51100000000E-03 0. -1.
         11   -1    0    0    0    0 -0.00000000000E+00 -0.00000000000E+00 -0.45593999997E+02  0.45594000000E+02  0.51100000000E-03 0.  1.
    9900012    2    1    2    0    0 -0.37750573512E+02 -0.54585034438E+01 -0.20705600814E+02  0.47787274598E+02  0.20000016203E+02 0.  0.
         12    1    1    2    0    0  0.37750573512E+02  0.54585034438E+01  0.20705600814E+02  0.43400725402E+02  0.00000000000E+00 0. -1.
         11    1    3    3    0    0 -0.13892722114E+01 -0.21842722250E+00 -0.59944710895E+01  0.61572292172E+01  0.51100000000E-03 0. -1.
        -11    1    3    3    0    0 -0.65150466110E+00  0.23214096625E+01 -0.13260819035E+01  0.27517075826E+01  0.51100000000E-03 0.  1.
        -12    1    3    3    0    0 -0.35709796639E+02 -0.75614858838E+01 -0.13385047821E+02  0.38878337798E+02  0.00000000000E+00 0.  1.
</event>
<event>
 7    1  0.2414091E-009  0.4778726E+02  0.7816164E-02  0.1312668E+00
        -11   -1    0    0    0    0  0.00000000000E+00  0.00000000000E+00  0.45593999997E+02  0.45594000000E+02  0.51100000000E-03 0. -1.
         11   -1    0    0    0    0 -0.00000000000E+00 -0.00000000000E+00 -0.45593999997E+02  0.45594000000E+02  0.51100000000E-03 0.  1.
    9900012    2    1    2    0    0 -0.39403080735E+02 -0.17434884049E+02 -0.52005818064E+01  0.47787262630E+02  0.19999961633E+02 0.  0.
         12    1    1    2    0    0  0.39403080735E+02  0.17434884049E+02  0.52005818064E+01  0.43400737370E+02  0.00000000000E+00 0. -1.
         11    1    3    3    0    0 -0.17320941150E+02 -0.28013341521E+01  0.33958029363E+01  0.17871596269E+02  0.51100000000E-03 0. -1.
        -11    1    3    3    0    0 -0.20780324061E+01 -0.20702156346E+01  0.24655187727E+01  0.38318134786E+01  0.51100000000E-03 0.  1.
        -12    1    3    3    0    0 -0.20004107178E+02 -0.12563334262E+02 -0.11061903515E+02  0.26083852882E+02  0.00000000000E+00 0.  1.
</event>
<event>
 7    1  0.2414091E-009  0.4778727E+02  0.7816164E-02  0.1312668E+00
        -11   -1    0    0    0    0  0.00000000000E+00  0.00000000000E+00  0.45593999997E+02  0.45594000000E+02  0.51100000000E-03 0.  1.
         11   -1    0    0    0    0 -0.00000000000E+00 -0.00000000000E+00 -0.45593999997E+02  0.45594000000E+02  0.51100000000E-03 0. -1.
    9900012    2    1    2    0    0  0.21477232356E+02 -0.93814248323E+01  0.36528625657E+02  0.47787272657E+02  0.20000007352E+02 0.  0.
         12    1    1    2    0    0 -0.21477232356E+02  0.93814248323E+01 -0.36528625657E+02  0.43400727343E+02  0.00000000000E+00 0. -1.
         11    1    3    3    0    0  0.73896055469E+00 -0.39844353897E+01  0.44014463981E+01  0.59828520567E+01  0.51100000000E-03 0. -1.
        -11    1    3    3    0    0 -0.16647019067E+01 -0.38526613783E+01  0.64223928542E+01  0.76721158990E+01  0.51100000000E-03 0.  1.
        -12    1    3    3    0    0  0.22402973708E+02 -0.15443280642E+01  0.25704786405E+02  0.34132304701E+02  0.00000000000E+00 0.  1.
</event>
<event>
 7    1  0.2414091E-009  0.4778727E+02  0.7816164E-02  0.1312668E+00
        -11   -1    0    0    0    0  0.00000000000E+00  0.00000000000E+00  0.45593999997E+02  0.45594000000E+02  0.51100000000E-03 0.  1.
         11   -1    0    0    0    0 -0.00000000000E+00 -0.00000000000E+00 -0.45593999997E+02  0.45594000000E+02  0.51100000000E-03 0. -1.
    9900012    2    1    2    0    0 -0.23669029126E+02 -0.32060675823E+02  0.17190502582E+02  0.47787271284E+02  0.20000001093E+02 0.  0.
         12    1    1    2    0    0  0.23669029126E+02  0.32060675823E+02 -0.17190502582E+02  0.43400728716E+02  0.00000000000E+00 0. -1.
         11    1    3    3    0    0 -0.14796198441E+01 -0.65602418672E+01  0.80407751838E+01  0.10482371585E+02  0.51100000000E-03 0. -1.
        -11    1    3    3    0    0 -0.17232176656E+02 -0.10088727781E+02  0.54392451663E+01  0.20695790122E+02  0.51100000000E-03 0.  1.
         12    1    3    3    0    0 -0.49572326267E+01 -0.15411706175E+02  0.37104822321E+01  0.16609109577E+02  0.00000000000E+00 0. -1.
</event>
<event>
 7    1  0.2414091E-009  0.4778727E+02  0.7816164E-02  0.1312668E+00
        -11   -1    0    0    0    0  0.00000000000E+00  0.00000000000E+00  0.45593999997E+02  0.45594000000E+02  0.51100000000E-03 0.  1.
         11   -1    0    0    0    0 -0.00000000000E+00 -0.00000000000E+00 -0.45593999997E+02  0.45594000000E+02  0.51100000000E-03 0. -1.
    9900012    2    1    2    0    0 -0.20858792228E+01  0.13637097799E+02  0.41149751690E+02  0.47787269676E+02  0.19999993760E+02 0.  0.
         12    1    1    2    0    0  0.20858792228E+01 -0.13637097799E+02 -0.41149751690E+02  0.43400730324E+02  0.00000000000E+00 0. -1.
         11    1    3    3    0    0 -0.30427005021E+01  0.62135295781E+01  0.14693257798E+02  0.16240621944E+02  0.51100000000E-03 0. -1.
        -11    1    3    3    0    0 -0.33071585296E+01 -0.33528649732E+01  0.12780195142E+02  0.13620293286E+02  0.51100000000E-03 0.  1.
         12    1    3    3    0    0  0.42639798089E+01  0.10776433194E+02  0.13676298750E+02  0.17926354445E+02  0.00000000000E+00 0. -1.
</event>
<event>
 7    1  0.2414091E-009  0.4778728E+02  0.7816164E-02  0.1312668E+00
        -11   -1    0    0    0    0  0.00000000000E+00  0.00000000000E+00  0.45593999997E+02  0.45594000000E+02  0.51100000000E-03 0. -1.
         11   -1    0    0    0    0 -0.00000000000E+00 -0.00000000000E+00 -0.45593999997E+02  0.45594000000E+02  0.51100000000E-03 0.  1.
    9900012    2    1    2    0    0  0.95971168504E+01 -0.87585177591E+01 -0.41410216434E+02  0.47787282146E+02  0.20000050616E+02 0.  0.
         12    1    1    2    0    0 -0.95971168504E+01  0.87585177591E+01  0.41410216434E+02  0.43400717854E+02  0.00000000000E+00 0. -1.
         11    1    3    3    0    0  0.53498566011E+01 -0.45983766004E+01 -0.16791128973E+02  0.18212853852E+02  0.51100000000E-03 0.  1.
        -11    1    3    3    0    0  0.26981330890E+01  0.52369441205E+01 -0.14635689053E+02  0.15776846967E+02  0.51100000000E-03 0. -1.
         12    1    3    3    0    0  0.15491271602E+01 -0.93970852792E+01 -0.99833984078E+01  0.13797581327E+02  0.00000000000E+00 0. -1.
</event>
<event>
 7    1  0.2414091E-009  0.4778727E+02  0.7816164E-02  0.1312668E+00
        -11   -1    0    0    0    0  0.00000000000E+00  0.00000000000E+00  0.45593999997E+02  0.45594000000E+02  0.51100000000E-03 0. -1.
         11   -1    0    0    0    0 -0.00000000000E+00 -0.00000000000E+00 -0.45593999997E+02  0.45594000000E+02  0.51100000000E-03 0.  1.
    9900012    2    1    2    0    0 -0.38621634286E+02 -0.15348066620E+02  0.12507173882E+02  0.47787272098E+02  0.20000004803E+02 0.  0.
         12    1    1    2    0    0  0.38621634286E+02  0.15348066620E+02 -0.12507173882E+02  0.43400727902E+02  0.00000000000E+00 0. -1.
         11    1    3    3    0    0 -0.96253406601E+00 -0.17223064407E+01  0.47465142694E+01  0.51402538142E+01  0.51100000000E-03 0. -1.
        -11    1    3    3    0    0 -0.17309183313E+02 -0.79026497825E+01  0.98112561075E+01  0.21408420008E+02  0.51100000000E-03 0.  1.
         12    1    3    3    0    0 -0.20349916907E+02 -0.57231103968E+01 -0.20505964950E+01  0.21238598276E+02  0.00000000000E+00 0. -1.
</event>
<event>
 7    1  0.2414091E-009  0.4778727E+02  0.7816164E-02  0.1312668E+00
        -11   -1    0    0    0    0  0.00000000000E+00  0.00000000000E+00  0.45593999997E+02  0.45594000000E+02  0.51100000000E-03 0.  1.
         11   -1    0    0    0    0 -0.00000000000E+00 -0.00000000000E+00 -0.45593999997E+02  0.45594000000E+02  0.51100000000E-03 0. -1.
    9900012    2    1    2    0    0 -0.40761698870E+02 -0.10928173301E+02  0.10133218597E+02  0.47787272061E+02  0.20000004636E+02 0.  0.
         12    1    1    2    0    0  0.40761698870E+02  0.10928173301E+02 -0.10133218597E+02  0.43400727939E+02  0.00000000000E+00 0. -1.
         11    1    3    3    0    0 -0.72126093595E+01  0.26101463658E+01  0.21357368330E+01  0.79621586209E+01  0.51100000000E-03 0. -1.
        -11    1    3    3    0    0 -0.29421153124E+02 -0.54638341247E+01  0.66895312431E+01  0.30662804226E+02  0.51100000000E-03 0.  1.
         12    1    3    3    0    0 -0.41279363871E+01 -0.80744855417E+01  0.13079505205E+01  0.91623092146E+01  0.00000000000E+00 0. -1.
</event>
<event>
 7    1  0.2414091E-009  0.4778727E+02  0.7816164E-02  0.1312668E+00
        -11   -1    0    0    0    0  0.00000000000E+00  0.00000000000E+00  0.45593999997E+02  0.45594000000E+02  0.51100000000E-03 0.  1.
         11   -1    0    0    0    0 -0.00000000000E+00 -0.00000000000E+00 -0.45593999997E+02  0.45594000000E+02  0.51100000000E-03 0. -1.
    9900012    2    1    2    0    0 -0.42909777161E+02 -0.64896687172E+01 -0.50836164922E+00  0.47787271808E+02  0.20000003482E+02 0.  0.
         12    1    1    2    0    0  0.42909777161E+02  0.64896687172E+01  0.50836164922E+00  0.43400728192E+02  0.00000000000E+00 0. -1.
         11    1    3    3    0    0 -0.24708486530E+02 -0.11012072568E+02 -0.63004514331E+01  0.27775362056E+02  0.51100000000E-03 0. -1.
        -11    1    3    3    0    0 -0.35505845041E+01  0.33044034916E+00 -0.34780296615E+00  0.35828491887E+01  0.51100000000E-03 0.  1.
         12    1    3    3    0    0 -0.14650706126E+02  0.41919635012E+01  0.61398927500E+01  0.16429060563E+02  0.00000000000E+00 0. -1.
</event>
<event>
 7    1  0.2414091E-009  0.4778727E+02  0.7816164E-02  0.1312668E+00
        -11   -1    0    0    0    0  0.00000000000E+00  0.00000000000E+00  0.45593999997E+02  0.45594000000E+02  0.51100000000E-03 0.  1.
         11   -1    0    0    0    0 -0.00000000000E+00 -0.00000000000E+00 -0.45593999997E+02  0.45594000000E+02  0.51100000000E-03 0. -1.
    9900012    2    1    2    0    0 -0.38089686137E+02  0.19049957853E+02  0.83605072237E+01  0.47787272296E+02  0.20000005704E+02 0.  0.
         12    1    1    2    0    0  0.38089686137E+02 -0.19049957853E+02 -0.83605072237E+01  0.43400727704E+02  0.00000000000E+00 0. -1.
         11    1    3    3    0    0 -0.83338950988E+01  0.51189163857E+01  0.48058366415E+01  0.10897393201E+02  0.51100000000E-03 0. -1.
        -11    1    3    3    0    0 -0.29276390036E+02  0.13401188780E+02 -0.10648606419E+01  0.32215412503E+02  0.51100000000E-03 0.  1.
         12    1    3    3    0    0 -0.47940100215E+00  0.52985268722E+00  0.46195312241E+01  0.46744665922E+01  0.00000000000E+00 0. -1.
</event>
<event>
 7    1  0.2414091E-009  0.4778727E+02  0.7816164E-02  0.1312668E+00
        -11   -1    0    0    0    0  0.00000000000E+00  0.00000000000E+00  0.45593999997E+02  0.45594000000E+02  0.51100000000E-03 0.  1.
         11   -1    0    0    0    0 -0.00000000000E+00 -0.00000000000E+00 -0.45593999997E+02  0.45594000000E+02  0.51100000000E-03 0. -1.
    9900012    2    1    2    0    0  0.14880778544E+02 -0.39561793859E+02  0.98514049038E+01  0.47787270950E+02  0.19999999572E+02 0.  0.
         12    1    1    2    0    0 -0.14880778544E+02  0.39561793859E+02 -0.98514049038E+01  0.43400729050E+02  0.00000000000E+00 0. -1.
         11    1    3    3    0    0  0.78135557735E+01 -0.25081427819E+02 -0.99829290074E+00  0.26289280406E+02  0.51100000000E-03 0. -1.
        -11    1    3    3    0    0  0.20404269470E+01 -0.11338381141E+02  0.34690399051E+01  0.12031478178E+02  0.51100000000E-03 0.  1.
        -12    1    3    3    0    0  0.50267958239E+01 -0.31419848992E+01  0.73806578995E+01  0.94665123668E+01  0.00000000000E+00 0.  1.
</event>
<event>
 7    1  0.2414091E-009  0.4778727E+02  0.7816164E-02  0.1312668E+00
        -11   -1    0    0    0    0  0.00000000000E+00  0.00000000000E+00  0.45593999997E+02  0.45594000000E+02  0.51100000000E-03 0. -1.
         11   -1    0    0    0    0 -0.00000000000E+00 -0.00000000000E+00 -0.45593999997E+02  0.45594000000E+02  0.51100000000E-03 0.  1.
    9900012    2    1    2    0    0 -0.12973168466E+02  0.31868749963E+02 -0.26451898018E+02  0.47787271515E+02  0.20000002147E+02 0.  0.
         12    1    1    2    0    0  0.12973168466E+02 -0.31868749963E+02  0.26451898018E+02  0.43400728485E+02  0.00000000000E+00 0. -1.
         11    1    3    3    0    0 -0.24442461055E+01  0.15916443402E+02 -0.11272088480E+02  0.19656232817E+02  0.51100000000E-03 0. -1.
        -11    1    3    3    0    0 -0.41451916191E+01  0.61295437195E+01 -0.14639942384E+02  0.16403714001E+02  0.51100000000E-03 0.  1.
         12    1    3    3    0    0 -0.63837307410E+01  0.98227628412E+01 -0.53986715485E+00  0.11727324697E+02  0.00000000000E+00 0. -1.
</event>
<event>
 7    1  0.2414091E-009  0.4778727E+02  0.7816164E-02  0.1312668E+00
        -11   -1    0    0    0    0  0.00000000000E+00  0.00000000000E+00  0.45593999997E+02  0.45594000000E+02  0.51100000000E-03 0.  1.
         11   -1    0    0    0    0 -0.00000000000E+00 -0.00000000000E+00 -0.45593999997E+02  0.45594000000E+02  0.51100000000E-03 0. -1.
    9900012    2    1    2    0    0 -0.19482900671E+02 -0.17533403864E+01  0.38742297718E+02  0.47787271279E+02  0.20000001070E+02 0.  0.
         12    1    1    2    0    0  0.19482900671E+02  0.17533403864E+01 -0.38742297718E+02  0.43400728721E+02  0.00000000000E+00 0. -1.
         11    1    3    3    0    0 -0.87739538295E-01 -0.23383108406E+01  0.44150823938E+01  0.49968338594E+01  0.51100000000E-03 0. -1.
        -11    1    3    3    0    0 -0.21146502592E+02 -0.15072046944E+01  0.23609919977E+02  0.31731286760E+02  0.51100000000E-03 0.  1.
        -12    1    3    3    0    0  0.17513414593E+01  0.20921751486E+01  0.10717295347E+02  0.11059150660E+02  0.00000000000E+00 0.  1.
</event>
<event>
 7    1  0.2559221E-009  0.4778727E+02  0.7816164E-02  0.1312668E+00
        -11   -1    0    0    0    0  0.00000000000E+00  0.00000000000E+00  0.45593999997E+02  0.45594000000E+02  0.51100000000E-03 0. -1.
         11   -1    0    0    0    0 -0.00000000000E+00 -0.00000000000E+00 -0.45593999997E+02  0.45594000000E+02  0.51100000000E-03 0.  1.
    9900012    2    1    2    0    0 -0.85000386343E+01 -0.36880158585E+02 -0.21242085762E+02  0.47787274643E+02  0.20000016407E+02 0.  0.
         12    1    1    2    0    0  0.85000386343E+01  0.36880158585E+02  0.21242085762E+02  0.43400725357E+02  0.00000000000E+00 0. -1.
         11    1    3    3    0    0 -0.68301462478E+01 -0.50584968569E+01 -0.66162088489E+01  0.10770956690E+02  0.51100000000E-03 0. -1.
        -11    1    3    3    0    0 -0.60281077713E+01 -0.22732555384E+02 -0.12788096193E+02  0.26770180464E+02  0.51100000000E-03 0.  1.
         12    1    3    3    0    0  0.43582153848E+01 -0.90891063438E+01 -0.18377807202E+01  0.10246137489E+02  0.00000000000E+00 0. -1.
</event>
<event>
 7    1  0.2414091E-009  0.4778727E+02  0.7816164E-02  0.1312668E+00
        -11   -1    0    0    0    0  0.00000000000E+00  0.00000000000E+00  0.45593999997E+02  0.45594000000E+02  0.51100000000E-03 0.  1.
         11   -1    0    0    0    0 -0.00000000000E+00 -0.00000000000E+00 -0.45593999997E+02  0.45594000000E+02  0.51100000000E-03 0. -1.
    9900012    2    1    2    0    0  0.62821340863E+01 -0.98457377658E+01  0.41799752238E+02  0.47787273647E+02  0.20000011864E+02 0.  0.
         12    1    1    2    0    0 -0.62821340863E+01  0.98457377658E+01 -0.41799752238E+02  0.43400726353E+02  0.00000000000E+00 0. -1.
         11    1    3    3    0    0  0.84956352813E+01 -0.13871477571E+00  0.63032170770E+01  0.10579489893E+02  0.51100000000E-03 0. -1.
        -11    1    3    3    0    0  0.11727477835E+01 -0.19589552120E+01  0.41034751885E+01  0.46958866863E+01  0.51100000000E-03 0.  1.
        -12    1    3    3    0    0 -0.33862489786E+01 -0.77480677781E+01  0.31393059973E+02  0.32511897067E+02  0.00000000000E+00 0.  1.
</event>
<event>
 7    1  0.2414091E-009  0.4778727E+02  0.7816164E-02  0.1312668E+00
        -11   -1    0    0    0    0  0.00000000000E+00  0.00000000000E+00  0.45593999997E+02  0.45594000000E+02  0.51100000000E-03 0. -1.
         11   -1    0    0    0    0 -0.00000000000E+00 -0.00000000000E+00 -0.45593999997E+02  0.45594000000E+02  0.51100000000E-03 0.  1.
    9900012    2    1    2    0    0 -0.22710542312E+02 -0.35724739960E+02  0.95706681200E+01  0.47787268837E+02  0.19999989933E+02 0.  0.
         12    1    1    2    0    0  0.22710542312E+02  0.35724739960E+02 -0.95706681200E+01  0.43400731163E+02  0.00000000000E+00 0. -1.
         11    1    3    3    0    0 -0.60021238189E+01 -0.38976908246E+01  0.20028376230E+01  0.74316110573E+01  0.51100000000E-03 0. -1.
        -11    1    3    3    0    0 -0.80453626163E+01 -0.24286041656E+02  0.11722691753E+02  0.28141804866E+02  0.51100000000E-03 0.  1.
         12    1    3    3    0    0 -0.86630558764E+01 -0.75410074791E+01 -0.41548612563E+01  0.12213852913E+02  0.00000000000E+00 0. -1.
</event>
<event>
 7    1  0.2414091E-009  0.4778728E+02  0.7816164E-02  0.1312668E+00
        -11   -1    0    0    0    0  0.00000000000E+00  0.00000000000E+00  0.45593999997E+02  0.45594000000E+02  0.51100000000E-03 0.  1.
         11   -1    0    0    0    0 -0.00000000000E+00 -0.00000000000E+00 -0.45593999997E+02  0.45594000000E+02  0.51100000000E-03 0. -1.
    9900012    2    1    2    0    0  0.31085023738E+01 -0.14202481714E+01  0.43265955073E+02  0.47787276962E+02  0.20000026980E+02 0.  0.
         12    1    1    2    0    0 -0.31085023738E+01  0.14202481714E+01 -0.43265955073E+02  0.43400723038E+02  0.00000000000E+00 0. -1.
         11    1    3    3    0    0 -0.35623276594E+01 -0.38149807880E+00  0.13070768484E+02  0.13552885603E+02  0.51100000000E-03 0. -1.
        -11    1    3    3    0    0 -0.48272354823E+00 -0.70947979946E+00  0.25837196160E+02  0.25851442693E+02  0.51100000000E-03 0.  1.
         12    1    3    3    0    0  0.71535535815E+01 -0.32927029312E+00  0.43579904283E+01  0.83829486663E+01  0.00000000000E+00 0. -1.
</event>
<event>
 7    1  0.2414091E-009  0.4778727E+02  0.7816164E-02  0.1312668E+00
        -11   -1    0    0    0    0  0.00000000000E+00  0.00000000000E+00  0.45593999997E+02  0.45594000000E+02  0.51100000000E-03 0.  1.
         11   -1    0    0    0    0 -0.00000000000E+00 -0.00000000000E+00 -0.45593999997E+02  0.45594000000E+02  0.51100000000E-03 0. -1.
    9900012    2    1    2    0    0 -0.42703325404E+02 -0.36937601812E+01  0.68121808728E+01  0.47787266445E+02  0.19999979031E+02 0.  0.
         12    1    1    2    0    0  0.42703325404E+02  0.36937601812E+01 -0.68121808728E+01  0.43400733555E+02  0.00000000000E+00 0. -1.
         11    1    3    3    0    0 -0.17171779428E+02 -0.57612554320E+00  0.63840176560E+01  0.18329146490E+02  0.51100000000E-03 0. -1.
        -11    1    3    3    0    0 -0.18696779809E+02 -0.65130123268E+01  0.51836557005E+01  0.20466049728E+02  0.51100000000E-03 0.  1.
         12    1    3    3    0    0 -0.68347661672E+01  0.33953776887E+01 -0.47554924837E+01  0.89920702273E+01  0.00000000000E+00 0. -1.
</event>
<event>
 7    1  0.2414091E-009  0.4778727E+02  0.7816164E-02  0.1312668E+00
        -11   -1    0    0    0    0  0.00000000000E+00  0.00000000000E+00  0.45593999997E+02  0.45594000000E+02  0.51100000000E-03 0.  1.
         11   -1    0    0    0    0 -0.00000000000E+00 -0.00000000000E+00 -0.45593999997E+02  0.45594000000E+02  0.51100000000E-03 0. -1.
    9900012    2    1    2    0    0 -0.32861579541E+01  0.34027087202E+02 -0.26739143440E+02  0.47787270865E+02  0.19999999183E+02 0.  0.
         12    1    1    2    0    0  0.32861579541E+01 -0.34027087202E+02  0.26739143440E+02  0.43400729135E+02  0.00000000000E+00 0. -1.
         11    1    3    3    0    0  0.72243611693E+00  0.62911627513E+01 -0.14199087669E+02  0.15547177673E+02  0.51100000000E-03 0. -1.
        -11    1    3    3    0    0 -0.62306521213E+01  0.10971679213E+02 -0.36494207822E+01  0.13134574334E+02  0.51100000000E-03 0.  1.
        -12    1    3    3    0    0  0.22220580503E+01  0.16764245237E+02 -0.88906349887E+01  0.19105518859E+02  0.00000000000E+00 0.  1.
</event>
<event>
 7    1  0.2414091E-009  0.4778727E+02  0.7816164E-02  0.1312668E+00
        -11   -1    0    0    0    0  0.00000000000E+00  0.00000000000E+00  0.45593999997E+02  0.45594000000E+02  0.51100000000E-03 0.  1.
         11   -1    0    0    0    0 -0.00000000000E+00 -0.00000000000E+00 -0.45593999997E+02  0.45594000000E+02  0.51100000000E-03 0. -1.
    9900012    2    1    2    0    0  0.29135221916E+02 -0.17576215831E+02  0.26941399643E+02  0.47787268051E+02  0.19999986352E+02 0.  0.
         12    1    1    2    0    0 -0.29135221916E+02  0.17576215831E+02 -0.26941399643E+02  0.43400731949E+02  0.00000000000E+00 0. -1.
         11    1    3    3    0    0  0.44371119586E+01 -0.89181485646E+01  0.66864493727E+01  0.11997080554E+02  0.51100000000E-03 0. -1.
        -11    1    3    3    0    0  0.26067700410E+02 -0.96708802707E+01  0.19082784988E+02  0.33722449689E+02  0.51100000000E-03 0.  1.
         12    1    3    3    0    0 -0.13695904532E+01  0.10128130047E+01  0.11721652825E+01  0.20677378077E+01  0.00000000000E+00 0. -1.
</event>
<event>
 7    1  0.2414091E-009  0.4778727E+02  0.7816164E-02  0.1312668E+00
        -11   -1    0    0    0    0  0.00000000000E+00  0.00000000000E+00  0.45593999997E+02  0.45594000000E+02  0.51100000000E-03 0. -1.
         11   -1    0    0    0    0 -0.00000000000E+00 -0.00000000000E+00 -0.45593999997E+02  0.45594000000E+02  0.51100000000E-03 0.  1.
    9900012    2    1    2    0    0 -0.63987868778E+01  0.37051097405E+02 -0.21677071665E+02  0.47787265808E+02  0.19999976126E+02 0.  0.
         12    1    1    2    0    0  0.63987868778E+01 -0.37051097405E+02  0.21677071665E+02  0.43400734192E+02  0.00000000000E+00 0. -1.
         11    1    3    3    0    0 -0.14417581234E+01 -0.35940845773E+00 -0.74553561945E+00  0.16624273058E+01  0.51100000000E-03 0. -1.
        -11    1    3    3    0    0 -0.10917965050E+02  0.24612609139E+02 -0.14890376971E+02  0.30768584889E+02  0.51100000000E-03 0.  1.
         12    1    3    3    0    0  0.59609362961E+01  0.12797896724E+02 -0.60411590736E+01  0.15356253613E+02  0.00000000000E+00 0. -1.
</event>
<event>
 7    1  0.2414091E-009  0.4778728E+02  0.7816164E-02  0.1312668E+00
        -11   -1    0    0    0    0  0.00000000000E+00  0.00000000000E+00  0.45593999997E+02  0.45594000000E+02  0.51100000000E-03 0.  1.
         11   -1    0    0    0    0 -0.00000000000E+00 -0.00000000000E+00 -0.45593999997E+02  0.45594000000E+02  0.51100000000E-03 0. -1.
    9900012    2    1    2    0    0  0.22122706411E+02 -0.32890095634E+02  0.17676259918E+02  0.47787277720E+02  0.20000030437E+02 0.  0.
         12    1    1    2    0    0 -0.22122706411E+02  0.32890095634E+02 -0.17676259918E+02  0.43400722280E+02  0.00000000000E+00 0. -1.
         11    1    3    3    0    0 -0.83559705564E+00 -0.31015588141E+01 -0.68825624679E+00  0.32850550131E+01  0.51100000000E-03 0. -1.
        -11    1    3    3    0    0  0.36220626807E+01 -0.14939022592E+02  0.11427761340E+02  0.19154306658E+02  0.51100000000E-03 0.  1.
        -12    1    3    3    0    0  0.19336240786E+02 -0.14849514228E+02  0.69367548256E+01  0.25347916049E+02  0.00000000000E+00 0.  1.
</event>
<event>
 7    1  0.2414091E-009  0.4778728E+02  0.7816164E-02  0.1312668E+00
        -11   -1    0    0    0    0  0.00000000000E+00  0.00000000000E+00  0.45593999997E+02  0.45594000000E+02  0.51100000000E-03 0. -1.
         11   -1    0    0    0    0 -0.00000000000E+00 -0.00000000000E+00 -0.45593999997E+02  0.45594000000E+02  0.51100000000E-03 0.  1.
    9900012    2    1    2    0    0 -0.26247232279E+02  0.23482827026E+02 -0.25362617682E+02  0.47787277159E+02  0.20000027879E+02 0.  0.
         12    1    1    2    0    0  0.26247232279E+02 -0.23482827026E+02  0.25362617682E+02  0.43400722841E+02  0.00000000000E+00 0. -1.
         11    1    3    3    0    0  0.21704285072E+00 -0.53604068772E+00  0.34226049713E+00  0.67200426112E+00  0.51100000000E-03 0. -1.
        -11    1    3    3    0    0 -0.24294863565E+02  0.14435525800E+02 -0.24137779069E+02  0.37165268456E+02  0.51100000000E-03 0.  1.
         12    1    3    3    0    0 -0.21694115642E+01  0.95833419142E+01 -0.15670991105E+01  0.99500044423E+01  0.00000000000E+00 0. -1.
</event>
<event>
 7    1  0.2414091E-009  0.4778726E+02  0.7816164E-02  0.1312668E+00
        -11   -1    0    0    0    0  0.00000000000E+00  0.00000000000E+00  0.45593999997E+02  0.45594000000E+02  0.51100000000E-03 0. -1.
         11   -1    0    0    0    0 -0.00000000000E+00 -0.00000000000E+00 -0.45593999997E+02  0.45594000000E+02  0.51100000000E-03 0.  1.
    9900012    2    1    2    0    0 -0.49721622707E+01  0.22168577049E+02 -0.36979130370E+02  0.47787259350E+02  0.19999946681E+02 0.  0.
         12    1    1    2    0    0  0.49721622707E+01 -0.22168577049E+02  0.36979130370E+02  0.43400740650E+02  0.00000000000E+00 0. -1.
         11    1    3    3    0    0 -0.13389910812E+01  0.43290364179E+01 -0.66712750901E+00  0.45802306490E+01  0.51100000000E-03 0. -1.
        -11    1    3    3    0    0  0.18961263815E+01  0.88133664567E+01 -0.53439846040E+01  0.10479928209E+02  0.51100000000E-03 0.  1.
        -12    1    3    3    0    0 -0.55292975710E+01  0.90261741744E+01 -0.30968018257E+02  0.32727100492E+02  0.00000000000E+00 0.  1.
</event>
<event>
 7    1  0.2414091E-009  0.4778727E+02  0.7816164E-02  0.1312668E+00
        -11   -1    0    0    0    0  0.00000000000E+00  0.00000000000E+00  0.45593999997E+02  0.45594000000E+02  0.51100000000E-03 0.  1.
         11   -1    0    0    0    0 -0.00000000000E+00 -0.00000000000E+00 -0.45593999997E+02  0.45594000000E+02  0.51100000000E-03 0. -1.
    9900012    2    1    2    0    0  0.28778395084E+01  0.25563147505E+02  0.34955209635E+02  0.47787272457E+02  0.20000006442E+02 0.  0.
         12    1    1    2    0    0 -0.28778395084E+01 -0.25563147505E+02 -0.34955209635E+02  0.43400727543E+02  0.00000000000E+00 0. -1.
         11    1    3    3    0    0 -0.34241990829E+01  0.19666802928E+02  0.26138480363E+02  0.32889640204E+02  0.51100000000E-03 0.  1.
        -11    1    3    3    0    0  0.44767600272E+01  0.75495089701E+00  0.82445801164E+01  0.94119303416E+01  0.51100000000E-03 0. -1.
        -12    1    3    3    0    0  0.18252785641E+01  0.51413936800E+01  0.57214915542E+00  0.54857019119E+01  0.00000000000E+00 0.  1.
</event>
<event>
 7    1  0.2414091E-009  0.4778727E+02  0.7816164E-02  0.1312668E+00
        -11   -1    0    0    0    0  0.00000000000E+00  0.00000000000E+00  0.45593999997E+02  0.45594000000E+02  0.51100000000E-03 0.  1.
         11   -1    0    0    0    0 -0.00000000000E+00 -0.00000000000E+00 -0.45593999997E+02  0.45594000000E+02  0.51100000000E-03 0. -1.
    9900012    2    1    2    0    0 -0.87769060477E+01  0.31754948221E+01  0.42385202955E+02  0.47787271012E+02  0.19999999851E+02 0.  0.
         12    1    1    2    0    0  0.87769060477E+01 -0.31754948221E+01 -0.42385202955E+02  0.43400728988E+02  0.00000000000E+00 0. -1.
         11    1    3    3    0    0  0.16909444165E+01 -0.51184872152E+01  0.99613824930E+01  0.11326400391E+02  0.51100000000E-03 0. -1.
        -11    1    3    3    0    0  0.15427434708E+01  0.26812616402E+01  0.36828250598E+01  0.48096176649E+01  0.51100000000E-03 0.  1.
        -12    1    3    3    0    0 -0.12010593935E+02  0.56127203971E+01  0.28740995403E+02  0.31651252956E+02  0.00000000000E+00 0.  1.
</event>
<event>
 7    1  0.2414091E-009  0.4778728E+02  0.7816164E-02  0.1312668E+00
        -11   -1    0    0    0    0  0.00000000000E+00  0.00000000000E+00  0.45593999997E+02  0.45594000000E+02  0.51100000000E-03 0. -1.
         11   -1    0    0    0    0 -0.00000000000E+00 -0.00000000000E+00 -0.45593999997E+02  0.45594000000E+02  0.51100000000E-03 0.  1.
    9900012    2    1    2    0    0  0.43146088978E+02  0.41622601406E+01  0.21709729955E+01  0.47787279645E+02  0.20000039215E+02 0.  0.
         12    1    1    2    0    0 -0.43146088978E+02 -0.41622601406E+01 -0.21709729955E+01  0.43400720355E+02  0.00000000000E+00 0. -1.
         11    1    3    3    0    0  0.11707190672E+02  0.19777835727E+01 -0.47969734403E+01  0.12805502557E+02  0.51100000000E-03 0. -1.
        -11    1    3    3    0    0  0.20927453110E+02  0.42022837645E+01 -0.14066402603E+01  0.21391496432E+02  0.51100000000E-03 0.  1.
         12    1    3    3    0    0  0.10511445196E+02 -0.20178071966E+01  0.83745866961E+01  0.13590280656E+02  0.00000000000E+00 0. -1.
</event>
<event>
 7    1  0.2414091E-009  0.4778727E+02  0.7816164E-02  0.1312668E+00
        -11   -1    0    0    0    0  0.00000000000E+00  0.00000000000E+00  0.45593999997E+02  0.45594000000E+02  0.51100000000E-03 0.  1.
         11   -1    0    0    0    0 -0.00000000000E+00 -0.00000000000E+00 -0.45593999997E+02  0.45594000000E+02  0.51100000000E-03 0. -1.
    9900012    2    1    2    0    0 -0.15977043390E+02 -0.33796020547E+02  0.22049633005E+02  0.47787271481E+02  0.20000001990E+02 0.  0.
         12    1    1    2    0    0  0.15977043390E+02  0.33796020547E+02 -0.22049633005E+02  0.43400728519E+02  0.00000000000E+00 0. -1.
         11    1    3    3    0    0  0.27513366865E+01 -0.78706014762E+01  0.46065006466E+01  0.95255482587E+01  0.51100000000E-03 0. -1.
        -11    1    3    3    0    0 -0.64170380497E+01 -0.18640287409E+02  0.10962345149E+02  0.22556854910E+02  0.51100000000E-03 0.  1.
         12    1    3    3    0    0 -0.12311342027E+02 -0.72851316622E+01  0.64807872094E+01  0.15704868312E+02  0.00000000000E+00 0. -1.
</event>
<event>
 7    1  0.2414091E-009  0.4778727E+02  0.7816164E-02  0.1312668E+00
        -11   -1    0    0    0    0  0.00000000000E+00  0.00000000000E+00  0.45593999997E+02  0.45594000000E+02  0.51100000000E-03 0.  1.
         11   -1    0    0    0    0 -0.00000000000E+00 -0.00000000000E+00 -0.45593999997E+02  0.45594000000E+02  0.51100000000E-03 0. -1.
    9900012    2    1    2    0    0  0.37218845587E+02 -0.61177601900E+01 -0.21469832738E+02  0.47787272191E+02  0.20000005226E+02 0.  0.
         12    1    1    2    0    0 -0.37218845587E+02  0.61177601900E+01  0.21469832738E+02  0.43400727809E+02  0.00000000000E+00 0. -1.
         11    1    3    3    0    0  0.17719932794E+01  0.39934699182E+01 -0.52539103533E+00  0.44004315891E+01  0.51100000000E-03 0. -1.
        -11    1    3    3    0    0  0.11024408663E+02  0.11848729276E+01 -0.62099721317E+01  0.12708472149E+02  0.51100000000E-03 0.  1.
        -12    1    3    3    0    0  0.24422443644E+02 -0.11296103036E+02 -0.14734469571E+02  0.30678368452E+02  0.00000000000E+00 0.  1.
</event>
<event>
 7    1  0.2414091E-009  0.4778726E+02  0.7816164E-02  0.1312668E+00
        -11   -1    0    0    0    0  0.00000000000E+00  0.00000000000E+00  0.45593999997E+02  0.45594000000E+02  0.51100000000E-03 0. -1.
         11   -1    0    0    0    0 -0.00000000000E+00 -0.00000000000E+00 -0.45593999997E+02  0.45594000000E+02  0.51100000000E-03 0.  1.
    9900012    2    1    2    0    0  0.75622204090E+01 -0.41907222915E+02 -0.83798392545E+01  0.47787260191E+02  0.19999950517E+02 0.  0.
         12    1    1    2    0    0 -0.75622204090E+01  0.41907222915E+02  0.83798392545E+01  0.43400739809E+02  0.00000000000E+00 0. -1.
         11    1    3    3    0    0  0.48316651808E+00 -0.72415949963E+01 -0.25866782237E+01  0.77048719956E+01  0.51100000000E-03 0. -1.
        -11    1    3    3    0    0  0.47205847141E+01 -0.14524530085E+02  0.62447935766E+01  0.16499798220E+02  0.51100000000E-03 0.  1.
        -12    1    3    3    0    0  0.23584691769E+01 -0.20141097834E+02 -0.12037954607E+02  0.23582589976E+02  0.00000000000E+00 0.  1.
</event>
<event>
 7    1  0.2414091E-009  0.4778727E+02  0.7816164E-02  0.1312668E+00
        -11   -1    0    0    0    0  0.00000000000E+00  0.00000000000E+00  0.45593999997E+02  0.45594000000E+02  0.51100000000E-03 0.  1.
         11   -1    0    0    0    0 -0.00000000000E+00 -0.00000000000E+00 -0.45593999997E+02  0.45594000000E+02  0.51100000000E-03 0. -1.
    9900012    2    1    2    0    0  0.11456938691E+02  0.25560603501E+02  0.33151433999E+02  0.47787268765E+02  0.19999989607E+02 0.  0.
         12    1    1    2    0    0 -0.11456938691E+02 -0.25560603501E+02 -0.33151433999E+02  0.43400731235E+02  0.00000000000E+00 0. -1.
         11    1    3    3    0    0  0.56898384925E+01  0.32163730710E+01 -0.68312800600E+00  0.65716042133E+01  0.51100000000E-03 0. -1.
        -11    1    3    3    0    0  0.46299583592E+00  0.23095439061E+01  0.64927450031E+01  0.69068151948E+01  0.51100000000E-03 0.  1.
        -12    1    3    3    0    0  0.53041043625E+01  0.20034686524E+02  0.27341817002E+02  0.34308849357E+02  0.00000000000E+00 0.  1.
</event>
<event>
 7    1  0.2414091E-009  0.4778727E+02  0.7816164E-02  0.1312668E+00
        -11   -1    0    0    0    0  0.00000000000E+00  0.00000000000E+00  0.45593999997E+02  0.45594000000E+02  0.51100000000E-03 0.  1.
         11   -1    0    0    0    0 -0.00000000000E+00 -0.00000000000E+00 -0.45593999997E+02  0.45594000000E+02  0.51100000000E-03 0. -1.
    9900012    2    1    2    0    0  0.25813802632E+02  0.33351716428E+02  0.10243715469E+02  0.47787273029E+02  0.20000009048E+02 0.  0.
         12    1    1    2    0    0 -0.25813802632E+02 -0.33351716428E+02 -0.10243715469E+02  0.43400726971E+02  0.00000000000E+00 0. -1.
         11    1    3    3    0    0  0.20204821007E+02  0.17452349559E+02  0.49649162691E+01  0.27156393187E+02  0.51100000000E-03 0. -1.
        -11    1    3    3    0    0  0.28617388142E+01 -0.26770693841E+00  0.28598173957E+01  0.40545988511E+01  0.51100000000E-03 0.  1.
         12    1    3    3    0    0  0.27472428109E+01  0.16167073807E+02  0.24189818046E+01  0.16576280991E+02  0.00000000000E+00 0. -1.
</event>
<event>
 7    1  0.2414091E-009  0.4778727E+02  0.7816164E-02  0.1312668E+00
        -11   -1    0    0    0    0  0.00000000000E+00  0.00000000000E+00  0.45593999997E+02  0.45594000000E+02  0.51100000000E-03 0.  1.
         11   -1    0    0    0    0 -0.00000000000E+00 -0.00000000000E+00 -0.45593999997E+02  0.45594000000E+02  0.51100000000E-03 0. -1.
    9900012    2    1    2    0    0 -0.27009855912E+01 -0.12261298591E+02  0.41545017994E+02  0.47787270900E+02  0.19999999341E+02 0.  0.
         12    1    1    2    0    0  0.27009855912E+01  0.12261298591E+02 -0.41545017994E+02  0.43400729100E+02  0.00000000000E+00 0. -1.
         11    1    3    3    0    0  0.79371388204E+01 -0.53034061247E+01  0.10754835942E+02  0.14380222028E+02  0.51100000000E-03 0. -1.
        -11    1    3    3    0    0 -0.40918534645E+01 -0.20434039666E+01  0.13992082559E+02  0.14720636506E+02  0.51100000000E-03 0.  1.
         12    1    3    3    0    0 -0.65462709471E+01 -0.49144884995E+01  0.16798099493E+02  0.18686412365E+02  0.00000000000E+00 0. -1.
</event>
<event>
 7    1  0.2414091E-009  0.4778727E+02  0.7816164E-02  0.1312668E+00
        -11   -1    0    0    0    0  0.00000000000E+00  0.00000000000E+00  0.45593999997E+02  0.45594000000E+02  0.51100000000E-03 0. -1.
         11   -1    0    0    0    0 -0.00000000000E+00 -0.00000000000E+00 -0.45593999997E+02  0.45594000000E+02  0.51100000000E-03 0.  1.
    9900012    2    1    2    0    0  0.37967632962E+02 -0.90505294850E+01 -0.18978149812E+02  0.47787269511E+02  0.19999993007E+02 0.  0.
         12    1    1    2    0    0 -0.37967632962E+02  0.90505294850E+01  0.18978149812E+02  0.43400730489E+02  0.00000000000E+00 0. -1.
         11    1    3    3    0    0  0.93203660762E+00 -0.11110771863E+01  0.45621210887E+00  0.15203007930E+01  0.51100000000E-03 0. -1.
        -11    1    3    3    0    0  0.29866241621E+02 -0.35787359654E+01 -0.63813265867E+01  0.30749326316E+02  0.51100000000E-03 0.  1.
        -12    1    3    3    0    0  0.71693547340E+01 -0.43607163334E+01 -0.13053035335E+02  0.15517642401E+02  0.00000000000E+00 0.  1.
</event>
<event>
 7    1  0.2414091E-009  0.4778727E+02  0.7816164E-02  0.1312668E+00
        -11   -1    0    0    0    0  0.00000000000E+00  0.00000000000E+00  0.45593999997E+02  0.45594000000E+02  0.51100000000E-03 0.  1.
         11   -1    0    0    0    0 -0.00000000000E+00 -0.00000000000E+00 -0.45593999997E+02  0.45594000000E+02  0.51100000000E-03 0. -1.
    9900012    2    1    2    0    0  0.82854609906E+01  0.40799235544E+02  0.12263655149E+02  0.47787265877E+02  0.19999976440E+02 0.  0.
         12    1    1    2    0    0 -0.82854609906E+01 -0.40799235544E+02 -0.12263655149E+02  0.43400734123E+02  0.00000000000E+00 0. -1.
         11    1    3    3    0    0  0.87028138662E+00  0.12512308358E+02 -0.12200415180E+01  0.12601736060E+02  0.51100000000E-03 0.  1.
        -11    1    3    3    0    0  0.71282500696E+00  0.51045728462E+01 -0.29978278450E+01  0.59625292857E+01  0.51100000000E-03 0. -1.
        -12    1    3    3    0    0  0.67023545970E+01  0.23182354339E+02  0.16481524512E+02  0.29223000532E+02  0.00000000000E+00 0.  1.
</event>
<event>
 7    1  0.2414091E-009  0.4778727E+02  0.7816164E-02  0.1312668E+00
        -11   -1    0    0    0    0  0.00000000000E+00  0.00000000000E+00  0.45593999997E+02  0.45594000000E+02  0.51100000000E-03 0.  1.
         11   -1    0    0    0    0 -0.00000000000E+00 -0.00000000000E+00 -0.45593999997E+02  0.45594000000E+02  0.51100000000E-03 0. -1.
    9900012    2    1    2    0    0 -0.23082671398E+01  0.37652961112E+01  0.43175427971E+02  0.47787272674E+02  0.20000007429E+02 0.  0.
         12    1    1    2    0    0  0.23082671398E+01 -0.37652961112E+01 -0.43175427971E+02  0.43400727326E+02  0.00000000000E+00 0. -1.
         11    1    3    3    0    0  0.39240485105E+01  0.78827873163E+00  0.53190696121E+01  0.66567290670E+01  0.51100000000E-03 0. -1.
        -11    1    3    3    0    0  0.19996706494E+01  0.50356034224E+01  0.25951552849E+02  0.26511112388E+02  0.51100000000E-03 0.  1.
         12    1    3    3    0    0 -0.82319862997E+01 -0.20585860428E+01  0.11904805510E+02  0.14619431219E+02  0.00000000000E+00 0. -1.
</event>
<event>
 7    1  0.2414091E-009  0.4778728E+02  0.7816164E-02  0.1312668E+00
        -11   -1    0    0    0    0  0.00000000000E+00  0.00000000000E+00  0.45593999997E+02  0.45594000000E+02  0.51100000000E-03 0. -1.
         11   -1    0    0    0    0 -0.00000000000E+00 -0.00000000000E+00 -0.45593999997E+02  0.45594000000E+02  0.51100000000E-03 0.  1.
    9900012    2    1    2    0    0 -0.20149566245E+01 -0.42373827944E+02  0.91663058853E+01  0.47787279863E+02  0.20000040207E+02 0.  0.
         12    1    1    2    0    0  0.20149566245E+01  0.42373827944E+02 -0.91663058853E+01  0.43400720137E+02  0.00000000000E+00 0. -1.
         11    1    3    3    0    0 -0.44407122800E+01 -0.73436626473E+01 -0.18541886423E+00  0.85839202611E+01  0.51100000000E-03 0. -1.
        -11    1    3    3    0    0 -0.46993918777E+01 -0.60282599407E+01 -0.74169611580E+00  0.76794736358E+01  0.51100000000E-03 0.  1.
        -12    1    3    3    0    0  0.71251475333E+01 -0.29001905356E+02  0.10093420865E+02  0.31523885966E+02  0.00000000000E+00 0.  1.
</event>
<event>
 7    1  0.2414091E-009  0.4778727E+02  0.7816164E-02  0.1312668E+00
        -11   -1    0    0    0    0  0.00000000000E+00  0.00000000000E+00  0.45593999997E+02  0.45594000000E+02  0.51100000000E-03 0. -1.
         11   -1    0    0    0    0 -0.00000000000E+00 -0.00000000000E+00 -0.45593999997E+02  0.45594000000E+02  0.51100000000E-03 0.  1.
    9900012    2    1    2    0    0 -0.21914217626E+02 -0.18570388644E+02 -0.32535079445E+02  0.47787266561E+02  0.19999979557E+02 0.  0.
         12    1    1    2    0    0  0.21914217626E+02  0.18570388644E+02  0.32535079445E+02  0.43400733439E+02  0.00000000000E+00 0. -1.
         11    1    3    3    0    0 -0.88411768120E+01 -0.20130478486E+01 -0.30689648737E+01  0.95727380993E+01  0.51100000000E-03 0. -1.
        -11    1    3    3    0    0 -0.23246997527E+01 -0.17744857456E+00 -0.11161716597E+02  0.11402615252E+02  0.51100000000E-03 0.  1.
        -12    1    3    3    0    0 -0.10748341061E+02 -0.16379892221E+02 -0.18304397975E+02  0.26811913209E+02  0.00000000000E+00 0.  1.
</event>
<event>
 7    1  0.2414091E-009  0.4778727E+02  0.7816164E-02  0.1312668E+00
        -11   -1    0    0    0    0  0.00000000000E+00  0.00000000000E+00  0.45593999997E+02  0.45594000000E+02  0.51100000000E-03 0.  1.
         11   -1    0    0    0    0 -0.00000000000E+00 -0.00000000000E+00 -0.45593999997E+02  0.45594000000E+02  0.51100000000E-03 0. -1.
    9900012    2    1    2    0    0 -0.24796273252E+02 -0.85961252897E+01  0.34566958591E+02  0.47787272317E+02  0.20000005800E+02 0.  0.
         12    1    1    2    0    0  0.24796273252E+02  0.85961252897E+01 -0.34566958591E+02  0.43400727683E+02  0.00000000000E+00 0. -1.
         11    1    3    3    0    0 -0.22803934949E+01  0.35399831257E+01  0.80224635324E+01  0.90604412923E+01  0.51100000000E-03 0. -1.
        -11    1    3    3    0    0 -0.49593783298E+01 -0.58869296418E+01  0.14848271655E+02  0.16724907935E+02  0.51100000000E-03 0.  1.
         12    1    3    3    0    0 -0.17556501427E+02 -0.62491787736E+01  0.11696223404E+02  0.22001923089E+02  0.00000000000E+00 0. -1.
</event>
<event>
 7    1  0.2414091E-009  0.4778727E+02  0.7816164E-02  0.1312668E+00
        -11   -1    0    0    0    0  0.00000000000E+00  0.00000000000E+00  0.45593999997E+02  0.45594000000E+02  0.51100000000E-03 0.  1.
         11   -1    0    0    0    0 -0.00000000000E+00 -0.00000000000E+00 -0.45593999997E+02  0.45594000000E+02  0.51100000000E-03 0. -1.
    9900012    2    1    2    0    0  0.11042930172E+02 -0.74707129619E+01  0.41302121504E+02  0.47787273051E+02  0.20000009150E+02 0.  0.
         12    1    1    2    0    0 -0.11042930172E+02  0.74707129619E+01 -0.41302121504E+02  0.43400726949E+02  0.00000000000E+00 0. -1.
         11    1    3    3    0    0  0.13478394798E+01  0.54529517350E+00  0.86183527103E+00  0.16902006937E+01  0.51100000000E-03 0. -1.
        -11    1    3    3    0    0  0.12032522563E+02 -0.12306385814E+02  0.32434287140E+02  0.36718002581E+02  0.51100000000E-03 0.  1.
         12    1    3    3    0    0 -0.23374318712E+01  0.42903776789E+01  0.80059990936E+01  0.93790697762E+01  0.00000000000E+00 0. -1.
</event>
<event>
 7    1  0.2414091E-009  0.4778727E+02  0.7816164E-02  0.1312668E+00
        -11   -1    0    0    0    0  0.00000000000E+00  0.00000000000E+00  0.45593999997E+02  0.45594000000E+02  0.51100000000E-03 0. -1.
         11   -1    0    0    0    0 -0.00000000000E+00 -0.00000000000E+00 -0.45593999997E+02  0.45594000000E+02  0.51100000000E-03 0.  1.
    9900012    2    1    2    0    0  0.22433796298E+02  0.31927900335E+02 -0.18998869895E+02  0.47787273123E+02  0.20000009477E+02 0.  0.
         12    1    1    2    0    0 -0.22433796298E+02 -0.31927900335E+02  0.18998869895E+02  0.43400726877E+02  0.00000000000E+00 0. -1.
         11    1    3    3    0    0  0.87853635256E+01  0.13107427979E+02 -0.12390855448E+02  0.20062915528E+02  0.51100000000E-03 0. -1.
        -11    1    3    3    0    0  0.12903658840E+02  0.17947703129E+02 -0.99130189767E+01  0.24225862308E+02  0.51100000000E-03 0.  1.
         12    1    3    3    0    0  0.74477393242E+00  0.87276922777E+00  0.33050045296E+01  0.34984952874E+01  0.00000000000E+00 0. -1.
</event>
<event>
 7    1  0.2414091E-009  0.4778727E+02  0.7816164E-02  0.1312668E+00
        -11   -1    0    0    0    0  0.00000000000E+00  0.00000000000E+00  0.45593999997E+02  0.45594000000E+02  0.51100000000E-03 0.  1.
         11   -1    0    0    0    0 -0.00000000000E+00 -0.00000000000E+00 -0.45593999997E+02  0.45594000000E+02  0.51100000000E-03 0. -1.
    9900012    2    1    2    0    0 -0.15331700593E+02 -0.12996767934E+02  0.38466171725E+02  0.47787269741E+02  0.19999994059E+02 0.  0.
         12    1    1    2    0    0  0.15331700593E+02  0.12996767934E+02 -0.38466171725E+02  0.43400730259E+02  0.00000000000E+00 0. -1.
         11    1    3    3    0    0 -0.30486038898E+01 -0.39054862313E+01  0.23860771945E+00  0.49602159515E+01  0.51100000000E-03 0. -1.
        -11    1    3    3    0    0 -0.14297935920E+01 -0.52112570135E+01  0.40349942718E+01  0.67440854392E+01  0.51100000000E-03 0.  1.
        -12    1    3    3    0    0 -0.10853303111E+02 -0.38800246893E+01  0.34192569734E+02  0.36082968351E+02  0.00000000000E+00 0.  1.
</event>
<event>
 7    1  0.2414091E-009  0.4778727E+02  0.7816164E-02  0.1312668E+00
        -11   -1    0    0    0    0  0.00000000000E+00  0.00000000000E+00  0.45593999997E+02  0.45594000000E+02  0.51100000000E-03 0. -1.
         11   -1    0    0    0    0 -0.00000000000E+00 -0.00000000000E+00 -0.45593999997E+02  0.45594000000E+02  0.51100000000E-03 0.  1.
    9900012    2    1    2    0    0  0.22933138727E+02  0.58900256416E+01 -0.36373093976E+02  0.47787271673E+02  0.20000002868E+02 0.  0.
         12    1    1    2    0    0 -0.22933138727E+02 -0.58900256416E+01  0.36373093976E+02  0.43400728327E+02  0.00000000000E+00 0. -1.
         11    1    3    3    0    0  0.38800761736E+01  0.50126223199E+01 -0.38487514315E+01  0.74158115859E+01  0.51100000000E-03 0. -1.
        -11    1    3    3    0    0  0.16642010210E+02  0.63620238643E+01 -0.25940693131E+02  0.31469849250E+02  0.51100000000E-03 0.  1.
         12    1    3    3    0    0  0.24110523437E+01 -0.54846205426E+01 -0.65836494130E+01  0.89016108370E+01  0.00000000000E+00 0. -1.
</event>
<event>
 7    1  0.2414091E-009  0.4778729E+02  0.7816164E-02  0.1312668E+00
        -11   -1    0    0    0    0  0.00000000000E+00  0.00000000000E+00  0.45593999997E+02  0.45594000000E+02  0.51100000000E-03 0. -1.
         11   -1    0    0    0    0 -0.00000000000E+00 -0.00000000000E+00 -0.45593999997E+02  0.45594000000E+02  0.51100000000E-03 0.  1.
    9900012    2    1    2    0    0  0.62801925229E+01 -0.41723986121E+02 -0.10163151896E+02  0.47787291568E+02  0.20000093575E+02 0.  0.
         12    1    1    2    0    0 -0.62801925229E+01  0.41723986121E+02  0.10163151896E+02  0.43400708432E+02  0.00000000000E+00 0. -1.
         11    1    3    3    0    0 -0.11009051344E+01 -0.89269340396E+01  0.38160059981E+01  0.97705703774E+01  0.51100000000E-03 0. -1.
        -11    1    3    3    0    0  0.70070478985E+00 -0.34757771333E+01  0.18856011447E+01  0.40159066001E+01  0.51100000000E-03 0.  1.
        -12    1    3    3    0    0  0.66803928674E+01 -0.29321274948E+02 -0.15864759039E+02  0.34000814590E+02  0.00000000000E+00 0.  1.
</event>
<event>
 7    1  0.2414091E-009  0.4778727E+02  0.7816164E-02  0.1312668E+00
        -11   -1    0    0    0    0  0.00000000000E+00  0.00000000000E+00  0.45593999997E+02  0.45594000000E+02  0.51100000000E-03 0.  1.
         11   -1    0    0    0    0 -0.00000000000E+00 -0.00000000000E+00 -0.45593999997E+02  0.45594000000E+02  0.51100000000E-03 0. -1.
    9900012    2    1    2    0    0  0.63082948773E+01  0.41575504195E+02  0.10738074706E+02  0.47787269802E+02  0.19999994337E+02 0.  0.
         12    1    1    2    0    0 -0.63082948773E+01 -0.41575504195E+02 -0.10738074706E+02  0.43400730198E+02  0.00000000000E+00 0. -1.
         11    1    3    3    0    0  0.12874183382E+01  0.27637590825E+00 -0.10312685390E+01  0.16725264365E+01  0.51100000000E-03 0. -1.
        -11    1    3    3    0    0 -0.32328636892E+01  0.30233609605E+02  0.52805981895E+01  0.30861096463E+02  0.51100000000E-03 0.  1.
         12    1    3    3    0    0  0.82537402283E+01  0.11065518681E+02  0.64887450557E+01  0.15253646903E+02  0.00000000000E+00 0. -1.
</event>
<event>
 7    1  0.2414091E-009  0.4778728E+02  0.7816164E-02  0.1312668E+00
        -11   -1    0    0    0    0  0.00000000000E+00  0.00000000000E+00  0.45593999997E+02  0.45594000000E+02  0.51100000000E-03 0.  1.
         11   -1    0    0    0    0 -0.00000000000E+00 -0.00000000000E+00 -0.45593999997E+02  0.45594000000E+02  0.51100000000E-03 0. -1.
    9900012    2    1    2    0    0 -0.21232037127E+02  0.17112473852E+02  0.33763689890E+02  0.47787275157E+02  0.20000018752E+02 0.  0.
         12    1    1    2    0    0  0.21232037127E+02 -0.17112473852E+02 -0.33763689890E+02  0.43400724843E+02  0.00000000000E+00 0. -1.
         11    1    3    3    0    0 -0.36807654723E+01  0.25816049192E+01 -0.34767350167E+00  0.45092788277E+01  0.51100000000E-03 0. -1.
        -11    1    3    3    0    0 -0.48013259221E+01  0.49765463531E+01  0.16377008875E+01  0.71063920996E+01  0.51100000000E-03 0.  1.
        -12    1    3    3    0    0 -0.12749945732E+02  0.95543225800E+01  0.32473662504E+02  0.36171604230E+02  0.00000000000E+00 0.  1.
</event>
<event>
 7    1  0.2414091E-009  0.4778728E+02  0.7816164E-02  0.1312668E+00
        -11   -1    0    0    0    0  0.00000000000E+00  0.00000000000E+00  0.45593999997E+02  0.45594000000E+02  0.51100000000E-03 0.  1.
         11   -1    0    0    0    0 -0.00000000000E+00 -0.00000000000E+00 -0.45593999997E+02  0.45594000000E+02  0.51100000000E-03 0. -1.
    9900012    2    1    2    0    0 -0.45022926625E+01 -0.24498409822E+02  0.35541245089E+02  0.47787276210E+02  0.20000023550E+02 0.  0.
         12    1    1    2    0    0  0.45022926625E+01  0.24498409822E+02 -0.35541245089E+02  0.43400723790E+02  0.00000000000E+00 0. -1.
         11    1    3    3    0    0 -0.64000935898E+01 -0.38483009222E+01  0.95628739454E+01  0.12133390965E+02  0.51100000000E-03 0.  1.
        -11    1    3    3    0    0  0.18272997708E+01  0.29548494054E+00 -0.47611736055E+00  0.19112885194E+01  0.51100000000E-03 0. -1.
         12    1    3    3    0    0  0.70501156499E-01 -0.20945593840E+02  0.26454488505E+02  0.33742596725E+02  0.00000000000E+00 0. -1.
</event>
<event>
 7    1  0.2414091E-009  0.4778728E+02  0.7816164E-02  0.1312668E+00
        -11   -1    0    0    0    0  0.00000000000E+00  0.00000000000E+00  0.45593999997E+02  0.45594000000E+02  0.51100000000E-03 0.  1.
         11   -1    0    0    0    0 -0.00000000000E+00 -0.00000000000E+00 -0.45593999997E+02  0.45594000000E+02  0.51100000000E-03 0. -1.
    9900012    2    1    2    0    0 -0.40800303004E+02  0.13539880063E+02  0.59690509900E+01  0.47787278266E+02  0.20000032926E+02 0.  0.
         12    1    1    2    0    0  0.40800303004E+02 -0.13539880063E+02 -0.59690509900E+01  0.43400721734E+02  0.00000000000E+00 0. -1.
         11    1    3    3    0    0 -0.89372743408E+01 -0.37899409419E+01  0.22196545921E+01  0.99581821511E+01  0.51100000000E-03 0. -1.
        -11    1    3    3    0    0 -0.40311471571E+00 -0.84718356208E+00 -0.77235821982E+00  0.12152197096E+01  0.51100000000E-03 0.  1.
        -12    1    3    3    0    0 -0.31459913947E+02  0.18177004567E+02  0.45217546177E+01  0.36613876405E+02  0.00000000000E+00 0.  1.
</event>
<event>
 7    1  0.2414091E-009  0.4778727E+02  0.7816164E-02  0.1312668E+00
        -11   -1    0    0    0    0  0.00000000000E+00  0.00000000000E+00  0.45593999997E+02  0.45594000000E+02  0.51100000000E-03 0.  1.
         11   -1    0    0    0    0 -0.00000000000E+00 -0.00000000000E+00 -0.45593999997E+02  0.45594000000E+02  0.51100000000E-03 0. -1.
    9900012    2    1    2    0    0 -0.40565898079E+02  0.88326003718E+01  0.12649757492E+02  0.47787270963E+02  0.19999999630E+02 0.  0.
         12    1    1    2    0    0  0.40565898079E+02 -0.88326003718E+01 -0.12649757492E+02  0.43400729037E+02  0.00000000000E+00 0. -1.
         11    1    3    3    0    0 -0.57710112054E+01  0.69368265357E+01  0.49822943879E+01  0.10307637477E+02  0.51100000000E-03 0. -1.
        -11    1    3    3    0    0 -0.24474690852E+02  0.65930925330E+01  0.54158390213E+01  0.25919310832E+02  0.51100000000E-03 0.  1.
         12    1    3    3    0    0 -0.10320196022E+02 -0.46973186969E+01  0.22516240830E+01  0.11560322655E+02  0.00000000000E+00 0. -1.
</event>
<event>
 7    1  0.2414091E-009  0.4778724E+02  0.7816164E-02  0.1312668E+00
        -11   -1    0    0    0    0  0.00000000000E+00  0.00000000000E+00  0.45593999997E+02  0.45594000000E+02  0.51100000000E-03 0.  1.
         11   -1    0    0    0    0 -0.00000000000E+00 -0.00000000000E+00 -0.45593999997E+02  0.45594000000E+02  0.51100000000E-03 0. -1.
    9900012    2    1    2    0    0  0.14024834948E+02  0.12098877762E+02  0.39249804895E+02  0.47787239376E+02  0.19999855612E+02 0.  0.
         12    1    1    2    0    0 -0.14024834948E+02 -0.12098877762E+02 -0.39249804895E+02  0.43400760624E+02  0.00000000000E+00 0. -1.
         11    1    3    3    0    0  0.21892770748E+01  0.45350511322E+01  0.10754935762E+02  0.11875532257E+02  0.51100000000E-03 0.  1.
        -11    1    3    3    0    0  0.84801134498E+01 -0.42092367301E+01  0.10388827589E+02  0.14055523359E+02  0.51100000000E-03 0. -1.
         12    1    3    3    0    0  0.33554444236E+01  0.11773063360E+02  0.18106041544E+02  0.21856183760E+02  0.00000000000E+00 0. -1.
</event>
<event>
 7    1  0.2414091E-009  0.4778728E+02  0.7816164E-02  0.1312668E+00
        -11   -1    0    0    0    0  0.00000000000E+00  0.00000000000E+00  0.45593999997E+02  0.45594000000E+02  0.51100000000E-03 0.  1.
         11   -1    0    0    0    0 -0.00000000000E+00 -0.00000000000E+00 -0.45593999997E+02  0.45594000000E+02  0.51100000000E-03 0. -1.
    9900012    2    1    2    0    0  0.13763349484E+02 -0.14755120657E+02  0.38424985795E+02  0.47787275260E+02  0.20000019221E+02 0.  0.
         12    1    1    2    0    0 -0.13763349484E+02  0.14755120657E+02 -0.38424985795E+02  0.43400724740E+02  0.00000000000E+00 0. -1.
         11    1    3    3    0    0  0.78178433667E+01 -0.10194288393E+02  0.35781977296E+02  0.38018312564E+02  0.51100000000E-03 0.  1.
        -11    1    3    3    0    0  0.28300623392E+01  0.77476663726E+00  0.20130848318E+01  0.35583742056E+01  0.51100000000E-03 0. -1.
        -12    1    3    3    0    0  0.31154437778E+01 -0.53355989018E+01  0.62992366690E+00  0.62105884905E+01  0.00000000000E+00 0.  1.
</event>
<event>
 7    1  0.2414091E-009  0.4778726E+02  0.7816164E-02  0.1312668E+00
        -11   -1    0    0    0    0  0.00000000000E+00  0.00000000000E+00  0.45593999997E+02  0.45594000000E+02  0.51100000000E-03 0. -1.
         11   -1    0    0    0    0 -0.00000000000E+00 -0.00000000000E+00 -0.45593999997E+02  0.45594000000E+02  0.51100000000E-03 0.  1.
    9900012    2    1    2    0    0 -0.29807983196E+02  0.31164328561E+02 -0.48880044097E+01  0.47787264707E+02  0.19999971105E+02 0.  0.
         12    1    1    2    0    0  0.29807983196E+02 -0.31164328561E+02  0.48880044097E+01  0.43400735293E+02  0.00000000000E+00 0. -1.
         11    1    3    3    0    0 -0.82545589594E+01  0.56474527285E+01 -0.30641943357E+01  0.10460437521E+02  0.51100000000E-03 0. -1.
        -11    1    3    3    0    0 -0.23630315643E+02  0.25709976902E+02 -0.27838985191E+01  0.35030626899E+02  0.51100000000E-03 0.  1.
         12    1    3    3    0    0  0.20768914069E+01 -0.19310106910E+00  0.96008844507E+00  0.22962002877E+01  0.00000000000E+00 0. -1.
</event>
<event>
 7    1  0.2414091E-009  0.4778727E+02  0.7816164E-02  0.1312668E+00
        -11   -1    0    0    0    0  0.00000000000E+00  0.00000000000E+00  0.45593999997E+02  0.45594000000E+02  0.51100000000E-03 0.  1.
         11   -1    0    0    0    0 -0.00000000000E+00 -0.00000000000E+00 -0.45593999997E+02  0.45594000000E+02  0.51100000000E-03 0. -1.
    9900012    2    1    2    0    0  0.28557243745E+02 -0.38675572642E+01  0.32452263220E+02  0.47787267776E+02  0.19999985097E+02 0.  0.
         12    1    1    2    0    0 -0.28557243745E+02  0.38675572642E+01 -0.32452263220E+02  0.43400732224E+02  0.00000000000E+00 0. -1.
         11    1    3    3    0    0  0.22153616136E+02  0.33027554184E+01  0.15291901836E+02  0.27120714652E+02  0.51100000000E-03 0. -1.
        -11    1    3    3    0    0  0.48377188303E+01 -0.13600718206E+01  0.10793279605E+02  0.11905805463E+02  0.51100000000E-03 0.  1.
         12    1    3    3    0    0  0.15659087791E+01 -0.58102408619E+01  0.63670817794E+01  0.87607476601E+01  0.00000000000E+00 0. -1.
</event>
<event>
 7    1  0.2414091E-009  0.4778724E+02  0.7816164E-02  0.1312668E+00
        -11   -1    0    0    0    0  0.00000000000E+00  0.00000000000E+00  0.45593999997E+02  0.45594000000E+02  0.51100000000E-03 0. -1.
         11   -1    0    0    0    0 -0.00000000000E+00 -0.00000000000E+00 -0.45593999997E+02  0.45594000000E+02  0.51100000000E-03 0.  1.
    9900012    2    1    2    0    0  0.25063276240E+02 -0.32673873655E+02 -0.13706778983E+02  0.47787243951E+02  0.19999876472E+02 0.  0.
         12    1    1    2    0    0 -0.25063276240E+02  0.32673873655E+02  0.13706778983E+02  0.43400756049E+02  0.00000000000E+00 0. -1.
         11    1    3    3    0    0  0.48058394763E+01 -0.10163449167E+02 -0.77776768933E+01  0.13670554127E+02  0.51100000000E-03 0. -1.
        -11    1    3    3    0    0  0.17586544001E+02 -0.23798695344E+02 -0.78102716797E+01  0.30604979561E+02  0.51100000000E-03 0.  1.
        -12    1    3    3    0    0  0.26708927619E+01  0.12882708552E+01  0.18811695900E+01  0.35117102625E+01  0.00000000000E+00 0.  1.
</event>
<event>
 7    1  0.2835835E-009  0.4778728E+02  0.7816164E-02  0.1312668E+00
        -11   -1    0    0    0    0  0.00000000000E+00  0.00000000000E+00  0.45593999997E+02  0.45594000000E+02  0.51100000000E-03 0. -1.
         11   -1    0    0    0    0 -0.00000000000E+00 -0.00000000000E+00 -0.45593999997E+02  0.45594000000E+02  0.51100000000E-03 0.  1.
    9900012    2    1    2    0    0  0.26796456431E+02  0.40963341678E+01 -0.33893847105E+02  0.47787275323E+02  0.20000019510E+02 0.  0.
         12    1    1    2    0    0 -0.26796456431E+02 -0.40963341678E+01  0.33893847105E+02  0.43400724677E+02  0.00000000000E+00 0. -1.
         11    1    3    3    0    0 -0.13964370522E+01  0.13087741249E+01 -0.44432696095E+01  0.48379304702E+01  0.51100000000E-03 0. -1.
        -11    1    3    3    0    0  0.10619612073E+02  0.21502520376E+01 -0.20570305599E+02  0.23249456276E+02  0.51100000000E-03 0.  1.
         12    1    3    3    0    0  0.17573281410E+02  0.63730800538E+00 -0.88802718962E+01  0.19699888577E+02  0.00000000000E+00 0. -1.
</event>
<event>
 7    1  0.2414091E-009  0.4778726E+02  0.7816164E-02  0.1312668E+00
        -11   -1    0    0    0    0  0.00000000000E+00  0.00000000000E+00  0.45593999997E+02  0.45594000000E+02  0.51100000000E-03 0.  1.
         11   -1    0    0    0    0 -0.00000000000E+00 -0.00000000000E+00 -0.45593999997E+02  0.45594000000E+02  0.51100000000E-03 0. -1.
    9900012    2    1    2    0    0 -0.64082522628E+01 -0.46172836758E+01  0.42675977677E+02  0.47787261801E+02  0.19999957854E+02 0.  0.
         12    1    1    2    0    0  0.64082522628E+01  0.46172836758E+01 -0.42675977677E+02  0.43400738199E+02  0.00000000000E+00 0. -1.
         11    1    3    3    0    0  0.34143085178E-01  0.39443890197E+01  0.11859240737E+02  0.12498038311E+02  0.51100000000E-03 0. -1.
        -11    1    3    3    0    0 -0.13068873935E+01 -0.56900555191E+01  0.28289401390E+02  0.28885548597E+02  0.51100000000E-03 0.  1.
         12    1    3    3    0    0 -0.51355079544E+01 -0.28716171763E+01  0.25273355490E+01  0.64036748930E+01  0.00000000000E+00 0. -1.
</event>
<event>
 7    1  0.2414091E-009  0.4778727E+02  0.7816164E-02  0.1312668E+00
        -11   -1    0    0    0    0  0.00000000000E+00  0.00000000000E+00  0.45593999997E+02  0.45594000000E+02  0.51100000000E-03 0.  1.
         11   -1    0    0    0    0 -0.00000000000E+00 -0.00000000000E+00 -0.45593999997E+02  0.45594000000E+02  0.51100000000E-03 0. -1.
    9900012    2    1    2    0    0 -0.32870032648E+02  0.32420323759E+00  0.28338653299E+02  0.47787269306E+02  0.19999992073E+02 0.  0.
         12    1    1    2    0    0  0.32870032648E+02 -0.32420323759E+00 -0.28338653299E+02  0.43400730694E+02  0.00000000000E+00 0. -1.
         11    1    3    3    0    0 -0.68814751934E+01  0.14198675767E+01  0.74602246033E+01  0.10248203558E+02  0.51100000000E-03 0. -1.
        -11    1    3    3    0    0 -0.11199942809E+02  0.68057653751E+00  0.19606196130E+02  0.22589927629E+02  0.51100000000E-03 0.  1.
         12    1    3    3    0    0 -0.14788614646E+02 -0.17762408766E+01  0.12722325653E+01  0.14949138119E+02  0.00000000000E+00 0. -1.
</event>
<event>
 7    1  0.2414091E-009  0.4778727E+02  0.7816164E-02  0.1312668E+00
        -11   -1    0    0    0    0  0.00000000000E+00  0.00000000000E+00  0.45593999997E+02  0.45594000000E+02  0.51100000000E-03 0.  1.
         11   -1    0    0    0    0 -0.00000000000E+00 -0.00000000000E+00 -0.45593999997E+02  0.45594000000E+02  0.51100000000E-03 0. -1.
    9900012    2    1    2    0    0  0.12161270344E+02 -0.22355909200E+02  0.35155941961E+02  0.47787269272E+02  0.19999991919E+02 0.  0.
         12    1    1    2    0    0 -0.12161270344E+02  0.22355909200E+02 -0.35155941961E+02  0.43400730728E+02  0.00000000000E+00 0. -1.
         11    1    3    3    0    0  0.54012410614E+01 -0.14102292865E+02  0.16387451911E+02  0.22284448602E+02  0.51100000000E-03 0. -1.
        -11    1    3    3    0    0 -0.39874776082E+01 -0.36502051694E+01  0.76581501671E+01  0.93739660602E+01  0.51100000000E-03 0.  1.
         12    1    3    3    0    0  0.10747506891E+02 -0.46034111657E+01  0.11110339882E+02  0.16128854610E+02  0.00000000000E+00 0. -1.
</event>
<event>
 7    1  0.2414091E-009  0.4778727E+02  0.7816164E-02  0.1312668E+00
        -11   -1    0    0    0    0  0.00000000000E+00  0.00000000000E+00  0.45593999997E+02  0.45594000000E+02  0.51100000000E-03 0.  1.
         11   -1    0    0    0    0 -0.00000000000E+00 -0.00000000000E+00 -0.45593999997E+02  0.45594000000E+02  0.51100000000E-03 0. -1.
    9900012    2    1    2    0    0  0.11510806398E+02  0.32870725515E+02  0.25896714019E+02  0.47787273546E+02  0.20000011404E+02 0.  0.
         12    1    1    2    0    0 -0.11510806398E+02 -0.32870725515E+02 -0.25896714019E+02  0.43400726454E+02  0.00000000000E+00 0. -1.
         11    1    3    3    0    0  0.16115019717E+01 -0.41236634902E+00  0.12350983258E+00  0.16680046614E+01  0.51100000000E-03 0. -1.
        -11    1    3    3    0    0  0.25203034480E+01  0.21550996104E+02  0.70299077213E+01  0.22808265287E+02  0.51100000000E-03 0.  1.
         12    1    3    3    0    0  0.73790009782E+01  0.11732095759E+02  0.18743296465E+02  0.23311003597E+02  0.00000000000E+00 0. -1.
</event>
<event>
 7    1  0.2414091E-009  0.4778727E+02  0.7816164E-02  0.1312668E+00
        -11   -1    0    0    0    0  0.00000000000E+00  0.00000000000E+00  0.45593999997E+02  0.45594000000E+02  0.51100000000E-03 0. -1.
         11   -1    0    0    0    0 -0.00000000000E+00 -0.00000000000E+00 -0.45593999997E+02  0.45594000000E+02  0.51100000000E-03 0.  1.
    9900012    2    1    2    0    0 -0.25896737681E+02  0.27428330603E+02 -0.21463202993E+02  0.47787269305E+02  0.19999992067E+02 0.  0.
         12    1    1    2    0    0  0.25896737681E+02 -0.27428330603E+02  0.21463202993E+02  0.43400730695E+02  0.00000000000E+00 0. -1.
         11    1    3    3    0    0 -0.28725005874E+01  0.70048858425E+01  0.37570420176E+00  0.75802928175E+01  0.51100000000E-03 0. -1.
        -11    1    3    3    0    0 -0.93234964611E+01  0.16692919612E+02 -0.92927008603E+01  0.21258773270E+02  0.51100000000E-03 0.  1.
        -12    1    3    3    0    0 -0.13700740632E+02  0.37305251491E+01 -0.12546206335E+02  0.18948203217E+02  0.00000000000E+00 0.  1.
</event>
<event>
 7    1  0.2414091E-009  0.4778727E+02  0.7816164E-02  0.1312668E+00
        -11   -1    0    0    0    0  0.00000000000E+00  0.00000000000E+00  0.45593999997E+02  0.45594000000E+02  0.51100000000E-03 0.  1.
         11   -1    0    0    0    0 -0.00000000000E+00 -0.00000000000E+00 -0.45593999997E+02  0.45594000000E+02  0.51100000000E-03 0. -1.
    9900012    2    1    2    0    0 -0.19122229747E+02 -0.38590446478E+02 -0.53610697622E+01  0.47787270757E+02  0.19999998690E+02 0.  0.
         12    1    1    2    0    0  0.19122229747E+02  0.38590446478E+02  0.53610697622E+01  0.43400729243E+02  0.00000000000E+00 0. -1.
         11    1    3    3    0    0 -0.73098381342E+01 -0.21956185281E+02  0.30454163950E+00  0.23143045424E+02  0.51100000000E-03 0. -1.
        -11    1    3    3    0    0 -0.41283369194E+01 -0.66653046212E+01  0.39743902510E+01  0.87900642513E+01  0.51100000000E-03 0.  1.
        -12    1    3    3    0    0 -0.76840546933E+01 -0.99689565753E+01 -0.96400016527E+01  0.15854161081E+02  0.00000000000E+00 0.  1.
</event>
<event>
 7    1  0.2414091E-009  0.4778727E+02  0.7816164E-02  0.1312668E+00
        -11   -1    0    0    0    0  0.00000000000E+00  0.00000000000E+00  0.45593999997E+02  0.45594000000E+02  0.51100000000E-03 0.  1.
         11   -1    0    0    0    0 -0.00000000000E+00 -0.00000000000E+00 -0.45593999997E+02  0.45594000000E+02  0.51100000000E-03 0. -1.
    9900012    2    1    2    0    0 -0.38247905911E+02  0.15034779895E+02  0.13952647801E+02  0.47787270816E+02  0.19999998957E+02 0.  0.
         12    1    1    2    0    0  0.38247905911E+02 -0.15034779895E+02 -0.13952647801E+02  0.43400729184E+02  0.00000000000E+00 0. -1.
         11    1    3    3    0    0 -0.90928996940E+01  0.74320261761E+01  0.84012751629E+01  0.14439434288E+02  0.51100000000E-03 0.  1.
        -11    1    3    3    0    0 -0.89911969733E+01 -0.21693809498E+01  0.58406447238E+01  0.10938965571E+02  0.51100000000E-03 0. -1.
        -12    1    3    3    0    0 -0.20163809244E+02  0.97721346685E+01 -0.28927208593E+00  0.22408870957E+02  0.00000000000E+00 0.  1.
</event>
<event>
 7    1  0.2414091E-009  0.4778727E+02  0.7816164E-02  0.1312668E+00
        -11   -1    0    0    0    0  0.00000000000E+00  0.00000000000E+00  0.45593999997E+02  0.45594000000E+02  0.51100000000E-03 0.  1.
         11   -1    0    0    0    0 -0.00000000000E+00 -0.00000000000E+00 -0.45593999997E+02  0.45594000000E+02  0.51100000000E-03 0. -1.
    9900012    2    1    2    0    0  0.14833340816E+02 -0.98095349836E+01  0.39590002638E+02  0.47787270914E+02  0.19999999404E+02 0.  0.
         12    1    1    2    0    0 -0.14833340816E+02  0.98095349836E+01 -0.39590002638E+02  0.43400729086E+02  0.00000000000E+00 0. -1.
         11    1    3    3    0    0  0.21437690200E+01 -0.63189646948E+01  0.63986173274E+01  0.92448561043E+01  0.51100000000E-03 0. -1.
        -11    1    3    3    0    0 -0.25709534674E+01 -0.27525061040E+01  0.34568707975E+01  0.51123426681E+01  0.51100000000E-03 0.  1.
        -12    1    3    3    0    0  0.15260525263E+02 -0.73806418471E+00  0.29734514513E+02  0.33430072141E+02  0.00000000000E+00 0.  1.
</event>
<event>
 7    1  0.2414091E-009  0.4778727E+02  0.7816164E-02  0.1312668E+00
        -11   -1    0    0    0    0  0.00000000000E+00  0.00000000000E+00  0.45593999997E+02  0.45594000000E+02  0.51100000000E-03 0.  1.
         11   -1    0    0    0    0 -0.00000000000E+00 -0.00000000000E+00 -0.45593999997E+02  0.45594000000E+02  0.51100000000E-03 0. -1.
    9900012    2    1    2    0    0  0.57510643866E+01  0.37470419034E+02  0.21130928208E+02  0.47787272229E+02  0.20000005399E+02 0.  0.
         12    1    1    2    0    0 -0.57510643866E+01 -0.37470419034E+02 -0.21130928208E+02  0.43400727771E+02  0.00000000000E+00 0. -1.
         11    1    3    3    0    0 -0.20709706919E+01  0.47760784428E+01 -0.16016634928E+01  0.54465742540E+01  0.51100000000E-03 0. -1.
        -11    1    3    3    0    0 -0.13334946200E+01  0.17848987983E+02  0.84293336033E+01  0.19784292891E+02  0.51100000000E-03 0.  1.
         12    1    3    3    0    0  0.91555296986E+01  0.14845352608E+02  0.14303258097E+02  0.22556405084E+02  0.00000000000E+00 0. -1.
</event>
<event>
 7    1  0.2414091E-009  0.4778727E+02  0.7816164E-02  0.1312668E+00
        -11   -1    0    0    0    0  0.00000000000E+00  0.00000000000E+00  0.45593999997E+02  0.45594000000E+02  0.51100000000E-03 0.  1.
         11   -1    0    0    0    0 -0.00000000000E+00 -0.00000000000E+00 -0.45593999997E+02  0.45594000000E+02  0.51100000000E-03 0. -1.
    9900012    2    1    2    0    0  0.35429472211E+02 -0.48055791817E+01  0.24602481087E+02  0.47787272263E+02  0.20000005557E+02 0.  0.
         12    1    1    2    0    0 -0.35429472211E+02  0.48055791817E+01 -0.24602481087E+02  0.43400727737E+02  0.00000000000E+00 0. -1.
         11    1    3    3    0    0  0.19040218610E+02  0.49093517048E+01  0.13984120049E+02  0.24128557203E+02  0.51100000000E-03 0. -1.
        -11    1    3    3    0    0  0.58626760754E+01 -0.29717617145E+01  0.88639638035E+01  0.11035043861E+02  0.51100000000E-03 0.  1.
        -12    1    3    3    0    0  0.10526577526E+02 -0.67431691719E+01  0.17543972350E+01  0.12623671199E+02  0.00000000000E+00 0.  1.
</event>
<event>
 7    1  0.2414091E-009  0.4778727E+02  0.7816164E-02  0.1312668E+00
        -11   -1    0    0    0    0  0.00000000000E+00  0.00000000000E+00  0.45593999997E+02  0.45594000000E+02  0.51100000000E-03 0. -1.
         11   -1    0    0    0    0 -0.00000000000E+00 -0.00000000000E+00 -0.45593999997E+02  0.45594000000E+02  0.51100000000E-03 0.  1.
    9900012    2    1    2    0    0  0.28039803751E+02  0.32084599431E+02 -0.82444803352E+01  0.47787267621E+02  0.19999984391E+02 0.  0.
         12    1    1    2    0    0 -0.28039803751E+02 -0.32084599431E+02  0.82444803352E+01  0.43400732379E+02  0.00000000000E+00 0. -1.
         11    1    3    3    0    0  0.19230215127E+02  0.11667859032E+02 -0.61175037670E+01  0.23310168614E+02  0.51100000000E-03 0. -1.
        -11    1    3    3    0    0  0.52578960802E+01  0.92198303254E+01 -0.58949062434E+01  0.12140867444E+02  0.51100000000E-03 0.  1.
         12    1    3    3    0    0  0.35516925435E+01  0.11196910074E+02  0.37679296752E+01  0.12336231563E+02  0.00000000000E+00 0. -1.
</event>
<event>
 7    1  0.2414091E-009  0.4778727E+02  0.7816164E-02  0.1312668E+00
        -11   -1    0    0    0    0  0.00000000000E+00  0.00000000000E+00  0.45593999997E+02  0.45594000000E+02  0.51100000000E-03 0.  1.
         11   -1    0    0    0    0 -0.00000000000E+00 -0.00000000000E+00 -0.45593999997E+02  0.45594000000E+02  0.51100000000E-03 0. -1.
    9900012    2    1    2    0    0  0.15393545002E+02 -0.40041681025E+02  0.65822374431E+01  0.47787270780E+02  0.19999998795E+02 0.  0.
         12    1    1    2    0    0 -0.15393545002E+02  0.40041681025E+02 -0.65822374431E+01  0.43400729220E+02  0.00000000000E+00 0. -1.
         11    1    3    3    0    0  0.36990096198E+01 -0.14779909026E+01  0.17603467010E+01  0.43549913943E+01  0.51100000000E-03 0.  1.
        -11    1    3    3    0    0  0.13155481560E+02 -0.17924335827E+02  0.21677622654E+00  0.22235006232E+02  0.51100000000E-03 0. -1.
         12    1    3    3    0    0 -0.14609461780E+01 -0.20639354296E+02  0.46051145155E+01  0.21197273154E+02  0.00000000000E+00 0. -1.
</event>
<event>
 7    1  0.2414091E-009  0.4778727E+02  0.7816164E-02  0.1312668E+00
        -11   -1    0    0    0    0  0.00000000000E+00  0.00000000000E+00  0.45593999997E+02  0.45594000000E+02  0.51100000000E-03 0.  1.
         11   -1    0    0    0    0 -0.00000000000E+00 -0.00000000000E+00 -0.45593999997E+02  0.45594000000E+02  0.51100000000E-03 0. -1.
    9900012    2    1    2    0    0 -0.91025624664E+01 -0.85554185620E+01  0.41564060200E+02  0.47787275000E+02  0.20000018035E+02 0.  0.
         12    1    1    2    0    0  0.91025624664E+01  0.85554185620E+01 -0.41564060200E+02  0.43400725000E+02  0.00000000000E+00 0. -1.
         11    1    3    3    0    0 -0.81134807077E+00 -0.25723820884E+01  0.36253124050E+01  0.45186641384E+01  0.51100000000E-03 0. -1.
        -11    1    3    3    0    0 -0.88233460948E+01  0.21825463964E-01  0.35801222850E+02  0.36872475784E+02  0.51100000000E-03 0.  1.
        -12    1    3    3    0    0  0.53213169919E+00 -0.60048619376E+01  0.21375249452E+01  0.63961350772E+01  0.00000000000E+00 0.  1.
</event>
<event>
 7    1  0.2414091E-009  0.4778727E+02  0.7816164E-02  0.1312668E+00
        -11   -1    0    0    0    0  0.00000000000E+00  0.00000000000E+00  0.45593999997E+02  0.45594000000E+02  0.51100000000E-03 0.  1.
         11   -1    0    0    0    0 -0.00000000000E+00 -0.00000000000E+00 -0.45593999997E+02  0.45594000000E+02  0.51100000000E-03 0. -1.
    9900012    2    1    2    0    0  0.35342520319E+02  0.14257320772E+02  0.20766758403E+02  0.47787271980E+02  0.20000004267E+02 0.  0.
         12    1    1    2    0    0 -0.35342520319E+02 -0.14257320772E+02 -0.20766758403E+02  0.43400728020E+02  0.00000000000E+00 0. -1.
         11    1    3    3    0    0  0.28345868184E+02  0.78781164896E+01  0.22203599075E+02  0.36858550903E+02  0.51100000000E-03 0. -1.
        -11    1    3    3    0    0  0.10774886535E+01  0.18906859778E+01  0.18014317910E+01  0.28250366411E+01  0.51100000000E-03 0.  1.
         12    1    3    3    0    0  0.59191634812E+01  0.44885183046E+01 -0.32382724633E+01  0.81036844358E+01  0.00000000000E+00 0. -1.
</event>
<event>
 7    1  0.2414091E-009  0.4778727E+02  0.7816164E-02  0.1312668E+00
        -11   -1    0    0    0    0  0.00000000000E+00  0.00000000000E+00  0.45593999997E+02  0.45594000000E+02  0.51100000000E-03 0. -1.
         11   -1    0    0    0    0 -0.00000000000E+00 -0.00000000000E+00 -0.45593999997E+02  0.45594000000E+02  0.51100000000E-03 0.  1.
    9900012    2    1    2    0    0 -0.37741746972E+02  0.21184985290E+02 -0.32218029838E+01  0.47787273269E+02  0.20000010144E+02 0.  0.
         12    1    1    2    0    0  0.37741746972E+02 -0.21184985290E+02  0.32218029838E+01  0.43400726731E+02  0.00000000000E+00 0. -1.
         11    1    3    3    0    0 -0.33202192566E+01  0.55628532577E+01  0.31787845412E+01  0.72162222595E+01  0.51100000000E-03 0. -1.
        -11    1    3    3    0    0 -0.38780189068E+01  0.25181301346E+01 -0.56843850240E+01  0.73274991217E+01  0.51100000000E-03 0.  1.
        -12    1    3    3    0    0 -0.30543508809E+02  0.13104001898E+02 -0.71620250100E+00  0.33243551888E+02  0.00000000000E+00 0.  1.
</event>
<event>
 7    1  0.2414091E-009  0.4778727E+02  0.7816164E-02  0.1312668E+00
        -11   -1    0    0    0    0  0.00000000000E+00  0.00000000000E+00  0.45593999997E+02  0.45594000000E+02  0.51100000000E-03 0.  1.
         11   -1    0    0    0    0 -0.00000000000E+00 -0.00000000000E+00 -0.45593999997E+02  0.45594000000E+02  0.51100000000E-03 0. -1.
    9900012    2    1    2    0    0  0.18109971322E+02  0.20500189812E+02  0.33695615923E+02  0.47787269867E+02  0.19999994632E+02 0.  0.
         12    1    1    2    0    0 -0.18109971322E+02 -0.20500189812E+02 -0.33695615923E+02  0.43400730133E+02  0.00000000000E+00 0. -1.
         11    1    3    3    0    0  0.64639272980E+00 -0.27752872271E+01  0.71933901267E+01  0.77372414031E+01  0.51100000000E-03 0. -1.
        -11    1    3    3    0    0  0.61021845675E+01  0.35828789857E+01  0.84363772370E+01  0.11011182474E+02  0.51100000000E-03 0.  1.
        -12    1    3    3    0    0  0.11361394025E+02  0.19692598053E+02  0.18065848560E+02  0.29038845990E+02  0.00000000000E+00 0.  1.
</event>
<event>
 7    1  0.2414091E-009  0.4778727E+02  0.7816164E-02  0.1312668E+00
        -11   -1    0    0    0    0  0.00000000000E+00  0.00000000000E+00  0.45593999997E+02  0.45594000000E+02  0.51100000000E-03 0.  1.
         11   -1    0    0    0    0 -0.00000000000E+00 -0.00000000000E+00 -0.45593999997E+02  0.45594000000E+02  0.51100000000E-03 0. -1.
    9900012    2    1    2    0    0  0.15307354500E+01  0.16927951844E+02  0.39934002161E+02  0.47787271513E+02  0.20000002136E+02 0.  0.
         12    1    1    2    0    0 -0.15307354500E+01 -0.16927951844E+02 -0.39934002161E+02  0.43400728487E+02  0.00000000000E+00 0. -1.
         11    1    3    3    0    0  0.14481999684E+01  0.60174201594E+01  0.12431027907E+02  0.13886579262E+02  0.51100000000E-03 0. -1.
        -11    1    3    3    0    0  0.79024302506E+01  0.29355035012E+01  0.93722403137E+01  0.12605731769E+02  0.51100000000E-03 0.  1.
         12    1    3    3    0    0 -0.78198947691E+01  0.79750281833E+01  0.18130733940E+02  0.21294960482E+02  0.00000000000E+00 0. -1.
</event>
<event>
 7    1  0.2414091E-009  0.4778727E+02  0.7816164E-02  0.1312668E+00
        -11   -1    0    0    0    0  0.00000000000E+00  0.00000000000E+00  0.45593999997E+02  0.45594000000E+02  0.51100000000E-03 0.  1.
         11   -1    0    0    0    0 -0.00000000000E+00 -0.00000000000E+00 -0.45593999997E+02  0.45594000000E+02  0.51100000000E-03 0. -1.
    9900012    2    1    2    0    0 -0.18806015012E+02  0.33253794757E+02  0.20594716090E+02  0.47787269623E+02  0.19999993521E+02 0.  0.
         12    1    1    2    0    0  0.18806015012E+02 -0.33253794757E+02 -0.20594716090E+02  0.43400730377E+02  0.00000000000E+00 0. -1.
         11    1    3    3    0    0 -0.65122300443E+00  0.12505202123E+01 -0.29098158850E+00  0.14396397983E+01  0.51100000000E-03 0. -1.
        -11    1    3    3    0    0  0.39180778039E+01  0.31234911038E+01  0.21259440688E+01  0.54430844929E+01  0.51100000000E-03 0.  1.
         12    1    3    3    0    0 -0.22072869812E+02  0.28879783441E+02  0.18759753609E+02  0.40904545332E+02  0.00000000000E+00 0. -1.
</event>
<event>
 7    1  0.2414091E-009  0.4778727E+02  0.7816164E-02  0.1312668E+00
        -11   -1    0    0    0    0  0.00000000000E+00  0.00000000000E+00  0.45593999997E+02  0.45594000000E+02  0.51100000000E-03 0.  1.
         11   -1    0    0    0    0 -0.00000000000E+00 -0.00000000000E+00 -0.45593999997E+02  0.45594000000E+02  0.51100000000E-03 0. -1.
    9900012    2    1    2    0    0  0.25626597376E+02 -0.31180652856E+02 -0.15958310919E+02  0.47787270825E+02  0.19999998998E+02 0.  0.
         12    1    1    2    0    0 -0.25626597376E+02  0.31180652856E+02  0.15958310919E+02  0.43400729175E+02  0.00000000000E+00 0. -1.
         11    1    3    3    0    0  0.10890448891E+02 -0.19209300043E+02 -0.10336308716E+02  0.24381106688E+02  0.51100000000E-03 0. -1.
        -11    1    3    3    0    0  0.76232129576E+01 -0.13408414530E+02 -0.44700180314E+01  0.16058643077E+02  0.51100000000E-03 0.  1.
         12    1    3    3    0    0  0.71129355272E+01  0.14370617175E+01 -0.11519841711E+01  0.73475210598E+01  0.00000000000E+00 0. -1.
</event>
<event>
 7    1  0.2414091E-009  0.4778727E+02  0.7816164E-02  0.1312668E+00
        -11   -1    0    0    0    0  0.00000000000E+00  0.00000000000E+00  0.45593999997E+02  0.45594000000E+02  0.51100000000E-03 0.  1.
         11   -1    0    0    0    0 -0.00000000000E+00 -0.00000000000E+00 -0.45593999997E+02  0.45594000000E+02  0.51100000000E-03 0. -1.
    9900012    2    1    2    0    0  0.31322297465E+02 -0.17924378739E+02  0.24109206795E+02  0.47787268163E+02  0.19999986863E+02 0.  0.
         12    1    1    2    0    0 -0.31322297465E+02  0.17924378739E+02 -0.24109206795E+02  0.43400731837E+02  0.00000000000E+00 0. -1.
         11    1    3    3    0    0  0.12142828773E+02 -0.81621113096E+01  0.75692767488E+01  0.16473078110E+02  0.51100000000E-03 0. -1.
        -11    1    3    3    0    0  0.40169797345E+01 -0.10033240235E+02  0.10254810408E+02  0.14898428527E+02  0.51100000000E-03 0.  1.
         12    1    3    3    0    0  0.15162488957E+02  0.27097280539E+00  0.62851196389E+01  0.16415761527E+02  0.00000000000E+00 0. -1.
</event>
<event>
 7    1  0.2414091E-009  0.4778728E+02  0.7816164E-02  0.1312668E+00
        -11   -1    0    0    0    0  0.00000000000E+00  0.00000000000E+00  0.45593999997E+02  0.45594000000E+02  0.51100000000E-03 0. -1.
         11   -1    0    0    0    0 -0.00000000000E+00 -0.00000000000E+00 -0.45593999997E+02  0.45594000000E+02  0.51100000000E-03 0.  1.
    9900012    2    1    2    0    0 -0.17170387924E+02 -0.36768581255E+02 -0.15390642453E+02  0.47787278070E+02  0.20000032031E+02 0.  0.
         12    1    1    2    0    0  0.17170387924E+02  0.36768581255E+02  0.15390642453E+02  0.43400721930E+02  0.00000000000E+00 0. -1.
         11    1    3    3    0    0 -0.41060898817E+01 -0.27681823146E+01 -0.64441706183E+00  0.49938042667E+01  0.51100000000E-03 0. -1.
        -11    1    3    3    0    0 -0.10082801777E+02 -0.35448027059E+02 -0.13361236312E+02  0.39201379442E+02  0.51100000000E-03 0.  1.
        -12    1    3    3    0    0 -0.29814962654E+01  0.14476281190E+01 -0.13849890793E+01  0.35920943614E+01  0.00000000000E+00 0.  1.
</event>
<event>
 7    1  0.2414091E-009  0.4778728E+02  0.7816164E-02  0.1312668E+00
        -11   -1    0    0    0    0  0.00000000000E+00  0.00000000000E+00  0.45593999997E+02  0.45594000000E+02  0.51100000000E-03 0.  1.
         11   -1    0    0    0    0 -0.00000000000E+00 -0.00000000000E+00 -0.45593999997E+02  0.45594000000E+02  0.51100000000E-03 0. -1.
    9900012    2    1    2    0    0  0.23866568077E+02  0.35739793905E+02  0.60560826978E+01  0.47787284824E+02  0.20000062824E+02 0.  0.
         12    1    1    2    0    0 -0.23866568077E+02 -0.35739793905E+02 -0.60560826978E+01  0.43400715176E+02  0.00000000000E+00 0. -1.
         11    1    3    3    0    0  0.79751354364E+01  0.10384455489E+02 -0.19363303012E+01  0.13235901040E+02  0.51100000000E-03 0. -1.
        -11    1    3    3    0    0  0.14997027819E+02  0.23982989906E+02  0.20195273577E+01  0.28357946668E+02  0.51100000000E-03 0.  1.
         12    1    3    3    0    0  0.89440482159E+00  0.13723485103E+01  0.59728856413E+01  0.61934371154E+01  0.00000000000E+00 0. -1.
</event>
<event>
 7    1  0.2414091E-009  0.4778727E+02  0.7816164E-02  0.1312668E+00
        -11   -1    0    0    0    0  0.00000000000E+00  0.00000000000E+00  0.45593999997E+02  0.45594000000E+02  0.51100000000E-03 0. -1.
         11   -1    0    0    0    0 -0.00000000000E+00 -0.00000000000E+00 -0.45593999997E+02  0.45594000000E+02  0.51100000000E-03 0.  1.
    9900012    2    1    2    0    0 -0.23046370458E+02 -0.12502166608E+01 -0.36754937324E+02  0.47787266704E+02  0.19999980210E+02 0.  0.
         12    1    1    2    0    0  0.23046370458E+02  0.12502166608E+01  0.36754937324E+02  0.43400733296E+02  0.00000000000E+00 0. -1.
         11    1    3    3    0    0  0.31431125105E+01  0.70850975958E+00 -0.30559453760E+01  0.44407144398E+01  0.51100000000E-03 0.  1.
        -11    1    3    3    0    0 -0.82394520102E+01  0.20737594594E-01 -0.56634377920E+01  0.99981762018E+01  0.51100000000E-03 0. -1.
        -12    1    3    3    0    0 -0.17950030958E+02 -0.19794640150E+01 -0.28035554156E+02  0.33348376062E+02  0.00000000000E+00 0.  1.
</event>
<event>
 7    1  0.2414091E-009  0.4778727E+02  0.7816164E-02  0.1312668E+00
        -11   -1    0    0    0    0  0.00000000000E+00  0.00000000000E+00  0.45593999997E+02  0.45594000000E+02  0.51100000000E-03 0.  1.
         11   -1    0    0    0    0 -0.00000000000E+00 -0.00000000000E+00 -0.45593999997E+02  0.45594000000E+02  0.51100000000E-03 0. -1.
    9900012    2    1    2    0    0  0.12449311743E+02  0.14602382890E+02  0.38928246837E+02  0.47787270159E+02  0.19999995963E+02 0.  0.
         12    1    1    2    0    0 -0.12449311743E+02 -0.14602382890E+02 -0.38928246837E+02  0.43400729841E+02  0.00000000000E+00 0. -1.
         11    1    3    3    0    0  0.65643903135E+01  0.20698781538E+01  0.65253160702E+01  0.94844802618E+01  0.51100000000E-03 0. -1.
        -11    1    3    3    0    0  0.64975569200E+01  0.31353344578E+01  0.25830111155E+02  0.26818710085E+02  0.51100000000E-03 0.  1.
         12    1    3    3    0    0 -0.61263549052E+00  0.93971702781E+01  0.65728196122E+01  0.11484079812E+02  0.00000000000E+00 0. -1.
</event>
<event>
 7    1  0.2414091E-009  0.4778726E+02  0.7816164E-02  0.1312668E+00
        -11   -1    0    0    0    0  0.00000000000E+00  0.00000000000E+00  0.45593999997E+02  0.45594000000E+02  0.51100000000E-03 0.  1.
         11   -1    0    0    0    0 -0.00000000000E+00 -0.00000000000E+00 -0.45593999997E+02  0.45594000000E+02  0.51100000000E-03 0. -1.
    9900012    2    1    2    0    0  0.16780759754E+02  0.27793515959E+02  0.28801924170E+02  0.47787259647E+02  0.19999948036E+02 0.  0.
         12    1    1    2    0    0 -0.16780759754E+02 -0.27793515959E+02 -0.28801924170E+02  0.43400740353E+02  0.00000000000E+00 0. -1.
         11    1    3    3    0    0  0.56902260031E+01  0.98861685537E+01  0.13178957705E+02  0.17429857346E+02  0.51100000000E-03 0. -1.
        -11    1    3    3    0    0  0.87753479067E+01  0.19252274011E+02  0.17184918781E+02  0.27257626809E+02  0.51100000000E-03 0.  1.
         12    1    3    3    0    0  0.23151858439E+01 -0.13449266057E+01 -0.15619523164E+01  0.30997754927E+01  0.00000000000E+00 0. -1.
</event>
<event>
 7    1  0.2414091E-009  0.4778726E+02  0.7816164E-02  0.1312668E+00
        -11   -1    0    0    0    0  0.00000000000E+00  0.00000000000E+00  0.45593999997E+02  0.45594000000E+02  0.51100000000E-03 0.  1.
         11   -1    0    0    0    0 -0.00000000000E+00 -0.00000000000E+00 -0.45593999997E+02  0.45594000000E+02  0.51100000000E-03 0. -1.
    9900012    2    1    2    0    0 -0.29517765997E+02 -0.30671970829E+02  0.84590621986E+01  0.47787262250E+02  0.19999959901E+02 0.  0.
         12    1    1    2    0    0  0.29517765997E+02  0.30671970829E+02 -0.84590621986E+01  0.43400737750E+02  0.00000000000E+00 0. -1.
         11    1    3    3    0    0 -0.50416109659E+00  0.11198441247E+01 -0.14730748635E+01  0.19178579430E+01  0.51100000000E-03 0. -1.
        -11    1    3    3    0    0 -0.14034751026E+02 -0.79225521938E+01  0.40161922488E+00  0.16121487769E+02  0.51100000000E-03 0.  1.
        -12    1    3    3    0    0 -0.14978853875E+02 -0.23869262760E+02  0.95305178372E+01  0.29747916538E+02  0.00000000000E+00 0.  1.
</event>
<event>
 7    1  0.2414091E-009  0.4778728E+02  0.7816164E-02  0.1312668E+00
        -11   -1    0    0    0    0  0.00000000000E+00  0.00000000000E+00  0.45593999997E+02  0.45594000000E+02  0.51100000000E-03 0. -1.
         11   -1    0    0    0    0 -0.00000000000E+00 -0.00000000000E+00 -0.45593999997E+02  0.45594000000E+02  0.51100000000E-03 0.  1.
    9900012    2    1    2    0    0  0.34149620634E+01 -0.42285488749E+02 -0.91596041089E+01  0.47787275673E+02  0.20000021105E+02 0.  0.
         12    1    1    2    0    0 -0.34149620634E+01  0.42285488749E+02  0.91596041089E+01  0.43400724327E+02  0.00000000000E+00 0. -1.
         11    1    3    3    0    0  0.63868501677E+01 -0.74985009816E+01 -0.16512128353E+01  0.99872857236E+01  0.51100000000E-03 0. -1.
        -11    1    3    3    0    0 -0.17910922270E+01 -0.12294939466E+02  0.32451567446E+01  0.12841518228E+02  0.51100000000E-03 0.  1.
        -12    1    3    3    0    0 -0.11807958774E+01 -0.22492048301E+02 -0.10753548018E+02  0.24958471721E+02  0.00000000000E+00 0.  1.
</event>
<event>
 7    1  0.2414091E-009  0.4778727E+02  0.7816164E-02  0.1312668E+00
        -11   -1    0    0    0    0  0.00000000000E+00  0.00000000000E+00  0.45593999997E+02  0.45594000000E+02  0.51100000000E-03 0. -1.
         11   -1    0    0    0    0 -0.00000000000E+00 -0.00000000000E+00 -0.45593999997E+02  0.45594000000E+02  0.51100000000E-03 0.  1.
    9900012    2    1    2    0    0 -0.36773585541E+02  0.20964270486E+02 -0.95826104896E+01  0.47787266661E+02  0.19999980013E+02 0.  0.
         12    1    1    2    0    0  0.36773585541E+02 -0.20964270486E+02  0.95826104896E+01  0.43400733339E+02  0.00000000000E+00 0. -1.
         11    1    3    3    0    0 -0.87625755782E+01  0.98071065401E+01 -0.24405033830E+01  0.13376028053E+02  0.51100000000E-03 0. -1.
        -11    1    3    3    0    0 -0.20962529618E+01  0.26514772665E+01 -0.62692354671E+01  0.71223536683E+01  0.51100000000E-03 0.  1.
         12    1    3    3    0    0 -0.25914757001E+02  0.85056866798E+01 -0.87287163956E+00  0.27288884939E+02  0.00000000000E+00 0. -1.
</event>
<event>
 7    1  0.2414091E-009  0.4778727E+02  0.7816164E-02  0.1312668E+00
        -11   -1    0    0    0    0  0.00000000000E+00  0.00000000000E+00  0.45593999997E+02  0.45594000000E+02  0.51100000000E-03 0. -1.
         11   -1    0    0    0    0 -0.00000000000E+00 -0.00000000000E+00 -0.45593999997E+02  0.45594000000E+02  0.51100000000E-03 0.  1.
    9900012    2    1    2    0    0 -0.37041734201E+02  0.14206599444E+02 -0.17598449195E+02  0.47787274724E+02  0.20000016777E+02 0.  0.
         12    1    1    2    0    0  0.37041734201E+02 -0.14206599444E+02  0.17598449195E+02  0.43400725276E+02  0.00000000000E+00 0. -1.
         11    1    3    3    0    0 -0.61804893119E+00 -0.18989775568E+01 -0.11082661279E+01  0.22839339557E+01  0.51100000000E-03 0. -1.
        -11    1    3    3    0    0 -0.24953719723E+01  0.22861249962E+01 -0.68203825223E+01  0.76138601767E+01  0.51100000000E-03 0.  1.
        -12    1    3    3    0    0 -0.33928313298E+02  0.13819452005E+02 -0.96698005448E+01  0.37889480592E+02  0.00000000000E+00 0.  1.
</event>
<event>
 7    1  0.2414091E-009  0.4778727E+02  0.7816164E-02  0.1312668E+00
        -11   -1    0    0    0    0  0.00000000000E+00  0.00000000000E+00  0.45593999997E+02  0.45594000000E+02  0.51100000000E-03 0. -1.
         11   -1    0    0    0    0 -0.00000000000E+00 -0.00000000000E+00 -0.45593999997E+02  0.45594000000E+02  0.51100000000E-03 0.  1.
    9900012    2    1    2    0    0 -0.17952653857E+02 -0.78754155720E+01 -0.38720838456E+02  0.47787270954E+02  0.19999999589E+02 0.  0.
         12    1    1    2    0    0  0.17952653857E+02  0.78754155720E+01  0.38720838456E+02  0.43400729046E+02  0.00000000000E+00 0. -1.
         11    1    3    3    0    0 -0.42038811406E+00  0.13845722067E+01  0.12751980474E+01  0.19287033684E+01  0.51100000000E-03 0. -1.
        -11    1    3    3    0    0 -0.71624902888E+01 -0.72597561675E+01 -0.11004955573E+02  0.15003811988E+02  0.51100000000E-03 0.  1.
        -12    1    3    3    0    0 -0.10369775454E+02 -0.20002316111E+01 -0.28991080930E+02  0.30854755598E+02  0.00000000000E+00 0.  1.
</event>
<event>
 7    1  0.2414091E-009  0.4778727E+02  0.7816164E-02  0.1312668E+00
        -11   -1    0    0    0    0  0.00000000000E+00  0.00000000000E+00  0.45593999997E+02  0.45594000000E+02  0.51100000000E-03 0.  1.
         11   -1    0    0    0    0 -0.00000000000E+00 -0.00000000000E+00 -0.45593999997E+02  0.45594000000E+02  0.51100000000E-03 0. -1.
    9900012    2    1    2    0    0  0.11437586808E+02  0.34342084268E+01  0.41725425271E+02  0.47787270818E+02  0.19999998966E+02 0.  0.
         12    1    1    2    0    0 -0.11437586808E+02 -0.34342084268E+01 -0.41725425271E+02  0.43400729182E+02  0.00000000000E+00 0. -1.
         11    1    3    3    0    0  0.34558475223E+01 -0.30353746417E+00  0.18625480273E+01  0.39375249212E+01  0.51100000000E-03 0. -1.
        -11    1    3    3    0    0  0.10288247697E+02  0.53216303669E+01  0.39331650048E+02  0.41001786378E+02  0.51100000000E-03 0.  1.
        -12    1    3    3    0    0 -0.23065084113E+01 -0.15838844758E+01  0.53122719530E+00  0.28479595182E+01  0.00000000000E+00 0.  1.
</event>
<event>
 7    1  0.2414091E-009  0.4778727E+02  0.7816164E-02  0.1312668E+00
        -11   -1    0    0    0    0  0.00000000000E+00  0.00000000000E+00  0.45593999997E+02  0.45594000000E+02  0.51100000000E-03 0. -1.
         11   -1    0    0    0    0 -0.00000000000E+00 -0.00000000000E+00 -0.45593999997E+02  0.45594000000E+02  0.51100000000E-03 0.  1.
    9900012    2    1    2    0    0  0.30492368393E+02  0.64243772990E+01 -0.30208705835E+02  0.47787273484E+02  0.20000011123E+02 0.  0.
         12    1    1    2    0    0 -0.30492368393E+02 -0.64243772990E+01  0.30208705835E+02  0.43400726516E+02  0.00000000000E+00 0. -1.
         11    1    3    3    0    0  0.11514047191E+02  0.64328436412E+01 -0.18234721794E+02  0.22504662610E+02  0.51100000000E-03 0. -1.
        -11    1    3    3    0    0  0.15080975545E+02  0.47718196487E+01 -0.10355323707E+02  0.18906052351E+02  0.51100000000E-03 0.  1.
         12    1    3    3    0    0  0.38973456567E+01 -0.47802859910E+01 -0.16186603342E+01  0.63765585233E+01  0.00000000000E+00 0. -1.
</event>
<event>
 7    1  0.2414091E-009  0.4778727E+02  0.7816164E-02  0.1312668E+00
        -11   -1    0    0    0    0  0.00000000000E+00  0.00000000000E+00  0.45593999997E+02  0.45594000000E+02  0.51100000000E-03 0.  1.
         11   -1    0    0    0    0 -0.00000000000E+00 -0.00000000000E+00 -0.45593999997E+02  0.45594000000E+02  0.51100000000E-03 0. -1.
    9900012    2    1    2    0    0 -0.39399143733E+02 -0.17308264850E+02 -0.56351476741E+01  0.47787269035E+02  0.19999990837E+02 0.  0.
         12    1    1    2    0    0  0.39399143733E+02  0.17308264850E+02  0.56351476741E+01  0.43400730965E+02  0.00000000000E+00 0. -1.
         11    1    3    3    0    0 -0.20309601392E+01 -0.23134085547E+00 -0.41214932764E+01  0.46005461379E+01  0.51100000000E-03 0. -1.
        -11    1    3    3    0    0 -0.34562034258E+01  0.22213887254E+01  0.35220380232E+00  0.41235855477E+01  0.51100000000E-03 0.  1.
        -12    1    3    3    0    0 -0.33911980168E+02 -0.19298312720E+02 -0.18658582000E+01  0.39063137349E+02  0.00000000000E+00 0.  1.
</event>
<event>
 7    1  0.2414091E-009  0.4778727E+02  0.7816164E-02  0.1312668E+00
        -11   -1    0    0    0    0  0.00000000000E+00  0.00000000000E+00  0.45593999997E+02  0.45594000000E+02  0.51100000000E-03 0.  1.
         11   -1    0    0    0    0 -0.00000000000E+00 -0.00000000000E+00 -0.45593999997E+02  0.45594000000E+02  0.51100000000E-03 0. -1.
    9900012    2    1    2    0    0 -0.58572561562E+01  0.22236945148E+02  0.36808069059E+02  0.47787272736E+02  0.20000007711E+02 0.  0.
         12    1    1    2    0    0  0.58572561562E+01 -0.22236945148E+02 -0.36808069059E+02  0.43400727264E+02  0.00000000000E+00 0. -1.
         11    1    3    3    0    0  0.69650803412E+00  0.14205690054E+01  0.43533250265E+00  0.16409309521E+01  0.51100000000E-03 0. -1.
        -11    1    3    3    0    0 -0.65379521850E+01  0.21963868811E+02  0.22129811277E+02  0.31857258189E+02  0.51100000000E-03 0.  1.
        -12    1    3    3    0    0 -0.15812005384E-01 -0.11474926681E+01  0.14242925280E+02  0.14289083595E+02  0.00000000000E+00 0.  1.
</event>
<event>
 7    1  0.2414091E-009  0.4778728E+02  0.7816164E-02  0.1312668E+00
        -11   -1    0    0    0    0  0.00000000000E+00  0.00000000000E+00  0.45593999997E+02  0.45594000000E+02  0.51100000000E-03 0.  1.
         11   -1    0    0    0    0 -0.00000000000E+00 -0.00000000000E+00 -0.45593999997E+02  0.45594000000E+02  0.51100000000E-03 0. -1.
    9900012    2    1    2    0    0 -0.26606987150E+02 -0.34284299173E+02  0.52691745691E+00  0.47787279073E+02  0.20000036604E+02 0.  0.
         12    1    1    2    0    0  0.26606987150E+02  0.34284299173E+02 -0.52691745691E+00  0.43400720927E+02  0.00000000000E+00 0. -1.
         11    1    3    3    0    0 -0.21939592163E+02 -0.23495444867E+02  0.55968846252E+01  0.32629844492E+02  0.51100000000E-03 0.  1.
        -11    1    3    3    0    0 -0.39778488667E+00 -0.16446970887E+01  0.21593765856E+01  0.27433863799E+01  0.51100000000E-03 0. -1.
        -12    1    3    3    0    0 -0.42696101006E+01 -0.91441572175E+01 -0.72293437539E+01  0.12414048201E+02  0.00000000000E+00 0.  1.
</event>
<event>
 7    1  0.2414091E-009  0.4778727E+02  0.7816164E-02  0.1312668E+00
        -11   -1    0    0    0    0  0.00000000000E+00  0.00000000000E+00  0.45593999997E+02  0.45594000000E+02  0.51100000000E-03 0.  1.
         11   -1    0    0    0    0 -0.00000000000E+00 -0.00000000000E+00 -0.45593999997E+02  0.45594000000E+02  0.51100000000E-03 0. -1.
    9900012    2    1    2    0    0  0.20071549778E+02 -0.56150772051E+01  0.38068713723E+02  0.47787272275E+02  0.20000005610E+02 0.  0.
         12    1    1    2    0    0 -0.20071549778E+02  0.56150772051E+01 -0.38068713723E+02  0.43400727725E+02  0.00000000000E+00 0. -1.
         11    1    3    3    0    0  0.31091833007E+01  0.36758877598E+01  0.16290633401E+02  0.16987168936E+02  0.51100000000E-03 0. -1.
        -11    1    3    3    0    0  0.80049118237E+01  0.60642380120E+00  0.11137549457E+02  0.13729215975E+02  0.51100000000E-03 0.  1.
        -12    1    3    3    0    0  0.89574546535E+01 -0.98973887661E+01  0.10640530866E+02  0.17070887363E+02  0.00000000000E+00 0.  1.
</event>
<event>
 7    1  0.2414091E-009  0.4778728E+02  0.7816164E-02  0.1312668E+00
        -11   -1    0    0    0    0  0.00000000000E+00  0.00000000000E+00  0.45593999997E+02  0.45594000000E+02  0.51100000000E-03 0. -1.
         11   -1    0    0    0    0 -0.00000000000E+00 -0.00000000000E+00 -0.45593999997E+02  0.45594000000E+02  0.51100000000E-03 0.  1.
    9900012    2    1    2    0    0  0.36881734375E+02 -0.72507114768E+01 -0.21697641459E+02  0.47787276592E+02  0.20000025294E+02 0.  0.
         12    1    1    2    0    0 -0.36881734375E+02  0.72507114768E+01  0.21697641459E+02  0.43400723408E+02  0.00000000000E+00 0. -1.
         11    1    3    3    0    0  0.16646635393E+02 -0.68369010293E+01 -0.76916104662E+01  0.19570757712E+02  0.51100000000E-03 0. -1.
        -11    1    3    3    0    0  0.14518033217E+02 -0.61522405541E+01 -0.12151040963E+02  0.19906560453E+02  0.51100000000E-03 0.  1.
         12    1    3    3    0    0  0.57170657650E+01  0.57384301066E+01 -0.18549900301E+01  0.83099584271E+01  0.00000000000E+00 0. -1.
</event>
<event>
 7    1  0.2414091E-009  0.4778727E+02  0.7816164E-02  0.1312668E+00
        -11   -1    0    0    0    0  0.00000000000E+00  0.00000000000E+00  0.45593999997E+02  0.45594000000E+02  0.51100000000E-03 0.  1.
         11   -1    0    0    0    0 -0.00000000000E+00 -0.00000000000E+00 -0.45593999997E+02  0.45594000000E+02  0.51100000000E-03 0. -1.
    9900012    2    1    2    0    0  0.16793763148E+02  0.32639115053E+02  0.23157736886E+02  0.47787273165E+02  0.20000009667E+02 0.  0.
         12    1    1    2    0    0 -0.16793763148E+02 -0.32639115053E+02 -0.23157736886E+02  0.43400726835E+02  0.00000000000E+00 0. -1.
         11    1    3    3    0    0  0.76014932007E+00  0.13274880714E+02  0.14130711149E+02  0.19403022517E+02  0.51100000000E-03 0. -1.
        -11    1    3    3    0    0  0.40639419171E+00 -0.21777638854E+00 -0.12292934513E+01  0.13129148659E+01  0.51100000000E-03 0.  1.
        -12    1    3    3    0    0  0.15627219636E+02  0.19582010728E+02  0.10256319188E+02  0.27071335781E+02  0.00000000000E+00 0.  1.
</event>
<event>
 7    1  0.2414091E-009  0.4778727E+02  0.7816164E-02  0.1312668E+00
        -11   -1    0    0    0    0  0.00000000000E+00  0.00000000000E+00  0.45593999997E+02  0.45594000000E+02  0.51100000000E-03 0.  1.
         11   -1    0    0    0    0 -0.00000000000E+00 -0.00000000000E+00 -0.45593999997E+02  0.45594000000E+02  0.51100000000E-03 0. -1.
    9900012    2    1    2    0    0  0.13790992759E+02 -0.20786630744E+02  0.35515457195E+02  0.47787271910E+02  0.20000003948E+02 0.  0.
         12    1    1    2    0    0 -0.13790992759E+02  0.20786630744E+02 -0.35515457195E+02  0.43400728090E+02  0.00000000000E+00 0. -1.
         11    1    3    3    0    0  0.22191944864E+01 -0.28008281632E+01  0.65579041508E+00  0.36331149029E+01  0.51100000000E-03 0. -1.
        -11    1    3    3    0    0  0.36919585864E+01 -0.18036943118E+02  0.28933475256E+02  0.34294429079E+02  0.51100000000E-03 0.  1.
        -12    1    3    3    0    0  0.78798396858E+01  0.51140537835E-01  0.59261915246E+01  0.98597279280E+01  0.00000000000E+00 0.  1.
</event>
<event>
 7    1  0.2414091E-009  0.4778726E+02  0.7816164E-02  0.1312668E+00
        -11   -1    0    0    0    0  0.00000000000E+00  0.00000000000E+00  0.45593999997E+02  0.45594000000E+02  0.51100000000E-03 0.  1.
         11   -1    0    0    0    0 -0.00000000000E+00 -0.00000000000E+00 -0.45593999997E+02  0.45594000000E+02  0.51100000000E-03 0. -1.
    9900012    2    1    2    0    0  0.45475560247E+01  0.63026300649E+01  0.42699193811E+02  0.47787256186E+02  0.19999932254E+02 0.  0.
         12    1    1    2    0    0 -0.45475560247E+01 -0.63026300649E+01 -0.42699193811E+02  0.43400743814E+02  0.00000000000E+00 0. -1.
         11    1    3    3    0    0  0.10164540619E+01 -0.29070384909E+01  0.68077262806E+01  0.74718932688E+01  0.51100000000E-03 0. -1.
        -11    1    3    3    0    0  0.80878198556E+01  0.26732730898E-01  0.14855818978E+02  0.16914753986E+02  0.51100000000E-03 0.  1.
         12    1    3    3    0    0 -0.45567178928E+01  0.91829358249E+01  0.21035648553E+02  0.23400608931E+02  0.00000000000E+00 0. -1.
</event>
<event>
 7    1  0.2414091E-009  0.4778727E+02  0.7816164E-02  0.1312668E+00
        -11   -1    0    0    0    0  0.00000000000E+00  0.00000000000E+00  0.45593999997E+02  0.45594000000E+02  0.51100000000E-03 0. -1.
         11   -1    0    0    0    0 -0.00000000000E+00 -0.00000000000E+00 -0.45593999997E+02  0.45594000000E+02  0.51100000000E-03 0.  1.
    9900012    2    1    2    0    0  0.24220900241E+02 -0.31406185857E+02 -0.17624493466E+02  0.47787270876E+02  0.19999999234E+02 0.  0.
         12    1    1    2    0    0 -0.24220900241E+02  0.31406185857E+02  0.17624493466E+02  0.43400729124E+02  0.00000000000E+00 0. -1.
         11    1    3    3    0    0  0.14590022473E+02 -0.10205641723E+02 -0.19203035877E+01  0.17908418268E+02  0.51100000000E-03 0. -1.
        -11    1    3    3    0    0  0.36368357970E+01 -0.15085739019E+02 -0.52863451718E+01  0.16393643338E+02  0.51100000000E-03 0.  1.
         12    1    3    3    0    0  0.59940419711E+01 -0.61148051147E+01 -0.10417844706E+02  0.13485209270E+02  0.00000000000E+00 0. -1.
</event>
<event>
 7    1  0.2414091E-009  0.4778728E+02  0.7816164E-02  0.1312668E+00
        -11   -1    0    0    0    0  0.00000000000E+00  0.00000000000E+00  0.45593999997E+02  0.45594000000E+02  0.51100000000E-03 0.  1.
         11   -1    0    0    0    0 -0.00000000000E+00 -0.00000000000E+00 -0.45593999997E+02  0.45594000000E+02  0.51100000000E-03 0. -1.
    9900012    2    1    2    0    0 -0.12944623368E+02  0.41012563626E+02  0.58334619992E+01  0.47787275027E+02  0.20000018157E+02 0.  0.
         12    1    1    2    0    0  0.12944623368E+02 -0.41012563626E+02 -0.58334619992E+01  0.43400724973E+02  0.00000000000E+00 0. -1.
         11    1    3    3    0    0 -0.19844074745E+01  0.78924201204E+00 -0.13102642163E+01  0.25055076444E+01  0.51100000000E-03 0. -1.
        -11    1    3    3    0    0 -0.27295888003E+00 -0.13768174442E+01  0.13397695416E+01  0.19403905562E+01  0.51100000000E-03 0.  1.
        -12    1    3    3    0    0 -0.10687257014E+02  0.41600139058E+02  0.58039566739E+01  0.43341376826E+02  0.00000000000E+00 0.  1.
</event>
<event>
 7    1  0.2414091E-009  0.4778727E+02  0.7816164E-02  0.1312668E+00
        -11   -1    0    0    0    0  0.00000000000E+00  0.00000000000E+00  0.45593999997E+02  0.45594000000E+02  0.51100000000E-03 0. -1.
         11   -1    0    0    0    0 -0.00000000000E+00 -0.00000000000E+00 -0.45593999997E+02  0.45594000000E+02  0.51100000000E-03 0.  1.
    9900012    2    1    2    0    0 -0.92376657826E+01 -0.42361668215E+02 -0.19436506925E+01  0.47787272114E+02  0.20000004876E+02 0.  0.
         12    1    1    2    0    0  0.92376657826E+01  0.42361668215E+02  0.19436506925E+01  0.43400727886E+02  0.00000000000E+00 0. -1.
         11    1    3    3    0    0 -0.15605168968E+01  0.93707295715E+00 -0.26434942434E+00  0.18393475994E+01  0.51100000000E-03 0. -1.
        -11    1    3    3    0    0 -0.73251980224E+01 -0.15676928276E+02 -0.52768432317E+01  0.18090596480E+02  0.51100000000E-03 0.  1.
        -12    1    3    3    0    0 -0.35195086344E+00 -0.27621812895E+02  0.35975419635E+01  0.27857328034E+02  0.00000000000E+00 0.  1.
</event>
<event>
 7    1  0.2414091E-009  0.4778727E+02  0.7816164E-02  0.1312668E+00
        -11   -1    0    0    0    0  0.00000000000E+00  0.00000000000E+00  0.45593999997E+02  0.45594000000E+02  0.51100000000E-03 0. -1.
         11   -1    0    0    0    0 -0.00000000000E+00 -0.00000000000E+00 -0.45593999997E+02  0.45594000000E+02  0.51100000000E-03 0.  1.
    9900012    2    1    2    0    0 -0.15435601948E+02 -0.26963462031E+01 -0.40473390034E+02  0.47787269693E+02  0.19999993836E+02 0.  0.
         12    1    1    2    0    0  0.15435601948E+02  0.26963462031E+01  0.40473390034E+02  0.43400730307E+02  0.00000000000E+00 0. -1.
         11    1    3    3    0    0 -0.15223282182E+01  0.18842139507E+01 -0.93537019784E+01  0.96622712846E+01  0.51100000000E-03 0. -1.
        -11    1    3    3    0    0 -0.24542718682E+01  0.57578076749E+01 -0.12174037949E+02  0.13688791030E+02  0.51100000000E-03 0.  1.
         12    1    3    3    0    0 -0.11459001862E+02 -0.10338367829E+02 -0.18945650107E+02  0.24436207378E+02  0.00000000000E+00 0. -1.
</event>
<event>
 7    1  0.2414091E-009  0.4778727E+02  0.7816164E-02  0.1312668E+00
        -11   -1    0    0    0    0  0.00000000000E+00  0.00000000000E+00  0.45593999997E+02  0.45594000000E+02  0.51100000000E-03 0. -1.
         11   -1    0    0    0    0 -0.00000000000E+00 -0.00000000000E+00 -0.45593999997E+02  0.45594000000E+02  0.51100000000E-03 0.  1.
    9900012    2    1    2    0    0 -0.75455262764E+01 -0.40531619316E+02 -0.13560088208E+02  0.47787272778E+02  0.20000007904E+02 0.  0.
         12    1    1    2    0    0  0.75455262764E+01  0.40531619316E+02  0.13560088208E+02  0.43400727222E+02  0.00000000000E+00 0. -1.
         11    1    3    3    0    0 -0.55842373253E+00 -0.21558078102E+02 -0.19848114824E+01  0.21656455051E+02  0.51100000000E-03 0. -1.
        -11    1    3    3    0    0 -0.40190511100E+01 -0.61887638350E+01  0.15816112496E+01  0.75468578916E+01  0.51100000000E-03 0.  1.
        -12    1    3    3    0    0 -0.29680514338E+01 -0.12784777380E+02 -0.13156887976E+02  0.18583959835E+02  0.00000000000E+00 0.  1.
</event>
<event>
 7    1  0.2414091E-009  0.4778727E+02  0.7816164E-02  0.1312668E+00
        -11   -1    0    0    0    0  0.00000000000E+00  0.00000000000E+00  0.45593999997E+02  0.45594000000E+02  0.51100000000E-03 0.  1.
         11   -1    0    0    0    0 -0.00000000000E+00 -0.00000000000E+00 -0.45593999997E+02  0.45594000000E+02  0.51100000000E-03 0. -1.
    9900012    2    1    2    0    0  0.74466062960E+01  0.35453342769E+02  0.23900454831E+02  0.47787271896E+02  0.20000003884E+02 0.  0.
         12    1    1    2    0    0 -0.74466062960E+01 -0.35453342769E+02 -0.23900454831E+02  0.43400728104E+02  0.00000000000E+00 0. -1.
         11    1    3    3    0    0  0.62930436812E+01  0.18264930667E+02  0.10826771274E+02  0.22145633148E+02  0.51100000000E-03 0. -1.
        -11    1    3    3    0    0  0.69560822183E+01  0.12488084638E+02  0.65416026025E+01  0.15720429467E+02  0.51100000000E-03 0.  1.
         12    1    3    3    0    0 -0.58025196035E+01  0.47003274636E+01  0.65320809541E+01  0.99212092814E+01  0.00000000000E+00 0. -1.
</event>
<event>
 7    1  0.2414091E-009  0.4778727E+02  0.7816164E-02  0.1312668E+00
        -11   -1    0    0    0    0  0.00000000000E+00  0.00000000000E+00  0.45593999997E+02  0.45594000000E+02  0.51100000000E-03 0.  1.
         11   -1    0    0    0    0 -0.00000000000E+00 -0.00000000000E+00 -0.45593999997E+02  0.45594000000E+02  0.51100000000E-03 0. -1.
    9900012    2    1    2    0    0 -0.29091156461E+02  0.21677553500E+02  0.23820413231E+02  0.47787265024E+02  0.19999972549E+02 0.  0.
         12    1    1    2    0    0  0.29091156461E+02 -0.21677553500E+02 -0.23820413231E+02  0.43400734976E+02  0.00000000000E+00 0. -1.
         11    1    3    3    0    0 -0.12833002841E+02  0.43915105957E+01  0.15871794546E+01  0.13656151219E+02  0.51100000000E-03 0. -1.
        -11    1    3    3    0    0 -0.14412782561E+02  0.87839675660E+01  0.12056064451E+02  0.20742108805E+02  0.51100000000E-03 0.  1.
         12    1    3    3    0    0 -0.18453710586E+01  0.85020753380E+01  0.10177169326E+02  0.13389005000E+02  0.00000000000E+00 0. -1.
</event>
<event>
 7    1  0.2414091E-009  0.4778727E+02  0.7816164E-02  0.1312668E+00
        -11   -1    0    0    0    0  0.00000000000E+00  0.00000000000E+00  0.45593999997E+02  0.45594000000E+02  0.51100000000E-03 0.  1.
         11   -1    0    0    0    0 -0.00000000000E+00 -0.00000000000E+00 -0.45593999997E+02  0.45594000000E+02  0.51100000000E-03 0. -1.
    9900012    2    1    2    0    0  0.57342187628E+01 -0.39361146517E+02  0.17362088028E+02  0.47787271658E+02  0.20000002798E+02 0.  0.
         12    1    1    2    0    0 -0.57342187628E+01  0.39361146517E+02 -0.17362088028E+02  0.43400728342E+02  0.00000000000E+00 0. -1.
         11    1    3    3    0    0 -0.11658580997E+01 -0.14561264614E+02 -0.22062264031E+01  0.14773526576E+02  0.51100000000E-03 0. -1.
        -11    1    3    3    0    0  0.23430535050E+01 -0.12363957135E+02  0.56291562656E+01  0.13785671412E+02  0.51100000000E-03 0.  1.
        -12    1    3    3    0    0  0.45570233575E+01 -0.12435924767E+02  0.13939158166E+02  0.19228073670E+02  0.00000000000E+00 0.  1.
</event>
<event>
 7    1  0.2414091E-009  0.4778727E+02  0.7816164E-02  0.1312668E+00
        -11   -1    0    0    0    0  0.00000000000E+00  0.00000000000E+00  0.45593999997E+02  0.45594000000E+02  0.51100000000E-03 0. -1.
         11   -1    0    0    0    0 -0.00000000000E+00 -0.00000000000E+00 -0.45593999997E+02  0.45594000000E+02  0.51100000000E-03 0.  1.
    9900012    2    1    2    0    0  0.28938100257E+02 -0.28345361815E+02 -0.15580430042E+02  0.47787274393E+02  0.20000015268E+02 0.  0.
         12    1    1    2    0    0 -0.28938100257E+02  0.28345361815E+02  0.15580430042E+02  0.43400725607E+02  0.00000000000E+00 0. -1.
         11    1    3    3    0    0  0.38685533257E+01  0.79551998161E+00 -0.96226848432E+00  0.40650360112E+01  0.51100000000E-03 0. -1.
        -11    1    3    3    0    0  0.20684054944E+02 -0.18289366534E+02 -0.16041016337E+02  0.31931884732E+02  0.51100000000E-03 0.  1.
         12    1    3    3    0    0  0.43854919871E+01 -0.10851515263E+02  0.14228547799E+01  0.11790353650E+02  0.00000000000E+00 0. -1.
</event>
<event>
 7    1  0.2414091E-009  0.4778728E+02  0.7816164E-02  0.1312668E+00
        -11   -1    0    0    0    0  0.00000000000E+00  0.00000000000E+00  0.45593999997E+02  0.45594000000E+02  0.51100000000E-03 0.  1.
         11   -1    0    0    0    0 -0.00000000000E+00 -0.00000000000E+00 -0.45593999997E+02  0.45594000000E+02  0.51100000000E-03 0. -1.
    9900012    2    1    2    0    0 -0.34345403870E+02  0.39794285967E+01  0.26233190018E+02  0.47787275612E+02  0.20000020824E+02 0.  0.
         12    1    1    2    0    0  0.34345403870E+02 -0.39794285967E+01 -0.26233190018E+02  0.43400724388E+02  0.00000000000E+00 0. -1.
         11    1    3    3    0    0 -0.16752796908E+00  0.31052519587E+01  0.19079144675E+00  0.31156150251E+01  0.51100000000E-03 0. -1.
        -11    1    3    3    0    0 -0.56053955576E+01  0.28536350518E+00  0.11063046692E+02  0.12405357474E+02  0.51100000000E-03 0.  1.
         12    1    3    3    0    0 -0.28572480343E+02  0.58881313282E+00  0.14979351879E+02  0.32266303113E+02  0.00000000000E+00 0. -1.
</event>
<event>
 7    1  0.2414091E-009  0.4778727E+02  0.7816164E-02  0.1312668E+00
        -11   -1    0    0    0    0  0.00000000000E+00  0.00000000000E+00  0.45593999997E+02  0.45594000000E+02  0.51100000000E-03 0.  1.
         11   -1    0    0    0    0 -0.00000000000E+00 -0.00000000000E+00 -0.45593999997E+02  0.45594000000E+02  0.51100000000E-03 0. -1.
    9900012    2    1    2    0    0  0.15914602964E+02 -0.54065117722E+01  0.40013976303E+02  0.47787271243E+02  0.20000000907E+02 0.  0.
         12    1    1    2    0    0 -0.15914602964E+02  0.54065117722E+01 -0.40013976303E+02  0.43400728757E+02  0.00000000000E+00 0. -1.
         11    1    3    3    0    0 -0.36742581619E+00 -0.23431374007E+01  0.13113871407E+01  0.27101717848E+01  0.51100000000E-03 0. -1.
        -11    1    3    3    0    0  0.99685752104E+01 -0.31179021645E+01  0.37129164514E+02  0.38570308055E+02  0.51100000000E-03 0.  1.
        -12    1    3    3    0    0  0.63134535694E+01  0.54527792975E-01  0.15734246478E+01  0.65067914041E+01  0.00000000000E+00 0.  1.
</event>
<event>
 7    1  0.2414091E-009  0.4778728E+02  0.7816164E-02  0.1312668E+00
        -11   -1    0    0    0    0  0.00000000000E+00  0.00000000000E+00  0.45593999997E+02  0.45594000000E+02  0.51100000000E-03 0.  1.
         11   -1    0    0    0    0 -0.00000000000E+00 -0.00000000000E+00 -0.45593999997E+02  0.45594000000E+02  0.51100000000E-03 0. -1.
    9900012    2    1    2    0    0 -0.22010196117E+02 -0.37365409121E+02  0.17320407591E+01  0.47787279993E+02  0.20000040801E+02 0.  0.
         12    1    1    2    0    0  0.22010196117E+02  0.37365409121E+02 -0.17320407591E+01  0.43400720007E+02  0.00000000000E+00 0. -1.
         11    1    3    3    0    0 -0.19403343201E+00 -0.80047134142E+00 -0.98996111716E+00  0.12877991364E+01  0.51100000000E-03 0. -1.
        -11    1    3    3    0    0 -0.20583721241E+02 -0.16689125084E+02  0.11722494990E+01  0.26525283134E+02  0.51100000000E-03 0.  1.
         12    1    3    3    0    0 -0.12324414445E+01 -0.19875812696E+02  0.15497523773E+01  0.19974197723E+02  0.00000000000E+00 0. -1.
</event>
<event>
 7    1  0.2414091E-009  0.4778727E+02  0.7816164E-02  0.1312668E+00
        -11   -1    0    0    0    0  0.00000000000E+00  0.00000000000E+00  0.45593999997E+02  0.45594000000E+02  0.51100000000E-03 0.  1.
         11   -1    0    0    0    0 -0.00000000000E+00 -0.00000000000E+00 -0.45593999997E+02  0.45594000000E+02  0.51100000000E-03 0. -1.
    9900012    2    1    2    0    0  0.24077331894E+02  0.33800563858E+02  0.12705406279E+02  0.47787269856E+02  0.19999994584E+02 0.  0.
         12    1    1    2    0    0 -0.24077331894E+02 -0.33800563858E+02 -0.12705406279E+02  0.43400730144E+02  0.00000000000E+00 0. -1.
         11    1    3    3    0    0  0.92189963461E+01  0.14428272443E+02  0.11447020948E+02  0.20596097401E+02  0.51100000000E-03 0. -1.
        -11    1    3    3    0    0  0.11221364720E+02  0.16772495843E+02  0.56172349746E+01  0.20947290326E+02  0.51100000000E-03 0.  1.
         12    1    3    3    0    0  0.36369708288E+01  0.25997955719E+01 -0.43588496438E+01  0.62438821291E+01  0.00000000000E+00 0. -1.
</event>
<event>
 7    1  0.2414091E-009  0.4778727E+02  0.7816164E-02  0.1312668E+00
        -11   -1    0    0    0    0  0.00000000000E+00  0.00000000000E+00  0.45593999997E+02  0.45594000000E+02  0.51100000000E-03 0. -1.
         11   -1    0    0    0    0 -0.00000000000E+00 -0.00000000000E+00 -0.45593999997E+02  0.45594000000E+02  0.51100000000E-03 0.  1.
    9900012    2    1    2    0    0  0.34156027927E+02 -0.26553572309E+02 -0.34491889609E+01  0.47787270160E+02  0.19999995968E+02 0.  0.
         12    1    1    2    0    0 -0.34156027927E+02  0.26553572309E+02  0.34491889609E+01  0.43400729840E+02  0.00000000000E+00 0. -1.
         11    1    3    3    0    0  0.34565175803E+02 -0.25366103050E+02 -0.48810807326E+00  0.42876903013E+02  0.51100000000E-03 0. -1.
        -11    1    3    3    0    0  0.15977700576E+01 -0.53256534295E+00 -0.19281886494E+01  0.25601575597E+01  0.51100000000E-03 0.  1.
         12    1    3    3    0    0 -0.20069179330E+01 -0.65490391615E+00 -0.10328922382E+01  0.23502095875E+01  0.00000000000E+00 0. -1.
</event>
<event>
 7    1  0.2414091E-009  0.4778724E+02  0.7816164E-02  0.1312668E+00
        -11   -1    0    0    0    0  0.00000000000E+00  0.00000000000E+00  0.45593999997E+02  0.45594000000E+02  0.51100000000E-03 0.  1.
         11   -1    0    0    0    0 -0.00000000000E+00 -0.00000000000E+00 -0.45593999997E+02  0.45594000000E+02  0.51100000000E-03 0. -1.
    9900012    2    1    2    0    0 -0.40881943079E+02 -0.14237498873E+02  0.30961347245E+01  0.47787243160E+02  0.19999872864E+02 0.  0.
         12    1    1    2    0    0  0.40881943079E+02  0.14237498873E+02 -0.30961347245E+01  0.43400756840E+02  0.00000000000E+00 0. -1.
         11    1    3    3    0    0 -0.10602793651E+02 -0.72617180906E+01 -0.40048796231E+01  0.13460714836E+02  0.51100000000E-03 0. -1.
        -11    1    3    3    0    0 -0.23735997320E+02 -0.40832462475E+01 -0.22664488381E+00  0.24085718525E+02  0.51100000000E-03 0.  1.
         12    1    3    3    0    0 -0.65431521075E+01 -0.28925345351E+01  0.73276592314E+01  0.10240809799E+02  0.00000000000E+00 0. -1.
</event>
<event>
 7    1  0.2414091E-009  0.4778727E+02  0.7816164E-02  0.1312668E+00
        -11   -1    0    0    0    0  0.00000000000E+00  0.00000000000E+00  0.45593999997E+02  0.45594000000E+02  0.51100000000E-03 0.  1.
         11   -1    0    0    0    0 -0.00000000000E+00 -0.00000000000E+00 -0.45593999997E+02  0.45594000000E+02  0.51100000000E-03 0. -1.
    9900012    2    1    2    0    0  0.26894105251E+02 -0.10725917460E+02  0.32330875967E+02  0.47787265635E+02  0.19999975336E+02 0.  0.
         12    1    1    2    0    0 -0.26894105251E+02  0.10725917460E+02 -0.32330875967E+02  0.43400734365E+02  0.00000000000E+00 0. -1.
         11    1    3    3    0    0 -0.10256908700E+01 -0.90896549742E+00 -0.18935163403E+01  0.23374482729E+01  0.51100000000E-03 0. -1.
        -11    1    3    3    0    0  0.75789590045E+01 -0.69558002871E+00  0.89912193478E+01  0.11779918369E+02  0.51100000000E-03 0.  1.
        -12    1    3    3    0    0  0.20340837117E+02 -0.91213719339E+01  0.25233172960E+02  0.33669898993E+02  0.00000000000E+00 0.  1.
</event>
<event>
 7    1  0.2414091E-009  0.4778727E+02  0.7816164E-02  0.1312668E+00
        -11   -1    0    0    0    0  0.00000000000E+00  0.00000000000E+00  0.45593999997E+02  0.45594000000E+02  0.51100000000E-03 0.  1.
         11   -1    0    0    0    0 -0.00000000000E+00 -0.00000000000E+00 -0.45593999997E+02  0.45594000000E+02  0.51100000000E-03 0. -1.
    9900012    2    1    2    0    0 -0.26698884600E+02 -0.12535535935E+02  0.31837917300E+02  0.47787273300E+02  0.20000010286E+02 0.  0.
         12    1    1    2    0    0  0.26698884600E+02  0.12535535935E+02 -0.31837917300E+02  0.43400726700E+02  0.00000000000E+00 0. -1.
         11    1    3    3    0    0 -0.11083665466E+02 -0.11762948495E+02  0.96329097886E+01  0.18815088326E+02  0.51100000000E-03 0. -1.
        -11    1    3    3    0    0 -0.10740286199E+02 -0.44331436781E+01  0.10002347369E+02  0.15331453410E+02  0.51100000000E-03 0.  1.
        -12    1    3    3    0    0 -0.48749329349E+01  0.36605562372E+01  0.12202660142E+02  0.13640731565E+02  0.00000000000E+00 0.  1.
</event>
<event>
 7    1  0.2414091E-009  0.4778727E+02  0.7816164E-02  0.1312668E+00
        -11   -1    0    0    0    0  0.00000000000E+00  0.00000000000E+00  0.45593999997E+02  0.45594000000E+02  0.51100000000E-03 0. -1.
         11   -1    0    0    0    0 -0.00000000000E+00 -0.00000000000E+00 -0.45593999997E+02  0.45594000000E+02  0.51100000000E-03 0.  1.
    9900012    2    1    2    0    0 -0.50685550101E-01 -0.37429549266E+02 -0.21969289503E+02  0.47787269493E+02  0.19999992925E+02 0.  0.
         12    1    1    2    0    0  0.50685550101E-01  0.37429549266E+02  0.21969289503E+02  0.43400730507E+02  0.00000000000E+00 0. -1.
         11    1    3    3    0    0 -0.25581778437E+01 -0.10036615224E+02 -0.27854770985E+01  0.10725521057E+02  0.51100000000E-03 0. -1.
        -11    1    3    3    0    0  0.33385252672E+01 -0.11546099298E+02  0.18754363641E+00  0.12020537959E+02  0.51100000000E-03 0.  1.
        -12    1    3    3    0    0 -0.83103297367E+00 -0.15846834745E+02 -0.19371356041E+02  0.25041210476E+02  0.00000000000E+00 0.  1.
</event>
<event>
 7    1  0.2414091E-009  0.4778726E+02  0.7816164E-02  0.1312668E+00
        -11   -1    0    0    0    0  0.00000000000E+00  0.00000000000E+00  0.45593999997E+02  0.45594000000E+02  0.51100000000E-03 0.  1.
         11   -1    0    0    0    0 -0.00000000000E+00 -0.00000000000E+00 -0.45593999997E+02  0.45594000000E+02  0.51100000000E-03 0. -1.
    9900012    2    1    2    0    0 -0.16862787128E+02  0.44595049150E+01  0.39741459125E+02  0.47787258679E+02  0.19999943622E+02 0.  0.
         12    1    1    2    0    0  0.16862787128E+02 -0.44595049150E+01 -0.39741459125E+02  0.43400741321E+02  0.00000000000E+00 0. -1.
         11    1    3    3    0    0 -0.13753767992E+02 -0.21811014101E+01  0.15962259424E+02  0.21182942749E+02  0.51100000000E-03 0.  1.
        -11    1    3    3    0    0 -0.23059421011E+01  0.19615265244E+01  0.78823273007E+00  0.31283008771E+01  0.51100000000E-03 0. -1.
        -12    1    3    3    0    0 -0.80307703525E+00  0.46790798006E+01  0.22990966971E+02  0.23476015053E+02  0.00000000000E+00 0.  1.
</event>
<event>
 7    1  0.2414091E-009  0.4778727E+02  0.7816164E-02  0.1312668E+00
        -11   -1    0    0    0    0  0.00000000000E+00  0.00000000000E+00  0.45593999997E+02  0.45594000000E+02  0.51100000000E-03 0.  1.
         11   -1    0    0    0    0 -0.00000000000E+00 -0.00000000000E+00 -0.45593999997E+02  0.45594000000E+02  0.51100000000E-03 0. -1.
    9900012    2    1    2    0    0 -0.23107543711E+02  0.14700833745E+02  0.33668239062E+02  0.47787269468E+02  0.19999992814E+02 0.  0.
         12    1    1    2    0    0  0.23107543711E+02 -0.14700833745E+02 -0.33668239062E+02  0.43400730532E+02  0.00000000000E+00 0. -1.
         11    1    3    3    0    0  0.65934494251E+00  0.63095954260E+01  0.37423250482E+01  0.73655092981E+01  0.51100000000E-03 0. -1.
        -11    1    3    3    0    0 -0.20014974592E+02  0.10506165212E+02  0.22876286767E+02  0.32160584757E+02  0.51100000000E-03 0.  1.
         12    1    3    3    0    0 -0.37519140607E+01 -0.21149268936E+01  0.70496272474E+01  0.82611754134E+01  0.00000000000E+00 0. -1.
</event>
<event>
 7    1  0.2414091E-009  0.4778727E+02  0.7816164E-02  0.1312668E+00
        -11   -1    0    0    0    0  0.00000000000E+00  0.00000000000E+00  0.45593999997E+02  0.45594000000E+02  0.51100000000E-03 0.  1.
         11   -1    0    0    0    0 -0.00000000000E+00 -0.00000000000E+00 -0.45593999997E+02  0.45594000000E+02  0.51100000000E-03 0. -1.
    9900012    2    1    2    0    0 -0.33784834867E+02  0.26602794859E+02 -0.58736367951E+01  0.47787269931E+02  0.19999994924E+02 0.  0.
         12    1    1    2    0    0  0.33784834867E+02 -0.26602794859E+02  0.58736367951E+01  0.43400730069E+02  0.00000000000E+00 0. -1.
         11    1    3    3    0    0 -0.17016094937E+02  0.12832826180E+02  0.10828754901E+01  0.21340139040E+02  0.51100000000E-03 0.  1.
        -11    1    3    3    0    0 -0.17342563466E+02  0.98920789130E+01 -0.19094667969E+01  0.20056515064E+02  0.51100000000E-03 0. -1.
         12    1    3    3    0    0  0.57382353588E+00  0.38778897665E+01 -0.50470454883E+01  0.63906158273E+01  0.00000000000E+00 0. -1.
</event>
<event>
 7    1  0.2414091E-009  0.4778727E+02  0.7816164E-02  0.1312668E+00
        -11   -1    0    0    0    0  0.00000000000E+00  0.00000000000E+00  0.45593999997E+02  0.45594000000E+02  0.51100000000E-03 0. -1.
         11   -1    0    0    0    0 -0.00000000000E+00 -0.00000000000E+00 -0.45593999997E+02  0.45594000000E+02  0.51100000000E-03 0.  1.
    9900012    2    1    2    0    0  0.14198824058E+02 -0.33424924696E+02 -0.23765333421E+02  0.47787271110E+02  0.20000000301E+02 0.  0.
         12    1    1    2    0    0 -0.14198824058E+02  0.33424924696E+02  0.23765333421E+02  0.43400728890E+02  0.00000000000E+00 0. -1.
         11    1    3    3    0    0  0.90261467106E+01 -0.30686365239E+02 -0.15678345242E+02  0.35622111754E+02  0.51100000000E-03 0. -1.
        -11    1    3    3    0    0  0.53240471426E+01 -0.47052660269E+01 -0.60869313178E+01  0.93560536280E+01  0.51100000000E-03 0.  1.
         12    1    3    3    0    0 -0.15136979533E+00  0.19667065700E+01 -0.20000568605E+01  0.28091057283E+01  0.00000000000E+00 0. -1.
</event>
<event>
 7    1  0.2414091E-009  0.4778727E+02  0.7816164E-02  0.1312668E+00
        -11   -1    0    0    0    0  0.00000000000E+00  0.00000000000E+00  0.45593999997E+02  0.45594000000E+02  0.51100000000E-03 0.  1.
         11   -1    0    0    0    0 -0.00000000000E+00 -0.00000000000E+00 -0.45593999997E+02  0.45594000000E+02  0.51100000000E-03 0. -1.
    9900012    2    1    2    0    0  0.20982775192E+02  0.33695923760E+02  0.17547963974E+02  0.47787272213E+02  0.20000005326E+02 0.  0.
         12    1    1    2    0    0 -0.20982775192E+02 -0.33695923760E+02 -0.17547963974E+02  0.43400727787E+02  0.00000000000E+00 0. -1.
         11    1    3    3    0    0  0.41810309344E+01  0.14865093776E+02 -0.18874110221E+01  0.15556810511E+02  0.51100000000E-03 0. -1.
        -11    1    3    3    0    0  0.64828104471E+01  0.82140707800E+01  0.51729951023E+01  0.11672946015E+02  0.51100000000E-03 0.  1.
         12    1    3    3    0    0  0.10318933811E+02  0.10616759205E+02  0.14262379894E+02  0.20557515687E+02  0.00000000000E+00 0. -1.
</event>
<event>
 7    1  0.2414091E-009  0.4778728E+02  0.7816164E-02  0.1312668E+00
        -11   -1    0    0    0    0  0.00000000000E+00  0.00000000000E+00  0.45593999997E+02  0.45594000000E+02  0.51100000000E-03 0. -1.
         11   -1    0    0    0    0 -0.00000000000E+00 -0.00000000000E+00 -0.45593999997E+02  0.45594000000E+02  0.51100000000E-03 0.  1.
    9900012    2    1    2    0    0  0.83437652409E+01 -0.36502246410E+02 -0.21945170593E+02  0.47787275078E+02  0.20000018392E+02 0.  0.
         12    1    1    2    0    0 -0.83437652409E+01  0.36502246410E+02  0.21945170593E+02  0.43400724922E+02  0.00000000000E+00 0. -1.
         11    1    3    3    0    0  0.14529923561E+01 -0.17646548255E+02 -0.66782938393E+01  0.18923833147E+02  0.51100000000E-03 0. -1.
        -11    1    3    3    0    0  0.91199462397E+01 -0.18677109569E+02 -0.98450913370E+01  0.22998557889E+02  0.51100000000E-03 0.  1.
         12    1    3    3    0    0 -0.22291733550E+01 -0.17858858594E+00 -0.54217854165E+01  0.58648840425E+01  0.00000000000E+00 0. -1.
</event>
<event>
 7    1  0.2414091E-009  0.4778729E+02  0.7816164E-02  0.1312668E+00
        -11   -1    0    0    0    0  0.00000000000E+00  0.00000000000E+00  0.45593999997E+02  0.45594000000E+02  0.51100000000E-03 0.  1.
         11   -1    0    0    0    0 -0.00000000000E+00 -0.00000000000E+00 -0.45593999997E+02  0.45594000000E+02  0.51100000000E-03 0. -1.
    9900012    2    1    2    0    0  0.19519225155E+01  0.31575382662E+02  0.29712065410E+02  0.47787290067E+02  0.20000086729E+02 0.  0.
         12    1    1    2    0    0 -0.19519225155E+01 -0.31575382662E+02 -0.29712065410E+02  0.43400709933E+02  0.00000000000E+00 0. -1.
         11    1    3    3    0    0  0.65561735501E+01  0.53921023335E+01  0.23843526126E+01  0.88172170687E+01  0.51100000000E-03 0. -1.
        -11    1    3    3    0    0 -0.94543335730E+00  0.52768222327E+00 -0.26603931005E+00  0.11149304631E+01  0.51100000000E-03 0.  1.
        -12    1    3    3    0    0 -0.36588176773E+01  0.25655598106E+02  0.27593752108E+02  0.37855142535E+02  0.00000000000E+00 0.  1.
</event>
<event>
 7    1  0.2414091E-009  0.4778727E+02  0.7816164E-02  0.1312668E+00
        -11   -1    0    0    0    0  0.00000000000E+00  0.00000000000E+00  0.45593999997E+02  0.45594000000E+02  0.51100000000E-03 0. -1.
         11   -1    0    0    0    0 -0.00000000000E+00 -0.00000000000E+00 -0.45593999997E+02  0.45594000000E+02  0.51100000000E-03 0.  1.
    9900012    2    1    2    0    0  0.57272303015E+01 -0.32805166341E+02 -0.27832413454E+02  0.47787270234E+02  0.19999996303E+02 0.  0.
         12    1    1    2    0    0 -0.57272303015E+01  0.32805166341E+02  0.27832413454E+02  0.43400729766E+02  0.00000000000E+00 0. -1.
         11    1    3    3    0    0 -0.11442783216E+01  0.31424626468E+00  0.67077638699E+00  0.13631085117E+01  0.51100000000E-03 0. -1.
        -11    1    3    3    0    0  0.30397174340E+01 -0.83707024057E+00 -0.63350059735E+01  0.70762185955E+01  0.51100000000E-03 0.  1.
         12    1    3    3    0    0  0.38317911891E+01 -0.32282342365E+02 -0.22168183868E+02  0.39347943126E+02  0.00000000000E+00 0. -1.
</event>
<event>
 7    1  0.2414091E-009  0.4778727E+02  0.7816164E-02  0.1312668E+00
        -11   -1    0    0    0    0  0.00000000000E+00  0.00000000000E+00  0.45593999997E+02  0.45594000000E+02  0.51100000000E-03 0.  1.
         11   -1    0    0    0    0 -0.00000000000E+00 -0.00000000000E+00 -0.45593999997E+02  0.45594000000E+02  0.51100000000E-03 0. -1.
    9900012    2    1    2    0    0  0.87734716261E+00 -0.12715536992E+02  0.41486966170E+02  0.47787274418E+02  0.20000015381E+02 0.  0.
         12    1    1    2    0    0 -0.87734716261E+00  0.12715536992E+02 -0.41486966170E+02  0.43400725582E+02  0.00000000000E+00 0. -1.
         11    1    3    3    0    0 -0.28478852757E+01 -0.96108780328E+01  0.13226789290E+02  0.16596005010E+02  0.51100000000E-03 0. -1.
        -11    1    3    3    0    0 -0.97321180556E+00 -0.46157960342E+01  0.33225246589E+01  0.57699120112E+01  0.51100000000E-03 0.  1.
         12    1    3    3    0    0  0.46984442439E+01  0.15111370749E+01  0.24937652221E+02  0.25421357396E+02  0.00000000000E+00 0. -1.
</event>
<event>
 7    1  0.2414091E-009  0.4778727E+02  0.7816164E-02  0.1312668E+00
        -11   -1    0    0    0    0  0.00000000000E+00  0.00000000000E+00  0.45593999997E+02  0.45594000000E+02  0.51100000000E-03 0.  1.
         11   -1    0    0    0    0 -0.00000000000E+00 -0.00000000000E+00 -0.45593999997E+02  0.45594000000E+02  0.51100000000E-03 0. -1.
    9900012    2    1    2    0    0  0.34398821864E+02 -0.19363504606E+02  0.18038814333E+02  0.47787273292E+02  0.20000010248E+02 0.  0.
         12    1    1    2    0    0 -0.34398821864E+02  0.19363504606E+02 -0.18038814333E+02  0.43400726708E+02  0.00000000000E+00 0. -1.
         11    1    3    3    0    0  0.48937227835E+01 -0.14145443653E+01  0.82967940537E+01  0.97358230403E+01  0.51100000000E-03 0. -1.
        -11    1    3    3    0    0  0.22844171809E+02 -0.14634483308E+02  0.12812100954E+02  0.30002903501E+02  0.51100000000E-03 0.  1.
         12    1    3    3    0    0  0.66609272711E+01 -0.33144769329E+01 -0.30700806754E+01  0.80485467510E+01  0.00000000000E+00 0. -1.
</event>
<event>
 7    1  0.2414091E-009  0.4778727E+02  0.7816164E-02  0.1312668E+00
        -11   -1    0    0    0    0  0.00000000000E+00  0.00000000000E+00  0.45593999997E+02  0.45594000000E+02  0.51100000000E-03 0. -1.
         11   -1    0    0    0    0 -0.00000000000E+00 -0.00000000000E+00 -0.45593999997E+02  0.45594000000E+02  0.51100000000E-03 0.  1.
    9900012    2    1    2    0    0  0.89961038576E+00  0.41839078371E+02  0.11502418717E+02  0.47787269428E+02  0.19999992632E+02 0.  0.
         12    1    1    2    0    0 -0.89961038576E+00 -0.41839078371E+02 -0.11502418717E+02  0.43400730572E+02  0.00000000000E+00 0. -1.
         11    1    3    3    0    0 -0.10010347600E+01  0.67336491162E+01  0.81121634639E+01  0.10590150959E+02  0.51100000000E-03 0. -1.
        -11    1    3    3    0    0  0.16480224132E+01 -0.20400768600E+00 -0.32417550245E+00  0.16919477024E+01  0.51100000000E-03 0.  1.
        -12    1    3    3    0    0  0.25262273261E+00  0.35309436941E+02  0.37144307557E+01  0.35505170767E+02  0.00000000000E+00 0.  1.
</event>
<event>
 7    1  0.2414091E-009  0.4778727E+02  0.7816164E-02  0.1312668E+00
        -11   -1    0    0    0    0  0.00000000000E+00  0.00000000000E+00  0.45593999997E+02  0.45594000000E+02  0.51100000000E-03 0.  1.
         11   -1    0    0    0    0 -0.00000000000E+00 -0.00000000000E+00 -0.45593999997E+02  0.45594000000E+02  0.51100000000E-03 0. -1.
    9900012    2    1    2    0    0  0.28400835021E+01 -0.43114419955E+02  0.40870432120E+01  0.47787271843E+02  0.20000003639E+02 0.  0.
         12    1    1    2    0    0 -0.28400835021E+01  0.43114419955E+02 -0.40870432120E+01  0.43400728157E+02  0.00000000000E+00 0. -1.
         11    1    3    3    0    0  0.17690117103E+01 -0.14097658651E+01  0.10035424334E+01  0.24746595528E+01  0.51100000000E-03 0. -1.
        -11    1    3    3    0    0 -0.48474566681E+01 -0.45986896005E+01  0.38849064322E+01  0.77290543043E+01  0.51100000000E-03 0.  1.
         12    1    3    3    0    0  0.59185284598E+01 -0.37105964490E+02 -0.80140565356E+00  0.37583557986E+02  0.00000000000E+00 0. -1.
</event>
<event>
 7    1  0.2414091E-009  0.4778727E+02  0.7816164E-02  0.1312668E+00
        -11   -1    0    0    0    0  0.00000000000E+00  0.00000000000E+00  0.45593999997E+02  0.45594000000E+02  0.51100000000E-03 0.  1.
         11   -1    0    0    0    0 -0.00000000000E+00 -0.00000000000E+00 -0.45593999997E+02  0.45594000000E+02  0.51100000000E-03 0. -1.
    9900012    2    1    2    0    0  0.21824118405E+02 -0.35151881558E+02  0.13102532583E+02  0.47787270959E+02  0.19999999609E+02 0.  0.
         12    1    1    2    0    0 -0.21824118405E+02  0.35151881558E+02 -0.13102532583E+02  0.43400729041E+02  0.00000000000E+00 0. -1.
         11    1    3    3    0    0  0.11445279486E+02 -0.22262611104E+02  0.50974020824E+01  0.25546071791E+02  0.51100000000E-03 0. -1.
        -11    1    3    3    0    0  0.26374186634E+01 -0.12468530985E+02  0.66352609915E+01  0.14368261232E+02  0.51100000000E-03 0.  1.
         12    1    3    3    0    0  0.77414202558E+01 -0.42073946894E+00  0.13698695091E+01  0.78729379363E+01  0.00000000000E+00 0. -1.
</event>
<event>
 7    1  0.2414091E-009  0.4778727E+02  0.7816164E-02  0.1312668E+00
        -11   -1    0    0    0    0  0.00000000000E+00  0.00000000000E+00  0.45593999997E+02  0.45594000000E+02  0.51100000000E-03 0.  1.
         11   -1    0    0    0    0 -0.00000000000E+00 -0.00000000000E+00 -0.45593999997E+02  0.45594000000E+02  0.51100000000E-03 0. -1.
    9900012    2    1    2    0    0  0.23558569936E+02  0.10066389110E+01  0.36436293971E+02  0.47787273536E+02  0.20000011358E+02 0.  0.
         12    1    1    2    0    0 -0.23558569936E+02 -0.10066389110E+01 -0.36436293971E+02  0.43400726464E+02  0.00000000000E+00 0. -1.
         11    1    3    3    0    0  0.12948531439E+02  0.80351435194E+01  0.96102625898E+01  0.18016246699E+02  0.51100000000E-03 0. -1.
        -11    1    3    3    0    0  0.60319893017E+01 -0.33580166176E+01  0.12307166730E+02  0.14111255214E+02  0.51100000000E-03 0.  1.
         12    1    3    3    0    0  0.45780491952E+01 -0.36704879908E+01  0.14518864651E+02  0.15659771623E+02  0.00000000000E+00 0. -1.
</event>
<event>
 7    1  0.2414091E-009  0.4778727E+02  0.7816164E-02  0.1312668E+00
        -11   -1    0    0    0    0  0.00000000000E+00  0.00000000000E+00  0.45593999997E+02  0.45594000000E+02  0.51100000000E-03 0. -1.
         11   -1    0    0    0    0 -0.00000000000E+00 -0.00000000000E+00 -0.45593999997E+02  0.45594000000E+02  0.51100000000E-03 0.  1.
    9900012    2    1    2    0    0  0.16662815066E+02 -0.11683080041E+01 -0.40057569046E+02  0.47787272040E+02  0.20000004541E+02 0.  0.
         12    1    1    2    0    0 -0.16662815066E+02  0.11683080041E+01  0.40057569046E+02  0.43400727960E+02  0.00000000000E+00 0. -1.
         11    1    3    3    0    0 -0.37451294941E+00 -0.32362747517E+01 -0.60532795270E+01  0.68742946919E+01  0.51100000000E-03 0. -1.
        -11    1    3    3    0    0 -0.11794635062E+01  0.39832147318E+01 -0.40478701940E+01  0.58002057835E+01  0.51100000000E-03 0.  1.
         12    1    3    3    0    0  0.18216791522E+02 -0.19152479842E+01 -0.29956419325E+02  0.35112771565E+02  0.00000000000E+00 0. -1.
</event>
<event>
 7    1  0.2414091E-009  0.4778727E+02  0.7816164E-02  0.1312668E+00
        -11   -1    0    0    0    0  0.00000000000E+00  0.00000000000E+00  0.45593999997E+02  0.45594000000E+02  0.51100000000E-03 0.  1.
         11   -1    0    0    0    0 -0.00000000000E+00 -0.00000000000E+00 -0.45593999997E+02  0.45594000000E+02  0.51100000000E-03 0. -1.
    9900012    2    1    2    0    0  0.17534693867E+02  0.39563363124E+02  0.33012126328E+01  0.47787271947E+02  0.20000004116E+02 0.  0.
         12    1    1    2    0    0 -0.17534693867E+02 -0.39563363124E+02 -0.33012126328E+01  0.43400728053E+02  0.00000000000E+00 0. -1.
         11    1    3    3    0    0 -0.19115534366E+01 -0.34072952398E+00  0.12273192739E+01  0.22970515908E+01  0.51100000000E-03 0. -1.
        -11    1    3    3    0    0  0.19104246015E+01  0.54025256293E+01 -0.29808417090E+01  0.64592896582E+01  0.51100000000E-03 0.  1.
        -12    1    3    3    0    0  0.17535822702E+02  0.34501567018E+02  0.50547350679E+01  0.39030930698E+02  0.00000000000E+00 0.  1.
</event>
<event>
 7    1  0.2414091E-009  0.4778727E+02  0.7816164E-02  0.1312668E+00
        -11   -1    0    0    0    0  0.00000000000E+00  0.00000000000E+00  0.45593999997E+02  0.45594000000E+02  0.51100000000E-03 0.  1.
         11   -1    0    0    0    0 -0.00000000000E+00 -0.00000000000E+00 -0.45593999997E+02  0.45594000000E+02  0.51100000000E-03 0. -1.
    9900012    2    1    2    0    0  0.23069320477E+02  0.11049636584E+02  0.35061881450E+02  0.47787267901E+02  0.19999985669E+02 0.  0.
         12    1    1    2    0    0 -0.23069320477E+02 -0.11049636584E+02 -0.35061881450E+02  0.43400732099E+02  0.00000000000E+00 0. -1.
         11    1    3    3    0    0  0.73369586810E+01 -0.17829475049E+01  0.45780593537E+01  0.88299769082E+01  0.51100000000E-03 0. -1.
        -11    1    3    3    0    0  0.44364550587E+01 -0.24564238238E+01  0.46267179259E+01  0.68645954373E+01  0.51100000000E-03 0.  1.
        -12    1    3    3    0    0  0.11295906737E+02  0.15289007913E+02  0.25857104170E+02  0.32092695556E+02  0.00000000000E+00 0.  1.
</event>
<event>
 7    1  0.2414091E-009  0.4778727E+02  0.7816164E-02  0.1312668E+00
        -11   -1    0    0    0    0  0.00000000000E+00  0.00000000000E+00  0.45593999997E+02  0.45594000000E+02  0.51100000000E-03 0.  1.
         11   -1    0    0    0    0 -0.00000000000E+00 -0.00000000000E+00 -0.45593999997E+02  0.45594000000E+02  0.51100000000E-03 0. -1.
    9900012    2    1    2    0    0 -0.12892046644E+02 -0.26437503681E+02  0.31913589581E+02  0.47787266510E+02  0.19999979324E+02 0.  0.
         12    1    1    2    0    0  0.12892046644E+02  0.26437503681E+02 -0.31913589581E+02  0.43400733490E+02  0.00000000000E+00 0. -1.
         11    1    3    3    0    0 -0.43562482335E+01 -0.72096548544E+01  0.41830462526E+01  0.94049932485E+01  0.51100000000E-03 0. -1.
        -11    1    3    3    0    0 -0.53978602741E+01 -0.85437685494E+01  0.19401542714E+01  0.10290630468E+02  0.51100000000E-03 0.  1.
         12    1    3    3    0    0 -0.31379381360E+01 -0.10684080277E+02  0.25790389057E+02  0.28091642794E+02  0.00000000000E+00 0. -1.
</event>
<event>
 7    1  0.2414091E-009  0.4778728E+02  0.7816164E-02  0.1312668E+00
        -11   -1    0    0    0    0  0.00000000000E+00  0.00000000000E+00  0.45593999997E+02  0.45594000000E+02  0.51100000000E-03 0.  1.
         11   -1    0    0    0    0 -0.00000000000E+00 -0.00000000000E+00 -0.45593999997E+02  0.45594000000E+02  0.51100000000E-03 0. -1.
    9900012    2    1    2    0    0 -0.23161076949E+02 -0.69247764177E+01  0.36044896231E+02  0.47787279289E+02  0.20000037592E+02 0.  0.
         12    1    1    2    0    0  0.23161076949E+02  0.69247764177E+01 -0.36044896231E+02  0.43400720711E+02  0.00000000000E+00 0. -1.
         11    1    3    3    0    0 -0.36199129511E+01 -0.37499701976E+01  0.64523014911E+01  0.82944705105E+01  0.51100000000E-03 0. -1.
        -11    1    3    3    0    0 -0.50504971337E+01 -0.18707033881E+01  0.22815558691E+02  0.23442627223E+02  0.51100000000E-03 0.  1.
         12    1    3    3    0    0 -0.14490666864E+02 -0.13041028320E+01  0.67770360488E+01  0.16050181556E+02  0.00000000000E+00 0. -1.
</event>
<event>
 7    1  0.2414091E-009  0.4778727E+02  0.7816164E-02  0.1312668E+00
        -11   -1    0    0    0    0  0.00000000000E+00  0.00000000000E+00  0.45593999997E+02  0.45594000000E+02  0.51100000000E-03 0.  1.
         11   -1    0    0    0    0 -0.00000000000E+00 -0.00000000000E+00 -0.45593999997E+02  0.45594000000E+02  0.51100000000E-03 0. -1.
    9900012    2    1    2    0    0 -0.33899531294E+02  0.20935297917E+02  0.17209255624E+02  0.47787269592E+02  0.19999993377E+02 0.  0.
         12    1    1    2    0    0  0.33899531294E+02 -0.20935297917E+02 -0.17209255624E+02  0.43400730408E+02  0.00000000000E+00 0. -1.
         11    1    3    3    0    0 -0.10391641256E+02 -0.72524731557E+00  0.60360980960E+01  0.12039380056E+02  0.51100000000E-03 0. -1.
        -11    1    3    3    0    0 -0.20648247678E+02  0.15458219129E+02  0.12698320256E+02  0.28749852320E+02  0.51100000000E-03 0.  1.
         12    1    3    3    0    0 -0.28596423602E+01  0.62023261031E+01 -0.15251627285E+01  0.69980372153E+01  0.00000000000E+00 0. -1.
</event>
<event>
 7    1  0.2414091E-009  0.4778727E+02  0.7816164E-02  0.1312668E+00
        -11   -1    0    0    0    0  0.00000000000E+00  0.00000000000E+00  0.45593999997E+02  0.45594000000E+02  0.51100000000E-03 0.  1.
         11   -1    0    0    0    0 -0.00000000000E+00 -0.00000000000E+00 -0.45593999997E+02  0.45594000000E+02  0.51100000000E-03 0. -1.
    9900012    2    1    2    0    0  0.41478089870E+02 -0.10801638075E+01  0.12728878693E+02  0.47787273671E+02  0.20000011977E+02 0.  0.
         12    1    1    2    0    0 -0.41478089870E+02  0.10801638075E+01 -0.12728878693E+02  0.43400726329E+02  0.00000000000E+00 0. -1.
         11    1    3    3    0    0  0.15505988554E+02  0.19856792475E+01  0.86664494195E+01  0.17874169881E+02  0.51100000000E-03 0. -1.
        -11    1    3    3    0    0  0.27106147847E+02 -0.39268663289E+01  0.54487271829E+01  0.27925833173E+02  0.51100000000E-03 0.  1.
         12    1    3    3    0    0 -0.11340465313E+01  0.86102327392E+00 -0.13862979093E+01  0.19872706174E+01  0.00000000000E+00 0. -1.
</event>
<event>
 7    1  0.2414091E-009  0.4778727E+02  0.7816164E-02  0.1312668E+00
        -11   -1    0    0    0    0  0.00000000000E+00  0.00000000000E+00  0.45593999997E+02  0.45594000000E+02  0.51100000000E-03 0. -1.
         11   -1    0    0    0    0 -0.00000000000E+00 -0.00000000000E+00 -0.45593999997E+02  0.45594000000E+02  0.51100000000E-03 0.  1.
    9900012    2    1    2    0    0  0.35080242403E+02 -0.11508829928E+02 -0.22815500309E+02  0.47787266968E+02  0.19999981414E+02 0.  0.
         12    1    1    2    0    0 -0.35080242403E+02  0.11508829928E+02  0.22815500309E+02  0.43400733032E+02  0.00000000000E+00 0. -1.
         11    1    3    3    0    0  0.47666128347E+01 -0.61029624958E+01 -0.91752709671E+01  0.12006346102E+02  0.51100000000E-03 0. -1.
        -11    1    3    3    0    0  0.59823819338E+01  0.81399520228E+00 -0.80329703854E+01  0.10048885275E+02  0.51100000000E-03 0.  1.
        -12    1    3    3    0    0  0.24331247635E+02 -0.62198626342E+01 -0.56072589561E+01  0.25732035591E+02  0.00000000000E+00 0.  1.
</event>
<event>
 7    1  0.2414091E-009  0.4778727E+02  0.7816164E-02  0.1312668E+00
        -11   -1    0    0    0    0  0.00000000000E+00  0.00000000000E+00  0.45593999997E+02  0.45594000000E+02  0.51100000000E-03 0.  1.
         11   -1    0    0    0    0 -0.00000000000E+00 -0.00000000000E+00 -0.45593999997E+02  0.45594000000E+02  0.51100000000E-03 0. -1.
    9900012    2    1    2    0    0 -0.37516802202E+02 -0.44394247236E+01  0.21363625359E+02  0.47787269271E+02  0.19999991913E+02 0.  0.
         12    1    1    2    0    0  0.37516802202E+02  0.44394247236E+01 -0.21363625359E+02  0.43400730729E+02  0.00000000000E+00 0. -1.
         11    1    3    3    0    0 -0.15785040986E+02 -0.20393382325E+01  0.44834097420E+01  0.16535639768E+02  0.51100000000E-03 0. -1.
        -11    1    3    3    0    0 -0.21170064655E+02 -0.48773097727E+01  0.99965084663E+01  0.23914221081E+02  0.51100000000E-03 0.  1.
         12    1    3    3    0    0 -0.56169656077E+00  0.24772232816E+01  0.68837071512E+01  0.73374084223E+01  0.00000000000E+00 0. -1.
</event>
<event>
 7    1  0.2414091E-009  0.4778725E+02  0.7816164E-02  0.1312668E+00
        -11   -1    0    0    0    0  0.00000000000E+00  0.00000000000E+00  0.45593999997E+02  0.45594000000E+02  0.51100000000E-03 0.  1.
         11   -1    0    0    0    0 -0.00000000000E+00 -0.00000000000E+00 -0.45593999997E+02  0.45594000000E+02  0.51100000000E-03 0. -1.
    9900012    2    1    2    0    0 -0.22962722681E+01 -0.15068079099E+02  0.40636256636E+02  0.47787248538E+02  0.19999897386E+02 0.  0.
         12    1    1    2    0    0  0.22962722681E+01  0.15068079099E+02 -0.40636256636E+02  0.43400751462E+02  0.00000000000E+00 0. -1.
         11    1    3    3    0    0  0.13582312440E+01 -0.11208914868E+01 -0.36608981787E+00  0.17986694675E+01  0.51100000000E-03 0. -1.
        -11    1    3    3    0    0  0.41848085389E+01  0.55349797680E+00  0.64958274059E+01  0.77469191596E+01  0.51100000000E-03 0.  1.
        -12    1    3    3    0    0 -0.78393120510E+01 -0.14500685589E+02  0.34506519048E+02  0.38241659911E+02  0.00000000000E+00 0.  1.
</event>
<event>
 7    1  0.2414091E-009  0.4778727E+02  0.7816164E-02  0.1312668E+00
        -11   -1    0    0    0    0  0.00000000000E+00  0.00000000000E+00  0.45593999997E+02  0.45594000000E+02  0.51100000000E-03 0.  1.
         11   -1    0    0    0    0 -0.00000000000E+00 -0.00000000000E+00 -0.45593999997E+02  0.45594000000E+02  0.51100000000E-03 0. -1.
    9900012    2    1    2    0    0 -0.20625890152E+02  0.22273341693E+02  0.31017642720E+02  0.47787271266E+02  0.20000001010E+02 0.  0.
         12    1    1    2    0    0  0.20625890152E+02 -0.22273341693E+02 -0.31017642720E+02  0.43400728734E+02  0.00000000000E+00 0. -1.
         11    1    3    3    0    0 -0.91842226063E+01  0.10135459632E+02  0.14499614395E+02  0.19932794704E+02  0.51100000000E-03 0. -1.
        -11    1    3    3    0    0 -0.12911271590E+02  0.14597807563E+02  0.15120862606E+02  0.24666523994E+02  0.51100000000E-03 0.  1.
         12    1    3    3    0    0  0.14696040447E+01 -0.24599255029E+01  0.13971657192E+01  0.31879525678E+01  0.00000000000E+00 0. -1.
</event>
<event>
 7    1  0.2414091E-009  0.4778726E+02  0.7816164E-02  0.1312668E+00
        -11   -1    0    0    0    0  0.00000000000E+00  0.00000000000E+00  0.45593999997E+02  0.45594000000E+02  0.51100000000E-03 0.  1.
         11   -1    0    0    0    0 -0.00000000000E+00 -0.00000000000E+00 -0.45593999997E+02  0.45594000000E+02  0.51100000000E-03 0. -1.
    9900012    2    1    2    0    0 -0.86435642114E+00 -0.69528344017E+01  0.42831470979E+02  0.47787263549E+02  0.19999965826E+02 0.  0.
         12    1    1    2    0    0  0.86435642114E+00  0.69528344017E+01 -0.42831470979E+02  0.43400736451E+02  0.00000000000E+00 0. -1.
         11    1    3    3    0    0  0.49168289271E+00 -0.51707960418E+01  0.17806911248E+02  0.18548988442E+02  0.51100000000E-03 0. -1.
        -11    1    3    3    0    0 -0.17499896553E+01  0.36837446307E+01  0.23058379088E+02  0.23416261118E+02  0.51100000000E-03 0.  1.
         12    1    3    3    0    0  0.39395034141E+00 -0.54657829906E+01  0.19661806434E+01  0.58220139896E+01  0.00000000000E+00 0. -1.
</event>
<event>
 7    1  0.2414091E-009  0.4778729E+02  0.7816164E-02  0.1312668E+00
        -11   -1    0    0    0    0  0.00000000000E+00  0.00000000000E+00  0.45593999997E+02  0.45594000000E+02  0.51100000000E-03 0. -1.
         11   -1    0    0    0    0 -0.00000000000E+00 -0.00000000000E+00 -0.45593999997E+02  0.45594000000E+02  0.51100000000E-03 0.  1.
    9900012    2    1    2    0    0 -0.10646274994E+02  0.19528104946E+02 -0.37268374366E+02  0.47787288232E+02  0.20000078366E+02 0.  0.
         12    1    1    2    0    0  0.10646274994E+02 -0.19528104946E+02  0.37268374366E+02  0.43400711768E+02  0.00000000000E+00 0. -1.
         11    1    3    3    0    0  0.66259531620E+00  0.29575092474E+01 -0.11972429197E+02  0.12350099378E+02  0.51100000000E-03 0. -1.
        -11    1    3    3    0    0 -0.44642591316E+01  0.16920132713E+02 -0.21055081255E+02  0.27377672427E+02  0.51100000000E-03 0.  1.
        -12    1    3    3    0    0 -0.68446111784E+01 -0.34953701365E+00 -0.42408639145E+01  0.80595164278E+01  0.00000000000E+00 0.  1.
</event>
<event>
 7    1  0.2414091E-009  0.4778727E+02  0.7816164E-02  0.1312668E+00
        -11   -1    0    0    0    0  0.00000000000E+00  0.00000000000E+00  0.45593999997E+02  0.45594000000E+02  0.51100000000E-03 0.  1.
         11   -1    0    0    0    0 -0.00000000000E+00 -0.00000000000E+00 -0.45593999997E+02  0.45594000000E+02  0.51100000000E-03 0. -1.
    9900012    2    1    2    0    0 -0.37026915976E+02 -0.47687870108E+01  0.22133453020E+02  0.47787267531E+02  0.19999983981E+02 0.  0.
         12    1    1    2    0    0  0.37026915976E+02  0.47687870108E+01 -0.22133453020E+02  0.43400732469E+02  0.00000000000E+00 0. -1.
         11    1    3    3    0    0 -0.59630893721E+01  0.43380491942E+01  0.45384732421E+01  0.86588016089E+01  0.51100000000E-03 0. -1.
        -11    1    3    3    0    0 -0.86527777845E+01  0.10785409102E+01  0.10211755202E+02  0.13428095861E+02  0.51100000000E-03 0.  1.
        -12    1    3    3    0    0 -0.22411048819E+02 -0.10185377115E+02  0.73832245762E+01  0.25700370062E+02  0.00000000000E+00 0.  1.
</event>
<event>
 7    1  0.2414091E-009  0.4778727E+02  0.7816164E-02  0.1312668E+00
        -11   -1    0    0    0    0  0.00000000000E+00  0.00000000000E+00  0.45593999997E+02  0.45594000000E+02  0.51100000000E-03 0. -1.
         11   -1    0    0    0    0 -0.00000000000E+00 -0.00000000000E+00 -0.45593999997E+02  0.45594000000E+02  0.51100000000E-03 0.  1.
    9900012    2    1    2    0    0 -0.16031024740E+02  0.39358343446E+02 -0.88062675386E+01  0.47787270732E+02  0.19999998576E+02 0.  0.
         12    1    1    2    0    0  0.16031024740E+02 -0.39358343446E+02  0.88062675386E+01  0.43400729268E+02  0.00000000000E+00 0. -1.
         11    1    3    3    0    0 -0.91228946697E+01  0.10163082028E+02 -0.44172076785E+01  0.14353646484E+02  0.51100000000E-03 0. -1.
        -11    1    3    3    0    0 -0.10279684217E+02  0.20887174078E+02 -0.66032781116E+01  0.24198124527E+02  0.51100000000E-03 0.  1.
         12    1    3    3    0    0  0.33715541471E+01  0.83080873404E+01  0.22142182515E+01  0.92354997206E+01  0.00000000000E+00 0. -1.
</event>
<event>
 7    1  0.2414091E-009  0.4778731E+02  0.7816164E-02  0.1312668E+00
        -11   -1    0    0    0    0  0.00000000000E+00  0.00000000000E+00  0.45593999997E+02  0.45594000000E+02  0.51100000000E-03 0.  1.
         11   -1    0    0    0    0 -0.00000000000E+00 -0.00000000000E+00 -0.45593999997E+02  0.45594000000E+02  0.51100000000E-03 0. -1.
    9900012    2    1    2    0    0  0.20169267529E+02 -0.13405488586E+02  0.36015457050E+02  0.47787313100E+02  0.20000191745E+02 0.  0.
         12    1    1    2    0    0 -0.20169267529E+02  0.13405488586E+02 -0.36015457050E+02  0.43400686900E+02  0.00000000000E+00 0. -1.
         11    1    3    3    0    0  0.21933082232E+01 -0.83929342110E+01  0.46962089589E+01  0.98643968128E+01  0.51100000000E-03 0. -1.
        -11    1    3    3    0    0  0.58900972707E+01 -0.57868487676E+01  0.72918933513E+01  0.11016014407E+02  0.51100000000E-03 0.  1.
        -12    1    3    3    0    0  0.12085862035E+02  0.77429439235E+00  0.24027354740E+02  0.26906901879E+02  0.00000000000E+00 0.  1.
</event>
<event>
 7    1  0.2414091E-009  0.4778727E+02  0.7816164E-02  0.1312668E+00
        -11   -1    0    0    0    0  0.00000000000E+00  0.00000000000E+00  0.45593999997E+02  0.45594000000E+02  0.51100000000E-03 0. -1.
         11   -1    0    0    0    0 -0.00000000000E+00 -0.00000000000E+00 -0.45593999997E+02  0.45594000000E+02  0.51100000000E-03 0.  1.
    9900012    2    1    2    0    0 -0.42294860740E+02  0.68439449737E+01  0.69230714391E+01  0.47787265606E+02  0.19999975204E+02 0.  0.
         12    1    1    2    0    0  0.42294860740E+02 -0.68439449737E+01 -0.69230714391E+01  0.43400734394E+02  0.00000000000E+00 0. -1.
         11    1    3    3    0    0 -0.17316980866E+02  0.24962534685E+01  0.13994782077E+01  0.17551855948E+02  0.51100000000E-03 0. -1.
        -11    1    3    3    0    0 -0.96604387657E+01  0.23605751778E+01 -0.54009761757E+01  0.11316666304E+02  0.51100000000E-03 0.  1.
         12    1    3    3    0    0 -0.15317441108E+02  0.19871163273E+01  0.10924569407E+02  0.18918743355E+02  0.00000000000E+00 0. -1.
</event>
<event>
 7    1  0.2414091E-009  0.4778727E+02  0.7816164E-02  0.1312668E+00
        -11   -1    0    0    0    0  0.00000000000E+00  0.00000000000E+00  0.45593999997E+02  0.45594000000E+02  0.51100000000E-03 0.  1.
         11   -1    0    0    0    0 -0.00000000000E+00 -0.00000000000E+00 -0.45593999997E+02  0.45594000000E+02  0.51100000000E-03 0. -1.
    9900012    2    1    2    0    0 -0.94718828111E+01  0.39945857139E+02  0.14079595210E+02  0.47787273418E+02  0.20000010822E+02 0.  0.
         12    1    1    2    0    0  0.94718828111E+01 -0.39945857139E+02 -0.14079595210E+02  0.43400726582E+02  0.00000000000E+00 0. -1.
         11    1    3    3    0    0 -0.25619637129E+01  0.95819526890E+01 -0.31978927714E+01  0.10421323996E+02  0.51100000000E-03 0. -1.
        -11    1    3    3    0    0 -0.83992643621E+01  0.14965182354E+02  0.58439037329E+01  0.18128859198E+02  0.51100000000E-03 0.  1.
         12    1    3    3    0    0  0.14893452638E+01  0.15398722096E+02  0.11433584249E+02  0.19237090224E+02  0.00000000000E+00 0. -1.
</event>
<event>
 7    1  0.2414091E-009  0.4778727E+02  0.7816164E-02  0.1312668E+00
        -11   -1    0    0    0    0  0.00000000000E+00  0.00000000000E+00  0.45593999997E+02  0.45594000000E+02  0.51100000000E-03 0.  1.
         11   -1    0    0    0    0 -0.00000000000E+00 -0.00000000000E+00 -0.45593999997E+02  0.45594000000E+02  0.51100000000E-03 0. -1.
    9900012    2    1    2    0    0 -0.13551642487E+02  0.16567245888E+02  0.37755825303E+02  0.47787274261E+02  0.20000014665E+02 0.  0.
         12    1    1    2    0    0  0.13551642487E+02 -0.16567245888E+02 -0.37755825303E+02  0.43400725739E+02  0.00000000000E+00 0. -1.
         11    1    3    3    0    0 -0.53340650367E+01  0.98624178908E+01  0.70066992110E+01  0.13221700744E+02  0.51100000000E-03 0. -1.
        -11    1    3    3    0    0 -0.58700354959E+01  0.75049743613E+01  0.10553546880E+02  0.14218273766E+02  0.51100000000E-03 0.  1.
         12    1    3    3    0    0 -0.23475419545E+01 -0.80014636459E+00  0.20195579212E+02  0.20347299751E+02  0.00000000000E+00 0. -1.
</event>
<event>
 7    1  0.2414091E-009  0.4778728E+02  0.7816164E-02  0.1312668E+00
        -11   -1    0    0    0    0  0.00000000000E+00  0.00000000000E+00  0.45593999997E+02  0.45594000000E+02  0.51100000000E-03 0.  1.
         11   -1    0    0    0    0 -0.00000000000E+00 -0.00000000000E+00 -0.45593999997E+02  0.45594000000E+02  0.51100000000E-03 0. -1.
    9900012    2    1    2    0    0 -0.33005802479E+02  0.11525966464E+02  0.25717535635E+02  0.47787279506E+02  0.20000038581E+02 0.  0.
         12    1    1    2    0    0  0.33005802479E+02 -0.11525966464E+02 -0.25717535635E+02  0.43400720494E+02  0.00000000000E+00 0. -1.
         11    1    3    3    0    0 -0.50000939653E+01  0.32310178119E+01 -0.17448518062E+01  0.62036218332E+01  0.51100000000E-03 0.  1.
        -11    1    3    3    0    0 -0.19587893706E+01 -0.23647015552E+01  0.30369670197E+01  0.43187773945E+01  0.51100000000E-03 0. -1.
        -12    1    3    3    0    0 -0.26046919143E+02  0.10659650207E+02  0.24425420422E+02  0.37264880279E+02  0.00000000000E+00 0.  1.
</event>
<event>
 7    1  0.2414091E-009  0.4778727E+02  0.7816164E-02  0.1312668E+00
        -11   -1    0    0    0    0  0.00000000000E+00  0.00000000000E+00  0.45593999997E+02  0.45594000000E+02  0.51100000000E-03 0. -1.
         11   -1    0    0    0    0 -0.00000000000E+00 -0.00000000000E+00 -0.45593999997E+02  0.45594000000E+02  0.51100000000E-03 0.  1.
    9900012    2    1    2    0    0  0.24019418276E+02 -0.67156878076E+01 -0.35518873218E+02  0.47787271069E+02  0.20000000113E+02 0.  0.
         12    1    1    2    0    0 -0.24019418276E+02  0.67156878076E+01  0.35518873218E+02  0.43400728931E+02  0.00000000000E+00 0. -1.
         11    1    3    3    0    0  0.11893596635E+02 -0.11937514345E+01 -0.23070774803E+02  0.25983520425E+02  0.51100000000E-03 0. -1.
        -11    1    3    3    0    0  0.13862860352E+02 -0.20515256237E+01 -0.95060817476E+01  0.16933790036E+02  0.51100000000E-03 0.  1.
         12    1    3    3    0    0 -0.17370387115E+01 -0.34704107494E+01 -0.29420166675E+01  0.48699606083E+01  0.00000000000E+00 0. -1.
</event>
<event>
 7    1  0.2414091E-009  0.4778727E+02  0.7816164E-02  0.1312668E+00
        -11   -1    0    0    0    0  0.00000000000E+00  0.00000000000E+00  0.45593999997E+02  0.45594000000E+02  0.51100000000E-03 0.  1.
         11   -1    0    0    0    0 -0.00000000000E+00 -0.00000000000E+00 -0.45593999997E+02  0.45594000000E+02  0.51100000000E-03 0. -1.
    9900012    2    1    2    0    0 -0.29745099287E+02  0.15426733861E+02  0.27583844349E+02  0.47787268229E+02  0.19999987161E+02 0.  0.
         12    1    1    2    0    0  0.29745099287E+02 -0.15426733861E+02 -0.27583844349E+02  0.43400731771E+02  0.00000000000E+00 0. -1.
         11    1    3    3    0    0 -0.62659536988E+01  0.50007183273E+01  0.81594596994E+01  0.11438799867E+02  0.51100000000E-03 0. -1.
        -11    1    3    3    0    0 -0.22060419368E+02  0.13662247654E+02  0.13014721548E+02  0.29029331561E+02  0.51100000000E-03 0.  1.
         12    1    3    3    0    0 -0.14187262204E+01 -0.32362321206E+01  0.64096631019E+01  0.73191368007E+01  0.00000000000E+00 0. -1.
</event>
<event>
 7    1  0.2414091E-009  0.4778727E+02  0.7816164E-02  0.1312668E+00
        -11   -1    0    0    0    0  0.00000000000E+00  0.00000000000E+00  0.45593999997E+02  0.45594000000E+02  0.51100000000E-03 0.  1.
         11   -1    0    0    0    0 -0.00000000000E+00 -0.00000000000E+00 -0.45593999997E+02  0.45594000000E+02  0.51100000000E-03 0. -1.
    9900012    2    1    2    0    0  0.77380934804E+01 -0.32639695669E+02  0.27538981579E+02  0.47787270392E+02  0.19999997024E+02 0.  0.
         12    1    1    2    0    0 -0.77380934804E+01  0.32639695669E+02 -0.27538981579E+02  0.43400729608E+02  0.00000000000E+00 0. -1.
         11    1    3    3    0    0  0.82513809690E+01 -0.75060616931E+01  0.79694874470E+01  0.13709083867E+02  0.51100000000E-03 0. -1.
        -11    1    3    3    0    0  0.18667652962E+01 -0.20800489427E+01  0.73810651437E+01  0.78924989193E+01  0.51100000000E-03 0.  1.
        -12    1    3    3    0    0 -0.23800527848E+01 -0.23053585034E+02  0.12188428989E+02  0.26185687606E+02  0.00000000000E+00 0.  1.
</event>
<event>
 7    1  0.2414091E-009  0.4778728E+02  0.7816164E-02  0.1312668E+00
        -11   -1    0    0    0    0  0.00000000000E+00  0.00000000000E+00  0.45593999997E+02  0.45594000000E+02  0.51100000000E-03 0.  1.
         11   -1    0    0    0    0 -0.00000000000E+00 -0.00000000000E+00 -0.45593999997E+02  0.45594000000E+02  0.51100000000E-03 0. -1.
    9900012    2    1    2    0    0 -0.31703393297E+02  0.29087447778E+02  0.56954380407E+01  0.47787276743E+02  0.20000025981E+02 0.  0.
         12    1    1    2    0    0  0.31703393297E+02 -0.29087447778E+02 -0.56954380407E+01  0.43400723257E+02  0.00000000000E+00 0. -1.
         11    1    3    3    0    0 -0.23963735409E+02  0.24077051192E+02  0.33742969747E+01  0.34137236109E+02  0.51100000000E-03 0.  1.
        -11    1    3    3    0    0 -0.14757889116E+01  0.67531979236E+01  0.69116288165E+00  0.69470383255E+01  0.51100000000E-03 0. -1.
        -12    1    3    3    0    0 -0.62638689769E+01 -0.17428013375E+01  0.16299781844E+01  0.67030023082E+01  0.00000000000E+00 0.  1.
</event>
<event>
 7    1  0.2414091E-009  0.4778728E+02  0.7816164E-02  0.1312668E+00
        -11   -1    0    0    0    0  0.00000000000E+00  0.00000000000E+00  0.45593999997E+02  0.45594000000E+02  0.51100000000E-03 0. -1.
         11   -1    0    0    0    0 -0.00000000000E+00 -0.00000000000E+00 -0.45593999997E+02  0.45594000000E+02  0.51100000000E-03 0.  1.
    9900012    2    1    2    0    0 -0.21621553335E+02 -0.37496667097E+02 -0.31829407963E+01  0.47787277378E+02  0.20000028876E+02 0.  0.
         12    1    1    2    0    0  0.21621553335E+02  0.37496667097E+02  0.31829407963E+01  0.43400722622E+02  0.00000000000E+00 0. -1.
         11    1    3    3    0    0 -0.69332250809E+00 -0.36090492257E+01 -0.37589559292E+01  0.52569651276E+01  0.51100000000E-03 0. -1.
        -11    1    3    3    0    0 -0.15611600032E+02 -0.24057797528E+02 -0.63618261134E+01  0.29376393741E+02  0.51100000000E-03 0.  1.
         12    1    3    3    0    0 -0.53166307948E+01 -0.98298203433E+01  0.69378412462E+01  0.13153918509E+02  0.00000000000E+00 0. -1.
</event>
<event>
 7    1  0.2414091E-009  0.4778727E+02  0.7816164E-02  0.1312668E+00
        -11   -1    0    0    0    0  0.00000000000E+00  0.00000000000E+00  0.45593999997E+02  0.45594000000E+02  0.51100000000E-03 0.  1.
         11   -1    0    0    0    0 -0.00000000000E+00 -0.00000000000E+00 -0.45593999997E+02  0.45594000000E+02  0.51100000000E-03 0. -1.
    9900012    2    1    2    0    0 -0.26150219096E+02  0.19900109886E+02  0.28350925419E+02  0.47787270693E+02  0.19999998399E+02 0.  0.
         12    1    1    2    0    0  0.26150219096E+02 -0.19900109886E+02 -0.28350925419E+02  0.43400729307E+02  0.00000000000E+00 0. -1.
         11    1    3    3    0    0 -0.11436193082E+02  0.67257179334E+01  0.18239266579E+02  0.22554215560E+02  0.51100000000E-03 0. -1.
        -11    1    3    3    0    0 -0.94962260939E+01  0.24153049893E+01  0.88597785392E+01  0.13210135663E+02  0.51100000000E-03 0.  1.
         12    1    3    3    0    0 -0.52177999198E+01  0.10759086963E+02  0.12518803006E+01  0.12022919470E+02  0.00000000000E+00 0. -1.
</event>
<event>
 7    1  0.2414091E-009  0.4778727E+02  0.7816164E-02  0.1312668E+00
        -11   -1    0    0    0    0  0.00000000000E+00  0.00000000000E+00  0.45593999997E+02  0.45594000000E+02  0.51100000000E-03 0.  1.
         11   -1    0    0    0    0 -0.00000000000E+00 -0.00000000000E+00 -0.45593999997E+02  0.45594000000E+02  0.51100000000E-03 0. -1.
    9900012    2    1    2    0    0 -0.23121674881E+02 -0.32771775470E+02  0.16583795363E+02  0.47787269759E+02  0.19999994141E+02 0.  0.
         12    1    1    2    0    0  0.23121674881E+02  0.32771775470E+02 -0.16583795363E+02  0.43400730241E+02  0.00000000000E+00 0. -1.
         11    1    3    3    0    0 -0.41701935913E+01  0.96020938023E+00 -0.12009993061E+01  0.44446502941E+01  0.51100000000E-03 0. -1.
        -11    1    3    3    0    0 -0.97645478595E+01 -0.98346503302E+01  0.74366225832E+01  0.15728003615E+02  0.51100000000E-03 0.  1.
         12    1    3    3    0    0 -0.91869334303E+01 -0.23897334520E+02  0.10348172086E+02  0.27614615850E+02  0.00000000000E+00 0. -1.
</event>
<event>
 7    1  0.2414091E-009  0.4778727E+02  0.7816164E-02  0.1312668E+00
        -11   -1    0    0    0    0  0.00000000000E+00  0.00000000000E+00  0.45593999997E+02  0.45594000000E+02  0.51100000000E-03 0. -1.
         11   -1    0    0    0    0 -0.00000000000E+00 -0.00000000000E+00 -0.45593999997E+02  0.45594000000E+02  0.51100000000E-03 0.  1.
    9900012    2    1    2    0    0  0.25181935254E+01  0.47698381080E+01 -0.43064261498E+02  0.47787271059E+02  0.20000000067E+02 0.  0.
         12    1    1    2    0    0 -0.25181935254E+01 -0.47698381080E+01  0.43064261498E+02  0.43400728941E+02  0.00000000000E+00 0. -1.
         11    1    3    3    0    0 -0.96069383775E+00  0.45475063089E+01 -0.11330240108E+02  0.12246513277E+02  0.51100000000E-03 0. -1.
        -11    1    3    3    0    0 -0.31603644968E+01  0.18443841519E+01 -0.26952297278E+02  0.27199558553E+02  0.51100000000E-03 0.  1.
         12    1    3    3    0    0  0.66392518600E+01 -0.16220523527E+01 -0.47817241127E+01  0.83411992294E+01  0.00000000000E+00 0. -1.
</event>
<event>
 7    1  0.2414091E-009  0.4778727E+02  0.7816164E-02  0.1312668E+00
        -11   -1    0    0    0    0  0.00000000000E+00  0.00000000000E+00  0.45593999997E+02  0.45594000000E+02  0.51100000000E-03 0.  1.
         11   -1    0    0    0    0 -0.00000000000E+00 -0.00000000000E+00 -0.45593999997E+02  0.45594000000E+02  0.51100000000E-03 0. -1.
    9900012    2    1    2    0    0 -0.12299530552E+02  0.40939950735E+01  0.41419611483E+02  0.47787268868E+02  0.19999990075E+02 0.  0.
         12    1    1    2    0    0  0.12299530552E+02 -0.40939950735E+01 -0.41419611483E+02  0.43400731132E+02  0.00000000000E+00 0. -1.
         11    1    3    3    0    0  0.95861373948E+00 -0.79223262753E+00  0.10694663001E+01  0.16402229318E+01  0.51100000000E-03 0. -1.
        -11    1    3    3    0    0  0.25923145727E+01 -0.19999896492E+01  0.15729194427E+02  0.16066350271E+02  0.51100000000E-03 0.  1.
         12    1    3    3    0    0 -0.15850458864E+02  0.68862173503E+01  0.24620950756E+02  0.30080695665E+02  0.00000000000E+00 0. -1.
</event>
<event>
 7    1  0.2414091E-009  0.4778727E+02  0.7816164E-02  0.1312668E+00
        -11   -1    0    0    0    0  0.00000000000E+00  0.00000000000E+00  0.45593999997E+02  0.45594000000E+02  0.51100000000E-03 0.  1.
         11   -1    0    0    0    0 -0.00000000000E+00 -0.00000000000E+00 -0.45593999997E+02  0.45594000000E+02  0.51100000000E-03 0. -1.
    9900012    2    1    2    0    0 -0.63321989415E+01  0.73798658424E+01  0.42297328527E+02  0.47787272312E+02  0.20000005781E+02 0.  0.
         12    1    1    2    0    0  0.63321989415E+01 -0.73798658424E+01 -0.42297328527E+02  0.43400727688E+02  0.00000000000E+00 0. -1.
         11    1    3    3    0    0 -0.38845281142E+01  0.44995172215E+01  0.69971402007E+01  0.91812409371E+01  0.51100000000E-03 0. -1.
        -11    1    3    3    0    0 -0.26777897909E+01  0.82492932109E+01  0.12721794506E+02  0.15396929966E+02  0.51100000000E-03 0.  1.
        -12    1    3    3    0    0  0.23011896360E+00 -0.53689445900E+01  0.22578393820E+02  0.23209101410E+02  0.00000000000E+00 0.  1.
</event>
<event>
 7    1  0.2414091E-009  0.4778727E+02  0.7816164E-02  0.1312668E+00
        -11   -1    0    0    0    0  0.00000000000E+00  0.00000000000E+00  0.45593999997E+02  0.45594000000E+02  0.51100000000E-03 0.  1.
         11   -1    0    0    0    0 -0.00000000000E+00 -0.00000000000E+00 -0.45593999997E+02  0.45594000000E+02  0.51100000000E-03 0. -1.
    9900012    2    1    2    0    0 -0.20701660375E+02  0.13969543339E+02  0.35495300335E+02  0.47787271558E+02  0.20000002343E+02 0.  0.
         12    1    1    2    0    0  0.20701660375E+02 -0.13969543339E+02 -0.35495300335E+02  0.43400728442E+02  0.00000000000E+00 0. -1.
         11    1    3    3    0    0 -0.53398975662E+01  0.23940129699E+01  0.64973428892E+01  0.87442134580E+01  0.51100000000E-03 0. -1.
        -11    1    3    3    0    0 -0.14566590036E+02  0.15845878615E+02  0.26058161341E+02  0.33798005667E+02  0.51100000000E-03 0.  1.
         12    1    3    3    0    0 -0.79517277320E+00 -0.42703482466E+01  0.29397961053E+01  0.52450524332E+01  0.00000000000E+00 0. -1.
</event>
<event>
 7    1  0.2414091E-009  0.4778726E+02  0.7816164E-02  0.1312668E+00
        -11   -1    0    0    0    0  0.00000000000E+00  0.00000000000E+00  0.45593999997E+02  0.45594000000E+02  0.51100000000E-03 0.  1.
         11   -1    0    0    0    0 -0.00000000000E+00 -0.00000000000E+00 -0.45593999997E+02  0.45594000000E+02  0.51100000000E-03 0. -1.
    9900012    2    1    2    0    0  0.72612286410E+01 -0.36857965107E+02  0.21734523396E+02  0.47787256453E+02  0.19999933469E+02 0.  0.
         12    1    1    2    0    0 -0.72612286410E+01  0.36857965107E+02 -0.21734523396E+02  0.43400743547E+02  0.00000000000E+00 0. -1.
         11    1    3    3    0    0 -0.75867736068E+00 -0.79557517859E+00  0.40010465756E+01  0.41493258686E+01  0.51100000000E-03 0. -1.
        -11    1    3    3    0    0  0.66280786900E+01 -0.81231723417E+01  0.10291157843E+02  0.14690993364E+02  0.51100000000E-03 0.  1.
        -12    1    3    3    0    0  0.13918273117E+01 -0.27939217587E+02  0.74423189770E+01  0.28946937219E+02  0.00000000000E+00 0.  1.
</event>
<event>
 7    1  0.2414091E-009  0.4778727E+02  0.7816164E-02  0.1312668E+00
        -11   -1    0    0    0    0  0.00000000000E+00  0.00000000000E+00  0.45593999997E+02  0.45594000000E+02  0.51100000000E-03 0.  1.
         11   -1    0    0    0    0 -0.00000000000E+00 -0.00000000000E+00 -0.45593999997E+02  0.45594000000E+02  0.51100000000E-03 0. -1.
    9900012    2    1    2    0    0 -0.29837257174E+02  0.31397596503E+02  0.27481789543E+01  0.47787268792E+02  0.19999989729E+02 0.  0.
         12    1    1    2    0    0  0.29837257174E+02 -0.31397596503E+02 -0.27481789543E+01  0.43400731208E+02  0.00000000000E+00 0. -1.
         11    1    3    3    0    0 -0.49693916880E+01  0.45482235043E+01  0.60463539439E+01  0.90520487774E+01  0.51100000000E-03 0. -1.
        -11    1    3    3    0    0 -0.15867075782E+02  0.14289980703E+02  0.38710102731E+01  0.21701436892E+02  0.51100000000E-03 0.  1.
         12    1    3    3    0    0 -0.90007897039E+01  0.12559392296E+02 -0.71691852627E+01  0.17033783123E+02  0.00000000000E+00 0. -1.
</event>
<event>
 7    1  0.2414091E-009  0.4778725E+02  0.7816164E-02  0.1312668E+00
        -11   -1    0    0    0    0  0.00000000000E+00  0.00000000000E+00  0.45593999997E+02  0.45594000000E+02  0.51100000000E-03 0.  1.
         11   -1    0    0    0    0 -0.00000000000E+00 -0.00000000000E+00 -0.45593999997E+02  0.45594000000E+02  0.51100000000E-03 0. -1.
    9900012    2    1    2    0    0 -0.26906019288E+02 -0.16518582522E+02  0.29779654963E+02  0.47787247793E+02  0.19999893985E+02 0.  0.
         12    1    1    2    0    0  0.26906019288E+02  0.16518582522E+02 -0.29779654963E+02  0.43400752207E+02  0.00000000000E+00 0. -1.
         11    1    3    3    0    0 -0.11177599502E+02 -0.13190488618E+02  0.16828697055E+02  0.24127427659E+02  0.51100000000E-03 0. -1.
        -11    1    3    3    0    0 -0.15548608536E+01 -0.27797779752E+01  0.80427357631E+01  0.86504541315E+01  0.51100000000E-03 0.  1.
         12    1    3    3    0    0 -0.14173558932E+02 -0.54831592836E+00  0.49082221454E+01  0.15009366002E+02  0.00000000000E+00 0. -1.
</event>
<event>
 7    1  0.2414091E-009  0.4778727E+02  0.7816164E-02  0.1312668E+00
        -11   -1    0    0    0    0  0.00000000000E+00  0.00000000000E+00  0.45593999997E+02  0.45594000000E+02  0.51100000000E-03 0.  1.
         11   -1    0    0    0    0 -0.00000000000E+00 -0.00000000000E+00 -0.45593999997E+02  0.45594000000E+02  0.51100000000E-03 0. -1.
    9900012    2    1    2    0    0 -0.35920212856E+02  0.76251208469E+01  0.23134812179E+02  0.47787266203E+02  0.19999977926E+02 0.  0.
         12    1    1    2    0    0  0.35920212856E+02 -0.76251208469E+01 -0.23134812179E+02  0.43400733797E+02  0.00000000000E+00 0. -1.
         11    1    3    3    0    0 -0.28098283096E+01  0.55878426667E+01  0.88820140948E+00  0.63172796995E+01  0.51100000000E-03 0. -1.
        -11    1    3    3    0    0 -0.58750330080E+00 -0.93977570451E+00 -0.91050062943E+00  0.14343465971E+01  0.51100000000E-03 0.  1.
        -12    1    3    3    0    0 -0.32522881246E+02  0.29770538847E+01  0.23157111399E+02  0.40035639906E+02  0.00000000000E+00 0.  1.
</event>
<event>
 7    1  0.2414091E-009  0.4778727E+02  0.7816164E-02  0.1312668E+00
        -11   -1    0    0    0    0  0.00000000000E+00  0.00000000000E+00  0.45593999997E+02  0.45594000000E+02  0.51100000000E-03 0.  1.
         11   -1    0    0    0    0 -0.00000000000E+00 -0.00000000000E+00 -0.45593999997E+02  0.45594000000E+02  0.51100000000E-03 0. -1.
    9900012    2    1    2    0    0  0.13248478358E+01 -0.43203668366E+02 -0.39129407873E+01  0.47787270885E+02  0.19999999275E+02 0.  0.
         12    1    1    2    0    0 -0.13248478358E+01  0.43203668366E+02  0.39129407873E+01  0.43400729115E+02  0.00000000000E+00 0. -1.
         11    1    3    3    0    0 -0.34437746456E+01 -0.65475755089E+01 -0.17243092391E+01  0.75962866894E+01  0.51100000000E-03 0. -1.
        -11    1    3    3    0    0 -0.49143970735E+01 -0.66999191407E+01  0.16634779409E+01  0.84739231887E+01  0.51100000000E-03 0.  1.
        -12    1    3    3    0    0  0.96830195549E+01 -0.29956173716E+02 -0.38521094891E+01  0.31717061007E+02  0.00000000000E+00 0.  1.
</event>
<event>
 7    1  0.2414091E-009  0.4778727E+02  0.7816164E-02  0.1312668E+00
        -11   -1    0    0    0    0  0.00000000000E+00  0.00000000000E+00  0.45593999997E+02  0.45594000000E+02  0.51100000000E-03 0.  1.
         11   -1    0    0    0    0 -0.00000000000E+00 -0.00000000000E+00 -0.45593999997E+02  0.45594000000E+02  0.51100000000E-03 0. -1.
    9900012    2    1    2    0    0  0.23998631744E+02  0.17981397915E+02  0.31374486262E+02  0.47787269767E+02  0.19999994175E+02 0.  0.
         12    1    1    2    0    0 -0.23998631744E+02 -0.17981397915E+02 -0.31374486262E+02  0.43400730233E+02  0.00000000000E+00 0. -1.
         11    1    3    3    0    0  0.42988954449E+01  0.46384495311E+01  0.18651787807E+02  0.19694793849E+02  0.51100000000E-03 0. -1.
        -11    1    3    3    0    0  0.16628206616E+01 -0.10454132272E+01  0.79510348024E+00  0.21189740852E+01  0.51100000000E-03 0.  1.
        -12    1    3    3    0    0  0.18036915637E+02  0.14388361611E+02  0.11927594975E+02  0.25973501833E+02  0.00000000000E+00 0.  1.
</event>
<event>
 7    1  0.2414091E-009  0.4778728E+02  0.7816164E-02  0.1312668E+00
        -11   -1    0    0    0    0  0.00000000000E+00  0.00000000000E+00  0.45593999997E+02  0.45594000000E+02  0.51100000000E-03 0. -1.
         11   -1    0    0    0    0 -0.00000000000E+00 -0.00000000000E+00 -0.45593999997E+02  0.45594000000E+02  0.51100000000E-03 0.  1.
    9900012    2    1    2    0    0 -0.16908187845E+02  0.26721218865E+02 -0.29727299942E+02  0.47787277475E+02  0.20000029322E+02 0.  0.
         12    1    1    2    0    0  0.16908187845E+02 -0.26721218865E+02  0.29727299942E+02  0.43400722525E+02  0.00000000000E+00 0. -1.
         11    1    3    3    0    0 -0.12139836608E+02  0.14160543595E+02 -0.12057796818E+02  0.22210067360E+02  0.51100000000E-03 0.  1.
        -11    1    3    3    0    0 -0.70675680788E+01  0.17515354301E+01 -0.54039345598E+01  0.90675743118E+01  0.51100000000E-03 0. -1.
         12    1    3    3    0    0  0.22992168421E+01  0.10809139840E+02 -0.12265568564E+02  0.16509635804E+02  0.00000000000E+00 0. -1.
</event>
<event>
 7    1  0.2414091E-009  0.4778727E+02  0.7816164E-02  0.1312668E+00
        -11   -1    0    0    0    0  0.00000000000E+00  0.00000000000E+00  0.45593999997E+02  0.45594000000E+02  0.51100000000E-03 0.  1.
         11   -1    0    0    0    0 -0.00000000000E+00 -0.00000000000E+00 -0.45593999997E+02  0.45594000000E+02  0.51100000000E-03 0. -1.
    9900012    2    1    2    0    0 -0.20815084585E+02 -0.24635758965E+02  0.29041950977E+02  0.47787270943E+02  0.19999999540E+02 0.  0.
         12    1    1    2    0    0  0.20815084585E+02  0.24635758965E+02 -0.29041950977E+02  0.43400729057E+02  0.00000000000E+00 0. -1.
         11    1    3    3    0    0 -0.57758392959E+01 -0.92580443297E+01  0.19377359618E+02  0.22238564936E+02  0.51100000000E-03 0. -1.
        -11    1    3    3    0    0 -0.74138678759E+01 -0.81319220541E+01  0.10215999192E+02  0.15015333261E+02  0.51100000000E-03 0.  1.
         12    1    3    3    0    0 -0.76253774133E+01 -0.72457925815E+01 -0.55140783272E+00  0.10533372747E+02  0.00000000000E+00 0. -1.
</event>
<event>
 7    1  0.2414091E-009  0.4778727E+02  0.7816164E-02  0.1312668E+00
        -11   -1    0    0    0    0  0.00000000000E+00  0.00000000000E+00  0.45593999997E+02  0.45594000000E+02  0.51100000000E-03 0.  1.
         11   -1    0    0    0    0 -0.00000000000E+00 -0.00000000000E+00 -0.45593999997E+02  0.45594000000E+02  0.51100000000E-03 0. -1.
    9900012    2    1    2    0    0 -0.39667328215E+02  0.17176197545E+02 -0.38864610210E+01  0.47787271099E+02  0.20000000251E+02 0.  0.
         12    1    1    2    0    0  0.39667328215E+02 -0.17176197545E+02  0.38864610210E+01  0.43400728901E+02  0.00000000000E+00 0. -1.
         11    1    3    3    0    0 -0.33372888576E+02  0.13057240767E+02  0.30908858300E+01  0.35969359236E+02  0.51100000000E-03 0.  1.
        -11    1    3    3    0    0 -0.14438286430E+01  0.36322801101E+01 -0.87153956120E+00  0.40047074071E+01  0.51100000000E-03 0. -1.
        -12    1    3    3    0    0 -0.48506109958E+01  0.48667666719E+00 -0.61058072899E+01  0.78132044560E+01  0.00000000000E+00 0.  1.
</event>
<event>
 7    1  0.2414091E-009  0.4778726E+02  0.7816164E-02  0.1312668E+00
        -11   -1    0    0    0    0  0.00000000000E+00  0.00000000000E+00  0.45593999997E+02  0.45594000000E+02  0.51100000000E-03 0.  1.
         11   -1    0    0    0    0 -0.00000000000E+00 -0.00000000000E+00 -0.45593999997E+02  0.45594000000E+02  0.51100000000E-03 0. -1.
    9900012    2    1    2    0    0 -0.69823407269E+01  0.14506286023E+02  0.40304331973E+02  0.47787255859E+02  0.19999930765E+02 0.  0.
         12    1    1    2    0    0  0.69823407269E+01 -0.14506286023E+02 -0.40304331973E+02  0.43400744141E+02  0.00000000000E+00 0. -1.
         11    1    3    3    0    0  0.35768371220E+01 -0.35349401003E-01  0.62294241079E+01  0.71833653920E+01  0.51100000000E-03 0. -1.
        -11    1    3    3    0    0  0.17873900361E+01  0.75311966130E+01  0.98833121860E+01  0.12553626790E+02  0.51100000000E-03 0.  1.
         12    1    3    3    0    0 -0.12346567885E+02  0.70104388114E+01  0.24191595679E+02  0.28050263677E+02  0.00000000000E+00 0. -1.
</event>
<event>
 7    1  0.2414091E-009  0.4778727E+02  0.7816164E-02  0.1312668E+00
        -11   -1    0    0    0    0  0.00000000000E+00  0.00000000000E+00  0.45593999997E+02  0.45594000000E+02  0.51100000000E-03 0.  1.
         11   -1    0    0    0    0 -0.00000000000E+00 -0.00000000000E+00 -0.45593999997E+02  0.45594000000E+02  0.51100000000E-03 0. -1.
    9900012    2    1    2    0    0 -0.20568642823E+01 -0.43248297182E+02  0.29962702213E+01  0.47787268035E+02  0.19999986280E+02 0.  0.
         12    1    1    2    0    0  0.20568642823E+01  0.43248297182E+02 -0.29962702213E+01  0.43400731965E+02  0.00000000000E+00 0. -1.
         11    1    3    3    0    0 -0.11811591394E+01 -0.18588278963E+01 -0.43475802747E+01  0.48735851861E+01  0.51100000000E-03 0. -1.
        -11    1    3    3    0    0  0.19980505973E+01 -0.91424715139E+01  0.45862862612E+01  0.10421660784E+02  0.51100000000E-03 0.  1.
        -12    1    3    3    0    0 -0.28737557401E+01 -0.32246997772E+02  0.27575642348E+01  0.32492022065E+02  0.00000000000E+00 0.  1.
</event>
<event>
 7    1  0.2414091E-009  0.4778728E+02  0.7816164E-02  0.1312668E+00
        -11   -1    0    0    0    0  0.00000000000E+00  0.00000000000E+00  0.45593999997E+02  0.45594000000E+02  0.51100000000E-03 0. -1.
         11   -1    0    0    0    0 -0.00000000000E+00 -0.00000000000E+00 -0.45593999997E+02  0.45594000000E+02  0.51100000000E-03 0.  1.
    9900012    2    1    2    0    0 -0.27050037904E+02  0.31361709283E+01 -0.33794711773E+02  0.47787278087E+02  0.20000032112E+02 0.  0.
         12    1    1    2    0    0  0.27050037904E+02 -0.31361709283E+01  0.33794711773E+02  0.43400721913E+02  0.00000000000E+00 0. -1.
         11    1    3    3    0    0 -0.71080936259E+01  0.56900367959E+01 -0.88070802666E+01  0.12667524494E+02  0.51100000000E-03 0. -1.
        -11    1    3    3    0    0 -0.20480509807E+02 -0.86069514528E+00 -0.25973357640E+02  0.33087873692E+02  0.51100000000E-03 0.  1.
        -12    1    3    3    0    0  0.53856552910E+00 -0.16931707223E+01  0.98572613307E+00  0.20318799013E+01  0.00000000000E+00 0.  1.
</event>
<event>
 7    1  0.2414091E-009  0.4778727E+02  0.7816164E-02  0.1312668E+00
        -11   -1    0    0    0    0  0.00000000000E+00  0.00000000000E+00  0.45593999997E+02  0.45594000000E+02  0.51100000000E-03 0.  1.
         11   -1    0    0    0    0 -0.00000000000E+00 -0.00000000000E+00 -0.45593999997E+02  0.45594000000E+02  0.51100000000E-03 0. -1.
    9900012    2    1    2    0    0  0.24860482068E+02 -0.14709777208E+02  0.32391389913E+02  0.47787271266E+02  0.20000001011E+02 0.  0.
         12    1    1    2    0    0 -0.24860482068E+02  0.14709777208E+02 -0.32391389913E+02  0.43400728734E+02  0.00000000000E+00 0. -1.
         11    1    3    3    0    0  0.78131902286E+01  0.89468743656E+00  0.34278324460E+01  0.85788369081E+01  0.51100000000E-03 0. -1.
        -11    1    3    3    0    0  0.19027523829E+02 -0.14409896665E+02  0.24637586601E+02  0.34303096926E+02  0.51100000000E-03 0.  1.
         12    1    3    3    0    0 -0.19802319893E+01 -0.11945679792E+01  0.43259708660E+01  0.49053374320E+01  0.00000000000E+00 0. -1.
</event>
<event>
 7    1  0.2414091E-009  0.4778727E+02  0.7816164E-02  0.1312668E+00
        -11   -1    0    0    0    0  0.00000000000E+00  0.00000000000E+00  0.45593999997E+02  0.45594000000E+02  0.51100000000E-03 0. -1.
         11   -1    0    0    0    0 -0.00000000000E+00 -0.00000000000E+00 -0.45593999997E+02  0.45594000000E+02  0.51100000000E-03 0.  1.
    9900012    2    1    2    0    0 -0.15419410176E+02  0.34409976038E+02 -0.21489963405E+02  0.47787272031E+02  0.20000004499E+02 0.  0.
         12    1    1    2    0    0  0.15419410176E+02 -0.34409976038E+02  0.21489963405E+02  0.43400727969E+02  0.00000000000E+00 0. -1.
         11    1    3    3    0    0 -0.30437098739E+01  0.15068884280E+01  0.23821245703E+00  0.34046479946E+01  0.51100000000E-03 0. -1.
        -11    1    3    3    0    0  0.95682417886E+00  0.70001352035E+01  0.13789176827E+01  0.71985289896E+01  0.51100000000E-03 0.  1.
        -12    1    3    3    0    0 -0.13332524481E+02  0.25902952406E+02 -0.23107093545E+02  0.37184095047E+02  0.00000000000E+00 0.  1.
</event>
<event>
 7    1  0.2414091E-009  0.4778727E+02  0.7816164E-02  0.1312668E+00
        -11   -1    0    0    0    0  0.00000000000E+00  0.00000000000E+00  0.45593999997E+02  0.45594000000E+02  0.51100000000E-03 0. -1.
         11   -1    0    0    0    0 -0.00000000000E+00 -0.00000000000E+00 -0.45593999997E+02  0.45594000000E+02  0.51100000000E-03 0.  1.
    9900012    2    1    2    0    0  0.74762567803E+01  0.37046070698E+01 -0.42591131391E+02  0.47787274175E+02  0.20000014274E+02 0.  0.
         12    1    1    2    0    0 -0.74762567803E+01 -0.37046070698E+01  0.42591131391E+02  0.43400725825E+02  0.00000000000E+00 0. -1.
         11    1    3    3    0    0  0.30060464005E+00  0.11824930262E+01 -0.71924743632E+01  0.72952272502E+01  0.51100000000E-03 0. -1.
        -11    1    3    3    0    0  0.35760657199E+01  0.16951830531E+01 -0.36440339850E+02  0.36654607627E+02  0.51100000000E-03 0.  1.
         12    1    3    3    0    0  0.35995864203E+01  0.82693099050E+00  0.10416828229E+01  0.38374392978E+01  0.00000000000E+00 0. -1.
</event>
<event>
 7    1  0.2414091E-009  0.4778728E+02  0.7816164E-02  0.1312668E+00
        -11   -1    0    0    0    0  0.00000000000E+00  0.00000000000E+00  0.45593999997E+02  0.45594000000E+02  0.51100000000E-03 0.  1.
         11   -1    0    0    0    0 -0.00000000000E+00 -0.00000000000E+00 -0.45593999997E+02  0.45594000000E+02  0.51100000000E-03 0. -1.
    9900012    2    1    2    0    0  0.33273139065E+02 -0.15690602458E+02  0.23028794952E+02  0.47787283581E+02  0.20000057159E+02 0.  0.
         12    1    1    2    0    0 -0.33273139065E+02  0.15690602458E+02 -0.23028794952E+02  0.43400716419E+02  0.00000000000E+00 0. -1.
         11    1    3    3    0    0  0.17736176056E+02 -0.95314321911E+01  0.18295221109E+02  0.27205426966E+02  0.51100000000E-03 0.  1.
        -11    1    3    3    0    0 -0.60183481194E+00  0.71349173255E+00  0.27796054956E+01  0.29321464093E+01  0.51100000000E-03 0. -1.
        -12    1    3    3    0    0  0.16138797820E+02 -0.68726619999E+01  0.19539683477E+01  0.17649710206E+02  0.00000000000E+00 0.  1.
</event>
<event>
 7    1  0.2414091E-009  0.4778726E+02  0.7816164E-02  0.1312668E+00
        -11   -1    0    0    0    0  0.00000000000E+00  0.00000000000E+00  0.45593999997E+02  0.45594000000E+02  0.51100000000E-03 0. -1.
         11   -1    0    0    0    0 -0.00000000000E+00 -0.00000000000E+00 -0.45593999997E+02  0.45594000000E+02  0.51100000000E-03 0.  1.
    9900012    2    1    2    0    0 -0.41105375027E+02  0.75122535321E+00  0.13907106204E+02  0.47787264999E+02  0.19999972436E+02 0.  0.
         12    1    1    2    0    0  0.41105375027E+02 -0.75122535321E+00 -0.13907106204E+02  0.43400735001E+02  0.00000000000E+00 0. -1.
         11    1    3    3    0    0 -0.25599941417E+02 -0.58762769260E+01  0.12017714349E+02  0.28884478349E+02  0.51100000000E-03 0.  1.
        -11    1    3    3    0    0 -0.74503122752E+01  0.26894676273E+01  0.50523496344E+01  0.93950319960E+01  0.51100000000E-03 0. -1.
         12    1    3    3    0    0 -0.80551213352E+01  0.39380346519E+01 -0.31629577792E+01  0.95077546539E+01  0.00000000000E+00 0. -1.
</event>
<event>
 7    1  0.2414091E-009  0.4778727E+02  0.7816164E-02  0.1312668E+00
        -11   -1    0    0    0    0  0.00000000000E+00  0.00000000000E+00  0.45593999997E+02  0.45594000000E+02  0.51100000000E-03 0. -1.
         11   -1    0    0    0    0 -0.00000000000E+00 -0.00000000000E+00 -0.45593999997E+02  0.45594000000E+02  0.51100000000E-03 0.  1.
    9900012    2    1    2    0    0 -0.29234269414E+02 -0.31964238316E+02  0.26960144095E+01  0.47787268059E+02  0.19999986389E+02 0.  0.
         12    1    1    2    0    0  0.29234269414E+02  0.31964238316E+02 -0.26960144095E+01  0.43400731941E+02  0.00000000000E+00 0. -1.
         11    1    3    3    0    0 -0.12700924202E+02 -0.72858793272E+01 -0.14341832236E+01  0.14712389165E+02  0.51100000000E-03 0. -1.
        -11    1    3    3    0    0 -0.13068711551E+02 -0.22359512428E+02 -0.16464913921E+01  0.25950914277E+02  0.51100000000E-03 0.  1.
        -12    1    3    3    0    0 -0.34646336610E+01 -0.23188465604E+01  0.57766890253E+01  0.71239646174E+01  0.00000000000E+00 0.  1.
</event>
<event>
 7    1  0.2414091E-009  0.4778726E+02  0.7816164E-02  0.1312668E+00
        -11   -1    0    0    0    0  0.00000000000E+00  0.00000000000E+00  0.45593999997E+02  0.45594000000E+02  0.51100000000E-03 0. -1.
         11   -1    0    0    0    0 -0.00000000000E+00 -0.00000000000E+00 -0.45593999997E+02  0.45594000000E+02  0.51100000000E-03 0.  1.
    9900012    2    1    2    0    0 -0.38457679775E+02  0.12614834588E+02  0.15668340988E+02  0.47787261589E+02  0.19999956887E+02 0.  0.
         12    1    1    2    0    0  0.38457679775E+02 -0.12614834588E+02 -0.15668340988E+02  0.43400738411E+02  0.00000000000E+00 0. -1.
         11    1    3    3    0    0 -0.44908238052E+01 -0.39885459403E+01  0.50599742659E+01  0.78536193567E+01  0.51100000000E-03 0. -1.
        -11    1    3    3    0    0 -0.76180745051E+01  0.16945993020E+01 -0.14696730210E+00  0.78056598445E+01  0.51100000000E-03 0.  1.
        -12    1    3    3    0    0 -0.26348781464E+02  0.14908781227E+02  0.10755334024E+02  0.32127982387E+02  0.00000000000E+00 0.  1.
</event>
<event>
 7    1  0.2414091E-009  0.4778727E+02  0.7816164E-02  0.1312668E+00
        -11   -1    0    0    0    0  0.00000000000E+00  0.00000000000E+00  0.45593999997E+02  0.45594000000E+02  0.51100000000E-03 0.  1.
         11   -1    0    0    0    0 -0.00000000000E+00 -0.00000000000E+00 -0.45593999997E+02  0.45594000000E+02  0.51100000000E-03 0. -1.
    9900012    2    1    2    0    0  0.27160663757E+02  0.16077206076E+02  0.29790019473E+02  0.47787268772E+02  0.19999989640E+02 0.  0.
         12    1    1    2    0    0 -0.27160663757E+02 -0.16077206076E+02 -0.29790019473E+02  0.43400731228E+02  0.00000000000E+00 0. -1.
         11    1    3    3    0    0  0.33493846627E+01  0.29636697062E+01  0.23760978403E+00  0.44786353297E+01  0.51100000000E-03 0. -1.
        -11    1    3    3    0    0  0.71378713451E+00  0.41906933999E+01  0.12606741629E+02  0.13304184981E+02  0.51100000000E-03 0.  1.
        -12    1    3    3    0    0  0.23097491959E+02  0.89228429699E+01  0.16945668059E+02  0.30004448461E+02  0.00000000000E+00 0.  1.
</event>
<event>
 7    1  0.2414091E-009  0.4778727E+02  0.7816164E-02  0.1312668E+00
        -11   -1    0    0    0    0  0.00000000000E+00  0.00000000000E+00  0.45593999997E+02  0.45594000000E+02  0.51100000000E-03 0.  1.
         11   -1    0    0    0    0 -0.00000000000E+00 -0.00000000000E+00 -0.45593999997E+02  0.45594000000E+02  0.51100000000E-03 0. -1.
    9900012    2    1    2    0    0 -0.12970209443E+02  0.15295112350E+01  0.41389096990E+02  0.47787273194E+02  0.20000009802E+02 0.  0.
         12    1    1    2    0    0  0.12970209443E+02 -0.15295112350E+01 -0.41389096990E+02  0.43400726806E+02  0.00000000000E+00 0. -1.
         11    1    3    3    0    0 -0.46293943966E+00  0.38909962369E+01  0.14856500719E+02  0.15364562425E+02  0.51100000000E-03 0. -1.
        -11    1    3    3    0    0 -0.43535966834E+01  0.25025662319E+01  0.20654309246E+02  0.21255990509E+02  0.51100000000E-03 0.  1.
         12    1    3    3    0    0 -0.81536733200E+01 -0.48640512338E+01  0.58782870247E+01  0.11166720260E+02  0.00000000000E+00 0. -1.
</event>
<event>
 7    1  0.2414091E-009  0.4778727E+02  0.7816164E-02  0.1312668E+00
        -11   -1    0    0    0    0  0.00000000000E+00  0.00000000000E+00  0.45593999997E+02  0.45594000000E+02  0.51100000000E-03 0.  1.
         11   -1    0    0    0    0 -0.00000000000E+00 -0.00000000000E+00 -0.45593999997E+02  0.45594000000E+02  0.51100000000E-03 0. -1.
    9900012    2    1    2    0    0 -0.10200903180E+02  0.23319076407E+02  0.35153744323E+02  0.47787268554E+02  0.19999988644E+02 0.  0.
         12    1    1    2    0    0  0.10200903180E+02 -0.23319076407E+02 -0.35153744323E+02  0.43400731446E+02  0.00000000000E+00 0. -1.
         11    1    3    3    0    0  0.33120739031E+01  0.17614098428E+01  0.11745767140E+02  0.12330265372E+02  0.51100000000E-03 0. -1.
        -11    1    3    3    0    0 -0.77338156386E+00 -0.58932764059E+00  0.32755440450E+00  0.10260205945E+01  0.51100000000E-03 0.  1.
        -12    1    3    3    0    0 -0.12739595519E+02  0.22146994205E+02  0.23080422778E+02  0.34430982587E+02  0.00000000000E+00 0.  1.
</event>
<event>
 7    1  0.2414091E-009  0.4778727E+02  0.7816164E-02  0.1312668E+00
        -11   -1    0    0    0    0  0.00000000000E+00  0.00000000000E+00  0.45593999997E+02  0.45594000000E+02  0.51100000000E-03 0.  1.
         11   -1    0    0    0    0 -0.00000000000E+00 -0.00000000000E+00 -0.45593999997E+02  0.45594000000E+02  0.51100000000E-03 0. -1.
    9900012    2    1    2    0    0 -0.10002088625E+00  0.39407242259E+02 -0.18184690468E+02  0.47787265973E+02  0.19999976879E+02 0.  0.
         12    1    1    2    0    0  0.10002088625E+00 -0.39407242259E+02  0.18184690468E+02  0.43400734027E+02  0.00000000000E+00 0. -1.
         11    1    3    3    0    0 -0.62308164483E+01  0.18879883760E+02 -0.90386600013E+01  0.21839653369E+02  0.51100000000E-03 0. -1.
        -11    1    3    3    0    0  0.10028016849E+01  0.35161462102E+01 -0.71985110676E+01  0.80738749831E+01  0.51100000000E-03 0.  1.
         12    1    3    3    0    0  0.51279938771E+01  0.17011212289E+02 -0.19475193993E+01  0.17873737621E+02  0.00000000000E+00 0. -1.
</event>
<event>
 7    1  0.2414091E-009  0.4778727E+02  0.7816164E-02  0.1312668E+00
        -11   -1    0    0    0    0  0.00000000000E+00  0.00000000000E+00  0.45593999997E+02  0.45594000000E+02  0.51100000000E-03 0. -1.
         11   -1    0    0    0    0 -0.00000000000E+00 -0.00000000000E+00 -0.45593999997E+02  0.45594000000E+02  0.51100000000E-03 0.  1.
    9900012    2    1    2    0    0 -0.31255087012E+02 -0.27511600192E-01 -0.30112157069E+02  0.47787271615E+02  0.20000002601E+02 0.  0.
         12    1    1    2    0    0  0.31255087012E+02  0.27511600192E-01  0.30112157069E+02  0.43400728385E+02  0.00000000000E+00 0. -1.
         11    1    3    3    0    0 -0.10855860403E+02 -0.14067962021E+01 -0.12266082515E+02  0.16440363778E+02  0.51100000000E-03 0. -1.
        -11    1    3    3    0    0 -0.14887055719E+02 -0.64154869789E+01 -0.11720854078E+02  0.20004032637E+02  0.51100000000E-03 0.  1.
         12    1    3    3    0    0 -0.55121708901E+01  0.77947715808E+01 -0.61252204756E+01  0.11342875200E+02  0.00000000000E+00 0. -1.
</event>
<event>
 7    1  0.2414091E-009  0.4778727E+02  0.7816164E-02  0.1312668E+00
        -11   -1    0    0    0    0  0.00000000000E+00  0.00000000000E+00  0.45593999997E+02  0.45594000000E+02  0.51100000000E-03 0.  1.
         11   -1    0    0    0    0 -0.00000000000E+00 -0.00000000000E+00 -0.45593999997E+02  0.45594000000E+02  0.51100000000E-03 0. -1.
    9900012    2    1    2    0    0 -0.10254590365E+02 -0.40653729157E+02 -0.11213425162E+02  0.47787271644E+02  0.20000002736E+02 0.  0.
         12    1    1    2    0    0  0.10254590365E+02  0.40653729157E+02  0.11213425162E+02  0.43400728356E+02  0.00000000000E+00 0. -1.
         11    1    3    3    0    0  0.29178945251E+01 -0.16445025419E+01 -0.38869420920E+01  0.51309663961E+01  0.51100000000E-03 0. -1.
        -11    1    3    3    0    0 -0.18243720781E+01 -0.84790750686E+01  0.17422226868E+01  0.88463770918E+01  0.51100000000E-03 0.  1.
         12    1    3    3    0    0 -0.11348112812E+02 -0.30530151546E+02 -0.90687057572E+01  0.33809928157E+02  0.00000000000E+00 0. -1.
</event>
<event>
 7    1  0.2414091E-009  0.4778727E+02  0.7816164E-02  0.1312668E+00
        -11   -1    0    0    0    0  0.00000000000E+00  0.00000000000E+00  0.45593999997E+02  0.45594000000E+02  0.51100000000E-03 0. -1.
         11   -1    0    0    0    0 -0.00000000000E+00 -0.00000000000E+00 -0.45593999997E+02  0.45594000000E+02  0.51100000000E-03 0.  1.
    9900012    2    1    2    0    0 -0.27458129116E+01 -0.12709874196E+02 -0.41407043270E+02  0.47787267022E+02  0.19999981661E+02 0.  0.
         12    1    1    2    0    0  0.27458129116E+01  0.12709874196E+02  0.41407043270E+02  0.43400732978E+02  0.00000000000E+00 0. -1.
         11    1    3    3    0    0 -0.65550850978E+00 -0.51844752503E+01 -0.62310748731E+01  0.81323286556E+01  0.51100000000E-03 0. -1.
        -11    1    3    3    0    0 -0.44116698139E+01 -0.12255601352E+02 -0.25709622329E+02  0.28820952024E+02  0.51100000000E-03 0.  1.
         12    1    3    3    0    0  0.23213654121E+01  0.47302024058E+01 -0.94663460686E+01  0.10833986342E+02  0.00000000000E+00 0. -1.
</event>
<event>
 7    1  0.2414091E-009  0.4778727E+02  0.7816164E-02  0.1312668E+00
        -11   -1    0    0    0    0  0.00000000000E+00  0.00000000000E+00  0.45593999997E+02  0.45594000000E+02  0.51100000000E-03 0. -1.
         11   -1    0    0    0    0 -0.00000000000E+00 -0.00000000000E+00 -0.45593999997E+02  0.45594000000E+02  0.51100000000E-03 0.  1.
    9900012    2    1    2    0    0  0.14243963141E+02  0.73746288314E+01 -0.40327999082E+02  0.47787272514E+02  0.20000006700E+02 0.  0.
         12    1    1    2    0    0 -0.14243963141E+02 -0.73746288314E+01  0.40327999082E+02  0.43400727486E+02  0.00000000000E+00 0. -1.
         11    1    3    3    0    0  0.33906213999E+01 -0.70644058065E+00 -0.39804839497E-01  0.34636622898E+01  0.51100000000E-03 0. -1.
        -11    1    3    3    0    0  0.31386206218E+01  0.79353749083E+01 -0.10386979081E+02  0.13442858663E+02  0.51100000000E-03 0.  1.
         12    1    3    3    0    0  0.77147211191E+01  0.14569450370E+00 -0.29901215162E+02  0.30880751561E+02  0.00000000000E+00 0. -1.
</event>
<event>
 7    1  0.2414091E-009  0.4778727E+02  0.7816164E-02  0.1312668E+00
        -11   -1    0    0    0    0  0.00000000000E+00  0.00000000000E+00  0.45593999997E+02  0.45594000000E+02  0.51100000000E-03 0. -1.
         11   -1    0    0    0    0 -0.00000000000E+00 -0.00000000000E+00 -0.45593999997E+02  0.45594000000E+02  0.51100000000E-03 0.  1.
    9900012    2    1    2    0    0 -0.41297248626E+02  0.12524812952E+02 -0.46140560612E+01  0.47787271931E+02  0.20000004044E+02 0.  0.
         12    1    1    2    0    0  0.41297248626E+02 -0.12524812952E+02  0.46140560612E+01  0.43400728069E+02  0.00000000000E+00 0. -1.
         11    1    3    3    0    0 -0.50848782288E+01 -0.28707769799E+01  0.81790895591E+00  0.58962973460E+01  0.51100000000E-03 0. -1.
        -11    1    3    3    0    0 -0.12701863215E+02  0.54564568992E+01 -0.84277965802E+01  0.16190676529E+02  0.51100000000E-03 0.  1.
         12    1    3    3    0    0 -0.23510507182E+02  0.99391330326E+01  0.29958315631E+01  0.25700298056E+02  0.00000000000E+00 0. -1.
</event>
<event>
 7    1  0.2414091E-009  0.4778727E+02  0.7816164E-02  0.1312668E+00
        -11   -1    0    0    0    0  0.00000000000E+00  0.00000000000E+00  0.45593999997E+02  0.45594000000E+02  0.51100000000E-03 0. -1.
         11   -1    0    0    0    0 -0.00000000000E+00 -0.00000000000E+00 -0.45593999997E+02  0.45594000000E+02  0.51100000000E-03 0.  1.
    9900012    2    1    2    0    0  0.25037620332E+02 -0.32565985079E+02 -0.14007049487E+02  0.47787271304E+02  0.20000001181E+02 0.  0.
         12    1    1    2    0    0 -0.25037620332E+02  0.32565985079E+02  0.14007049487E+02  0.43400728696E+02  0.00000000000E+00 0. -1.
         11    1    3    3    0    0  0.61322740240E+01 -0.54698325655E+00  0.19908971448E+01  0.64705213925E+01  0.51100000000E-03 0. -1.
        -11    1    3    3    0    0  0.36697514614E+01 -0.41800310649E+01  0.43472847469E+00  0.55793121977E+01  0.51100000000E-03 0.  1.
        -12    1    3    3    0    0  0.15235594847E+02 -0.27838970758E+02 -0.16432675106E+02  0.35737437713E+02  0.00000000000E+00 0.  1.
</event>
<event>
 7    1  0.2414091E-009  0.4778727E+02  0.7816164E-02  0.1312668E+00
        -11   -1    0    0    0    0  0.00000000000E+00  0.00000000000E+00  0.45593999997E+02  0.45594000000E+02  0.51100000000E-03 0. -1.
         11   -1    0    0    0    0 -0.00000000000E+00 -0.00000000000E+00 -0.45593999997E+02  0.45594000000E+02  0.51100000000E-03 0.  1.
    9900012    2    1    2    0    0 -0.25153771552E+02  0.71787437521E+01 -0.34632020852E+02  0.47787268976E+02  0.19999990568E+02 0.  0.
         12    1    1    2    0    0  0.25153771552E+02 -0.71787437521E+01  0.34632020852E+02  0.43400731024E+02  0.00000000000E+00 0. -1.
         11    1    3    3    0    0 -0.14068682638E+02 -0.24421708139E+01 -0.18879715107E+02  0.23671410440E+02  0.51100000000E-03 0. -1.
        -11    1    3    3    0    0 -0.83616963045E+01  0.24106207994E+01 -0.13543183137E+02  0.16098039243E+02  0.51100000000E-03 0.  1.
        -12    1    3    3    0    0 -0.27233926097E+01  0.72102937667E+01 -0.22091226079E+01  0.80178192924E+01  0.00000000000E+00 0.  1.
</event>
<event>
 7    1  0.2414091E-009  0.4778727E+02  0.7816164E-02  0.1312668E+00
        -11   -1    0    0    0    0  0.00000000000E+00  0.00000000000E+00  0.45593999997E+02  0.45594000000E+02  0.51100000000E-03 0.  1.
         11   -1    0    0    0    0 -0.00000000000E+00 -0.00000000000E+00 -0.45593999997E+02  0.45594000000E+02  0.51100000000E-03 0. -1.
    9900012    2    1    2    0    0  0.34557613535E+02 -0.11017803465E+02  0.23832808255E+02  0.47787269641E+02  0.19999993600E+02 0.  0.
         12    1    1    2    0    0 -0.34557613535E+02  0.11017803465E+02 -0.23832808255E+02  0.43400730359E+02  0.00000000000E+00 0. -1.
         11    1    3    3    0    0  0.76674438032E+01 -0.22573346522E+01  0.27043643417E+01  0.84379405640E+01  0.51100000000E-03 0. -1.
        -11    1    3    3    0    0  0.29056984358E+02 -0.97868196620E+01  0.18584053483E+02  0.35853273535E+02  0.51100000000E-03 0.  1.
         12    1    3    3    0    0 -0.21668146262E+01  0.10263508491E+01  0.25443904301E+01  0.34960555417E+01  0.00000000000E+00 0. -1.
</event>
<event>
 7    1  0.2414091E-009  0.4778727E+02  0.7816164E-02  0.1312668E+00
        -11   -1    0    0    0    0  0.00000000000E+00  0.00000000000E+00  0.45593999997E+02  0.45594000000E+02  0.51100000000E-03 0.  1.
         11   -1    0    0    0    0 -0.00000000000E+00 -0.00000000000E+00 -0.45593999997E+02  0.45594000000E+02  0.51100000000E-03 0. -1.
    9900012    2    1    2    0    0  0.13895700230E+02  0.39531672774E+02  0.11303964946E+02  0.47787271196E+02  0.20000000693E+02 0.  0.
         12    1    1    2    0    0 -0.13895700230E+02 -0.39531672774E+02 -0.11303964946E+02  0.43400728804E+02  0.00000000000E+00 0. -1.
         11    1    3    3    0    0  0.18401496729E+00 -0.38783113437E+00  0.55181371125E+00  0.69912311506E+00  0.51100000000E-03 0.  1.
        -11    1    3    3    0    0 -0.21260825373E+01  0.17509278182E+02  0.62990353559E-01  0.17637999248E+02  0.51100000000E-03 0. -1.
        -12    1    3    3    0    0  0.15837767800E+02  0.22410225726E+02  0.10689160881E+02  0.29450148834E+02  0.00000000000E+00 0.  1.
</event>
<event>
 7    1  0.2414091E-009  0.4778728E+02  0.7816164E-02  0.1312668E+00
        -11   -1    0    0    0    0  0.00000000000E+00  0.00000000000E+00  0.45593999997E+02  0.45594000000E+02  0.51100000000E-03 0.  1.
         11   -1    0    0    0    0 -0.00000000000E+00 -0.00000000000E+00 -0.45593999997E+02  0.45594000000E+02  0.51100000000E-03 0. -1.
    9900012    2    1    2    0    0  0.16028658575E+02  0.40144894122E+02  0.38848637132E+01  0.47787278971E+02  0.20000036139E+02 0.  0.
         12    1    1    2    0    0 -0.16028658575E+02 -0.40144894122E+02 -0.38848637132E+01  0.43400721029E+02  0.00000000000E+00 0. -1.
         11    1    3    3    0    0  0.81198796108E+01  0.11980664336E+02  0.57241108257E+01  0.15563875090E+02  0.51100000000E-03 0. -1.
        -11    1    3    3    0    0 -0.14504234069E+01  0.12819703276E+02  0.36895697240E+01  0.13418697596E+02  0.51100000000E-03 0.  1.
         12    1    3    3    0    0  0.93592023712E+01  0.15344526510E+02 -0.55288168364E+01  0.18804706285E+02  0.00000000000E+00 0. -1.
</event>
<event>
 7    1  0.2414091E-009  0.4778728E+02  0.7816164E-02  0.1312668E+00
        -11   -1    0    0    0    0  0.00000000000E+00  0.00000000000E+00  0.45593999997E+02  0.45594000000E+02  0.51100000000E-03 0.  1.
         11   -1    0    0    0    0 -0.00000000000E+00 -0.00000000000E+00 -0.45593999997E+02  0.45594000000E+02  0.51100000000E-03 0. -1.
    9900012    2    1    2    0    0 -0.21227749607E+02 -0.31121462471E+02  0.21551329602E+02  0.47787278954E+02  0.20000036062E+02 0.  0.
         12    1    1    2    0    0  0.21227749607E+02  0.31121462471E+02 -0.21551329602E+02  0.43400721046E+02  0.00000000000E+00 0. -1.
         11    1    3    3    0    0  0.32999078477E+01 -0.31940530876E+01  0.51619269291E+01  0.69091864074E+01  0.51100000000E-03 0. -1.
        -11    1    3    3    0    0 -0.10066766214E+02 -0.85932810230E+01  0.46246007340E+01  0.14020384908E+02  0.51100000000E-03 0.  1.
        -12    1    3    3    0    0 -0.14460891241E+02 -0.19334128360E+02  0.11764801939E+02  0.26857707638E+02  0.00000000000E+00 0.  1.
</event>
<event>
 7    1  0.2414091E-009  0.4778727E+02  0.7816164E-02  0.1312668E+00
        -11   -1    0    0    0    0  0.00000000000E+00  0.00000000000E+00  0.45593999997E+02  0.45594000000E+02  0.51100000000E-03 0. -1.
         11   -1    0    0    0    0 -0.00000000000E+00 -0.00000000000E+00 -0.45593999997E+02  0.45594000000E+02  0.51100000000E-03 0.  1.
    9900012    2    1    2    0    0  0.23875086547E+02 -0.11237506130E+02 -0.34457535276E+02  0.47787273751E+02  0.20000012342E+02 0.  0.
         12    1    1    2    0    0 -0.23875086547E+02  0.11237506130E+02  0.34457535276E+02  0.43400726249E+02  0.00000000000E+00 0. -1.
         11    1    3    3    0    0  0.72883111989E+01 -0.77709020878E+01 -0.49971439142E+01  0.11767661065E+02  0.51100000000E-03 0. -1.
        -11    1    3    3    0    0  0.97746785409E+01 -0.70614989201E+01 -0.12376729100E+02  0.17279830180E+02  0.51100000000E-03 0.  1.
         12    1    3    3    0    0  0.68120968067E+01  0.35948948783E+01 -0.17083662262E+02  0.18739782506E+02  0.00000000000E+00 0. -1.
</event>
<event>
 7    1  0.2414091E-009  0.4778727E+02  0.7816164E-02  0.1312668E+00
        -11   -1    0    0    0    0  0.00000000000E+00  0.00000000000E+00  0.45593999997E+02  0.45594000000E+02  0.51100000000E-03 0. -1.
         11   -1    0    0    0    0 -0.00000000000E+00 -0.00000000000E+00 -0.45593999997E+02  0.45594000000E+02  0.51100000000E-03 0.  1.
    9900012    2    1    2    0    0 -0.37742163026E+02 -0.13270839600E+02  0.16823701998E+02  0.47787274171E+02  0.20000014256E+02 0.  0.
         12    1    1    2    0    0  0.37742163026E+02  0.13270839600E+02 -0.16823701998E+02  0.43400725829E+02  0.00000000000E+00 0. -1.
         11    1    3    3    0    0 -0.35654325092E+01  0.17336897027E+01  0.57599315376E+01  0.69924817155E+01  0.51100000000E-03 0. -1.
        -11    1    3    3    0    0 -0.22685967991E+02 -0.87546267053E+01  0.12997263261E+02  0.27572186800E+02  0.51100000000E-03 0.  1.
         12    1    3    3    0    0 -0.11490762526E+02 -0.62499025976E+01 -0.19334928004E+01  0.13222605655E+02  0.00000000000E+00 0. -1.
</event>
<event>
 7    1  0.2414091E-009  0.4778727E+02  0.7816164E-02  0.1312668E+00
        -11   -1    0    0    0    0  0.00000000000E+00  0.00000000000E+00  0.45593999997E+02  0.45594000000E+02  0.51100000000E-03 0. -1.
         11   -1    0    0    0    0 -0.00000000000E+00 -0.00000000000E+00 -0.45593999997E+02  0.45594000000E+02  0.51100000000E-03 0.  1.
    9900012    2    1    2    0    0  0.37716789011E+02  0.56503884968E+01 -0.20715698219E+02  0.47787271709E+02  0.20000003029E+02 0.  0.
         12    1    1    2    0    0 -0.37716789011E+02 -0.56503884968E+01  0.20715698219E+02  0.43400728291E+02  0.00000000000E+00 0. -1.
         11    1    3    3    0    0  0.40394534859E+01  0.18840131631E+01 -0.47279821720E+01  0.64977308150E+01  0.51100000000E-03 0.  1.
        -11    1    3    3    0    0  0.32831790700E+02  0.28965400083E+01 -0.89566829382E+01  0.34154627711E+02  0.51100000000E-03 0. -1.
         12    1    3    3    0    0  0.84554482590E+00  0.86983532546E+00 -0.70310331090E+01  0.71349131828E+01  0.00000000000E+00 0. -1.
</event>
<event>
 7    1  0.2414091E-009  0.4778727E+02  0.7816164E-02  0.1312668E+00
        -11   -1    0    0    0    0  0.00000000000E+00  0.00000000000E+00  0.45593999997E+02  0.45594000000E+02  0.51100000000E-03 0.  1.
         11   -1    0    0    0    0 -0.00000000000E+00 -0.00000000000E+00 -0.45593999997E+02  0.45594000000E+02  0.51100000000E-03 0. -1.
    9900012    2    1    2    0    0  0.11489418504E+02 -0.26890498268E+02  0.32070511855E+02  0.47787269991E+02  0.19999995199E+02 0.  0.
         12    1    1    2    0    0 -0.11489418504E+02  0.26890498268E+02 -0.32070511855E+02  0.43400730009E+02  0.00000000000E+00 0. -1.
         11    1    3    3    0    0  0.91590092047E+01 -0.54974915084E+01  0.10899335495E+02  0.15261237728E+02  0.51100000000E-03 0.  1.
        -11    1    3    3    0    0  0.35784216873E+01 -0.94013504352E+01  0.26091639016E+01  0.10392219604E+02  0.51100000000E-03 0. -1.
        -12    1    3    3    0    0 -0.12480123885E+01 -0.11991656325E+02  0.18562012459E+02  0.22133812659E+02  0.00000000000E+00 0.  1.
</event>
<event>
 7    1  0.2414091E-009  0.4778727E+02  0.7816164E-02  0.1312668E+00
        -11   -1    0    0    0    0  0.00000000000E+00  0.00000000000E+00  0.45593999997E+02  0.45594000000E+02  0.51100000000E-03 0.  1.
         11   -1    0    0    0    0 -0.00000000000E+00 -0.00000000000E+00 -0.45593999997E+02  0.45594000000E+02  0.51100000000E-03 0. -1.
    9900012    2    1    2    0    0  0.18313351088E+02 -0.67849614090E+01  0.38758338483E+02  0.47787270382E+02  0.19999996979E+02 0.  0.
         12    1    1    2    0    0 -0.18313351088E+02  0.67849614090E+01 -0.38758338483E+02  0.43400729618E+02  0.00000000000E+00 0. -1.
         11    1    3    3    0    0 -0.28772016771E+01 -0.41838793097E+00  0.17329762689E+01  0.33847518316E+01  0.51100000000E-03 0. -1.
        -11    1    3    3    0    0  0.63976832925E+01 -0.71807753290E+01  0.16313660212E+02  0.18937512920E+02  0.51100000000E-03 0.  1.
        -12    1    3    3    0    0  0.14792869473E+02  0.81420185100E+00  0.20711702002E+02  0.25465005630E+02  0.00000000000E+00 0.  1.
</event>
<event>
 7    1  0.2414091E-009  0.4778727E+02  0.7816164E-02  0.1312668E+00
        -11   -1    0    0    0    0  0.00000000000E+00  0.00000000000E+00  0.45593999997E+02  0.45594000000E+02  0.51100000000E-03 0. -1.
         11   -1    0    0    0    0 -0.00000000000E+00 -0.00000000000E+00 -0.45593999997E+02  0.45594000000E+02  0.51100000000E-03 0.  1.
    9900012    2    1    2    0    0  0.35726971509E+02 -0.21332773399E+02 -0.12333679440E+02  0.47787270022E+02  0.19999995338E+02 0.  0.
         12    1    1    2    0    0 -0.35726971509E+02  0.21332773399E+02  0.12333679440E+02  0.43400729978E+02  0.00000000000E+00 0. -1.
         11    1    3    3    0    0  0.11847342327E+02 -0.74049333051E+01 -0.71073172568E+01  0.15675028431E+02  0.51100000000E-03 0. -1.
        -11    1    3    3    0    0  0.21923965005E+02 -0.10834616606E+02 -0.97208988901E+01  0.26316250379E+02  0.51100000000E-03 0.  1.
         12    1    3    3    0    0  0.19556641776E+01 -0.30932234874E+01  0.44945367067E+01  0.57959912117E+01  0.00000000000E+00 0. -1.
</event>
<event>
 7    1  0.2414091E-009  0.4778728E+02  0.7816164E-02  0.1312668E+00
        -11   -1    0    0    0    0  0.00000000000E+00  0.00000000000E+00  0.45593999997E+02  0.45594000000E+02  0.51100000000E-03 0.  1.
         11   -1    0    0    0    0 -0.00000000000E+00 -0.00000000000E+00 -0.45593999997E+02  0.45594000000E+02  0.51100000000E-03 0. -1.
    9900012    2    1    2    0    0 -0.23862601505E+02  0.17489177649E+02  0.31754176414E+02  0.47787276444E+02  0.20000024619E+02 0.  0.
         12    1    1    2    0    0  0.23862601505E+02 -0.17489177649E+02 -0.31754176414E+02  0.43400723556E+02  0.00000000000E+00 0. -1.
         11    1    3    3    0    0 -0.56200175546E+01  0.11573859906E+02  0.34772452473E+01  0.13327792961E+02  0.51100000000E-03 0. -1.
        -11    1    3    3    0    0 -0.52202282519E+00  0.11734836169E+01  0.12280049608E+01  0.17769547192E+01  0.51100000000E-03 0.  1.
        -12    1    3    3    0    0 -0.17720561126E+02  0.47418341256E+01  0.27048926206E+02  0.32682528764E+02  0.00000000000E+00 0.  1.
</event>
<event>
 7    1  0.2414091E-009  0.4778728E+02  0.7816164E-02  0.1312668E+00
        -11   -1    0    0    0    0  0.00000000000E+00  0.00000000000E+00  0.45593999997E+02  0.45594000000E+02  0.51100000000E-03 0.  1.
         11   -1    0    0    0    0 -0.00000000000E+00 -0.00000000000E+00 -0.45593999997E+02  0.45594000000E+02  0.51100000000E-03 0. -1.
    9900012    2    1    2    0    0 -0.14355728310E+02 -0.32954666102E+02  0.24321305613E+02  0.47787275813E+02  0.20000021741E+02 0.  0.
         12    1    1    2    0    0  0.14355728310E+02  0.32954666102E+02 -0.24321305613E+02  0.43400724187E+02  0.00000000000E+00 0. -1.
         11    1    3    3    0    0 -0.13554524964E+02 -0.16497197838E+02  0.10211432645E+02  0.23667615859E+02  0.51100000000E-03 0. -1.
        -11    1    3    3    0    0 -0.39700360839E+01 -0.33342723840E+01  0.74223344820E+01  0.90537068796E+01  0.51100000000E-03 0.  1.
         12    1    3    3    0    0  0.31688327382E+01 -0.13123195880E+02  0.66875384859E+01  0.15065953074E+02  0.00000000000E+00 0. -1.
</event>
<event>
 7    1  0.2414091E-009  0.4778727E+02  0.7816164E-02  0.1312668E+00
        -11   -1    0    0    0    0  0.00000000000E+00  0.00000000000E+00  0.45593999997E+02  0.45594000000E+02  0.51100000000E-03 0.  1.
         11   -1    0    0    0    0 -0.00000000000E+00 -0.00000000000E+00 -0.45593999997E+02  0.45594000000E+02  0.51100000000E-03 0. -1.
    9900012    2    1    2    0    0  0.82188774620E+01  0.26959651552E+02  0.33003797590E+02  0.47787269431E+02  0.19999992644E+02 0.  0.
         12    1    1    2    0    0 -0.82188774620E+01 -0.26959651552E+02 -0.33003797590E+02  0.43400730569E+02  0.00000000000E+00 0. -1.
         11    1    3    3    0    0 -0.18458856663E+01  0.14541520694E+02  0.12988879928E+02  0.19585048380E+02  0.51100000000E-03 0. -1.
        -11    1    3    3    0    0  0.97453839174E-01 -0.61626106962E+00  0.76015986819E+01  0.76271605293E+01  0.51100000000E-03 0.  1.
        -12    1    3    3    0    0  0.99673092892E+01  0.13034391927E+02  0.12413318980E+02  0.20575060522E+02  0.00000000000E+00 0.  1.
</event>
<event>
 7    1  0.2414091E-009  0.4778727E+02  0.7816164E-02  0.1312668E+00
        -11   -1    0    0    0    0  0.00000000000E+00  0.00000000000E+00  0.45593999997E+02  0.45594000000E+02  0.51100000000E-03 0.  1.
         11   -1    0    0    0    0 -0.00000000000E+00 -0.00000000000E+00 -0.45593999997E+02  0.45594000000E+02  0.51100000000E-03 0. -1.
    9900012    2    1    2    0    0 -0.29269299011E+01 -0.32173562094E+02  0.28981344006E+02  0.47787270549E+02  0.19999997743E+02 0.  0.
         12    1    1    2    0    0  0.29269299011E+01  0.32173562094E+02 -0.28981344006E+02  0.43400729451E+02  0.00000000000E+00 0. -1.
         11    1    3    3    0    0 -0.44715034612E+01 -0.78073032364E+01  0.22819479197E+01  0.92820048264E+01  0.51100000000E-03 0. -1.
        -11    1    3    3    0    0  0.19378351554E+01 -0.14468055268E+02  0.24244264191E+02  0.28299543720E+02  0.51100000000E-03 0.  1.
         12    1    3    3    0    0 -0.39326159534E+00 -0.98982035896E+01  0.24551318950E+01  0.10205722003E+02  0.00000000000E+00 0. -1.
</event>
<event>
 7    1  0.2414091E-009  0.4778726E+02  0.7816164E-02  0.1312668E+00
        -11   -1    0    0    0    0  0.00000000000E+00  0.00000000000E+00  0.45593999997E+02  0.45594000000E+02  0.51100000000E-03 0. -1.
         11   -1    0    0    0    0 -0.00000000000E+00 -0.00000000000E+00 -0.45593999997E+02  0.45594000000E+02  0.51100000000E-03 0.  1.
    9900012    2    1    2    0    0  0.44847375644E+01  0.50225887800E+01 -0.42875221344E+02  0.47787264126E+02  0.19999968458E+02 0.  0.
         12    1    1    2    0    0 -0.44847375644E+01 -0.50225887800E+01  0.42875221344E+02  0.43400735874E+02  0.00000000000E+00 0. -1.
         11    1    3    3    0    0 -0.57515365682E+00 -0.25100856811E+01 -0.17440213535E+01  0.31101354629E+01  0.51100000000E-03 0. -1.
        -11    1    3    3    0    0 -0.30552402331E+01 -0.73029013987E+00 -0.22650633461E+02  0.22867422527E+02  0.51100000000E-03 0.  1.
        -12    1    3    3    0    0  0.81151314544E+01  0.82629646010E+01 -0.18480566530E+02  0.21809706137E+02  0.00000000000E+00 0.  1.
</event>
<event>
 7    1  0.2414091E-009  0.4778727E+02  0.7816164E-02  0.1312668E+00
        -11   -1    0    0    0    0  0.00000000000E+00  0.00000000000E+00  0.45593999997E+02  0.45594000000E+02  0.51100000000E-03 0.  1.
         11   -1    0    0    0    0 -0.00000000000E+00 -0.00000000000E+00 -0.45593999997E+02  0.45594000000E+02  0.51100000000E-03 0. -1.
    9900012    2    1    2    0    0  0.35526057524E+02  0.13112594174E+02  0.21203365020E+02  0.47787267548E+02  0.19999984060E+02 0.  0.
         12    1    1    2    0    0 -0.35526057524E+02 -0.13112594174E+02 -0.21203365020E+02  0.43400732452E+02  0.00000000000E+00 0. -1.
         11    1    3    3    0    0  0.11217847130E+02  0.29937188148E+01 -0.18953206367E+00  0.11611992475E+02  0.51100000000E-03 0. -1.
        -11    1    3    3    0    0  0.90321727537E+01 -0.61512493502E+00  0.20310786769E+01  0.92781358145E+01  0.51100000000E-03 0.  1.
        -12    1    3    3    0    0  0.15276037641E+02  0.10734000294E+02  0.19361818407E+02  0.26897139259E+02  0.00000000000E+00 0.  1.
</event>
<event>
 7    1  0.2414091E-009  0.4778727E+02  0.7816164E-02  0.1312668E+00
        -11   -1    0    0    0    0  0.00000000000E+00  0.00000000000E+00  0.45593999997E+02  0.45594000000E+02  0.51100000000E-03 0. -1.
         11   -1    0    0    0    0 -0.00000000000E+00 -0.00000000000E+00 -0.45593999997E+02  0.45594000000E+02  0.51100000000E-03 0.  1.
    9900012    2    1    2    0    0 -0.26386073406E+02 -0.32005109540E+02 -0.12769942754E+02  0.47787270232E+02  0.19999996296E+02 0.  0.
         12    1    1    2    0    0  0.26386073406E+02  0.32005109540E+02  0.12769942754E+02  0.43400729768E+02  0.00000000000E+00 0. -1.
         11    1    3    3    0    0  0.14598976278E+01 -0.49477836052E+01 -0.84092623816E+00  0.52267600755E+01  0.51100000000E-03 0. -1.
        -11    1    3    3    0    0 -0.15083102680E+02 -0.94944510412E+01 -0.10759515021E+02  0.20818543435E+02  0.51100000000E-03 0.  1.
         12    1    3    3    0    0 -0.12762868354E+02 -0.17562874893E+02 -0.11695014943E+01  0.21741966721E+02  0.00000000000E+00 0. -1.
</event>
<event>
 7    1  0.2414091E-009  0.4778725E+02  0.7816164E-02  0.1312668E+00
        -11   -1    0    0    0    0  0.00000000000E+00  0.00000000000E+00  0.45593999997E+02  0.45594000000E+02  0.51100000000E-03 0. -1.
         11   -1    0    0    0    0 -0.00000000000E+00 -0.00000000000E+00 -0.45593999997E+02  0.45594000000E+02  0.51100000000E-03 0.  1.
    9900012    2    1    2    0    0  0.23220921458E+02 -0.30808542891E+02 -0.19880832879E+02  0.47787250878E+02  0.19999908051E+02 0.  0.
         12    1    1    2    0    0 -0.23220921458E+02  0.30808542891E+02  0.19880832879E+02  0.43400749122E+02  0.00000000000E+00 0. -1.
         11    1    3    3    0    0 -0.76440088366E+00 -0.33256512683E+01 -0.35110474721E+01  0.48960922869E+01  0.51100000000E-03 0. -1.
        -11    1    3    3    0    0  0.18431476610E+02 -0.10571512926E+02 -0.12578097233E+02  0.24691795112E+02  0.51100000000E-03 0.  1.
         12    1    3    3    0    0  0.55538457311E+01 -0.16911378697E+02 -0.37916881738E+01  0.18199363479E+02  0.00000000000E+00 0. -1.
</event>
<event>
 7    1  0.2414091E-009  0.4778727E+02  0.7816164E-02  0.1312668E+00
        -11   -1    0    0    0    0  0.00000000000E+00  0.00000000000E+00  0.45593999997E+02  0.45594000000E+02  0.51100000000E-03 0. -1.
         11   -1    0    0    0    0 -0.00000000000E+00 -0.00000000000E+00 -0.45593999997E+02  0.45594000000E+02  0.51100000000E-03 0.  1.
    9900012    2    1    2    0    0 -0.23946574374E+02 -0.26510265721E+02 -0.24645295908E+02  0.47787271628E+02  0.20000002659E+02 0.  0.
         12    1    1    2    0    0  0.23946574374E+02  0.26510265721E+02  0.24645295908E+02  0.43400728372E+02  0.00000000000E+00 0. -1.
         11    1    3    3    0    0 -0.26900494149E+01 -0.27557532112E+01 -0.66854822595E+01  0.77153233839E+01  0.51100000000E-03 0. -1.
        -11    1    3    3    0    0 -0.23456377787E+02 -0.18417376450E+02 -0.16637221465E+02  0.34149649376E+02  0.51100000000E-03 0.  1.
         12    1    3    3    0    0  0.21998528280E+01 -0.53371360600E+01 -0.13225921835E+01  0.59222988671E+01  0.00000000000E+00 0. -1.
</event>
<event>
 7    1  0.2414091E-009  0.4778727E+02  0.7816164E-02  0.1312668E+00
        -11   -1    0    0    0    0  0.00000000000E+00  0.00000000000E+00  0.45593999997E+02  0.45594000000E+02  0.51100000000E-03 0. -1.
         11   -1    0    0    0    0 -0.00000000000E+00 -0.00000000000E+00 -0.45593999997E+02  0.45594000000E+02  0.51100000000E-03 0.  1.
    9900012    2    1    2    0    0  0.23957647267E+02  0.16701554236E+02 -0.32104709863E+02  0.47787272220E+02  0.20000005358E+02 0.  0.
         12    1    1    2    0    0 -0.23957647267E+02 -0.16701554236E+02  0.32104709863E+02  0.43400727780E+02  0.00000000000E+00 0. -1.
         11    1    3    3    0    0  0.39073557555E+01  0.25594125836E+01 -0.33931113615E+01  0.57733202532E+01  0.51100000000E-03 0. -1.
        -11    1    3    3    0    0  0.17030827487E+02  0.18018974007E+02 -0.27348581967E+02  0.36914461191E+02  0.51100000000E-03 0.  1.
         12    1    3    3    0    0  0.30194640243E+01 -0.38768323542E+01 -0.13630165349E+01  0.50994907757E+01  0.00000000000E+00 0. -1.
</event>
<event>
 7    1  0.2414091E-009  0.4778727E+02  0.7816164E-02  0.1312668E+00
        -11   -1    0    0    0    0  0.00000000000E+00  0.00000000000E+00  0.45593999997E+02  0.45594000000E+02  0.51100000000E-03 0.  1.
         11   -1    0    0    0    0 -0.00000000000E+00 -0.00000000000E+00 -0.45593999997E+02  0.45594000000E+02  0.51100000000E-03 0. -1.
    9900012    2    1    2    0    0  0.33494220405E+02 -0.12447012199E+02  0.24633967265E+02  0.47787271245E+02  0.20000000916E+02 0.  0.
         12    1    1    2    0    0 -0.33494220405E+02  0.12447012199E+02 -0.24633967265E+02  0.43400728755E+02  0.00000000000E+00 0. -1.
         11    1    3    3    0    0  0.16986318633E+02 -0.37324695870E+01  0.84675180720E+01  0.19343350601E+02  0.51100000000E-03 0. -1.
        -11    1    3    3    0    0  0.16838499028E+02 -0.10077573383E+02  0.17656352716E+02  0.26397714415E+02  0.51100000000E-03 0.  1.
         12    1    3    3    0    0 -0.33059725572E+00  0.13630307704E+01 -0.14899035235E+01  0.20462062300E+01  0.00000000000E+00 0. -1.
</event>
<event>
 7    1  0.2414091E-009  0.4778727E+02  0.7816164E-02  0.1312668E+00
        -11   -1    0    0    0    0  0.00000000000E+00  0.00000000000E+00  0.45593999997E+02  0.45594000000E+02  0.51100000000E-03 0. -1.
         11   -1    0    0    0    0 -0.00000000000E+00 -0.00000000000E+00 -0.45593999997E+02  0.45594000000E+02  0.51100000000E-03 0.  1.
    9900012    2    1    2    0    0 -0.10435189554E+02  0.36622349652E+02  0.20821462430E+02  0.47787274514E+02  0.20000015818E+02 0.  0.
         12    1    1    2    0    0  0.10435189554E+02 -0.36622349652E+02 -0.20821462430E+02  0.43400725486E+02  0.00000000000E+00 0. -1.
         11    1    3    3    0    0 -0.19224259252E+01 -0.42619599047E+00  0.28854334093E+01  0.34932922410E+01  0.51100000000E-03 0. -1.
        -11    1    3    3    0    0  0.23663068973E+01  0.10585881368E+02  0.65140890167E+00  0.10866675043E+02  0.51100000000E-03 0.  1.
        -12    1    3    3    0    0 -0.10879070526E+02  0.26462664274E+02  0.17284620119E+02  0.33427307230E+02  0.00000000000E+00 0.  1.
</event>
<event>
 7    1  0.2414091E-009  0.4778726E+02  0.7816164E-02  0.1312668E+00
        -11   -1    0    0    0    0  0.00000000000E+00  0.00000000000E+00  0.45593999997E+02  0.45594000000E+02  0.51100000000E-03 0. -1.
         11   -1    0    0    0    0 -0.00000000000E+00 -0.00000000000E+00 -0.45593999997E+02  0.45594000000E+02  0.51100000000E-03 0.  1.
    9900012    2    1    2    0    0  0.19181509332E+01  0.25943796844E+01 -0.43280640005E+02  0.47787263737E+02  0.19999966682E+02 0.  0.
         12    1    1    2    0    0 -0.19181509332E+01 -0.25943796844E+01  0.43280640005E+02  0.43400736263E+02  0.00000000000E+00 0. -1.
         11    1    3    3    0    0 -0.35047397432E+00  0.89960461732E+01 -0.99864589545E+01  0.13445484055E+02  0.51100000000E-03 0. -1.
        -11    1    3    3    0    0 -0.11115414827E+01 -0.66748800780E+00 -0.10970870630E+02  0.11047219892E+02  0.51100000000E-03 0.  1.
         12    1    3    3    0    0  0.33801663903E+01 -0.57341784810E+01 -0.22323310420E+02  0.23294559790E+02  0.00000000000E+00 0. -1.
</event>
<event>
 7    1  0.2414091E-009  0.4778727E+02  0.7816164E-02  0.1312668E+00
        -11   -1    0    0    0    0  0.00000000000E+00  0.00000000000E+00  0.45593999997E+02  0.45594000000E+02  0.51100000000E-03 0.  1.
         11   -1    0    0    0    0 -0.00000000000E+00 -0.00000000000E+00 -0.45593999997E+02  0.45594000000E+02  0.51100000000E-03 0. -1.
    9900012    2    1    2    0    0 -0.32106387744E+02  0.22666689399E+02  0.18412613086E+02  0.47787271171E+02  0.20000000576E+02 0.  0.
         12    1    1    2    0    0  0.32106387744E+02 -0.22666689399E+02 -0.18412613086E+02  0.43400728829E+02  0.00000000000E+00 0. -1.
         11    1    3    3    0    0 -0.18059694970E+02  0.55881084630E+01  0.86922710654E+01  0.20807092904E+02  0.51100000000E-03 0. -1.
        -11    1    3    3    0    0 -0.31594595458E+01  0.20834807522E+01 -0.27202989128E+01  0.46608049844E+01  0.51100000000E-03 0.  1.
        -12    1    3    3    0    0 -0.10887233228E+02  0.14995100184E+02  0.12440640933E+02  0.22319373282E+02  0.00000000000E+00 0.  1.
</event>
<event>
 7    1  0.2414091E-009  0.4778727E+02  0.7816164E-02  0.1312668E+00
        -11   -1    0    0    0    0  0.00000000000E+00  0.00000000000E+00  0.45593999997E+02  0.45594000000E+02  0.51100000000E-03 0. -1.
         11   -1    0    0    0    0 -0.00000000000E+00 -0.00000000000E+00 -0.45593999997E+02  0.45594000000E+02  0.51100000000E-03 0.  1.
    9900012    2    1    2    0    0 -0.38344155906E+02 -0.81543780593E+01 -0.18624039321E+02  0.47787274035E+02  0.20000013633E+02 0.  0.
         12    1    1    2    0    0  0.38344155906E+02  0.81543780593E+01  0.18624039321E+02  0.43400725965E+02  0.00000000000E+00 0. -1.
         11    1    3    3    0    0 -0.94674745605E+01 -0.54302640801E+00 -0.11787762119E+02  0.15128756997E+02  0.51100000000E-03 0. -1.
        -11    1    3    3    0    0 -0.62863286097E+01 -0.67781028804E+01 -0.30718945007E+01  0.97415164185E+01  0.51100000000E-03 0.  1.
        -12    1    3    3    0    0 -0.22590352736E+02 -0.83324877085E+00 -0.37643827010E+01  0.22917000619E+02  0.00000000000E+00 0.  1.
</event>
<event>
 7    1  0.2414091E-009  0.4778727E+02  0.7816164E-02  0.1312668E+00
        -11   -1    0    0    0    0  0.00000000000E+00  0.00000000000E+00  0.45593999997E+02  0.45594000000E+02  0.51100000000E-03 0.  1.
         11   -1    0    0    0    0 -0.00000000000E+00 -0.00000000000E+00 -0.45593999997E+02  0.45594000000E+02  0.51100000000E-03 0. -1.
    9900012    2    1    2    0    0  0.17695855020E+02  0.38219630831E+02  0.10475669952E+02  0.47787272740E+02  0.20000007730E+02 0.  0.
         12    1    1    2    0    0 -0.17695855020E+02 -0.38219630831E+02 -0.10475669952E+02  0.43400727260E+02  0.00000000000E+00 0. -1.
         11    1    3    3    0    0  0.30717409792E+01  0.20571133950E+01  0.18869831224E+01  0.41506642515E+01  0.51100000000E-03 0. -1.
        -11    1    3    3    0    0  0.63554792384E+01  0.17274046423E+02  0.13021456728E+02  0.22546466059E+02  0.51100000000E-03 0.  1.
         12    1    3    3    0    0  0.82686348028E+01  0.18888471013E+02 -0.44327698983E+01  0.21090142429E+02  0.00000000000E+00 0. -1.
</event>
<event>
 7    1  0.2414091E-009  0.4778727E+02  0.7816164E-02  0.1312668E+00
        -11   -1    0    0    0    0  0.00000000000E+00  0.00000000000E+00  0.45593999997E+02  0.45594000000E+02  0.51100000000E-03 0.  1.
         11   -1    0    0    0    0 -0.00000000000E+00 -0.00000000000E+00 -0.45593999997E+02  0.45594000000E+02  0.51100000000E-03 0. -1.
    9900012    2    1    2    0    0 -0.18219039618E+02  0.21802630478E+02  0.32807551285E+02  0.47787268189E+02  0.19999986983E+02 0.  0.
         12    1    1    2    0    0  0.18219039618E+02 -0.21802630478E+02 -0.32807551285E+02  0.43400731811E+02  0.00000000000E+00 0. -1.
         11    1    3    3    0    0 -0.47719999689E+01  0.57569747510E+01  0.73494475057E+00  0.75136466535E+01  0.51100000000E-03 0. -1.
        -11    1    3    3    0    0 -0.45199167862E+01 -0.19664488843E+00  0.19957366993E+01  0.49448237785E+01  0.51100000000E-03 0.  1.
        -12    1    3    3    0    0 -0.89271228632E+01  0.16242300615E+02  0.30076869835E+02  0.35328797757E+02  0.00000000000E+00 0.  1.
</event>
<event>
 7    1  0.2414091E-009  0.4778728E+02  0.7816164E-02  0.1312668E+00
        -11   -1    0    0    0    0  0.00000000000E+00  0.00000000000E+00  0.45593999997E+02  0.45594000000E+02  0.51100000000E-03 0. -1.
         11   -1    0    0    0    0 -0.00000000000E+00 -0.00000000000E+00 -0.45593999997E+02  0.45594000000E+02  0.51100000000E-03 0.  1.
    9900012    2    1    2    0    0  0.38831155554E+02 -0.32951201014E+01 -0.19102518832E+02  0.47787277842E+02  0.20000030992E+02 0.  0.
         12    1    1    2    0    0 -0.38831155554E+02  0.32951201014E+01  0.19102518832E+02  0.43400722158E+02  0.00000000000E+00 0. -1.
         11    1    3    3    0    0  0.58205183792E+01  0.29440932079E+01 -0.10450713555E+02  0.12319234274E+02  0.51100000000E-03 0.  1.
        -11    1    3    3    0    0  0.68765199707E+01 -0.38974031075E+01 -0.38557543542E+01  0.87944937200E+01  0.51100000000E-03 0. -1.
        -12    1    3    3    0    0  0.26134117204E+02 -0.23418102018E+01 -0.47960509226E+01  0.26673549848E+02  0.00000000000E+00 0.  1.
</event>
<event>
 7    1  0.2414091E-009  0.4778727E+02  0.7816164E-02  0.1312668E+00
        -11   -1    0    0    0    0  0.00000000000E+00  0.00000000000E+00  0.45593999997E+02  0.45594000000E+02  0.51100000000E-03 0.  1.
         11   -1    0    0    0    0 -0.00000000000E+00 -0.00000000000E+00 -0.45593999997E+02  0.45594000000E+02  0.51100000000E-03 0. -1.
    9900012    2    1    2    0    0 -0.70785867510E+01  0.19849292725E+02  0.37941037847E+02  0.47787272299E+02  0.20000005722E+02 0.  0.
         12    1    1    2    0    0  0.70785867510E+01 -0.19849292725E+02 -0.37941037847E+02  0.43400727701E+02  0.00000000000E+00 0. -1.
         11    1    3    3    0    0 -0.30267479675E+01  0.53697204337E+01  0.58401723972E+01  0.84913317380E+01  0.51100000000E-03 0.  1.
        -11    1    3    3    0    0 -0.15765307877E+01 -0.84093615133E+00  0.18718766568E+02  0.18803851867E+02  0.51100000000E-03 0. -1.
         12    1    3    3    0    0 -0.24753079958E+01  0.15320508442E+02  0.13382098882E+02  0.20492088695E+02  0.00000000000E+00 0. -1.
</event>
<event>
 7    1  0.2414091E-009  0.4778727E+02  0.7816164E-02  0.1312668E+00
        -11   -1    0    0    0    0  0.00000000000E+00  0.00000000000E+00  0.45593999997E+02  0.45594000000E+02  0.51100000000E-03 0.  1.
         11   -1    0    0    0    0 -0.00000000000E+00 -0.00000000000E+00 -0.45593999997E+02  0.45594000000E+02  0.51100000000E-03 0. -1.
    9900012    2    1    2    0    0  0.14716052027E+02  0.27766913460E+02  0.29934258130E+02  0.47787268668E+02  0.19999989167E+02 0.  0.
         12    1    1    2    0    0 -0.14716052027E+02 -0.27766913460E+02 -0.29934258130E+02  0.43400731332E+02  0.00000000000E+00 0. -1.
         11    1    3    3    0    0  0.32948390185E+00  0.79245153656E+01  0.10075842809E+02  0.12822991538E+02  0.51100000000E-03 0. -1.
        -11    1    3    3    0    0  0.12040468783E+02  0.20567732480E+02  0.21428376886E+02  0.32049646551E+02  0.51100000000E-03 0.  1.
         12    1    3    3    0    0  0.23460993430E+01 -0.72533438551E+00 -0.15699615645E+01  0.29146305790E+01  0.00000000000E+00 0. -1.
</event>
<event>
 7    1  0.2414091E-009  0.4778727E+02  0.7816164E-02  0.1312668E+00
        -11   -1    0    0    0    0  0.00000000000E+00  0.00000000000E+00  0.45593999997E+02  0.45594000000E+02  0.51100000000E-03 0.  1.
         11   -1    0    0    0    0 -0.00000000000E+00 -0.00000000000E+00 -0.45593999997E+02  0.45594000000E+02  0.51100000000E-03 0. -1.
    9900012    2    1    2    0    0  0.20368753778E+02 -0.27696602022E+02  0.26488401887E+02  0.47787270415E+02  0.19999997129E+02 0.  0.
         12    1    1    2    0    0 -0.20368753778E+02  0.27696602022E+02 -0.26488401887E+02  0.43400729585E+02  0.00000000000E+00 0. -1.
         11    1    3    3    0    0  0.75572032780E+01 -0.17089328607E+02  0.17183843066E+02  0.25385841258E+02  0.51100000000E-03 0. -1.
        -11    1    3    3    0    0  0.12090849035E+02 -0.12810847322E+02  0.65327861868E+01  0.18787861376E+02  0.51100000000E-03 0.  1.
         12    1    3    3    0    0  0.72070146484E+00  0.22035739069E+01  0.27717726343E+01  0.36135677800E+01  0.00000000000E+00 0. -1.
</event>
<event>
 7    1  0.2414091E-009  0.4778728E+02  0.7816164E-02  0.1312668E+00
        -11   -1    0    0    0    0  0.00000000000E+00  0.00000000000E+00  0.45593999997E+02  0.45594000000E+02  0.51100000000E-03 0. -1.
         11   -1    0    0    0    0 -0.00000000000E+00 -0.00000000000E+00 -0.45593999997E+02  0.45594000000E+02  0.51100000000E-03 0.  1.
    9900012    2    1    2    0    0  0.36395951247E+02  0.17636230946E+02 -0.15745492909E+02  0.47787280466E+02  0.20000042957E+02 0.  0.
         12    1    1    2    0    0 -0.36395951247E+02 -0.17636230946E+02  0.15745492909E+02  0.43400719534E+02  0.00000000000E+00 0. -1.
         11    1    3    3    0    0  0.26054566958E+01  0.66601808700E+01  0.21287471554E+01  0.74617677883E+01  0.51100000000E-03 0. -1.
        -11    1    3    3    0    0  0.23504949908E+01  0.24021193486E+01 -0.50814242823E+00  0.33990017733E+01  0.51100000000E-03 0.  1.
        -12    1    3    3    0    0  0.31439999560E+02  0.85739307272E+01 -0.17366097637E+02  0.36926510904E+02  0.00000000000E+00 0.  1.
</event>
<event>
 7    1  0.2414091E-009  0.4778730E+02  0.7816164E-02  0.1312668E+00
        -11   -1    0    0    0    0  0.00000000000E+00  0.00000000000E+00  0.45593999997E+02  0.45594000000E+02  0.51100000000E-03 0. -1.
         11   -1    0    0    0    0 -0.00000000000E+00 -0.00000000000E+00 -0.45593999997E+02  0.45594000000E+02  0.51100000000E-03 0.  1.
    9900012    2    1    2    0    0 -0.35578005682E+02 -0.14717832351E+02 -0.20030273062E+02  0.47787298204E+02  0.20000123831E+02 0.  0.
         12    1    1    2    0    0  0.35578005682E+02  0.14717832351E+02  0.20030273062E+02  0.43400701796E+02  0.00000000000E+00 0. -1.
         11    1    3    3    0    0 -0.17890389231E+02 -0.68761024967E+01 -0.84011009779E+01  0.20926665054E+02  0.51100000000E-03 0. -1.
        -11    1    3    3    0    0 -0.17641594291E+02 -0.13216690464E+01 -0.86282027975E+01  0.19682950541E+02  0.51100000000E-03 0.  1.
         12    1    3    3    0    0 -0.46022160012E-01 -0.65200608082E+01 -0.30009692870E+01  0.71776826095E+01  0.00000000000E+00 0. -1.
</event>
<event>
 7    1  0.2414091E-009  0.4778727E+02  0.7816164E-02  0.1312668E+00
        -11   -1    0    0    0    0  0.00000000000E+00  0.00000000000E+00  0.45593999997E+02  0.45594000000E+02  0.51100000000E-03 0. -1.
         11   -1    0    0    0    0 -0.00000000000E+00 -0.00000000000E+00 -0.45593999997E+02  0.45594000000E+02  0.51100000000E-03 0.  1.
    9900012    2    1    2    0    0 -0.25503199255E+02  0.31801662522E+02  0.14895112421E+02  0.47787270911E+02  0.19999999393E+02 0.  0.
         12    1    1    2    0    0  0.25503199255E+02 -0.31801662522E+02 -0.14895112421E+02  0.43400729089E+02  0.00000000000E+00 0. -1.
         11    1    3    3    0    0 -0.53355701184E+01  0.12811128872E+02  0.42055357910E+01  0.14501029723E+02  0.51100000000E-03 0. -1.
        -11    1    3    3    0    0 -0.16032327019E+02  0.20948169597E+02  0.67022100674E+01  0.27217291180E+02  0.51100000000E-03 0.  1.
         12    1    3    3    0    0 -0.41353021176E+01 -0.19576359472E+01  0.39873665624E+01  0.60689500087E+01  0.00000000000E+00 0. -1.
</event>
<event>
 7    1  0.2414091E-009  0.4778727E+02  0.7816164E-02  0.1312668E+00
        -11   -1    0    0    0    0  0.00000000000E+00  0.00000000000E+00  0.45593999997E+02  0.45594000000E+02  0.51100000000E-03 0.  1.
         11   -1    0    0    0    0 -0.00000000000E+00 -0.00000000000E+00 -0.45593999997E+02  0.45594000000E+02  0.51100000000E-03 0. -1.
    9900012    2    1    2    0    0  0.30319041115E+02  0.20040644799E+02  0.23722387506E+02  0.47787269971E+02  0.19999995106E+02 0.  0.
         12    1    1    2    0    0 -0.30319041115E+02 -0.20040644799E+02 -0.23722387506E+02  0.43400730029E+02  0.00000000000E+00 0. -1.
         11    1    3    3    0    0  0.59075161167E+01  0.81475099383E+01  0.81748325921E+01  0.12965668245E+02  0.51100000000E-03 0. -1.
        -11    1    3    3    0    0  0.14457936299E+02  0.13777442611E+02  0.14410795300E+02  0.24627644394E+02  0.51100000000E-03 0.  1.
         12    1    3    3    0    0  0.99535886987E+01 -0.18843077507E+01  0.11367596135E+01  0.10193957333E+02  0.00000000000E+00 0. -1.
</event>
<event>
 7    1  0.2414091E-009  0.4778727E+02  0.7816164E-02  0.1312668E+00
        -11   -1    0    0    0    0  0.00000000000E+00  0.00000000000E+00  0.45593999997E+02  0.45594000000E+02  0.51100000000E-03 0.  1.
         11   -1    0    0    0    0 -0.00000000000E+00 -0.00000000000E+00 -0.45593999997E+02  0.45594000000E+02  0.51100000000E-03 0. -1.
    9900012    2    1    2    0    0  0.14245894365E+02  0.25787149728E+01  0.40914888673E+02  0.47787269680E+02  0.19999993779E+02 0.  0.
         12    1    1    2    0    0 -0.14245894365E+02 -0.25787149728E+01 -0.40914888673E+02  0.43400730320E+02  0.00000000000E+00 0. -1.
         11    1    3    3    0    0  0.22134828403E+01  0.31727839884E-02  0.11046637817E+01  0.24738226861E+01  0.51100000000E-03 0.  1.
        -11    1    3    3    0    0  0.11277200646E+02 -0.43852978522E+01  0.13688729778E+02  0.18269849887E+02  0.51100000000E-03 0. -1.
         12    1    3    3    0    0  0.75521087789E+00  0.69608400411E+01  0.26121495113E+02  0.27043597107E+02  0.00000000000E+00 0. -1.
</event>
<event>
 7    1  0.2414091E-009  0.4778727E+02  0.7816164E-02  0.1312668E+00
        -11   -1    0    0    0    0  0.00000000000E+00  0.00000000000E+00  0.45593999997E+02  0.45594000000E+02  0.51100000000E-03 0.  1.
         11   -1    0    0    0    0 -0.00000000000E+00 -0.00000000000E+00 -0.45593999997E+02  0.45594000000E+02  0.51100000000E-03 0. -1.
    9900012    2    1    2    0    0 -0.36924238190E+02 -0.82779740726E+01  0.21253206723E+02  0.47787274007E+02  0.20000013509E+02 0.  0.
         12    1    1    2    0    0  0.36924238190E+02  0.82779740726E+01 -0.21253206723E+02  0.43400725993E+02  0.00000000000E+00 0. -1.
         11    1    3    3    0    0 -0.15483182653E+02 -0.38262572076E+01  0.14846639759E+02  0.21789720092E+02  0.51100000000E-03 0. -1.
        -11    1    3    3    0    0 -0.10893537201E+02 -0.11477824511E+01  0.95220410945E+01  0.14513987191E+02  0.51100000000E-03 0.  1.
         12    1    3    3    0    0 -0.10547518336E+02 -0.33039344140E+01 -0.31154741304E+01  0.11483566725E+02  0.00000000000E+00 0. -1.
</event>
<event>
 7    1  0.2414091E-009  0.4778727E+02  0.7816164E-02  0.1312668E+00
        -11   -1    0    0    0    0  0.00000000000E+00  0.00000000000E+00  0.45593999997E+02  0.45594000000E+02  0.51100000000E-03 0.  1.
         11   -1    0    0    0    0 -0.00000000000E+00 -0.00000000000E+00 -0.45593999997E+02  0.45594000000E+02  0.51100000000E-03 0. -1.
    9900012    2    1    2    0    0 -0.84435934206E+01  0.32900749493E+02  0.27016101680E+02  0.47787270317E+02  0.19999996683E+02 0.  0.
         12    1    1    2    0    0  0.84435934206E+01 -0.32900749493E+02 -0.27016101680E+02  0.43400729683E+02  0.00000000000E+00 0. -1.
         11    1    3    3    0    0  0.19275968713E+01  0.29228917155E+01  0.65559987403E+01  0.74323647261E+01  0.51100000000E-03 0. -1.
        -11    1    3    3    0    0 -0.85920680118E+01  0.10809891393E+02  0.14906483593E+02  0.20319464511E+02  0.51100000000E-03 0.  1.
         12    1    3    3    0    0 -0.17791222801E+01  0.19167966385E+02  0.55536193462E+01  0.20035441080E+02  0.00000000000E+00 0. -1.
</event>
<event>
 7    1  0.2414091E-009  0.4778727E+02  0.7816164E-02  0.1312668E+00
        -11   -1    0    0    0    0  0.00000000000E+00  0.00000000000E+00  0.45593999997E+02  0.45594000000E+02  0.51100000000E-03 0. -1.
         11   -1    0    0    0    0 -0.00000000000E+00 -0.00000000000E+00 -0.45593999997E+02  0.45594000000E+02  0.51100000000E-03 0.  1.
    9900012    2    1    2    0    0 -0.20066667832E+02 -0.17576115170E+02 -0.34234956533E+02  0.47787271536E+02  0.20000002242E+02 0.  0.
         12    1    1    2    0    0  0.20066667832E+02  0.17576115170E+02  0.34234956533E+02  0.43400728464E+02  0.00000000000E+00 0. -1.
         11    1    3    3    0    0 -0.53991461902E+01 -0.88407167428E+01 -0.74719151307E+01  0.12772570927E+02  0.51100000000E-03 0. -1.
        -11    1    3    3    0    0 -0.12263897967E+02 -0.90599181704E+01 -0.28297980047E+02  0.32144377200E+02  0.51100000000E-03 0.  1.
         12    1    3    3    0    0 -0.24036236743E+01  0.32451974345E+00  0.15349386438E+01  0.28703234089E+01  0.00000000000E+00 0. -1.
</event>
<event>
 7    1  0.2414091E-009  0.4778726E+02  0.7816164E-02  0.1312668E+00
        -11   -1    0    0    0    0  0.00000000000E+00  0.00000000000E+00  0.45593999997E+02  0.45594000000E+02  0.51100000000E-03 0. -1.
         11   -1    0    0    0    0 -0.00000000000E+00 -0.00000000000E+00 -0.45593999997E+02  0.45594000000E+02  0.51100000000E-03 0.  1.
    9900012    2    1    2    0    0  0.42126100937E+02  0.85612051276E+01 -0.59767329226E+01  0.47787263257E+02  0.19999964494E+02 0.  0.
         12    1    1    2    0    0 -0.42126100937E+02 -0.85612051276E+01  0.59767329226E+01  0.43400736743E+02  0.00000000000E+00 0. -1.
         11    1    3    3    0    0  0.12982257144E+02  0.65099558391E+01  0.40991269643E+01  0.15090439613E+02  0.51100000000E-03 0. -1.
        -11    1    3    3    0    0  0.87413435925E+01 -0.31022472662E+01  0.20200566904E+00  0.92777062065E+01  0.51100000000E-03 0.  1.
        -12    1    3    3    0    0  0.20402500200E+02  0.51534965547E+01 -0.10277865556E+02  0.23419117437E+02  0.00000000000E+00 0.  1.
</event>
<event>
 7    1  0.2414091E-009  0.4778727E+02  0.7816164E-02  0.1312668E+00
        -11   -1    0    0    0    0  0.00000000000E+00  0.00000000000E+00  0.45593999997E+02  0.45594000000E+02  0.51100000000E-03 0.  1.
         11   -1    0    0    0    0 -0.00000000000E+00 -0.00000000000E+00 -0.45593999997E+02  0.45594000000E+02  0.51100000000E-03 0. -1.
    9900012    2    1    2    0    0  0.25569301999E+02 -0.34334139256E+02 -0.71415059455E+01  0.47787269242E+02  0.19999991784E+02 0.  0.
         12    1    1    2    0    0 -0.25569301999E+02  0.34334139256E+02  0.71415059455E+01  0.43400730758E+02  0.00000000000E+00 0. -1.
         11    1    3    3    0    0  0.11506923485E+02 -0.23396844963E+02 -0.11915410465E+01  0.26100601768E+02  0.51100000000E-03 0. -1.
        -11    1    3    3    0    0  0.84233573284E+01 -0.64636673804E+01  0.21685074621E+01  0.10836713965E+02  0.51100000000E-03 0.  1.
         12    1    3    3    0    0  0.56390211849E+01 -0.44736269120E+01 -0.81184723611E+01  0.10849953509E+02  0.00000000000E+00 0. -1.
</event>
<event>
 7    1  0.2414091E-009  0.4778727E+02  0.7816164E-02  0.1312668E+00
        -11   -1    0    0    0    0  0.00000000000E+00  0.00000000000E+00  0.45593999997E+02  0.45594000000E+02  0.51100000000E-03 0.  1.
         11   -1    0    0    0    0 -0.00000000000E+00 -0.00000000000E+00 -0.45593999997E+02  0.45594000000E+02  0.51100000000E-03 0. -1.
    9900012    2    1    2    0    0 -0.34906304727E+02  0.25790590628E+02  0.13630824133E+00  0.47787271267E+02  0.20000001014E+02 0.  0.
         12    1    1    2    0    0  0.34906304727E+02 -0.25790590628E+02 -0.13630824133E+00  0.43400728733E+02  0.00000000000E+00 0. -1.
         11    1    3    3    0    0 -0.12968678116E+02  0.69302558992E+01 -0.15419246280E+01  0.14784877095E+02  0.51100000000E-03 0.  1.
        -11    1    3    3    0    0 -0.19763462653E+02  0.12601055409E+02 -0.45867194630E+01  0.23883447180E+02  0.51100000000E-03 0. -1.
         12    1    3    3    0    0 -0.21741639574E+01  0.62592793198E+01  0.62649523323E+01  0.91189469920E+01  0.00000000000E+00 0. -1.
</event>
<event>
 7    1  0.2414091E-009  0.4778727E+02  0.7816164E-02  0.1312668E+00
        -11   -1    0    0    0    0  0.00000000000E+00  0.00000000000E+00  0.45593999997E+02  0.45594000000E+02  0.51100000000E-03 0.  1.
         11   -1    0    0    0    0 -0.00000000000E+00 -0.00000000000E+00 -0.45593999997E+02  0.45594000000E+02  0.51100000000E-03 0. -1.
    9900012    2    1    2    0    0 -0.38735438666E+02 -0.15805050362E+02  0.11549422882E+02  0.47787274263E+02  0.20000014674E+02 0.  0.
         12    1    1    2    0    0  0.38735438666E+02  0.15805050362E+02 -0.11549422882E+02  0.43400725737E+02  0.00000000000E+00 0. -1.
         11    1    3    3    0    0 -0.28417456046E+01 -0.64637945768E+00 -0.15681310032E+00  0.29185467435E+01  0.51100000000E-03 0. -1.
        -11    1    3    3    0    0 -0.36299888218E+02 -0.16256437170E+02  0.74641298629E+01  0.40468096928E+02  0.51100000000E-03 0.  1.
         12    1    3    3    0    0  0.40619515603E+00  0.10977662659E+01  0.42421061189E+01  0.44006305916E+01  0.00000000000E+00 0. -1.
</event>
<event>
 7    1  0.2414091E-009  0.4778727E+02  0.7816164E-02  0.1312668E+00
        -11   -1    0    0    0    0  0.00000000000E+00  0.00000000000E+00  0.45593999997E+02  0.45594000000E+02  0.51100000000E-03 0.  1.
         11   -1    0    0    0    0 -0.00000000000E+00 -0.00000000000E+00 -0.45593999997E+02  0.45594000000E+02  0.51100000000E-03 0. -1.
    9900012    2    1    2    0    0  0.17901264327E+01 -0.28608021747E+02  0.32588337707E+02  0.47787271718E+02  0.20000003069E+02 0.  0.
         12    1    1    2    0    0 -0.17901264327E+01  0.28608021747E+02 -0.32588337707E+02  0.43400728282E+02  0.00000000000E+00 0. -1.
         11    1    3    3    0    0 -0.34167137480E+01 -0.90182598735E+00  0.22898455046E+00  0.35411378302E+01  0.51100000000E-03 0. -1.
        -11    1    3    3    0    0 -0.26677972352E+01 -0.22834614333E+01  0.46323698182E+01  0.58129328742E+01  0.51100000000E-03 0.  1.
         12    1    3    3    0    0  0.78746374159E+01 -0.25422734327E+02  0.27726983338E+02  0.38433201013E+02  0.00000000000E+00 0. -1.
</event>
<event>
 7    1  0.2414091E-009  0.4778727E+02  0.7816164E-02  0.1312668E+00
        -11   -1    0    0    0    0  0.00000000000E+00  0.00000000000E+00  0.45593999997E+02  0.45594000000E+02  0.51100000000E-03 0.  1.
         11   -1    0    0    0    0 -0.00000000000E+00 -0.00000000000E+00 -0.45593999997E+02  0.45594000000E+02  0.51100000000E-03 0. -1.
    9900012    2    1    2    0    0 -0.40117319378E+02  0.10773481343E+02  0.12576009509E+02  0.47787271556E+02  0.20000002332E+02 0.  0.
         12    1    1    2    0    0  0.40117319378E+02 -0.10773481343E+02 -0.12576009509E+02  0.43400728444E+02  0.00000000000E+00 0. -1.
         11    1    3    3    0    0 -0.21964287391E+02  0.10090322218E+02  0.10243299009E+02  0.26252041785E+02  0.51100000000E-03 0. -1.
        -11    1    3    3    0    0 -0.14243468090E+02  0.13041011965E+01  0.65671360454E+01  0.15738625711E+02  0.51100000000E-03 0.  1.
         12    1    3    3    0    0 -0.39095638972E+01 -0.62094207180E+00 -0.42344255459E+01  0.57966040599E+01  0.00000000000E+00 0. -1.
</event>
<event>
 7    1  0.2414091E-009  0.4778727E+02  0.7816164E-02  0.1312668E+00
        -11   -1    0    0    0    0  0.00000000000E+00  0.00000000000E+00  0.45593999997E+02  0.45594000000E+02  0.51100000000E-03 0.  1.
         11   -1    0    0    0    0 -0.00000000000E+00 -0.00000000000E+00 -0.45593999997E+02  0.45594000000E+02  0.51100000000E-03 0. -1.
    9900012    2    1    2    0    0  0.29003909547E+02 -0.10774200164E+02  0.30435398427E+02  0.47787266877E+02  0.19999981000E+02 0.  0.
         12    1    1    2    0    0 -0.29003909547E+02  0.10774200164E+02 -0.30435398427E+02  0.43400733123E+02  0.00000000000E+00 0. -1.
         11    1    3    3    0    0 -0.17301531946E+00 -0.32847823336E+01 -0.70425844448E+00  0.33638830981E+01  0.51100000000E-03 0. -1.
        -11    1    3    3    0    0  0.74283518463E+01 -0.61318833128E+01  0.70261820153E+01  0.11922568435E+02  0.51100000000E-03 0.  1.
        -12    1    3    3    0    0  0.21748573020E+02 -0.13575345171E+01  0.24113474857E+02  0.32500815344E+02  0.00000000000E+00 0.  1.
</event>
<event>
 7    1  0.2414091E-009  0.4778728E+02  0.7816164E-02  0.1312668E+00
        -11   -1    0    0    0    0  0.00000000000E+00  0.00000000000E+00  0.45593999997E+02  0.45594000000E+02  0.51100000000E-03 0.  1.
         11   -1    0    0    0    0 -0.00000000000E+00 -0.00000000000E+00 -0.45593999997E+02  0.45594000000E+02  0.51100000000E-03 0. -1.
    9900012    2    1    2    0    0  0.28816470659E+02  0.21766710199E+02  0.24071644062E+02  0.47787277633E+02  0.20000030040E+02 0.  0.
         12    1    1    2    0    0 -0.28816470659E+02 -0.21766710199E+02 -0.24071644062E+02  0.43400722367E+02  0.00000000000E+00 0. -1.
         11    1    3    3    0    0  0.98739952311E+01  0.44727364311E+01  0.12962995516E+02  0.16897940881E+02  0.51100000000E-03 0. -1.
        -11    1    3    3    0    0  0.22848491481E+01 -0.21636054895E+01  0.18686876312E+01  0.36597428964E+01  0.51100000000E-03 0.  1.
         12    1    3    3    0    0  0.16657626280E+02  0.19457579258E+02  0.92399609147E+01  0.27229593856E+02  0.00000000000E+00 0. -1.
</event>
<event>
 7    1  0.2414091E-009  0.4778727E+02  0.7816164E-02  0.1312668E+00
        -11   -1    0    0    0    0  0.00000000000E+00  0.00000000000E+00  0.45593999997E+02  0.45594000000E+02  0.51100000000E-03 0.  1.
         11   -1    0    0    0    0 -0.00000000000E+00 -0.00000000000E+00 -0.45593999997E+02  0.45594000000E+02  0.51100000000E-03 0. -1.
    9900012    2    1    2    0    0 -0.21736863280E+02 -0.27719750956E+02  0.25352461382E+02  0.47787272859E+02  0.20000008271E+02 0.  0.
         12    1    1    2    0    0  0.21736863280E+02  0.27719750956E+02 -0.25352461382E+02  0.43400727141E+02  0.00000000000E+00 0. -1.
         11    1    3    3    0    0 -0.49357259786E+01 -0.16277472041E+02  0.63909368365E+01  0.18170348398E+02  0.51100000000E-03 0. -1.
        -11    1    3    3    0    0 -0.10464722697E+02 -0.97386885019E+01  0.68710473216E+01  0.15860761848E+02  0.51100000000E-03 0.  1.
         12    1    3    3    0    0 -0.63364146045E+01 -0.17035904133E+01  0.12090477223E+02  0.13756162613E+02  0.00000000000E+00 0. -1.
</event>
<event>
 7    1  0.2414091E-009  0.4778725E+02  0.7816164E-02  0.1312668E+00
        -11   -1    0    0    0    0  0.00000000000E+00  0.00000000000E+00  0.45593999997E+02  0.45594000000E+02  0.51100000000E-03 0.  1.
         11   -1    0    0    0    0 -0.00000000000E+00 -0.00000000000E+00 -0.45593999997E+02  0.45594000000E+02  0.51100000000E-03 0. -1.
    9900012    2    1    2    0    0  0.34202015440E+02 -0.21172567160E+02  0.16296314204E+02  0.47787247507E+02  0.19999892682E+02 0.  0.
         12    1    1    2    0    0 -0.34202015440E+02  0.21172567160E+02 -0.16296314204E+02  0.43400752493E+02  0.00000000000E+00 0. -1.
         11    1    3    3    0    0  0.56367758222E+01  0.90415072295E+00  0.15878687450E+01  0.59255428116E+01  0.51100000000E-03 0. -1.
        -11    1    3    3    0    0  0.15099405253E+02 -0.12572282479E+02 -0.18236740238E+00  0.19649111529E+02  0.51100000000E-03 0.  1.
         12    1    3    3    0    0  0.13465834365E+02 -0.95044354040E+01  0.14890812862E+02  0.22212593166E+02  0.00000000000E+00 0. -1.
</event>
<event>
 7    1  0.2414091E-009  0.4778727E+02  0.7816164E-02  0.1312668E+00
        -11   -1    0    0    0    0  0.00000000000E+00  0.00000000000E+00  0.45593999997E+02  0.45594000000E+02  0.51100000000E-03 0.  1.
         11   -1    0    0    0    0 -0.00000000000E+00 -0.00000000000E+00 -0.45593999997E+02  0.45594000000E+02  0.51100000000E-03 0. -1.
    9900012    2    1    2    0    0  0.60316905472E+00 -0.32950167610E+02  0.28240853143E+02  0.47787272532E+02  0.20000006784E+02 0.  0.
         12    1    1    2    0    0 -0.60316905472E+00  0.32950167610E+02 -0.28240853143E+02  0.43400727468E+02  0.00000000000E+00 0. -1.
         11    1    3    3    0    0  0.40819366205E+01 -0.90606985844E+01  0.23148603844E+01  0.10203775981E+02  0.51100000000E-03 0. -1.
        -11    1    3    3    0    0 -0.21794462694E+01  0.25449997127E+00  0.86931491341E-01  0.21959766897E+01  0.51100000000E-03 0.  1.
        -12    1    3    3    0    0 -0.12993212964E+01 -0.24143968997E+02  0.25839061267E+02  0.35387519862E+02  0.00000000000E+00 0.  1.
</event>
<event>
 7    1  0.2414091E-009  0.4778727E+02  0.7816164E-02  0.1312668E+00
        -11   -1    0    0    0    0  0.00000000000E+00  0.00000000000E+00  0.45593999997E+02  0.45594000000E+02  0.51100000000E-03 0.  1.
         11   -1    0    0    0    0 -0.00000000000E+00 -0.00000000000E+00 -0.45593999997E+02  0.45594000000E+02  0.51100000000E-03 0. -1.
    9900012    2    1    2    0    0  0.15781738176E+02  0.21215647965E+02  0.34415929056E+02  0.47787272457E+02  0.20000006440E+02 0.  0.
         12    1    1    2    0    0 -0.15781738176E+02 -0.21215647965E+02 -0.34415929056E+02  0.43400727543E+02  0.00000000000E+00 0. -1.
         11    1    3    3    0    0  0.12690043451E+02  0.89504744756E+01  0.99875080153E+01  0.18463437187E+02  0.51100000000E-03 0. -1.
        -11    1    3    3    0    0  0.38152435502E+01  0.81215436932E+00  0.10937464699E+02  0.11612226848E+02  0.51100000000E-03 0.  1.
         12    1    3    3    0    0 -0.72354882522E+00  0.11453019121E+02  0.13490956342E+02  0.17711608422E+02  0.00000000000E+00 0. -1.
</event>
<event>
 7    1  0.2414091E-009  0.4778726E+02  0.7816164E-02  0.1312668E+00
        -11   -1    0    0    0    0  0.00000000000E+00  0.00000000000E+00  0.45593999997E+02  0.45594000000E+02  0.51100000000E-03 0.  1.
         11   -1    0    0    0    0 -0.00000000000E+00 -0.00000000000E+00 -0.45593999997E+02  0.45594000000E+02  0.51100000000E-03 0. -1.
    9900012    2    1    2    0    0  0.66223217875E+01 -0.42434985290E+02 -0.62482568770E+01  0.47787264563E+02  0.19999970450E+02 0.  0.
         12    1    1    2    0    0 -0.66223217875E+01  0.42434985290E+02  0.62482568770E+01  0.43400735437E+02  0.00000000000E+00 0. -1.
         11    1    3    3    0    0  0.43849914587E+01 -0.64463015240E+01  0.29143073771E+01  0.83232290116E+01  0.51100000000E-03 0. -1.
        -11    1    3    3    0    0  0.44348643135E+01 -0.26261494839E+02 -0.11271088356E+01  0.26657166152E+02  0.51100000000E-03 0.  1.
         12    1    3    3    0    0 -0.21975339846E+01 -0.97271889276E+01 -0.80354554185E+01  0.12806869400E+02  0.00000000000E+00 0. -1.
</event>
<event>
 7    1  0.2414091E-009  0.4778728E+02  0.7816164E-02  0.1312668E+00
        -11   -1    0    0    0    0  0.00000000000E+00  0.00000000000E+00  0.45593999997E+02  0.45594000000E+02  0.51100000000E-03 0.  1.
         11   -1    0    0    0    0 -0.00000000000E+00 -0.00000000000E+00 -0.45593999997E+02  0.45594000000E+02  0.51100000000E-03 0. -1.
    9900012    2    1    2    0    0 -0.38245660388E+01  0.42341415110E+02  0.87292701250E+01  0.47787275400E+02  0.20000019859E+02 0.  0.
         12    1    1    2    0    0  0.38245660388E+01 -0.42341415110E+02 -0.87292701250E+01  0.43400724600E+02  0.00000000000E+00 0. -1.
         11    1    3    3    0    0 -0.52852338640E+01  0.84015396882E+01  0.27546468045E+01  0.10300856538E+02  0.51100000000E-03 0. -1.
        -11    1    3    3    0    0 -0.14118372240E+01  0.30676956540E+02  0.92175099703E+01  0.32062929330E+02  0.51100000000E-03 0.  1.
         12    1    3    3    0    0  0.28725050492E+01  0.32629188820E+01 -0.32428866498E+01  0.54234895327E+01  0.00000000000E+00 0. -1.
</event>
<event>
 7    1  0.2414091E-009  0.4778727E+02  0.7816164E-02  0.1312668E+00
        -11   -1    0    0    0    0  0.00000000000E+00  0.00000000000E+00  0.45593999997E+02  0.45594000000E+02  0.51100000000E-03 0.  1.
         11   -1    0    0    0    0 -0.00000000000E+00 -0.00000000000E+00 -0.45593999997E+02  0.45594000000E+02  0.51100000000E-03 0. -1.
    9900012    2    1    2    0    0  0.19154822102E+02  0.30644831182E+02  0.24033519868E+02  0.47787274601E+02  0.20000016214E+02 0.  0.
         12    1    1    2    0    0 -0.19154822102E+02 -0.30644831182E+02 -0.24033519868E+02  0.43400725399E+02  0.00000000000E+00 0. -1.
         11    1    3    3    0    0  0.16718536178E+01  0.38650214199E+01 -0.10729379276E+01  0.43456508319E+01  0.51100000000E-03 0. -1.
        -11    1    3    3    0    0 -0.34465886341E+00  0.59242601631E+01  0.11215703584E+02  0.12688879200E+02  0.51100000000E-03 0.  1.
        -12    1    3    3    0    0  0.17827627347E+02  0.20855549599E+02  0.13890754212E+02  0.30752744569E+02  0.00000000000E+00 0.  1.
</event>
<event>
 7    1  0.2414091E-009  0.4778727E+02  0.7816164E-02  0.1312668E+00
        -11   -1    0    0    0    0  0.00000000000E+00  0.00000000000E+00  0.45593999997E+02  0.45594000000E+02  0.51100000000E-03 0.  1.
         11   -1    0    0    0    0 -0.00000000000E+00 -0.00000000000E+00 -0.45593999997E+02  0.45594000000E+02  0.51100000000E-03 0. -1.
    9900012    2    1    2    0    0 -0.19484620674E+02 -0.35842623049E+02 -0.14808074831E+02  0.47787272472E+02  0.20000006507E+02 0.  0.
         12    1    1    2    0    0  0.19484620674E+02  0.35842623049E+02  0.14808074831E+02  0.43400727528E+02  0.00000000000E+00 0. -1.
         11    1    3    3    0    0 -0.35487582558E+01 -0.91846218775E+01 -0.10067075694E+02  0.14081795961E+02  0.51100000000E-03 0. -1.
        -11    1    3    3    0    0 -0.49447066838E+00  0.11946037777E+01  0.58071278099E+00  0.14173238948E+01  0.51100000000E-03 0.  1.
        -12    1    3    3    0    0 -0.15441391749E+02 -0.27852604949E+02 -0.53217119174E+01  0.32288152616E+02  0.00000000000E+00 0.  1.
</event>
<event>
 7    1  0.2414091E-009  0.4778727E+02  0.7816164E-02  0.1312668E+00
        -11   -1    0    0    0    0  0.00000000000E+00  0.00000000000E+00  0.45593999997E+02  0.45594000000E+02  0.51100000000E-03 0.  1.
         11   -1    0    0    0    0 -0.00000000000E+00 -0.00000000000E+00 -0.45593999997E+02  0.45594000000E+02  0.51100000000E-03 0. -1.
    9900012    2    1    2    0    0 -0.23617211408E+02  0.22438830852E+02  0.28676639561E+02  0.47787268886E+02  0.19999990161E+02 0.  0.
         12    1    1    2    0    0  0.23617211408E+02 -0.22438830852E+02 -0.28676639561E+02  0.43400731114E+02  0.00000000000E+00 0. -1.
         11    1    3    3    0    0 -0.13815993084E+02  0.60162916407E+01  0.35350665554E+01  0.15478182252E+02  0.51100000000E-03 0. -1.
        -11    1    3    3    0    0 -0.21810885159E+01  0.91185611169E+00  0.63674153440E+01  0.67920988734E+01  0.51100000000E-03 0.  1.
         12    1    3    3    0    0 -0.76201298080E+01  0.15510683100E+02  0.18774157661E+02  0.25516987761E+02  0.00000000000E+00 0. -1.
</event>
<event>
 7    1  0.2414091E-009  0.4778727E+02  0.7816164E-02  0.1312668E+00
        -11   -1    0    0    0    0  0.00000000000E+00  0.00000000000E+00  0.45593999997E+02  0.45594000000E+02  0.51100000000E-03 0. -1.
         11   -1    0    0    0    0 -0.00000000000E+00 -0.00000000000E+00 -0.45593999997E+02  0.45594000000E+02  0.51100000000E-03 0.  1.
    9900012    2    1    2    0    0 -0.36575697940E+02  0.28751344661E+01 -0.23185668414E+02  0.47787270769E+02  0.19999998743E+02 0.  0.
         12    1    1    2    0    0  0.36575697940E+02 -0.28751344661E+01  0.23185668414E+02  0.43400729231E+02  0.00000000000E+00 0. -1.
         11    1    3    3    0    0 -0.74310318804E+01 -0.30011340534E+01  0.81656845006E+00  0.80556703451E+01  0.51100000000E-03 0. -1.
        -11    1    3    3    0    0 -0.34919413851E+01  0.30474502840E+01 -0.22530395619E+00  0.46401907293E+01  0.51100000000E-03 0.  1.
        -12    1    3    3    0    0 -0.25652724674E+02  0.28288182355E+01 -0.23776932908E+02  0.35091409694E+02  0.00000000000E+00 0.  1.
</event>
<event>
 7    1  0.2414091E-009  0.4778728E+02  0.7816164E-02  0.1312668E+00
        -11   -1    0    0    0    0  0.00000000000E+00  0.00000000000E+00  0.45593999997E+02  0.45594000000E+02  0.51100000000E-03 0.  1.
         11   -1    0    0    0    0 -0.00000000000E+00 -0.00000000000E+00 -0.45593999997E+02  0.45594000000E+02  0.51100000000E-03 0. -1.
    9900012    2    1    2    0    0 -0.17128803599E+02  0.15033046225E+02  0.36935544752E+02  0.47787275839E+02  0.20000021862E+02 0.  0.
         12    1    1    2    0    0  0.17128803599E+02 -0.15033046225E+02 -0.36935544752E+02  0.43400724161E+02  0.00000000000E+00 0. -1.
         11    1    3    3    0    0 -0.67029709988E+00 -0.14818437797E+01  0.79033538035E+01  0.80689628078E+01  0.51100000000E-03 0. -1.
        -11    1    3    3    0    0 -0.17261896568E+01 -0.15453676147E-01 -0.13020371615E+01  0.21622374010E+01  0.51100000000E-03 0.  1.
        -12    1    3    3    0    0 -0.14732316842E+02  0.16530343681E+02  0.30334228110E+02  0.37556075631E+02  0.00000000000E+00 0.  1.
</event>
<event>
 7    1  0.2414091E-009  0.4778727E+02  0.7816164E-02  0.1312668E+00
        -11   -1    0    0    0    0  0.00000000000E+00  0.00000000000E+00  0.45593999997E+02  0.45594000000E+02  0.51100000000E-03 0. -1.
         11   -1    0    0    0    0 -0.00000000000E+00 -0.00000000000E+00 -0.45593999997E+02  0.45594000000E+02  0.51100000000E-03 0.  1.
    9900012    2    1    2    0    0  0.36050661912E+02  0.65907162017E+00 -0.24156543680E+02  0.47787271870E+02  0.20000003762E+02 0.  0.
         12    1    1    2    0    0 -0.36050661912E+02 -0.65907162017E+00  0.24156543680E+02  0.43400728130E+02  0.00000000000E+00 0. -1.
         11    1    3    3    0    0  0.26466979818E+02  0.33207582624E+01 -0.19293529817E+02  0.32920643208E+02  0.51100000000E-03 0. -1.
        -11    1    3    3    0    0  0.65093862837E+01  0.26277123610E+01  0.50388923118E-01  0.70199374176E+01  0.51100000000E-03 0.  1.
        -12    1    3    3    0    0  0.30742958097E+01 -0.52893990032E+01 -0.49134027867E+01  0.78466912444E+01  0.00000000000E+00 0.  1.
</event>
<event>
 7    1  0.2414091E-009  0.4778727E+02  0.7816164E-02  0.1312668E+00
        -11   -1    0    0    0    0  0.00000000000E+00  0.00000000000E+00  0.45593999997E+02  0.45594000000E+02  0.51100000000E-03 0.  1.
         11   -1    0    0    0    0 -0.00000000000E+00 -0.00000000000E+00 -0.45593999997E+02  0.45594000000E+02  0.51100000000E-03 0. -1.
    9900012    2    1    2    0    0  0.85398960699E+01 -0.31274246288E+02  0.28855075459E+02  0.47787266302E+02  0.19999978379E+02 0.  0.
         12    1    1    2    0    0 -0.85398960699E+01  0.31274246288E+02 -0.28855075459E+02  0.43400733698E+02  0.00000000000E+00 0. -1.
         11    1    3    3    0    0 -0.23970352671E+01 -0.58482337552E+01  0.62267530090E+01  0.88724331174E+01  0.51100000000E-03 0.  1.
        -11    1    3    3    0    0  0.57527697526E+01 -0.84193170932E-01  0.33852606575E+01  0.66754354387E+01  0.51100000000E-03 0. -1.
         12    1    3    3    0    0  0.51841615844E+01 -0.25341819361E+02  0.19243061793E+02  0.32239397746E+02  0.00000000000E+00 0. -1.
</event>
<event>
 7    1  0.2414091E-009  0.4778727E+02  0.7816164E-02  0.1312668E+00
        -11   -1    0    0    0    0  0.00000000000E+00  0.00000000000E+00  0.45593999997E+02  0.45594000000E+02  0.51100000000E-03 0. -1.
         11   -1    0    0    0    0 -0.00000000000E+00 -0.00000000000E+00 -0.45593999997E+02  0.45594000000E+02  0.51100000000E-03 0.  1.
    9900012    2    1    2    0    0 -0.23279887272E+02  0.17900638614E+02 -0.31956802145E+02  0.47787271693E+02  0.20000002958E+02 0.  0.
         12    1    1    2    0    0  0.23279887272E+02 -0.17900638614E+02  0.31956802145E+02  0.43400728307E+02  0.00000000000E+00 0. -1.
         11    1    3    3    0    0 -0.92996424043E+00 -0.23834910939E+01 -0.36605611248E+01  0.44660464947E+01  0.51100000000E-03 0. -1.
        -11    1    3    3    0    0 -0.19709114148E+01  0.95850484191E+01 -0.83025186890E+01  0.12833139205E+02  0.51100000000E-03 0.  1.
        -12    1    3    3    0    0 -0.20379011617E+02  0.10699081289E+02 -0.19993722332E+02  0.30488085994E+02  0.00000000000E+00 0.  1.
</event>
<event>
 7    1  0.2414091E-009  0.4778727E+02  0.7816164E-02  0.1312668E+00
        -11   -1    0    0    0    0  0.00000000000E+00  0.00000000000E+00  0.45593999997E+02  0.45594000000E+02  0.51100000000E-03 0.  1.
         11   -1    0    0    0    0 -0.00000000000E+00 -0.00000000000E+00 -0.45593999997E+02  0.45594000000E+02  0.51100000000E-03 0. -1.
    9900012    2    1    2    0    0  0.24807793078E+02 -0.34490340764E+02  0.88663997763E+01  0.47787271338E+02  0.20000001338E+02 0.  0.
         12    1    1    2    0    0 -0.24807793078E+02  0.34490340764E+02 -0.88663997763E+01  0.43400728662E+02  0.00000000000E+00 0. -1.
         11    1    3    3    0    0 -0.88328754317E+00  0.76500920285E+00 -0.22613260895E+01  0.25453942540E+01  0.51100000000E-03 0. -1.
        -11    1    3    3    0    0  0.31708875958E+01 -0.66988243282E+01  0.28731218029E+01  0.79488115263E+01  0.51100000000E-03 0.  1.
        -12    1    3    3    0    0  0.22520193025E+02 -0.28556525638E+02  0.82546040629E+01  0.37293065558E+02  0.00000000000E+00 0.  1.
</event>
<event>
 7    1  0.2414091E-009  0.4778727E+02  0.7816164E-02  0.1312668E+00
        -11   -1    0    0    0    0  0.00000000000E+00  0.00000000000E+00  0.45593999997E+02  0.45594000000E+02  0.51100000000E-03 0.  1.
         11   -1    0    0    0    0 -0.00000000000E+00 -0.00000000000E+00 -0.45593999997E+02  0.45594000000E+02  0.51100000000E-03 0. -1.
    9900012    2    1    2    0    0 -0.24376036274E+02  0.35908636689E+02 -0.42381910186E-01  0.47787272708E+02  0.20000007583E+02 0.  0.
         12    1    1    2    0    0  0.24376036274E+02 -0.35908636689E+02  0.42381910186E-01  0.43400727292E+02  0.00000000000E+00 0. -1.
         11    1    3    3    0    0 -0.13123054141E+02  0.10285378437E+02  0.79613755270E+00  0.16692435258E+02  0.51100000000E-03 0. -1.
        -11    1    3    3    0    0 -0.64405016115E+01  0.14679744370E+02  0.62392572511E+01  0.17201839642E+02  0.51100000000E-03 0.  1.
         12    1    3    3    0    0 -0.48124805213E+01  0.10943513882E+02 -0.70777767140E+01  0.13892997807E+02  0.00000000000E+00 0. -1.
</event>
<event>
 7    1  0.2414091E-009  0.4778728E+02  0.7816164E-02  0.1312668E+00
        -11   -1    0    0    0    0  0.00000000000E+00  0.00000000000E+00  0.45593999997E+02  0.45594000000E+02  0.51100000000E-03 0. -1.
         11   -1    0    0    0    0 -0.00000000000E+00 -0.00000000000E+00 -0.45593999997E+02  0.45594000000E+02  0.51100000000E-03 0.  1.
    9900012    2    1    2    0    0 -0.26084016240E+02 -0.34605115719E+02 -0.23943019430E+01  0.47787278590E+02  0.20000034403E+02 0.  0.
         12    1    1    2    0    0  0.26084016240E+02  0.34605115719E+02  0.23943019430E+01  0.43400721410E+02  0.00000000000E+00 0. -1.
         11    1    3    3    0    0 -0.38464035853E+01 -0.96427664237E+01  0.49909996254E+01  0.11519020894E+02  0.51100000000E-03 0. -1.
        -11    1    3    3    0    0 -0.45662745188E+01 -0.13072780876E+02 -0.54518303058E+01  0.14881898963E+02  0.51100000000E-03 0.  1.
         12    1    3    3    0    0 -0.17671338136E+02 -0.11889568420E+02 -0.19334712626E+01  0.21386358732E+02  0.00000000000E+00 0. -1.
</event>
<event>
 7    1  0.2414091E-009  0.4778722E+02  0.7816164E-02  0.1312668E+00
        -11   -1    0    0    0    0  0.00000000000E+00  0.00000000000E+00  0.45593999997E+02  0.45594000000E+02  0.51100000000E-03 0.  1.
         11   -1    0    0    0    0 -0.00000000000E+00 -0.00000000000E+00 -0.45593999997E+02  0.45594000000E+02  0.51100000000E-03 0. -1.
    9900012    2    1    2    0    0 -0.36748397618E+02  0.72594749745E+01  0.21919930608E+02  0.47787215880E+02  0.19999748480E+02 0.  0.
         12    1    1    2    0    0  0.36748397618E+02 -0.72594749745E+01 -0.21919930608E+02  0.43400784120E+02  0.00000000000E+00 0. -1.
         11    1    3    3    0    0 -0.29914281029E+02  0.51252413448E+01  0.11812329349E+02  0.32567828193E+02  0.51100000000E-03 0. -1.
        -11    1    3    3    0    0  0.23753199519E+00 -0.19116799318E+01 -0.35496348430E+00  0.19588111054E+01  0.51100000000E-03 0.  1.
        -12    1    3    3    0    0 -0.70716485846E+01  0.40459135614E+01  0.10462564744E+02  0.13260576581E+02  0.00000000000E+00 0.  1.
</event>
<event>
 7    1  0.2414091E-009  0.4778728E+02  0.7816164E-02  0.1312668E+00
        -11   -1    0    0    0    0  0.00000000000E+00  0.00000000000E+00  0.45593999997E+02  0.45594000000E+02  0.51100000000E-03 0. -1.
         11   -1    0    0    0    0 -0.00000000000E+00 -0.00000000000E+00 -0.45593999997E+02  0.45594000000E+02  0.51100000000E-03 0.  1.
    9900012    2    1    2    0    0 -0.15532734404E+02 -0.99103443810E+01 -0.39295569963E+02  0.47787279009E+02  0.20000036313E+02 0.  0.
         12    1    1    2    0    0  0.15532734404E+02  0.99103443810E+01  0.39295569963E+02  0.43400720991E+02  0.00000000000E+00 0. -1.
         11    1    3    3    0    0  0.66725783628E+00 -0.38510631364E+01 -0.14581895438E+02  0.15096608729E+02  0.51100000000E-03 0. -1.
        -11    1    3    3    0    0 -0.24058561703E+01 -0.62111426906E+01 -0.38942034710E+01  0.77156502234E+01  0.51100000000E-03 0.  1.
        -12    1    3    3    0    0 -0.13794136070E+02  0.15186144599E+00 -0.20819471054E+02  0.24975020056E+02  0.00000000000E+00 0.  1.
</event>
<event>
 7    1  0.2414091E-009  0.4778727E+02  0.7816164E-02  0.1312668E+00
        -11   -1    0    0    0    0  0.00000000000E+00  0.00000000000E+00  0.45593999997E+02  0.45594000000E+02  0.51100000000E-03 0. -1.
         11   -1    0    0    0    0 -0.00000000000E+00 -0.00000000000E+00 -0.45593999997E+02  0.45594000000E+02  0.51100000000E-03 0.  1.
    9900012    2    1    2    0    0 -0.31670224970E+02 -0.24949401653E+02 -0.16066970832E+02  0.47787270234E+02  0.19999996304E+02 0.  0.
         12    1    1    2    0    0  0.31670224970E+02  0.24949401653E+02  0.16066970832E+02  0.43400729766E+02  0.00000000000E+00 0. -1.
         11    1    3    3    0    0 -0.23317202440E+02 -0.25465775835E+02 -0.11758274229E+02  0.36475398307E+02  0.51100000000E-03 0. -1.
        -11    1    3    3    0    0 -0.20907997247E+01 -0.24367999005E+01 -0.10610276662E+00  0.32125838980E+01  0.51100000000E-03 0.  1.
         12    1    3    3    0    0 -0.62622228052E+01  0.29531740825E+01 -0.42025938365E+01  0.80992880291E+01  0.00000000000E+00 0. -1.
</event>
<event>
 7    1  0.2414091E-009  0.4778727E+02  0.7816164E-02  0.1312668E+00
        -11   -1    0    0    0    0  0.00000000000E+00  0.00000000000E+00  0.45593999997E+02  0.45594000000E+02  0.51100000000E-03 0.  1.
         11   -1    0    0    0    0 -0.00000000000E+00 -0.00000000000E+00 -0.45593999997E+02  0.45594000000E+02  0.51100000000E-03 0. -1.
    9900012    2    1    2    0    0  0.14609086843E+02 -0.35350428960E+02  0.20507195775E+02  0.47787270460E+02  0.19999997335E+02 0.  0.
         12    1    1    2    0    0 -0.14609086843E+02  0.35350428960E+02 -0.20507195775E+02  0.43400729540E+02  0.00000000000E+00 0. -1.
         11    1    3    3    0    0  0.28725054568E+01  0.12506676669E+01  0.35182607324E+00  0.31526558739E+01  0.51100000000E-03 0. -1.
        -11    1    3    3    0    0  0.19161136811E+01 -0.10735268044E+02  0.93227996808E+00  0.10944707297E+02  0.51100000000E-03 0.  1.
        -12    1    3    3    0    0  0.98204677056E+01 -0.25865828583E+02  0.19223089733E+02  0.33689907289E+02  0.00000000000E+00 0.  1.
</event>
<event>
 7    1  0.2414091E-009  0.4778726E+02  0.7816164E-02  0.1312668E+00
        -11   -1    0    0    0    0  0.00000000000E+00  0.00000000000E+00  0.45593999997E+02  0.45594000000E+02  0.51100000000E-03 0.  1.
         11   -1    0    0    0    0 -0.00000000000E+00 -0.00000000000E+00 -0.45593999997E+02  0.45594000000E+02  0.51100000000E-03 0. -1.
    9900012    2    1    2    0    0  0.26946413933E+02 -0.11877433130E+02  0.31881674627E+02  0.47787264769E+02  0.19999971386E+02 0.  0.
         12    1    1    2    0    0 -0.26946413933E+02  0.11877433130E+02 -0.31881674627E+02  0.43400735231E+02  0.00000000000E+00 0. -1.
         11    1    3    3    0    0  0.51940046967E+01 -0.24816854459E+00  0.12606787447E+02  0.13637095087E+02  0.51100000000E-03 0. -1.
        -11    1    3    3    0    0 -0.10764079879E+01 -0.15416619802E+00  0.45121711802E+01  0.46413479069E+01  0.51100000000E-03 0.  1.
        -12    1    3    3    0    0  0.22828817224E+02 -0.11475098387E+02  0.14762716000E+02  0.29508821775E+02  0.00000000000E+00 0.  1.
</event>
<event>
 7    1  0.2414091E-009  0.4778727E+02  0.7816164E-02  0.1312668E+00
        -11   -1    0    0    0    0  0.00000000000E+00  0.00000000000E+00  0.45593999997E+02  0.45594000000E+02  0.51100000000E-03 0.  1.
         11   -1    0    0    0    0 -0.00000000000E+00 -0.00000000000E+00 -0.45593999997E+02  0.45594000000E+02  0.51100000000E-03 0. -1.
    9900012    2    1    2    0    0 -0.50724477803E+01  0.41666025820E+02 -0.11037922567E+02  0.47787272256E+02  0.20000005526E+02 0.  0.
         12    1    1    2    0    0  0.50724477803E+01 -0.41666025820E+02  0.11037922567E+02  0.43400727744E+02  0.00000000000E+00 0. -1.
         11    1    3    3    0    0 -0.68173692475E+01  0.18514029508E+02 -0.15717005446E+01  0.19791817879E+02  0.51100000000E-03 0. -1.
        -11    1    3    3    0    0  0.52168908387E+00  0.20945347093E+02 -0.12224485786E+02  0.24257324200E+02  0.51100000000E-03 0.  1.
         12    1    3    3    0    0  0.12232323833E+01  0.22066492182E+01  0.27582637633E+01  0.37381301775E+01  0.00000000000E+00 0. -1.
</event>
<event>
 7    1  0.2414091E-009  0.4778727E+02  0.7816164E-02  0.1312668E+00
        -11   -1    0    0    0    0  0.00000000000E+00  0.00000000000E+00  0.45593999997E+02  0.45594000000E+02  0.51100000000E-03 0.  1.
         11   -1    0    0    0    0 -0.00000000000E+00 -0.00000000000E+00 -0.45593999997E+02  0.45594000000E+02  0.51100000000E-03 0. -1.
    9900012    2    1    2    0    0 -0.33291465403E+00  0.92700578697E+01  0.42397858048E+02  0.47787272216E+02  0.20000005344E+02 0.  0.
         12    1    1    2    0    0  0.33291465403E+00 -0.92700578697E+01 -0.42397858048E+02  0.43400727784E+02  0.00000000000E+00 0. -1.
         11    1    3    3    0    0 -0.37804483147E+01  0.10270392478E+02  0.25744659852E+02  0.27974278584E+02  0.51100000000E-03 0. -1.
        -11    1    3    3    0    0 -0.19876285680E+01  0.32224106414E+01  0.48933505710E+01  0.61870411133E+01  0.51100000000E-03 0.  1.
        -12    1    3    3    0    0  0.54351622286E+01 -0.42227452499E+01  0.11759847625E+02  0.13625952519E+02  0.00000000000E+00 0.  1.
</event>
<event>
 7    1  0.2414091E-009  0.4778727E+02  0.7816164E-02  0.1312668E+00
        -11   -1    0    0    0    0  0.00000000000E+00  0.00000000000E+00  0.45593999997E+02  0.45594000000E+02  0.51100000000E-03 0.  1.
         11   -1    0    0    0    0 -0.00000000000E+00 -0.00000000000E+00 -0.45593999997E+02  0.45594000000E+02  0.51100000000E-03 0. -1.
    9900012    2    1    2    0    0  0.17040731054E+02  0.47757515406E+01  0.39628636782E+02  0.47787272232E+02  0.20000005412E+02 0.  0.
         12    1    1    2    0    0 -0.17040731054E+02 -0.47757515406E+01 -0.39628636782E+02  0.43400727768E+02  0.00000000000E+00 0. -1.
         11    1    3    3    0    0  0.97352016499E+01  0.50581005395E+01  0.20070995895E+02  0.22873640041E+02  0.51100000000E-03 0. -1.
        -11    1    3    3    0    0 -0.14589567209E+01 -0.40157389699E+01  0.12047921559E+02  0.12783079767E+02  0.51100000000E-03 0.  1.
         12    1    3    3    0    0  0.87644861253E+01  0.37333899709E+01  0.75097193282E+01  0.12130552424E+02  0.00000000000E+00 0. -1.
</event>
<event>
 7    1  0.2414091E-009  0.4778727E+02  0.7816164E-02  0.1312668E+00
        -11   -1    0    0    0    0  0.00000000000E+00  0.00000000000E+00  0.45593999997E+02  0.45594000000E+02  0.51100000000E-03 0.  1.
         11   -1    0    0    0    0 -0.00000000000E+00 -0.00000000000E+00 -0.45593999997E+02  0.45594000000E+02  0.51100000000E-03 0. -1.
    9900012    2    1    2    0    0  0.11716404143E+02 -0.33975923901E+02  0.24330757729E+02  0.47787270713E+02  0.19999998490E+02 0.  0.
         12    1    1    2    0    0 -0.11716404143E+02  0.33975923901E+02 -0.24330757729E+02  0.43400729287E+02  0.00000000000E+00 0. -1.
         11    1    3    3    0    0  0.50044392779E+01 -0.85482996758E+01  0.69834429730E+01  0.12119666491E+02  0.51100000000E-03 0.  1.
        -11    1    3    3    0    0 -0.17202429313E+01 -0.12176620776E+01 -0.24828841225E+01  0.32567853022E+01  0.51100000000E-03 0. -1.
         12    1    3    3    0    0  0.84322077969E+01 -0.24209962148E+02  0.19830198878E+02  0.32410818920E+02  0.00000000000E+00 0. -1.
</event>
<event>
 7    1  0.2414091E-009  0.4778727E+02  0.7816164E-02  0.1312668E+00
        -11   -1    0    0    0    0  0.00000000000E+00  0.00000000000E+00  0.45593999997E+02  0.45594000000E+02  0.51100000000E-03 0. -1.
         11   -1    0    0    0    0 -0.00000000000E+00 -0.00000000000E+00 -0.45593999997E+02  0.45594000000E+02  0.51100000000E-03 0.  1.
    9900012    2    1    2    0    0  0.89557297083E+00 -0.41666914625E+02  0.12111536286E+02  0.47787272627E+02  0.20000007217E+02 0.  0.
         12    1    1    2    0    0 -0.89557297083E+00  0.41666914625E+02 -0.12111536286E+02  0.43400727373E+02  0.00000000000E+00 0. -1.
         11    1    3    3    0    0 -0.78041904366E+01 -0.75250946849E+01  0.18110950369E+01  0.10991474145E+02  0.51100000000E-03 0. -1.
        -11    1    3    3    0    0  0.11055609694E+01 -0.76578315316E+01  0.15754868438E+01  0.78959994858E+01  0.51100000000E-03 0.  1.
         12    1    3    3    0    0  0.75942024380E+01 -0.26483988408E+02  0.87249544053E+01  0.28899798996E+02  0.00000000000E+00 0. -1.
</event>
<event>
 7    1  0.2414091E-009  0.4778728E+02  0.7816164E-02  0.1312668E+00
        -11   -1    0    0    0    0  0.00000000000E+00  0.00000000000E+00  0.45593999997E+02  0.45594000000E+02  0.51100000000E-03 0.  1.
         11   -1    0    0    0    0 -0.00000000000E+00 -0.00000000000E+00 -0.45593999997E+02  0.45594000000E+02  0.51100000000E-03 0. -1.
    9900012    2    1    2    0    0  0.41915450143E+02 -0.25410124807E+01  0.10966357703E+02  0.47787277582E+02  0.20000029807E+02 0.  0.
         12    1    1    2    0    0 -0.41915450143E+02  0.25410124807E+01 -0.10966357703E+02  0.43400722418E+02  0.00000000000E+00 0. -1.
         11    1    3    3    0    0  0.41112046554E+01  0.19546160625E+01  0.30897619804E+01  0.55017412723E+01  0.51100000000E-03 0. -1.
        -11    1    3    3    0    0  0.36445518026E+02 -0.19274722747E+01  0.30135394592E+01  0.36620654744E+02  0.51100000000E-03 0.  1.
        -12    1    3    3    0    0  0.13587274625E+01 -0.25681562685E+01  0.48630562633E+01  0.56648815660E+01  0.00000000000E+00 0.  1.
</event>
<event>
 7    1  0.2414091E-009  0.4778727E+02  0.7816164E-02  0.1312668E+00
        -11   -1    0    0    0    0  0.00000000000E+00  0.00000000000E+00  0.45593999997E+02  0.45594000000E+02  0.51100000000E-03 0.  1.
         11   -1    0    0    0    0 -0.00000000000E+00 -0.00000000000E+00 -0.45593999997E+02  0.45594000000E+02  0.51100000000E-03 0. -1.
    9900012    2    1    2    0    0 -0.33627193391E+02  0.14207130286E+02  0.23473237429E+02  0.47787267728E+02  0.19999984881E+02 0.  0.
         12    1    1    2    0    0  0.33627193391E+02 -0.14207130286E+02 -0.23473237429E+02  0.43400732272E+02  0.00000000000E+00 0. -1.
         11    1    3    3    0    0 -0.72718926077E+01 -0.17866475143E+01  0.64644082230E+01  0.98924772112E+01  0.51100000000E-03 0. -1.
        -11    1    3    3    0    0 -0.15213152482E+02  0.29309551820E+01  0.31032013472E+01  0.15800644467E+02  0.51100000000E-03 0.  1.
         12    1    3    3    0    0 -0.11142148301E+02  0.13062822619E+02  0.13905627859E+02  0.22094146050E+02  0.00000000000E+00 0. -1.
</event>
<event>
 7    1  0.2414091E-009  0.4778728E+02  0.7816164E-02  0.1312668E+00
        -11   -1    0    0    0    0  0.00000000000E+00  0.00000000000E+00  0.45593999997E+02  0.45594000000E+02  0.51100000000E-03 0.  1.
         11   -1    0    0    0    0 -0.00000000000E+00 -0.00000000000E+00 -0.45593999997E+02  0.45594000000E+02  0.51100000000E-03 0. -1.
    9900012    2    1    2    0    0 -0.30892423278E+02  0.96966006127E+01  0.28900813095E+02  0.47787275617E+02  0.20000020849E+02 0.  0.
         12    1    1    2    0    0  0.30892423278E+02 -0.96966006127E+01 -0.28900813095E+02  0.43400724383E+02  0.00000000000E+00 0. -1.
         11    1    3    3    0    0 -0.79244786714E+01  0.86040792560E+01  0.15422359427E+02  0.19356567686E+02  0.51100000000E-03 0. -1.
        -11    1    3    3    0    0 -0.45090697202E+01  0.32960875385E+01  0.20624000785E+00  0.55891357118E+01  0.51100000000E-03 0.  1.
         12    1    3    3    0    0 -0.18458874886E+02 -0.22035661818E+01  0.13272213660E+02  0.22841572219E+02  0.00000000000E+00 0. -1.
</event>
<event>
 7    1  0.2414091E-009  0.4778727E+02  0.7816164E-02  0.1312668E+00
        -11   -1    0    0    0    0  0.00000000000E+00  0.00000000000E+00  0.45593999997E+02  0.45594000000E+02  0.51100000000E-03 0.  1.
         11   -1    0    0    0    0 -0.00000000000E+00 -0.00000000000E+00 -0.45593999997E+02  0.45594000000E+02  0.51100000000E-03 0. -1.
    9900012    2    1    2    0    0  0.30685999608E+02  0.14245597325E+02  0.27185574787E+02  0.47787273144E+02  0.20000009574E+02 0.  0.
         12    1    1    2    0    0 -0.30685999608E+02 -0.14245597325E+02 -0.27185574787E+02  0.43400726856E+02  0.00000000000E+00 0. -1.
         11    1    3    3    0    0  0.76140766157E+01  0.30941401247E+01  0.83108567332E+00  0.82606639853E+01  0.51100000000E-03 0. -1.
        -11    1    3    3    0    0  0.25127582107E+02  0.10524725267E+02  0.25072198666E+02  0.37024051247E+02  0.51100000000E-03 0.  1.
         12    1    3    3    0    0 -0.20556591147E+01  0.62673193262E+00  0.12822904477E+01  0.25025579121E+01  0.00000000000E+00 0. -1.
</event>
<event>
 7    1  0.2414091E-009  0.4778727E+02  0.7816164E-02  0.1312668E+00
        -11   -1    0    0    0    0  0.00000000000E+00  0.00000000000E+00  0.45593999997E+02  0.45594000000E+02  0.51100000000E-03 0.  1.
         11   -1    0    0    0    0 -0.00000000000E+00 -0.00000000000E+00 -0.45593999997E+02  0.45594000000E+02  0.51100000000E-03 0. -1.
    9900012    2    1    2    0    0 -0.20861451547E+02 -0.29002794161E+02  0.24642663680E+02  0.47787273013E+02  0.20000008974E+02 0.  0.
         12    1    1    2    0    0  0.20861451547E+02  0.29002794161E+02 -0.24642663680E+02  0.43400726987E+02  0.00000000000E+00 0. -1.
         11    1    3    3    0    0 -0.36418572177E+00 -0.14536585526E+02  0.87392200591E+01  0.16965226715E+02  0.51100000000E-03 0. -1.
        -11    1    3    3    0    0 -0.25910921364E+01 -0.58959425697E+01  0.51433575916E+01  0.82419672907E+01  0.51100000000E-03 0.  1.
        -12    1    3    3    0    0 -0.17906173689E+02 -0.85702660656E+01  0.10760086029E+02  0.22580079007E+02  0.00000000000E+00 0.  1.
</event>
<event>
 7    1  0.2414091E-009  0.4778728E+02  0.7816164E-02  0.1312668E+00
        -11   -1    0    0    0    0  0.00000000000E+00  0.00000000000E+00  0.45593999997E+02  0.45594000000E+02  0.51100000000E-03 0. -1.
         11   -1    0    0    0    0 -0.00000000000E+00 -0.00000000000E+00 -0.45593999997E+02  0.45594000000E+02  0.51100000000E-03 0.  1.
    9900012    2    1    2    0    0 -0.23314011715E+02  0.22032674840E+02 -0.29234240986E+02  0.47787277093E+02  0.20000027577E+02 0.  0.
         12    1    1    2    0    0  0.23314011715E+02 -0.22032674840E+02  0.29234240986E+02  0.43400722907E+02  0.00000000000E+00 0. -1.
         11    1    3    3    0    0 -0.73772564971E+01  0.39779573714E+01 -0.14917364017E+02  0.17110692790E+02  0.51100000000E-03 0. -1.
        -11    1    3    3    0    0  0.34683288742E+00 -0.13410820013E+01  0.32607416972E+00  0.14230666223E+01  0.51100000000E-03 0.  1.
        -12    1    3    3    0    0 -0.16283588105E+02  0.19395799470E+02 -0.14642951139E+02  0.29253517681E+02  0.00000000000E+00 0.  1.
</event>
<event>
 7    1  0.2414091E-009  0.4778727E+02  0.7816164E-02  0.1312668E+00
        -11   -1    0    0    0    0  0.00000000000E+00  0.00000000000E+00  0.45593999997E+02  0.45594000000E+02  0.51100000000E-03 0. -1.
         11   -1    0    0    0    0 -0.00000000000E+00 -0.00000000000E+00 -0.45593999997E+02  0.45594000000E+02  0.51100000000E-03 0.  1.
    9900012    2    1    2    0    0  0.33451055665E+02  0.23849528804E+02 -0.13994644480E+02  0.47787271626E+02  0.20000002653E+02 0.  0.
         12    1    1    2    0    0 -0.33451055665E+02 -0.23849528804E+02  0.13994644480E+02  0.43400728374E+02  0.00000000000E+00 0. -1.
         11    1    3    3    0    0  0.16270883230E+02  0.10516211009E+02 -0.13532544565E+02  0.23631802676E+02  0.51100000000E-03 0. -1.
        -11    1    3    3    0    0  0.90074115350E+01  0.38024229600E+01 -0.47741565143E+01  0.10880462013E+02  0.51100000000E-03 0.  1.
        -12    1    3    3    0    0  0.81727608997E+01  0.95308948348E+01  0.43120565991E+01  0.13275006938E+02  0.00000000000E+00 0.  1.
</event>
<event>
 7    1  0.2414091E-009  0.4778727E+02  0.7816164E-02  0.1312668E+00
        -11   -1    0    0    0    0  0.00000000000E+00  0.00000000000E+00  0.45593999997E+02  0.45594000000E+02  0.51100000000E-03 0.  1.
         11   -1    0    0    0    0 -0.00000000000E+00 -0.00000000000E+00 -0.45593999997E+02  0.45594000000E+02  0.51100000000E-03 0. -1.
    9900012    2    1    2    0    0  0.37624496538E+02  0.90346929888E+01  0.19656927242E+02  0.47787271829E+02  0.20000003579E+02 0.  0.
         12    1    1    2    0    0 -0.37624496538E+02 -0.90346929888E+01 -0.19656927242E+02  0.43400728171E+02  0.00000000000E+00 0. -1.
         11    1    3    3    0    0  0.11028832090E+02  0.65594479339E+00  0.10475654358E+02  0.15225134985E+02  0.51100000000E-03 0. -1.
        -11    1    3    3    0    0  0.81668192570E+00 -0.27159731630E+01 -0.48859015929E+00  0.28778811988E+01  0.51100000000E-03 0.  1.
        -12    1    3    3    0    0  0.25778982523E+02  0.11094721358E+02  0.96698630432E+01  0.29684255645E+02  0.00000000000E+00 0.  1.
</event>
<event>
 7    1  0.2414091E-009  0.4778724E+02  0.7816164E-02  0.1312668E+00
        -11   -1    0    0    0    0  0.00000000000E+00  0.00000000000E+00  0.45593999997E+02  0.45594000000E+02  0.51100000000E-03 0.  1.
         11   -1    0    0    0    0 -0.00000000000E+00 -0.00000000000E+00 -0.45593999997E+02  0.45594000000E+02  0.51100000000E-03 0. -1.
    9900012    2    1    2    0    0 -0.92851423319E+01 -0.23177705341E+02  0.35499383739E+02  0.47787238039E+02  0.19999849513E+02 0.  0.
         12    1    1    2    0    0  0.92851423319E+01  0.23177705341E+02 -0.35499383739E+02  0.43400761961E+02  0.00000000000E+00 0. -1.
         11    1    3    3    0    0 -0.11653623623E+02 -0.19377632994E+02  0.32380381332E+02  0.39494160321E+02  0.51100000000E-03 0. -1.
        -11    1    3    3    0    0 -0.11464403767E+01 -0.34438778775E+01  0.76273320785E-01  0.36304873299E+01  0.51100000000E-03 0.  1.
        -12    1    3    3    0    0  0.35149216682E+01 -0.35619446989E+00  0.30427290855E+01  0.46625903875E+01  0.00000000000E+00 0.  1.
</event>
<event>
 7    1  0.2414091E-009  0.4778727E+02  0.7816164E-02  0.1312668E+00
        -11   -1    0    0    0    0  0.00000000000E+00  0.00000000000E+00  0.45593999997E+02  0.45594000000E+02  0.51100000000E-03 0.  1.
         11   -1    0    0    0    0 -0.00000000000E+00 -0.00000000000E+00 -0.45593999997E+02  0.45594000000E+02  0.51100000000E-03 0. -1.
    9900012    2    1    2    0    0 -0.23813372188E+02  0.23814147720E+02  0.27375770732E+02  0.47787272474E+02  0.20000006520E+02 0.  0.
         12    1    1    2    0    0  0.23813372188E+02 -0.23814147720E+02 -0.27375770732E+02  0.43400727526E+02  0.00000000000E+00 0. -1.
         11    1    3    3    0    0 -0.28473489110E+01 -0.48598420078E+00  0.23020829414E+01  0.36936651979E+01  0.51100000000E-03 0. -1.
        -11    1    3    3    0    0 -0.18869289414E+01  0.12903448798E+02  0.44620116751E+01  0.13782925675E+02  0.51100000000E-03 0.  1.
        -12    1    3    3    0    0 -0.19079094336E+02  0.11396683123E+02  0.20611676115E+02  0.30310681601E+02  0.00000000000E+00 0.  1.
</event>
<event>
 7    1  0.2414091E-009  0.4778727E+02  0.7816164E-02  0.1312668E+00
        -11   -1    0    0    0    0  0.00000000000E+00  0.00000000000E+00  0.45593999997E+02  0.45594000000E+02  0.51100000000E-03 0.  1.
         11   -1    0    0    0    0 -0.00000000000E+00 -0.00000000000E+00 -0.45593999997E+02  0.45594000000E+02  0.51100000000E-03 0. -1.
    9900012    2    1    2    0    0 -0.24248596631E+02 -0.15094932692E+01  0.35963177931E+02  0.47787272179E+02  0.20000005174E+02 0.  0.
         12    1    1    2    0    0  0.24248596631E+02  0.15094932692E+01 -0.35963177931E+02  0.43400727821E+02  0.00000000000E+00 0. -1.
         11    1    3    3    0    0 -0.10233238864E+01  0.37328540483E+01  0.32822299335E+01  0.50748817444E+01  0.51100000000E-03 0. -1.
        -11    1    3    3    0    0 -0.11877550351E+02  0.41172412547E+01  0.17770402639E+02  0.21767294001E+02  0.51100000000E-03 0.  1.
         12    1    3    3    0    0 -0.11347722394E+02 -0.93595885723E+01  0.14910545358E+02  0.20945096434E+02  0.00000000000E+00 0. -1.
</event>
<event>
 7    1  0.2414091E-009  0.4778732E+02  0.7816164E-02  0.1312668E+00
        -11   -1    0    0    0    0  0.00000000000E+00  0.00000000000E+00  0.45593999997E+02  0.45594000000E+02  0.51100000000E-03 0. -1.
         11   -1    0    0    0    0 -0.00000000000E+00 -0.00000000000E+00 -0.45593999997E+02  0.45594000000E+02  0.51100000000E-03 0.  1.
    9900012    2    1    2    0    0  0.29432173468E+02  0.18869274844E+02 -0.25716079290E+02  0.47787319104E+02  0.20000219121E+02 0.  0.
         12    1    1    2    0    0 -0.29432173468E+02 -0.18869274844E+02  0.25716079290E+02  0.43400680896E+02  0.00000000000E+00 0. -1.
         11    1    3    3    0    0  0.13902700585E+02  0.11977263829E+02 -0.86969474459E+01  0.20307063488E+02  0.51100000000E-03 0. -1.
        -11    1    3    3    0    0  0.16987738544E+02  0.86205193418E+01 -0.16396906002E+02  0.25134739729E+02  0.51100000000E-03 0.  1.
        -12    1    3    3    0    0 -0.14582656612E+01 -0.17285083264E+01 -0.62222584228E+00  0.23455158861E+01  0.00000000000E+00 0.  1.
</event>
<event>
 7    1  0.2414091E-009  0.4778727E+02  0.7816164E-02  0.1312668E+00
        -11   -1    0    0    0    0  0.00000000000E+00  0.00000000000E+00  0.45593999997E+02  0.45594000000E+02  0.51100000000E-03 0. -1.
         11   -1    0    0    0    0 -0.00000000000E+00 -0.00000000000E+00 -0.45593999997E+02  0.45594000000E+02  0.51100000000E-03 0.  1.
    9900012    2    1    2    0    0 -0.40051853999E+02  0.16345668762E+02 -0.35058904389E+01  0.47787272313E+02  0.20000005783E+02 0.  0.
         12    1    1    2    0    0  0.40051853999E+02 -0.16345668762E+02  0.35058904389E+01  0.43400727687E+02  0.00000000000E+00 0. -1.
         11    1    3    3    0    0 -0.12269783083E+02  0.58522979429E+01  0.72884547290E+01  0.15424608284E+02  0.51100000000E-03 0. -1.
        -11    1    3    3    0    0 -0.33279485485E+01 -0.57481587151E+00 -0.27078436015E+01  0.43287494798E+01  0.51100000000E-03 0.  1.
         12    1    3    3    0    0 -0.24454122367E+02  0.11068186690E+02 -0.80865015663E+01  0.28033914549E+02  0.00000000000E+00 0. -1.
</event>
<event>
 7    1  0.2414091E-009  0.4778729E+02  0.7816164E-02  0.1312668E+00
        -11   -1    0    0    0    0  0.00000000000E+00  0.00000000000E+00  0.45593999997E+02  0.45594000000E+02  0.51100000000E-03 0. -1.
         11   -1    0    0    0    0 -0.00000000000E+00 -0.00000000000E+00 -0.45593999997E+02  0.45594000000E+02  0.51100000000E-03 0.  1.
    9900012    2    1    2    0    0  0.43101809457E+01  0.40606664419E+02 -0.14701792275E+02  0.47787290891E+02  0.20000090489E+02 0.  0.
         12    1    1    2    0    0 -0.43101809457E+01 -0.40606664419E+02  0.14701792275E+02  0.43400709109E+02  0.00000000000E+00 0. -1.
         11    1    3    3    0    0 -0.18774417954E+01 -0.94971582907E+00  0.10897187534E+00  0.21068039733E+01  0.51100000000E-03 0. -1.
        -11    1    3    3    0    0 -0.23520610291E+01  0.17995229107E+02 -0.59328078490E+01  0.19093419572E+02  0.51100000000E-03 0.  1.
        -12    1    3    3    0    0  0.85396837701E+01  0.23561151141E+02 -0.88779563014E+01  0.26587067346E+02  0.00000000000E+00 0.  1.
</event>
<event>
 7    1  0.2414091E-009  0.4778727E+02  0.7816164E-02  0.1312668E+00
        -11   -1    0    0    0    0  0.00000000000E+00  0.00000000000E+00  0.45593999997E+02  0.45594000000E+02  0.51100000000E-03 0.  1.
         11   -1    0    0    0    0 -0.00000000000E+00 -0.00000000000E+00 -0.45593999997E+02  0.45594000000E+02  0.51100000000E-03 0. -1.
    9900012    2    1    2    0    0  0.34959823563E+02 -0.23070076388E+02 -0.11366867946E+02  0.47787269880E+02  0.19999994689E+02 0.  0.
         12    1    1    2    0    0 -0.34959823563E+02  0.23070076388E+02  0.11366867946E+02  0.43400730120E+02  0.00000000000E+00 0. -1.
         11    1    3    3    0    0  0.65100598349E-01 -0.49063922862E+01 -0.36751752984E+01  0.61305658050E+01  0.51100000000E-03 0. -1.
        -11    1    3    3    0    0  0.91835337309E+01 -0.74817817765E+01  0.23181437378E+01  0.12070134257E+02  0.51100000000E-03 0.  1.
        -12    1    3    3    0    0  0.25711189234E+02 -0.10681902325E+02 -0.10009836385E+02  0.29586569817E+02  0.00000000000E+00 0.  1.
</event>
<event>
 7    1  0.2414091E-009  0.4778727E+02  0.7816164E-02  0.1312668E+00
        -11   -1    0    0    0    0  0.00000000000E+00  0.00000000000E+00  0.45593999997E+02  0.45594000000E+02  0.51100000000E-03 0. -1.
         11   -1    0    0    0    0 -0.00000000000E+00 -0.00000000000E+00 -0.45593999997E+02  0.45594000000E+02  0.51100000000E-03 0.  1.
    9900012    2    1    2    0    0 -0.30634964885E+02 -0.76485563101E+01 -0.29776195560E+02  0.47787270638E+02  0.19999998146E+02 0.  0.
         12    1    1    2    0    0  0.30634964885E+02  0.76485563101E+01  0.29776195560E+02  0.43400729362E+02  0.00000000000E+00 0. -1.
         11    1    3    3    0    0 -0.22167633065E+01 -0.37913231541E+01 -0.10219798737E+01  0.45091699834E+01  0.51100000000E-03 0. -1.
        -11    1    3    3    0    0 -0.28777329441E+01 -0.29999436182E+01 -0.12052993437E+02  0.12749731749E+02  0.51100000000E-03 0.  1.
         12    1    3    3    0    0 -0.25540468634E+02 -0.85728953780E+00 -0.16701222249E+02  0.30528368905E+02  0.00000000000E+00 0. -1.
</event>
<event>
 7    1  0.2414091E-009  0.4778726E+02  0.7816164E-02  0.1312668E+00
        -11   -1    0    0    0    0  0.00000000000E+00  0.00000000000E+00  0.45593999997E+02  0.45594000000E+02  0.51100000000E-03 0. -1.
         11   -1    0    0    0    0 -0.00000000000E+00 -0.00000000000E+00 -0.45593999997E+02  0.45594000000E+02  0.51100000000E-03 0.  1.
    9900012    2    1    2    0    0 -0.29410124735E+02 -0.29151627213E+02  0.12994286257E+02  0.47787259437E+02  0.19999947076E+02 0.  0.
         12    1    1    2    0    0  0.29410124735E+02  0.29151627213E+02 -0.12994286257E+02  0.43400740563E+02  0.00000000000E+00 0. -1.
         11    1    3    3    0    0  0.23515002032E+00 -0.44028494664E+00 -0.16837258670E+01  0.17561547262E+01  0.51100000000E-03 0. -1.
        -11    1    3    3    0    0 -0.21465775525E+02 -0.15559719029E+02  0.30968732688E+01  0.26692227323E+02  0.51100000000E-03 0.  1.
         12    1    3    3    0    0 -0.81794992306E+01 -0.13151623237E+02  0.11581138855E+02  0.19338877388E+02  0.00000000000E+00 0. -1.
</event>
<event>
 7    1  0.2414091E-009  0.4778727E+02  0.7816164E-02  0.1312668E+00
        -11   -1    0    0    0    0  0.00000000000E+00  0.00000000000E+00  0.45593999997E+02  0.45594000000E+02  0.51100000000E-03 0.  1.
         11   -1    0    0    0    0 -0.00000000000E+00 -0.00000000000E+00 -0.45593999997E+02  0.45594000000E+02  0.51100000000E-03 0. -1.
    9900012    2    1    2    0    0 -0.62483899277E+01 -0.10130195626E+02  0.41736794687E+02  0.47787271079E+02  0.20000000158E+02 0.  0.
         12    1    1    2    0    0  0.62483899277E+01  0.10130195626E+02 -0.41736794687E+02  0.43400728921E+02  0.00000000000E+00 0. -1.
         11    1    3    3    0    0  0.12399650970E+01  0.21231825435E+01  0.50422127536E+01  0.56097528705E+01  0.51100000000E-03 0. -1.
        -11    1    3    3    0    0  0.26454976895E+01 -0.85233814149E+01  0.10121457785E+02  0.13494094884E+02  0.51100000000E-03 0.  1.
        -12    1    3    3    0    0 -0.10133852714E+02 -0.37299967542E+01  0.26573124149E+02  0.28683423325E+02  0.00000000000E+00 0.  1.
</event>
<event>
 7    1  0.2414091E-009  0.4778727E+02  0.7816164E-02  0.1312668E+00
        -11   -1    0    0    0    0  0.00000000000E+00  0.00000000000E+00  0.45593999997E+02  0.45594000000E+02  0.51100000000E-03 0.  1.
         11   -1    0    0    0    0 -0.00000000000E+00 -0.00000000000E+00 -0.45593999997E+02  0.45594000000E+02  0.51100000000E-03 0. -1.
    9900012    2    1    2    0    0  0.15080887774E+02  0.37866282304E+02  0.14910897288E+02  0.47787269943E+02  0.19999994978E+02 0.  0.
         12    1    1    2    0    0 -0.15080887774E+02 -0.37866282304E+02 -0.14910897288E+02  0.43400730057E+02  0.00000000000E+00 0. -1.
         11    1    3    3    0    0  0.94600638449E+01  0.41749121006E+01  0.42916435778E+01  0.11195575191E+02  0.51100000000E-03 0. -1.
        -11    1    3    3    0    0  0.48180704906E+01  0.83222288887E+01  0.23856677845E+01  0.99078104528E+01  0.51100000000E-03 0.  1.
        -12    1    3    3    0    0  0.80275343855E+00  0.25369141314E+02  0.82335859254E+01  0.26683884299E+02  0.00000000000E+00 0.  1.
</event>
<event>
 7    1  0.2414091E-009  0.4778727E+02  0.7816164E-02  0.1312668E+00
        -11   -1    0    0    0    0  0.00000000000E+00  0.00000000000E+00  0.45593999997E+02  0.45594000000E+02  0.51100000000E-03 0.  1.
         11   -1    0    0    0    0 -0.00000000000E+00 -0.00000000000E+00 -0.45593999997E+02  0.45594000000E+02  0.51100000000E-03 0. -1.
    9900012    2    1    2    0    0 -0.30204323736E+02 -0.10093362119E+02  0.29486372457E+02  0.47787270837E+02  0.19999999054E+02 0.  0.
         12    1    1    2    0    0  0.30204323736E+02  0.10093362119E+02 -0.29486372457E+02  0.43400729163E+02  0.00000000000E+00 0. -1.
         11    1    3    3    0    0 -0.14671190578E+02 -0.76618584362E+01  0.18943470242E+02  0.25155575381E+02  0.51100000000E-03 0. -1.
        -11    1    3    3    0    0 -0.14870616197E+02 -0.25040067003E+01  0.13108501837E+02  0.19980943329E+02  0.51100000000E-03 0.  1.
         12    1    3    3    0    0 -0.66251696092E+00  0.72503017126E-01 -0.25655996230E+01  0.26507521266E+01  0.00000000000E+00 0. -1.
</event>
<event>
 7    1  0.2414091E-009  0.4778727E+02  0.7816164E-02  0.1312668E+00
        -11   -1    0    0    0    0  0.00000000000E+00  0.00000000000E+00  0.45593999997E+02  0.45594000000E+02  0.51100000000E-03 0.  1.
         11   -1    0    0    0    0 -0.00000000000E+00 -0.00000000000E+00 -0.45593999997E+02  0.45594000000E+02  0.51100000000E-03 0. -1.
    9900012    2    1    2    0    0  0.14608958365E+02  0.25879282660E+02  0.31630117172E+02  0.47787271345E+02  0.20000001368E+02 0.  0.
         12    1    1    2    0    0 -0.14608958365E+02 -0.25879282660E+02 -0.31630117172E+02  0.43400728655E+02  0.00000000000E+00 0. -1.
         11    1    3    3    0    0  0.32228063437E+00  0.70052652721E+01  0.12424726809E+01  0.71218919511E+01  0.51100000000E-03 0. -1.
        -11    1    3    3    0    0 -0.66954043662E+00  0.57749382765E+01  0.13048762769E+02  0.14285251364E+02  0.51100000000E-03 0.  1.
        -12    1    3    3    0    0  0.14956218167E+02  0.13099079111E+02  0.17338881723E+02  0.26380128029E+02  0.00000000000E+00 0.  1.
</event>
<event>
 7    1  0.2414091E-009  0.4778727E+02  0.7816164E-02  0.1312668E+00
        -11   -1    0    0    0    0  0.00000000000E+00  0.00000000000E+00  0.45593999997E+02  0.45594000000E+02  0.51100000000E-03 0. -1.
         11   -1    0    0    0    0 -0.00000000000E+00 -0.00000000000E+00 -0.45593999997E+02  0.45594000000E+02  0.51100000000E-03 0.  1.
    9900012    2    1    2    0    0  0.92074900760E+01  0.99875118094E+01 -0.41220080058E+02  0.47787271140E+02  0.20000000435E+02 0.  0.
         12    1    1    2    0    0 -0.92074900760E+01 -0.99875118094E+01  0.41220080058E+02  0.43400728860E+02  0.00000000000E+00 0. -1.
         11    1    3    3    0    0  0.50388611192E+01  0.95174708110E+01 -0.97481335632E+01  0.14525786734E+02  0.51100000000E-03 0. -1.
        -11    1    3    3    0    0  0.10940729037E+01  0.37123121349E+01 -0.45592601468E+01  0.59803938209E+01  0.51100000000E-03 0.  1.
        -12    1    3    3    0    0  0.30745560531E+01 -0.32422711365E+01 -0.26912686348E+02  0.27281090585E+02  0.00000000000E+00 0.  1.
</event>
<event>
 7    1  0.2414091E-009  0.4778727E+02  0.7816164E-02  0.1312668E+00
        -11   -1    0    0    0    0  0.00000000000E+00  0.00000000000E+00  0.45593999997E+02  0.45594000000E+02  0.51100000000E-03 0. -1.
         11   -1    0    0    0    0 -0.00000000000E+00 -0.00000000000E+00 -0.45593999997E+02  0.45594000000E+02  0.51100000000E-03 0.  1.
    9900012    2    1    2    0    0 -0.22321235520E+02 -0.15366111812E+02 -0.33900860008E+02  0.47787271243E+02  0.20000000905E+02 0.  0.
         12    1    1    2    0    0  0.22321235520E+02  0.15366111812E+02  0.33900860008E+02  0.43400728757E+02  0.00000000000E+00 0. -1.
         11    1    3    3    0    0 -0.19901013461E+02 -0.14591053613E+02 -0.19734705061E+02  0.31597591149E+02  0.51100000000E-03 0. -1.
        -11    1    3    3    0    0 -0.47180306566E+01 -0.20908949305E+01 -0.86867639718E+01  0.10104035008E+02  0.51100000000E-03 0.  1.
         12    1    3    3    0    0  0.22978085974E+01  0.13158367308E+01 -0.54793909751E+01  0.60856450859E+01  0.00000000000E+00 0. -1.
</event>
<event>
 7    1  0.2414091E-009  0.4778727E+02  0.7816164E-02  0.1312668E+00
        -11   -1    0    0    0    0  0.00000000000E+00  0.00000000000E+00  0.45593999997E+02  0.45594000000E+02  0.51100000000E-03 0. -1.
         11   -1    0    0    0    0 -0.00000000000E+00 -0.00000000000E+00 -0.45593999997E+02  0.45594000000E+02  0.51100000000E-03 0.  1.
    9900012    2    1    2    0    0  0.17958558941E+02 -0.33935408395E+02  0.20236144241E+02  0.47787270560E+02  0.19999997793E+02 0.  0.
         12    1    1    2    0    0 -0.17958558941E+02  0.33935408395E+02 -0.20236144241E+02  0.43400729440E+02  0.00000000000E+00 0. -1.
         11    1    3    3    0    0 -0.16426119267E+01 -0.26779040760E+01  0.26696699150E+01  0.41226789710E+01  0.51100000000E-03 0. -1.
        -11    1    3    3    0    0  0.88501241838E+01 -0.17259410234E+02  0.94388570506E+00  0.19419136443E+02  0.51100000000E-03 0.  1.
         12    1    3    3    0    0  0.10751046684E+02 -0.13998094084E+02  0.16622588621E+02  0.24245455147E+02  0.00000000000E+00 0. -1.
</event>
<event>
 7    1  0.2414091E-009  0.4778727E+02  0.7816164E-02  0.1312668E+00
        -11   -1    0    0    0    0  0.00000000000E+00  0.00000000000E+00  0.45593999997E+02  0.45594000000E+02  0.51100000000E-03 0.  1.
         11   -1    0    0    0    0 -0.00000000000E+00 -0.00000000000E+00 -0.45593999997E+02  0.45594000000E+02  0.51100000000E-03 0. -1.
    9900012    2    1    2    0    0 -0.90474396270E+00 -0.43365806513E+02 -0.14871956359E+01  0.47787268589E+02  0.19999988803E+02 0.  0.
         12    1    1    2    0    0  0.90474396270E+00  0.43365806513E+02  0.14871956359E+01  0.43400731411E+02  0.00000000000E+00 0. -1.
         11    1    3    3    0    0 -0.21360078708E+01 -0.16479564327E+02  0.89206634318E-01  0.16617657119E+02  0.51100000000E-03 0. -1.
        -11    1    3    3    0    0  0.64624142416E+01 -0.24518147859E+02 -0.18329761946E+01  0.25421687085E+02  0.51100000000E-03 0.  1.
         12    1    3    3    0    0 -0.52311503335E+01 -0.23680943272E+01  0.25657392433E+00  0.57479243848E+01  0.00000000000E+00 0. -1.
</event>
<event>
 7    1  0.2414091E-009  0.4778729E+02  0.7816164E-02  0.1312668E+00
        -11   -1    0    0    0    0  0.00000000000E+00  0.00000000000E+00  0.45593999997E+02  0.45594000000E+02  0.51100000000E-03 0.  1.
         11   -1    0    0    0    0 -0.00000000000E+00 -0.00000000000E+00 -0.45593999997E+02  0.45594000000E+02  0.51100000000E-03 0. -1.
    9900012    2    1    2    0    0  0.86399662727E+00  0.17947238316E+02  0.39506608316E+02  0.47787286250E+02  0.20000069329E+02 0.  0.
         12    1    1    2    0    0 -0.86399662727E+00 -0.17947238316E+02 -0.39506608316E+02  0.43400713750E+02  0.00000000000E+00 0. -1.
         11    1    3    3    0    0 -0.31851243946E+01  0.20011868357E+01  0.12928001337E+02  0.13464136994E+02  0.51100000000E-03 0. -1.
        -11    1    3    3    0    0  0.45927879867E+01  0.75241135224E+00  0.13461438379E+02  0.14243249202E+02  0.51100000000E-03 0.  1.
        -12    1    3    3    0    0 -0.54366696480E+00  0.15193640128E+02  0.13117168601E+02  0.20079900055E+02  0.00000000000E+00 0.  1.
</event>
<event>
 7    1  0.2414091E-009  0.4778727E+02  0.7816164E-02  0.1312668E+00
        -11   -1    0    0    0    0  0.00000000000E+00  0.00000000000E+00  0.45593999997E+02  0.45594000000E+02  0.51100000000E-03 0.  1.
         11   -1    0    0    0    0 -0.00000000000E+00 -0.00000000000E+00 -0.45593999997E+02  0.45594000000E+02  0.51100000000E-03 0. -1.
    9900012    2    1    2    0    0 -0.13611129863E+02 -0.98482641599E+01  0.40017147022E+02  0.47787271678E+02  0.20000002887E+02 0.  0.
         12    1    1    2    0    0  0.13611129863E+02  0.98482641599E+01 -0.40017147022E+02  0.43400728322E+02  0.00000000000E+00 0. -1.
         11    1    3    3    0    0 -0.26712185135E+01 -0.23696473134E+01  0.12898030154E+01  0.37966075405E+01  0.51100000000E-03 0. -1.
        -11    1    3    3    0    0 -0.61304959623E+01 -0.12157828757E+02  0.30295838457E+02  0.33214960619E+02  0.51100000000E-03 0.  1.
         12    1    3    3    0    0 -0.48094153873E+01  0.46792119109E+01  0.84315055503E+01  0.10775703519E+02  0.00000000000E+00 0. -1.
</event>
<event>
 7    1  0.2414091E-009  0.4778726E+02  0.7816164E-02  0.1312668E+00
        -11   -1    0    0    0    0  0.00000000000E+00  0.00000000000E+00  0.45593999997E+02  0.45594000000E+02  0.51100000000E-03 0.  1.
         11   -1    0    0    0    0 -0.00000000000E+00 -0.00000000000E+00 -0.45593999997E+02  0.45594000000E+02  0.51100000000E-03 0. -1.
    9900012    2    1    2    0    0 -0.26186959618E+02  0.91335363349E+01  0.33383318190E+02  0.47787259529E+02  0.19999947498E+02 0.  0.
         12    1    1    2    0    0  0.26186959618E+02 -0.91335363349E+01 -0.33383318190E+02  0.43400740471E+02  0.00000000000E+00 0. -1.
         11    1    3    3    0    0  0.65523436081E-01 -0.17452707363E+01  0.37797395934E+01  0.41637356927E+01  0.51100000000E-03 0. -1.
        -11    1    3    3    0    0 -0.59436679058E+01 -0.18306644541E+01  0.13189303816E+02  0.14582052528E+02  0.51100000000E-03 0.  1.
        -12    1    3    3    0    0 -0.20308815148E+02  0.12709471525E+02  0.16414274781E+02  0.29041471308E+02  0.00000000000E+00 0.  1.
</event>
<event>
 7    1  0.2414091E-009  0.4778727E+02  0.7816164E-02  0.1312668E+00
        -11   -1    0    0    0    0  0.00000000000E+00  0.00000000000E+00  0.45593999997E+02  0.45594000000E+02  0.51100000000E-03 0. -1.
         11   -1    0    0    0    0 -0.00000000000E+00 -0.00000000000E+00 -0.45593999997E+02  0.45594000000E+02  0.51100000000E-03 0.  1.
    9900012    2    1    2    0    0  0.26755246030E+02  0.26868321442E+02  0.21115715280E+02  0.47787270525E+02  0.19999997630E+02 0.  0.
         12    1    1    2    0    0 -0.26755246030E+02 -0.26868321442E+02 -0.21115715280E+02  0.43400729475E+02  0.00000000000E+00 0. -1.
         11    1    3    3    0    0  0.89720503356E-01  0.33892476979E+01  0.13131048273E+01  0.36358347426E+01  0.51100000000E-03 0. -1.
        -11    1    3    3    0    0  0.42308837155E+01  0.14118872735E+02  0.44337312795E+01  0.15391585936E+02  0.51100000000E-03 0.  1.
         12    1    3    3    0    0  0.22434641811E+02  0.93602010089E+01  0.15368879173E+02  0.28759849846E+02  0.00000000000E+00 0. -1.
</event>
<event>
 7    1  0.2414091E-009  0.4778727E+02  0.7816164E-02  0.1312668E+00
        -11   -1    0    0    0    0  0.00000000000E+00  0.00000000000E+00  0.45593999997E+02  0.45594000000E+02  0.51100000000E-03 0. -1.
         11   -1    0    0    0    0 -0.00000000000E+00 -0.00000000000E+00 -0.45593999997E+02  0.45594000000E+02  0.51100000000E-03 0.  1.
    9900012    2    1    2    0    0  0.33033883730E+01 -0.13482244560E+01 -0.43253820418E+02  0.47787273454E+02  0.20000010986E+02 0.  0.
         12    1    1    2    0    0 -0.33033883730E+01  0.13482244560E+01  0.43253820418E+02  0.43400726546E+02  0.00000000000E+00 0. -1.
         11    1    3    3    0    0 -0.24090337850E+01  0.25387853469E+01 -0.97986061177E+01  0.10404881399E+02  0.51100000000E-03 0. -1.
        -11    1    3    3    0    0 -0.46573335070E+01 -0.42396317722E+01 -0.13096253690E+02  0.14531933593E+02  0.51100000000E-03 0.  1.
        -12    1    3    3    0    0  0.10369755665E+02  0.35262196927E+00 -0.20358960610E+02  0.22850458462E+02  0.00000000000E+00 0.  1.
</event>
<event>
 7    1  0.2414091E-009  0.4778728E+02  0.7816164E-02  0.1312668E+00
        -11   -1    0    0    0    0  0.00000000000E+00  0.00000000000E+00  0.45593999997E+02  0.45594000000E+02  0.51100000000E-03 0.  1.
         11   -1    0    0    0    0 -0.00000000000E+00 -0.00000000000E+00 -0.45593999997E+02  0.45594000000E+02  0.51100000000E-03 0. -1.
    9900012    2    1    2    0    0 -0.38223702506E+02 -0.40740762156E+01  0.20148776959E+02  0.47787277158E+02  0.20000027873E+02 0.  0.
         12    1    1    2    0    0  0.38223702506E+02  0.40740762156E+01 -0.20148776959E+02  0.43400722842E+02  0.00000000000E+00 0. -1.
         11    1    3    3    0    0 -0.15686107951E+02  0.42363316989E+00  0.48793961776E+01  0.16432953327E+02  0.51100000000E-03 0. -1.
        -11    1    3    3    0    0 -0.16574212042E+02  0.25252994913E+01  0.14398919699E+02  0.22100012016E+02  0.51100000000E-03 0.  1.
        -12    1    3    3    0    0 -0.59633825131E+01 -0.70230088767E+01  0.87046108237E+00  0.92543118154E+01  0.00000000000E+00 0.  1.
</event>
<event>
 7    1  0.2414091E-009  0.4778727E+02  0.7816164E-02  0.1312668E+00
        -11   -1    0    0    0    0  0.00000000000E+00  0.00000000000E+00  0.45593999997E+02  0.45594000000E+02  0.51100000000E-03 0.  1.
         11   -1    0    0    0    0 -0.00000000000E+00 -0.00000000000E+00 -0.45593999997E+02  0.45594000000E+02  0.51100000000E-03 0. -1.
    9900012    2    1    2    0    0  0.37774335092E+02 -0.21341264028E+02  0.11285139281E+01  0.47787268605E+02  0.19999988878E+02 0.  0.
         12    1    1    2    0    0 -0.37774335092E+02  0.21341264028E+02 -0.11285139281E+01  0.43400731395E+02  0.00000000000E+00 0. -1.
         11    1    3    3    0    0  0.17163306001E+01 -0.36918739257E+01  0.61367979055E+00  0.41173203614E+01  0.51100000000E-03 0. -1.
        -11    1    3    3    0    0  0.21926023096E+02 -0.24629623187E+01 -0.40410022248E+01  0.22430924444E+02  0.51100000000E-03 0.  1.
        -12    1    3    3    0    0  0.14131981396E+02 -0.15186427783E+02  0.45558363624E+01  0.21239023799E+02  0.00000000000E+00 0.  1.
</event>
<event>
 7    1  0.2414091E-009  0.4778727E+02  0.7816164E-02  0.1312668E+00
        -11   -1    0    0    0    0  0.00000000000E+00  0.00000000000E+00  0.45593999997E+02  0.45594000000E+02  0.51100000000E-03 0. -1.
         11   -1    0    0    0    0 -0.00000000000E+00 -0.00000000000E+00 -0.45593999997E+02  0.45594000000E+02  0.51100000000E-03 0.  1.
    9900012    2    1    2    0    0  0.42427689573E+02  0.87208368546E+01 -0.27315437515E+01  0.47787272250E+02  0.20000005497E+02 0.  0.
         12    1    1    2    0    0 -0.42427689573E+02 -0.87208368546E+01  0.27315437515E+01  0.43400727750E+02  0.00000000000E+00 0. -1.
         11    1    3    3    0    0  0.45246321662E+01 -0.24345788187E+01 -0.45770092399E+01  0.68810234782E+01  0.51100000000E-03 0. -1.
        -11    1    3    3    0    0  0.12648777124E+02  0.74370722014E+01 -0.28609132154E+01  0.14949462544E+02  0.51100000000E-03 0.  1.
         12    1    3    3    0    0  0.25254280283E+02  0.37183434719E+01  0.47063787037E+01  0.25956786228E+02  0.00000000000E+00 0. -1.
</event>
<event>
 7    1  0.2414091E-009  0.4778732E+02  0.7816164E-02  0.1312668E+00
        -11   -1    0    0    0    0  0.00000000000E+00  0.00000000000E+00  0.45593999997E+02  0.45594000000E+02  0.51100000000E-03 0. -1.
         11   -1    0    0    0    0 -0.00000000000E+00 -0.00000000000E+00 -0.45593999997E+02  0.45594000000E+02  0.51100000000E-03 0.  1.
    9900012    2    1    2    0    0 -0.18732615143E+02  0.18983358401E+02 -0.34239458609E+02  0.47787316917E+02  0.20000209151E+02 0.  0.
         12    1    1    2    0    0  0.18732615143E+02 -0.18983358401E+02  0.34239458609E+02  0.43400683083E+02  0.00000000000E+00 0. -1.
         11    1    3    3    0    0 -0.42276566283E+00 -0.10289695120E+00  0.29959175920E+00  0.52827461754E+00  0.51100000000E-03 0. -1.
        -11    1    3    3    0    0 -0.38704295117E+00 -0.12691524088E+01 -0.11777515875E+02  0.11852022212E+02  0.51100000000E-03 0.  1.
        -12    1    3    3    0    0 -0.17922806529E+02  0.20355407761E+02 -0.22761534493E+02  0.35407020087E+02  0.00000000000E+00 0.  1.
</event>
<event>
 7    1  0.2414091E-009  0.4778727E+02  0.7816164E-02  0.1312668E+00
        -11   -1    0    0    0    0  0.00000000000E+00  0.00000000000E+00  0.45593999997E+02  0.45594000000E+02  0.51100000000E-03 0.  1.
         11   -1    0    0    0    0 -0.00000000000E+00 -0.00000000000E+00 -0.45593999997E+02  0.45594000000E+02  0.51100000000E-03 0. -1.
    9900012    2    1    2    0    0 -0.39664697887E+02 -0.35174896058E+00  0.17612812218E+02  0.47787272587E+02  0.20000007032E+02 0.  0.
         12    1    1    2    0    0  0.39664697887E+02  0.35174896058E+00 -0.17612812218E+02  0.43400727413E+02  0.00000000000E+00 0. -1.
         11    1    3    3    0    0 -0.98664767434E+01  0.18763120469E+01 -0.85764339012E+00  0.10079854298E+02  0.51100000000E-03 0. -1.
        -11    1    3    3    0    0 -0.25440589076E+02 -0.14685737569E+01  0.86064740427E+01  0.26897057035E+02  0.51100000000E-03 0.  1.
         12    1    3    3    0    0 -0.43576320672E+01 -0.75948725049E+00  0.98639815656E+01  0.10810361254E+02  0.00000000000E+00 0. -1.
</event>
<event>
 7    1  0.2414091E-009  0.4778730E+02  0.7816164E-02  0.1312668E+00
        -11   -1    0    0    0    0  0.00000000000E+00  0.00000000000E+00  0.45593999997E+02  0.45594000000E+02  0.51100000000E-03 0.  1.
         11   -1    0    0    0    0 -0.00000000000E+00 -0.00000000000E+00 -0.45593999997E+02  0.45594000000E+02  0.51100000000E-03 0. -1.
    9900012    2    1    2    0    0  0.33060279040E+02  0.27970772843E+02 -0.28764993496E+01  0.47787303783E+02  0.20000149269E+02 0.  0.
         12    1    1    2    0    0 -0.33060279040E+02 -0.27970772843E+02  0.28764993496E+01  0.43400696217E+02  0.00000000000E+00 0. -1.
         11    1    3    3    0    0  0.97756572388E+01  0.10547560458E+02 -0.47293870710E+00  0.14388821264E+02  0.51100000000E-03 0. -1.
        -11    1    3    3    0    0  0.84091906969E+01  0.13315536226E+02  0.46643071356E+01  0.16424790850E+02  0.51100000000E-03 0.  1.
         12    1    3    3    0    0  0.14875431104E+02  0.41076761579E+01 -0.70678677781E+01  0.16973691669E+02  0.00000000000E+00 0. -1.
</event>
<event>
 7    1  0.2414091E-009  0.4778728E+02  0.7816164E-02  0.1312668E+00
        -11   -1    0    0    0    0  0.00000000000E+00  0.00000000000E+00  0.45593999997E+02  0.45594000000E+02  0.51100000000E-03 0.  1.
         11   -1    0    0    0    0 -0.00000000000E+00 -0.00000000000E+00 -0.45593999997E+02  0.45594000000E+02  0.51100000000E-03 0. -1.
    9900012    2    1    2    0    0  0.51233690125E+01  0.12981246483E+02  0.41095757067E+02  0.47787275130E+02  0.20000018629E+02 0.  0.
         12    1    1    2    0    0 -0.51233690125E+01 -0.12981246483E+02 -0.41095757067E+02  0.43400724870E+02  0.00000000000E+00 0. -1.
         11    1    3    3    0    0 -0.47811881430E+01  0.35958419027E+01  0.11462657233E+02  0.12929901397E+02  0.51100000000E-03 0. -1.
        -11    1    3    3    0    0  0.40930937006E+01  0.15186424657E+01  0.22059373079E+02  0.22487232642E+02  0.51100000000E-03 0.  1.
        -12    1    3    3    0    0  0.58114634548E+01  0.78667621143E+01  0.75737267555E+01  0.12370141091E+02  0.00000000000E+00 0.  1.
</event>
<event>
 7    1  0.2414091E-009  0.4778727E+02  0.7816164E-02  0.1312668E+00
        -11   -1    0    0    0    0  0.00000000000E+00  0.00000000000E+00  0.45593999997E+02  0.45594000000E+02  0.51100000000E-03 0.  1.
         11   -1    0    0    0    0 -0.00000000000E+00 -0.00000000000E+00 -0.45593999997E+02  0.45594000000E+02  0.51100000000E-03 0. -1.
    9900012    2    1    2    0    0  0.98559916844E+00  0.35420452035E+02  0.25060793660E+02  0.47787271816E+02  0.20000003517E+02 0.  0.
         12    1    1    2    0    0 -0.98559916844E+00 -0.35420452035E+02 -0.25060793660E+02  0.43400728184E+02  0.00000000000E+00 0. -1.
         11    1    3    3    0    0  0.76221911881E+00  0.11225487776E+02  0.15745399445E+01  0.11360973994E+02  0.51100000000E-03 0.  1.
        -11    1    3    3    0    0 -0.32557580379E+01  0.23373850109E+02  0.17227246249E+02  0.29218399047E+02  0.51100000000E-03 0. -1.
         12    1    3    3    0    0  0.34791380876E+01  0.82111414997E+00  0.62590074663E+01  0.72078987745E+01  0.00000000000E+00 0. -1.
</event>
<event>
 7    1  0.2414091E-009  0.4778727E+02  0.7816164E-02  0.1312668E+00
        -11   -1    0    0    0    0  0.00000000000E+00  0.00000000000E+00  0.45593999997E+02  0.45594000000E+02  0.51100000000E-03 0.  1.
         11   -1    0    0    0    0 -0.00000000000E+00 -0.00000000000E+00 -0.45593999997E+02  0.45594000000E+02  0.51100000000E-03 0. -1.
    9900012    2    1    2    0    0  0.19035026160E+02  0.73573131259E+01  0.38303536824E+02  0.47787271774E+02  0.20000003326E+02 0.  0.
         12    1    1    2    0    0 -0.19035026160E+02 -0.73573131259E+01 -0.38303536824E+02  0.43400728226E+02  0.00000000000E+00 0. -1.
         11    1    3    3    0    0  0.22870985529E+01  0.20594885884E+01  0.46698693644E+01  0.55928519717E+01  0.51100000000E-03 0. -1.
        -11    1    3    3    0    0  0.10843173144E+02  0.87265616904E+01  0.32390132970E+02  0.35254049368E+02  0.51100000000E-03 0.  1.
         12    1    3    3    0    0  0.59047544634E+01 -0.34287371529E+01  0.12435344894E+01  0.69403704341E+01  0.00000000000E+00 0. -1.
</event>
<event>
 7    1  0.2414091E-009  0.4778727E+02  0.7816164E-02  0.1312668E+00
        -11   -1    0    0    0    0  0.00000000000E+00  0.00000000000E+00  0.45593999997E+02  0.45594000000E+02  0.51100000000E-03 0.  1.
         11   -1    0    0    0    0 -0.00000000000E+00 -0.00000000000E+00 -0.45593999997E+02  0.45594000000E+02  0.51100000000E-03 0. -1.
    9900012    2    1    2    0    0  0.49966528851E+01  0.21336477660E+02  0.37462130115E+02  0.47787274064E+02  0.20000013769E+02 0.  0.
         12    1    1    2    0    0 -0.49966528851E+01 -0.21336477660E+02 -0.37462130115E+02  0.43400725936E+02  0.00000000000E+00 0. -1.
         11    1    3    3    0    0 -0.18432654008E+01  0.61415174444E+01  0.11945943310E+01  0.65224933679E+01  0.51100000000E-03 0. -1.
        -11    1    3    3    0    0  0.46981632561E+01  0.33005373634E+01  0.45602978713E+01  0.73322985349E+01  0.51100000000E-03 0.  1.
        -12    1    3    3    0    0  0.21417550299E+01  0.11894422852E+02  0.31707237913E+02  0.33932482162E+02  0.00000000000E+00 0.  1.
</event>
<event>
 7    1  0.2414091E-009  0.4778729E+02  0.7816164E-02  0.1312668E+00
        -11   -1    0    0    0    0  0.00000000000E+00  0.00000000000E+00  0.45593999997E+02  0.45594000000E+02  0.51100000000E-03 0.  1.
         11   -1    0    0    0    0 -0.00000000000E+00 -0.00000000000E+00 -0.45593999997E+02  0.45594000000E+02  0.51100000000E-03 0. -1.
    9900012    2    1    2    0    0  0.45422518111E+01  0.41366603975E+02  0.12320461325E+02  0.47787288678E+02  0.20000080400E+02 0.  0.
         12    1    1    2    0    0 -0.45422518111E+01 -0.41366603975E+02 -0.12320461325E+02  0.43400711322E+02  0.00000000000E+00 0. -1.
         11    1    3    3    0    0 -0.87842283464E+00  0.21130644773E+01  0.44638486624E+01  0.50162349729E+01  0.51100000000E-03 0. -1.
        -11    1    3    3    0    0 -0.43566575022E+01  0.11481986904E+02 -0.67575046177E-01  0.12280922380E+02  0.51100000000E-03 0.  1.
        -12    1    3    3    0    0  0.97773321480E+01  0.27771552593E+02  0.79241877089E+01  0.30490131325E+02  0.00000000000E+00 0.  1.
</event>
<event>
 7    1  0.2414091E-009  0.4778727E+02  0.7816164E-02  0.1312668E+00
        -11   -1    0    0    0    0  0.00000000000E+00  0.00000000000E+00  0.45593999997E+02  0.45594000000E+02  0.51100000000E-03 0. -1.
         11   -1    0    0    0    0 -0.00000000000E+00 -0.00000000000E+00 -0.45593999997E+02  0.45594000000E+02  0.51100000000E-03 0.  1.
    9900012    2    1    2    0    0  0.42342111391E+02 -0.81406601091E+01 -0.49495749918E+01  0.47787273777E+02  0.20000012459E+02 0.  0.
         12    1    1    2    0    0 -0.42342111391E+02  0.81406601091E+01  0.49495749918E+01  0.43400726223E+02  0.00000000000E+00 0. -1.
         11    1    3    3    0    0  0.20098171849E+01  0.27404843826E+00 -0.39622469730E+01  0.44512772323E+01  0.51100000000E-03 0. -1.
        -11    1    3    3    0    0  0.13279808470E+02 -0.81000481077E+01 -0.41451175223E+01  0.16098015154E+02  0.51100000000E-03 0.  1.
        -12    1    3    3    0    0  0.27052485736E+02 -0.31466043960E+00  0.31577895034E+01  0.27237981391E+02  0.00000000000E+00 0.  1.
</event>
<event>
 7    1  0.2414091E-009  0.4778727E+02  0.7816164E-02  0.1312668E+00
        -11   -1    0    0    0    0  0.00000000000E+00  0.00000000000E+00  0.45593999997E+02  0.45594000000E+02  0.51100000000E-03 0.  1.
         11   -1    0    0    0    0 -0.00000000000E+00 -0.00000000000E+00 -0.45593999997E+02  0.45594000000E+02  0.51100000000E-03 0. -1.
    9900012    2    1    2    0    0  0.49673442516E+01 -0.43103507095E+02 -0.10179400812E+01  0.47787273799E+02  0.20000012558E+02 0.  0.
         12    1    1    2    0    0 -0.49673442516E+01  0.43103507095E+02  0.10179400812E+01  0.43400726201E+02  0.00000000000E+00 0. -1.
         11    1    3    3    0    0  0.30606977257E+01 -0.29733138534E+01 -0.39477586457E+01  0.58131974355E+01  0.51100000000E-03 0. -1.
        -11    1    3    3    0    0  0.65805598130E+01 -0.16324081800E+02  0.76676670970E+00  0.17617245685E+02  0.51100000000E-03 0.  1.
         12    1    3    3    0    0 -0.46739132871E+01 -0.23806111441E+02  0.21630518548E+01  0.24356830678E+02  0.00000000000E+00 0. -1.
</event>
<event>
 7    1  0.2414091E-009  0.4778728E+02  0.7816164E-02  0.1312668E+00
        -11   -1    0    0    0    0  0.00000000000E+00  0.00000000000E+00  0.45593999997E+02  0.45594000000E+02  0.51100000000E-03 0. -1.
         11   -1    0    0    0    0 -0.00000000000E+00 -0.00000000000E+00 -0.45593999997E+02  0.45594000000E+02  0.51100000000E-03 0.  1.
    9900012    2    1    2    0    0 -0.42307901839E+02  0.53359852194E+01 -0.80741007737E+01  0.47787281117E+02  0.20000045925E+02 0.  0.
         12    1    1    2    0    0  0.42307901839E+02 -0.53359852194E+01  0.80741007737E+01  0.43400718883E+02  0.00000000000E+00 0. -1.
         11    1    3    3    0    0 -0.53938181225E+01 -0.59276904483E+01 -0.45476071182E+00  0.80273031309E+01  0.51100000000E-03 0. -1.
        -11    1    3    3    0    0 -0.26553461621E+02  0.54081164161E+01 -0.59298215165E+01  0.27739805888E+02  0.51100000000E-03 0.  1.
         12    1    3    3    0    0 -0.10360622096E+02  0.58555592517E+01 -0.16895185454E+01  0.12020172098E+02  0.00000000000E+00 0. -1.
</event>
<event>
 7    1  0.2414091E-009  0.4778727E+02  0.7816164E-02  0.1312668E+00
        -11   -1    0    0    0    0  0.00000000000E+00  0.00000000000E+00  0.45593999997E+02  0.45594000000E+02  0.51100000000E-03 0. -1.
         11   -1    0    0    0    0 -0.00000000000E+00 -0.00000000000E+00 -0.45593999997E+02  0.45594000000E+02  0.51100000000E-03 0.  1.
    9900012    2    1    2    0    0  0.38802094777E+02 -0.86314151959E+01 -0.17421812110E+02  0.47787269309E+02  0.19999992087E+02 0.  0.
         12    1    1    2    0    0 -0.38802094777E+02  0.86314151959E+01  0.17421812110E+02  0.43400730691E+02  0.00000000000E+00 0. -1.
         11    1    3    3    0    0  0.16647070167E+02 -0.10600592211E+02 -0.36256956880E+01  0.20065970444E+02  0.51100000000E-03 0. -1.
        -11    1    3    3    0    0  0.58755376067E+00  0.67993447055E+00  0.11426952565E+01  0.14537135262E+01  0.51100000000E-03 0.  1.
        -12    1    3    3    0    0  0.21567470848E+02  0.12892425450E+01 -0.14938811678E+02  0.26267585338E+02  0.00000000000E+00 0.  1.
</event>
<event>
 7    1  0.2414091E-009  0.4778727E+02  0.7816164E-02  0.1312668E+00
        -11   -1    0    0    0    0  0.00000000000E+00  0.00000000000E+00  0.45593999997E+02  0.45594000000E+02  0.51100000000E-03 0. -1.
         11   -1    0    0    0    0 -0.00000000000E+00 -0.00000000000E+00 -0.45593999997E+02  0.45594000000E+02  0.51100000000E-03 0.  1.
    9900012    2    1    2    0    0  0.61030182432E+01  0.35337251472E+02 -0.24446986892E+02  0.47787270267E+02  0.19999996455E+02 0.  0.
         12    1    1    2    0    0 -0.61030182432E+01 -0.35337251472E+02  0.24446986892E+02  0.43400729733E+02  0.00000000000E+00 0. -1.
         11    1    3    3    0    0 -0.37106950794E+01  0.53922795501E+01 -0.75585619122E+01  0.99988896964E+01  0.51100000000E-03 0. -1.
        -11    1    3    3    0    0  0.10768530943E+01  0.18576542845E+01 -0.60844372608E+01  0.64521987778E+01  0.51100000000E-03 0.  1.
         12    1    3    3    0    0  0.87368602283E+01  0.28087317637E+02 -0.10803987719E+02  0.31336181793E+02  0.00000000000E+00 0. -1.
</event>
<event>
 7    1  0.2414091E-009  0.4778727E+02  0.7816164E-02  0.1312668E+00
        -11   -1    0    0    0    0  0.00000000000E+00  0.00000000000E+00  0.45593999997E+02  0.45594000000E+02  0.51100000000E-03 0. -1.
         11   -1    0    0    0    0 -0.00000000000E+00 -0.00000000000E+00 -0.45593999997E+02  0.45594000000E+02  0.51100000000E-03 0.  1.
    9900012    2    1    2    0    0  0.43131897003E+02 -0.16177461344E+01  0.45437907048E+01  0.47787266416E+02  0.19999978899E+02 0.  0.
         12    1    1    2    0    0 -0.43131897003E+02  0.16177461344E+01 -0.45437907048E+01  0.43400733584E+02  0.00000000000E+00 0. -1.
         11    1    3    3    0    0  0.26213953966E+02  0.39597860077E+01  0.16552650681E+01  0.26562966522E+02  0.51100000000E-03 0.  1.
        -11    1    3    3    0    0  0.10032520016E+02  0.11279041443E+01  0.51753557031E+01  0.11344951852E+02  0.51100000000E-03 0. -1.
        -12    1    3    3    0    0  0.68854230212E+01 -0.67054362864E+01 -0.22868300664E+01  0.98793480415E+01  0.00000000000E+00 0.  1.
</event>
<event>
 7    1  0.2414091E-009  0.4778727E+02  0.7816164E-02  0.1312668E+00
        -11   -1    0    0    0    0  0.00000000000E+00  0.00000000000E+00  0.45593999997E+02  0.45594000000E+02  0.51100000000E-03 0.  1.
         11   -1    0    0    0    0 -0.00000000000E+00 -0.00000000000E+00 -0.45593999997E+02  0.45594000000E+02  0.51100000000E-03 0. -1.
    9900012    2    1    2    0    0  0.21004899758E+02 -0.35539205775E+02 -0.13393375217E+02  0.47787268892E+02  0.19999990188E+02 0.  0.
         12    1    1    2    0    0 -0.21004899758E+02  0.35539205775E+02  0.13393375217E+02  0.43400731108E+02  0.00000000000E+00 0. -1.
         11    1    3    3    0    0 -0.54786582800E+00 -0.10747530016E+02 -0.47401065735E+01  0.11759173823E+02  0.51100000000E-03 0. -1.
        -11    1    3    3    0    0  0.38678740925E+01 -0.83503273346E+01 -0.74689512352E+01  0.11852158006E+02  0.51100000000E-03 0.  1.
        -12    1    3    3    0    0  0.17684891494E+02 -0.16441348424E+02 -0.11843174083E+01  0.24175937063E+02  0.00000000000E+00 0.  1.
</event>
<event>
 7    1  0.2414091E-009  0.4778727E+02  0.7816164E-02  0.1312668E+00
        -11   -1    0    0    0    0  0.00000000000E+00  0.00000000000E+00  0.45593999997E+02  0.45594000000E+02  0.51100000000E-03 0. -1.
         11   -1    0    0    0    0 -0.00000000000E+00 -0.00000000000E+00 -0.45593999997E+02  0.45594000000E+02  0.51100000000E-03 0.  1.
    9900012    2    1    2    0    0 -0.28847219430E+02  0.32373551183E+02 -0.18477602761E+01  0.47787273012E+02  0.20000008972E+02 0.  0.
         12    1    1    2    0    0  0.28847219430E+02 -0.32373551183E+02  0.18477602761E+01  0.43400726988E+02  0.00000000000E+00 0. -1.
         11    1    3    3    0    0 -0.10704866202E+01 -0.67171842719E+00 -0.53141555951E+00  0.13709668149E+01  0.51100000000E-03 0. -1.
        -11    1    3    3    0    0 -0.18856353956E+02  0.13834911431E+02 -0.71344124642E+01  0.24451312854E+02  0.51100000000E-03 0.  1.
         12    1    3    3    0    0 -0.89203788540E+01  0.19210358179E+02  0.58180677476E+01  0.21964993343E+02  0.00000000000E+00 0. -1.
</event>
<event>
 7    1  0.2414091E-009  0.4778727E+02  0.7816164E-02  0.1312668E+00
        -11   -1    0    0    0    0  0.00000000000E+00  0.00000000000E+00  0.45593999997E+02  0.45594000000E+02  0.51100000000E-03 0.  1.
         11   -1    0    0    0    0 -0.00000000000E+00 -0.00000000000E+00 -0.45593999997E+02  0.45594000000E+02  0.51100000000E-03 0. -1.
    9900012    2    1    2    0    0  0.85466012338E+01  0.24910938474E+02  0.34496726878E+02  0.47787269435E+02  0.19999992660E+02 0.  0.
         12    1    1    2    0    0 -0.85466012338E+01 -0.24910938474E+02 -0.34496726878E+02  0.43400730565E+02  0.00000000000E+00 0. -1.
         11    1    3    3    0    0  0.11545704915E+02  0.12883729001E+02  0.11544393648E+02  0.20798240308E+02  0.51100000000E-03 0. -1.
        -11    1    3    3    0    0  0.21538880543E+01  0.22615062134E+01  0.43207467702E+01  0.53312753650E+01  0.51100000000E-03 0.  1.
        -12    1    3    3    0    0 -0.51529917356E+01  0.97657032596E+01  0.18631586460E+02  0.21657753762E+02  0.00000000000E+00 0.  1.
</event>
<event>
 7    1  0.2414091E-009  0.4778727E+02  0.7816164E-02  0.1312668E+00
        -11   -1    0    0    0    0  0.00000000000E+00  0.00000000000E+00  0.45593999997E+02  0.45594000000E+02  0.51100000000E-03 0. -1.
         11   -1    0    0    0    0 -0.00000000000E+00 -0.00000000000E+00 -0.45593999997E+02  0.45594000000E+02  0.51100000000E-03 0.  1.
    9900012    2    1    2    0    0 -0.10616870461E+02  0.42002116367E+02 -0.25937394586E+01  0.47787271872E+02  0.20000003773E+02 0.  0.
         12    1    1    2    0    0  0.10616870461E+02 -0.42002116367E+02  0.25937394586E+01  0.43400728128E+02  0.00000000000E+00 0. -1.
         11    1    3    3    0    0 -0.28874052539E+01  0.17426400317E+02 -0.49756672156E+01  0.18351397811E+02  0.51100000000E-03 0. -1.
        -11    1    3    3    0    0  0.83328167471E-01  0.49971638238E+00 -0.34284031881E+01  0.34656325148E+01  0.51100000000E-03 0.  1.
         12    1    3    3    0    0 -0.78127933743E+01  0.24075999667E+02  0.58103309451E+01  0.25970241546E+02  0.00000000000E+00 0. -1.
</event>
<event>
 7    1  0.2414091E-009  0.4778727E+02  0.7816164E-02  0.1312668E+00
        -11   -1    0    0    0    0  0.00000000000E+00  0.00000000000E+00  0.45593999997E+02  0.45594000000E+02  0.51100000000E-03 0.  1.
         11   -1    0    0    0    0 -0.00000000000E+00 -0.00000000000E+00 -0.45593999997E+02  0.45594000000E+02  0.51100000000E-03 0. -1.
    9900012    2    1    2    0    0 -0.20776294766E+01 -0.96432850578E+01  0.42264808414E+02  0.47787268195E+02  0.19999987008E+02 0.  0.
         12    1    1    2    0    0  0.20776294766E+01  0.96432850578E+01 -0.42264808414E+02  0.43400731805E+02  0.00000000000E+00 0. -1.
         11    1    3    3    0    0 -0.73856283771E+01 -0.44125378625E+01  0.17837752994E+02  0.19804126566E+02  0.51100000000E-03 0. -1.
        -11    1    3    3    0    0 -0.61591246287E-01 -0.71754104863E+01  0.18042829656E+02  0.19417363657E+02  0.51100000000E-03 0.  1.
        -12    1    3    3    0    0  0.53695901467E+01  0.19446632910E+01  0.63842257636E+01  0.85657779716E+01  0.00000000000E+00 0.  1.
</event>
<event>
 7    1  0.2414091E-009  0.4778726E+02  0.7816164E-02  0.1312668E+00
        -11   -1    0    0    0    0  0.00000000000E+00  0.00000000000E+00  0.45593999997E+02  0.45594000000E+02  0.51100000000E-03 0. -1.
         11   -1    0    0    0    0 -0.00000000000E+00 -0.00000000000E+00 -0.45593999997E+02  0.45594000000E+02  0.51100000000E-03 0.  1.
    9900012    2    1    2    0    0 -0.20443866025E+01 -0.38566320837E+02 -0.19801108619E+02  0.47787256665E+02  0.19999934437E+02 0.  0.
         12    1    1    2    0    0  0.20443866025E+01  0.38566320837E+02  0.19801108619E+02  0.43400743335E+02  0.00000000000E+00 0. -1.
         11    1    3    3    0    0  0.54234287413E+01 -0.57921732760E+01 -0.26610681435E+01  0.83692373904E+01  0.51100000000E-03 0. -1.
        -11    1    3    3    0    0  0.18631980831E+01 -0.17362638423E+02 -0.78093192383E+01  0.19128988142E+02  0.51100000000E-03 0.  1.
         12    1    3    3    0    0 -0.93310134268E+01 -0.15411509138E+02 -0.93307212376E+01  0.20289031133E+02  0.00000000000E+00 0. -1.
</event>
<event>
 7    1  0.2414091E-009  0.4778727E+02  0.7816164E-02  0.1312668E+00
        -11   -1    0    0    0    0  0.00000000000E+00  0.00000000000E+00  0.45593999997E+02  0.45594000000E+02  0.51100000000E-03 0. -1.
         11   -1    0    0    0    0 -0.00000000000E+00 -0.00000000000E+00 -0.45593999997E+02  0.45594000000E+02  0.51100000000E-03 0.  1.
    9900012    2    1    2    0    0 -0.43086545468E+01  0.31892850877E+02 -0.29118806118E+02  0.47787270619E+02  0.19999998060E+02 0.  0.
         12    1    1    2    0    0  0.43086545468E+01 -0.31892850877E+02  0.29118806118E+02  0.43400729381E+02  0.00000000000E+00 0. -1.
         11    1    3    3    0    0  0.10988236813E+01  0.44437421927E+01 -0.87038778641E+01  0.98342131507E+01  0.51100000000E-03 0. -1.
        -11    1    3    3    0    0 -0.60578615151E+00  0.13957933742E+02 -0.18970865505E+02  0.23560234070E+02  0.51100000000E-03 0.  1.
         12    1    3    3    0    0 -0.48016920766E+01  0.13491174943E+02 -0.14440627493E+01  0.14392823398E+02  0.00000000000E+00 0. -1.
</event>
<event>
 7    1  0.2414091E-009  0.4778727E+02  0.7816164E-02  0.1312668E+00
        -11   -1    0    0    0    0  0.00000000000E+00  0.00000000000E+00  0.45593999997E+02  0.45594000000E+02  0.51100000000E-03 0.  1.
         11   -1    0    0    0    0 -0.00000000000E+00 -0.00000000000E+00 -0.45593999997E+02  0.45594000000E+02  0.51100000000E-03 0. -1.
    9900012    2    1    2    0    0 -0.30594928224E+02  0.18812702940E+02  0.24365055341E+02  0.47787270205E+02  0.19999996174E+02 0.  0.
         12    1    1    2    0    0  0.30594928224E+02 -0.18812702940E+02 -0.24365055341E+02  0.43400729795E+02  0.00000000000E+00 0. -1.
         11    1    3    3    0    0  0.19023869069E+00  0.23547286221E+01 -0.75635544697E+00  0.24805264495E+01  0.51100000000E-03 0. -1.
        -11    1    3    3    0    0 -0.40287038235E+00  0.51656772995E+01  0.47112547543E+01  0.70030313528E+01  0.51100000000E-03 0.  1.
        -12    1    3    3    0    0 -0.30382296532E+02  0.11292297018E+02  0.20410156034E+02  0.38303712403E+02  0.00000000000E+00 0.  1.
</event>
<event>
 7    1  0.2414091E-009  0.4778727E+02  0.7816164E-02  0.1312668E+00
        -11   -1    0    0    0    0  0.00000000000E+00  0.00000000000E+00  0.45593999997E+02  0.45594000000E+02  0.51100000000E-03 0.  1.
         11   -1    0    0    0    0 -0.00000000000E+00 -0.00000000000E+00 -0.45593999997E+02  0.45594000000E+02  0.51100000000E-03 0. -1.
    9900012    2    1    2    0    0 -0.23265477387E+02 -0.30643244582E+02  0.20083135119E+02  0.47787271979E+02  0.20000004260E+02 0.  0.
         12    1    1    2    0    0  0.23265477387E+02  0.30643244582E+02 -0.20083135119E+02  0.43400728021E+02  0.00000000000E+00 0. -1.
         11    1    3    3    0    0 -0.41863926954E+01 -0.33692433349E+01  0.62221539784E+01  0.82214892107E+01  0.51100000000E-03 0. -1.
        -11    1    3    3    0    0 -0.17572516205E+02 -0.28768260596E+02  0.10004110530E+02  0.35163736594E+02  0.51100000000E-03 0.  1.
        -12    1    3    3    0    0 -0.15065684863E+01  0.14942593489E+01  0.38568706108E+01  0.44020461736E+01  0.00000000000E+00 0.  1.
</event>
<event>
 7    1  0.2414091E-009  0.4778727E+02  0.7816164E-02  0.1312668E+00
        -11   -1    0    0    0    0  0.00000000000E+00  0.00000000000E+00  0.45593999997E+02  0.45594000000E+02  0.51100000000E-03 0.  1.
         11   -1    0    0    0    0 -0.00000000000E+00 -0.00000000000E+00 -0.45593999997E+02  0.45594000000E+02  0.51100000000E-03 0. -1.
    9900012    2    1    2    0    0  0.75556518862E+01  0.14250922703E+01  0.42714219934E+02  0.47787270190E+02  0.19999996106E+02 0.  0.
         12    1    1    2    0    0 -0.75556518862E+01 -0.14250922703E+01 -0.42714219934E+02  0.43400729810E+02  0.00000000000E+00 0. -1.
         11    1    3    3    0    0  0.43382221987E+01 -0.49732585869E+01  0.40351114573E+01  0.77353472806E+01  0.51100000000E-03 0. -1.
        -11    1    3    3    0    0 -0.14032717338E+00 -0.15186196543E+01  0.31907350191E+01  0.35364795480E+01  0.51100000000E-03 0.  1.
        -12    1    3    3    0    0  0.33577568608E+01  0.79169705115E+01  0.35488373458E+02  0.36515443362E+02  0.00000000000E+00 0.  1.
</event>
<event>
 7    1  0.2414091E-009  0.4778727E+02  0.7816164E-02  0.1312668E+00
        -11   -1    0    0    0    0  0.00000000000E+00  0.00000000000E+00  0.45593999997E+02  0.45594000000E+02  0.51100000000E-03 0.  1.
         11   -1    0    0    0    0 -0.00000000000E+00 -0.00000000000E+00 -0.45593999997E+02  0.45594000000E+02  0.51100000000E-03 0. -1.
    9900012    2    1    2    0    0  0.39428217779E+02 -0.17632012349E+02 -0.42603878102E+01  0.47787272806E+02  0.20000008031E+02 0.  0.
         12    1    1    2    0    0 -0.39428217779E+02  0.17632012349E+02  0.42603878102E+01  0.43400727194E+02  0.00000000000E+00 0. -1.
         11    1    3    3    0    0 -0.44805861614E-01  0.14603941260E+01 -0.31242264244E+01  0.34489925457E+01  0.51100000000E-03 0. -1.
        -11    1    3    3    0    0  0.94183699286E+01 -0.77546554444E+01 -0.14216604639E+00  0.12200843603E+02  0.51100000000E-03 0.  1.
        -12    1    3    3    0    0  0.30054653712E+02 -0.11337751031E+02 -0.99399533945E+00  0.32137436657E+02  0.00000000000E+00 0.  1.
</event>
<event>
 7    1  0.2414091E-009  0.4778727E+02  0.7816164E-02  0.1312668E+00
        -11   -1    0    0    0    0  0.00000000000E+00  0.00000000000E+00  0.45593999997E+02  0.45594000000E+02  0.51100000000E-03 0.  1.
         11   -1    0    0    0    0 -0.00000000000E+00 -0.00000000000E+00 -0.45593999997E+02  0.45594000000E+02  0.51100000000E-03 0. -1.
    9900012    2    1    2    0    0  0.40830497335E+01  0.42852655329E+02  0.55319108731E+01  0.47787269571E+02  0.19999993283E+02 0.  0.
         12    1    1    2    0    0 -0.40830497335E+01 -0.42852655329E+02 -0.55319108731E+01  0.43400730429E+02  0.00000000000E+00 0. -1.
         11    1    3    3    0    0  0.24268782105E+01  0.10741404432E+02  0.98996726514E+01  0.14807802871E+02  0.51100000000E-03 0. -1.
        -11    1    3    3    0    0  0.28527194391E+01  0.11112115054E+02 -0.32163260687E+01  0.11914774979E+02  0.51100000000E-03 0.  1.
        -12    1    3    3    0    0 -0.11965479161E+01  0.20999135843E+02 -0.11514357096E+01  0.21064691720E+02  0.00000000000E+00 0.  1.
</event>
<event>
 7    1  0.2414091E-009  0.4778727E+02  0.7816164E-02  0.1312668E+00
        -11   -1    0    0    0    0  0.00000000000E+00  0.00000000000E+00  0.45593999997E+02  0.45594000000E+02  0.51100000000E-03 0.  1.
         11   -1    0    0    0    0 -0.00000000000E+00 -0.00000000000E+00 -0.45593999997E+02  0.45594000000E+02  0.51100000000E-03 0. -1.
    9900012    2    1    2    0    0 -0.39922722595E+02  0.44226045862E+01  0.16438969842E+02  0.47787274889E+02  0.20000017528E+02 0.  0.
         12    1    1    2    0    0  0.39922722595E+02 -0.44226045862E+01 -0.16438969842E+02  0.43400725111E+02  0.00000000000E+00 0. -1.
         11    1    3    3    0    0  0.78461095720E+00  0.60445448412E+00  0.67358035065E+00  0.11977855933E+01  0.51100000000E-03 0. -1.
        -11    1    3    3    0    0 -0.27103149445E+02  0.97828347818E+01  0.84287929287E+01  0.30022143773E+02  0.51100000000E-03 0.  1.
        -12    1    3    3    0    0 -0.13604184107E+02 -0.59646846798E+01  0.73365965628E+01  0.16567345523E+02  0.00000000000E+00 0.  1.
</event>
<event>
 7    1  0.2414091E-009  0.4778727E+02  0.7816164E-02  0.1312668E+00
        -11   -1    0    0    0    0  0.00000000000E+00  0.00000000000E+00  0.45593999997E+02  0.45594000000E+02  0.51100000000E-03 0. -1.
         11   -1    0    0    0    0 -0.00000000000E+00 -0.00000000000E+00 -0.45593999997E+02  0.45594000000E+02  0.51100000000E-03 0.  1.
    9900012    2    1    2    0    0 -0.19415076855E+02  0.38237793282E+02 -0.66745247153E+01  0.47787270461E+02  0.19999997340E+02 0.  0.
         12    1    1    2    0    0  0.19415076855E+02 -0.38237793282E+02  0.66745247153E+01  0.43400729539E+02  0.00000000000E+00 0. -1.
         11    1    3    3    0    0 -0.78687603345E+01  0.30782254984E+02 -0.86459129717E+01  0.32927441785E+02  0.51100000000E-03 0. -1.
        -11    1    3    3    0    0 -0.56396870056E+01  0.67062646588E+01  0.14690033273E+01  0.88847074365E+01  0.51100000000E-03 0.  1.
         12    1    3    3    0    0 -0.59066295150E+01  0.74927363866E+00  0.50238492912E+00  0.59751212397E+01  0.00000000000E+00 0. -1.
</event>
<event>
 7    1  0.2414091E-009  0.4778727E+02  0.7816164E-02  0.1312668E+00
        -11   -1    0    0    0    0  0.00000000000E+00  0.00000000000E+00  0.45593999997E+02  0.45594000000E+02  0.51100000000E-03 0.  1.
         11   -1    0    0    0    0 -0.00000000000E+00 -0.00000000000E+00 -0.45593999997E+02  0.45594000000E+02  0.51100000000E-03 0. -1.
    9900012    2    1    2    0    0  0.32761312231E+02  0.88024902221E+01  0.27070940397E+02  0.47787271583E+02  0.20000002453E+02 0.  0.
         12    1    1    2    0    0 -0.32761312231E+02 -0.88024902221E+01 -0.27070940397E+02  0.43400728417E+02  0.00000000000E+00 0. -1.
         11    1    3    3    0    0  0.99028876671E+01 -0.41198787664E+01  0.35790918471E+01  0.11307098828E+02  0.51100000000E-03 0. -1.
        -11    1    3    3    0    0  0.20718787771E+01  0.10292292512E+01 -0.72229496875E+00  0.24235727349E+01  0.51100000000E-03 0.  1.
        -12    1    3    3    0    0  0.20786545787E+02  0.11893139737E+02  0.24214143518E+02  0.34056600020E+02  0.00000000000E+00 0.  1.
</event>
<event>
 7    1  0.2414091E-009  0.4778727E+02  0.7816164E-02  0.1312668E+00
        -11   -1    0    0    0    0  0.00000000000E+00  0.00000000000E+00  0.45593999997E+02  0.45594000000E+02  0.51100000000E-03 0. -1.
         11   -1    0    0    0    0 -0.00000000000E+00 -0.00000000000E+00 -0.45593999997E+02  0.45594000000E+02  0.51100000000E-03 0.  1.
    9900012    2    1    2    0    0 -0.31582658099E+02  0.27312627164E+02  0.11839726157E+02  0.47787274076E+02  0.20000013823E+02 0.  0.
         12    1    1    2    0    0  0.31582658099E+02 -0.27312627164E+02 -0.11839726157E+02  0.43400725924E+02  0.00000000000E+00 0. -1.
         11    1    3    3    0    0 -0.36030815039E+01  0.34611685702E+01 -0.29287773071E+01  0.57913401705E+01  0.51100000000E-03 0. -1.
        -11    1    3    3    0    0 -0.99728577474E+01  0.12759351316E+02 -0.11267505363E-01  0.16194414620E+02  0.51100000000E-03 0.  1.
         12    1    3    3    0    0 -0.18006718848E+02  0.11092107278E+02  0.14779770970E+02  0.25801519286E+02  0.00000000000E+00 0. -1.
</event>
<event>
 7    1  0.2414091E-009  0.4778727E+02  0.7816164E-02  0.1312668E+00
        -11   -1    0    0    0    0  0.00000000000E+00  0.00000000000E+00  0.45593999997E+02  0.45594000000E+02  0.51100000000E-03 0.  1.
         11   -1    0    0    0    0 -0.00000000000E+00 -0.00000000000E+00 -0.45593999997E+02  0.45594000000E+02  0.51100000000E-03 0. -1.
    9900012    2    1    2    0    0  0.35944018320E+02 -0.12796051514E+02  0.20686030161E+02  0.47787271537E+02  0.20000002246E+02 0.  0.
         12    1    1    2    0    0 -0.35944018320E+02  0.12796051514E+02 -0.20686030161E+02  0.43400728463E+02  0.00000000000E+00 0. -1.
         11    1    3    3    0    0  0.80404279230E+01 -0.89134524824E+01 -0.94943605564E+00  0.12041575704E+02  0.51100000000E-03 0. -1.
        -11    1    3    3    0    0  0.10031245939E+02  0.52911417063E+00  0.75311003435E+01  0.12554813003E+02  0.51100000000E-03 0.  1.
         12    1    3    3    0    0  0.17872344458E+02 -0.44117132021E+01  0.14104365873E+02  0.23190882831E+02  0.00000000000E+00 0. -1.
</event>
<event>
 7    1  0.2414091E-009  0.4778727E+02  0.7816164E-02  0.1312668E+00
        -11   -1    0    0    0    0  0.00000000000E+00  0.00000000000E+00  0.45593999997E+02  0.45594000000E+02  0.51100000000E-03 0.  1.
         11   -1    0    0    0    0 -0.00000000000E+00 -0.00000000000E+00 -0.45593999997E+02  0.45594000000E+02  0.51100000000E-03 0. -1.
    9900012    2    1    2    0    0  0.73915760481E+01  0.40558824736E+02  0.13563528590E+02  0.47787274565E+02  0.20000016053E+02 0.  0.
         12    1    1    2    0    0 -0.73915760481E+01 -0.40558824736E+02 -0.13563528590E+02  0.43400725435E+02  0.00000000000E+00 0. -1.
         11    1    3    3    0    0 -0.18841221175E+01  0.37501161842E+01  0.35509146259E+01  0.54974796489E+01  0.51100000000E-03 0.  1.
        -11    1    3    3    0    0 -0.37135908282E+01  0.62662860711E+01 -0.92887066441E+00  0.73430170187E+01  0.51100000000E-03 0. -1.
         12    1    3    3    0    0  0.12989288994E+02  0.30542422481E+02  0.10941484628E+02  0.34946777898E+02  0.00000000000E+00 0. -1.
</event>
<event>
 7    1  0.2414091E-009  0.4778726E+02  0.7816164E-02  0.1312668E+00
        -11   -1    0    0    0    0  0.00000000000E+00  0.00000000000E+00  0.45593999997E+02  0.45594000000E+02  0.51100000000E-03 0. -1.
         11   -1    0    0    0    0 -0.00000000000E+00 -0.00000000000E+00 -0.45593999997E+02  0.45594000000E+02  0.51100000000E-03 0.  1.
    9900012    2    1    2    0    0  0.86516718593E+01 -0.29768781297E+02 -0.30374210247E+02  0.47787257910E+02  0.19999940115E+02 0.  0.
         12    1    1    2    0    0 -0.86516718593E+01  0.29768781297E+02  0.30374210247E+02  0.43400742090E+02  0.00000000000E+00 0. -1.
         11    1    3    3    0    0 -0.57375252475E+00 -0.14804157940E+02 -0.37688234481E+01  0.15287129054E+02  0.51100000000E-03 0. -1.
        -11    1    3    3    0    0  0.38489984589E+01 -0.50013524731E+01 -0.47931547980E+01  0.79248122296E+01  0.51100000000E-03 0.  1.
         12    1    3    3    0    0  0.53764259251E+01 -0.99632708836E+01 -0.21812232000E+02  0.24575316626E+02  0.00000000000E+00 0. -1.
</event>
<event>
 7    1  0.2414091E-009  0.4778727E+02  0.7816164E-02  0.1312668E+00
        -11   -1    0    0    0    0  0.00000000000E+00  0.00000000000E+00  0.45593999997E+02  0.45594000000E+02  0.51100000000E-03 0. -1.
         11   -1    0    0    0    0 -0.00000000000E+00 -0.00000000000E+00 -0.45593999997E+02  0.45594000000E+02  0.51100000000E-03 0.  1.
    9900012    2    1    2    0    0  0.53854721236E+01  0.37861926390E+02 -0.20520592781E+02  0.47787268347E+02  0.19999987701E+02 0.  0.
         12    1    1    2    0    0 -0.53854721236E+01 -0.37861926390E+02  0.20520592781E+02  0.43400731653E+02  0.00000000000E+00 0. -1.
         11    1    3    3    0    0  0.88903229935E+00  0.25273344451E+02 -0.19981732460E+02  0.32230450672E+02  0.51100000000E-03 0. -1.
        -11    1    3    3    0    0 -0.45642496107E+00  0.93483336654E+01 -0.17339864130E+01  0.95187381100E+01  0.51100000000E-03 0.  1.
         12    1    3    3    0    0  0.49528647853E+01  0.32402482732E+01  0.11951260917E+01  0.60380795646E+01  0.00000000000E+00 0. -1.
</event>
<event>
 7    1  0.2414091E-009  0.4778727E+02  0.7816164E-02  0.1312668E+00
        -11   -1    0    0    0    0  0.00000000000E+00  0.00000000000E+00  0.45593999997E+02  0.45594000000E+02  0.51100000000E-03 0. -1.
         11   -1    0    0    0    0 -0.00000000000E+00 -0.00000000000E+00 -0.45593999997E+02  0.45594000000E+02  0.51100000000E-03 0.  1.
    9900012    2    1    2    0    0  0.30117549962E+01 -0.42824530499E+02 -0.63727570527E+01  0.47787272897E+02  0.20000008446E+02 0.  0.
         12    1    1    2    0    0 -0.30117549962E+01  0.42824530499E+02  0.63727570527E+01  0.43400727103E+02  0.00000000000E+00 0. -1.
         11    1    3    3    0    0 -0.91776814076E+00 -0.66120422421E+01  0.30786621684E+00  0.66825281773E+01  0.51100000000E-03 0. -1.
        -11    1    3    3    0    0  0.45393562716E+01 -0.26566391639E+02 -0.12620623400E+02  0.29760024452E+02  0.51100000000E-03 0.  1.
        -12    1    3    3    0    0 -0.60983313467E+00 -0.96460966176E+01  0.59400001305E+01  0.11344720268E+02  0.00000000000E+00 0.  1.
</event>
<event>
 7    1  0.2414091E-009  0.4778727E+02  0.7816164E-02  0.1312668E+00
        -11   -1    0    0    0    0  0.00000000000E+00  0.00000000000E+00  0.45593999997E+02  0.45594000000E+02  0.51100000000E-03 0.  1.
         11   -1    0    0    0    0 -0.00000000000E+00 -0.00000000000E+00 -0.45593999997E+02  0.45594000000E+02  0.51100000000E-03 0. -1.
    9900012    2    1    2    0    0 -0.44329087012E+00 -0.37471900803E+02  0.21892541353E+02  0.47787271625E+02  0.20000002647E+02 0.  0.
         12    1    1    2    0    0  0.44329087012E+00  0.37471900803E+02 -0.21892541353E+02  0.43400728375E+02  0.00000000000E+00 0. -1.
         11    1    3    3    0    0  0.62494591857E+00 -0.15900479639E+02  0.82053166886E+01  0.17903715603E+02  0.51100000000E-03 0. -1.
        -11    1    3    3    0    0  0.56996264340E+01 -0.17193986611E+02  0.11758498768E+02  0.21595860960E+02  0.51100000000E-03 0.  1.
         12    1    3    3    0    0 -0.67678632227E+01 -0.43774345531E+01  0.19287258960E+01  0.82876950625E+01  0.00000000000E+00 0. -1.
</event>
<event>
 7    1  0.2414091E-009  0.4778728E+02  0.7816164E-02  0.1312668E+00
        -11   -1    0    0    0    0  0.00000000000E+00  0.00000000000E+00  0.45593999997E+02  0.45594000000E+02  0.51100000000E-03 0.  1.
         11   -1    0    0    0    0 -0.00000000000E+00 -0.00000000000E+00 -0.45593999997E+02  0.45594000000E+02  0.51100000000E-03 0. -1.
    9900012    2    1    2    0    0 -0.40661731081E+02 -0.13189071382E+02 -0.75029748650E+01  0.47787278690E+02  0.20000034858E+02 0.  0.
         12    1    1    2    0    0  0.40661731081E+02  0.13189071382E+02  0.75029748650E+01  0.43400721310E+02  0.00000000000E+00 0. -1.
         11    1    3    3    0    0 -0.60749096253E+01 -0.15933173695E+01  0.17724057689E+01  0.65256884438E+01  0.51100000000E-03 0. -1.
        -11    1    3    3    0    0 -0.26903653445E+02 -0.12157563217E+02 -0.13513724928E+02  0.32468964778E+02  0.51100000000E-03 0.  1.
        -12    1    3    3    0    0 -0.76831680104E+01  0.56180920398E+00  0.42383442942E+01  0.87926254676E+01  0.00000000000E+00 0.  1.
</event>
<event>
 7    1  0.2414091E-009  0.4778728E+02  0.7816164E-02  0.1312668E+00
        -11   -1    0    0    0    0  0.00000000000E+00  0.00000000000E+00  0.45593999997E+02  0.45594000000E+02  0.51100000000E-03 0.  1.
         11   -1    0    0    0    0 -0.00000000000E+00 -0.00000000000E+00 -0.45593999997E+02  0.45594000000E+02  0.51100000000E-03 0. -1.
    9900012    2    1    2    0    0  0.92070848368E+01 -0.41029251430E+02 -0.10744902807E+02  0.47787276268E+02  0.20000023816E+02 0.  0.
         12    1    1    2    0    0 -0.92070848368E+01  0.41029251430E+02  0.10744902807E+02  0.43400723732E+02  0.00000000000E+00 0. -1.
         11    1    3    3    0    0 -0.30629062164E+01 -0.38657716728E+01 -0.89315107198E+00  0.50123152550E+01  0.51100000000E-03 0. -1.
        -11    1    3    3    0    0 -0.25190155664E+01 -0.49719540829E+01  0.11273935255E+01  0.56865440514E+01  0.51100000000E-03 0.  1.
         12    1    3    3    0    0  0.14789006620E+02 -0.32191525675E+02 -0.10979145261E+02  0.37088416962E+02  0.00000000000E+00 0. -1.
</event>
<event>
 7    1  0.2414091E-009  0.4778727E+02  0.7816164E-02  0.1312668E+00
        -11   -1    0    0    0    0  0.00000000000E+00  0.00000000000E+00  0.45593999997E+02  0.45594000000E+02  0.51100000000E-03 0.  1.
         11   -1    0    0    0    0 -0.00000000000E+00 -0.00000000000E+00 -0.45593999997E+02  0.45594000000E+02  0.51100000000E-03 0. -1.
    9900012    2    1    2    0    0 -0.13055928215E+02  0.32007718329E+01  0.41266463078E+02  0.47787272162E+02  0.20000005095E+02 0.  0.
         12    1    1    2    0    0  0.13055928215E+02 -0.32007718329E+01 -0.41266463078E+02  0.43400727838E+02  0.00000000000E+00 0. -1.
         11    1    3    3    0    0  0.34906736659E+01  0.58275666287E+00  0.43326244390E+01  0.55942866177E+01  0.51100000000E-03 0. -1.
        -11    1    3    3    0    0 -0.75216820309E+01 -0.21836571975E+01  0.67997712730E+01  0.10372123647E+02  0.51100000000E-03 0.  1.
         12    1    3    3    0    0 -0.90249198497E+01  0.48016723675E+01  0.30134067366E+02  0.31820861897E+02  0.00000000000E+00 0. -1.
</event>
<event>
 7    1  0.2414091E-009  0.4778727E+02  0.7816164E-02  0.1312668E+00
        -11   -1    0    0    0    0  0.00000000000E+00  0.00000000000E+00  0.45593999997E+02  0.45594000000E+02  0.51100000000E-03 0. -1.
         11   -1    0    0    0    0 -0.00000000000E+00 -0.00000000000E+00 -0.45593999997E+02  0.45594000000E+02  0.51100000000E-03 0.  1.
    9900012    2    1    2    0    0  0.30894543148E+02 -0.25527059645E+02  0.16658929191E+02  0.47787268529E+02  0.19999988532E+02 0.  0.
         12    1    1    2    0    0 -0.30894543148E+02  0.25527059645E+02 -0.16658929191E+02  0.43400731471E+02  0.00000000000E+00 0. -1.
         11    1    3    3    0    0  0.26356396146E+01 -0.70475453880E+00  0.20864704134E+01  0.34346228592E+01  0.51100000000E-03 0. -1.
        -11    1    3    3    0    0  0.21024226432E+02 -0.12467319405E+02  0.75393476860E+00  0.24454459064E+02  0.51100000000E-03 0.  1.
        -12    1    3    3    0    0  0.72346771012E+01 -0.12354985701E+02  0.13818524009E+02  0.19898186606E+02  0.00000000000E+00 0.  1.
</event>
<event>
 7    1  0.2414091E-009  0.4778728E+02  0.7816164E-02  0.1312668E+00
        -11   -1    0    0    0    0  0.00000000000E+00  0.00000000000E+00  0.45593999997E+02  0.45594000000E+02  0.51100000000E-03 0.  1.
         11   -1    0    0    0    0 -0.00000000000E+00 -0.00000000000E+00 -0.45593999997E+02  0.45594000000E+02  0.51100000000E-03 0. -1.
    9900012    2    1    2    0    0  0.50090676501E+01 -0.10470379916E+01  0.43097977260E+02  0.47787277757E+02  0.20000030606E+02 0.  0.
         12    1    1    2    0    0 -0.50090676501E+01  0.10470379916E+01 -0.43097977260E+02  0.43400722243E+02  0.00000000000E+00 0. -1.
         11    1    3    3    0    0  0.85557802485E-01  0.43649110233E+01  0.83367817483E+01  0.94107225311E+01  0.51100000000E-03 0. -1.
        -11    1    3    3    0    0  0.46664270530E+01  0.42421375806E+01  0.10291882962E+02  0.12070382258E+02  0.51100000000E-03 0.  1.
         12    1    3    3    0    0  0.25708279459E+00 -0.96540865955E+01  0.24469312550E+02  0.26306172968E+02  0.00000000000E+00 0. -1.
</event>
<event>
 7    1  0.2414091E-009  0.4778727E+02  0.7816164E-02  0.1312668E+00
        -11   -1    0    0    0    0  0.00000000000E+00  0.00000000000E+00  0.45593999997E+02  0.45594000000E+02  0.51100000000E-03 0.  1.
         11   -1    0    0    0    0 -0.00000000000E+00 -0.00000000000E+00 -0.45593999997E+02  0.45594000000E+02  0.51100000000E-03 0. -1.
    9900012    2    1    2    0    0  0.23449849104E+02  0.36415747456E+02 -0.27606147535E+01  0.47787273283E+02  0.20000010206E+02 0.  0.
         12    1    1    2    0    0 -0.23449849104E+02 -0.36415747456E+02  0.27606147535E+01  0.43400726717E+02  0.00000000000E+00 0. -1.
         11    1    3    3    0    0  0.20885365719E+01  0.25884597626E+01 -0.59128773280E+01  0.67841158239E+01  0.51100000000E-03 0. -1.
        -11    1    3    3    0    0  0.21031388873E+01  0.92110709630E+00 -0.12639400297E+01  0.26209113152E+01  0.51100000000E-03 0.  1.
        -12    1    3    3    0    0  0.19258173644E+02  0.32906180597E+02  0.44162026042E+01  0.38382246144E+02  0.00000000000E+00 0.  1.
</event>
<event>
 7    1  0.2414091E-009  0.4778727E+02  0.7816164E-02  0.1312668E+00
        -11   -1    0    0    0    0  0.00000000000E+00  0.00000000000E+00  0.45593999997E+02  0.45594000000E+02  0.51100000000E-03 0.  1.
         11   -1    0    0    0    0 -0.00000000000E+00 -0.00000000000E+00 -0.45593999997E+02  0.45594000000E+02  0.51100000000E-03 0. -1.
    9900012    2    1    2    0    0  0.87427933281E+01  0.40059488511E+02  0.14227577587E+02  0.47787273982E+02  0.20000013391E+02 0.  0.
         12    1    1    2    0    0 -0.87427933281E+01 -0.40059488511E+02 -0.14227577587E+02  0.43400726018E+02  0.00000000000E+00 0. -1.
         11    1    3    3    0    0  0.61734232613E+01  0.12149055096E+02 -0.34148037683E+00  0.13631848870E+02  0.51100000000E-03 0. -1.
        -11    1    3    3    0    0  0.19282964147E+01  0.13253997927E+02 -0.12145345689E+00  0.13394085983E+02  0.51100000000E-03 0.  1.
         12    1    3    3    0    0  0.64107365216E+00  0.14656435488E+02  0.14690511421E+02  0.20761339129E+02  0.00000000000E+00 0. -1.
</event>
<event>
 7    1  0.2414091E-009  0.4778727E+02  0.7816164E-02  0.1312668E+00
        -11   -1    0    0    0    0  0.00000000000E+00  0.00000000000E+00  0.45593999997E+02  0.45594000000E+02  0.51100000000E-03 0.  1.
         11   -1    0    0    0    0 -0.00000000000E+00 -0.00000000000E+00 -0.45593999997E+02  0.45594000000E+02  0.51100000000E-03 0. -1.
    9900012    2    1    2    0    0  0.11119178132E+02 -0.18288750709E+01  0.41912317569E+02  0.47787271085E+02  0.20000000184E+02 0.  0.
         12    1    1    2    0    0 -0.11119178132E+02  0.18288750709E+01 -0.41912317569E+02  0.43400728915E+02  0.00000000000E+00 0. -1.
         11    1    3    3    0    0 -0.34248128182E+01  0.18117022296E+01  0.88066005517E+01  0.96212172486E+01  0.51100000000E-03 0. -1.
        -11    1    3    3    0    0  0.36344095682E+00  0.30882937074E+01  0.36976293455E+01  0.48313673417E+01  0.51100000000E-03 0.  1.
        -12    1    3    3    0    0  0.14180549993E+02 -0.67288710079E+01  0.29408087672E+02  0.33334686494E+02  0.00000000000E+00 0.  1.
</event>
<event>
 7    1  0.2414091E-009  0.4778727E+02  0.7816164E-02  0.1312668E+00
        -11   -1    0    0    0    0  0.00000000000E+00  0.00000000000E+00  0.45593999997E+02  0.45594000000E+02  0.51100000000E-03 0. -1.
         11   -1    0    0    0    0 -0.00000000000E+00 -0.00000000000E+00 -0.45593999997E+02  0.45594000000E+02  0.51100000000E-03 0.  1.
    9900012    2    1    2    0    0 -0.30854542937E+02 -0.23735555234E+01 -0.30430031960E+02  0.47787269237E+02  0.19999991759E+02 0.  0.
         12    1    1    2    0    0  0.30854542937E+02  0.23735555234E+01  0.30430031960E+02  0.43400730763E+02  0.00000000000E+00 0. -1.
         11    1    3    3    0    0 -0.14203558597E+01 -0.60521234332E+01 -0.95164700416E+01  0.11367005372E+02  0.51100000000E-03 0. -1.
        -11    1    3    3    0    0 -0.79502295931E+01  0.10923550935E+01 -0.73465338911E+01  0.10879841484E+02  0.51100000000E-03 0.  1.
         12    1    3    3    0    0 -0.21483957484E+02  0.25862128163E+01 -0.13567028027E+02  0.25540422381E+02  0.00000000000E+00 0. -1.
</event>
<event>
 7    1  0.2414091E-009  0.4778729E+02  0.7816164E-02  0.1312668E+00
        -11   -1    0    0    0    0  0.00000000000E+00  0.00000000000E+00  0.45593999997E+02  0.45594000000E+02  0.51100000000E-03 0. -1.
         11   -1    0    0    0    0 -0.00000000000E+00 -0.00000000000E+00 -0.45593999997E+02  0.45594000000E+02  0.51100000000E-03 0.  1.
    9900012    2    1    2    0    0 -0.18854751817E+02 -0.35040892499E+02 -0.17327895381E+02  0.47787288352E+02  0.20000078911E+02 0.  0.
         12    1    1    2    0    0  0.18854751817E+02  0.35040892499E+02  0.17327895381E+02  0.43400711648E+02  0.00000000000E+00 0. -1.
         11    1    3    3    0    0 -0.13131691216E+01 -0.56229907455E+01 -0.49281111167E+01  0.75913580804E+01  0.51100000000E-03 0.  1.
        -11    1    3    3    0    0 -0.17658023591E+02 -0.25268206199E+02 -0.43411901143E+01  0.31130916683E+02  0.51100000000E-03 0. -1.
         12    1    3    3    0    0  0.11644089569E+00 -0.41496955549E+01 -0.80585941504E+01  0.90650135886E+01  0.00000000000E+00 0. -1.
</event>
<event>
 7    1  0.2414091E-009  0.4778726E+02  0.7816164E-02  0.1312668E+00
        -11   -1    0    0    0    0  0.00000000000E+00  0.00000000000E+00  0.45593999997E+02  0.45594000000E+02  0.51100000000E-03 0.  1.
         11   -1    0    0    0    0 -0.00000000000E+00 -0.00000000000E+00 -0.45593999997E+02  0.45594000000E+02  0.51100000000E-03 0. -1.
    9900012    2    1    2    0    0  0.38489047182E+02 -0.11357847277E+02  0.16529265306E+02  0.47787261996E+02  0.19999958744E+02 0.  0.
         12    1    1    2    0    0 -0.38489047182E+02  0.11357847277E+02 -0.16529265306E+02  0.43400738004E+02  0.00000000000E+00 0. -1.
         11    1    3    3    0    0  0.54640769077E+01 -0.18215537310E+01  0.77911033689E+01  0.96889362891E+01  0.51100000000E-03 0. -1.
        -11    1    3    3    0    0  0.94591579833E+01  0.31140551670E+01 -0.63910102967E-02  0.99585666861E+01  0.51100000000E-03 0.  1.
        -12    1    3    3    0    0  0.23565812291E+02 -0.12650348713E+02  0.87445529473E+01  0.28139759021E+02  0.00000000000E+00 0.  1.
</event>
<event>
 7    1  0.2414091E-009  0.4778727E+02  0.7816164E-02  0.1312668E+00
        -11   -1    0    0    0    0  0.00000000000E+00  0.00000000000E+00  0.45593999997E+02  0.45594000000E+02  0.51100000000E-03 0.  1.
         11   -1    0    0    0    0 -0.00000000000E+00 -0.00000000000E+00 -0.45593999997E+02  0.45594000000E+02  0.51100000000E-03 0. -1.
    9900012    2    1    2    0    0 -0.39865292770E+02  0.13546468303E+02  0.10529726518E+02  0.47787268305E+02  0.19999987508E+02 0.  0.
         12    1    1    2    0    0  0.39865292770E+02 -0.13546468303E+02 -0.10529726518E+02  0.43400731695E+02  0.00000000000E+00 0. -1.
         11    1    3    3    0    0 -0.89164162752E+01  0.55154635595E+01  0.70819085965E+01  0.12652124213E+02  0.51100000000E-03 0. -1.
        -11    1    3    3    0    0 -0.31621732583E+02  0.55692654489E+01  0.44056802056E+01  0.32409268852E+02  0.51100000000E-03 0.  1.
         12    1    3    3    0    0  0.67285608757E+00  0.24617392948E+01 -0.95786228373E+00  0.27258752402E+01  0.00000000000E+00 0. -1.
</event>
<event>
 7    1  0.2414091E-009  0.4778727E+02  0.7816164E-02  0.1312668E+00
        -11   -1    0    0    0    0  0.00000000000E+00  0.00000000000E+00  0.45593999997E+02  0.45594000000E+02  0.51100000000E-03 0.  1.
         11   -1    0    0    0    0 -0.00000000000E+00 -0.00000000000E+00 -0.45593999997E+02  0.45594000000E+02  0.51100000000E-03 0. -1.
    9900012    2    1    2    0    0  0.20544577865E+02 -0.48263533094E+01  0.37924264799E+02  0.47787271590E+02  0.20000002488E+02 0.  0.
         12    1    1    2    0    0 -0.20544577865E+02  0.48263533094E+01 -0.37924264799E+02  0.43400728410E+02  0.00000000000E+00 0. -1.
         11    1    3    3    0    0  0.58158625915E+01 -0.83331365918E+01  0.64819280694E+01  0.12053249143E+02  0.51100000000E-03 0. -1.
        -11    1    3    3    0    0  0.75345790917E+01 -0.20770722630E+01  0.15986809800E+02  0.17795004892E+02  0.51100000000E-03 0.  1.
         12    1    3    3    0    0  0.71941361819E+01  0.55838555454E+01  0.15455526930E+02  0.17939017555E+02  0.00000000000E+00 0. -1.
</event>
<event>
 7    1  0.2414091E-009  0.4778727E+02  0.7816164E-02  0.1312668E+00
        -11   -1    0    0    0    0  0.00000000000E+00  0.00000000000E+00  0.45593999997E+02  0.45594000000E+02  0.51100000000E-03 0. -1.
         11   -1    0    0    0    0 -0.00000000000E+00 -0.00000000000E+00 -0.45593999997E+02  0.45594000000E+02  0.51100000000E-03 0.  1.
    9900012    2    1    2    0    0  0.38455789888E+02  0.20118604283E+02  0.13190682809E+00  0.47787269435E+02  0.19999992662E+02 0.  0.
         12    1    1    2    0    0 -0.38455789888E+02 -0.20118604283E+02 -0.13190682809E+00  0.43400730565E+02  0.00000000000E+00 0. -1.
         11    1    3    3    0    0  0.10738693355E+02  0.17093397120E+01 -0.40903452129E+01  0.11617758022E+02  0.51100000000E-03 0. -1.
        -11    1    3    3    0    0  0.18008152850E+02  0.13748377104E+02 -0.34893738602E+01  0.22923506980E+02  0.51100000000E-03 0.  1.
         12    1    3    3    0    0  0.97089436821E+01  0.46608874669E+01  0.77116259012E+01  0.13246004433E+02  0.00000000000E+00 0. -1.
</event>
<event>
 7    1  0.2414091E-009  0.4778725E+02  0.7816164E-02  0.1312668E+00
        -11   -1    0    0    0    0  0.00000000000E+00  0.00000000000E+00  0.45593999997E+02  0.45594000000E+02  0.51100000000E-03 0.  1.
         11   -1    0    0    0    0 -0.00000000000E+00 -0.00000000000E+00 -0.45593999997E+02  0.45594000000E+02  0.51100000000E-03 0. -1.
    9900012    2    1    2    0    0  0.30847190173E+02  0.76543904299E+01  0.29554798596E+02  0.47787251683E+02  0.19999911722E+02 0.  0.
         12    1    1    2    0    0 -0.30847190173E+02 -0.76543904299E+01 -0.29554798596E+02  0.43400748317E+02  0.00000000000E+00 0. -1.
         11    1    3    3    0    0  0.44913501725E+01  0.36167781783E+01  0.91605002590E+01  0.10824420355E+02  0.51100000000E-03 0. -1.
        -11    1    3    3    0    0  0.10288185439E+02  0.40260714252E+01  0.17411318661E+02  0.20620621439E+02  0.51100000000E-03 0.  1.
         12    1    3    3    0    0  0.16067654562E+02  0.11540826374E-01  0.29829796757E+01  0.16342209889E+02  0.00000000000E+00 0. -1.
</event>
<event>
 7    1  0.2414091E-009  0.4778727E+02  0.7816164E-02  0.1312668E+00
        -11   -1    0    0    0    0  0.00000000000E+00  0.00000000000E+00  0.45593999997E+02  0.45594000000E+02  0.51100000000E-03 0.  1.
         11   -1    0    0    0    0 -0.00000000000E+00 -0.00000000000E+00 -0.45593999997E+02  0.45594000000E+02  0.51100000000E-03 0. -1.
    9900012    2    1    2    0    0 -0.38224915049E+02  0.18815525067E+02  0.82737683730E+01  0.47787270085E+02  0.19999995624E+02 0.  0.
         12    1    1    2    0    0  0.38224915049E+02 -0.18815525067E+02 -0.82737683730E+01  0.43400729915E+02  0.00000000000E+00 0. -1.
         11    1    3    3    0    0 -0.93586146458E+00  0.28217937756E+01 -0.19362722043E+01  0.35478876959E+01  0.51100000000E-03 0. -1.
        -11    1    3    3    0    0 -0.11645432934E+02  0.80544981830E+01  0.10103655764E+02  0.17394680488E+02  0.51100000000E-03 0.  1.
         12    1    3    3    0    0 -0.25643620651E+02  0.79392331087E+01  0.10638481304E+00  0.26844701901E+02  0.00000000000E+00 0. -1.
</event>
<event>
 7    1  0.2414091E-009  0.4778727E+02  0.7816164E-02  0.1312668E+00
        -11   -1    0    0    0    0  0.00000000000E+00  0.00000000000E+00  0.45593999997E+02  0.45594000000E+02  0.51100000000E-03 0. -1.
         11   -1    0    0    0    0 -0.00000000000E+00 -0.00000000000E+00 -0.45593999997E+02  0.45594000000E+02  0.51100000000E-03 0.  1.
    9900012    2    1    2    0    0  0.35249530888E+02 -0.21212968807E+02 -0.13824033479E+02  0.47787269879E+02  0.19999994687E+02 0.  0.
         12    1    1    2    0    0 -0.35249530888E+02  0.21212968807E+02  0.13824033479E+02  0.43400730121E+02  0.00000000000E+00 0. -1.
         11    1    3    3    0    0  0.97094190842E+01 -0.14357849174E+02 -0.56285816451E+01  0.18223654503E+02  0.51100000000E-03 0. -1.
        -11    1    3    3    0    0  0.14014326799E+02 -0.75653875269E+01 -0.99935208215E+00  0.15957291402E+02  0.51100000000E-03 0.  1.
         12    1    3    3    0    0  0.11525785005E+02  0.71026789340E+00 -0.71960997513E+01  0.13606323974E+02  0.00000000000E+00 0. -1.
</event>
<event>
 7    1  0.2414091E-009  0.4778726E+02  0.7816164E-02  0.1312668E+00
        -11   -1    0    0    0    0  0.00000000000E+00  0.00000000000E+00  0.45593999997E+02  0.45594000000E+02  0.51100000000E-03 0.  1.
         11   -1    0    0    0    0 -0.00000000000E+00 -0.00000000000E+00 -0.45593999997E+02  0.45594000000E+02  0.51100000000E-03 0. -1.
    9900012    2    1    2    0    0  0.25195808829E+00  0.31269986287E+02  0.30095653364E+02  0.47787264100E+02  0.19999968337E+02 0.  0.
         12    1    1    2    0    0 -0.25195808829E+00 -0.31269986287E+02 -0.30095653364E+02  0.43400735900E+02  0.00000000000E+00 0. -1.
         11    1    3    3    0    0  0.75321803219E+00 -0.18292630880E+00 -0.59504033100E+00  0.97717587727E+00  0.51100000000E-03 0. -1.
        -11    1    3    3    0    0 -0.66050936615E+01  0.22003085492E+02  0.14754037382E+02  0.27302832322E+02  0.51100000000E-03 0.  1.
         12    1    3    3    0    0  0.61038337176E+01  0.94498271035E+01  0.15936656313E+02  0.19507255901E+02  0.00000000000E+00 0. -1.
</event>
<event>
 7    1  0.2414091E-009  0.4778727E+02  0.7816164E-02  0.1312668E+00
        -11   -1    0    0    0    0  0.00000000000E+00  0.00000000000E+00  0.45593999997E+02  0.45594000000E+02  0.51100000000E-03 0.  1.
         11   -1    0    0    0    0 -0.00000000000E+00 -0.00000000000E+00 -0.45593999997E+02  0.45594000000E+02  0.51100000000E-03 0. -1.
    9900012    2    1    2    0    0 -0.20575829127E+02  0.25954243108E+02  0.28047028023E+02  0.47787271199E+02  0.20000000703E+02 0.  0.
         12    1    1    2    0    0  0.20575829127E+02 -0.25954243108E+02 -0.28047028023E+02  0.43400728801E+02  0.00000000000E+00 0. -1.
         11    1    3    3    0    0 -0.74458782095E+01  0.54444256788E+01  0.93964932923E+01  0.13167268499E+02  0.51100000000E-03 0. -1.
        -11    1    3    3    0    0 -0.52283056120E+01  0.16811650316E+01  0.11912570136E+02  0.13117576870E+02  0.51100000000E-03 0.  1.
         12    1    3    3    0    0 -0.79016453053E+01  0.18828652398E+02  0.67379645943E+01  0.21502425829E+02  0.00000000000E+00 0. -1.
</event>
<event>
 7    1  0.2414091E-009  0.4778727E+02  0.7816164E-02  0.1312668E+00
        -11   -1    0    0    0    0  0.00000000000E+00  0.00000000000E+00  0.45593999997E+02  0.45594000000E+02  0.51100000000E-03 0. -1.
         11   -1    0    0    0    0 -0.00000000000E+00 -0.00000000000E+00 -0.45593999997E+02  0.45594000000E+02  0.51100000000E-03 0.  1.
    9900012    2    1    2    0    0 -0.41841287796E+02 -0.10419499282E+02 -0.49360094712E+01  0.47787268218E+02  0.19999987111E+02 0.  0.
         12    1    1    2    0    0  0.41841287796E+02  0.10419499282E+02  0.49360094712E+01  0.43400731782E+02  0.00000000000E+00 0. -1.
         11    1    3    3    0    0  0.22322160640E+00 -0.28350775999E+01 -0.16921353128E+00  0.28488815987E+01  0.51100000000E-03 0. -1.
        -11    1    3    3    0    0 -0.51387128656E+01 -0.22534899498E+00 -0.51580215147E+01  0.72843900425E+01  0.51100000000E-03 0.  1.
         12    1    3    3    0    0 -0.36925796537E+02 -0.73590726873E+01  0.39122557480E+00  0.37653996576E+02  0.00000000000E+00 0. -1.
</event>
<event>
 7    1  0.2414091E-009  0.4778728E+02  0.7816164E-02  0.1312668E+00
        -11   -1    0    0    0    0  0.00000000000E+00  0.00000000000E+00  0.45593999997E+02  0.45594000000E+02  0.51100000000E-03 0.  1.
         11   -1    0    0    0    0 -0.00000000000E+00 -0.00000000000E+00 -0.45593999997E+02  0.45594000000E+02  0.51100000000E-03 0. -1.
    9900012    2    1    2    0    0 -0.43311552096E+02 -0.15478305916E+01 -0.23100971954E+01  0.47787275656E+02  0.20000021028E+02 0.  0.
         12    1    1    2    0    0  0.43311552096E+02  0.15478305916E+01  0.23100971954E+01  0.43400724344E+02  0.00000000000E+00 0. -1.
         11    1    3    3    0    0  0.11370412660E+01 -0.26828334888E+00  0.10741824616E+01  0.15870434833E+01  0.51100000000E-03 0. -1.
        -11    1    3    3    0    0 -0.24324346008E+02  0.51661423203E+01 -0.49082481688E+00  0.24871745907E+02  0.51100000000E-03 0.  1.
         12    1    3    3    0    0 -0.20124247354E+02 -0.64456895630E+01 -0.28934548402E+01  0.21328486267E+02  0.00000000000E+00 0. -1.
</event>
<event>
 7    1  0.2414091E-009  0.4778727E+02  0.7816164E-02  0.1312668E+00
        -11   -1    0    0    0    0  0.00000000000E+00  0.00000000000E+00  0.45593999997E+02  0.45594000000E+02  0.51100000000E-03 0. -1.
         11   -1    0    0    0    0 -0.00000000000E+00 -0.00000000000E+00 -0.45593999997E+02  0.45594000000E+02  0.51100000000E-03 0.  1.
    9900012    2    1    2    0    0 -0.40082878063E+02 -0.16524667270E+02  0.19803204893E+01  0.47787269460E+02  0.19999992774E+02 0.  0.
         12    1    1    2    0    0  0.40082878063E+02  0.16524667270E+02 -0.19803204893E+01  0.43400730540E+02  0.00000000000E+00 0. -1.
         11    1    3    3    0    0 -0.38977887864E+01 -0.14531535165E+01  0.32421088081E+01  0.52740574845E+01  0.51100000000E-03 0. -1.
        -11    1    3    3    0    0 -0.26396984998E+02 -0.10694804671E+02  0.65776785875E+01  0.29230900085E+02  0.51100000000E-03 0.  1.
         12    1    3    3    0    0 -0.97881042784E+01 -0.43767090824E+01 -0.78394669063E+01  0.13282311890E+02  0.00000000000E+00 0. -1.
</event>
<event>
 7    1  0.2414091E-009  0.4778727E+02  0.7816164E-02  0.1312668E+00
        -11   -1    0    0    0    0  0.00000000000E+00  0.00000000000E+00  0.45593999997E+02  0.45594000000E+02  0.51100000000E-03 0. -1.
         11   -1    0    0    0    0 -0.00000000000E+00 -0.00000000000E+00 -0.45593999997E+02  0.45594000000E+02  0.51100000000E-03 0.  1.
    9900012    2    1    2    0    0  0.19088302233E+02 -0.33829220553E+02 -0.19360883562E+02  0.47787271231E+02  0.20000000851E+02 0.  0.
         12    1    1    2    0    0 -0.19088302233E+02  0.33829220553E+02  0.19360883562E+02  0.43400728769E+02  0.00000000000E+00 0. -1.
         11    1    3    3    0    0  0.29874545202E+01 -0.39387975819E+01 -0.26689664706E+00  0.49507822597E+01  0.51100000000E-03 0.  1.
        -11    1    3    3    0    0  0.15966008621E+01  0.24261309044E+01 -0.10973566230E+01  0.31047443208E+01  0.51100000000E-03 0. -1.
         12    1    3    3    0    0  0.14504246850E+02 -0.32316553876E+02 -0.17996630292E+02  0.39731744651E+02  0.00000000000E+00 0. -1.
</event>
<event>
 7    1  0.2414091E-009  0.4778728E+02  0.7816164E-02  0.1312668E+00
        -11   -1    0    0    0    0  0.00000000000E+00  0.00000000000E+00  0.45593999997E+02  0.45594000000E+02  0.51100000000E-03 0.  1.
         11   -1    0    0    0    0 -0.00000000000E+00 -0.00000000000E+00 -0.45593999997E+02  0.45594000000E+02  0.51100000000E-03 0. -1.
    9900012    2    1    2    0    0  0.27230833484E+02  0.33077421570E+02  0.69273884948E+01  0.47787276259E+02  0.20000023773E+02 0.  0.
         12    1    1    2    0    0 -0.27230833484E+02 -0.33077421570E+02 -0.69273884948E+01  0.43400723741E+02  0.00000000000E+00 0. -1.
         11    1    3    3    0    0  0.10423620741E+02  0.47487743236E+01 -0.44788491729E+00  0.11463129070E+02  0.51100000000E-03 0. -1.
        -11    1    3    3    0    0  0.17566332025E+02  0.23588405022E+02  0.25555565414E+01  0.29521513203E+02  0.51100000000E-03 0.  1.
        -12    1    3    3    0    0 -0.75911928176E+00  0.47402422242E+01  0.48197168707E+01  0.68026339856E+01  0.00000000000E+00 0.  1.
</event>
<event>
 7    1  0.2414091E-009  0.4778727E+02  0.7816164E-02  0.1312668E+00
        -11   -1    0    0    0    0  0.00000000000E+00  0.00000000000E+00  0.45593999997E+02  0.45594000000E+02  0.51100000000E-03 0.  1.
         11   -1    0    0    0    0 -0.00000000000E+00 -0.00000000000E+00 -0.45593999997E+02  0.45594000000E+02  0.51100000000E-03 0. -1.
    9900012    2    1    2    0    0 -0.91402339329E+00 -0.14177868604E+02  0.41009458227E+02  0.47787273497E+02  0.20000011184E+02 0.  0.
         12    1    1    2    0    0  0.91402339329E+00  0.14177868604E+02 -0.41009458227E+02  0.43400726503E+02  0.00000000000E+00 0. -1.
         11    1    3    3    0    0 -0.28934860145E+01 -0.56672602992E+01  0.15179336226E+02  0.16459111432E+02  0.51100000000E-03 0. -1.
        -11    1    3    3    0    0 -0.55761684548E+01 -0.54101848478E+01  0.19513802029E+02  0.21003624082E+02  0.51100000000E-03 0.  1.
         12    1    3    3    0    0  0.75556310760E+01 -0.31004234565E+01  0.63163199727E+01  0.10324537983E+02  0.00000000000E+00 0. -1.
</event>
<event>
 7    1  0.2414091E-009  0.4778726E+02  0.7816164E-02  0.1312668E+00
        -11   -1    0    0    0    0  0.00000000000E+00  0.00000000000E+00  0.45593999997E+02  0.45594000000E+02  0.51100000000E-03 0.  1.
         11   -1    0    0    0    0 -0.00000000000E+00 -0.00000000000E+00 -0.45593999997E+02  0.45594000000E+02  0.51100000000E-03 0. -1.
    9900012    2    1    2    0    0  0.19630934464E+02 -0.22415594801E+02  0.31556161448E+02  0.47787264942E+02  0.19999972178E+02 0.  0.
         12    1    1    2    0    0 -0.19630934464E+02  0.22415594801E+02 -0.31556161448E+02  0.43400735058E+02  0.00000000000E+00 0. -1.
         11    1    3    3    0    0  0.39729384317E+01 -0.14624358558E+02  0.18416561824E+02  0.23850070287E+02  0.51100000000E-03 0. -1.
        -11    1    3    3    0    0  0.92292256239E+01 -0.60861836477E+01  0.13286640836E+02  0.17284532449E+02  0.51100000000E-03 0.  1.
        -12    1    3    3    0    0  0.64287704086E+01 -0.17050525955E+01 -0.14704121173E+00  0.66526622068E+01  0.00000000000E+00 0.  1.
</event>
<event>
 7    1  0.2414091E-009  0.4778728E+02  0.7816164E-02  0.1312668E+00
        -11   -1    0    0    0    0  0.00000000000E+00  0.00000000000E+00  0.45593999997E+02  0.45594000000E+02  0.51100000000E-03 0. -1.
         11   -1    0    0    0    0 -0.00000000000E+00 -0.00000000000E+00 -0.45593999997E+02  0.45594000000E+02  0.51100000000E-03 0.  1.
    9900012    2    1    2    0    0  0.28415693280E+02  0.27173987576E+02 -0.18377859074E+02  0.47787275012E+02  0.20000018090E+02 0.  0.
         12    1    1    2    0    0 -0.28415693280E+02 -0.27173987576E+02  0.18377859074E+02  0.43400724988E+02  0.00000000000E+00 0. -1.
         11    1    3    3    0    0  0.12022293635E+02  0.41841827510E+01 -0.56637697643E+01  0.13932739061E+02  0.51100000000E-03 0. -1.
        -11    1    3    3    0    0  0.18845420539E+02  0.20809807818E+02 -0.11001184613E+02  0.30153342101E+02  0.51100000000E-03 0.  1.
        -12    1    3    3    0    0 -0.24520208941E+01  0.21799970069E+01 -0.17129046973E+01  0.37011938502E+01  0.00000000000E+00 0.  1.
</event>
<event>
 7    1  0.2414091E-009  0.4778727E+02  0.7816164E-02  0.1312668E+00
        -11   -1    0    0    0    0  0.00000000000E+00  0.00000000000E+00  0.45593999997E+02  0.45594000000E+02  0.51100000000E-03 0.  1.
         11   -1    0    0    0    0 -0.00000000000E+00 -0.00000000000E+00 -0.45593999997E+02  0.45594000000E+02  0.51100000000E-03 0. -1.
    9900012    2    1    2    0    0 -0.30850515759E+02 -0.73440179401E+01  0.29629963959E+02  0.47787266293E+02  0.19999978336E+02 0.  0.
         12    1    1    2    0    0  0.30850515759E+02  0.73440179401E+01 -0.29629963959E+02  0.43400733707E+02  0.00000000000E+00 0. -1.
         11    1    3    3    0    0 -0.38697884102E+01 -0.46905930585E+01  0.44734137247E+01  0.75490632660E+01  0.51100000000E-03 0. -1.
        -11    1    3    3    0    0 -0.15230620274E+02 -0.62672073481E+01  0.22115544599E+02  0.27574390202E+02  0.51100000000E-03 0.  1.
        -12    1    3    3    0    0 -0.11750107075E+02  0.36137824666E+01  0.30410056362E+01  0.12663812825E+02  0.00000000000E+00 0.  1.
</event>
<event>
 7    1  0.2414091E-009  0.4778727E+02  0.7816164E-02  0.1312668E+00
        -11   -1    0    0    0    0  0.00000000000E+00  0.00000000000E+00  0.45593999997E+02  0.45594000000E+02  0.51100000000E-03 0.  1.
         11   -1    0    0    0    0 -0.00000000000E+00 -0.00000000000E+00 -0.45593999997E+02  0.45594000000E+02  0.51100000000E-03 0. -1.
    9900012    2    1    2    0    0  0.93533327704E+01 -0.40584636806E+02 -0.12207609969E+02  0.47787270516E+02  0.19999997590E+02 0.  0.
         12    1    1    2    0    0 -0.93533327704E+01  0.40584636806E+02  0.12207609969E+02  0.43400729484E+02  0.00000000000E+00 0. -1.
         11    1    3    3    0    0 -0.46482917248E+01 -0.15094806491E+02 -0.45655313497E+01  0.16440920769E+02  0.51100000000E-03 0. -1.
        -11    1    3    3    0    0  0.39207799654E+00 -0.47315255862E+00  0.13485063777E+01  0.14819136989E+01  0.51100000000E-03 0.  1.
        -12    1    3    3    0    0  0.13609546499E+02 -0.25016677756E+02 -0.89905849971E+01  0.29864436048E+02  0.00000000000E+00 0.  1.
</event>
<event>
 7    1  0.2414091E-009  0.4778727E+02  0.7816164E-02  0.1312668E+00
        -11   -1    0    0    0    0  0.00000000000E+00  0.00000000000E+00  0.45593999997E+02  0.45594000000E+02  0.51100000000E-03 0.  1.
         11   -1    0    0    0    0 -0.00000000000E+00 -0.00000000000E+00 -0.45593999997E+02  0.45594000000E+02  0.51100000000E-03 0. -1.
    9900012    2    1    2    0    0  0.42720958149E+02  0.37485221723E+01  0.66702033412E+01  0.47787270786E+02  0.19999998823E+02 0.  0.
         12    1    1    2    0    0 -0.42720958149E+02 -0.37485221723E+01 -0.66702033412E+01  0.43400729214E+02  0.00000000000E+00 0. -1.
         11    1    3    3    0    0  0.85048815372E+01  0.41761750067E+00 -0.53266449237E+01  0.10043931538E+02  0.51100000000E-03 0. -1.
        -11    1    3    3    0    0  0.20746243020E+02  0.25238170898E+01  0.20905528682E+01  0.21003491703E+02  0.51100000000E-03 0.  1.
         12    1    3    3    0    0  0.13469833592E+02  0.80708758182E+00  0.99062953966E+01  0.16739847545E+02  0.00000000000E+00 0. -1.
</event>
<event>
 7    1  0.2414091E-009  0.4778728E+02  0.7816164E-02  0.1312668E+00
        -11   -1    0    0    0    0  0.00000000000E+00  0.00000000000E+00  0.45593999997E+02  0.45594000000E+02  0.51100000000E-03 0.  1.
         11   -1    0    0    0    0 -0.00000000000E+00 -0.00000000000E+00 -0.45593999997E+02  0.45594000000E+02  0.51100000000E-03 0. -1.
    9900012    2    1    2    0    0 -0.29034770504E+02  0.27421109542E+02  0.16990812807E+02  0.47787275737E+02  0.20000021395E+02 0.  0.
         12    1    1    2    0    0  0.29034770504E+02 -0.27421109542E+02 -0.16990812807E+02  0.43400724263E+02  0.00000000000E+00 0. -1.
         11    1    3    3    0    0 -0.24193375132E+02  0.17447975421E+02  0.67799805849E+01  0.30589530620E+02  0.51100000000E-03 0. -1.
        -11    1    3    3    0    0 -0.54316033799E+01  0.39972502724E+01  0.20169900824E+01  0.70390748164E+01  0.51100000000E-03 0.  1.
        -12    1    3    3    0    0  0.59020800772E+00  0.59758838485E+01  0.81938421400E+01  0.10158670301E+02  0.00000000000E+00 0.  1.
</event>
<event>
 7    1  0.2644849E-009  0.4778727E+02  0.7816164E-02  0.1312668E+00
        -11   -1    0    0    0    0  0.00000000000E+00  0.00000000000E+00  0.45593999997E+02  0.45594000000E+02  0.51100000000E-03 0. -1.
         11   -1    0    0    0    0 -0.00000000000E+00 -0.00000000000E+00 -0.45593999997E+02  0.45594000000E+02  0.51100000000E-03 0.  1.
    9900012    2    1    2    0    0  0.14881329776E+02 -0.20539283644E+02 -0.35217994382E+02  0.47787271011E+02  0.19999999847E+02 0.  0.
         12    1    1    2    0    0 -0.14881329776E+02  0.20539283644E+02  0.35217994382E+02  0.43400728989E+02  0.00000000000E+00 0. -1.
         11    1    3    3    0    0  0.50190221265E+01 -0.11519307327E+02 -0.66482649783E+01  0.14215641100E+02  0.51100000000E-03 0. -1.
        -11    1    3    3    0    0  0.93948579820E+01 -0.10182503096E+02 -0.16982880519E+02  0.21917229678E+02  0.51100000000E-03 0.  1.
         12    1    3    3    0    0  0.46744966737E+00  0.11625267789E+01 -0.11586848885E+02  0.11654400233E+02  0.00000000000E+00 0. -1.
</event>
<event>
 7    1  0.2414091E-009  0.4778728E+02  0.7816164E-02  0.1312668E+00
        -11   -1    0    0    0    0  0.00000000000E+00  0.00000000000E+00  0.45593999997E+02  0.45594000000E+02  0.51100000000E-03 0. -1.
         11   -1    0    0    0    0 -0.00000000000E+00 -0.00000000000E+00 -0.45593999997E+02  0.45594000000E+02  0.51100000000E-03 0.  1.
    9900012    2    1    2    0    0  0.41206468184E+02 -0.12224700787E+02  0.60171584393E+01  0.47787279670E+02  0.20000039325E+02 0.  0.
         12    1    1    2    0    0 -0.41206468184E+02  0.12224700787E+02 -0.60171584393E+01  0.43400720330E+02  0.00000000000E+00 0. -1.
         11    1    3    3    0    0  0.10366894948E+02 -0.18247253037E+01  0.38976548302E+01  0.11224698069E+02  0.51100000000E-03 0. -1.
        -11    1    3    3    0    0  0.31730549071E+02 -0.12083734906E+02  0.33926298943E+00  0.33955257226E+02  0.51100000000E-03 0.  1.
        -12    1    3    3    0    0 -0.89097583531E+00  0.16837594227E+01  0.17802406196E+01  0.26073243750E+01  0.00000000000E+00 0.  1.
</event>
<event>
 7    1  0.2414091E-009  0.4778727E+02  0.7816164E-02  0.1312668E+00
        -11   -1    0    0    0    0  0.00000000000E+00  0.00000000000E+00  0.45593999997E+02  0.45594000000E+02  0.51100000000E-03 0.  1.
         11   -1    0    0    0    0 -0.00000000000E+00 -0.00000000000E+00 -0.45593999997E+02  0.45594000000E+02  0.51100000000E-03 0. -1.
    9900012    2    1    2    0    0 -0.71250033499E+01  0.42642400512E+02  0.38056856431E+01  0.47787271465E+02  0.20000001916E+02 0.  0.
         12    1    1    2    0    0  0.71250033499E+01 -0.42642400512E+02 -0.38056856431E+01  0.43400728535E+02  0.00000000000E+00 0. -1.
         11    1    3    3    0    0  0.17564623699E+01  0.22202102947E+02 -0.39727997391E+01  0.22623034132E+02  0.51100000000E-03 0. -1.
        -11    1    3    3    0    0  0.14788682199E+01  0.47705549568E+01  0.28206739761E+01  0.57359783601E+01  0.51100000000E-03 0.  1.
        -12    1    3    3    0    0 -0.10360333940E+02  0.15669742609E+02  0.49578114061E+01  0.19428258973E+02  0.00000000000E+00 0.  1.
</event>
<event>
 7    1  0.2414091E-009  0.4778727E+02  0.7816164E-02  0.1312668E+00
        -11   -1    0    0    0    0  0.00000000000E+00  0.00000000000E+00  0.45593999997E+02  0.45594000000E+02  0.51100000000E-03 0.  1.
         11   -1    0    0    0    0 -0.00000000000E+00 -0.00000000000E+00 -0.45593999997E+02  0.45594000000E+02  0.51100000000E-03 0. -1.
    9900012    2    1    2    0    0  0.32677262027E+01  0.42873653564E+02 -0.58987426367E+01  0.47787269947E+02  0.19999994996E+02 0.  0.
         12    1    1    2    0    0 -0.32677262027E+01 -0.42873653564E+02  0.58987426367E+01  0.43400730053E+02  0.00000000000E+00 0. -1.
         11    1    3    3    0    0 -0.22227952226E-01  0.41396934291E+02 -0.51381760745E+01  0.41714595963E+02  0.51100000000E-03 0. -1.
        -11    1    3    3    0    0  0.28534577902E+01  0.30873281862E+01  0.78781421871E-01  0.42047619984E+01  0.51100000000E-03 0.  1.
         12    1    3    3    0    0  0.43649636473E+00 -0.16106089128E+01 -0.83934798402E+00  0.18679119853E+01  0.00000000000E+00 0. -1.
</event>
<event>
 7    1  0.2414091E-009  0.4778727E+02  0.7816164E-02  0.1312668E+00
        -11   -1    0    0    0    0  0.00000000000E+00  0.00000000000E+00  0.45593999997E+02  0.45594000000E+02  0.51100000000E-03 0. -1.
         11   -1    0    0    0    0 -0.00000000000E+00 -0.00000000000E+00 -0.45593999997E+02  0.45594000000E+02  0.51100000000E-03 0.  1.
    9900012    2    1    2    0    0 -0.53355428580E+00 -0.42586717662E+02 -0.83492372977E+01  0.47787274604E+02  0.20000016230E+02 0.  0.
         12    1    1    2    0    0  0.53355428580E+00  0.42586717662E+02  0.83492372977E+01  0.43400725396E+02  0.00000000000E+00 0. -1.
         11    1    3    3    0    0  0.37575419560E+01 -0.10050415641E+02 -0.34110554707E+00  0.10735284317E+02  0.51100000000E-03 0. -1.
        -11    1    3    3    0    0  0.30775250432E+01 -0.15542392178E+02  0.20473554769E+01  0.15975881187E+02  0.51100000000E-03 0.  1.
        -12    1    3    3    0    0 -0.73686212850E+01 -0.16993909843E+02 -0.10055487227E+02  0.21076109100E+02  0.00000000000E+00 0.  1.
</event>
<event>
 7    1  0.2414091E-009  0.4778727E+02  0.7816164E-02  0.1312668E+00
        -11   -1    0    0    0    0  0.00000000000E+00  0.00000000000E+00  0.45593999997E+02  0.45594000000E+02  0.51100000000E-03 0.  1.
         11   -1    0    0    0    0 -0.00000000000E+00 -0.00000000000E+00 -0.45593999997E+02  0.45594000000E+02  0.51100000000E-03 0. -1.
    9900012    2    1    2    0    0 -0.40506491437E+02  0.22326634280E+01  0.15422792414E+02  0.47787272352E+02  0.20000005961E+02 0.  0.
         12    1    1    2    0    0  0.40506491437E+02 -0.22326634280E+01 -0.15422792414E+02  0.43400727648E+02  0.00000000000E+00 0. -1.
         11    1    3    3    0    0 -0.81902001170E+01  0.91598008111E+00 -0.39825935057E+01  0.91531114250E+01  0.51100000000E-03 0. -1.
        -11    1    3    3    0    0 -0.82897332758E+01  0.33085431239E+01  0.27797965861E+01  0.93484439726E+01  0.51100000000E-03 0.  1.
        -12    1    3    3    0    0 -0.24026558045E+02 -0.19918597770E+01  0.16625589333E+02  0.29285716954E+02  0.00000000000E+00 0.  1.
</event>
<event>
 7    1  0.2414091E-009  0.4778727E+02  0.7816164E-02  0.1312668E+00
        -11   -1    0    0    0    0  0.00000000000E+00  0.00000000000E+00  0.45593999997E+02  0.45594000000E+02  0.51100000000E-03 0.  1.
         11   -1    0    0    0    0 -0.00000000000E+00 -0.00000000000E+00 -0.45593999997E+02  0.45594000000E+02  0.51100000000E-03 0. -1.
    9900012    2    1    2    0    0  0.18065841634E+02  0.13525692135E+00  0.39461760092E+02  0.47787269155E+02  0.19999991384E+02 0.  0.
         12    1    1    2    0    0 -0.18065841634E+02 -0.13525692135E+00 -0.39461760092E+02  0.43400730845E+02  0.00000000000E+00 0. -1.
         11    1    3    3    0    0 -0.33048546863E+00 -0.22564795075E+01  0.22101705172E+01  0.31758108239E+01  0.51100000000E-03 0. -1.
        -11    1    3    3    0    0  0.18653783208E+02  0.17054547688E+01  0.20215956007E+02  0.27560063162E+02  0.51100000000E-03 0.  1.
        -12    1    3    3    0    0 -0.25745610566E+00  0.68628166004E+00  0.17035633567E+02  0.17051395169E+02  0.00000000000E+00 0.  1.
</event>
<event>
 7    1  0.2414091E-009  0.4778726E+02  0.7816164E-02  0.1312668E+00
        -11   -1    0    0    0    0  0.00000000000E+00  0.00000000000E+00  0.45593999997E+02  0.45594000000E+02  0.51100000000E-03 0.  1.
         11   -1    0    0    0    0 -0.00000000000E+00 -0.00000000000E+00 -0.45593999997E+02  0.45594000000E+02  0.51100000000E-03 0. -1.
    9900012    2    1    2    0    0 -0.31030277178E+02  0.23996847561E+02  0.18571404888E+02  0.47787264129E+02  0.19999968469E+02 0.  0.
         12    1    1    2    0    0  0.31030277178E+02 -0.23996847561E+02 -0.18571404888E+02  0.43400735871E+02  0.00000000000E+00 0. -1.
         11    1    3    3    0    0 -0.40958548972E+01  0.71291797067E+00  0.25301732191E+01  0.48668322502E+01  0.51100000000E-03 0. -1.
        -11    1    3    3    0    0 -0.21648285667E+02  0.25347143098E+02  0.16563426324E+02  0.37221942821E+02  0.51100000000E-03 0.  1.
         12    1    3    3    0    0 -0.52861366144E+01 -0.20632135072E+01 -0.52219465474E+00  0.56984890576E+01  0.00000000000E+00 0. -1.
</event>
<event>
 7    1  0.2414091E-009  0.4778729E+02  0.7816164E-02  0.1312668E+00
        -11   -1    0    0    0    0  0.00000000000E+00  0.00000000000E+00  0.45593999997E+02  0.45594000000E+02  0.51100000000E-03 0.  1.
         11   -1    0    0    0    0 -0.00000000000E+00 -0.00000000000E+00 -0.45593999997E+02  0.45594000000E+02  0.51100000000E-03 0. -1.
    9900012    2    1    2    0    0  0.79466848457E+01 -0.17192149437E+02  0.39049992535E+02  0.47787288955E+02  0.20000081660E+02 0.  0.
         12    1    1    2    0    0 -0.79466848457E+01  0.17192149437E+02 -0.39049992535E+02  0.43400711045E+02  0.00000000000E+00 0. -1.
         11    1    3    3    0    0 -0.16341106357E+01 -0.13079507952E+01  0.28314627509E+01  0.35211126683E+01  0.51100000000E-03 0. -1.
        -11    1    3    3    0    0 -0.35950918949E+01 -0.17872084182E+01  0.15253387429E+02  0.15772908039E+02  0.51100000000E-03 0.  1.
         12    1    3    3    0    0  0.13175887376E+02 -0.14096990223E+02  0.20965142354E+02  0.28493268248E+02  0.00000000000E+00 0. -1.
</event>
<event>
 7    1  0.2414091E-009  0.4778731E+02  0.7816164E-02  0.1312668E+00
        -11   -1    0    0    0    0  0.00000000000E+00  0.00000000000E+00  0.45593999997E+02  0.45594000000E+02  0.51100000000E-03 0.  1.
         11   -1    0    0    0    0 -0.00000000000E+00 -0.00000000000E+00 -0.45593999997E+02  0.45594000000E+02  0.51100000000E-03 0. -1.
    9900012    2    1    2    0    0 -0.55528369562E+01  0.15244309260E+02  0.40254151878E+02  0.47787312143E+02  0.20000187382E+02 0.  0.
         12    1    1    2    0    0  0.55528369562E+01 -0.15244309260E+02 -0.40254151878E+02  0.43400687857E+02  0.00000000000E+00 0. -1.
         11    1    3    3    0    0 -0.92649234737E+01  0.42818101297E+01  0.65828393419E+01  0.12145224536E+02  0.51100000000E-03 0. -1.
        -11    1    3    3    0    0  0.13619796309E+01  0.33404862839E+01  0.12799891526E+02  0.13298536027E+02  0.51100000000E-03 0.  1.
         12    1    3    3    0    0  0.23501068866E+01  0.76220128461E+01  0.20871421010E+02  0.22343551579E+02  0.00000000000E+00 0. -1.
</event>
<event>
 7    1  0.2414091E-009  0.4778726E+02  0.7816164E-02  0.1312668E+00
        -11   -1    0    0    0    0  0.00000000000E+00  0.00000000000E+00  0.45593999997E+02  0.45594000000E+02  0.51100000000E-03 0.  1.
         11   -1    0    0    0    0 -0.00000000000E+00 -0.00000000000E+00 -0.45593999997E+02  0.45594000000E+02  0.51100000000E-03 0. -1.
    9900012    2    1    2    0    0  0.21614367440E+02 -0.25184791424E+02  0.27967292328E+02  0.47787262229E+02  0.19999959807E+02 0.  0.
         12    1    1    2    0    0 -0.21614367440E+02  0.25184791424E+02 -0.27967292328E+02  0.43400737771E+02  0.00000000000E+00 0. -1.
         11    1    3    3    0    0  0.45287653840E+01 -0.19734987002E+01  0.52532642067E+01  0.72111856244E+01  0.51100000000E-03 0. -1.
        -11    1    3    3    0    0  0.20569048050E+02 -0.19439999320E+02  0.17590906237E+02  0.33323254549E+02  0.51100000000E-03 0.  1.
         12    1    3    3    0    0 -0.34834459937E+01 -0.37712934039E+01  0.51231218847E+01  0.72528220560E+01  0.00000000000E+00 0. -1.
</event>
<event>
 7    1  0.2414091E-009  0.4778727E+02  0.7816164E-02  0.1312668E+00
        -11   -1    0    0    0    0  0.00000000000E+00  0.00000000000E+00  0.45593999997E+02  0.45594000000E+02  0.51100000000E-03 0.  1.
         11   -1    0    0    0    0 -0.00000000000E+00 -0.00000000000E+00 -0.45593999997E+02  0.45594000000E+02  0.51100000000E-03 0. -1.
    9900012    2    1    2    0    0 -0.12887455201E+02  0.25207853021E+02  0.32895301297E+02  0.47787271862E+02  0.20000003727E+02 0.  0.
         12    1    1    2    0    0  0.12887455201E+02 -0.25207853021E+02 -0.32895301297E+02  0.43400728138E+02  0.00000000000E+00 0. -1.
         11    1    3    3    0    0 -0.11308863966E+02  0.15972834914E+02  0.19026774218E+02  0.27295420803E+02  0.51100000000E-03 0. -1.
        -11    1    3    3    0    0  0.31531604696E-01  0.10513111133E+02  0.54811115598E+01  0.11856183371E+02  0.51100000000E-03 0.  1.
         12    1    3    3    0    0 -0.16101228401E+01 -0.12780930252E+01  0.83874155189E+01  0.86356676887E+01  0.00000000000E+00 0. -1.
</event>
<event>
 7    1  0.2414091E-009  0.4778727E+02  0.7816164E-02  0.1312668E+00
        -11   -1    0    0    0    0  0.00000000000E+00  0.00000000000E+00  0.45593999997E+02  0.45594000000E+02  0.51100000000E-03 0.  1.
         11   -1    0    0    0    0 -0.00000000000E+00 -0.00000000000E+00 -0.45593999997E+02  0.45594000000E+02  0.51100000000E-03 0. -1.
    9900012    2    1    2    0    0  0.43330305267E+01 -0.19060389698E+02  0.38749835339E+02  0.47787270193E+02  0.19999996119E+02 0.  0.
         12    1    1    2    0    0 -0.43330305267E+01  0.19060389698E+02 -0.38749835339E+02  0.43400729807E+02  0.00000000000E+00 0. -1.
         11    1    3    3    0    0  0.50366290574E+00 -0.85109373323E+01  0.71346948975E+01  0.11117265947E+02  0.51100000000E-03 0. -1.
        -11    1    3    3    0    0 -0.50726821610E+01 -0.43069187399E+00  0.92299517413E+01  0.10540854292E+02  0.51100000000E-03 0.  1.
         12    1    3    3    0    0  0.89020497819E+01 -0.10118760492E+02  0.22385188700E+02  0.26129149954E+02  0.00000000000E+00 0. -1.
</event>
<event>
 7    1  0.2414091E-009  0.4778727E+02  0.7816164E-02  0.1312668E+00
        -11   -1    0    0    0    0  0.00000000000E+00  0.00000000000E+00  0.45593999997E+02  0.45594000000E+02  0.51100000000E-03 0.  1.
         11   -1    0    0    0    0 -0.00000000000E+00 -0.00000000000E+00 -0.45593999997E+02  0.45594000000E+02  0.51100000000E-03 0. -1.
    9900012    2    1    2    0    0  0.13581713751E+02 -0.40833162484E+02 -0.56403008111E+01  0.47787273046E+02  0.20000009127E+02 0.  0.
         12    1    1    2    0    0 -0.13581713751E+02  0.40833162484E+02  0.56403008111E+01  0.43400726954E+02  0.00000000000E+00 0. -1.
         11    1    3    3    0    0 -0.12659772347E+01 -0.44620067840E+01  0.36392843820E+01  0.58954723282E+01  0.51100000000E-03 0. -1.
        -11    1    3    3    0    0 -0.78114435204E+00 -0.64242644547E+00 -0.19710604258E+01  0.22153956079E+01  0.51100000000E-03 0.  1.
        -12    1    3    3    0    0  0.15628835338E+02 -0.35728729255E+02 -0.73085247673E+01  0.39676405110E+02  0.00000000000E+00 0.  1.
</event>
<event>
 7    1  0.2414091E-009  0.4778728E+02  0.7816164E-02  0.1312668E+00
        -11   -1    0    0    0    0  0.00000000000E+00  0.00000000000E+00  0.45593999997E+02  0.45594000000E+02  0.51100000000E-03 0. -1.
         11   -1    0    0    0    0 -0.00000000000E+00 -0.00000000000E+00 -0.45593999997E+02  0.45594000000E+02  0.51100000000E-03 0.  1.
    9900012    2    1    2    0    0  0.20762816551E+02 -0.28277717005E+02 -0.25551883614E+02  0.47787278965E+02  0.20000036111E+02 0.  0.
         12    1    1    2    0    0 -0.20762816551E+02  0.28277717005E+02  0.25551883614E+02  0.43400721035E+02  0.00000000000E+00 0. -1.
         11    1    3    3    0    0  0.73182410562E+01 -0.59891596500E+01  0.11009585738E-01  0.94565747997E+01  0.51100000000E-03 0. -1.
        -11    1    3    3    0    0  0.12401560787E+02 -0.10435455703E+02 -0.11310598147E+02  0.19764287905E+02  0.51100000000E-03 0.  1.
         12    1    3    3    0    0  0.10430147077E+01 -0.11853101652E+02 -0.14252295053E+02  0.18566416260E+02  0.00000000000E+00 0. -1.
</event>
<event>
 7    1  0.2414091E-009  0.4778727E+02  0.7816164E-02  0.1312668E+00
        -11   -1    0    0    0    0  0.00000000000E+00  0.00000000000E+00  0.45593999997E+02  0.45594000000E+02  0.51100000000E-03 0.  1.
         11   -1    0    0    0    0 -0.00000000000E+00 -0.00000000000E+00 -0.45593999997E+02  0.45594000000E+02  0.51100000000E-03 0. -1.
    9900012    2    1    2    0    0 -0.36052887178E+02 -0.75849291492E+01  0.22940825062E+02  0.47787270990E+02  0.19999999752E+02 0.  0.
         12    1    1    2    0    0  0.36052887178E+02  0.75849291492E+01 -0.22940825062E+02  0.43400729010E+02  0.00000000000E+00 0. -1.
         11    1    3    3    0    0 -0.60505574943E+01 -0.70309615451E+01  0.24138516638E+01  0.95849020003E+01  0.51100000000E-03 0. -1.
        -11    1    3    3    0    0 -0.47650612149E+01 -0.25845852158E+01 -0.28398281583E+00  0.54283087256E+01  0.51100000000E-03 0.  1.
        -12    1    3    3    0    0 -0.25237268469E+02  0.20306176117E+01  0.20810956214E+02  0.32774060264E+02  0.00000000000E+00 0.  1.
</event>
<event>
 7    1  0.2414091E-009  0.4778727E+02  0.7816164E-02  0.1312668E+00
        -11   -1    0    0    0    0  0.00000000000E+00  0.00000000000E+00  0.45593999997E+02  0.45594000000E+02  0.51100000000E-03 0.  1.
         11   -1    0    0    0    0 -0.00000000000E+00 -0.00000000000E+00 -0.45593999997E+02  0.45594000000E+02  0.51100000000E-03 0. -1.
    9900012    2    1    2    0    0  0.11558707646E+02  0.36047192702E+02  0.21227799192E+02  0.47787270943E+02  0.19999999537E+02 0.  0.
         12    1    1    2    0    0 -0.11558707646E+02 -0.36047192702E+02 -0.21227799192E+02  0.43400729057E+02  0.00000000000E+00 0. -1.
         11    1    3    3    0    0  0.36148365053E+01  0.46031601120E+00 -0.13941758689E+01  0.39016227912E+01  0.51100000000E-03 0. -1.
        -11    1    3    3    0    0  0.30139995150E+01  0.31462864267E+01  0.67363017187E+00  0.44087514360E+01  0.51100000000E-03 0.  1.
        -12    1    3    3    0    0  0.49298716262E+01  0.32440590264E+02  0.21948344889E+02  0.39476896716E+02  0.00000000000E+00 0.  1.
</event>
<event>
 7    1  0.2414091E-009  0.4778727E+02  0.7816164E-02  0.1312668E+00
        -11   -1    0    0    0    0  0.00000000000E+00  0.00000000000E+00  0.45593999997E+02  0.45594000000E+02  0.51100000000E-03 0. -1.
         11   -1    0    0    0    0 -0.00000000000E+00 -0.00000000000E+00 -0.45593999997E+02  0.45594000000E+02  0.51100000000E-03 0.  1.
    9900012    2    1    2    0    0 -0.37480999426E+02 -0.21547847228E+02 -0.38063132061E+01  0.47787273527E+02  0.20000011319E+02 0.  0.
         12    1    1    2    0    0  0.37480999426E+02  0.21547847228E+02  0.38063132061E+01  0.43400726473E+02  0.00000000000E+00 0. -1.
         11    1    3    3    0    0 -0.55028323770E+01 -0.59202628958E+01  0.44253055375E+01  0.92148796132E+01  0.51100000000E-03 0. -1.
        -11    1    3    3    0    0 -0.14989619025E+02 -0.10124090945E+02  0.16492428689E+01  0.18163311876E+02  0.51100000000E-03 0.  1.
        -12    1    3    3    0    0 -0.16988548024E+02 -0.55034933871E+01 -0.98808616125E+01  0.20409082038E+02  0.00000000000E+00 0.  1.
</event>
<event>
 7    1  0.2414091E-009  0.4778727E+02  0.7816164E-02  0.1312668E+00
        -11   -1    0    0    0    0  0.00000000000E+00  0.00000000000E+00  0.45593999997E+02  0.45594000000E+02  0.51100000000E-03 0.  1.
         11   -1    0    0    0    0 -0.00000000000E+00 -0.00000000000E+00 -0.45593999997E+02  0.45594000000E+02  0.51100000000E-03 0. -1.
    9900012    2    1    2    0    0 -0.42459939742E+02  0.27006734330E+01  0.85722531585E+01  0.47787266779E+02  0.19999980552E+02 0.  0.
         12    1    1    2    0    0  0.42459939742E+02 -0.27006734330E+01 -0.85722531585E+01  0.43400733221E+02  0.00000000000E+00 0. -1.
         11    1    3    3    0    0 -0.42066317705E+01  0.54426102156E+01 -0.20384654211E+00  0.68818101170E+01  0.51100000000E-03 0. -1.
        -11    1    3    3    0    0 -0.54370715051E+01 -0.40284150043E+01  0.35800737568E+01  0.76555079756E+01  0.51100000000E-03 0.  1.
        -12    1    3    3    0    0 -0.32816236467E+02  0.12864782217E+01  0.51960259438E+01  0.33249948686E+02  0.00000000000E+00 0.  1.
</event>
<event>
 7    1  0.2414091E-009  0.4778727E+02  0.7816164E-02  0.1312668E+00
        -11   -1    0    0    0    0  0.00000000000E+00  0.00000000000E+00  0.45593999997E+02  0.45594000000E+02  0.51100000000E-03 0.  1.
         11   -1    0    0    0    0 -0.00000000000E+00 -0.00000000000E+00 -0.45593999997E+02  0.45594000000E+02  0.51100000000E-03 0. -1.
    9900012    2    1    2    0    0  0.31969167959E+02  0.83867653828E+01  0.28129305403E+02  0.47787270097E+02  0.19999995682E+02 0.  0.
         12    1    1    2    0    0 -0.31969167959E+02 -0.83867653828E+01 -0.28129305403E+02  0.43400729903E+02  0.00000000000E+00 0. -1.
         11    1    3    3    0    0  0.21652380276E+02  0.15565960252E+00  0.12865669741E+02  0.25186807255E+02  0.51100000000E-03 0. -1.
        -11    1    3    3    0    0  0.12304481228E+02  0.67028060836E+01  0.11764010787E+02  0.18295349620E+02  0.51100000000E-03 0.  1.
         12    1    3    3    0    0 -0.19876935443E+01  0.15282996967E+01  0.34996248757E+01  0.43051132226E+01  0.00000000000E+00 0. -1.
</event>
<event>
 7    1  0.2414091E-009  0.4778728E+02  0.7816164E-02  0.1312668E+00
        -11   -1    0    0    0    0  0.00000000000E+00  0.00000000000E+00  0.45593999997E+02  0.45594000000E+02  0.51100000000E-03 0.  1.
         11   -1    0    0    0    0 -0.00000000000E+00 -0.00000000000E+00 -0.45593999997E+02  0.45594000000E+02  0.51100000000E-03 0. -1.
    9900012    2    1    2    0    0 -0.70938398781E+00 -0.28265567822E+02  0.32926846200E+02  0.47787277073E+02  0.20000027485E+02 0.  0.
         12    1    1    2    0    0  0.70938398781E+00  0.28265567822E+02 -0.32926846200E+02  0.43400722927E+02  0.00000000000E+00 0. -1.
         11    1    3    3    0    0  0.46898752801E+01 -0.46342219644E+01  0.80901809039E+01  0.10436568913E+02  0.51100000000E-03 0. -1.
        -11    1    3    3    0    0 -0.30896794129E+01 -0.10686376874E+02  0.20813350108E+02  0.23599582889E+02  0.51100000000E-03 0.  1.
         12    1    3    3    0    0 -0.23095798550E+01 -0.12944968984E+02  0.40233151880E+01  0.13751125270E+02  0.00000000000E+00 0. -1.
</event>
<event>
 7    1  0.2414091E-009  0.4778727E+02  0.7816164E-02  0.1312668E+00
        -11   -1    0    0    0    0  0.00000000000E+00  0.00000000000E+00  0.45593999997E+02  0.45594000000E+02  0.51100000000E-03 0.  1.
         11   -1    0    0    0    0 -0.00000000000E+00 -0.00000000000E+00 -0.45593999997E+02  0.45594000000E+02  0.51100000000E-03 0. -1.
    9900012    2    1    2    0    0  0.28030734195E+02 -0.19035216278E+02  0.27121240056E+02  0.47787272121E+02  0.20000004907E+02 0.  0.
         12    1    1    2    0    0 -0.28030734195E+02  0.19035216278E+02 -0.27121240056E+02  0.43400727879E+02  0.00000000000E+00 0. -1.
         11    1    3    3    0    0  0.21513543519E+02 -0.14942852535E+02  0.20849052954E+02  0.33478417017E+02  0.51100000000E-03 0. -1.
        -11    1    3    3    0    0  0.61260425259E+01  0.48894162098E+00  0.73555601426E+01  0.95849739807E+01  0.51100000000E-03 0.  1.
         12    1    3    3    0    0  0.39114815079E+00 -0.45813053646E+01 -0.10833730413E+01  0.47238811232E+01  0.00000000000E+00 0. -1.
</event>
<event>
 7    1  0.2414091E-009  0.4778727E+02  0.7816164E-02  0.1312668E+00
        -11   -1    0    0    0    0  0.00000000000E+00  0.00000000000E+00  0.45593999997E+02  0.45594000000E+02  0.51100000000E-03 0.  1.
         11   -1    0    0    0    0 -0.00000000000E+00 -0.00000000000E+00 -0.45593999997E+02  0.45594000000E+02  0.51100000000E-03 0. -1.
    9900012    2    1    2    0    0 -0.32335667710E+01  0.32615662084E+02  0.28449704253E+02  0.47787273747E+02  0.20000012323E+02 0.  0.
         12    1    1    2    0    0  0.32335667710E+01 -0.32615662084E+02 -0.28449704253E+02  0.43400726253E+02  0.00000000000E+00 0. -1.
         11    1    3    3    0    0  0.60158743776E+00  0.29493292361E+01  0.12832396993E+02  0.13180700408E+02  0.51100000000E-03 0. -1.
        -11    1    3    3    0    0 -0.90082563288E+00  0.20453334332E+01 -0.76104826769E+00  0.23609469288E+01  0.51100000000E-03 0.  1.
        -12    1    3    3    0    0 -0.29343285759E+01  0.27620999414E+02  0.16378355527E+02  0.32245626411E+02  0.00000000000E+00 0.  1.
</event>
<event>
 7    1  0.2414091E-009  0.4778727E+02  0.7816164E-02  0.1312668E+00
        -11   -1    0    0    0    0  0.00000000000E+00  0.00000000000E+00  0.45593999997E+02  0.45594000000E+02  0.51100000000E-03 0.  1.
         11   -1    0    0    0    0 -0.00000000000E+00 -0.00000000000E+00 -0.45593999997E+02  0.45594000000E+02  0.51100000000E-03 0. -1.
    9900012    2    1    2    0    0  0.38852339014E+02  0.18157457215E+02 -0.66652545031E+01  0.47787272852E+02  0.20000008243E+02 0.  0.
         12    1    1    2    0    0 -0.38852339014E+02 -0.18157457215E+02  0.66652545031E+01  0.43400727148E+02  0.00000000000E+00 0. -1.
         11    1    3    3    0    0  0.18021450072E+01 -0.53279632628E-01  0.18163543491E+01  0.25592398733E+01  0.51100000000E-03 0. -1.
        -11    1    3    3    0    0  0.12185298342E+02 -0.58994162843E+00  0.19540483662E+01  0.12355073132E+02  0.51100000000E-03 0.  1.
        -12    1    3    3    0    0  0.24864895664E+02  0.18800678476E+02 -0.10435657218E+02  0.32872959847E+02  0.00000000000E+00 0.  1.
</event>
<event>
 7    1  0.2414091E-009  0.4778727E+02  0.7816164E-02  0.1312668E+00
        -11   -1    0    0    0    0  0.00000000000E+00  0.00000000000E+00  0.45593999997E+02  0.45594000000E+02  0.51100000000E-03 0.  1.
         11   -1    0    0    0    0 -0.00000000000E+00 -0.00000000000E+00 -0.45593999997E+02  0.45594000000E+02  0.51100000000E-03 0. -1.
    9900012    2    1    2    0    0  0.37940239082E+02  0.18635978715E+02 -0.98418533786E+01  0.47787268183E+02  0.19999986955E+02 0.  0.
         12    1    1    2    0    0 -0.37940239082E+02 -0.18635978715E+02  0.98418533786E+01  0.43400731817E+02  0.00000000000E+00 0. -1.
         11    1    3    3    0    0  0.15349012462E+02  0.12290014669E+02 -0.11983614454E+02  0.23027020210E+02  0.51100000000E-03 0. -1.
        -11    1    3    3    0    0  0.18581682188E+01  0.93345307828E+00 -0.20568812214E+01  0.29248733988E+01  0.51100000000E-03 0.  1.
        -12    1    3    3    0    0  0.20733058402E+02  0.54125109678E+01  0.41986422969E+01  0.21835374574E+02  0.00000000000E+00 0.  1.
</event>
<event>
 7    1  0.2414091E-009  0.4778727E+02  0.7816164E-02  0.1312668E+00
        -11   -1    0    0    0    0  0.00000000000E+00  0.00000000000E+00  0.45593999997E+02  0.45594000000E+02  0.51100000000E-03 0. -1.
         11   -1    0    0    0    0 -0.00000000000E+00 -0.00000000000E+00 -0.45593999997E+02  0.45594000000E+02  0.51100000000E-03 0.  1.
    9900012    2    1    2    0    0 -0.25160249964E+02 -0.32125034477E+02  0.14784012630E+02  0.47787273648E+02  0.20000011872E+02 0.  0.
         12    1    1    2    0    0  0.25160249964E+02  0.32125034477E+02 -0.14784012630E+02  0.43400726352E+02  0.00000000000E+00 0. -1.
         11    1    3    3    0    0 -0.13274310557E+02 -0.40413608151E+01  0.31273105089E+01  0.14223923133E+02  0.51100000000E-03 0. -1.
        -11    1    3    3    0    0 -0.98755042315E+00 -0.52543208884E+01  0.51932376073E+01  0.74533791628E+01  0.51100000000E-03 0.  1.
        -12    1    3    3    0    0 -0.10898388984E+02 -0.22829352774E+02  0.64634645134E+01  0.26109971353E+02  0.00000000000E+00 0.  1.
</event>
<event>
 7    1  0.2414091E-009  0.4778727E+02  0.7816164E-02  0.1312668E+00
        -11   -1    0    0    0    0  0.00000000000E+00  0.00000000000E+00  0.45593999997E+02  0.45594000000E+02  0.51100000000E-03 0. -1.
         11   -1    0    0    0    0 -0.00000000000E+00 -0.00000000000E+00 -0.45593999997E+02  0.45594000000E+02  0.51100000000E-03 0.  1.
    9900012    2    1    2    0    0  0.53992848780E+00  0.51808963022E+01 -0.43087007011E+02  0.47787269794E+02  0.19999994299E+02 0.  0.
         12    1    1    2    0    0 -0.53992848780E+00 -0.51808963022E+01  0.43087007011E+02  0.43400730206E+02  0.00000000000E+00 0. -1.
         11    1    3    3    0    0  0.10209462571E+00  0.66472439385E+01 -0.19896870958E+02  0.20978125499E+02  0.51100000000E-03 0. -1.
        -11    1    3    3    0    0 -0.28186829243E+01 -0.24514113955E+01 -0.23105838940E+02  0.23405857913E+02  0.51100000000E-03 0.  1.
        -12    1    3    3    0    0  0.32565167864E+01  0.98506375922E+00 -0.84297112121E-01  0.34032863813E+01  0.00000000000E+00 0.  1.
</event>
<event>
 7    1  0.2414091E-009  0.4778727E+02  0.7816164E-02  0.1312668E+00
        -11   -1    0    0    0    0  0.00000000000E+00  0.00000000000E+00  0.45593999997E+02  0.45594000000E+02  0.51100000000E-03 0. -1.
         11   -1    0    0    0    0 -0.00000000000E+00 -0.00000000000E+00 -0.45593999997E+02  0.45594000000E+02  0.51100000000E-03 0.  1.
    9900012    2    1    2    0    0  0.12040668278E+02 -0.18122267421E+02 -0.37553013849E+02  0.47787272838E+02  0.20000008177E+02 0.  0.
         12    1    1    2    0    0 -0.12040668278E+02  0.18122267421E+02  0.37553013849E+02  0.43400727162E+02  0.00000000000E+00 0. -1.
         11    1    3    3    0    0 -0.34167693123E+01 -0.50837441826E+01 -0.42981384565E+01  0.74828311420E+01  0.51100000000E-03 0. -1.
        -11    1    3    3    0    0  0.31194148213E+01  0.71594740138E+00 -0.14320739326E+01  0.35063036832E+01  0.51100000000E-03 0.  1.
        -12    1    3    3    0    0  0.12338022769E+02 -0.13754470640E+02 -0.31822801460E+02  0.36798138013E+02  0.00000000000E+00 0.  1.
</event>
<event>
 7    1  0.2414091E-009  0.4778727E+02  0.7816164E-02  0.1312668E+00
        -11   -1    0    0    0    0  0.00000000000E+00  0.00000000000E+00  0.45593999997E+02  0.45594000000E+02  0.51100000000E-03 0. -1.
         11   -1    0    0    0    0 -0.00000000000E+00 -0.00000000000E+00 -0.45593999997E+02  0.45594000000E+02  0.51100000000E-03 0.  1.
    9900012    2    1    2    0    0 -0.34218298894E+02  0.39094222239E+01 -0.26409233611E+02  0.47787272112E+02  0.20000004865E+02 0.  0.
         12    1    1    2    0    0  0.34218298894E+02 -0.39094222239E+01  0.26409233611E+02  0.43400727888E+02  0.00000000000E+00 0. -1.
         11    1    3    3    0    0 -0.95824224627E+01 -0.12147977628E+01 -0.10200916421E+02  0.14048389585E+02  0.51100000000E-03 0. -1.
        -11    1    3    3    0    0 -0.25485407893E+02  0.78105373871E+01 -0.13716148095E+02  0.29977378614E+02  0.51100000000E-03 0.  1.
        -12    1    3    3    0    0  0.84953146188E+00 -0.26863174004E+01 -0.24921690954E+01  0.37615039120E+01  0.00000000000E+00 0.  1.
</event>
<event>
 7    1  0.2414091E-009  0.4778727E+02  0.7816164E-02  0.1312668E+00
        -11   -1    0    0    0    0  0.00000000000E+00  0.00000000000E+00  0.45593999997E+02  0.45594000000E+02  0.51100000000E-03 0.  1.
         11   -1    0    0    0    0 -0.00000000000E+00 -0.00000000000E+00 -0.45593999997E+02  0.45594000000E+02  0.51100000000E-03 0. -1.
    9900012    2    1    2    0    0  0.34276290971E+02 -0.25866036532E+02 -0.63013739752E+01  0.47787270945E+02  0.19999999545E+02 0.  0.
         12    1    1    2    0    0 -0.34276290971E+02  0.25866036532E+02  0.63013739752E+01  0.43400729055E+02  0.00000000000E+00 0. -1.
         11    1    3    3    0    0  0.13652533924E+02 -0.36360777129E+01 -0.50880606918E+01  0.15016694229E+02  0.51100000000E-03 0. -1.
        -11    1    3    3    0    0  0.54857546311E+01 -0.24226320832E+01 -0.46721583005E+01  0.76020861301E+01  0.51100000000E-03 0.  1.
        -12    1    3    3    0    0  0.15138002415E+02 -0.19807326735E+02  0.34588450171E+01  0.25168490586E+02  0.00000000000E+00 0.  1.
</event>
<event>
 7    1  0.2414091E-009  0.4778728E+02  0.7816164E-02  0.1312668E+00
        -11   -1    0    0    0    0  0.00000000000E+00  0.00000000000E+00  0.45593999997E+02  0.45594000000E+02  0.51100000000E-03 0. -1.
         11   -1    0    0    0    0 -0.00000000000E+00 -0.00000000000E+00 -0.45593999997E+02  0.45594000000E+02  0.51100000000E-03 0.  1.
    9900012    2    1    2    0    0 -0.33973191476E+02  0.14029506123E+02 -0.23078514540E+02  0.47787278641E+02  0.20000034635E+02 0.  0.
         12    1    1    2    0    0  0.33973191476E+02 -0.14029506123E+02  0.23078514540E+02  0.43400721359E+02  0.00000000000E+00 0. -1.
         11    1    3    3    0    0 -0.26560638287E+01  0.25788004888E+01 -0.69274871141E+01  0.78546142490E+01  0.51100000000E-03 0. -1.
        -11    1    3    3    0    0  0.14715516880E+01 -0.85731543560E-01 -0.18027554583E+01  0.23286781167E+01  0.51100000000E-03 0.  1.
         12    1    3    3    0    0 -0.32788679335E+02  0.11536437178E+02 -0.14348271968E+02  0.37603986275E+02  0.00000000000E+00 0. -1.
</event>
<event>
 7    1  0.2414091E-009  0.4778727E+02  0.7816164E-02  0.1312668E+00
        -11   -1    0    0    0    0  0.00000000000E+00  0.00000000000E+00  0.45593999997E+02  0.45594000000E+02  0.51100000000E-03 0.  1.
         11   -1    0    0    0    0 -0.00000000000E+00 -0.00000000000E+00 -0.45593999997E+02  0.45594000000E+02  0.51100000000E-03 0. -1.
    9900012    2    1    2    0    0  0.19717510895E+02  0.38266053454E+02  0.55274056587E+01  0.47787270788E+02  0.19999998829E+02 0.  0.
         12    1    1    2    0    0 -0.19717510895E+02 -0.38266053454E+02 -0.55274056587E+01  0.43400729212E+02  0.00000000000E+00 0. -1.
         11    1    3    3    0    0 -0.14831885557E+01  0.41675499644E+01  0.28006897050E+01  0.52356646266E+01  0.51100000000E-03 0. -1.
        -11    1    3    3    0    0  0.27843973259E+01 -0.78492668319E+00 -0.63662200520E+00  0.29621387890E+01  0.51100000000E-03 0.  1.
        -12    1    3    3    0    0  0.18416302124E+02  0.34883430173E+02  0.33633379588E+01  0.39589467372E+02  0.00000000000E+00 0.  1.
</event>
<event>
 7    1  0.2414091E-009  0.4778727E+02  0.7816164E-02  0.1312668E+00
        -11   -1    0    0    0    0  0.00000000000E+00  0.00000000000E+00  0.45593999997E+02  0.45594000000E+02  0.51100000000E-03 0.  1.
         11   -1    0    0    0    0 -0.00000000000E+00 -0.00000000000E+00 -0.45593999997E+02  0.45594000000E+02  0.51100000000E-03 0. -1.
    9900012    2    1    2    0    0  0.29108522459E+02  0.29466319436E+02  0.12963543971E+02  0.47787268058E+02  0.19999986383E+02 0.  0.
         12    1    1    2    0    0 -0.29108522459E+02 -0.29466319436E+02 -0.12963543971E+02  0.43400731942E+02  0.00000000000E+00 0. -1.
         11    1    3    3    0    0  0.10706909287E+02  0.10498176119E+02  0.14050600309E+02  0.20549184354E+02  0.51100000000E-03 0. -1.
        -11    1    3    3    0    0 -0.54040962171E+00  0.36092313268E+00  0.10827996292E+00  0.65881171698E+00  0.51100000000E-03 0.  1.
        -12    1    3    3    0    0  0.18942022794E+02  0.18607220184E+02 -0.11953363006E+01  0.26579271987E+02  0.00000000000E+00 0.  1.
</event>
<event>
 7    1  0.2414091E-009  0.4778725E+02  0.7816164E-02  0.1312668E+00
        -11   -1    0    0    0    0  0.00000000000E+00  0.00000000000E+00  0.45593999997E+02  0.45594000000E+02  0.51100000000E-03 0.  1.
         11   -1    0    0    0    0 -0.00000000000E+00 -0.00000000000E+00 -0.45593999997E+02  0.45594000000E+02  0.51100000000E-03 0. -1.
    9900012    2    1    2    0    0 -0.31052407274E+02  0.29087261507E+02 -0.85617888008E+01  0.47787251079E+02  0.19999908968E+02 0.  0.
         12    1    1    2    0    0  0.31052407274E+02 -0.29087261507E+02  0.85617888008E+01  0.43400748921E+02  0.00000000000E+00 0. -1.
         11    1    3    3    0    0 -0.76279210224E+01  0.19599124574E+02 -0.74456286482E+01  0.22310272285E+02  0.51100000000E-03 0. -1.
        -11    1    3    3    0    0 -0.46919511812E+01  0.31780828248E+01  0.15822727412E+00  0.56691844616E+01  0.51100000000E-03 0.  1.
         12    1    3    3    0    0 -0.18732535070E+02  0.63100541085E+01 -0.12743874266E+01  0.19807794332E+02  0.00000000000E+00 0. -1.
</event>
<event>
 7    1  0.2414091E-009  0.4778727E+02  0.7816164E-02  0.1312668E+00
        -11   -1    0    0    0    0  0.00000000000E+00  0.00000000000E+00  0.45593999997E+02  0.45594000000E+02  0.51100000000E-03 0.  1.
         11   -1    0    0    0    0 -0.00000000000E+00 -0.00000000000E+00 -0.45593999997E+02  0.45594000000E+02  0.51100000000E-03 0. -1.
    9900012    2    1    2    0    0 -0.27584314093E+02  0.33431944395E+02  0.22435945900E+01  0.47787274123E+02  0.20000014034E+02 0.  0.
         12    1    1    2    0    0  0.27584314093E+02 -0.33431944395E+02 -0.22435945900E+01  0.43400725877E+02  0.00000000000E+00 0. -1.
         11    1    3    3    0    0 -0.90482968543E+01  0.20139982003E+02 -0.20130460758E+01  0.22170766920E+02  0.51100000000E-03 0.  1.
        -11    1    3    3    0    0 -0.85157831916E+01  0.12046634707E+02  0.25408499017E+00  0.14754813810E+02  0.51100000000E-03 0. -1.
        -12    1    3    3    0    0 -0.10020234048E+02  0.12453276840E+01  0.40025556757E+01  0.10861693392E+02  0.00000000000E+00 0.  1.
</event>
<event>
 7    1  0.2414091E-009  0.4778728E+02  0.7816164E-02  0.1312668E+00
        -11   -1    0    0    0    0  0.00000000000E+00  0.00000000000E+00  0.45593999997E+02  0.45594000000E+02  0.51100000000E-03 0. -1.
         11   -1    0    0    0    0 -0.00000000000E+00 -0.00000000000E+00 -0.45593999997E+02  0.45594000000E+02  0.51100000000E-03 0.  1.
    9900012    2    1    2    0    0  0.42289092232E+02 -0.32567012213E+01 -0.92005163323E+01  0.47787275059E+02  0.20000018303E+02 0.  0.
         12    1    1    2    0    0 -0.42289092232E+02  0.32567012213E+01  0.92005163323E+01  0.43400724941E+02  0.00000000000E+00 0. -1.
         11    1    3    3    0    0  0.16746182691E+02  0.15977316633E+01  0.35785159295E+01  0.17198638252E+02  0.51100000000E-03 0. -1.
        -11    1    3    3    0    0 -0.70488288872E+00  0.34462182940E+00  0.25523435785E+00  0.82508722609E+00  0.51100000000E-03 0.  1.
        -12    1    3    3    0    0  0.26247792429E+02 -0.51990547140E+01 -0.13034266620E+02  0.29763549581E+02  0.00000000000E+00 0.  1.
</event>
<event>
 7    1  0.2414091E-009  0.4778727E+02  0.7816164E-02  0.1312668E+00
        -11   -1    0    0    0    0  0.00000000000E+00  0.00000000000E+00  0.45593999997E+02  0.45594000000E+02  0.51100000000E-03 0. -1.
         11   -1    0    0    0    0 -0.00000000000E+00 -0.00000000000E+00 -0.45593999997E+02  0.45594000000E+02  0.51100000000E-03 0.  1.
    9900012    2    1    2    0    0 -0.35841030377E+02  0.20857462051E+02  0.12806638824E+02  0.47787272130E+02  0.20000004949E+02 0.  0.
         12    1    1    2    0    0  0.35841030377E+02 -0.20857462051E+02 -0.12806638824E+02  0.43400727870E+02  0.00000000000E+00 0. -1.
         11    1    3    3    0    0 -0.53120067754E+01  0.62313517648E+01  0.47066103537E+00  0.82017487690E+01  0.51100000000E-03 0. -1.
        -11    1    3    3    0    0 -0.24614309258E+02  0.17398801767E+02  0.13364665414E+02  0.32972667546E+02  0.51100000000E-03 0.  1.
         12    1    3    3    0    0 -0.59147143430E+01 -0.27726914802E+01 -0.10286876251E+01  0.66128558153E+01  0.00000000000E+00 0. -1.
</event>
<event>
 7    1  0.2414091E-009  0.4778727E+02  0.7816164E-02  0.1312668E+00
        -11   -1    0    0    0    0  0.00000000000E+00  0.00000000000E+00  0.45593999997E+02  0.45594000000E+02  0.51100000000E-03 0. -1.
         11   -1    0    0    0    0 -0.00000000000E+00 -0.00000000000E+00 -0.45593999997E+02  0.45594000000E+02  0.51100000000E-03 0.  1.
    9900012    2    1    2    0    0  0.37413542996E+02  0.14451997848E+02  0.16582817901E+02  0.47787270849E+02  0.19999999109E+02 0.  0.
         12    1    1    2    0    0 -0.37413542996E+02 -0.14451997848E+02 -0.16582817901E+02  0.43400729151E+02  0.00000000000E+00 0. -1.
         11    1    3    3    0    0  0.12647153051E+02  0.19911922832E+01  0.47141232168E+01  0.13643250528E+02  0.51100000000E-03 0. -1.
        -11    1    3    3    0    0  0.23351242862E+02  0.15871809062E+02  0.11279942530E+02  0.30404472859E+02  0.51100000000E-03 0.  1.
         12    1    3    3    0    0  0.14151470828E+01 -0.34110034971E+01  0.58875215429E+00  0.37395474623E+01  0.00000000000E+00 0. -1.
</event>
<event>
 7    1  0.2414091E-009  0.4778727E+02  0.7816164E-02  0.1312668E+00
        -11   -1    0    0    0    0  0.00000000000E+00  0.00000000000E+00  0.45593999997E+02  0.45594000000E+02  0.51100000000E-03 0. -1.
         11   -1    0    0    0    0 -0.00000000000E+00 -0.00000000000E+00 -0.45593999997E+02  0.45594000000E+02  0.51100000000E-03 0.  1.
    9900012    2    1    2    0    0 -0.16303403246E+02  0.40195028042E+02 -0.14771685220E+01  0.47787271163E+02  0.20000000541E+02 0.  0.
         12    1    1    2    0    0  0.16303403246E+02 -0.40195028042E+02  0.14771685220E+01  0.43400728837E+02  0.00000000000E+00 0. -1.
         11    1    3    3    0    0 -0.67993206692E+01  0.58593250914E+01  0.16396403249E+01  0.91241916215E+01  0.51100000000E-03 0. -1.
        -11    1    3    3    0    0 -0.41085658322E+01  0.23718779317E+02  0.45515689869E+01  0.24498522119E+02  0.51100000000E-03 0.  1.
         12    1    3    3    0    0 -0.53955167446E+01  0.10616923633E+02 -0.76683778338E+01  0.14164557423E+02  0.00000000000E+00 0. -1.
</event>
<event>
 7    1  0.2414091E-009  0.4778728E+02  0.7816164E-02  0.1312668E+00
        -11   -1    0    0    0    0  0.00000000000E+00  0.00000000000E+00  0.45593999997E+02  0.45594000000E+02  0.51100000000E-03 0.  1.
         11   -1    0    0    0    0 -0.00000000000E+00 -0.00000000000E+00 -0.45593999997E+02  0.45594000000E+02  0.51100000000E-03 0. -1.
    9900012    2    1    2    0    0  0.32399403477E+02 -0.26272083823E+02  0.11986606081E+02  0.47787280427E+02  0.20000042780E+02 0.  0.
         12    1    1    2    0    0 -0.32399403477E+02  0.26272083823E+02 -0.11986606081E+02  0.43400719573E+02  0.00000000000E+00 0. -1.
         11    1    3    3    0    0  0.24251260054E+01  0.25921960504E+01  0.22853231551E+00  0.35570976633E+01  0.51100000000E-03 0. -1.
        -11    1    3    3    0    0  0.12875459511E+02 -0.70072829655E+01  0.62633000549E+01  0.15940777899E+02  0.51100000000E-03 0.  1.
        -12    1    3    3    0    0  0.17098817961E+02 -0.21856996908E+02  0.54947737105E+01  0.28289404865E+02  0.00000000000E+00 0.  1.
</event>
<event>
 7    1  0.2414091E-009  0.4778727E+02  0.7816164E-02  0.1312668E+00
        -11   -1    0    0    0    0  0.00000000000E+00  0.00000000000E+00  0.45593999997E+02  0.45594000000E+02  0.51100000000E-03 0.  1.
         11   -1    0    0    0    0 -0.00000000000E+00 -0.00000000000E+00 -0.45593999997E+02  0.45594000000E+02  0.51100000000E-03 0. -1.
    9900012    2    1    2    0    0 -0.38853082228E+02 -0.18056555531E+02  0.69297866347E+01  0.47787272597E+02  0.20000007079E+02 0.  0.
         12    1    1    2    0    0  0.38853082228E+02  0.18056555531E+02 -0.69297866347E+01  0.43400727403E+02  0.00000000000E+00 0. -1.
         11    1    3    3    0    0 -0.10758813828E+01  0.19302495915E+01  0.17457486732E+01  0.28162071881E+01  0.51100000000E-03 0. -1.
        -11    1    3    3    0    0 -0.18002834447E+01  0.18535977918E+01  0.30146806685E+00  0.26014858277E+01  0.51100000000E-03 0.  1.
        -12    1    3    3    0    0 -0.35976917401E+02 -0.21840402914E+02  0.48825698946E+01  0.42369579581E+02  0.00000000000E+00 0.  1.
</event>
<event>
 7    1  0.2414091E-009  0.4778727E+02  0.7816164E-02  0.1312668E+00
        -11   -1    0    0    0    0  0.00000000000E+00  0.00000000000E+00  0.45593999997E+02  0.45594000000E+02  0.51100000000E-03 0. -1.
         11   -1    0    0    0    0 -0.00000000000E+00 -0.00000000000E+00 -0.45593999997E+02  0.45594000000E+02  0.51100000000E-03 0.  1.
    9900012    2    1    2    0    0  0.16571549449E+02 -0.30140123133E+02 -0.26468472762E+02  0.47787270468E+02  0.19999997370E+02 0.  0.
         12    1    1    2    0    0 -0.16571549449E+02  0.30140123133E+02  0.26468472762E+02  0.43400729532E+02  0.00000000000E+00 0. -1.
         11    1    3    3    0    0 -0.15399129169E+01 -0.69469607084E+01 -0.33880069851E+01  0.78810016158E+01  0.51100000000E-03 0. -1.
        -11    1    3    3    0    0  0.24454524051E+01 -0.13748986922E+02 -0.12686725632E+02  0.18867111235E+02  0.51100000000E-03 0.  1.
        -12    1    3    3    0    0  0.15666009960E+02 -0.94441755022E+01 -0.10393740145E+02  0.21039157616E+02  0.00000000000E+00 0.  1.
</event>
<event>
 7    1  0.2414091E-009  0.4778726E+02  0.7816164E-02  0.1312668E+00
        -11   -1    0    0    0    0  0.00000000000E+00  0.00000000000E+00  0.45593999997E+02  0.45594000000E+02  0.51100000000E-03 0.  1.
         11   -1    0    0    0    0 -0.00000000000E+00 -0.00000000000E+00 -0.45593999997E+02  0.45594000000E+02  0.51100000000E-03 0. -1.
    9900012    2    1    2    0    0 -0.20161739926E+02  0.33884400116E+02  0.18137681339E+02  0.47787264840E+02  0.19999971713E+02 0.  0.
         12    1    1    2    0    0  0.20161739926E+02 -0.33884400116E+02 -0.18137681339E+02  0.43400735160E+02  0.00000000000E+00 0. -1.
         11    1    3    3    0    0 -0.13180418292E+00  0.64047581600E+01  0.52051321965E+01  0.82541929269E+01  0.51100000000E-03 0. -1.
        -11    1    3    3    0    0 -0.13956167566E+02  0.22417460116E+02  0.16197632855E+02  0.30978709488E+02  0.51100000000E-03 0.  1.
         12    1    3    3    0    0 -0.60737681771E+01  0.50621818399E+01 -0.32650837128E+01  0.85543624251E+01  0.00000000000E+00 0. -1.
</event>
<event>
 7    1  0.2414091E-009  0.4778727E+02  0.7816164E-02  0.1312668E+00
        -11   -1    0    0    0    0  0.00000000000E+00  0.00000000000E+00  0.45593999997E+02  0.45594000000E+02  0.51100000000E-03 0.  1.
         11   -1    0    0    0    0 -0.00000000000E+00 -0.00000000000E+00 -0.45593999997E+02  0.45594000000E+02  0.51100000000E-03 0. -1.
    9900012    2    1    2    0    0  0.27154684073E+02 -0.32082258856E+02  0.10815496754E+02  0.47787272236E+02  0.20000005432E+02 0.  0.
         12    1    1    2    0    0 -0.27154684073E+02  0.32082258856E+02 -0.10815496754E+02  0.43400727764E+02  0.00000000000E+00 0. -1.
         11    1    3    3    0    0  0.32457692744E+01 -0.25202170205E+01  0.52840489836E+01  0.66938543408E+01  0.51100000000E-03 0. -1.
        -11    1    3    3    0    0  0.33387501163E+01  0.13236537395E+01  0.84795499239E+00  0.36903034416E+01  0.51100000000E-03 0.  1.
        -12    1    3    3    0    0  0.20570164682E+02 -0.30885695575E+02  0.46834927781E+01  0.37403114453E+02  0.00000000000E+00 0.  1.
</event>
<event>
 7    1  0.2414091E-009  0.4778727E+02  0.7816164E-02  0.1312668E+00
        -11   -1    0    0    0    0  0.00000000000E+00  0.00000000000E+00  0.45593999997E+02  0.45594000000E+02  0.51100000000E-03 0.  1.
         11   -1    0    0    0    0 -0.00000000000E+00 -0.00000000000E+00 -0.45593999997E+02  0.45594000000E+02  0.51100000000E-03 0. -1.
    9900012    2    1    2    0    0  0.82368274887E+01 -0.35842409638E+02  0.23045597994E+02  0.47787271405E+02  0.20000001643E+02 0.  0.
         12    1    1    2    0    0 -0.82368274887E+01  0.35842409638E+02 -0.23045597994E+02  0.43400728595E+02  0.00000000000E+00 0. -1.
         11    1    3    3    0    0  0.72720768731E+01 -0.16853939750E+02  0.68657688758E+01  0.19597886867E+02  0.51100000000E-03 0. -1.
        -11    1    3    3    0    0  0.62257246264E+01 -0.72846925774E+01  0.10319814144E+02  0.14082789401E+02  0.51100000000E-03 0.  1.
         12    1    3    3    0    0 -0.52609740108E+01 -0.11703777310E+02  0.58600149736E+01  0.14106595137E+02  0.00000000000E+00 0. -1.
</event>
<event>
 7    1  0.2414091E-009  0.4778727E+02  0.7816164E-02  0.1312668E+00
        -11   -1    0    0    0    0  0.00000000000E+00  0.00000000000E+00  0.45593999997E+02  0.45594000000E+02  0.51100000000E-03 0. -1.
         11   -1    0    0    0    0 -0.00000000000E+00 -0.00000000000E+00 -0.45593999997E+02  0.45594000000E+02  0.51100000000E-03 0.  1.
    9900012    2    1    2    0    0 -0.37614692492E+02 -0.76037475461E+01 -0.20271686004E+02  0.47787270496E+02  0.19999997499E+02 0.  0.
         12    1    1    2    0    0  0.37614692492E+02  0.76037475461E+01  0.20271686004E+02  0.43400729504E+02  0.00000000000E+00 0. -1.
         11    1    3    3    0    0 -0.32080485342E+01  0.19911921937E+00  0.13808311479E+01  0.34982736859E+01  0.51100000000E-03 0. -1.
        -11    1    3    3    0    0 -0.17168673943E+02 -0.11737066489E+02 -0.97087786704E+01  0.22951742380E+02  0.51100000000E-03 0.  1.
        -12    1    3    3    0    0 -0.17237970015E+02  0.39341997236E+01 -0.11943738482E+02  0.21337254430E+02  0.00000000000E+00 0.  1.
</event>
<event>
 7    1  0.2414091E-009  0.4778727E+02  0.7816164E-02  0.1312668E+00
        -11   -1    0    0    0    0  0.00000000000E+00  0.00000000000E+00  0.45593999997E+02  0.45594000000E+02  0.51100000000E-03 0.  1.
         11   -1    0    0    0    0 -0.00000000000E+00 -0.00000000000E+00 -0.45593999997E+02  0.45594000000E+02  0.51100000000E-03 0. -1.
    9900012    2    1    2    0    0 -0.29208383652E+02  0.28219271098E+02  0.15302492483E+02  0.47787271745E+02  0.20000003195E+02 0.  0.
         12    1    1    2    0    0  0.29208383652E+02 -0.28219271098E+02 -0.15302492483E+02  0.43400728255E+02  0.00000000000E+00 0. -1.
         11    1    3    3    0    0  0.15024381912E+01  0.47023773227E+00 -0.91420345897E+00  0.18204978080E+01  0.51100000000E-03 0. -1.
        -11    1    3    3    0    0 -0.10882573567E+01 -0.71458236374E+00  0.22069198811E+01  0.25623090469E+01  0.51100000000E-03 0.  1.
        -12    1    3    3    0    0 -0.29622564487E+02  0.28463615729E+02  0.14009776061E+02  0.43404464890E+02  0.00000000000E+00 0.  1.
</event>
<event>
 7    1  0.2414091E-009  0.4778727E+02  0.7816164E-02  0.1312668E+00
        -11   -1    0    0    0    0  0.00000000000E+00  0.00000000000E+00  0.45593999997E+02  0.45594000000E+02  0.51100000000E-03 0.  1.
         11   -1    0    0    0    0 -0.00000000000E+00 -0.00000000000E+00 -0.45593999997E+02  0.45594000000E+02  0.51100000000E-03 0. -1.
    9900012    2    1    2    0    0 -0.17230684349E+02  0.24000256189E+02  0.31791736821E+02  0.47787270624E+02  0.19999998085E+02 0.  0.
         12    1    1    2    0    0  0.17230684349E+02 -0.24000256189E+02 -0.31791736821E+02  0.43400729376E+02  0.00000000000E+00 0. -1.
         11    1    3    3    0    0 -0.41861722760E+01  0.32463792543E+00  0.57867527875E+01  0.71495409777E+01  0.51100000000E-03 0. -1.
        -11    1    3    3    0    0 -0.15782487350E+02  0.23566716135E+02  0.24663809966E+02  0.37586972991E+02  0.51100000000E-03 0.  1.
         12    1    3    3    0    0  0.27379752775E+01  0.10890212876E+00  0.13411740672E+01  0.30507566557E+01  0.00000000000E+00 0. -1.
</event>
<event>
 7    1  0.2414091E-009  0.4778727E+02  0.7816164E-02  0.1312668E+00
        -11   -1    0    0    0    0  0.00000000000E+00  0.00000000000E+00  0.45593999997E+02  0.45594000000E+02  0.51100000000E-03 0. -1.
         11   -1    0    0    0    0 -0.00000000000E+00 -0.00000000000E+00 -0.45593999997E+02  0.45594000000E+02  0.51100000000E-03 0.  1.
    9900012    2    1    2    0    0  0.24724001691E+02 -0.73091501980E+01 -0.34913080629E+02  0.47787272641E+02  0.20000007280E+02 0.  0.
         12    1    1    2    0    0 -0.24724001691E+02  0.73091501980E+01  0.34913080629E+02  0.43400727359E+02  0.00000000000E+00 0. -1.
         11    1    3    3    0    0  0.79695468430E+01 -0.75897248668E+01 -0.13509172780E+02  0.17424561685E+02  0.51100000000E-03 0. -1.
        -11    1    3    3    0    0  0.15324001194E+02 -0.43018891091E+01 -0.19566401314E+02  0.25222516194E+02  0.51100000000E-03 0.  1.
         12    1    3    3    0    0  0.14304536546E+01  0.45824637779E+01 -0.18375065354E+01  0.51401947630E+01  0.00000000000E+00 0. -1.
</event>
<event>
 7    1  0.2414091E-009  0.4778727E+02  0.7816164E-02  0.1312668E+00
        -11   -1    0    0    0    0  0.00000000000E+00  0.00000000000E+00  0.45593999997E+02  0.45594000000E+02  0.51100000000E-03 0.  1.
         11   -1    0    0    0    0 -0.00000000000E+00 -0.00000000000E+00 -0.45593999997E+02  0.45594000000E+02  0.51100000000E-03 0. -1.
    9900012    2    1    2    0    0 -0.35189585393E+02 -0.25402914763E+02  0.90273447599E-01  0.47787272496E+02  0.20000006618E+02 0.  0.
         12    1    1    2    0    0  0.35189585393E+02  0.25402914763E+02 -0.90273447599E-01  0.43400727504E+02  0.00000000000E+00 0. -1.
         11    1    3    3    0    0 -0.10503569282E+02 -0.37750434253E+01  0.29166416767E+01  0.11536148380E+02  0.51100000000E-03 0. -1.
        -11    1    3    3    0    0 -0.23615513903E+02 -0.12153451889E+02 -0.12652808394E+01  0.26589468321E+02  0.51100000000E-03 0.  1.
         12    1    3    3    0    0 -0.10705022082E+01 -0.94744194481E+01 -0.15610873897E+01  0.96616557947E+01  0.00000000000E+00 0. -1.
</event>
<event>
 7    1  0.2414091E-009  0.4778725E+02  0.7816164E-02  0.1312668E+00
        -11   -1    0    0    0    0  0.00000000000E+00  0.00000000000E+00  0.45593999997E+02  0.45594000000E+02  0.51100000000E-03 0.  1.
         11   -1    0    0    0    0 -0.00000000000E+00 -0.00000000000E+00 -0.45593999997E+02  0.45594000000E+02  0.51100000000E-03 0. -1.
    9900012    2    1    2    0    0  0.25639853703E+01 -0.41826307744E+02  0.11296487805E+02  0.47787254878E+02  0.19999926288E+02 0.  0.
         12    1    1    2    0    0 -0.25639853703E+01  0.41826307744E+02 -0.11296487805E+02  0.43400745122E+02  0.00000000000E+00 0. -1.
         11    1    3    3    0    0  0.46039019717E+01 -0.27273289134E+01  0.13782798948E+01  0.55257481029E+01  0.51100000000E-03 0. -1.
        -11    1    3    3    0    0  0.31498647960E-01 -0.13273520726E+02  0.95472509513E+01  0.16350453988E+02  0.51100000000E-03 0.  1.
         12    1    3    3    0    0 -0.20714152494E+01 -0.25825458105E+02  0.37095695869E+00  0.25911052787E+02  0.00000000000E+00 0. -1.
</event>
<event>
 7    1  0.2414091E-009  0.4778727E+02  0.7816164E-02  0.1312668E+00
        -11   -1    0    0    0    0  0.00000000000E+00  0.00000000000E+00  0.45593999997E+02  0.45594000000E+02  0.51100000000E-03 0.  1.
         11   -1    0    0    0    0 -0.00000000000E+00 -0.00000000000E+00 -0.45593999997E+02  0.45594000000E+02  0.51100000000E-03 0. -1.
    9900012    2    1    2    0    0 -0.24678204086E+02  0.68841080017E+01  0.35031684315E+02  0.47787267220E+02  0.19999982563E+02 0.  0.
         12    1    1    2    0    0  0.24678204086E+02 -0.68841080017E+01 -0.35031684315E+02  0.43400732780E+02  0.00000000000E+00 0. -1.
         11    1    3    3    0    0 -0.19263488279E+01  0.48441970260E+01  0.50487001701E+00  0.52375527328E+01  0.51100000000E-03 0. -1.
        -11    1    3    3    0    0 -0.30689872448E-01  0.21200465951E+01  0.35171212571E+01  0.41067848290E+01  0.51100000000E-03 0.  1.
         12    1    3    3    0    0 -0.22721165386E+02 -0.80135619413E-01  0.31009693041E+02  0.38442929658E+02  0.00000000000E+00 0. -1.
</event>
<event>
 7    1  0.2414091E-009  0.4778728E+02  0.7816164E-02  0.1312668E+00
        -11   -1    0    0    0    0  0.00000000000E+00  0.00000000000E+00  0.45593999997E+02  0.45594000000E+02  0.51100000000E-03 0. -1.
         11   -1    0    0    0    0 -0.00000000000E+00 -0.00000000000E+00 -0.45593999997E+02  0.45594000000E+02  0.51100000000E-03 0.  1.
    9900012    2    1    2    0    0  0.16676481585E-01 -0.28936220239E+02 -0.32346826006E+02  0.47787282582E+02  0.20000052602E+02 0.  0.
         12    1    1    2    0    0 -0.16676481585E-01  0.28936220239E+02  0.32346826006E+02  0.43400717418E+02  0.00000000000E+00 0. -1.
         11    1    3    3    0    0 -0.24150029044E+01 -0.39215211005E+01 -0.35359015924E+01  0.58063040828E+01  0.51100000000E-03 0. -1.
        -11    1    3    3    0    0 -0.22476387149E+01 -0.17631508534E+02 -0.81630685165E+01  0.19559081288E+02  0.51100000000E-03 0.  1.
         12    1    3    3    0    0  0.46793181009E+01 -0.73831906044E+01 -0.20647855897E+02  0.22421897211E+02  0.00000000000E+00 0. -1.
</event>
<event>
 7    1  0.2414091E-009  0.4778727E+02  0.7816164E-02  0.1312668E+00
        -11   -1    0    0    0    0  0.00000000000E+00  0.00000000000E+00  0.45593999997E+02  0.45594000000E+02  0.51100000000E-03 0.  1.
         11   -1    0    0    0    0 -0.00000000000E+00 -0.00000000000E+00 -0.45593999997E+02  0.45594000000E+02  0.51100000000E-03 0. -1.
    9900012    2    1    2    0    0 -0.15861323129E+02 -0.12141239760E+01  0.40380287967E+02  0.47787270459E+02  0.19999997330E+02 0.  0.
         12    1    1    2    0    0  0.15861323129E+02  0.12141239760E+01 -0.40380287967E+02  0.43400729541E+02  0.00000000000E+00 0. -1.
         11    1    3    3    0    0 -0.65890450807E+01 -0.45047987233E+01  0.12231931916E+02  0.14605782597E+02  0.51100000000E-03 0. -1.
        -11    1    3    3    0    0 -0.90764495965E+01  0.12412921183E+01  0.29385016655E+02  0.30779895183E+02  0.51100000000E-03 0.  1.
         12    1    3    3    0    0 -0.19582845171E+00  0.20493826291E+01 -0.12366606045E+01  0.24015926785E+01  0.00000000000E+00 0. -1.
</event>
<event>
 7    1  0.2414091E-009  0.4778728E+02  0.7816164E-02  0.1312668E+00
        -11   -1    0    0    0    0  0.00000000000E+00  0.00000000000E+00  0.45593999997E+02  0.45594000000E+02  0.51100000000E-03 0. -1.
         11   -1    0    0    0    0 -0.00000000000E+00 -0.00000000000E+00 -0.45593999997E+02  0.45594000000E+02  0.51100000000E-03 0.  1.
    9900012    2    1    2    0    0 -0.29350610132E+00  0.15303136714E+02 -0.40612194037E+02  0.47787280609E+02  0.20000043609E+02 0.  0.
         12    1    1    2    0    0  0.29350610132E+00 -0.15303136714E+02  0.40612194037E+02  0.43400719391E+02  0.00000000000E+00 0. -1.
         11    1    3    3    0    0 -0.41552629293E+01  0.81588489714E+01 -0.56762013127E+01  0.10772756757E+02  0.51100000000E-03 0. -1.
        -11    1    3    3    0    0 -0.52569825424E+00 -0.19899709105E+01 -0.70573263383E+01  0.73513398905E+01  0.51100000000E-03 0.  1.
        -12    1    3    3    0    0  0.43874550822E+01  0.91342586529E+01 -0.27878666386E+02  0.29663183961E+02  0.00000000000E+00 0.  1.
</event>
<event>
 7    1  0.2414091E-009  0.4778727E+02  0.7816164E-02  0.1312668E+00
        -11   -1    0    0    0    0  0.00000000000E+00  0.00000000000E+00  0.45593999997E+02  0.45594000000E+02  0.51100000000E-03 0. -1.
         11   -1    0    0    0    0 -0.00000000000E+00 -0.00000000000E+00 -0.45593999997E+02  0.45594000000E+02  0.51100000000E-03 0.  1.
    9900012    2    1    2    0    0 -0.14137728464E+02  0.18901881706E+02 -0.36420695406E+02  0.47787267840E+02  0.19999985392E+02 0.  0.
         12    1    1    2    0    0  0.14137728464E+02 -0.18901881706E+02  0.36420695406E+02  0.43400732160E+02  0.00000000000E+00 0. -1.
         11    1    3    3    0    0  0.30559919616E+01 -0.69823963192E+00 -0.56248060361E+01  0.64393375946E+01  0.51100000000E-03 0. -1.
        -11    1    3    3    0    0 -0.34542494867E+01  0.55521484888E+00 -0.15130929894E+01  0.38117651686E+01  0.51100000000E-03 0.  1.
        -12    1    3    3    0    0 -0.13739470939E+02  0.19044906489E+02 -0.29282796380E+02  0.37536165077E+02  0.00000000000E+00 0.  1.
</event>
<event>
 7    1  0.2414091E-009  0.4778728E+02  0.7816164E-02  0.1312668E+00
        -11   -1    0    0    0    0  0.00000000000E+00  0.00000000000E+00  0.45593999997E+02  0.45594000000E+02  0.51100000000E-03 0.  1.
         11   -1    0    0    0    0 -0.00000000000E+00 -0.00000000000E+00 -0.45593999997E+02  0.45594000000E+02  0.51100000000E-03 0. -1.
    9900012    2    1    2    0    0 -0.17202641457E+02 -0.34896355413E+02  0.19233725979E+02  0.47787277550E+02  0.20000029659E+02 0.  0.
         12    1    1    2    0    0  0.17202641457E+02  0.34896355413E+02 -0.19233725979E+02  0.43400722450E+02  0.00000000000E+00 0. -1.
         11    1    3    3    0    0 -0.93776301465E+01 -0.11327390531E+02  0.57899299338E+01  0.15804208689E+02  0.51100000000E-03 0. -1.
        -11    1    3    3    0    0 -0.18471872606E+01 -0.83348413077E+01 -0.27412270367E+01  0.89663820089E+01  0.51100000000E-03 0.  1.
        -12    1    3    3    0    0 -0.59778240501E+01 -0.15234123574E+02  0.16185023082E+02  0.23016686851E+02  0.00000000000E+00 0.  1.
</event>
<event>
 7    1  0.2414091E-009  0.4778727E+02  0.7816164E-02  0.1312668E+00
        -11   -1    0    0    0    0  0.00000000000E+00  0.00000000000E+00  0.45593999997E+02  0.45594000000E+02  0.51100000000E-03 0.  1.
         11   -1    0    0    0    0 -0.00000000000E+00 -0.00000000000E+00 -0.45593999997E+02  0.45594000000E+02  0.51100000000E-03 0. -1.
    9900012    2    1    2    0    0  0.16496308674E+02 -0.39390473983E+02  0.77385706218E+01  0.47787272867E+02  0.20000008308E+02 0.  0.
         12    1    1    2    0    0 -0.16496308674E+02  0.39390473983E+02 -0.77385706218E+01  0.43400727133E+02  0.00000000000E+00 0. -1.
         11    1    3    3    0    0 -0.71572914225E+00 -0.75089501829E+01 -0.19995396189E+01  0.78035094671E+01  0.51100000000E-03 0. -1.
        -11    1    3    3    0    0 -0.69264357960E+00  0.10228906976E+01 -0.13903384786E+00  0.12431376350E+01  0.51100000000E-03 0.  1.
        -12    1    3    3    0    0  0.17904681396E+02 -0.32904414497E+02  0.98771440885E+01  0.38740625765E+02  0.00000000000E+00 0.  1.
</event>
<event>
 7    1  0.2414091E-009  0.4778726E+02  0.7816164E-02  0.1312668E+00
        -11   -1    0    0    0    0  0.00000000000E+00  0.00000000000E+00  0.45593999997E+02  0.45594000000E+02  0.51100000000E-03 0. -1.
         11   -1    0    0    0    0 -0.00000000000E+00 -0.00000000000E+00 -0.45593999997E+02  0.45594000000E+02  0.51100000000E-03 0.  1.
    9900012    2    1    2    0    0 -0.34199815289E+02 -0.14124191142E+02  0.22682676253E+02  0.47787263333E+02  0.19999964842E+02 0.  0.
         12    1    1    2    0    0  0.34199815289E+02  0.14124191142E+02 -0.22682676253E+02  0.43400736667E+02  0.00000000000E+00 0. -1.
         11    1    3    3    0    0 -0.19659020492E+02 -0.11227528549E+02  0.28420995733E+01  0.22816923856E+02  0.51100000000E-03 0. -1.
        -11    1    3    3    0    0 -0.38344717550E+01  0.54821945359E+00  0.43062390485E+01  0.57920128810E+01  0.51100000000E-03 0.  1.
         12    1    3    3    0    0 -0.10706323042E+02 -0.34448820471E+01  0.15534337631E+02  0.19178326597E+02  0.00000000000E+00 0. -1.
</event>
<event>
 7    1  0.2414091E-009  0.4778726E+02  0.7816164E-02  0.1312668E+00
        -11   -1    0    0    0    0  0.00000000000E+00  0.00000000000E+00  0.45593999997E+02  0.45594000000E+02  0.51100000000E-03 0. -1.
         11   -1    0    0    0    0 -0.00000000000E+00 -0.00000000000E+00 -0.45593999997E+02  0.45594000000E+02  0.51100000000E-03 0.  1.
    9900012    2    1    2    0    0  0.33632683107E+02 -0.25236053696E+02 -0.10752131312E+02  0.47787261447E+02  0.19999956243E+02 0.  0.
         12    1    1    2    0    0 -0.33632683107E+02  0.25236053696E+02  0.10752131312E+02  0.43400738553E+02  0.00000000000E+00 0. -1.
         11    1    3    3    0    0  0.10488180766E+02 -0.11060595993E+02 -0.87442438280E+01  0.17572720902E+02  0.51100000000E-03 0. -1.
        -11    1    3    3    0    0  0.16193084590E+02 -0.16144674265E+02 -0.23142751621E+01  0.22983088684E+02  0.51100000000E-03 0.  1.
         12    1    3    3    0    0  0.69514177508E+01  0.19692165619E+01  0.30638767792E+00  0.72314518613E+01  0.00000000000E+00 0. -1.
</event>
<event>
 7    1  0.2414091E-009  0.4778727E+02  0.7816164E-02  0.1312668E+00
        -11   -1    0    0    0    0  0.00000000000E+00  0.00000000000E+00  0.45593999997E+02  0.45594000000E+02  0.51100000000E-03 0.  1.
         11   -1    0    0    0    0 -0.00000000000E+00 -0.00000000000E+00 -0.45593999997E+02  0.45594000000E+02  0.51100000000E-03 0. -1.
    9900012    2    1    2    0    0  0.29064726447E+02  0.30265118870E+02 -0.11085462077E+02  0.47787271745E+02  0.20000003192E+02 0.  0.
         12    1    1    2    0    0 -0.29064726447E+02 -0.30265118870E+02  0.11085462077E+02  0.43400728255E+02  0.00000000000E+00 0. -1.
         11    1    3    3    0    0  0.87897482724E+01  0.11875285376E+01 -0.10662924036E+01  0.89334695651E+01  0.51100000000E-03 0. -1.
        -11    1    3    3    0    0 -0.13184850384E+01  0.28533639056E+01 -0.26081029445E+01  0.40843958678E+01  0.51100000000E-03 0.  1.
        -12    1    3    3    0    0  0.21593463213E+02  0.26224226426E+02 -0.74110667293E+01  0.34769406312E+02  0.00000000000E+00 0.  1.
</event>
<event>
 7    1  0.2414091E-009  0.4778727E+02  0.7816164E-02  0.1312668E+00
        -11   -1    0    0    0    0  0.00000000000E+00  0.00000000000E+00  0.45593999997E+02  0.45594000000E+02  0.51100000000E-03 0. -1.
         11   -1    0    0    0    0 -0.00000000000E+00 -0.00000000000E+00 -0.45593999997E+02  0.45594000000E+02  0.51100000000E-03 0.  1.
    9900012    2    1    2    0    0 -0.36141065998E+02  0.14108016540E+02 -0.19452775113E+02  0.47787271414E+02  0.20000001685E+02 0.  0.
         12    1    1    2    0    0  0.36141065998E+02 -0.14108016540E+02  0.19452775113E+02  0.43400728586E+02  0.00000000000E+00 0. -1.
         11    1    3    3    0    0 -0.16101166201E+01  0.28028074817E+01 -0.23564578588E+01  0.40001373991E+01  0.51100000000E-03 0. -1.
        -11    1    3    3    0    0 -0.30911458008E+02  0.36146025514E+01 -0.16601122568E+02  0.35272947971E+02  0.51100000000E-03 0.  1.
         12    1    3    3    0    0 -0.36194913704E+01  0.76906065066E+01 -0.49519468675E+00  0.85141860443E+01  0.00000000000E+00 0. -1.
</event>
<event>
 7    1  0.2414091E-009  0.4778728E+02  0.7816164E-02  0.1312668E+00
        -11   -1    0    0    0    0  0.00000000000E+00  0.00000000000E+00  0.45593999997E+02  0.45594000000E+02  0.51100000000E-03 0.  1.
         11   -1    0    0    0    0 -0.00000000000E+00 -0.00000000000E+00 -0.45593999997E+02  0.45594000000E+02  0.51100000000E-03 0. -1.
    9900012    2    1    2    0    0  0.33871451988E+01  0.11674562292E+02  0.41663590173E+02  0.47787275313E+02  0.20000019460E+02 0.  0.
         12    1    1    2    0    0 -0.33871451988E+01 -0.11674562292E+02 -0.41663590173E+02  0.43400724687E+02  0.00000000000E+00 0. -1.
         11    1    3    3    0    0  0.77229370079E+01  0.26936747555E+01  0.13853552041E+02  0.16087900551E+02  0.51100000000E-03 0. -1.
        -11    1    3    3    0    0  0.17133865425E+01 -0.52417086666E+00  0.12834141195E+02  0.12958612156E+02  0.51100000000E-03 0.  1.
         12    1    3    3    0    0 -0.60491783516E+01  0.95050584036E+01  0.14975896936E+02  0.18740762605E+02  0.00000000000E+00 0. -1.
</event>
<event>
 7    1  0.2414091E-009  0.4778727E+02  0.7816164E-02  0.1312668E+00
        -11   -1    0    0    0    0  0.00000000000E+00  0.00000000000E+00  0.45593999997E+02  0.45594000000E+02  0.51100000000E-03 0.  1.
         11   -1    0    0    0    0 -0.00000000000E+00 -0.00000000000E+00 -0.45593999997E+02  0.45594000000E+02  0.51100000000E-03 0. -1.
    9900012    2    1    2    0    0  0.17167184901E+02  0.38855037859E+02  0.88992814434E+01  0.47787269423E+02  0.19999992606E+02 0.  0.
         12    1    1    2    0    0 -0.17167184901E+02 -0.38855037859E+02 -0.88992814434E+01  0.43400730577E+02  0.00000000000E+00 0. -1.
         11    1    3    3    0    0  0.61842774984E+01  0.21710935799E+02  0.91933801654E+01  0.24374746370E+02  0.51100000000E-03 0. -1.
        -11    1    3    3    0    0  0.12014816820E+02  0.17557424635E+02  0.14720065700E+01  0.21325707178E+02  0.51100000000E-03 0.  1.
         12    1    3    3    0    0 -0.10319094170E+01 -0.41332257548E+00 -0.17661052920E+01  0.20868158756E+01  0.00000000000E+00 0. -1.
</event>
<event>
 7    1  0.2414091E-009  0.4778727E+02  0.7816164E-02  0.1312668E+00
        -11   -1    0    0    0    0  0.00000000000E+00  0.00000000000E+00  0.45593999997E+02  0.45594000000E+02  0.51100000000E-03 0.  1.
         11   -1    0    0    0    0 -0.00000000000E+00 -0.00000000000E+00 -0.45593999997E+02  0.45594000000E+02  0.51100000000E-03 0. -1.
    9900012    2    1    2    0    0 -0.22705428136E+02 -0.29809199259E+02  0.21897450013E+02  0.47787272537E+02  0.20000006804E+02 0.  0.
         12    1    1    2    0    0  0.22705428136E+02  0.29809199259E+02 -0.21897450013E+02  0.43400727463E+02  0.00000000000E+00 0. -1.
         11    1    3    3    0    0  0.80368058918E+00 -0.55310874714E+01  0.36212597758E+01  0.66597562816E+01  0.51100000000E-03 0. -1.
        -11    1    3    3    0    0 -0.11161125759E+02 -0.73039271796E+01  0.14673843607E+02  0.19830274000E+02  0.51100000000E-03 0.  1.
        -12    1    3    3    0    0 -0.12347982966E+02 -0.16974184608E+02  0.36023466298E+01  0.21297242255E+02  0.00000000000E+00 0.  1.
</event>
<event>
 7    1  0.2414091E-009  0.4778727E+02  0.7816164E-02  0.1312668E+00
        -11   -1    0    0    0    0  0.00000000000E+00  0.00000000000E+00  0.45593999997E+02  0.45594000000E+02  0.51100000000E-03 0.  1.
         11   -1    0    0    0    0 -0.00000000000E+00 -0.00000000000E+00 -0.45593999997E+02  0.45594000000E+02  0.51100000000E-03 0. -1.
    9900012    2    1    2    0    0 -0.24357401691E+02  0.12232288546E+02  0.33774421188E+02  0.47787269283E+02  0.19999991970E+02 0.  0.
         12    1    1    2    0    0  0.24357401691E+02 -0.12232288546E+02 -0.33774421188E+02  0.43400730717E+02  0.00000000000E+00 0. -1.
         11    1    3    3    0    0 -0.65415423441E+01  0.10917139799E+02  0.10025855401E+02  0.16201650978E+02  0.51100000000E-03 0. -1.
        -11    1    3    3    0    0 -0.10633354841E+02  0.59924309445E+01  0.12891060636E+02  0.17752659192E+02  0.51100000000E-03 0.  1.
        -12    1    3    3    0    0 -0.71825045050E+01 -0.46772821978E+01  0.10857505151E+02  0.13832959113E+02  0.00000000000E+00 0.  1.
</event>
<event>
 7    1  0.2414091E-009  0.4778728E+02  0.7816164E-02  0.1312668E+00
        -11   -1    0    0    0    0  0.00000000000E+00  0.00000000000E+00  0.45593999997E+02  0.45594000000E+02  0.51100000000E-03 0.  1.
         11   -1    0    0    0    0 -0.00000000000E+00 -0.00000000000E+00 -0.45593999997E+02  0.45594000000E+02  0.51100000000E-03 0. -1.
    9900012    2    1    2    0    0  0.37207367850E+02  0.10900162538E+02  0.19504382137E+02  0.47787277791E+02  0.20000030761E+02 0.  0.
         12    1    1    2    0    0 -0.37207367850E+02 -0.10900162538E+02 -0.19504382137E+02  0.43400722209E+02  0.00000000000E+00 0. -1.
         11    1    3    3    0    0  0.12713096154E+02  0.72873194855E+01  0.53942930456E+01  0.15614936338E+02  0.51100000000E-03 0.  1.
        -11    1    3    3    0    0  0.18030728835E+02  0.41039833815E+01  0.22128691414E+01  0.18623819479E+02  0.51100000000E-03 0. -1.
        -12    1    3    3    0    0  0.64635428615E+01 -0.49114032850E+00  0.11897219950E+02  0.13548521974E+02  0.00000000000E+00 0.  1.
</event>
<event>
 7    1  0.2414091E-009  0.4778727E+02  0.7816164E-02  0.1312668E+00
        -11   -1    0    0    0    0  0.00000000000E+00  0.00000000000E+00  0.45593999997E+02  0.45594000000E+02  0.51100000000E-03 0.  1.
         11   -1    0    0    0    0 -0.00000000000E+00 -0.00000000000E+00 -0.45593999997E+02  0.45594000000E+02  0.51100000000E-03 0. -1.
    9900012    2    1    2    0    0 -0.28788956990E+02 -0.66426005121E+01  0.31791428492E+02  0.47787272912E+02  0.20000008517E+02 0.  0.
         12    1    1    2    0    0  0.28788956990E+02  0.66426005121E+01 -0.31791428492E+02  0.43400727088E+02  0.00000000000E+00 0. -1.
         11    1    3    3    0    0 -0.12514248352E+02 -0.49047486731E+01  0.84840567285E+01  0.15894722086E+02  0.51100000000E-03 0. -1.
        -11    1    3    3    0    0 -0.60256939302E+01 -0.74928555191E+01  0.13557105006E+02  0.16620678914E+02  0.51100000000E-03 0.  1.
         12    1    3    3    0    0 -0.10249014708E+02  0.57550036800E+01  0.97502667580E+01  0.15271871912E+02  0.00000000000E+00 0. -1.
</event>
<event>
 7    1  0.2414091E-009  0.4778725E+02  0.7816164E-02  0.1312668E+00
        -11   -1    0    0    0    0  0.00000000000E+00  0.00000000000E+00  0.45593999997E+02  0.45594000000E+02  0.51100000000E-03 0.  1.
         11   -1    0    0    0    0 -0.00000000000E+00 -0.00000000000E+00 -0.45593999997E+02  0.45594000000E+02  0.51100000000E-03 0. -1.
    9900012    2    1    2    0    0 -0.33138780406E+02 -0.15713807738E+02  0.23206089532E+02  0.47787249871E+02  0.19999903460E+02 0.  0.
         12    1    1    2    0    0  0.33138780406E+02  0.15713807738E+02 -0.23206089532E+02  0.43400750129E+02  0.00000000000E+00 0. -1.
         11    1    3    3    0    0 -0.43655095931E+01 -0.57431492559E+01  0.11485091527E+02  0.13562771289E+02  0.51100000000E-03 0. -1.
        -11    1    3    3    0    0 -0.16019114740E+02 -0.32715528696E+01  0.11182079154E+02  0.19807927446E+02  0.51100000000E-03 0.  1.
         12    1    3    3    0    0 -0.12754156073E+02 -0.66991056123E+01  0.53891885098E+00  0.14416551136E+02  0.00000000000E+00 0. -1.
</event>
<event>
 7    1  0.2414091E-009  0.4778727E+02  0.7816164E-02  0.1312668E+00
        -11   -1    0    0    0    0  0.00000000000E+00  0.00000000000E+00  0.45593999997E+02  0.45594000000E+02  0.51100000000E-03 0.  1.
         11   -1    0    0    0    0 -0.00000000000E+00 -0.00000000000E+00 -0.45593999997E+02  0.45594000000E+02  0.51100000000E-03 0. -1.
    9900012    2    1    2    0    0 -0.31672674602E+02 -0.12276872233E+02  0.27013762593E+02  0.47787271000E+02  0.19999999799E+02 0.  0.
         12    1    1    2    0    0  0.31672674602E+02  0.12276872233E+02 -0.27013762593E+02  0.43400729000E+02  0.00000000000E+00 0. -1.
         11    1    3    3    0    0 -0.10980385726E+02  0.33831588912E+01  0.13384913578E+02  0.17640026829E+02  0.51100000000E-03 0. -1.
        -11    1    3    3    0    0 -0.33561166140E+01 -0.34855156760E-01  0.30027642319E+01  0.45034794218E+01  0.51100000000E-03 0.  1.
        -12    1    3    3    0    0 -0.17336172262E+02 -0.15625175968E+02  0.10626084782E+02  0.25643764749E+02  0.00000000000E+00 0.  1.
</event>
<event>
 7    1  0.2414091E-009  0.4778727E+02  0.7816164E-02  0.1312668E+00
        -11   -1    0    0    0    0  0.00000000000E+00  0.00000000000E+00  0.45593999997E+02  0.45594000000E+02  0.51100000000E-03 0.  1.
         11   -1    0    0    0    0 -0.00000000000E+00 -0.00000000000E+00 -0.45593999997E+02  0.45594000000E+02  0.51100000000E-03 0. -1.
    9900012    2    1    2    0    0  0.21280457016E+02  0.42518697740E+01  0.37585725031E+02  0.47787274505E+02  0.20000015780E+02 0.  0.
         12    1    1    2    0    0 -0.21280457016E+02 -0.42518697740E+01 -0.37585725031E+02  0.43400725495E+02  0.00000000000E+00 0. -1.
         11    1    3    3    0    0  0.63376523341E+01 -0.35640802147E+01  0.87293188981E+01  0.11360876444E+02  0.51100000000E-03 0. -1.
        -11    1    3    3    0    0 -0.25448080170E+01 -0.75987598605E+00  0.46716067866E+01  0.53737667969E+01  0.51100000000E-03 0.  1.
        -12    1    3    3    0    0  0.17487612699E+02  0.85758259747E+01  0.24184799346E+02  0.31052631265E+02  0.00000000000E+00 0.  1.
</event>
<event>
 7    1  0.2414091E-009  0.4778724E+02  0.7816164E-02  0.1312668E+00
        -11   -1    0    0    0    0  0.00000000000E+00  0.00000000000E+00  0.45593999997E+02  0.45594000000E+02  0.51100000000E-03 0.  1.
         11   -1    0    0    0    0 -0.00000000000E+00 -0.00000000000E+00 -0.45593999997E+02  0.45594000000E+02  0.51100000000E-03 0. -1.
    9900012    2    1    2    0    0 -0.35522678586E+02  0.13433602319E+02  0.21007227830E+02  0.47787239796E+02  0.19999857526E+02 0.  0.
         12    1    1    2    0    0  0.35522678586E+02 -0.13433602319E+02 -0.21007227830E+02  0.43400760204E+02  0.00000000000E+00 0. -1.
         11    1    3    3    0    0 -0.13530336294E+02  0.10263817423E+02  0.26400243309E+01  0.17186787863E+02  0.51100000000E-03 0. -1.
        -11    1    3    3    0    0 -0.37603130466E+01  0.48036436373E+01  0.56170914624E+01  0.82925667414E+01  0.51100000000E-03 0.  1.
        -12    1    3    3    0    0 -0.18232029245E+02 -0.16338587411E+01  0.12750112036E+02  0.22307885191E+02  0.00000000000E+00 0.  1.
</event>
<event>
 7    1  0.2414091E-009  0.4778727E+02  0.7816164E-02  0.1312668E+00
        -11   -1    0    0    0    0  0.00000000000E+00  0.00000000000E+00  0.45593999997E+02  0.45594000000E+02  0.51100000000E-03 0.  1.
         11   -1    0    0    0    0 -0.00000000000E+00 -0.00000000000E+00 -0.45593999997E+02  0.45594000000E+02  0.51100000000E-03 0. -1.
    9900012    2    1    2    0    0 -0.33041591752E+02 -0.27228712083E+02 -0.71044912480E+01  0.47787270247E+02  0.19999996364E+02 0.  0.
         12    1    1    2    0    0  0.33041591752E+02  0.27228712083E+02  0.71044912480E+01  0.43400729753E+02  0.00000000000E+00 0. -1.
         11    1    3    3    0    0 -0.12859744305E+02 -0.18172291463E+02 -0.47997280075E+01  0.22773725866E+02  0.51100000000E-03 0.  1.
        -11    1    3    3    0    0 -0.56153698241E+01 -0.73772151592E+01  0.24667452822E+01  0.95937747688E+01  0.51100000000E-03 0. -1.
         12    1    3    3    0    0 -0.14566477623E+02 -0.16792054609E+01 -0.47715085227E+01  0.15419769612E+02  0.00000000000E+00 0. -1.
</event>
<event>
 7    1  0.2414091E-009  0.4778729E+02  0.7816164E-02  0.1312668E+00
        -11   -1    0    0    0    0  0.00000000000E+00  0.00000000000E+00  0.45593999997E+02  0.45594000000E+02  0.51100000000E-03 0.  1.
         11   -1    0    0    0    0 -0.00000000000E+00 -0.00000000000E+00 -0.45593999997E+02  0.45594000000E+02  0.51100000000E-03 0. -1.
    9900012    2    1    2    0    0 -0.11264878347E+02 -0.34955973418E+02  0.23125830190E+02  0.47787290516E+02  0.20000088776E+02 0.  0.
         12    1    1    2    0    0  0.11264878347E+02  0.34955973418E+02 -0.23125830190E+02  0.43400709484E+02  0.00000000000E+00 0. -1.
         11    1    3    3    0    0 -0.82628325413E+01 -0.14485962849E+02  0.26794174764E+01  0.16890731173E+02  0.51100000000E-03 0. -1.
        -11    1    3    3    0    0 -0.68341259753E+01 -0.14999152577E+02  0.14407324024E+02  0.21891798503E+02  0.51100000000E-03 0.  1.
        -12    1    3    3    0    0  0.38320801698E+01 -0.54708579922E+01  0.60390886890E+01  0.90047608404E+01  0.00000000000E+00 0.  1.
</event>
<event>
 7    1  0.2414091E-009  0.4778727E+02  0.7816164E-02  0.1312668E+00
        -11   -1    0    0    0    0  0.00000000000E+00  0.00000000000E+00  0.45593999997E+02  0.45594000000E+02  0.51100000000E-03 0. -1.
         11   -1    0    0    0    0 -0.00000000000E+00 -0.00000000000E+00 -0.45593999997E+02  0.45594000000E+02  0.51100000000E-03 0.  1.
    9900012    2    1    2    0    0  0.37746047843E+02  0.19551457756E+02 -0.87521383553E+01  0.47787267818E+02  0.19999985290E+02 0.  0.
         12    1    1    2    0    0 -0.37746047843E+02 -0.19551457756E+02  0.87521383553E+01  0.43400732182E+02  0.00000000000E+00 0. -1.
         11    1    3    3    0    0  0.55876072363E+01 -0.77631096488E+00 -0.37719247380E+00  0.56538736955E+01  0.51100000000E-03 0. -1.
        -11    1    3    3    0    0  0.29798389136E+02  0.14040373573E+02 -0.22058908845E+01  0.33014270248E+02  0.51100000000E-03 0.  1.
         12    1    3    3    0    0  0.23600514708E+01  0.62873951475E+01 -0.61690549970E+01  0.91191238746E+01  0.00000000000E+00 0. -1.
</event>
<event>
 7    1  0.2414091E-009  0.4778727E+02  0.7816164E-02  0.1312668E+00
        -11   -1    0    0    0    0  0.00000000000E+00  0.00000000000E+00  0.45593999997E+02  0.45594000000E+02  0.51100000000E-03 0. -1.
         11   -1    0    0    0    0 -0.00000000000E+00 -0.00000000000E+00 -0.45593999997E+02  0.45594000000E+02  0.51100000000E-03 0.  1.
    9900012    2    1    2    0    0 -0.55739866926E+01 -0.42520864217E+02 -0.66730910583E+01  0.47787269987E+02  0.19999995178E+02 0.  0.
         12    1    1    2    0    0  0.55739866926E+01  0.42520864217E+02  0.66730910583E+01  0.43400730013E+02  0.00000000000E+00 0. -1.
         11    1    3    3    0    0  0.64721056520E+00  0.94844148392E+00 -0.25776141278E+00  0.11768024351E+01  0.51100000000E-03 0. -1.
        -11    1    3    3    0    0 -0.18389113150E+01 -0.91501122503E+01  0.44595183528E+01  0.10343763977E+02  0.51100000000E-03 0.  1.
        -12    1    3    3    0    0 -0.43822859428E+01 -0.34319193450E+02 -0.10874847998E+02  0.36266703575E+02  0.00000000000E+00 0.  1.
</event>
<event>
 7    1  0.2414091E-009  0.4778728E+02  0.7816164E-02  0.1312668E+00
        -11   -1    0    0    0    0  0.00000000000E+00  0.00000000000E+00  0.45593999997E+02  0.45594000000E+02  0.51100000000E-03 0.  1.
         11   -1    0    0    0    0 -0.00000000000E+00 -0.00000000000E+00 -0.45593999997E+02  0.45594000000E+02  0.51100000000E-03 0. -1.
    9900012    2    1    2    0    0  0.10694715467E+02  0.14590183150E+02  0.39450887260E+02  0.47787275480E+02  0.20000020225E+02 0.  0.
         12    1    1    2    0    0 -0.10694715467E+02 -0.14590183150E+02 -0.39450887260E+02  0.43400724520E+02  0.00000000000E+00 0. -1.
         11    1    3    3    0    0  0.60480501054E+01 -0.23723979837E+00  0.67890086231E+01  0.90953741620E+01  0.51100000000E-03 0. -1.
        -11    1    3    3    0    0  0.29546165700E+01  0.56278928936E+01  0.20437115568E+01  0.66768027293E+01  0.51100000000E-03 0.  1.
        -12    1    3    3    0    0  0.16920487915E+01  0.91995300548E+01  0.30618167080E+02  0.32015098589E+02  0.00000000000E+00 0.  1.
</event>
<event>
 7    1  0.2414091E-009  0.4778727E+02  0.7816164E-02  0.1312668E+00
        -11   -1    0    0    0    0  0.00000000000E+00  0.00000000000E+00  0.45593999997E+02  0.45594000000E+02  0.51100000000E-03 0.  1.
         11   -1    0    0    0    0 -0.00000000000E+00 -0.00000000000E+00 -0.45593999997E+02  0.45594000000E+02  0.51100000000E-03 0. -1.
    9900012    2    1    2    0    0 -0.11086125495E+02 -0.25652952531E+02  0.33206130749E+02  0.47787271074E+02  0.20000000134E+02 0.  0.
         12    1    1    2    0    0  0.11086125495E+02  0.25652952531E+02 -0.33206130749E+02  0.43400728926E+02  0.00000000000E+00 0. -1.
         11    1    3    3    0    0 -0.86068699073E+01 -0.10214052250E+02  0.18389371175E+02  0.22728265342E+02  0.51100000000E-03 0. -1.
        -11    1    3    3    0    0 -0.27160682811E+01 -0.88801999081E+01  0.15894211875E+02  0.18408176138E+02  0.51100000000E-03 0.  1.
         12    1    3    3    0    0  0.23681269358E+00 -0.65587003727E+01 -0.10774523021E+01  0.66508295944E+01  0.00000000000E+00 0. -1.
</event>
<event>
 7    1  0.2414091E-009  0.4778728E+02  0.7816164E-02  0.1312668E+00
        -11   -1    0    0    0    0  0.00000000000E+00  0.00000000000E+00  0.45593999997E+02  0.45594000000E+02  0.51100000000E-03 0. -1.
         11   -1    0    0    0    0 -0.00000000000E+00 -0.00000000000E+00 -0.45593999997E+02  0.45594000000E+02  0.51100000000E-03 0.  1.
    9900012    2    1    2    0    0  0.28062751723E+02 -0.88659953571E+00 -0.33095594142E+02  0.47787280598E+02  0.20000043557E+02 0.  0.
         12    1    1    2    0    0 -0.28062751723E+02  0.88659953571E+00  0.33095594142E+02  0.43400719402E+02  0.00000000000E+00 0. -1.
         11    1    3    3    0    0 -0.59325438348E+00 -0.17572875967E+01  0.55636446513E+00  0.19363760328E+01  0.51100000000E-03 0. -1.
        -11    1    3    3    0    0  0.59402308403E+01 -0.49039242994E+01 -0.85019978333E+01  0.11472522974E+02  0.51100000000E-03 0.  1.
        -12    1    3    3    0    0  0.22715775266E+02  0.57746123604E+01 -0.25149960774E+02  0.34378381591E+02  0.00000000000E+00 0.  1.
</event>
<event>
 7    1  0.2414091E-009  0.4778727E+02  0.7816164E-02  0.1312668E+00
        -11   -1    0    0    0    0  0.00000000000E+00  0.00000000000E+00  0.45593999997E+02  0.45594000000E+02  0.51100000000E-03 0. -1.
         11   -1    0    0    0    0 -0.00000000000E+00 -0.00000000000E+00 -0.45593999997E+02  0.45594000000E+02  0.51100000000E-03 0.  1.
    9900012    2    1    2    0    0 -0.25828234712E+02  0.14405615584E+02  0.31764818913E+02  0.47787272019E+02  0.20000004444E+02 0.  0.
         12    1    1    2    0    0  0.25828234712E+02 -0.14405615584E+02 -0.31764818913E+02  0.43400727981E+02  0.00000000000E+00 0. -1.
         11    1    3    3    0    0 -0.47695256286E+01  0.51249658862E+01  0.80642698563E+01  0.10679236800E+02  0.51100000000E-03 0. -1.
        -11    1    3    3    0    0 -0.23454239883E+02  0.69414051102E+01  0.17548015414E+02  0.30103443634E+02  0.51100000000E-03 0.  1.
         12    1    3    3    0    0  0.23955307995E+01  0.23392445871E+01  0.61525336423E+01  0.70045915848E+01  0.00000000000E+00 0. -1.
</event>
<event>
 7    1  0.2414091E-009  0.4778727E+02  0.7816164E-02  0.1312668E+00
        -11   -1    0    0    0    0  0.00000000000E+00  0.00000000000E+00  0.45593999997E+02  0.45594000000E+02  0.51100000000E-03 0.  1.
         11   -1    0    0    0    0 -0.00000000000E+00 -0.00000000000E+00 -0.45593999997E+02  0.45594000000E+02  0.51100000000E-03 0. -1.
    9900012    2    1    2    0    0  0.26492750988E+02 -0.12314000177E+02  0.32095525245E+02  0.47787271941E+02  0.20000004088E+02 0.  0.
         12    1    1    2    0    0 -0.26492750988E+02  0.12314000177E+02 -0.32095525245E+02  0.43400728059E+02  0.00000000000E+00 0. -1.
         11    1    3    3    0    0  0.19049330027E+02 -0.10318425975E+02  0.15830348236E+02  0.26831824660E+02  0.51100000000E-03 0. -1.
        -11    1    3    3    0    0  0.97376422016E+01 -0.23580600859E+01  0.15598429469E+02  0.18538962354E+02  0.51100000000E-03 0.  1.
        -12    1    3    3    0    0 -0.22942212405E+01  0.36248588339E+00  0.66674754022E+00  0.24164849262E+01  0.00000000000E+00 0.  1.
</event>
<event>
 7    1  0.2414091E-009  0.4778727E+02  0.7816164E-02  0.1312668E+00
        -11   -1    0    0    0    0  0.00000000000E+00  0.00000000000E+00  0.45593999997E+02  0.45594000000E+02  0.51100000000E-03 0.  1.
         11   -1    0    0    0    0 -0.00000000000E+00 -0.00000000000E+00 -0.45593999997E+02  0.45594000000E+02  0.51100000000E-03 0. -1.
    9900012    2    1    2    0    0 -0.36467264050E+02 -0.23486138079E+02  0.14708304767E+01  0.47787269920E+02  0.19999994873E+02 0.  0.
         12    1    1    2    0    0  0.36467264050E+02  0.23486138079E+02 -0.14708304767E+01  0.43400730080E+02  0.00000000000E+00 0. -1.
         11    1    3    3    0    0 -0.19860650711E+02 -0.80067527752E+01  0.42668877553E+01  0.21834831532E+02  0.51100000000E-03 0. -1.
        -11    1    3    3    0    0 -0.12290924207E+02 -0.14814185135E+02  0.21335414526E+01  0.19366953773E+02  0.51100000000E-03 0.  1.
         12    1    3    3    0    0 -0.43156891326E+01 -0.66520016864E+00 -0.49295987313E+01  0.65854846143E+01  0.00000000000E+00 0. -1.
</event>
<event>
 7    1  0.2414091E-009  0.4778727E+02  0.7816164E-02  0.1312668E+00
        -11   -1    0    0    0    0  0.00000000000E+00  0.00000000000E+00  0.45593999997E+02  0.45594000000E+02  0.51100000000E-03 0. -1.
         11   -1    0    0    0    0 -0.00000000000E+00 -0.00000000000E+00 -0.45593999997E+02  0.45594000000E+02  0.51100000000E-03 0.  1.
    9900012    2    1    2    0    0  0.91913173843E+01  0.41370395707E+02 -0.93612646662E+01  0.47787271522E+02  0.20000002180E+02 0.  0.
         12    1    1    2    0    0 -0.91913173843E+01 -0.41370395707E+02  0.93612646662E+01  0.43400728478E+02  0.00000000000E+00 0. -1.
         11    1    3    3    0    0 -0.45392238473E+01  0.13114958244E+02  0.17895862164E+01  0.13993187698E+02  0.51100000000E-03 0. -1.
        -11    1    3    3    0    0  0.31590715283E+01  0.12654614059E+02 -0.50400591004E+01  0.13982889040E+02  0.51100000000E-03 0.  1.
         12    1    3    3    0    0  0.10571469703E+02  0.15600823405E+02 -0.61107917822E+01  0.19811194785E+02  0.00000000000E+00 0. -1.
</event>
<event>
 7    1  0.2414091E-009  0.4778727E+02  0.7816164E-02  0.1312668E+00
        -11   -1    0    0    0    0  0.00000000000E+00  0.00000000000E+00  0.45593999997E+02  0.45594000000E+02  0.51100000000E-03 0.  1.
         11   -1    0    0    0    0 -0.00000000000E+00 -0.00000000000E+00 -0.45593999997E+02  0.45594000000E+02  0.51100000000E-03 0. -1.
    9900012    2    1    2    0    0  0.19744401254E+02  0.98908999840E+01  0.37362442090E+02  0.47787270026E+02  0.19999995355E+02 0.  0.
         12    1    1    2    0    0 -0.19744401254E+02 -0.98908999840E+01 -0.37362442090E+02  0.43400729974E+02  0.00000000000E+00 0. -1.
         11    1    3    3    0    0  0.25852587694E+01 -0.30218172224E+01  0.15131218806E+01  0.42549359945E+01  0.51100000000E-03 0. -1.
        -11    1    3    3    0    0 -0.12566558075E+00  0.45382393011E+01  0.12497216770E+02  0.13296309076E+02  0.51100000000E-03 0.  1.
         12    1    3    3    0    0  0.17284808065E+02  0.83744779053E+01  0.23352103440E+02  0.30236024955E+02  0.00000000000E+00 0. -1.
</event>
<event>
 7    1  0.2414091E-009  0.4778727E+02  0.7816164E-02  0.1312668E+00
        -11   -1    0    0    0    0  0.00000000000E+00  0.00000000000E+00  0.45593999997E+02  0.45594000000E+02  0.51100000000E-03 0.  1.
         11   -1    0    0    0    0 -0.00000000000E+00 -0.00000000000E+00 -0.45593999997E+02  0.45594000000E+02  0.51100000000E-03 0. -1.
    9900012    2    1    2    0    0  0.26317849037E+02 -0.24474011498E+02  0.24331392778E+02  0.47787273149E+02  0.20000009594E+02 0.  0.
         12    1    1    2    0    0 -0.26317849037E+02  0.24474011498E+02 -0.24331392778E+02  0.43400726851E+02  0.00000000000E+00 0. -1.
         11    1    3    3    0    0  0.10749335937E+02 -0.12580406495E+02  0.11064872368E+02  0.19905935080E+02  0.51100000000E-03 0. -1.
        -11    1    3    3    0    0  0.13999163025E+02 -0.15048966789E+02  0.13058700106E+02  0.24351131709E+02  0.51100000000E-03 0.  1.
         12    1    3    3    0    0  0.15693500755E+01  0.31553617857E+01  0.20782030414E+00  0.35302063590E+01  0.00000000000E+00 0. -1.
</event>
<event>
 7    1  0.2414091E-009  0.4778727E+02  0.7816164E-02  0.1312668E+00
        -11   -1    0    0    0    0  0.00000000000E+00  0.00000000000E+00  0.45593999997E+02  0.45594000000E+02  0.51100000000E-03 0.  1.
         11   -1    0    0    0    0 -0.00000000000E+00 -0.00000000000E+00 -0.45593999997E+02  0.45594000000E+02  0.51100000000E-03 0. -1.
    9900012    2    1    2    0    0 -0.29802524416E+02  0.14722478684E+02  0.27904862018E+02  0.47787272305E+02  0.20000005750E+02 0.  0.
         12    1    1    2    0    0  0.29802524416E+02 -0.14722478684E+02 -0.27904862018E+02  0.43400727695E+02  0.00000000000E+00 0. -1.
         11    1    3    3    0    0 -0.27969221444E+00  0.22872274065E+01  0.11608853126E+02  0.11835333038E+02  0.51100000000E-03 0. -1.
        -11    1    3    3    0    0 -0.50010254896E+01  0.22379088679E+01  0.24508864575E+01  0.60021110234E+01  0.51100000000E-03 0.  1.
         12    1    3    3    0    0 -0.24521806712E+02  0.10197342409E+02  0.13845122434E+02  0.29949828244E+02  0.00000000000E+00 0. -1.
</event>
<event>
 7    1  0.2414091E-009  0.4778727E+02  0.7816164E-02  0.1312668E+00
        -11   -1    0    0    0    0  0.00000000000E+00  0.00000000000E+00  0.45593999997E+02  0.45594000000E+02  0.51100000000E-03 0. -1.
         11   -1    0    0    0    0 -0.00000000000E+00 -0.00000000000E+00 -0.45593999997E+02  0.45594000000E+02  0.51100000000E-03 0.  1.
    9900012    2    1    2    0    0 -0.46087719243E-01 -0.34233911203E+02  0.26676966860E+02  0.47787270039E+02  0.19999995416E+02 0.  0.
         12    1    1    2    0    0  0.46087719243E-01  0.34233911203E+02 -0.26676966860E+02  0.43400729961E+02  0.00000000000E+00 0. -1.
         11    1    3    3    0    0  0.65530843381E+01 -0.16728636707E+02  0.88697263262E+01  0.20036522797E+02  0.51100000000E-03 0.  1.
        -11    1    3    3    0    0  0.96587409407E+00 -0.12771403598E+01  0.62219186334E+01  0.64246612367E+01  0.51100000000E-03 0. -1.
         12    1    3    3    0    0 -0.75650461514E+01 -0.16228134136E+02  0.11585321900E+02  0.21326086006E+02  0.00000000000E+00 0. -1.
</event>
<event>
 7    1  0.2414091E-009  0.4778727E+02  0.7816164E-02  0.1312668E+00
        -11   -1    0    0    0    0  0.00000000000E+00  0.00000000000E+00  0.45593999997E+02  0.45594000000E+02  0.51100000000E-03 0.  1.
         11   -1    0    0    0    0 -0.00000000000E+00 -0.00000000000E+00 -0.45593999997E+02  0.45594000000E+02  0.51100000000E-03 0. -1.
    9900012    2    1    2    0    0  0.25238451450E+02 -0.18793517983E+02  0.29890591875E+02  0.47787271522E+02  0.20000002178E+02 0.  0.
         12    1    1    2    0    0 -0.25238451450E+02  0.18793517983E+02 -0.29890591875E+02  0.43400728478E+02  0.00000000000E+00 0. -1.
         11    1    3    3    0    0 -0.74687054661E+00 -0.40830451874E+01  0.15528935974E+01  0.44317662847E+01  0.51100000000E-03 0. -1.
        -11    1    3    3    0    0  0.16260824281E+02 -0.13105971743E+02  0.11490798980E+02  0.23837352267E+02  0.51100000000E-03 0.  1.
         12    1    3    3    0    0  0.97244977155E+01 -0.16045010531E+01  0.16846899298E+02  0.19518152971E+02  0.00000000000E+00 0. -1.
</event>
<event>
 7    1  0.2414091E-009  0.4778727E+02  0.7816164E-02  0.1312668E+00
        -11   -1    0    0    0    0  0.00000000000E+00  0.00000000000E+00  0.45593999997E+02  0.45594000000E+02  0.51100000000E-03 0.  1.
         11   -1    0    0    0    0 -0.00000000000E+00 -0.00000000000E+00 -0.45593999997E+02  0.45594000000E+02  0.51100000000E-03 0. -1.
    9900012    2    1    2    0    0 -0.26690563658E+02 -0.24977673005E+02  0.23395570260E+02  0.47787273682E+02  0.20000012027E+02 0.  0.
         12    1    1    2    0    0  0.26690563658E+02  0.24977673005E+02 -0.23395570260E+02  0.43400726318E+02  0.00000000000E+00 0. -1.
         11    1    3    3    0    0 -0.50991394310E+01 -0.23354894558E+01  0.12002090463E+02  0.13247864344E+02  0.51100000000E-03 0.  1.
        -11    1    3    3    0    0 -0.13074695508E+01 -0.50193513713E+01 -0.38499775981E+00  0.52011141451E+01  0.51100000000E-03 0. -1.
        -12    1    3    3    0    0 -0.20283954677E+02 -0.17622832178E+02  0.11778477556E+02  0.29338295193E+02  0.00000000000E+00 0.  1.
</event>
<event>
 7    1  0.2414091E-009  0.4778727E+02  0.7816164E-02  0.1312668E+00
        -11   -1    0    0    0    0  0.00000000000E+00  0.00000000000E+00  0.45593999997E+02  0.45594000000E+02  0.51100000000E-03 0. -1.
         11   -1    0    0    0    0 -0.00000000000E+00 -0.00000000000E+00 -0.45593999997E+02  0.45594000000E+02  0.51100000000E-03 0.  1.
    9900012    2    1    2    0    0  0.38894155630E+02 -0.79729459027E+01 -0.17529974777E+02  0.47787271617E+02  0.20000002608E+02 0.  0.
         12    1    1    2    0    0 -0.38894155630E+02  0.79729459027E+01  0.17529974777E+02  0.43400728383E+02  0.00000000000E+00 0. -1.
         11    1    3    3    0    0  0.24864791886E+02 -0.53136735731E+01 -0.28722227002E+01  0.25587939852E+02  0.51100000000E-03 0.  1.
        -11    1    3    3    0    0  0.71812370254E+01 -0.54795119227E+01 -0.61935622453E+01  0.10952416613E+02  0.51100000000E-03 0. -1.
        -12    1    3    3    0    0  0.68481267188E+01  0.28202395931E+01 -0.84641898312E+01  0.11246915151E+02  0.00000000000E+00 0.  1.
</event>
<event>
 7    1  0.2414091E-009  0.4778727E+02  0.7816164E-02  0.1312668E+00
        -11   -1    0    0    0    0  0.00000000000E+00  0.00000000000E+00  0.45593999997E+02  0.45594000000E+02  0.51100000000E-03 0. -1.
         11   -1    0    0    0    0 -0.00000000000E+00 -0.00000000000E+00 -0.45593999997E+02  0.45594000000E+02  0.51100000000E-03 0.  1.
    9900012    2    1    2    0    0 -0.16881922884E+02 -0.37927860736E+02 -0.12653122156E+02  0.47787269124E+02  0.19999991244E+02 0.  0.
         12    1    1    2    0    0  0.16881922884E+02  0.37927860736E+02  0.12653122156E+02  0.43400730876E+02  0.00000000000E+00 0. -1.
         11    1    3    3    0    0 -0.67412259661E+01 -0.32956248782E+01 -0.31880006974E+01  0.81528289306E+01  0.51100000000E-03 0. -1.
        -11    1    3    3    0    0 -0.11892507465E+02 -0.20856023666E+02 -0.92987256488E+01  0.25746295965E+02  0.51100000000E-03 0.  1.
        -12    1    3    3    0    0  0.17518105470E+01 -0.13776212192E+02 -0.16639580953E+00  0.13888144229E+02  0.00000000000E+00 0.  1.
</event>
<event>
 7    1  0.2414091E-009  0.4778727E+02  0.7816164E-02  0.1312668E+00
        -11   -1    0    0    0    0  0.00000000000E+00  0.00000000000E+00  0.45593999997E+02  0.45594000000E+02  0.51100000000E-03 0.  1.
         11   -1    0    0    0    0 -0.00000000000E+00 -0.00000000000E+00 -0.45593999997E+02  0.45594000000E+02  0.51100000000E-03 0. -1.
    9900012    2    1    2    0    0 -0.39110343055E+02  0.35052458995E+01  0.18485599755E+02  0.47787273267E+02  0.20000010132E+02 0.  0.
         12    1    1    2    0    0  0.39110343055E+02 -0.35052458995E+01 -0.18485599755E+02  0.43400726733E+02  0.00000000000E+00 0. -1.
         11    1    3    3    0    0 -0.14766866020E+02  0.41859912888E+01  0.27143504023E+01  0.15586871190E+02  0.51100000000E-03 0. -1.
        -11    1    3    3    0    0 -0.87651754921E+01  0.43139196996E+01  0.43877445197E+00  0.97790964747E+01  0.51100000000E-03 0.  1.
        -12    1    3    3    0    0 -0.15578301542E+02 -0.49946650888E+01  0.15332474901E+02  0.22421305602E+02  0.00000000000E+00 0.  1.
</event>
<event>
 7    1  0.2414091E-009  0.4778728E+02  0.7816164E-02  0.1312668E+00
        -11   -1    0    0    0    0  0.00000000000E+00  0.00000000000E+00  0.45593999997E+02  0.45594000000E+02  0.51100000000E-03 0.  1.
         11   -1    0    0    0    0 -0.00000000000E+00 -0.00000000000E+00 -0.45593999997E+02  0.45594000000E+02  0.51100000000E-03 0. -1.
    9900012    2    1    2    0    0 -0.54380666546E+01 -0.50771544148E+01  0.42758301913E+02  0.47787280554E+02  0.20000043359E+02 0.  0.
         12    1    1    2    0    0  0.54380666546E+01  0.50771544148E+01 -0.42758301913E+02  0.43400719446E+02  0.00000000000E+00 0. -1.
         11    1    3    3    0    0 -0.90189720762E+00  0.38605854167E+01  0.84880680966E+01  0.93682889904E+01  0.51100000000E-03 0. -1.
        -11    1    3    3    0    0 -0.70660148307E+01 -0.38730503709E+01  0.30667625652E+02  0.31708553234E+02  0.51100000000E-03 0.  1.
         12    1    3    3    0    0  0.25298453838E+01 -0.50646894606E+01  0.36026081644E+01  0.67104383303E+01  0.00000000000E+00 0. -1.
</event>
<event>
 7    1  0.2414091E-009  0.4778727E+02  0.7816164E-02  0.1312668E+00
        -11   -1    0    0    0    0  0.00000000000E+00  0.00000000000E+00  0.45593999997E+02  0.45594000000E+02  0.51100000000E-03 0.  1.
         11   -1    0    0    0    0 -0.00000000000E+00 -0.00000000000E+00 -0.45593999997E+02  0.45594000000E+02  0.51100000000E-03 0. -1.
    9900012    2    1    2    0    0 -0.11653879174E+02 -0.14339413848E+02  0.39270749004E+02  0.47787269399E+02  0.19999992500E+02 0.  0.
         12    1    1    2    0    0  0.11653879174E+02  0.14339413848E+02 -0.39270749004E+02  0.43400730601E+02  0.00000000000E+00 0. -1.
         11    1    3    3    0    0 -0.36564651452E+01 -0.72216985856E+01  0.29592409360E+01  0.86185715172E+01  0.51100000000E-03 0. -1.
        -11    1    3    3    0    0  0.88603499630E+00  0.17485816904E+01  0.31342141351E+01  0.36967410578E+01  0.51100000000E-03 0.  1.
        -12    1    3    3    0    0 -0.88834490254E+01 -0.88662969531E+01  0.33177293933E+02  0.35471956825E+02  0.00000000000E+00 0.  1.
</event>
<event>
 7    1  0.2414091E-009  0.4778727E+02  0.7816164E-02  0.1312668E+00
        -11   -1    0    0    0    0  0.00000000000E+00  0.00000000000E+00  0.45593999997E+02  0.45594000000E+02  0.51100000000E-03 0.  1.
         11   -1    0    0    0    0 -0.00000000000E+00 -0.00000000000E+00 -0.45593999997E+02  0.45594000000E+02  0.51100000000E-03 0. -1.
    9900012    2    1    2    0    0 -0.35867550306E+02  0.18559716411E+02  0.15895887456E+02  0.47787268713E+02  0.19999989372E+02 0.  0.
         12    1    1    2    0    0  0.35867550306E+02 -0.18559716411E+02 -0.15895887456E+02  0.43400731287E+02  0.00000000000E+00 0. -1.
         11    1    3    3    0    0 -0.10490100980E+02  0.76025154647E+01 -0.22624378715E+01  0.13151391004E+02  0.51100000000E-03 0. -1.
        -11    1    3    3    0    0 -0.17842615297E+02  0.96095676552E+01  0.77080243274E+01  0.21682166646E+02  0.51100000000E-03 0.  1.
        -12    1    3    3    0    0 -0.75348340289E+01  0.13476332914E+01  0.10450301000E+02  0.12953711064E+02  0.00000000000E+00 0.  1.
</event>
<event>
 7    1  0.2414091E-009  0.4778727E+02  0.7816164E-02  0.1312668E+00
        -11   -1    0    0    0    0  0.00000000000E+00  0.00000000000E+00  0.45593999997E+02  0.45594000000E+02  0.51100000000E-03 0.  1.
         11   -1    0    0    0    0 -0.00000000000E+00 -0.00000000000E+00 -0.45593999997E+02  0.45594000000E+02  0.51100000000E-03 0. -1.
    9900012    2    1    2    0    0 -0.32279242774E+02 -0.23572064930E+02  0.16912465857E+02  0.47787271198E+02  0.20000000702E+02 0.  0.
         12    1    1    2    0    0  0.32279242774E+02  0.23572064930E+02 -0.16912465857E+02  0.43400728802E+02  0.00000000000E+00 0. -1.
         11    1    3    3    0    0 -0.47885560335E+01 -0.48346764522E+01 -0.99128782777E+00  0.68765556133E+01  0.51100000000E-03 0. -1.
        -11    1    3    3    0    0 -0.22569144617E+02 -0.80745902307E+01  0.72187394811E+01  0.25033487494E+02  0.51100000000E-03 0.  1.
         12    1    3    3    0    0 -0.49215421232E+01 -0.10662798247E+02  0.10685014203E+02  0.15877228091E+02  0.00000000000E+00 0. -1.
</event>
<event>
 7    1  0.2414091E-009  0.4778726E+02  0.7816164E-02  0.1312668E+00
        -11   -1    0    0    0    0  0.00000000000E+00  0.00000000000E+00  0.45593999997E+02  0.45594000000E+02  0.51100000000E-03 0. -1.
         11   -1    0    0    0    0 -0.00000000000E+00 -0.00000000000E+00 -0.45593999997E+02  0.45594000000E+02  0.51100000000E-03 0.  1.
    9900012    2    1    2    0    0 -0.17391389297E+02  0.27781410703E+02 -0.28449195424E+02  0.47787263571E+02  0.19999965926E+02 0.  0.
         12    1    1    2    0    0  0.17391389297E+02 -0.27781410703E+02  0.28449195424E+02  0.43400736429E+02  0.00000000000E+00 0. -1.
         11    1    3    3    0    0 -0.12255767629E+02  0.50505152890E+01 -0.69422247074E+01  0.14963489867E+02  0.51100000000E-03 0. -1.
        -11    1    3    3    0    0 -0.61119919564E+01  0.84410200959E+01 -0.10108984941E+02  0.14518913276E+02  0.51100000000E-03 0.  1.
        -12    1    3    3    0    0  0.97637028767E+00  0.14289875318E+02 -0.11397985776E+02  0.18304860428E+02  0.00000000000E+00 0.  1.
</event>
<event>
 7    1  0.2414091E-009  0.4778727E+02  0.7816164E-02  0.1312668E+00
        -11   -1    0    0    0    0  0.00000000000E+00  0.00000000000E+00  0.45593999997E+02  0.45594000000E+02  0.51100000000E-03 0.  1.
         11   -1    0    0    0    0 -0.00000000000E+00 -0.00000000000E+00 -0.45593999997E+02  0.45594000000E+02  0.51100000000E-03 0. -1.
    9900012    2    1    2    0    0 -0.26484892828E+00  0.43033407919E+02  0.56284241911E+01  0.47787268428E+02  0.19999988072E+02 0.  0.
         12    1    1    2    0    0  0.26484892828E+00 -0.43033407919E+02 -0.56284241911E+01  0.43400731572E+02  0.00000000000E+00 0. -1.
         11    1    3    3    0    0  0.10055005235E+01  0.17924407181E+01 -0.14388739030E+01  0.25088310825E+01  0.51100000000E-03 0. -1.
        -11    1    3    3    0    0  0.52135729755E+00  0.23852663733E+02 -0.45518936655E+01  0.24288703481E+02  0.51100000000E-03 0.  1.
         12    1    3    3    0    0 -0.17917067493E+01  0.17388303468E+02  0.11619191760E+02  0.20989733865E+02  0.00000000000E+00 0. -1.
</event>
<event>
 7    1  0.2414091E-009  0.4778727E+02  0.7816164E-02  0.1312668E+00
        -11   -1    0    0    0    0  0.00000000000E+00  0.00000000000E+00  0.45593999997E+02  0.45594000000E+02  0.51100000000E-03 0.  1.
         11   -1    0    0    0    0 -0.00000000000E+00 -0.00000000000E+00 -0.45593999997E+02  0.45594000000E+02  0.51100000000E-03 0. -1.
    9900012    2    1    2    0    0 -0.21686805513E+02  0.34617620528E+02 -0.14660363971E+02  0.47787268945E+02  0.19999990427E+02 0.  0.
         12    1    1    2    0    0  0.21686805513E+02 -0.34617620528E+02  0.14660363971E+02  0.43400731055E+02  0.00000000000E+00 0. -1.
         11    1    3    3    0    0 -0.71501831103E+01  0.19193441181E+02 -0.11901836565E+02  0.23688964029E+02  0.51100000000E-03 0. -1.
        -11    1    3    3    0    0 -0.10401909905E+02  0.16554996093E+02 -0.14004629910E+01  0.19601758140E+02  0.51100000000E-03 0.  1.
         12    1    3    3    0    0 -0.41347124975E+01 -0.11308167467E+01 -0.13580644143E+01  0.44965467756E+01  0.00000000000E+00 0. -1.
</event>
<event>
 7    1  0.2414091E-009  0.4778727E+02  0.7816164E-02  0.1312668E+00
        -11   -1    0    0    0    0  0.00000000000E+00  0.00000000000E+00  0.45593999997E+02  0.45594000000E+02  0.51100000000E-03 0.  1.
         11   -1    0    0    0    0 -0.00000000000E+00 -0.00000000000E+00 -0.45593999997E+02  0.45594000000E+02  0.51100000000E-03 0. -1.
    9900012    2    1    2    0    0 -0.30788777425E+02 -0.25067154471E+02 -0.17530318764E+02  0.47787272765E+02  0.20000007845E+02 0.  0.
         12    1    1    2    0    0  0.30788777425E+02  0.25067154471E+02  0.17530318764E+02  0.43400727235E+02  0.00000000000E+00 0. -1.
         11    1    3    3    0    0  0.59287939861E+00 -0.17794156200E+01  0.83684394455E-01  0.18774528673E+01  0.51100000000E-03 0. -1.
        -11    1    3    3    0    0 -0.15164847190E+02 -0.20565065361E+02 -0.13756757855E+02  0.29019698319E+02  0.51100000000E-03 0.  1.
         12    1    3    3    0    0 -0.16216809633E+02 -0.27226734903E+01 -0.38572453027E+01  0.16890121578E+02  0.00000000000E+00 0. -1.
</event>
<event>
 7    1  0.2414091E-009  0.4778726E+02  0.7816164E-02  0.1312668E+00
        -11   -1    0    0    0    0  0.00000000000E+00  0.00000000000E+00  0.45593999997E+02  0.45594000000E+02  0.51100000000E-03 0.  1.
         11   -1    0    0    0    0 -0.00000000000E+00 -0.00000000000E+00 -0.45593999997E+02  0.45594000000E+02  0.51100000000E-03 0. -1.
    9900012    2    1    2    0    0 -0.36787418372E+02 -0.22756354247E+02  0.35295915108E+01  0.47787264691E+02  0.19999971032E+02 0.  0.
         12    1    1    2    0    0  0.36787418372E+02  0.22756354247E+02 -0.35295915108E+01  0.43400735309E+02  0.00000000000E+00 0. -1.
         11    1    3    3    0    0 -0.41353409717E+01  0.18090914634E+00  0.11096986356E+00  0.41407834577E+01  0.51100000000E-03 0. -1.
        -11    1    3    3    0    0 -0.33624325276E+02 -0.18356583769E+02  0.51511968408E+01  0.38653515326E+02  0.51100000000E-03 0.  1.
         12    1    3    3    0    0  0.97224787486E+00 -0.45806796241E+01 -0.17325751936E+01  0.49929659072E+01  0.00000000000E+00 0. -1.
</event>
<event>
 7    1  0.2414091E-009  0.4778729E+02  0.7816164E-02  0.1312668E+00
        -11   -1    0    0    0    0  0.00000000000E+00  0.00000000000E+00  0.45593999997E+02  0.45594000000E+02  0.51100000000E-03 0.  1.
         11   -1    0    0    0    0 -0.00000000000E+00 -0.00000000000E+00 -0.45593999997E+02  0.45594000000E+02  0.51100000000E-03 0. -1.
    9900012    2    1    2    0    0 -0.14241146096E+02 -0.24618704887E+02  0.32783086435E+02  0.47787289999E+02  0.20000086419E+02 0.  0.
         12    1    1    2    0    0  0.14241146096E+02  0.24618704887E+02 -0.32783086435E+02  0.43400710001E+02  0.00000000000E+00 0. -1.
         11    1    3    3    0    0  0.20081864183E+01 -0.37085779911E+01  0.12625553185E+01  0.44023186618E+01  0.51100000000E-03 0. -1.
        -11    1    3    3    0    0 -0.25753323377E+01 -0.11447719071E+02  0.19887632762E+02  0.23091135652E+02  0.51100000000E-03 0.  1.
         12    1    3    3    0    0 -0.13674000176E+02 -0.94624078255E+01  0.11632898354E+02  0.20293835685E+02  0.00000000000E+00 0. -1.
</event>
<event>
 7    1  0.2414091E-009  0.4778727E+02  0.7816164E-02  0.1312668E+00
        -11   -1    0    0    0    0  0.00000000000E+00  0.00000000000E+00  0.45593999997E+02  0.45594000000E+02  0.51100000000E-03 0. -1.
         11   -1    0    0    0    0 -0.00000000000E+00 -0.00000000000E+00 -0.45593999997E+02  0.45594000000E+02  0.51100000000E-03 0.  1.
    9900012    2    1    2    0    0 -0.25427348772E+02 -0.25267088356E+01 -0.35081174939E+02  0.47787272377E+02  0.20000006075E+02 0.  0.
         12    1    1    2    0    0  0.25427348772E+02  0.25267088356E+01  0.35081174939E+02  0.43400727623E+02  0.00000000000E+00 0. -1.
         11    1    3    3    0    0  0.48806774238E+00  0.97846696572E+00  0.66856983539E+00  0.12816370820E+01  0.51100000000E-03 0. -1.
        -11    1    3    3    0    0 -0.51501054491E+01 -0.79869629131E+00 -0.18965243056E+02  0.19668298003E+02  0.51100000000E-03 0.  1.
        -12    1    3    3    0    0 -0.20765311066E+02 -0.27064795100E+01 -0.16784501718E+02  0.26837337292E+02  0.00000000000E+00 0.  1.
</event>
<event>
 7    1  0.2414091E-009  0.4778728E+02  0.7816164E-02  0.1312668E+00
        -11   -1    0    0    0    0  0.00000000000E+00  0.00000000000E+00  0.45593999997E+02  0.45594000000E+02  0.51100000000E-03 0. -1.
         11   -1    0    0    0    0 -0.00000000000E+00 -0.00000000000E+00 -0.45593999997E+02  0.45594000000E+02  0.51100000000E-03 0.  1.
    9900012    2    1    2    0    0  0.25248800256E+02  0.27229397377E+02 -0.22465098313E+02  0.47787278369E+02  0.20000033396E+02 0.  0.
         12    1    1    2    0    0 -0.25248800256E+02 -0.27229397377E+02  0.22465098313E+02  0.43400721631E+02  0.00000000000E+00 0. -1.
         11    1    3    3    0    0  0.72957473515E+01  0.11753799159E+02 -0.10990013448E+02  0.17668053654E+02  0.51100000000E-03 0. -1.
        -11    1    3    3    0    0  0.77841934391E+01  0.14929214353E+02 -0.10605724951E+02  0.19898656002E+02  0.51100000000E-03 0.  1.
         12    1    3    3    0    0  0.10168859465E+02  0.54638386494E+00 -0.86935991458E+00  0.10220568713E+02  0.00000000000E+00 0. -1.
</event>
<event>
 7    1  0.2414091E-009  0.4778724E+02  0.7816164E-02  0.1312668E+00
        -11   -1    0    0    0    0  0.00000000000E+00  0.00000000000E+00  0.45593999997E+02  0.45594000000E+02  0.51100000000E-03 0. -1.
         11   -1    0    0    0    0 -0.00000000000E+00 -0.00000000000E+00 -0.45593999997E+02  0.45594000000E+02  0.51100000000E-03 0.  1.
    9900012    2    1    2    0    0  0.16410199916E+02  0.23669266528E+02 -0.32466863060E+02  0.47787239221E+02  0.19999854904E+02 0.  0.
         12    1    1    2    0    0 -0.16410199916E+02 -0.23669266528E+02  0.32466863060E+02  0.43400760779E+02  0.00000000000E+00 0. -1.
         11    1    3    3    0    0  0.18411747697E+01  0.81626882105E+01 -0.10454690588E+02  0.13391040248E+02  0.51100000000E-03 0. -1.
        -11    1    3    3    0    0  0.90229852735E+01  0.17792069986E+02 -0.19487999715E+02  0.27888243953E+02  0.51100000000E-03 0.  1.
        -12    1    3    3    0    0  0.55460398727E+01 -0.22854916691E+01 -0.25241727563E+01  0.65079550200E+01  0.00000000000E+00 0.  1.
</event>
<event>
 7    1  0.2414091E-009  0.4778727E+02  0.7816164E-02  0.1312668E+00
        -11   -1    0    0    0    0  0.00000000000E+00  0.00000000000E+00  0.45593999997E+02  0.45594000000E+02  0.51100000000E-03 0.  1.
         11   -1    0    0    0    0 -0.00000000000E+00 -0.00000000000E+00 -0.45593999997E+02  0.45594000000E+02  0.51100000000E-03 0. -1.
    9900012    2    1    2    0    0 -0.78320466196E+01 -0.78749338196E+01  0.41955546975E+02  0.47787268913E+02  0.19999990284E+02 0.  0.
         12    1    1    2    0    0  0.78320466196E+01  0.78749338196E+01 -0.41955546975E+02  0.43400731087E+02  0.00000000000E+00 0. -1.
         11    1    3    3    0    0  0.47940682088E+00 -0.28291056452E+01  0.18693453836E+02  0.18912400329E+02  0.51100000000E-03 0. -1.
        -11    1    3    3    0    0 -0.95989179283E+01 -0.67837496815E+01  0.23888055701E+02  0.26623254696E+02  0.51100000000E-03 0.  1.
        -12    1    3    3    0    0  0.12874644878E+01  0.17379215072E+01 -0.62596256252E+00  0.22516138883E+01  0.00000000000E+00 0.  1.
</event>
<event>
 7    1  0.2414091E-009  0.4778728E+02  0.7816164E-02  0.1312668E+00
        -11   -1    0    0    0    0  0.00000000000E+00  0.00000000000E+00  0.45593999997E+02  0.45594000000E+02  0.51100000000E-03 0. -1.
         11   -1    0    0    0    0 -0.00000000000E+00 -0.00000000000E+00 -0.45593999997E+02  0.45594000000E+02  0.51100000000E-03 0.  1.
    9900012    2    1    2    0    0 -0.40427257159E+02 -0.13630857224E+02  0.79661261303E+01  0.47787279319E+02  0.20000037729E+02 0.  0.
         12    1    1    2    0    0  0.40427257159E+02  0.13630857224E+02 -0.79661261303E+01  0.43400720681E+02  0.00000000000E+00 0. -1.
         11    1    3    3    0    0 -0.85197321945E+01  0.14066787262E+01 -0.25735597030E+01  0.90104268217E+01  0.51100000000E-03 0.  1.
        -11    1    3    3    0    0 -0.10766982903E+02 -0.11253198185E+01  0.77547098249E+01  0.13316523204E+02  0.51100000000E-03 0. -1.
         12    1    3    3    0    0 -0.21140542062E+02 -0.13912216131E+02  0.27849760083E+01  0.25460329293E+02  0.00000000000E+00 0. -1.
</event>
<event>
 7    1  0.2414091E-009  0.4778727E+02  0.7816164E-02  0.1312668E+00
        -11   -1    0    0    0    0  0.00000000000E+00  0.00000000000E+00  0.45593999997E+02  0.45594000000E+02  0.51100000000E-03 0.  1.
         11   -1    0    0    0    0 -0.00000000000E+00 -0.00000000000E+00 -0.45593999997E+02  0.45594000000E+02  0.51100000000E-03 0. -1.
    9900012    2    1    2    0    0 -0.10584639816E+02  0.42083108094E+02  0.77504873813E+00  0.47787270888E+02  0.19999999286E+02 0.  0.
         12    1    1    2    0    0  0.10584639816E+02 -0.42083108094E+02 -0.77504873813E+00  0.43400729112E+02  0.00000000000E+00 0. -1.
         11    1    3    3    0    0 -0.64681784369E+00 -0.31711798917E+00  0.26292914330E+01  0.27261898032E+01  0.51100000000E-03 0. -1.
        -11    1    3    3    0    0  0.16116759195E+01  0.19728189986E+01 -0.16137600907E+01  0.30155821929E+01  0.51100000000E-03 0.  1.
        -12    1    3    3    0    0 -0.11549497892E+02  0.40427407085E+02 -0.24048260421E+00  0.42045498892E+02  0.00000000000E+00 0.  1.
</event>
<event>
 7    1  0.2414091E-009  0.4778727E+02  0.7816164E-02  0.1312668E+00
        -11   -1    0    0    0    0  0.00000000000E+00  0.00000000000E+00  0.45593999997E+02  0.45594000000E+02  0.51100000000E-03 0.  1.
         11   -1    0    0    0    0 -0.00000000000E+00 -0.00000000000E+00 -0.45593999997E+02  0.45594000000E+02  0.51100000000E-03 0. -1.
    9900012    2    1    2    0    0 -0.59402171316E+01 -0.75965506398E+01  0.42315835283E+02  0.47787266402E+02  0.19999978833E+02 0.  0.
         12    1    1    2    0    0  0.59402171316E+01  0.75965506398E+01 -0.42315835283E+02  0.43400733598E+02  0.00000000000E+00 0. -1.
         11    1    3    3    0    0 -0.41644716481E+00 -0.74179133723E+01  0.68511146870E+01  0.10106267350E+02  0.51100000000E-03 0. -1.
        -11    1    3    3    0    0  0.11510700360E+01 -0.42862772762E+01  0.83488000809E+01  0.94551360735E+01  0.51100000000E-03 0.  1.
        -12    1    3    3    0    0 -0.66748400028E+01  0.41076400086E+01  0.27115920515E+02  0.28225862978E+02  0.00000000000E+00 0.  1.
</event>
<event>
 7    1  0.2414091E-009  0.4778727E+02  0.7816164E-02  0.1312668E+00
        -11   -1    0    0    0    0  0.00000000000E+00  0.00000000000E+00  0.45593999997E+02  0.45594000000E+02  0.51100000000E-03 0.  1.
         11   -1    0    0    0    0 -0.00000000000E+00 -0.00000000000E+00 -0.45593999997E+02  0.45594000000E+02  0.51100000000E-03 0. -1.
    9900012    2    1    2    0    0 -0.31931697322E+02  0.27477698445E+02  0.10438678367E+02  0.47787271761E+02  0.20000003265E+02 0.  0.
         12    1    1    2    0    0  0.31931697322E+02 -0.27477698445E+02 -0.10438678367E+02  0.43400728239E+02  0.00000000000E+00 0. -1.
         11    1    3    3    0    0 -0.79842879774E+01  0.43473989060E+01 -0.21972971701E+01  0.93529057982E+01  0.51100000000E-03 0. -1.
        -11    1    3    3    0    0 -0.18133140404E+02  0.12619018608E+02  0.16456221548E+01  0.22153069406E+02  0.51100000000E-03 0.  1.
        -12    1    3    3    0    0 -0.58142689403E+01  0.10511280930E+02  0.10990353382E+02  0.16281296557E+02  0.00000000000E+00 0.  1.
</event>
<event>
 7    1  0.2414091E-009  0.4778727E+02  0.7816164E-02  0.1312668E+00
        -11   -1    0    0    0    0  0.00000000000E+00  0.00000000000E+00  0.45593999997E+02  0.45594000000E+02  0.51100000000E-03 0.  1.
         11   -1    0    0    0    0 -0.00000000000E+00 -0.00000000000E+00 -0.45593999997E+02  0.45594000000E+02  0.51100000000E-03 0. -1.
    9900012    2    1    2    0    0 -0.11868784342E+02  0.10927193413E+02  0.40290834825E+02  0.47787274562E+02  0.20000016039E+02 0.  0.
         12    1    1    2    0    0  0.11868784342E+02 -0.10927193413E+02 -0.40290834825E+02  0.43400725438E+02  0.00000000000E+00 0. -1.
         11    1    3    3    0    0  0.78431317164E+00 -0.22110657770E+00  0.93227726901E+01  0.93583185542E+01  0.51100000000E-03 0. -1.
        -11    1    3    3    0    0 -0.12529863722E+02  0.35151504189E+01  0.26651398830E+02  0.29658908059E+02  0.51100000000E-03 0.  1.
         12    1    3    3    0    0 -0.12323379181E+00  0.76331495717E+01  0.43166633045E+01  0.87700479494E+01  0.00000000000E+00 0. -1.
</event>
<event>
 7    1  0.2414091E-009  0.4778727E+02  0.7816164E-02  0.1312668E+00
        -11   -1    0    0    0    0  0.00000000000E+00  0.00000000000E+00  0.45593999997E+02  0.45594000000E+02  0.51100000000E-03 0. -1.
         11   -1    0    0    0    0 -0.00000000000E+00 -0.00000000000E+00 -0.45593999997E+02  0.45594000000E+02  0.51100000000E-03 0.  1.
    9900012    2    1    2    0    0  0.12444219218E+02 -0.13793496784E+02 -0.39223768093E+02  0.47787272715E+02  0.20000007617E+02 0.  0.
         12    1    1    2    0    0 -0.12444219218E+02  0.13793496784E+02  0.39223768093E+02  0.43400727285E+02  0.00000000000E+00 0. -1.
         11    1    3    3    0    0  0.73828262520E+01 -0.32604730213E+01 -0.22448172573E+02  0.23854921084E+02  0.51100000000E-03 0. -1.
        -11    1    3    3    0    0 -0.14132158831E+01  0.22901038693E+01 -0.29898567740E+01  0.40225612058E+01  0.51100000000E-03 0.  1.
        -12    1    3    3    0    0  0.64746088490E+01 -0.12823127632E+02 -0.13785738746E+02  0.19909790425E+02  0.00000000000E+00 0.  1.
</event>
<event>
 7    1  0.2414091E-009  0.4778726E+02  0.7816164E-02  0.1312668E+00
        -11   -1    0    0    0    0  0.00000000000E+00  0.00000000000E+00  0.45593999997E+02  0.45594000000E+02  0.51100000000E-03 0.  1.
         11   -1    0    0    0    0 -0.00000000000E+00 -0.00000000000E+00 -0.45593999997E+02  0.45594000000E+02  0.51100000000E-03 0. -1.
    9900012    2    1    2    0    0  0.30995654694E+02 -0.50577798678E+01  0.29955169475E+02  0.47787263538E+02  0.19999965776E+02 0.  0.
         12    1    1    2    0    0 -0.30995654694E+02  0.50577798678E+01 -0.29955169475E+02  0.43400736462E+02  0.00000000000E+00 0. -1.
         11    1    3    3    0    0  0.99496097447E+01 -0.38851183985E+01  0.17862762392E+02  0.20812668248E+02  0.51100000000E-03 0. -1.
        -11    1    3    3    0    0  0.49584628577E+01 -0.54320853262E+01  0.25116568542E+01  0.77718932903E+01  0.51100000000E-03 0.  1.
        -12    1    3    3    0    0  0.16087582092E+02  0.42594238569E+01  0.95807502290E+01  0.19202702000E+02  0.00000000000E+00 0.  1.
</event>
<event>
 7    1  0.2414091E-009  0.4778726E+02  0.7816164E-02  0.1312668E+00
        -11   -1    0    0    0    0  0.00000000000E+00  0.00000000000E+00  0.45593999997E+02  0.45594000000E+02  0.51100000000E-03 0.  1.
         11   -1    0    0    0    0 -0.00000000000E+00 -0.00000000000E+00 -0.45593999997E+02  0.45594000000E+02  0.51100000000E-03 0. -1.
    9900012    2    1    2    0    0 -0.18497030794E+02 -0.76958531906E+01  0.38500097763E+02  0.47787264611E+02  0.19999970669E+02 0.  0.
         12    1    1    2    0    0  0.18497030794E+02  0.76958531906E+01 -0.38500097763E+02  0.43400735389E+02  0.00000000000E+00 0. -1.
         11    1    3    3    0    0 -0.85521432792E+01 -0.10327274480E+02  0.18966725764E+02  0.23227751491E+02  0.51100000000E-03 0. -1.
        -11    1    3    3    0    0 -0.45828443386E+01 -0.36925139068E+01  0.45650346592E+01  0.74482657636E+01  0.51100000000E-03 0.  1.
        -12    1    3    3    0    0 -0.53620431766E+01  0.63239351963E+01  0.14968337339E+02  0.17111247357E+02  0.00000000000E+00 0.  1.
</event>
<event>
 7    1  0.2414091E-009  0.4778727E+02  0.7816164E-02  0.1312668E+00
        -11   -1    0    0    0    0  0.00000000000E+00  0.00000000000E+00  0.45593999997E+02  0.45594000000E+02  0.51100000000E-03 0.  1.
         11   -1    0    0    0    0 -0.00000000000E+00 -0.00000000000E+00 -0.45593999997E+02  0.45594000000E+02  0.51100000000E-03 0. -1.
    9900012    2    1    2    0    0 -0.43239253656E+02  0.27233671281E+00  0.37304246697E+01  0.47787270833E+02  0.19999999035E+02 0.  0.
         12    1    1    2    0    0  0.43239253656E+02 -0.27233671281E+00 -0.37304246697E+01  0.43400729167E+02  0.00000000000E+00 0. -1.
         11    1    3    3    0    0 -0.61688467661E+01 -0.23539546014E+01 -0.46244013735E+00  0.66188838810E+01  0.51100000000E-03 0. -1.
        -11    1    3    3    0    0 -0.15805321046E+02 -0.21271686048E+01 -0.60938276209E+01  0.17072426745E+02  0.51100000000E-03 0.  1.
         12    1    3    3    0    0 -0.21265085844E+02  0.47534599190E+01  0.10286692428E+02  0.24095960206E+02  0.00000000000E+00 0. -1.
</event>
<event>
 7    1  0.2414091E-009  0.4778728E+02  0.7816164E-02  0.1312668E+00
        -11   -1    0    0    0    0  0.00000000000E+00  0.00000000000E+00  0.45593999997E+02  0.45594000000E+02  0.51100000000E-03 0. -1.
         11   -1    0    0    0    0 -0.00000000000E+00 -0.00000000000E+00 -0.45593999997E+02  0.45594000000E+02  0.51100000000E-03 0.  1.
    9900012    2    1    2    0    0  0.35321335490E+02  0.25099592532E+02 -0.24569545290E+01  0.47787275218E+02  0.20000019028E+02 0.  0.
         12    1    1    2    0    0 -0.35321335490E+02 -0.25099592532E+02  0.24569545290E+01  0.43400724782E+02  0.00000000000E+00 0. -1.
         11    1    3    3    0    0  0.22423247085E+01  0.10019854109E+01  0.36089465444E+01  0.43653740142E+01  0.51100000000E-03 0. -1.
        -11    1    3    3    0    0  0.86315626072E+01  0.12744732923E+02  0.13889297953E+01  0.15455135604E+02  0.51100000000E-03 0.  1.
        -12    1    3    3    0    0  0.24447448174E+02  0.11352874198E+02 -0.74548308687E+01  0.27966765599E+02  0.00000000000E+00 0.  1.
</event>
<event>
 7    1  0.2414091E-009  0.4778726E+02  0.7816164E-02  0.1312668E+00
        -11   -1    0    0    0    0  0.00000000000E+00  0.00000000000E+00  0.45593999997E+02  0.45594000000E+02  0.51100000000E-03 0. -1.
         11   -1    0    0    0    0 -0.00000000000E+00 -0.00000000000E+00 -0.45593999997E+02  0.45594000000E+02  0.51100000000E-03 0.  1.
    9900012    2    1    2    0    0  0.14232133065E+02 -0.61285729755E+00 -0.40996275641E+02  0.47787264729E+02  0.19999971206E+02 0.  0.
         12    1    1    2    0    0 -0.14232133065E+02  0.61285729755E+00  0.40996275641E+02  0.43400735271E+02  0.00000000000E+00 0. -1.
         11    1    3    3    0    0  0.29204908716E+01 -0.68459048500E+01 -0.27200296720E+02  0.28200209610E+02  0.51100000000E-03 0. -1.
        -11    1    3    3    0    0  0.64551191991E-01  0.17003573604E+01 -0.10762138456E+01  0.20133600056E+01  0.51100000000E-03 0.  1.
         12    1    3    3    0    0  0.11247091001E+02  0.45326901920E+01 -0.12719765075E+02  0.17573695113E+02  0.00000000000E+00 0. -1.
</event>
<event>
 7    1  0.2414091E-009  0.4778728E+02  0.7816164E-02  0.1312668E+00
        -11   -1    0    0    0    0  0.00000000000E+00  0.00000000000E+00  0.45593999997E+02  0.45594000000E+02  0.51100000000E-03 0.  1.
         11   -1    0    0    0    0 -0.00000000000E+00 -0.00000000000E+00 -0.45593999997E+02  0.45594000000E+02  0.51100000000E-03 0. -1.
    9900012    2    1    2    0    0 -0.32579924487E+02 -0.26399756938E+02 -0.11190354008E+02  0.47787278015E+02  0.20000031783E+02 0.  0.
         12    1    1    2    0    0  0.32579924487E+02  0.26399756938E+02  0.11190354008E+02  0.43400721985E+02  0.00000000000E+00 0. -1.
         11    1    3    3    0    0 -0.25766085948E+02 -0.17783430590E+02 -0.16271716376E+02  0.35283287017E+02  0.51100000000E-03 0. -1.
        -11    1    3    3    0    0 -0.59279321761E+01 -0.65008734468E+01  0.27117643507E+01  0.92062696903E+01  0.51100000000E-03 0.  1.
         12    1    3    3    0    0 -0.88590636251E+00 -0.21154529013E+01  0.23695980172E+01  0.32977213078E+01  0.00000000000E+00 0. -1.
</event>
<event>
 7    1  0.2414091E-009  0.4778730E+02  0.7816164E-02  0.1312668E+00
        -11   -1    0    0    0    0  0.00000000000E+00  0.00000000000E+00  0.45593999997E+02  0.45594000000E+02  0.51100000000E-03 0. -1.
         11   -1    0    0    0    0 -0.00000000000E+00 -0.00000000000E+00 -0.45593999997E+02  0.45594000000E+02  0.51100000000E-03 0.  1.
    9900012    2    1    2    0    0 -0.37690732070E+02  0.13922233144E+01 -0.21473027521E+02  0.47787303224E+02  0.20000146719E+02 0.  0.
         12    1    1    2    0    0  0.37690732070E+02 -0.13922233144E+01  0.21473027521E+02  0.43400696776E+02  0.00000000000E+00 0. -1.
         11    1    3    3    0    0 -0.61252662026E+01 -0.18255450199E+01  0.98977844329E+00  0.64677014696E+01  0.51100000000E-03 0. -1.
        -11    1    3    3    0    0 -0.11390430581E+02  0.63616581409E+01 -0.36301397853E+01  0.13542175536E+02  0.51100000000E-03 0.  1.
        -12    1    3    3    0    0 -0.20175035287E+02 -0.31438898066E+01 -0.18832666179E+02  0.27777426219E+02  0.00000000000E+00 0.  1.
</event>
<event>
 7    1  0.2414091E-009  0.4778727E+02  0.7816164E-02  0.1312668E+00
        -11   -1    0    0    0    0  0.00000000000E+00  0.00000000000E+00  0.45593999997E+02  0.45594000000E+02  0.51100000000E-03 0.  1.
         11   -1    0    0    0    0 -0.00000000000E+00 -0.00000000000E+00 -0.45593999997E+02  0.45594000000E+02  0.51100000000E-03 0. -1.
    9900012    2    1    2    0    0  0.71259536882E+01 -0.20380976372E+02  0.37649167937E+02  0.47787271202E+02  0.20000000718E+02 0.  0.
         12    1    1    2    0    0 -0.71259536882E+01  0.20380976372E+02 -0.37649167937E+02  0.43400728798E+02  0.00000000000E+00 0. -1.
         11    1    3    3    0    0 -0.38247069495E+00  0.13665044119E+01 -0.85106665277E+00  0.16546700120E+01  0.51100000000E-03 0. -1.
        -11    1    3    3    0    0 -0.68351750530E+00 -0.73358123806E+00  0.87099452628E+01  0.87674673854E+01  0.51100000000E-03 0.  1.
        -12    1    3    3    0    0  0.81919418885E+01 -0.21013899546E+02  0.29790289327E+02  0.37365133804E+02  0.00000000000E+00 0.  1.
</event>
<event>
 7    1  0.2414091E-009  0.4778727E+02  0.7816164E-02  0.1312668E+00
        -11   -1    0    0    0    0  0.00000000000E+00  0.00000000000E+00  0.45593999997E+02  0.45594000000E+02  0.51100000000E-03 0.  1.
         11   -1    0    0    0    0 -0.00000000000E+00 -0.00000000000E+00 -0.45593999997E+02  0.45594000000E+02  0.51100000000E-03 0. -1.
    9900012    2    1    2    0    0  0.12127114569E+02  0.36748080504E+02  0.19650317670E+02  0.47787270593E+02  0.19999997941E+02 0.  0.
         12    1    1    2    0    0 -0.12127114569E+02 -0.36748080504E+02 -0.19650317670E+02  0.43400729407E+02  0.00000000000E+00 0. -1.
         11    1    3    3    0    0  0.12720626538E+02  0.28526748427E+02  0.96696128151E+01  0.32696958996E+02  0.51100000000E-03 0. -1.
        -11    1    3    3    0    0 -0.15484676222E+01  0.80708210210E+01  0.41995340086E+01  0.92288672155E+01  0.51100000000E-03 0.  1.
        -12    1    3    3    0    0  0.95495565289E+00  0.15051105676E+00  0.57811708468E+01  0.58614443815E+01  0.00000000000E+00 0.  1.
</event>
<event>
 7    1  0.2414091E-009  0.4778727E+02  0.7816164E-02  0.1312668E+00
        -11   -1    0    0    0    0  0.00000000000E+00  0.00000000000E+00  0.45593999997E+02  0.45594000000E+02  0.51100000000E-03 0. -1.
         11   -1    0    0    0    0 -0.00000000000E+00 -0.00000000000E+00 -0.45593999997E+02  0.45594000000E+02  0.51100000000E-03 0.  1.
    9900012    2    1    2    0    0  0.22253937193E+02  0.70861446526E+01 -0.36581032944E+02  0.47787272611E+02  0.20000007144E+02 0.  0.
         12    1    1    2    0    0 -0.22253937193E+02 -0.70861446526E+01  0.36581032944E+02  0.43400727389E+02  0.00000000000E+00 0. -1.
         11    1    3    3    0    0 -0.25549737143E-01  0.10334999269E+01 -0.73847761690E+01  0.74567884652E+01  0.51100000000E-03 0. -1.
        -11    1    3    3    0    0  0.14750685546E+02  0.10517187600E+02 -0.24272179488E+02  0.30287500003E+02  0.51100000000E-03 0.  1.
         12    1    3    3    0    0  0.75288013845E+01 -0.44645428747E+01 -0.49240772872E+01  0.10042984143E+02  0.00000000000E+00 0. -1.
</event>
<event>
 7    1  0.2414091E-009  0.4778727E+02  0.7816164E-02  0.1312668E+00
        -11   -1    0    0    0    0  0.00000000000E+00  0.00000000000E+00  0.45593999997E+02  0.45594000000E+02  0.51100000000E-03 0.  1.
         11   -1    0    0    0    0 -0.00000000000E+00 -0.00000000000E+00 -0.45593999997E+02  0.45594000000E+02  0.51100000000E-03 0. -1.
    9900012    2    1    2    0    0  0.76746747046E+01 -0.34206870920E+02  0.25585394111E+02  0.47787273718E+02  0.20000012192E+02 0.  0.
         12    1    1    2    0    0 -0.76746747046E+01  0.34206870920E+02 -0.25585394111E+02  0.43400726282E+02  0.00000000000E+00 0. -1.
         11    1    3    3    0    0 -0.72742926158E+00 -0.16762382235E+02  0.81522104354E+01  0.18653823918E+02  0.51100000000E-03 0. -1.
        -11    1    3    3    0    0 -0.24545112626E+01 -0.87380394079E+01  0.44806435568E+01  0.10121962516E+02  0.51100000000E-03 0.  1.
         12    1    3    3    0    0  0.10856615229E+02 -0.87064492773E+01  0.12952540118E+02  0.19011487284E+02  0.00000000000E+00 0. -1.
</event>
<event>
 7    1  0.2414091E-009  0.4778727E+02  0.7816164E-02  0.1312668E+00
        -11   -1    0    0    0    0  0.00000000000E+00  0.00000000000E+00  0.45593999997E+02  0.45594000000E+02  0.51100000000E-03 0.  1.
         11   -1    0    0    0    0 -0.00000000000E+00 -0.00000000000E+00 -0.45593999997E+02  0.45594000000E+02  0.51100000000E-03 0. -1.
    9900012    2    1    2    0    0 -0.13591597474E+02  0.27555589073E+02  0.30652587747E+02  0.47787272510E+02  0.20000006682E+02 0.  0.
         12    1    1    2    0    0  0.13591597474E+02 -0.27555589073E+02 -0.30652587747E+02  0.43400727490E+02  0.00000000000E+00 0. -1.
         11    1    3    3    0    0 -0.56366334553E+01  0.96177202643E+00  0.10174227593E+01  0.58079076673E+01  0.51100000000E-03 0. -1.
        -11    1    3    3    0    0 -0.26830853915E+01  0.92846653913E+01  0.36839049591E+01  0.10342877484E+02  0.51100000000E-03 0.  1.
        -12    1    3    3    0    0 -0.52718786275E+01  0.17309151655E+02  0.25951260029E+02  0.31636487358E+02  0.00000000000E+00 0.  1.
</event>
<event>
 7    1  0.2414091E-009  0.4778727E+02  0.7816164E-02  0.1312668E+00
        -11   -1    0    0    0    0  0.00000000000E+00  0.00000000000E+00  0.45593999997E+02  0.45594000000E+02  0.51100000000E-03 0.  1.
         11   -1    0    0    0    0 -0.00000000000E+00 -0.00000000000E+00 -0.45593999997E+02  0.45594000000E+02  0.51100000000E-03 0. -1.
    9900012    2    1    2    0    0 -0.30015997459E+02 -0.28087630863E+02  0.13919346927E+02  0.47787270400E+02  0.19999997061E+02 0.  0.
         12    1    1    2    0    0  0.30015997459E+02  0.28087630863E+02 -0.13919346927E+02  0.43400729600E+02  0.00000000000E+00 0. -1.
         11    1    3    3    0    0 -0.99268369843E+01 -0.15767256565E+01 -0.26803013768E+01  0.10402507969E+02  0.51100000000E-03 0. -1.
        -11    1    3    3    0    0 -0.88812221464E+00 -0.13599353698E+01  0.18847541087E+01  0.24880682446E+01  0.51100000000E-03 0.  1.
        -12    1    3    3    0    0 -0.19201038260E+02 -0.25150969836E+02  0.14714894195E+02  0.34896694187E+02  0.00000000000E+00 0.  1.
</event>
<event>
 7    1  0.2414091E-009  0.4778727E+02  0.7816164E-02  0.1312668E+00
        -11   -1    0    0    0    0  0.00000000000E+00  0.00000000000E+00  0.45593999997E+02  0.45594000000E+02  0.51100000000E-03 0. -1.
         11   -1    0    0    0    0 -0.00000000000E+00 -0.00000000000E+00 -0.45593999997E+02  0.45594000000E+02  0.51100000000E-03 0.  1.
    9900012    2    1    2    0    0  0.59006717847E+01  0.30031157643E+02 -0.30772310836E+02  0.47787268773E+02  0.19999989643E+02 0.  0.
         12    1    1    2    0    0 -0.59006717847E+01 -0.30031157643E+02  0.30772310836E+02  0.43400731227E+02  0.00000000000E+00 0. -1.
         11    1    3    3    0    0  0.84887142524E+01  0.18293142861E+02 -0.22229694006E+02  0.30014273958E+02  0.51100000000E-03 0. -1.
        -11    1    3    3    0    0 -0.60859431240E+00  0.12795215711E+02 -0.87597842418E+01  0.15518432664E+02  0.51100000000E-03 0.  1.
         12    1    3    3    0    0 -0.19794481553E+01 -0.10572009295E+01  0.21716741186E+00  0.22545621503E+01  0.00000000000E+00 0. -1.
</event>
<event>
 7    1  0.2414091E-009  0.4778728E+02  0.7816164E-02  0.1312668E+00
        -11   -1    0    0    0    0  0.00000000000E+00  0.00000000000E+00  0.45593999997E+02  0.45594000000E+02  0.51100000000E-03 0. -1.
         11   -1    0    0    0    0 -0.00000000000E+00 -0.00000000000E+00 -0.45593999997E+02  0.45594000000E+02  0.51100000000E-03 0.  1.
    9900012    2    1    2    0    0 -0.32783207138E+02 -0.25018288920E+02 -0.13526620865E+02  0.47787275090E+02  0.20000018443E+02 0.  0.
         12    1    1    2    0    0  0.32783207138E+02  0.25018288920E+02  0.13526620865E+02  0.43400724910E+02  0.00000000000E+00 0. -1.
         11    1    3    3    0    0 -0.22280976637E+02 -0.18730002329E+02 -0.10172889369E+02  0.30834113990E+02  0.51100000000E-03 0.  1.
        -11    1    3    3    0    0 -0.76163941411E+01 -0.82870291609E+01  0.10696186394E+01  0.11306122073E+02  0.51100000000E-03 0. -1.
        -12    1    3    3    0    0 -0.28858363591E+01  0.19987425698E+01 -0.44233501355E+01  0.56470390271E+01  0.00000000000E+00 0.  1.
</event>
<event>
 7    1  0.2414091E-009  0.4778727E+02  0.7816164E-02  0.1312668E+00
        -11   -1    0    0    0    0  0.00000000000E+00  0.00000000000E+00  0.45593999997E+02  0.45594000000E+02  0.51100000000E-03 0.  1.
         11   -1    0    0    0    0 -0.00000000000E+00 -0.00000000000E+00 -0.45593999997E+02  0.45594000000E+02  0.51100000000E-03 0. -1.
    9900012    2    1    2    0    0 -0.17369906003E+02 -0.16668709925E+02  0.36111821809E+02  0.47787271901E+02  0.20000003907E+02 0.  0.
         12    1    1    2    0    0  0.17369906003E+02  0.16668709925E+02 -0.36111821809E+02  0.43400728099E+02  0.00000000000E+00 0. -1.
         11    1    3    3    0    0  0.25050554138E+01 -0.13764119260E+01  0.72813468214E+01  0.78222646472E+01  0.51100000000E-03 0. -1.
        -11    1    3    3    0    0 -0.49571978446E+01 -0.22212246042E+01  0.60226808324E+00  0.54653797963E+01  0.51100000000E-03 0.  1.
        -12    1    3    3    0    0 -0.14917763573E+02 -0.13071073395E+02  0.28228206904E+02  0.34499627458E+02  0.00000000000E+00 0.  1.
</event>
<event>
 7    1  0.2414091E-009  0.4778727E+02  0.7816164E-02  0.1312668E+00
        -11   -1    0    0    0    0  0.00000000000E+00  0.00000000000E+00  0.45593999997E+02  0.45594000000E+02  0.51100000000E-03 0.  1.
         11   -1    0    0    0    0 -0.00000000000E+00 -0.00000000000E+00 -0.45593999997E+02  0.45594000000E+02  0.51100000000E-03 0. -1.
    9900012    2    1    2    0    0 -0.19540767057E+02  0.25283217273E+02  0.29369049233E+02  0.47787266069E+02  0.19999977317E+02 0.  0.
         12    1    1    2    0    0  0.19540767057E+02 -0.25283217273E+02 -0.29369049233E+02  0.43400733931E+02  0.00000000000E+00 0. -1.
         11    1    3    3    0    0 -0.48531718875E+01  0.97305987170E+01  0.14205032726E+02  0.17889124734E+02  0.51100000000E-03 0. -1.
        -11    1    3    3    0    0 -0.13577723588E+02  0.54548803934E+01  0.12862472369E+02  0.19482132678E+02  0.51100000000E-03 0.  1.
         12    1    3    3    0    0 -0.11098715816E+01  0.10097738163E+02  0.23015441373E+01  0.10416008658E+02  0.00000000000E+00 0. -1.
</event>
<event>
 7    1  0.2414091E-009  0.4778727E+02  0.7816164E-02  0.1312668E+00
        -11   -1    0    0    0    0  0.00000000000E+00  0.00000000000E+00  0.45593999997E+02  0.45594000000E+02  0.51100000000E-03 0.  1.
         11   -1    0    0    0    0 -0.00000000000E+00 -0.00000000000E+00 -0.45593999997E+02  0.45594000000E+02  0.51100000000E-03 0. -1.
    9900012    2    1    2    0    0  0.24716532229E+02  0.32617535975E+02  0.14450354273E+02  0.47787270086E+02  0.19999995629E+02 0.  0.
         12    1    1    2    0    0 -0.24716532229E+02 -0.32617535975E+02 -0.14450354273E+02  0.43400729914E+02  0.00000000000E+00 0. -1.
         11    1    3    3    0    0 -0.69877271530E+00  0.13185668811E+01 -0.19060881897E+01  0.24207590494E+01  0.51100000000E-03 0. -1.
        -11    1    3    3    0    0  0.15369578925E+02  0.19239105915E+02  0.16550382509E+02  0.29669551972E+02  0.51100000000E-03 0.  1.
         12    1    3    3    0    0  0.10045726019E+02  0.12059863179E+02 -0.19394004625E+00  0.15696959064E+02  0.00000000000E+00 0. -1.
</event>
<event>
 7    1  0.2414091E-009  0.4778727E+02  0.7816164E-02  0.1312668E+00
        -11   -1    0    0    0    0  0.00000000000E+00  0.00000000000E+00  0.45593999997E+02  0.45594000000E+02  0.51100000000E-03 0. -1.
         11   -1    0    0    0    0 -0.00000000000E+00 -0.00000000000E+00 -0.45593999997E+02  0.45594000000E+02  0.51100000000E-03 0.  1.
    9900012    2    1    2    0    0  0.11116735555E+02  0.32401740005E+02 -0.26648994016E+02  0.47787269052E+02  0.19999990915E+02 0.  0.
         12    1    1    2    0    0 -0.11116735555E+02 -0.32401740005E+02  0.26648994016E+02  0.43400730948E+02  0.00000000000E+00 0. -1.
         11    1    3    3    0    0  0.77862273777E+00 -0.40293561350E+00 -0.27342756420E+00  0.91835361947E+00  0.51100000000E-03 0. -1.
        -11    1    3    3    0    0 -0.17632782143E+01  0.78331781688E+01  0.74991871990E+00  0.80641309906E+01  0.51100000000E-03 0.  1.
         12    1    3    3    0    0  0.12101391032E+02  0.24971497450E+02 -0.27125485171E+02  0.38804784442E+02  0.00000000000E+00 0. -1.
</event>
<event>
 7    1  0.2414091E-009  0.4778726E+02  0.7816164E-02  0.1312668E+00
        -11   -1    0    0    0    0  0.00000000000E+00  0.00000000000E+00  0.45593999997E+02  0.45594000000E+02  0.51100000000E-03 0.  1.
         11   -1    0    0    0    0 -0.00000000000E+00 -0.00000000000E+00 -0.45593999997E+02  0.45594000000E+02  0.51100000000E-03 0. -1.
    9900012    2    1    2    0    0  0.21923447801E+01 -0.19019677456E+02  0.38949579595E+02  0.47787259721E+02  0.19999948371E+02 0.  0.
         12    1    1    2    0    0 -0.21923447801E+01  0.19019677456E+02 -0.38949579595E+02  0.43400740279E+02  0.00000000000E+00 0. -1.
         11    1    3    3    0    0 -0.39985542676E+01 -0.21429724514E+01  0.14991658861E+02  0.15663033002E+02  0.51100000000E-03 0.  1.
        -11    1    3    3    0    0  0.25161356714E+01 -0.12730011256E+01  0.11447735350E+02  0.11789915839E+02  0.51100000000E-03 0. -1.
        -12    1    3    3    0    0  0.36747633763E+01 -0.15603703879E+02  0.12510185383E+02  0.20334310880E+02  0.00000000000E+00 0.  1.
</event>
<event>
 7    1  0.2414091E-009  0.4778727E+02  0.7816164E-02  0.1312668E+00
        -11   -1    0    0    0    0  0.00000000000E+00  0.00000000000E+00  0.45593999997E+02  0.45594000000E+02  0.51100000000E-03 0.  1.
         11   -1    0    0    0    0 -0.00000000000E+00 -0.00000000000E+00 -0.45593999997E+02  0.45594000000E+02  0.51100000000E-03 0. -1.
    9900012    2    1    2    0    0 -0.13227209394E+02 -0.10508162625E+02  0.39978033191E+02  0.47787266274E+02  0.19999978251E+02 0.  0.
         12    1    1    2    0    0  0.13227209394E+02  0.10508162625E+02 -0.39978033191E+02  0.43400733726E+02  0.00000000000E+00 0. -1.
         11    1    3    3    0    0 -0.99589972940E+01 -0.12849687234E+01  0.20251957913E+02  0.22604746654E+02  0.51100000000E-03 0.  1.
        -11    1    3    3    0    0  0.46290235696E+00 -0.15248758071E+01  0.15606155394E+02  0.15687307330E+02  0.51100000000E-03 0. -1.
         12    1    3    3    0    0 -0.37311144570E+01 -0.76983180947E+01  0.41199198832E+01  0.94952122895E+01  0.00000000000E+00 0. -1.
</event>
<event>
 7    1  0.2414091E-009  0.4778727E+02  0.7816164E-02  0.1312668E+00
        -11   -1    0    0    0    0  0.00000000000E+00  0.00000000000E+00  0.45593999997E+02  0.45594000000E+02  0.51100000000E-03 0.  1.
         11   -1    0    0    0    0 -0.00000000000E+00 -0.00000000000E+00 -0.45593999997E+02  0.45594000000E+02  0.51100000000E-03 0. -1.
    9900012    2    1    2    0    0 -0.40701172096E+02  0.14812792661E+02  0.27603417351E+01  0.47787265871E+02  0.19999976414E+02 0.  0.
         12    1    1    2    0    0  0.40701172096E+02 -0.14812792661E+02 -0.27603417351E+01  0.43400734129E+02  0.00000000000E+00 0. -1.
         11    1    3    3    0    0 -0.10171426858E+01 -0.11773599089E+01  0.72500384709E+00  0.17165041328E+01  0.51100000000E-03 0. -1.
        -11    1    3    3    0    0 -0.20523219207E+02  0.80126194105E+01  0.95288788307E+01  0.24004252300E+02  0.51100000000E-03 0.  1.
         12    1    3    3    0    0 -0.19160810203E+02  0.79775331595E+01 -0.74935409426E+01  0.22066509439E+02  0.00000000000E+00 0. -1.
</event>
<event>
 7    1  0.2414091E-009  0.4778727E+02  0.7816164E-02  0.1312668E+00
        -11   -1    0    0    0    0  0.00000000000E+00  0.00000000000E+00  0.45593999997E+02  0.45594000000E+02  0.51100000000E-03 0. -1.
         11   -1    0    0    0    0 -0.00000000000E+00 -0.00000000000E+00 -0.45593999997E+02  0.45594000000E+02  0.51100000000E-03 0.  1.
    9900012    2    1    2    0    0 -0.17100545094E+02 -0.74125390246E+01 -0.39195007984E+02  0.47787273875E+02  0.20000012907E+02 0.  0.
         12    1    1    2    0    0  0.17100545094E+02  0.74125390246E+01  0.39195007984E+02  0.43400726125E+02  0.00000000000E+00 0. -1.
         11    1    3    3    0    0 -0.25461768520E+01  0.19866308942E+01 -0.12182528688E+02  0.12603321957E+02  0.51100000000E-03 0. -1.
        -11    1    3    3    0    0 -0.48601483515E+01 -0.89278042364E+01 -0.22056580036E+02  0.24286198830E+02  0.51100000000E-03 0.  1.
        -12    1    3    3    0    0 -0.96942198902E+01 -0.47136568239E+00 -0.49558992607E+01  0.10897753088E+02  0.00000000000E+00 0.  1.
</event>
<event>
 7    1  0.2414091E-009  0.4778727E+02  0.7816164E-02  0.1312668E+00
        -11   -1    0    0    0    0  0.00000000000E+00  0.00000000000E+00  0.45593999997E+02  0.45594000000E+02  0.51100000000E-03 0. -1.
         11   -1    0    0    0    0 -0.00000000000E+00 -0.00000000000E+00 -0.45593999997E+02  0.45594000000E+02  0.51100000000E-03 0.  1.
    9900012    2    1    2    0    0  0.38343241635E+02 -0.12535983612E+02 -0.16008381857E+02  0.47787270122E+02  0.19999995796E+02 0.  0.
         12    1    1    2    0    0 -0.38343241635E+02  0.12535983612E+02  0.16008381857E+02  0.43400729878E+02  0.00000000000E+00 0. -1.
         11    1    3    3    0    0  0.44113758740E+01 -0.37283352393E+01 -0.81882421989E+00  0.58336261555E+01  0.51100000000E-03 0. -1.
        -11    1    3    3    0    0  0.25441912702E+01 -0.29939165715E+01 -0.84637722520E+01  0.93312317864E+01  0.51100000000E-03 0.  1.
         12    1    3    3    0    0  0.31387674491E+02 -0.58137318012E+01 -0.67257853851E+01  0.32622412180E+02  0.00000000000E+00 0. -1.
</event>
<event>
 7    1  0.2414091E-009  0.4778727E+02  0.7816164E-02  0.1312668E+00
        -11   -1    0    0    0    0  0.00000000000E+00  0.00000000000E+00  0.45593999997E+02  0.45594000000E+02  0.51100000000E-03 0.  1.
         11   -1    0    0    0    0 -0.00000000000E+00 -0.00000000000E+00 -0.45593999997E+02  0.45594000000E+02  0.51100000000E-03 0. -1.
    9900012    2    1    2    0    0  0.11784745653E+02  0.37507687065E+02 -0.18382497777E+02  0.47787273698E+02  0.20000012098E+02 0.  0.
         12    1    1    2    0    0 -0.11784745653E+02 -0.37507687065E+02  0.18382497777E+02  0.43400726302E+02  0.00000000000E+00 0. -1.
         11    1    3    3    0    0  0.76666105311E+01  0.17859719445E+02 -0.13726990350E+02  0.23794469106E+02  0.51100000000E-03 0. -1.
        -11    1    3    3    0    0 -0.26896924109E+01  0.84804901337E+01 -0.61693306111E+01  0.10826532161E+02  0.51100000000E-03 0.  1.
        -12    1    3    3    0    0  0.68078275324E+01  0.11167477486E+02  0.15138231840E+01  0.13166272432E+02  0.00000000000E+00 0.  1.
</event>
<event>
 7    1  0.2414091E-009  0.4778729E+02  0.7816164E-02  0.1312668E+00
        -11   -1    0    0    0    0  0.00000000000E+00  0.00000000000E+00  0.45593999997E+02  0.45594000000E+02  0.51100000000E-03 0. -1.
         11   -1    0    0    0    0 -0.00000000000E+00 -0.00000000000E+00 -0.45593999997E+02  0.45594000000E+02  0.51100000000E-03 0.  1.
    9900012    2    1    2    0    0 -0.27967642899E+01 -0.47979499294E+01 -0.43043919240E+02  0.47787294965E+02  0.20000109062E+02 0.  0.
         12    1    1    2    0    0  0.27967642899E+01  0.47979499294E+01  0.43043919240E+02  0.43400705035E+02  0.00000000000E+00 0. -1.
         11    1    3    3    0    0  0.16483375744E+01 -0.13139130421E+01 -0.27726672661E+01  0.34829683132E+01  0.51100000000E-03 0. -1.
        -11    1    3    3    0    0 -0.53926738421E+01  0.62436838870E+01 -0.13697529754E+02  0.15990210795E+02  0.51100000000E-03 0.  1.
         12    1    3    3    0    0  0.94757197776E+00 -0.97277207743E+01 -0.26573722220E+02  0.28314115856E+02  0.00000000000E+00 0. -1.
</event>
<event>
 7    1  0.2414091E-009  0.4778727E+02  0.7816164E-02  0.1312668E+00
        -11   -1    0    0    0    0  0.00000000000E+00  0.00000000000E+00  0.45593999997E+02  0.45594000000E+02  0.51100000000E-03 0.  1.
         11   -1    0    0    0    0 -0.00000000000E+00 -0.00000000000E+00 -0.45593999997E+02  0.45594000000E+02  0.51100000000E-03 0. -1.
    9900012    2    1    2    0    0  0.68577030804E+01 -0.23070230833E+02  0.36115921276E+02  0.47787269455E+02  0.19999992755E+02 0.  0.
         12    1    1    2    0    0 -0.68577030804E+01  0.23070230833E+02 -0.36115921276E+02  0.43400730545E+02  0.00000000000E+00 0. -1.
         11    1    3    3    0    0  0.16970290514E+01 -0.10884386961E+02  0.83362894683E+01  0.13814612172E+02  0.51100000000E-03 0. -1.
        -11    1    3    3    0    0  0.22768986945E+01 -0.15158561780E+02  0.20498113852E+02  0.25595681953E+02  0.51100000000E-03 0.  1.
         12    1    3    3    0    0  0.28837753345E+01  0.29727179079E+01  0.72815179556E+01  0.83769753299E+01  0.00000000000E+00 0. -1.
</event>
<event>
 7    1  0.2414091E-009  0.4778727E+02  0.7816164E-02  0.1312668E+00
        -11   -1    0    0    0    0  0.00000000000E+00  0.00000000000E+00  0.45593999997E+02  0.45594000000E+02  0.51100000000E-03 0.  1.
         11   -1    0    0    0    0 -0.00000000000E+00 -0.00000000000E+00 -0.45593999997E+02  0.45594000000E+02  0.51100000000E-03 0. -1.
    9900012    2    1    2    0    0 -0.87955825920E+01  0.41510686044E+02 -0.91172415300E+01  0.47787269337E+02  0.19999992217E+02 0.  0.
         12    1    1    2    0    0  0.87955825920E+01 -0.41510686044E+02  0.91172415300E+01  0.43400730663E+02  0.00000000000E+00 0. -1.
         11    1    3    3    0    0 -0.42709081591E+01  0.27264856437E+02 -0.13437389427E+01  0.27630032350E+02  0.51100000000E-03 0. -1.
        -11    1    3    3    0    0  0.71807586447E-01  0.13931664798E+02 -0.51353760978E+01  0.14848182660E+02  0.51100000000E-03 0.  1.
         12    1    3    3    0    0 -0.45964820194E+01  0.31416480858E+00 -0.26381264896E+01  0.53090543279E+01  0.00000000000E+00 0. -1.
</event>
<event>
 7    1  0.2414091E-009  0.4778728E+02  0.7816164E-02  0.1312668E+00
        -11   -1    0    0    0    0  0.00000000000E+00  0.00000000000E+00  0.45593999997E+02  0.45594000000E+02  0.51100000000E-03 0.  1.
         11   -1    0    0    0    0 -0.00000000000E+00 -0.00000000000E+00 -0.45593999997E+02  0.45594000000E+02  0.51100000000E-03 0. -1.
    9900012    2    1    2    0    0 -0.40600925924E+02  0.88158200297E+01  0.12548659833E+02  0.47787277283E+02  0.20000028445E+02 0.  0.
         12    1    1    2    0    0  0.40600925924E+02 -0.88158200297E+01 -0.12548659833E+02  0.43400722717E+02  0.00000000000E+00 0. -1.
         11    1    3    3    0    0 -0.72435017917E+01 -0.30484472017E+01 -0.18520314938E+01  0.80741172560E+01  0.51100000000E-03 0. -1.
        -11    1    3    3    0    0 -0.21409143325E+02  0.27857008895E+01  0.11383147122E+02  0.24406711905E+02  0.51100000000E-03 0.  1.
         12    1    3    3    0    0 -0.11948280808E+02  0.90785663419E+01  0.30175442053E+01  0.15306448122E+02  0.00000000000E+00 0. -1.
</event>
<event>
 7    1  0.2414091E-009  0.4778727E+02  0.7816164E-02  0.1312668E+00
        -11   -1    0    0    0    0  0.00000000000E+00  0.00000000000E+00  0.45593999997E+02  0.45594000000E+02  0.51100000000E-03 0. -1.
         11   -1    0    0    0    0 -0.00000000000E+00 -0.00000000000E+00 -0.45593999997E+02  0.45594000000E+02  0.51100000000E-03 0.  1.
    9900012    2    1    2    0    0  0.94900169581E+01 -0.23965782633E+02 -0.34917106463E+02  0.47787268637E+02  0.19999989023E+02 0.  0.
         12    1    1    2    0    0 -0.94900169581E+01  0.23965782633E+02  0.34917106463E+02  0.43400731363E+02  0.00000000000E+00 0. -1.
         11    1    3    3    0    0  0.57928643390E+01 -0.29372424532E+01 -0.23708469953E+01  0.69141583880E+01  0.51100000000E-03 0. -1.
        -11    1    3    3    0    0  0.73456168995E+01 -0.72492349974E+01 -0.15926709319E+02  0.18978133883E+02  0.51100000000E-03 0.  1.
         12    1    3    3    0    0 -0.36484642803E+01 -0.13779305182E+02 -0.16619550149E+02  0.21894976366E+02  0.00000000000E+00 0. -1.
</event>
<event>
 7    1  0.2414091E-009  0.4778727E+02  0.7816164E-02  0.1312668E+00
        -11   -1    0    0    0    0  0.00000000000E+00  0.00000000000E+00  0.45593999997E+02  0.45594000000E+02  0.51100000000E-03 0.  1.
         11   -1    0    0    0    0 -0.00000000000E+00 -0.00000000000E+00 -0.45593999997E+02  0.45594000000E+02  0.51100000000E-03 0. -1.
    9900012    2    1    2    0    0 -0.18355162401E+02 -0.12286000503E+02  0.37359947223E+02  0.47787268997E+02  0.19999990663E+02 0.  0.
         12    1    1    2    0    0  0.18355162401E+02  0.12286000503E+02 -0.37359947223E+02  0.43400731003E+02  0.00000000000E+00 0. -1.
         11    1    3    3    0    0 -0.38417509258E+01 -0.11226660282E+02  0.92259587182E+01  0.15030477897E+02  0.51100000000E-03 0. -1.
        -11    1    3    3    0    0 -0.66324420736E+00 -0.26940146336E+01  0.37272349808E+01  0.46464920734E+01  0.51100000000E-03 0.  1.
        -12    1    3    3    0    0 -0.13850167268E+02  0.16346744132E+01  0.24406753524E+02  0.28110299027E+02  0.00000000000E+00 0.  1.
</event>
<event>
 7    1  0.2414091E-009  0.4778728E+02  0.7816164E-02  0.1312668E+00
        -11   -1    0    0    0    0  0.00000000000E+00  0.00000000000E+00  0.45593999997E+02  0.45594000000E+02  0.51100000000E-03 0.  1.
         11   -1    0    0    0    0 -0.00000000000E+00 -0.00000000000E+00 -0.45593999997E+02  0.45594000000E+02  0.51100000000E-03 0. -1.
    9900012    2    1    2    0    0  0.20514690043E+02  0.22345224925E+01  0.38180845523E+02  0.47787279232E+02  0.20000037328E+02 0.  0.
         12    1    1    2    0    0 -0.20514690043E+02 -0.22345224925E+01 -0.38180845523E+02  0.43400720768E+02  0.00000000000E+00 0. -1.
         11    1    3    3    0    0 -0.32792119031E+00  0.56497280960E+01  0.78909391192E+01  0.97105036075E+01  0.51100000000E-03 0. -1.
        -11    1    3    3    0    0  0.38814094241E+01  0.94540324536E+00  0.12878651857E+01  0.41973471874E+01  0.51100000000E-03 0.  1.
        -12    1    3    3    0    0  0.16961201810E+02 -0.43606088489E+01  0.29002041218E+02  0.33879428437E+02  0.00000000000E+00 0.  1.
</event>
<event>
 7    1  0.2414091E-009  0.4778727E+02  0.7816164E-02  0.1312668E+00
        -11   -1    0    0    0    0  0.00000000000E+00  0.00000000000E+00  0.45593999997E+02  0.45594000000E+02  0.51100000000E-03 0.  1.
         11   -1    0    0    0    0 -0.00000000000E+00 -0.00000000000E+00 -0.45593999997E+02  0.45594000000E+02  0.51100000000E-03 0. -1.
    9900012    2    1    2    0    0  0.14486380238E+02 -0.35788094324E+02  0.19823736987E+02  0.47787268948E+02  0.19999990441E+02 0.  0.
         12    1    1    2    0    0 -0.14486380238E+02  0.35788094324E+02 -0.19823736987E+02  0.43400731052E+02  0.00000000000E+00 0. -1.
         11    1    3    3    0    0 -0.36176959238E+01 -0.78429815124E+01  0.73042625594E+01  0.11311601770E+02  0.51100000000E-03 0. -1.
        -11    1    3    3    0    0  0.64755176301E+00 -0.66822878079E+01  0.18035378169E+01  0.69516215771E+01  0.51100000000E-03 0.  1.
        -12    1    3    3    0    0  0.17456524399E+02 -0.21262825003E+02  0.10715936611E+02  0.29524045601E+02  0.00000000000E+00 0.  1.
</event>
<event>
 7    1  0.2414091E-009  0.4778727E+02  0.7816164E-02  0.1312668E+00
        -11   -1    0    0    0    0  0.00000000000E+00  0.00000000000E+00  0.45593999997E+02  0.45594000000E+02  0.51100000000E-03 0. -1.
         11   -1    0    0    0    0 -0.00000000000E+00 -0.00000000000E+00 -0.45593999997E+02  0.45594000000E+02  0.51100000000E-03 0.  1.
    9900012    2    1    2    0    0  0.30116456969E+02  0.23567167327E+02 -0.20523425775E+02  0.47787270032E+02  0.19999995384E+02 0.  0.
         12    1    1    2    0    0 -0.30116456969E+02 -0.23567167327E+02  0.20523425775E+02  0.43400729968E+02  0.00000000000E+00 0. -1.
         11    1    3    3    0    0  0.43510404004E+01  0.26476897283E+01 -0.24610316620E+01  0.56567208316E+01  0.51100000000E-03 0. -1.
        -11    1    3    3    0    0  0.14020854231E+02  0.16973676179E+02 -0.19812363262E+02  0.29617896189E+02  0.51100000000E-03 0.  1.
         12    1    3    3    0    0  0.11744562338E+02  0.39458014199E+01  0.17499691489E+01  0.12512653011E+02  0.00000000000E+00 0. -1.
</event>
<event>
 7    1  0.2414091E-009  0.4778727E+02  0.7816164E-02  0.1312668E+00
        -11   -1    0    0    0    0  0.00000000000E+00  0.00000000000E+00  0.45593999997E+02  0.45594000000E+02  0.51100000000E-03 0.  1.
         11   -1    0    0    0    0 -0.00000000000E+00 -0.00000000000E+00 -0.45593999997E+02  0.45594000000E+02  0.51100000000E-03 0. -1.
    9900012    2    1    2    0    0  0.11950378193E+02  0.22003458281E+01  0.41664977641E+02  0.47787269331E+02  0.19999992188E+02 0.  0.
         12    1    1    2    0    0 -0.11950378193E+02 -0.22003458281E+01 -0.41664977641E+02  0.43400730669E+02  0.00000000000E+00 0. -1.
         11    1    3    3    0    0  0.41627750436E+01 -0.28164991341E+01  0.91115135332E+01  0.10405817727E+02  0.51100000000E-03 0. -1.
        -11    1    3    3    0    0  0.46108895446E+01 -0.53664248987E+01  0.16991632439E+02  0.18405824942E+02  0.51100000000E-03 0.  1.
        -12    1    3    3    0    0  0.31767136051E+01  0.10383269861E+02  0.15561831669E+02  0.18975626662E+02  0.00000000000E+00 0.  1.
</event>
<event>
 7    1  0.2414091E-009  0.4778724E+02  0.7816164E-02  0.1312668E+00
        -11   -1    0    0    0    0  0.00000000000E+00  0.00000000000E+00  0.45593999997E+02  0.45594000000E+02  0.51100000000E-03 0.  1.
         11   -1    0    0    0    0 -0.00000000000E+00 -0.00000000000E+00 -0.45593999997E+02  0.45594000000E+02  0.51100000000E-03 0. -1.
    9900012    2    1    2    0    0 -0.29840049068E+02 -0.31510789811E+02  0.51746018304E+00  0.47787237703E+02  0.19999847984E+02 0.  0.
         12    1    1    2    0    0  0.29840049068E+02  0.31510789811E+02 -0.51746018304E+00  0.43400762297E+02  0.00000000000E+00 0. -1.
         11    1    3    3    0    0 -0.21598396027E+01 -0.80045911125E+01 -0.13531770373E+01  0.84005639300E+01  0.51100000000E-03 0. -1.
        -11    1    3    3    0    0 -0.19894429887E+02 -0.21982943992E+02  0.62856094484E+01  0.30307541198E+02  0.51100000000E-03 0.  1.
         12    1    3    3    0    0 -0.77857795779E+01 -0.15232547065E+01 -0.44149722281E+01  0.90791325748E+01  0.00000000000E+00 0. -1.
</event>
<event>
 7    1  0.2414091E-009  0.4778729E+02  0.7816164E-02  0.1312668E+00
        -11   -1    0    0    0    0  0.00000000000E+00  0.00000000000E+00  0.45593999997E+02  0.45594000000E+02  0.51100000000E-03 0. -1.
         11   -1    0    0    0    0 -0.00000000000E+00 -0.00000000000E+00 -0.45593999997E+02  0.45594000000E+02  0.51100000000E-03 0.  1.
    9900012    2    1    2    0    0  0.35047010654E+02  0.10737484349E+02  0.23238651739E+02  0.47787291935E+02  0.20000095246E+02 0.  0.
         12    1    1    2    0    0 -0.35047010654E+02 -0.10737484349E+02 -0.23238651739E+02  0.43400708065E+02  0.00000000000E+00 0. -1.
         11    1    3    3    0    0  0.35802965853E+01  0.81749046830E+01  0.73962964985E+01  0.11591065196E+02  0.51100000000E-03 0. -1.
        -11    1    3    3    0    0  0.27839889444E+01  0.20000810916E+01  0.37007280174E+01  0.50444332620E+01  0.51100000000E-03 0.  1.
        -12    1    3    3    0    0  0.28682725124E+02  0.56249857471E+00  0.12141627223E+02  0.31151793477E+02  0.00000000000E+00 0.  1.
</event>
<event>
 7    1  0.2414091E-009  0.4778727E+02  0.7816164E-02  0.1312668E+00
        -11   -1    0    0    0    0  0.00000000000E+00  0.00000000000E+00  0.45593999997E+02  0.45594000000E+02  0.51100000000E-03 0. -1.
         11   -1    0    0    0    0 -0.00000000000E+00 -0.00000000000E+00 -0.45593999997E+02  0.45594000000E+02  0.51100000000E-03 0.  1.
    9900012    2    1    2    0    0  0.30268511239E+01 -0.37770132605E+02 -0.21163143802E+02  0.47787269588E+02  0.19999993358E+02 0.  0.
         12    1    1    2    0    0 -0.30268511239E+01  0.37770132605E+02  0.21163143802E+02  0.43400730412E+02  0.00000000000E+00 0. -1.
         11    1    3    3    0    0  0.94306543016E+00 -0.11721289783E+02 -0.48347279846E+01  0.12714267636E+02  0.51100000000E-03 0. -1.
        -11    1    3    3    0    0  0.49516556469E+01 -0.26154264321E+02 -0.17623854612E+02  0.31924358842E+02  0.51100000000E-03 0.  1.
         12    1    3    3    0    0 -0.28678699531E+01  0.10542149802E+00  0.12954387952E+01  0.31486431097E+01  0.00000000000E+00 0. -1.
</event>
<event>
 7    1  0.2414091E-009  0.4778727E+02  0.7816164E-02  0.1312668E+00
        -11   -1    0    0    0    0  0.00000000000E+00  0.00000000000E+00  0.45593999997E+02  0.45594000000E+02  0.51100000000E-03 0.  1.
         11   -1    0    0    0    0 -0.00000000000E+00 -0.00000000000E+00 -0.45593999997E+02  0.45594000000E+02  0.51100000000E-03 0. -1.
    9900012    2    1    2    0    0 -0.27378504818E+02  0.12961410438E+02  0.31081232397E+02  0.47787266205E+02  0.19999977937E+02 0.  0.
         12    1    1    2    0    0  0.27378504818E+02 -0.12961410438E+02 -0.31081232397E+02  0.43400733795E+02  0.00000000000E+00 0. -1.
         11    1    3    3    0    0 -0.62420348161E+01 -0.12162040312E+01  0.16551577413E+01  0.65712782852E+01  0.51100000000E-03 0. -1.
        -11    1    3    3    0    0 -0.47244449279E+01  0.40779014578E+01  0.24460419420E+00  0.62457578923E+01  0.51100000000E-03 0.  1.
        -12    1    3    3    0    0 -0.16412025074E+02  0.10099713011E+02  0.29181470461E+02  0.34970230028E+02  0.00000000000E+00 0.  1.
</event>
<event>
 7    1  0.2414091E-009  0.4778727E+02  0.7816164E-02  0.1312668E+00
        -11   -1    0    0    0    0  0.00000000000E+00  0.00000000000E+00  0.45593999997E+02  0.45594000000E+02  0.51100000000E-03 0.  1.
         11   -1    0    0    0    0 -0.00000000000E+00 -0.00000000000E+00 -0.45593999997E+02  0.45594000000E+02  0.51100000000E-03 0. -1.
    9900012    2    1    2    0    0 -0.13063855599E+02  0.86367812832E+01  0.40476719527E+02  0.47787272613E+02  0.20000007150E+02 0.  0.
         12    1    1    2    0    0  0.13063855599E+02 -0.86367812832E+01 -0.40476719527E+02  0.43400727387E+02  0.00000000000E+00 0. -1.
         11    1    3    3    0    0 -0.46903813903E+00 -0.18780042463E+01  0.17534232630E+02  0.17640754262E+02  0.51100000000E-03 0. -1.
        -11    1    3    3    0    0 -0.41856106975E+01  0.61671094249E+01  0.29312047942E+01  0.80090284914E+01  0.51100000000E-03 0.  1.
         12    1    3    3    0    0 -0.84092067629E+01  0.43476761046E+01  0.20011282103E+02  0.22137489860E+02  0.00000000000E+00 0. -1.
</event>
<event>
 7    1  0.2414091E-009  0.4778727E+02  0.7816164E-02  0.1312668E+00
        -11   -1    0    0    0    0  0.00000000000E+00  0.00000000000E+00  0.45593999997E+02  0.45594000000E+02  0.51100000000E-03 0.  1.
         11   -1    0    0    0    0 -0.00000000000E+00 -0.00000000000E+00 -0.45593999997E+02  0.45594000000E+02  0.51100000000E-03 0. -1.
    9900012    2    1    2    0    0  0.22628896949E+01  0.16758109141E+02  0.39970845504E+02  0.47787269798E+02  0.19999994316E+02 0.  0.
         12    1    1    2    0    0 -0.22628896949E+01 -0.16758109141E+02 -0.39970845504E+02  0.43400730202E+02  0.00000000000E+00 0. -1.
         11    1    3    3    0    0 -0.39901391707E+00  0.14632243996E+01  0.16146113295E+02  0.16217188800E+02  0.51100000000E-03 0. -1.
        -11    1    3    3    0    0 -0.24442959908E+01  0.13198123500E+02  0.21972021475E+02  0.25747519779E+02  0.51100000000E-03 0.  1.
         12    1    3    3    0    0  0.51061996027E+01  0.20967612416E+01  0.18527107335E+01  0.58225612190E+01  0.00000000000E+00 0. -1.
</event>
<event>
 7    1  0.2414091E-009  0.4778727E+02  0.7816164E-02  0.1312668E+00
        -11   -1    0    0    0    0  0.00000000000E+00  0.00000000000E+00  0.45593999997E+02  0.45594000000E+02  0.51100000000E-03 0.  1.
         11   -1    0    0    0    0 -0.00000000000E+00 -0.00000000000E+00 -0.45593999997E+02  0.45594000000E+02  0.51100000000E-03 0. -1.
    9900012    2    1    2    0    0  0.28138545223E+02  0.10358495267E+02  0.31377493269E+02  0.47787271489E+02  0.20000002027E+02 0.  0.
         12    1    1    2    0    0 -0.28138545223E+02 -0.10358495267E+02 -0.31377493269E+02  0.43400728511E+02  0.00000000000E+00 0. -1.
         11    1    3    3    0    0  0.32099282605E+01  0.12765519978E+00 -0.12750204884E+01  0.34562425833E+01  0.51100000000E-03 0. -1.
        -11    1    3    3    0    0  0.20879134500E+02  0.53834551484E+01  0.17017709436E+02  0.27468568974E+02  0.51100000000E-03 0.  1.
         12    1    3    3    0    0  0.40494824624E+01  0.48473849187E+01  0.15634804321E+02  0.16862459931E+02  0.00000000000E+00 0. -1.
</event>
<event>
 7    1  0.2414091E-009  0.4778727E+02  0.7816164E-02  0.1312668E+00
        -11   -1    0    0    0    0  0.00000000000E+00  0.00000000000E+00  0.45593999997E+02  0.45594000000E+02  0.51100000000E-03 0.  1.
         11   -1    0    0    0    0 -0.00000000000E+00 -0.00000000000E+00 -0.45593999997E+02  0.45594000000E+02  0.51100000000E-03 0. -1.
    9900012    2    1    2    0    0 -0.19147592143E+02 -0.82101055321E+01  0.38073447026E+02  0.47787268599E+02  0.19999988849E+02 0.  0.
         12    1    1    2    0    0  0.19147592143E+02  0.82101055321E+01 -0.38073447026E+02  0.43400731401E+02  0.00000000000E+00 0. -1.
         11    1    3    3    0    0  0.29468831176E+00 -0.52736977188E+00  0.53008466736E+01  0.53351603345E+01  0.51100000000E-03 0. -1.
        -11    1    3    3    0    0 -0.28112589998E+01  0.21092193568E+01  0.17475496972E+02  0.17825402608E+02  0.51100000000E-03 0.  1.
         12    1    3    3    0    0 -0.16631021455E+02 -0.97919551170E+01  0.15297103380E+02  0.24626705656E+02  0.00000000000E+00 0. -1.
</event>
<event>
 7    1  0.2414091E-009  0.4778727E+02  0.7816164E-02  0.1312668E+00
        -11   -1    0    0    0    0  0.00000000000E+00  0.00000000000E+00  0.45593999997E+02  0.45594000000E+02  0.51100000000E-03 0.  1.
         11   -1    0    0    0    0 -0.00000000000E+00 -0.00000000000E+00 -0.45593999997E+02  0.45594000000E+02  0.51100000000E-03 0. -1.
    9900012    2    1    2    0    0 -0.40066733475E+01 -0.47781064684E+01  0.42950429960E+02  0.47787272281E+02  0.20000005639E+02 0.  0.
         12    1    1    2    0    0  0.40066733475E+01  0.47781064684E+01 -0.42950429960E+02  0.43400727719E+02  0.00000000000E+00 0. -1.
         11    1    3    3    0    0  0.14885226691E+01 -0.63288020414E+01  0.16516054069E+02  0.17749633159E+02  0.51100000000E-03 0. -1.
        -11    1    3    3    0    0  0.24264592334E+01 -0.34375628376E+01  0.43546977351E+01  0.60554054611E+01  0.51100000000E-03 0.  1.
        -12    1    3    3    0    0 -0.79216552501E+01  0.49882584105E+01  0.22079678157E+02  0.23982233661E+02  0.00000000000E+00 0.  1.
</event>
<event>
 7    1  0.2414091E-009  0.4778726E+02  0.7816164E-02  0.1312668E+00
        -11   -1    0    0    0    0  0.00000000000E+00  0.00000000000E+00  0.45593999997E+02  0.45594000000E+02  0.51100000000E-03 0.  1.
         11   -1    0    0    0    0 -0.00000000000E+00 -0.00000000000E+00 -0.45593999997E+02  0.45594000000E+02  0.51100000000E-03 0. -1.
    9900012    2    1    2    0    0  0.22703259192E+02 -0.22819362168E+02  0.29111224370E+02  0.47787255168E+02  0.19999927612E+02 0.  0.
         12    1    1    2    0    0 -0.22703259192E+02  0.22819362168E+02 -0.29111224370E+02  0.43400744832E+02  0.00000000000E+00 0. -1.
         11    1    3    3    0    0  0.22469283217E+01  0.19842579226E+01  0.36792339786E+01  0.47458117658E+01  0.51100000000E-03 0. -1.
        -11    1    3    3    0    0  0.18413257922E+01  0.88801640912E+00 -0.45433782170E+00  0.20941530348E+01  0.51100000000E-03 0.  1.
        -12    1    3    3    0    0  0.18615005078E+02 -0.25691636499E+02  0.25886328213E+02  0.40947290367E+02  0.00000000000E+00 0.  1.
</event>
<event>
 7    1  0.2414091E-009  0.4778727E+02  0.7816164E-02  0.1312668E+00
        -11   -1    0    0    0    0  0.00000000000E+00  0.00000000000E+00  0.45593999997E+02  0.45594000000E+02  0.51100000000E-03 0. -1.
         11   -1    0    0    0    0 -0.00000000000E+00 -0.00000000000E+00 -0.45593999997E+02  0.45594000000E+02  0.51100000000E-03 0.  1.
    9900012    2    1    2    0    0 -0.35479763471E+01  0.42542055651E+02  0.78235778379E+01  0.47787274138E+02  0.20000014103E+02 0.  0.
         12    1    1    2    0    0  0.35479763471E+01 -0.42542055651E+02 -0.78235778379E+01  0.43400725862E+02  0.00000000000E+00 0. -1.
         11    1    3    3    0    0  0.35582106263E+01  0.34079464487E+01 -0.16805986981E+01  0.52057059179E+01  0.51100000000E-03 0. -1.
        -11    1    3    3    0    0  0.11772557058E+01  0.24017435913E+02  0.33501225754E+01  0.24278518908E+02  0.51100000000E-03 0.  1.
         12    1    3    3    0    0 -0.82834426792E+01  0.15116673290E+02  0.61540539606E+01  0.18303049312E+02  0.00000000000E+00 0. -1.
</event>
<event>
 7    1  0.2414091E-009  0.4778727E+02  0.7816164E-02  0.1312668E+00
        -11   -1    0    0    0    0  0.00000000000E+00  0.00000000000E+00  0.45593999997E+02  0.45594000000E+02  0.51100000000E-03 0.  1.
         11   -1    0    0    0    0 -0.00000000000E+00 -0.00000000000E+00 -0.45593999997E+02  0.45594000000E+02  0.51100000000E-03 0. -1.
    9900012    2    1    2    0    0  0.32186120691E+02 -0.96044162973E+01  0.27485123948E+02  0.47787271711E+02  0.20000003039E+02 0.  0.
         12    1    1    2    0    0 -0.32186120691E+02  0.96044162973E+01 -0.27485123948E+02  0.43400728289E+02  0.00000000000E+00 0. -1.
         11    1    3    3    0    0  0.76796580607E+01 -0.57599708559E+01  0.11121284970E+02  0.14691405373E+02  0.51100000000E-03 0. -1.
        -11    1    3    3    0    0  0.13633121061E+02  0.29252145416E+01  0.14562213180E+02  0.20161272850E+02  0.51100000000E-03 0.  1.
         12    1    3    3    0    0  0.10873341570E+02 -0.67696599830E+01  0.18016257982E+01  0.12934593488E+02  0.00000000000E+00 0. -1.
</event>
<event>
 7    1  0.2414091E-009  0.4778727E+02  0.7816164E-02  0.1312668E+00
        -11   -1    0    0    0    0  0.00000000000E+00  0.00000000000E+00  0.45593999997E+02  0.45594000000E+02  0.51100000000E-03 0. -1.
         11   -1    0    0    0    0 -0.00000000000E+00 -0.00000000000E+00 -0.45593999997E+02  0.45594000000E+02  0.51100000000E-03 0.  1.
    9900012    2    1    2    0    0 -0.32074156913E+02  0.29043478270E+02  0.33687437798E+01  0.47787267214E+02  0.19999982534E+02 0.  0.
         12    1    1    2    0    0  0.32074156913E+02 -0.29043478270E+02 -0.33687437798E+01  0.43400732786E+02  0.00000000000E+00 0. -1.
         11    1    3    3    0    0 -0.56529707594E+01  0.26219784904E+01 -0.65662234421E+01  0.90524107377E+01  0.51100000000E-03 0. -1.
        -11    1    3    3    0    0 -0.17101799646E+02  0.17271139467E+02  0.53049105981E+01  0.24877819164E+02  0.51100000000E-03 0.  1.
         12    1    3    3    0    0 -0.93193865083E+01  0.91503603126E+01  0.46300566238E+01  0.13857037313E+02  0.00000000000E+00 0. -1.
</event>
<event>
 7    1  0.2414091E-009  0.4778727E+02  0.7816164E-02  0.1312668E+00
        -11   -1    0    0    0    0  0.00000000000E+00  0.00000000000E+00  0.45593999997E+02  0.45594000000E+02  0.51100000000E-03 0. -1.
         11   -1    0    0    0    0 -0.00000000000E+00 -0.00000000000E+00 -0.45593999997E+02  0.45594000000E+02  0.51100000000E-03 0.  1.
    9900012    2    1    2    0    0  0.15554043519E+01 -0.40138618985E+02 -0.16434589954E+02  0.47787265402E+02  0.19999974274E+02 0.  0.
         12    1    1    2    0    0 -0.15554043519E+01  0.40138618985E+02  0.16434589954E+02  0.43400734598E+02  0.00000000000E+00 0. -1.
         11    1    3    3    0    0  0.34976928766E+01 -0.10374092054E+02 -0.75082886293E+01  0.13275166282E+02  0.51100000000E-03 0. -1.
        -11    1    3    3    0    0  0.33420708906E+01 -0.20282184365E+02 -0.11217911910E+02  0.23417471861E+02  0.51100000000E-03 0.  1.
         12    1    3    3    0    0 -0.52843594153E+01 -0.94823425652E+01  0.22916105855E+01  0.11094627260E+02  0.00000000000E+00 0. -1.
</event>
<event>
 7    1  0.2414091E-009  0.4778727E+02  0.7816164E-02  0.1312668E+00
        -11   -1    0    0    0    0  0.00000000000E+00  0.00000000000E+00  0.45593999997E+02  0.45594000000E+02  0.51100000000E-03 0.  1.
         11   -1    0    0    0    0 -0.00000000000E+00 -0.00000000000E+00 -0.45593999997E+02  0.45594000000E+02  0.51100000000E-03 0. -1.
    9900012    2    1    2    0    0  0.22077742896E+02 -0.34022403634E+02 -0.15449021763E+02  0.47787274731E+02  0.20000016809E+02 0.  0.
         12    1    1    2    0    0 -0.22077742896E+02  0.34022403634E+02  0.15449021763E+02  0.43400725269E+02  0.00000000000E+00 0. -1.
         11    1    3    3    0    0  0.59912879150E+01 -0.16979185537E+01  0.10706209295E+01  0.63185985575E+01  0.51100000000E-03 0. -1.
        -11    1    3    3    0    0  0.56322952727E+01 -0.27791802322E+01 -0.57880722017E+00  0.63072665126E+01  0.51100000000E-03 0.  1.
        -12    1    3    3    0    0  0.10454159708E+02 -0.29545304848E+02 -0.15940835473E+02  0.35161409661E+02  0.00000000000E+00 0.  1.
</event>
<event>
 7    1  0.2414091E-009  0.4778727E+02  0.7816164E-02  0.1312668E+00
        -11   -1    0    0    0    0  0.00000000000E+00  0.00000000000E+00  0.45593999997E+02  0.45594000000E+02  0.51100000000E-03 0.  1.
         11   -1    0    0    0    0 -0.00000000000E+00 -0.00000000000E+00 -0.45593999997E+02  0.45594000000E+02  0.51100000000E-03 0. -1.
    9900012    2    1    2    0    0 -0.54305785355E+01  0.10473166870E+02  0.41766550741E+02  0.47787272260E+02  0.20000005544E+02 0.  0.
         12    1    1    2    0    0  0.54305785355E+01 -0.10473166870E+02 -0.41766550741E+02  0.43400727740E+02  0.00000000000E+00 0. -1.
         11    1    3    3    0    0 -0.75396128033E+01  0.74020721173E+01  0.10609731325E+02  0.14973404152E+02  0.51100000000E-03 0. -1.
        -11    1    3    3    0    0 -0.14005807880E+01  0.55763409396E+01  0.21149316405E+02  0.21916906476E+02  0.51100000000E-03 0.  1.
         12    1    3    3    0    0  0.35096150558E+01 -0.25052461869E+01  0.10007503010E+02  0.10896961632E+02  0.00000000000E+00 0. -1.
</event>
<event>
 7    1  0.2414091E-009  0.4778727E+02  0.7816164E-02  0.1312668E+00
        -11   -1    0    0    0    0  0.00000000000E+00  0.00000000000E+00  0.45593999997E+02  0.45594000000E+02  0.51100000000E-03 0.  1.
         11   -1    0    0    0    0 -0.00000000000E+00 -0.00000000000E+00 -0.45593999997E+02  0.45594000000E+02  0.51100000000E-03 0. -1.
    9900012    2    1    2    0    0  0.24693653643E+02  0.35658350767E+02  0.15260153695E+01  0.47787271520E+02  0.20000002169E+02 0.  0.
         12    1    1    2    0    0 -0.24693653643E+02 -0.35658350767E+02 -0.15260153695E+01  0.43400728480E+02  0.00000000000E+00 0. -1.
         11    1    3    3    0    0  0.13125934849E+02  0.10268238509E+02  0.33814532371E+01  0.17004737987E+02  0.51100000000E-03 0.  1.
        -11    1    3    3    0    0  0.15282452386E+01  0.94475350497E-01  0.27816635096E+01  0.31752340454E+01  0.51100000000E-03 0. -1.
        -12    1    3    3    0    0  0.10039473555E+02  0.25295636908E+02 -0.46371013771E+01  0.27607299488E+02  0.00000000000E+00 0.  1.
</event>
<event>
 7    1  0.2414091E-009  0.4778727E+02  0.7816164E-02  0.1312668E+00
        -11   -1    0    0    0    0  0.00000000000E+00  0.00000000000E+00  0.45593999997E+02  0.45594000000E+02  0.51100000000E-03 0.  1.
         11   -1    0    0    0    0 -0.00000000000E+00 -0.00000000000E+00 -0.45593999997E+02  0.45594000000E+02  0.51100000000E-03 0. -1.
    9900012    2    1    2    0    0  0.20489415567E+02  0.51990181934E+01  0.37904842623E+02  0.47787273800E+02  0.20000012563E+02 0.  0.
         12    1    1    2    0    0 -0.20489415567E+02 -0.51990181934E+01 -0.37904842623E+02  0.43400726200E+02  0.00000000000E+00 0. -1.
         11    1    3    3    0    0  0.14182954706E+02 -0.30018094406E+01  0.22236200576E+02  0.26544597952E+02  0.51100000000E-03 0. -1.
        -11    1    3    3    0    0  0.84017162962E+01  0.34236604735E+01  0.10826202772E+02  0.14125047061E+02  0.51100000000E-03 0.  1.
        -12    1    3    3    0    0 -0.20952554351E+01  0.47771671605E+01  0.48424392744E+01  0.71176287866E+01  0.00000000000E+00 0.  1.
</event>
<event>
 7    1  0.2414091E-009  0.4778728E+02  0.7816164E-02  0.1312668E+00
        -11   -1    0    0    0    0  0.00000000000E+00  0.00000000000E+00  0.45593999997E+02  0.45594000000E+02  0.51100000000E-03 0. -1.
         11   -1    0    0    0    0 -0.00000000000E+00 -0.00000000000E+00 -0.45593999997E+02  0.45594000000E+02  0.51100000000E-03 0.  1.
    9900012    2    1    2    0    0  0.31660381428E+02 -0.94346206606E+01 -0.28146593596E+02  0.47787279382E+02  0.20000038012E+02 0.  0.
         12    1    1    2    0    0 -0.31660381428E+02  0.94346206606E+01  0.28146593596E+02  0.43400720618E+02  0.00000000000E+00 0. -1.
         11    1    3    3    0    0  0.26078148017E+01  0.14025393198E+01 -0.86934222576E+01  0.91838665818E+01  0.51100000000E-03 0. -1.
        -11    1    3    3    0    0  0.63473211353E+01 -0.83378413970E+01 -0.54669327094E+01  0.11819282477E+02  0.51100000000E-03 0.  1.
        -12    1    3    3    0    0  0.22705245491E+02 -0.24993185834E+01 -0.13986238629E+02  0.26784130323E+02  0.00000000000E+00 0.  1.
</event>
<event>
 7    1  0.2414091E-009  0.4778727E+02  0.7816164E-02  0.1312668E+00
        -11   -1    0    0    0    0  0.00000000000E+00  0.00000000000E+00  0.45593999997E+02  0.45594000000E+02  0.51100000000E-03 0.  1.
         11   -1    0    0    0    0 -0.00000000000E+00 -0.00000000000E+00 -0.45593999997E+02  0.45594000000E+02  0.51100000000E-03 0. -1.
    9900012    2    1    2    0    0  0.31654576733E+02 -0.29083084101E+02  0.59820575841E+01  0.47787273947E+02  0.20000013236E+02 0.  0.
         12    1    1    2    0    0 -0.31654576733E+02  0.29083084101E+02 -0.59820575841E+01  0.43400726053E+02  0.00000000000E+00 0. -1.
         11    1    3    3    0    0  0.20584187225E+02 -0.17950275077E+02 -0.50639961461E+00  0.27316251205E+02  0.51100000000E-03 0. -1.
        -11    1    3    3    0    0  0.13478125609E+02 -0.91233361340E+01  0.55888012116E+01  0.17208423269E+02  0.51100000000E-03 0.  1.
        -12    1    3    3    0    0 -0.24077361016E+01 -0.20094728897E+01  0.89965598711E+00  0.32625994735E+01  0.00000000000E+00 0.  1.
</event>
<event>
 7    1  0.2414091E-009  0.4778727E+02  0.7816164E-02  0.1312668E+00
        -11   -1    0    0    0    0  0.00000000000E+00  0.00000000000E+00  0.45593999997E+02  0.45594000000E+02  0.51100000000E-03 0. -1.
         11   -1    0    0    0    0 -0.00000000000E+00 -0.00000000000E+00 -0.45593999997E+02  0.45594000000E+02  0.51100000000E-03 0.  1.
    9900012    2    1    2    0    0 -0.39055281140E+02 -0.13071581685E+02 -0.13690951112E+02  0.47787269879E+02  0.19999994686E+02 0.  0.
         12    1    1    2    0    0  0.39055281140E+02  0.13071581685E+02  0.13690951112E+02  0.43400730121E+02  0.00000000000E+00 0. -1.
         11    1    3    3    0    0 -0.33473669394E+02 -0.10865947531E+02 -0.39647222128E+01  0.35415736346E+02  0.51100000000E-03 0. -1.
        -11    1    3    3    0    0 -0.26306058263E+00 -0.20843782706E+01 -0.15253465353E+01  0.25962503653E+01  0.51100000000E-03 0.  1.
         12    1    3    3    0    0 -0.53185511639E+01 -0.12125588324E+00 -0.82008823635E+01  0.97752831679E+01  0.00000000000E+00 0. -1.
</event>
<event>
 7    1  0.2414091E-009  0.4778727E+02  0.7816164E-02  0.1312668E+00
        -11   -1    0    0    0    0  0.00000000000E+00  0.00000000000E+00  0.45593999997E+02  0.45594000000E+02  0.51100000000E-03 0.  1.
         11   -1    0    0    0    0 -0.00000000000E+00 -0.00000000000E+00 -0.45593999997E+02  0.45594000000E+02  0.51100000000E-03 0. -1.
    9900012    2    1    2    0    0 -0.65539224181E+01  0.25632200504E+00  0.42902253668E+02  0.47787274547E+02  0.20000015972E+02 0.  0.
         12    1    1    2    0    0  0.65539224181E+01 -0.25632200504E+00 -0.42902253668E+02  0.43400725453E+02  0.00000000000E+00 0. -1.
         11    1    3    3    0    0 -0.81030271380E+01 -0.14185160348E+01  0.98992021545E+01  0.12871108736E+02  0.51100000000E-03 0. -1.
        -11    1    3    3    0    0 -0.56706964092E+00 -0.44543938365E+01  0.90759489234E+01  0.10126008174E+02  0.51100000000E-03 0.  1.
        -12    1    3    3    0    0  0.21161743608E+01  0.61292318764E+01  0.23927102590E+02  0.24790157637E+02  0.00000000000E+00 0.  1.
</event>
<event>
 7    1  0.2414091E-009  0.4778728E+02  0.7816164E-02  0.1312668E+00
        -11   -1    0    0    0    0  0.00000000000E+00  0.00000000000E+00  0.45593999997E+02  0.45594000000E+02  0.51100000000E-03 0.  1.
         11   -1    0    0    0    0 -0.00000000000E+00 -0.00000000000E+00 -0.45593999997E+02  0.45594000000E+02  0.51100000000E-03 0. -1.
    9900012    2    1    2    0    0  0.37634353516E+02 -0.12829335936E+02  0.17397885799E+02  0.47787275865E+02  0.20000021980E+02 0.  0.
         12    1    1    2    0    0 -0.37634353516E+02  0.12829335936E+02 -0.17397885799E+02  0.43400724135E+02  0.00000000000E+00 0. -1.
         11    1    3    3    0    0  0.25581425873E+01  0.15944173068E+01  0.22987767812E+01  0.37908620386E+01  0.51100000000E-03 0. -1.
        -11    1    3    3    0    0  0.25549993532E+02 -0.11074331088E+02  0.26584513269E+01  0.27973386321E+02  0.51100000000E-03 0.  1.
        -12    1    3    3    0    0  0.95262173967E+01 -0.33494221545E+01  0.12440657691E+02  0.16023027506E+02  0.00000000000E+00 0.  1.
</event>
<event>
 7    1  0.2414091E-009  0.4778727E+02  0.7816164E-02  0.1312668E+00
        -11   -1    0    0    0    0  0.00000000000E+00  0.00000000000E+00  0.45593999997E+02  0.45594000000E+02  0.51100000000E-03 0.  1.
         11   -1    0    0    0    0 -0.00000000000E+00 -0.00000000000E+00 -0.45593999997E+02  0.45594000000E+02  0.51100000000E-03 0. -1.
    9900012    2    1    2    0    0 -0.12149255749E+02 -0.19833829439E+02  0.36642027811E+02  0.47787269504E+02  0.19999992978E+02 0.  0.
         12    1    1    2    0    0  0.12149255749E+02  0.19833829439E+02 -0.36642027811E+02  0.43400730496E+02  0.00000000000E+00 0. -1.
         11    1    3    3    0    0 -0.17028339209E+01 -0.49564803936E+00  0.89710893798E+00  0.19874896349E+01  0.51100000000E-03 0. -1.
        -11    1    3    3    0    0 -0.99659429365E+01 -0.22918392379E+02  0.30499452995E+02  0.39430817404E+02  0.51100000000E-03 0.  1.
        -12    1    3    3    0    0 -0.48047889127E+00  0.35802109789E+01  0.52454658773E+01  0.63689624656E+01  0.00000000000E+00 0.  1.
</event>
<event>
 7    1  0.2512672E-009  0.4778728E+02  0.7816164E-02  0.1312668E+00
        -11   -1    0    0    0    0  0.00000000000E+00  0.00000000000E+00  0.45593999997E+02  0.45594000000E+02  0.51100000000E-03 0.  1.
         11   -1    0    0    0    0 -0.00000000000E+00 -0.00000000000E+00 -0.45593999997E+02  0.45594000000E+02  0.51100000000E-03 0. -1.
    9900012    2    1    2    0    0 -0.26488054093E+02 -0.29691883351E+02  0.17331992356E+02  0.47787275287E+02  0.20000019345E+02 0.  0.
         12    1    1    2    0    0  0.26488054093E+02  0.29691883351E+02 -0.17331992356E+02  0.43400724713E+02  0.00000000000E+00 0. -1.
         11    1    3    3    0    0 -0.39740339066E+01 -0.10103066870E+02 -0.18455153415E+01  0.11012303701E+02  0.51100000000E-03 0. -1.
        -11    1    3    3    0    0 -0.81604235079E+01 -0.13421496236E+02  0.85917423720E+01  0.17903829487E+02  0.51100000000E-03 0.  1.
         12    1    3    3    0    0 -0.14353596678E+02 -0.61673202450E+01  0.10585765326E+02  0.18871142099E+02  0.00000000000E+00 0. -1.
</event>
<event>
 7    1  0.2414091E-009  0.4778728E+02  0.7816164E-02  0.1312668E+00
        -11   -1    0    0    0    0  0.00000000000E+00  0.00000000000E+00  0.45593999997E+02  0.45594000000E+02  0.51100000000E-03 0.  1.
         11   -1    0    0    0    0 -0.00000000000E+00 -0.00000000000E+00 -0.45593999997E+02  0.45594000000E+02  0.51100000000E-03 0. -1.
    9900012    2    1    2    0    0  0.98896409128E+01 -0.68774522686E+01  0.41695540339E+02  0.47787280752E+02  0.20000044258E+02 0.  0.
         12    1    1    2    0    0 -0.98896409128E+01  0.68774522686E+01 -0.41695540339E+02  0.43400719248E+02  0.00000000000E+00 0. -1.
         11    1    3    3    0    0 -0.44260376299E+00 -0.50713825973E+01  0.10900888326E+02  0.12030967796E+02  0.51100000000E-03 0.  1.
        -11    1    3    3    0    0 -0.40624575817E+00 -0.58756729828E+01  0.15850975968E+02  0.16909819869E+02  0.51100000000E-03 0. -1.
         12    1    3    3    0    0  0.10738490434E+02  0.40696033116E+01  0.14943676045E+02  0.18846493087E+02  0.00000000000E+00 0. -1.
</event>
<event>
 7    1  0.2414091E-009  0.4778727E+02  0.7816164E-02  0.1312668E+00
        -11   -1    0    0    0    0  0.00000000000E+00  0.00000000000E+00  0.45593999997E+02  0.45594000000E+02  0.51100000000E-03 0. -1.
         11   -1    0    0    0    0 -0.00000000000E+00 -0.00000000000E+00 -0.45593999997E+02  0.45594000000E+02  0.51100000000E-03 0.  1.
    9900012    2    1    2    0    0 -0.19681859170E+01 -0.14515033536E+02 -0.40854174350E+02  0.47787268253E+02  0.19999987272E+02 0.  0.
         12    1    1    2    0    0  0.19681859170E+01  0.14515033536E+02  0.40854174350E+02  0.43400731747E+02  0.00000000000E+00 0. -1.
         11    1    3    3    0    0 -0.50793245867E+00 -0.37248425366E+01 -0.40611174477E+00  0.37811868924E+01  0.51100000000E-03 0. -1.
        -11    1    3    3    0    0  0.57722620826E+01 -0.36702224927E+01 -0.12151203091E+02  0.13944220291E+02  0.51100000000E-03 0.  1.
        -12    1    3    3    0    0 -0.72325155410E+01 -0.71199685066E+01 -0.28296859514E+02  0.30061861069E+02  0.00000000000E+00 0.  1.
</event>
<event>
 7    1  0.2414091E-009  0.4778727E+02  0.7816164E-02  0.1312668E+00
        -11   -1    0    0    0    0  0.00000000000E+00  0.00000000000E+00  0.45593999997E+02  0.45594000000E+02  0.51100000000E-03 0.  1.
         11   -1    0    0    0    0 -0.00000000000E+00 -0.00000000000E+00 -0.45593999997E+02  0.45594000000E+02  0.51100000000E-03 0. -1.
    9900012    2    1    2    0    0  0.50057094249E+01 -0.41837149721E+02  0.10402842737E+02  0.47787270045E+02  0.19999995441E+02 0.  0.
         12    1    1    2    0    0 -0.50057094249E+01  0.41837149721E+02 -0.10402842737E+02  0.43400729955E+02  0.00000000000E+00 0. -1.
         11    1    3    3    0    0  0.28851494418E+00 -0.66949907850E+01  0.72211821876E+01  0.98514778045E+01  0.51100000000E-03 0. -1.
        -11    1    3    3    0    0 -0.42124376366E+01 -0.78458130425E+01 -0.80119682395E+00  0.89411033856E+01  0.51100000000E-03 0.  1.
        -12    1    3    3    0    0  0.89296321173E+01 -0.27296345894E+02  0.39828573734E+01  0.28994688854E+02  0.00000000000E+00 0.  1.
</event>
<event>
 7    1  0.2414091E-009  0.4778727E+02  0.7816164E-02  0.1312668E+00
        -11   -1    0    0    0    0  0.00000000000E+00  0.00000000000E+00  0.45593999997E+02  0.45594000000E+02  0.51100000000E-03 0. -1.
         11   -1    0    0    0    0 -0.00000000000E+00 -0.00000000000E+00 -0.45593999997E+02  0.45594000000E+02  0.51100000000E-03 0.  1.
    9900012    2    1    2    0    0 -0.30702493826E+02 -0.21920382730E+01 -0.30596975744E+02  0.47787273237E+02  0.20000009996E+02 0.  0.
         12    1    1    2    0    0  0.30702493826E+02  0.21920382730E+01  0.30596975744E+02  0.43400726763E+02  0.00000000000E+00 0. -1.
         11    1    3    3    0    0 -0.50084774706E+01 -0.30969898564E+01 -0.12053075034E+02  0.13414649111E+02  0.51100000000E-03 0. -1.
        -11    1    3    3    0    0 -0.21126530800E+02 -0.45158380181E+01 -0.15828616126E+02  0.26781862993E+02  0.51100000000E-03 0.  1.
         12    1    3    3    0    0 -0.45674855546E+01  0.54207896014E+01 -0.27152845834E+01  0.75907611320E+01  0.00000000000E+00 0. -1.
</event>
<event>
 7    1  0.2414091E-009  0.4778727E+02  0.7816164E-02  0.1312668E+00
        -11   -1    0    0    0    0  0.00000000000E+00  0.00000000000E+00  0.45593999997E+02  0.45594000000E+02  0.51100000000E-03 0. -1.
         11   -1    0    0    0    0 -0.00000000000E+00 -0.00000000000E+00 -0.45593999997E+02  0.45594000000E+02  0.51100000000E-03 0.  1.
    9900012    2    1    2    0    0  0.40514485357E+02  0.14755020675E+02 -0.49486534978E+01  0.47787270394E+02  0.19999997035E+02 0.  0.
         12    1    1    2    0    0 -0.40514485357E+02 -0.14755020675E+02  0.49486534978E+01  0.43400729606E+02  0.00000000000E+00 0. -1.
         11    1    3    3    0    0  0.97789704706E+00  0.21428494146E+01 -0.31218943415E+01  0.39107941379E+01  0.51100000000E-03 0. -1.
        -11    1    3    3    0    0  0.13717377463E+02  0.10282517652E+02  0.32794937437E+01  0.17454274354E+02  0.51100000000E-03 0.  1.
        -12    1    3    3    0    0  0.25819210847E+02  0.23296536080E+01 -0.51062529000E+01  0.26422201903E+02  0.00000000000E+00 0.  1.
</event>
<event>
 7    1  0.2414091E-009  0.4778727E+02  0.7816164E-02  0.1312668E+00
        -11   -1    0    0    0    0  0.00000000000E+00  0.00000000000E+00  0.45593999997E+02  0.45594000000E+02  0.51100000000E-03 0.  1.
         11   -1    0    0    0    0 -0.00000000000E+00 -0.00000000000E+00 -0.45593999997E+02  0.45594000000E+02  0.51100000000E-03 0. -1.
    9900012    2    1    2    0    0  0.19314820407E+02 -0.34524716470E+02  0.17849509827E+02  0.47787270332E+02  0.19999996750E+02 0.  0.
         12    1    1    2    0    0 -0.19314820407E+02  0.34524716470E+02 -0.17849509827E+02  0.43400729668E+02  0.00000000000E+00 0. -1.
         11    1    3    3    0    0  0.93240858927E+01 -0.26449346187E+01  0.29682822651E+01  0.10136318698E+02  0.51100000000E-03 0. -1.
        -11    1    3    3    0    0  0.76074170210E+01 -0.10473223013E+02  0.69961077116E+01  0.14714167234E+02  0.51100000000E-03 0.  1.
        -12    1    3    3    0    0  0.23833174937E+01 -0.21406558838E+02  0.78851198502E+01  0.22936784400E+02  0.00000000000E+00 0.  1.
</event>
<event>
 7    1  0.2414091E-009  0.4778727E+02  0.7816164E-02  0.1312668E+00
        -11   -1    0    0    0    0  0.00000000000E+00  0.00000000000E+00  0.45593999997E+02  0.45594000000E+02  0.51100000000E-03 0.  1.
         11   -1    0    0    0    0 -0.00000000000E+00 -0.00000000000E+00 -0.45593999997E+02  0.45594000000E+02  0.51100000000E-03 0. -1.
    9900012    2    1    2    0    0 -0.96773444393E+00 -0.19066606289E+02  0.38976293420E+02  0.47787269198E+02  0.19999991582E+02 0.  0.
         12    1    1    2    0    0  0.96773444393E+00  0.19066606289E+02 -0.38976293420E+02  0.43400730802E+02  0.00000000000E+00 0. -1.
         11    1    3    3    0    0  0.38215395082E+01 -0.11197436468E+02  0.10163186157E+02  0.15597342748E+02  0.51100000000E-03 0. -1.
        -11    1    3    3    0    0  0.73001777408E+00 -0.79932562869E+01  0.11546682698E+02  0.14062395017E+02  0.51100000000E-03 0.  1.
         12    1    3    3    0    0 -0.55192917262E+01  0.12408646523E+00  0.17266424565E+02  0.18127531434E+02  0.00000000000E+00 0. -1.
</event>
<event>
 7    1  0.2414091E-009  0.4778727E+02  0.7816164E-02  0.1312668E+00
        -11   -1    0    0    0    0  0.00000000000E+00  0.00000000000E+00  0.45593999997E+02  0.45594000000E+02  0.51100000000E-03 0.  1.
         11   -1    0    0    0    0 -0.00000000000E+00 -0.00000000000E+00 -0.45593999997E+02  0.45594000000E+02  0.51100000000E-03 0. -1.
    9900012    2    1    2    0    0 -0.40368211206E+02 -0.13201649683E+02  0.89301393212E+01  0.47787269377E+02  0.19999992397E+02 0.  0.
         12    1    1    2    0    0  0.40368211206E+02  0.13201649683E+02 -0.89301393212E+01  0.43400730623E+02  0.00000000000E+00 0. -1.
         11    1    3    3    0    0 -0.24631768721E+02 -0.67841097284E+01  0.59613147766E+01  0.26235194858E+02  0.51100000000E-03 0.  1.
        -11    1    3    3    0    0 -0.17304058091E+02 -0.60295572235E+01  0.17524062886E+00  0.18325302078E+02  0.51100000000E-03 0. -1.
         12    1    3    3    0    0  0.15676156058E+01 -0.38798273142E+00  0.27935839157E+01  0.32267724403E+01  0.00000000000E+00 0. -1.
</event>
<event>
 7    1  0.2414091E-009  0.4778727E+02  0.7816164E-02  0.1312668E+00
        -11   -1    0    0    0    0  0.00000000000E+00  0.00000000000E+00  0.45593999997E+02  0.45594000000E+02  0.51100000000E-03 0.  1.
         11   -1    0    0    0    0 -0.00000000000E+00 -0.00000000000E+00 -0.45593999997E+02  0.45594000000E+02  0.51100000000E-03 0. -1.
    9900012    2    1    2    0    0 -0.33473626854E+02  0.25397169686E+02  0.10868477534E+02  0.47787265827E+02  0.19999976213E+02 0.  0.
         12    1    1    2    0    0  0.33473626854E+02 -0.25397169686E+02 -0.10868477534E+02  0.43400734173E+02  0.00000000000E+00 0. -1.
         11    1    3    3    0    0  0.91102897709E+00 -0.11924165859E+01  0.15054139705E+01  0.21255828837E+01  0.51100000000E-03 0. -1.
        -11    1    3    3    0    0 -0.82788869018E+01  0.17060549581E+01  0.33798187596E+01  0.91035030050E+01  0.51100000000E-03 0.  1.
         12    1    3    3    0    0 -0.26105768929E+02  0.24883531314E+02  0.59832448042E+01  0.36558179939E+02  0.00000000000E+00 0. -1.
</event>
<event>
 7    1  0.2414091E-009  0.4778727E+02  0.7816164E-02  0.1312668E+00
        -11   -1    0    0    0    0  0.00000000000E+00  0.00000000000E+00  0.45593999997E+02  0.45594000000E+02  0.51100000000E-03 0.  1.
         11   -1    0    0    0    0 -0.00000000000E+00 -0.00000000000E+00 -0.45593999997E+02  0.45594000000E+02  0.51100000000E-03 0. -1.
    9900012    2    1    2    0    0  0.13499017091E+02  0.38695400925E+02  0.14285163994E+02  0.47787269298E+02  0.19999992036E+02 0.  0.
         12    1    1    2    0    0 -0.13499017091E+02 -0.38695400925E+02 -0.14285163994E+02  0.43400730702E+02  0.00000000000E+00 0. -1.
         11    1    3    3    0    0  0.51355596527E+01  0.72733983782E+01 -0.45261652418E+01  0.99881163875E+01  0.51100000000E-03 0.  1.
        -11    1    3    3    0    0  0.32535959684E+00  0.16048150800E+01  0.21719070390E+01  0.27200130065E+01  0.51100000000E-03 0. -1.
        -12    1    3    3    0    0  0.80380978411E+01  0.29817187467E+02  0.16639422196E+02  0.35079139904E+02  0.00000000000E+00 0.  1.
</event>
<event>
 7    1  0.2414091E-009  0.4778727E+02  0.7816164E-02  0.1312668E+00
        -11   -1    0    0    0    0  0.00000000000E+00  0.00000000000E+00  0.45593999997E+02  0.45594000000E+02  0.51100000000E-03 0.  1.
         11   -1    0    0    0    0 -0.00000000000E+00 -0.00000000000E+00 -0.45593999997E+02  0.45594000000E+02  0.51100000000E-03 0. -1.
    9900012    2    1    2    0    0 -0.40761035686E+02  0.11640505407E+02  0.93091419560E+01  0.47787268205E+02  0.19999987055E+02 0.  0.
         12    1    1    2    0    0  0.40761035686E+02 -0.11640505407E+02 -0.93091419560E+01  0.43400731795E+02  0.00000000000E+00 0. -1.
         11    1    3    3    0    0 -0.10581798582E+02 -0.75109758285E+00  0.70451971468E+01  0.12734732502E+02  0.51100000000E-03 0.  1.
        -11    1    3    3    0    0 -0.10613267766E+02 -0.11051567196E+01  0.35569656315E+01  0.11247881081E+02  0.51100000000E-03 0. -1.
         12    1    3    3    0    0 -0.19565969339E+02  0.13496759710E+02 -0.12930208222E+01  0.23804654622E+02  0.00000000000E+00 0. -1.
</event>
<event>
 7    1  0.2414091E-009  0.4778727E+02  0.7816164E-02  0.1312668E+00
        -11   -1    0    0    0    0  0.00000000000E+00  0.00000000000E+00  0.45593999997E+02  0.45594000000E+02  0.51100000000E-03 0. -1.
         11   -1    0    0    0    0 -0.00000000000E+00 -0.00000000000E+00 -0.45593999997E+02  0.45594000000E+02  0.51100000000E-03 0.  1.
    9900012    2    1    2    0    0 -0.20300613542E+01 -0.37380298153E+02 -0.21959398841E+02  0.47787273778E+02  0.20000012465E+02 0.  0.
         12    1    1    2    0    0  0.20300613542E+01  0.37380298153E+02  0.21959398841E+02  0.43400726222E+02  0.00000000000E+00 0. -1.
         11    1    3    3    0    0 -0.29643592010E+01 -0.92752336073E+01 -0.30064955421E+01  0.10190996009E+02  0.51100000000E-03 0. -1.
        -11    1    3    3    0    0  0.54045340397E+01 -0.25373536613E+02 -0.19317501247E+02  0.32344879086E+02  0.51100000000E-03 0.  1.
        -12    1    3    3    0    0 -0.44702361929E+01 -0.27315279330E+01  0.36459794789E+00  0.52513986835E+01  0.00000000000E+00 0.  1.
</event>
<event>
 7    1  0.2414091E-009  0.4778726E+02  0.7816164E-02  0.1312668E+00
        -11   -1    0    0    0    0  0.00000000000E+00  0.00000000000E+00  0.45593999997E+02  0.45594000000E+02  0.51100000000E-03 0.  1.
         11   -1    0    0    0    0 -0.00000000000E+00 -0.00000000000E+00 -0.45593999997E+02  0.45594000000E+02  0.51100000000E-03 0. -1.
    9900012    2    1    2    0    0 -0.67534247220E+01  0.42308931504E+02  0.69260020788E+01  0.47787263425E+02  0.19999965260E+02 0.  0.
         12    1    1    2    0    0  0.67534247220E+01 -0.42308931504E+02 -0.69260020788E+01  0.43400736575E+02  0.00000000000E+00 0. -1.
         11    1    3    3    0    0 -0.49206806480E+01  0.52613960844E+01  0.57444524680E+01  0.92138005847E+01  0.51100000000E-03 0. -1.
        -11    1    3    3    0    0 -0.57758842096E+01  0.13564107756E+02  0.55028543147E+00  0.14752920794E+02  0.51100000000E-03 0.  1.
         12    1    3    3    0    0  0.39431401356E+01  0.23483427663E+02  0.63126417931E+00  0.23820542047E+02  0.00000000000E+00 0. -1.
</event>
<event>
 7    1  0.2414091E-009  0.4778727E+02  0.7816164E-02  0.1312668E+00
        -11   -1    0    0    0    0  0.00000000000E+00  0.00000000000E+00  0.45593999997E+02  0.45594000000E+02  0.51100000000E-03 0.  1.
         11   -1    0    0    0    0 -0.00000000000E+00 -0.00000000000E+00 -0.45593999997E+02  0.45594000000E+02  0.51100000000E-03 0. -1.
    9900012    2    1    2    0    0 -0.29763343214E+02 -0.19859919235E+02  0.24563191708E+02  0.47787269843E+02  0.19999994522E+02 0.  0.
         12    1    1    2    0    0  0.29763343214E+02  0.19859919235E+02 -0.24563191708E+02  0.43400730157E+02  0.00000000000E+00 0. -1.
         11    1    3    3    0    0 -0.10113206227E+02 -0.82690243529E+01  0.13864588630E+02  0.19049423143E+02  0.51100000000E-03 0. -1.
        -11    1    3    3    0    0 -0.18194284885E+02 -0.14489834898E+02  0.10405639523E+02  0.25480672126E+02  0.51100000000E-03 0.  1.
         12    1    3    3    0    0 -0.14558521022E+01  0.28989400163E+01  0.29296355465E+00  0.32571745741E+01  0.00000000000E+00 0. -1.
</event>
<event>
 7    1  0.2414091E-009  0.4778727E+02  0.7816164E-02  0.1312668E+00
        -11   -1    0    0    0    0  0.00000000000E+00  0.00000000000E+00  0.45593999997E+02  0.45594000000E+02  0.51100000000E-03 0.  1.
         11   -1    0    0    0    0 -0.00000000000E+00 -0.00000000000E+00 -0.45593999997E+02  0.45594000000E+02  0.51100000000E-03 0. -1.
    9900012    2    1    2    0    0 -0.23606501910E+02 -0.42743951245E+01  0.36167469887E+02  0.47787271157E+02  0.20000000512E+02 0.  0.
         12    1    1    2    0    0  0.23606501910E+02  0.42743951245E+01 -0.36167469887E+02  0.43400728843E+02  0.00000000000E+00 0. -1.
         11    1    3    3    0    0 -0.16747768997E+01  0.13806010123E+01  0.11222246939E+02  0.11430212747E+02  0.51100000000E-03 0. -1.
        -11    1    3    3    0    0 -0.40778400186E+01 -0.61085250284E+01  0.12805232480E+02  0.14762006516E+02  0.51100000000E-03 0.  1.
        -12    1    3    3    0    0 -0.17853884992E+02  0.45352889148E+00  0.12139990468E+02  0.21595051894E+02  0.00000000000E+00 0.  1.
</event>
<event>
 7    1  0.2414091E-009  0.4778727E+02  0.7816164E-02  0.1312668E+00
        -11   -1    0    0    0    0  0.00000000000E+00  0.00000000000E+00  0.45593999997E+02  0.45594000000E+02  0.51100000000E-03 0. -1.
         11   -1    0    0    0    0 -0.00000000000E+00 -0.00000000000E+00 -0.45593999997E+02  0.45594000000E+02  0.51100000000E-03 0.  1.
    9900012    2    1    2    0    0  0.25989435721E+02  0.26498471767E+02 -0.22494520233E+02  0.47787271716E+02  0.20000003061E+02 0.  0.
         12    1    1    2    0    0 -0.25989435721E+02 -0.26498471767E+02  0.22494520233E+02  0.43400728284E+02  0.00000000000E+00 0. -1.
         11    1    3    3    0    0  0.35947182491E+01  0.37441786631E+01 -0.68929395314E+00  0.52360289883E+01  0.51100000000E-03 0. -1.
        -11    1    3    3    0    0  0.40374443172E+01  0.16694850484E+02 -0.11148316943E+02  0.20476912859E+02  0.51100000000E-03 0.  1.
        -12    1    3    3    0    0  0.18357273155E+02  0.60594426195E+01 -0.10656909337E+02  0.22074329869E+02  0.00000000000E+00 0.  1.
</event>
<event>
 7    1  0.2414091E-009  0.4778725E+02  0.7816164E-02  0.1312668E+00
        -11   -1    0    0    0    0  0.00000000000E+00  0.00000000000E+00  0.45593999997E+02  0.45594000000E+02  0.51100000000E-03 0. -1.
         11   -1    0    0    0    0 -0.00000000000E+00 -0.00000000000E+00 -0.45593999997E+02  0.45594000000E+02  0.51100000000E-03 0.  1.
    9900012    2    1    2    0    0  0.39102015433E+02  0.81492059001E+01 -0.16977857017E+02  0.47787253501E+02  0.19999920014E+02 0.  0.
         12    1    1    2    0    0 -0.39102015433E+02 -0.81492059001E+01  0.16977857017E+02  0.43400746499E+02  0.00000000000E+00 0. -1.
         11    1    3    3    0    0 -0.58786886163E+00 -0.11073951790E+01  0.24939055872E+00  0.12783230393E+01  0.51100000000E-03 0. -1.
        -11    1    3    3    0    0  0.36258779148E+02  0.10989060145E+02 -0.18872838002E+02  0.42327798462E+02  0.51100000000E-03 0.  1.
        -12    1    3    3    0    0  0.34311051471E+01 -0.17324590661E+01  0.16455904265E+01  0.41811319996E+01  0.00000000000E+00 0.  1.
</event>
<event>
 7    1  0.2414091E-009  0.4778727E+02  0.7816164E-02  0.1312668E+00
        -11   -1    0    0    0    0  0.00000000000E+00  0.00000000000E+00  0.45593999997E+02  0.45594000000E+02  0.51100000000E-03 0. -1.
         11   -1    0    0    0    0 -0.00000000000E+00 -0.00000000000E+00 -0.45593999997E+02  0.45594000000E+02  0.51100000000E-03 0.  1.
    9900012    2    1    2    0    0 -0.35158705080E+02 -0.13067932550E+02 -0.21833876961E+02  0.47787267435E+02  0.19999983545E+02 0.  0.
         12    1    1    2    0    0  0.35158705080E+02  0.13067932550E+02  0.21833876961E+02  0.43400732565E+02  0.00000000000E+00 0. -1.
         11    1    3    3    0    0  0.47651998767E+00 -0.36371475010E+01 -0.21473601454E+01  0.42505375069E+01  0.51100000000E-03 0. -1.
        -11    1    3    3    0    0  0.38937780211E+00  0.11391680659E+01 -0.14613836904E+00  0.12127141622E+01  0.51100000000E-03 0.  1.
        -12    1    3    3    0    0 -0.36024602869E+02 -0.10569953115E+02 -0.19540378446E+02  0.42324015766E+02  0.00000000000E+00 0.  1.
</event>
<event>
 7    1  0.2414091E-009  0.4778729E+02  0.7816164E-02  0.1312668E+00
        -11   -1    0    0    0    0  0.00000000000E+00  0.00000000000E+00  0.45593999997E+02  0.45594000000E+02  0.51100000000E-03 0.  1.
         11   -1    0    0    0    0 -0.00000000000E+00 -0.00000000000E+00 -0.45593999997E+02  0.45594000000E+02  0.51100000000E-03 0. -1.
    9900012    2    1    2    0    0 -0.77476792325E+01  0.77307374686E+00  0.42696577250E+02  0.47787287041E+02  0.20000072933E+02 0.  0.
         12    1    1    2    0    0  0.77476792325E+01 -0.77307374686E+00 -0.42696577250E+02  0.43400712959E+02  0.00000000000E+00 0. -1.
         11    1    3    3    0    0 -0.70512457067E+01  0.76842051740E+00  0.26264512499E+02  0.27205425069E+02  0.51100000000E-03 0. -1.
        -11    1    3    3    0    0 -0.42457365053E+01 -0.38886367171E+01  0.13200409832E+02  0.14401340007E+02  0.51100000000E-03 0.  1.
         12    1    3    3    0    0  0.35493029795E+01  0.38932899465E+01  0.32316549192E+01  0.61805219654E+01  0.00000000000E+00 0. -1.
</event>
<event>
 7    1  0.2414091E-009  0.4778727E+02  0.7816164E-02  0.1312668E+00
        -11   -1    0    0    0    0  0.00000000000E+00  0.00000000000E+00  0.45593999997E+02  0.45594000000E+02  0.51100000000E-03 0.  1.
         11   -1    0    0    0    0 -0.00000000000E+00 -0.00000000000E+00 -0.45593999997E+02  0.45594000000E+02  0.51100000000E-03 0. -1.
    9900012    2    1    2    0    0 -0.13410284687E+02  0.38406892545E+02  0.15122771748E+02  0.47787270101E+02  0.19999995700E+02 0.  0.
         12    1    1    2    0    0  0.13410284687E+02 -0.38406892545E+02 -0.15122771748E+02  0.43400729899E+02  0.00000000000E+00 0. -1.
         11    1    3    3    0    0 -0.94976029499E+01  0.13966615719E+02  0.74176539109E+01  0.18447016188E+02  0.51100000000E-03 0. -1.
        -11    1    3    3    0    0 -0.12577064743E+00 -0.17834764365E+01  0.80481618998E+00  0.19606977880E+01  0.51100000000E-03 0.  1.
        -12    1    3    3    0    0 -0.37869110901E+01  0.26223753263E+02  0.69003016472E+01  0.27379556125E+02  0.00000000000E+00 0.  1.
</event>
<event>
 7    1  0.2414091E-009  0.4778727E+02  0.7816164E-02  0.1312668E+00
        -11   -1    0    0    0    0  0.00000000000E+00  0.00000000000E+00  0.45593999997E+02  0.45594000000E+02  0.51100000000E-03 0. -1.
         11   -1    0    0    0    0 -0.00000000000E+00 -0.00000000000E+00 -0.45593999997E+02  0.45594000000E+02  0.51100000000E-03 0.  1.
    9900012    2    1    2    0    0 -0.27443296451E+01 -0.43101531342E+01 -0.43098888675E+02  0.47787274542E+02  0.20000015949E+02 0.  0.
         12    1    1    2    0    0  0.27443296451E+01  0.43101531342E+01  0.43098888675E+02  0.43400725458E+02  0.00000000000E+00 0. -1.
         11    1    3    3    0    0 -0.69117731635E+01 -0.96006257105E-01 -0.15625680759E+02  0.17086360786E+02  0.51100000000E-03 0. -1.
        -11    1    3    3    0    0  0.46905923705E+00 -0.60306226080E+01 -0.25357718915E+02  0.26069183616E+02  0.51100000000E-03 0.  1.
        -12    1    3    3    0    0  0.36983842814E+01  0.18164757309E+01 -0.21154890006E+01  0.46317301395E+01  0.00000000000E+00 0.  1.
</event>
<event>
 7    1  0.2414091E-009  0.4778726E+02  0.7816164E-02  0.1312668E+00
        -11   -1    0    0    0    0  0.00000000000E+00  0.00000000000E+00  0.45593999997E+02  0.45594000000E+02  0.51100000000E-03 0.  1.
         11   -1    0    0    0    0 -0.00000000000E+00 -0.00000000000E+00 -0.45593999997E+02  0.45594000000E+02  0.51100000000E-03 0. -1.
    9900012    2    1    2    0    0 -0.14857798010E+01  0.28757254693E+02  0.32472089121E+02  0.47787264857E+02  0.19999971787E+02 0.  0.
         12    1    1    2    0    0  0.14857798010E+01 -0.28757254693E+02 -0.32472089121E+02  0.43400735143E+02  0.00000000000E+00 0. -1.
         11    1    3    3    0    0  0.75674697138E-01  0.13892591022E+02  0.95295922776E+01  0.16847045474E+02  0.51100000000E-03 0. -1.
        -11    1    3    3    0    0  0.40128083613E+01  0.11017206194E+02  0.70919312334E+01  0.13703173069E+02  0.51100000000E-03 0.  1.
        -12    1    3    3    0    0 -0.55742628595E+01  0.38474574768E+01  0.15850565610E+02  0.17237046314E+02  0.00000000000E+00 0.  1.
</event>
<event>
 7    1  0.2414091E-009  0.4778728E+02  0.7816164E-02  0.1312668E+00
        -11   -1    0    0    0    0  0.00000000000E+00  0.00000000000E+00  0.45593999997E+02  0.45594000000E+02  0.51100000000E-03 0.  1.
         11   -1    0    0    0    0 -0.00000000000E+00 -0.00000000000E+00 -0.45593999997E+02  0.45594000000E+02  0.51100000000E-03 0. -1.
    9900012    2    1    2    0    0  0.21989830460E+02  0.34615781545E+02  0.14206262703E+02  0.47787275632E+02  0.20000020917E+02 0.  0.
         12    1    1    2    0    0 -0.21989830460E+02 -0.34615781545E+02 -0.14206262703E+02  0.43400724368E+02  0.00000000000E+00 0. -1.
         11    1    3    3    0    0  0.97300510066E+01  0.24608736803E+02  0.96338197919E+01  0.28161574950E+02  0.51100000000E-03 0. -1.
        -11    1    3    3    0    0  0.11572063828E+02  0.11448660233E+02  0.61304253361E+01  0.17394441567E+02  0.51100000000E-03 0.  1.
         12    1    3    3    0    0  0.68771562579E+00 -0.14416154901E+01 -0.15579824249E+01  0.22312591153E+01  0.00000000000E+00 0. -1.
</event>
<event>
 7    1  0.2414091E-009  0.4778727E+02  0.7816164E-02  0.1312668E+00
        -11   -1    0    0    0    0  0.00000000000E+00  0.00000000000E+00  0.45593999997E+02  0.45594000000E+02  0.51100000000E-03 0.  1.
         11   -1    0    0    0    0 -0.00000000000E+00 -0.00000000000E+00 -0.45593999997E+02  0.45594000000E+02  0.51100000000E-03 0. -1.
    9900012    2    1    2    0    0 -0.30623329102E+02 -0.27377506098E+02  0.14010968319E+02  0.47787270068E+02  0.19999995547E+02 0.  0.
         12    1    1    2    0    0  0.30623329102E+02  0.27377506098E+02 -0.14010968319E+02  0.43400729932E+02  0.00000000000E+00 0. -1.
         11    1    3    3    0    0 -0.10043479297E+02 -0.48293359459E+01 -0.25140871693E+01  0.11424298518E+02  0.51100000000E-03 0. -1.
        -11    1    3    3    0    0 -0.75297527022E+01 -0.63477940627E+01  0.85969481372E-01  0.98488098891E+01  0.51100000000E-03 0.  1.
         12    1    3    3    0    0 -0.13050097102E+02 -0.16200376089E+02  0.16439086007E+02  0.26514161661E+02  0.00000000000E+00 0. -1.
</event>
<event>
 7    1  0.2414091E-009  0.4778727E+02  0.7816164E-02  0.1312668E+00
        -11   -1    0    0    0    0  0.00000000000E+00  0.00000000000E+00  0.45593999997E+02  0.45594000000E+02  0.51100000000E-03 0. -1.
         11   -1    0    0    0    0 -0.00000000000E+00 -0.00000000000E+00 -0.45593999997E+02  0.45594000000E+02  0.51100000000E-03 0.  1.
    9900012    2    1    2    0    0 -0.94029978673E+01 -0.37010354844E+02 -0.20626209830E+02  0.47787271129E+02  0.20000000385E+02 0.  0.
         12    1    1    2    0    0  0.94029978673E+01  0.37010354844E+02  0.20626209830E+02  0.43400728871E+02  0.00000000000E+00 0. -1.
         11    1    3    3    0    0 -0.39939793124E+01 -0.26704813061E+02 -0.19701231370E+02  0.33425101782E+02  0.51100000000E-03 0. -1.
        -11    1    3    3    0    0 -0.19159736151E+01 -0.10609072660E+02 -0.11888438924E+01  0.10846046637E+02  0.51100000000E-03 0.  1.
        -12    1    3    3    0    0 -0.34930449397E+01  0.30353087654E+00  0.26386543250E+00  0.35161227098E+01  0.00000000000E+00 0.  1.
</event>
<event>
 7    1  0.2414091E-009  0.4778727E+02  0.7816164E-02  0.1312668E+00
        -11   -1    0    0    0    0  0.00000000000E+00  0.00000000000E+00  0.45593999997E+02  0.45594000000E+02  0.51100000000E-03 0.  1.
         11   -1    0    0    0    0 -0.00000000000E+00 -0.00000000000E+00 -0.45593999997E+02  0.45594000000E+02  0.51100000000E-03 0. -1.
    9900012    2    1    2    0    0 -0.72562905794E+01  0.24663242622E+02  0.34967039200E+02  0.47787272817E+02  0.20000008082E+02 0.  0.
         12    1    1    2    0    0  0.72562905794E+01 -0.24663242622E+02 -0.34967039200E+02  0.43400727183E+02  0.00000000000E+00 0. -1.
         11    1    3    3    0    0 -0.44855728242E+01  0.56144210603E+01  0.27287052708E+01  0.76868667296E+01  0.51100000000E-03 0. -1.
        -11    1    3    3    0    0  0.44542846153E+01  0.10229014171E+02  0.94580454434E+01  0.14626277935E+02  0.51100000000E-03 0.  1.
        -12    1    3    3    0    0 -0.72250023706E+01  0.88198073902E+01  0.22780288486E+02  0.25474128153E+02  0.00000000000E+00 0.  1.
</event>
<event>
 7    1  0.2414091E-009  0.4778727E+02  0.7816164E-02  0.1312668E+00
        -11   -1    0    0    0    0  0.00000000000E+00  0.00000000000E+00  0.45593999997E+02  0.45594000000E+02  0.51100000000E-03 0.  1.
         11   -1    0    0    0    0 -0.00000000000E+00 -0.00000000000E+00 -0.45593999997E+02  0.45594000000E+02  0.51100000000E-03 0. -1.
    9900012    2    1    2    0    0  0.25177108875E+02  0.15903360514E+02  0.31572448713E+02  0.47787271841E+02  0.20000003634E+02 0.  0.
         12    1    1    2    0    0 -0.25177108875E+02 -0.15903360514E+02 -0.31572448713E+02  0.43400728159E+02  0.00000000000E+00 0. -1.
         11    1    3    3    0    0  0.10809937498E+02  0.33391714030E+01  0.73503553960E+01  0.13491943488E+02  0.51100000000E-03 0. -1.
        -11    1    3    3    0    0  0.26436907422E+01 -0.33811665237E+01  0.61134156177E+01  0.74696210465E+01  0.51100000000E-03 0.  1.
        -12    1    3    3    0    0  0.11723480635E+02  0.15945355635E+02  0.18108677699E+02  0.26825707307E+02  0.00000000000E+00 0.  1.
</event>
<event>
 7    1  0.2414091E-009  0.4778728E+02  0.7816164E-02  0.1312668E+00
        -11   -1    0    0    0    0  0.00000000000E+00  0.00000000000E+00  0.45593999997E+02  0.45594000000E+02  0.51100000000E-03 0. -1.
         11   -1    0    0    0    0 -0.00000000000E+00 -0.00000000000E+00 -0.45593999997E+02  0.45594000000E+02  0.51100000000E-03 0.  1.
    9900012    2    1    2    0    0  0.27314015148E+02 -0.32186672768E+02  0.10078950906E+02  0.47787279053E+02  0.20000036513E+02 0.  0.
         12    1    1    2    0    0 -0.27314015148E+02  0.32186672768E+02 -0.10078950906E+02  0.43400720947E+02  0.00000000000E+00 0. -1.
         11    1    3    3    0    0  0.79321571510E+01 -0.16661086826E+02  0.52373823202E+01  0.19181790978E+02  0.51100000000E-03 0. -1.
        -11    1    3    3    0    0  0.18770068153E+02 -0.17110463137E+02  0.65150879130E+01  0.26220789042E+02  0.51100000000E-03 0.  1.
         12    1    3    3    0    0  0.61178984358E+00  0.15848771950E+01 -0.16735193269E+01  0.23846990320E+01  0.00000000000E+00 0. -1.
</event>
<event>
 7    1  0.2414091E-009  0.4778727E+02  0.7816164E-02  0.1312668E+00
        -11   -1    0    0    0    0  0.00000000000E+00  0.00000000000E+00  0.45593999997E+02  0.45594000000E+02  0.51100000000E-03 0. -1.
         11   -1    0    0    0    0 -0.00000000000E+00 -0.00000000000E+00 -0.45593999997E+02  0.45594000000E+02  0.51100000000E-03 0.  1.
    9900012    2    1    2    0    0  0.14435133615E+02  0.22999271219E+01 -0.40865151291E+02  0.47787270314E+02  0.19999996668E+02 0.  0.
         12    1    1    2    0    0 -0.14435133615E+02 -0.22999271219E+01  0.40865151291E+02  0.43400729686E+02  0.00000000000E+00 0. -1.
         11    1    3    3    0    0  0.16412851131E+02  0.99271272538E+00 -0.24383645615E+02  0.29409680967E+02  0.51100000000E-03 0. -1.
        -11    1    3    3    0    0  0.22065415861E+01  0.37453608297E+00 -0.11878354509E+02  0.12087365682E+02  0.51100000000E-03 0.  1.
        -12    1    3    3    0    0 -0.41842591030E+01  0.93267831355E+00 -0.46031511675E+01  0.62902236644E+01  0.00000000000E+00 0.  1.
</event>
<event>
 7    1  0.2414091E-009  0.4778723E+02  0.7816164E-02  0.1312668E+00
        -11   -1    0    0    0    0  0.00000000000E+00  0.00000000000E+00  0.45593999997E+02  0.45594000000E+02  0.51100000000E-03 0.  1.
         11   -1    0    0    0    0 -0.00000000000E+00 -0.00000000000E+00 -0.45593999997E+02  0.45594000000E+02  0.51100000000E-03 0. -1.
    9900012    2    1    2    0    0 -0.37085853578E+02 -0.71934449268E+01  0.21366350295E+02  0.47787226845E+02  0.19999798476E+02 0.  0.
         12    1    1    2    0    0  0.37085853578E+02  0.71934449268E+01 -0.21366350295E+02  0.43400773155E+02  0.00000000000E+00 0. -1.
         11    1    3    3    0    0 -0.97752428694E+01 -0.44932803084E+00  0.44617058576E+01  0.10754723997E+02  0.51100000000E-03 0.  1.
        -11    1    3    3    0    0 -0.46693901584E+01  0.53677690722E+01  0.52060573322E+01  0.88158483694E+01  0.51100000000E-03 0. -1.
         12    1    3    3    0    0 -0.22641220550E+02 -0.12111885968E+02  0.11698587105E+02  0.28216654479E+02  0.00000000000E+00 0. -1.
</event>
<event>
 7    1  0.2414091E-009  0.4778727E+02  0.7816164E-02  0.1312668E+00
        -11   -1    0    0    0    0  0.00000000000E+00  0.00000000000E+00  0.45593999997E+02  0.45594000000E+02  0.51100000000E-03 0.  1.
         11   -1    0    0    0    0 -0.00000000000E+00 -0.00000000000E+00 -0.45593999997E+02  0.45594000000E+02  0.51100000000E-03 0. -1.
    9900012    2    1    2    0    0  0.25439788866E+02 -0.46554499156E+01  0.34853512719E+02  0.47787269357E+02  0.19999992306E+02 0.  0.
         12    1    1    2    0    0 -0.25439788866E+02  0.46554499156E+01 -0.34853512719E+02  0.43400730643E+02  0.00000000000E+00 0. -1.
         11    1    3    3    0    0  0.13704505216E+02 -0.24170698252E+01  0.20275807355E+02  0.24591950998E+02  0.51100000000E-03 0. -1.
        -11    1    3    3    0    0  0.36048807771E+01  0.37499253495E+01  0.11527897947E+02  0.12647115753E+02  0.51100000000E-03 0.  1.
         12    1    3    3    0    0  0.81304028728E+01 -0.59883054399E+01  0.30498074178E+01  0.10548202605E+02  0.00000000000E+00 0. -1.
</event>
<event>
 7    1  0.2414091E-009  0.4778727E+02  0.7816164E-02  0.1312668E+00
        -11   -1    0    0    0    0  0.00000000000E+00  0.00000000000E+00  0.45593999997E+02  0.45594000000E+02  0.51100000000E-03 0.  1.
         11   -1    0    0    0    0 -0.00000000000E+00 -0.00000000000E+00 -0.45593999997E+02  0.45594000000E+02  0.51100000000E-03 0. -1.
    9900012    2    1    2    0    0 -0.42706651618E+02  0.77170236776E+01  0.46109756208E+00  0.47787272381E+02  0.20000006096E+02 0.  0.
         12    1    1    2    0    0  0.42706651618E+02 -0.77170236776E+01 -0.46109756208E+00  0.43400727619E+02  0.00000000000E+00 0. -1.
         11    1    3    3    0    0 -0.44546094862E+01 -0.51398539618E+01 -0.18079366053E+01  0.70377751778E+01  0.51100000000E-03 0. -1.
        -11    1    3    3    0    0 -0.10231277850E+02  0.13508511234E+01  0.16566215491E+01  0.10452188308E+02  0.51100000000E-03 0.  1.
         12    1    3    3    0    0 -0.28020764282E+02  0.11506026516E+02  0.61241261835E+00  0.30297308896E+02  0.00000000000E+00 0. -1.
</event>
<event>
 7    1  0.2414091E-009  0.4778734E+02  0.7816164E-02  0.1312667E+00
        -11   -1    0    0    0    0  0.00000000000E+00  0.00000000000E+00  0.45593999997E+02  0.45594000000E+02  0.51100000000E-03 0.  1.
         11   -1    0    0    0    0 -0.00000000000E+00 -0.00000000000E+00 -0.45593999997E+02  0.45594000000E+02  0.51100000000E-03 0. -1.
    9900012    2    1    2    0    0  0.36107917786E+02  0.10184641238E+01  0.24058233757E+02  0.47787336324E+02  0.20000297633E+02 0.  0.
         12    1    1    2    0    0 -0.36107917786E+02 -0.10184641238E+01 -0.24058233757E+02  0.43400663676E+02  0.00000000000E+00 0. -1.
         11    1    3    3    0    0  0.16269025369E+02  0.33088307320E+01  0.11836614238E+02  0.20389580284E+02  0.51100000000E-03 0. -1.
        -11    1    3    3    0    0  0.60737666489E+01 -0.11125840517E+01  0.12096944139E+02  0.13581772430E+02  0.51100000000E-03 0.  1.
         12    1    3    3    0    0  0.13765125768E+02 -0.11777825565E+01  0.12467537999E+00  0.13815983610E+02  0.00000000000E+00 0. -1.
</event>
<event>
 7    1  0.2414091E-009  0.4778723E+02  0.7816164E-02  0.1312668E+00
        -11   -1    0    0    0    0  0.00000000000E+00  0.00000000000E+00  0.45593999997E+02  0.45594000000E+02  0.51100000000E-03 0. -1.
         11   -1    0    0    0    0 -0.00000000000E+00 -0.00000000000E+00 -0.45593999997E+02  0.45594000000E+02  0.51100000000E-03 0.  1.
    9900012    2    1    2    0    0  0.20382898794E+02 -0.35479776710E+02  0.14468918346E+02  0.47787231381E+02  0.19999819157E+02 0.  0.
         12    1    1    2    0    0 -0.20382898794E+02  0.35479776710E+02 -0.14468918346E+02  0.43400768619E+02  0.00000000000E+00 0. -1.
         11    1    3    3    0    0  0.39576243089E+01 -0.96148210208E+01  0.31955540624E+01  0.10877460157E+02  0.51100000000E-03 0. -1.
        -11    1    3    3    0    0  0.19504873435E+02 -0.25383428265E+02  0.10596708615E+02  0.33720153498E+02  0.51100000000E-03 0.  1.
         12    1    3    3    0    0 -0.30795989492E+01 -0.48152742414E+00  0.67665566858E+00  0.31896177266E+01  0.00000000000E+00 0. -1.
</event>
<event>
 7    1  0.2414091E-009  0.4778727E+02  0.7816164E-02  0.1312668E+00
        -11   -1    0    0    0    0  0.00000000000E+00  0.00000000000E+00  0.45593999997E+02  0.45594000000E+02  0.51100000000E-03 0.  1.
         11   -1    0    0    0    0 -0.00000000000E+00 -0.00000000000E+00 -0.45593999997E+02  0.45594000000E+02  0.51100000000E-03 0. -1.
    9900012    2    1    2    0    0 -0.17934140150E+02 -0.11442587090E+02  0.37829319482E+02  0.47787267348E+02  0.19999983147E+02 0.  0.
         12    1    1    2    0    0  0.17934140150E+02  0.11442587090E+02 -0.37829319482E+02  0.43400732652E+02  0.00000000000E+00 0. -1.
         11    1    3    3    0    0 -0.11484962371E+02 -0.28813253217E+01  0.22749077136E+02  0.25646186989E+02  0.51100000000E-03 0. -1.
        -11    1    3    3    0    0 -0.88538632879E+01 -0.89346129352E+01  0.15169262317E+02  0.19705956534E+02  0.51100000000E-03 0.  1.
         12    1    3    3    0    0  0.24046855085E+01  0.37335116709E+00 -0.89019970870E-01  0.24351238252E+01  0.00000000000E+00 0. -1.
</event>
<event>
 7    1  0.2414091E-009  0.4778728E+02  0.7816164E-02  0.1312668E+00
        -11   -1    0    0    0    0  0.00000000000E+00  0.00000000000E+00  0.45593999997E+02  0.45594000000E+02  0.51100000000E-03 0.  1.
         11   -1    0    0    0    0 -0.00000000000E+00 -0.00000000000E+00 -0.45593999997E+02  0.45594000000E+02  0.51100000000E-03 0. -1.
    9900012    2    1    2    0    0  0.27490181284E+02 -0.42212685927E+01  0.33318056885E+02  0.47787284682E+02  0.20000062178E+02 0.  0.
         12    1    1    2    0    0 -0.27490181284E+02  0.42212685927E+01 -0.33318056885E+02  0.43400715318E+02  0.00000000000E+00 0. -1.
         11    1    3    3    0    0  0.40828080558E+00 -0.26375053766E+01  0.54443140460E+00  0.27238820905E+01  0.51100000000E-03 0. -1.
        -11    1    3    3    0    0  0.93122355233E+00 -0.17380126026E+01  0.10585897638E+02  0.10767966111E+02  0.51100000000E-03 0.  1.
         12    1    3    3    0    0  0.26150676926E+02  0.15424938651E+00  0.22187727842E+02  0.34295436480E+02  0.00000000000E+00 0. -1.
</event>
<event>
 7    1  0.2414091E-009  0.4778727E+02  0.7816164E-02  0.1312668E+00
        -11   -1    0    0    0    0  0.00000000000E+00  0.00000000000E+00  0.45593999997E+02  0.45594000000E+02  0.51100000000E-03 0.  1.
         11   -1    0    0    0    0 -0.00000000000E+00 -0.00000000000E+00 -0.45593999997E+02  0.45594000000E+02  0.51100000000E-03 0. -1.
    9900012    2    1    2    0    0 -0.13765009532E+02 -0.95183801084E+01  0.40044326603E+02  0.47787272582E+02  0.20000007011E+02 0.  0.
         12    1    1    2    0    0  0.13765009532E+02  0.95183801084E+01 -0.40044326603E+02  0.43400727418E+02  0.00000000000E+00 0. -1.
         11    1    3    3    0    0  0.45914996172E+00 -0.18375566775E+01  0.17491810638E+02  0.17594057886E+02  0.51100000000E-03 0. -1.
        -11    1    3    3    0    0 -0.11040941109E+02 -0.46965293822E+01  0.22861686863E+02  0.25818917392E+02  0.51100000000E-03 0.  1.
         12    1    3    3    0    0 -0.31832183855E+01 -0.29842940487E+01 -0.30917089860E+00  0.43742973039E+01  0.00000000000E+00 0. -1.
</event>
<event>
 7    1  0.2414091E-009  0.4778727E+02  0.7816164E-02  0.1312668E+00
        -11   -1    0    0    0    0  0.00000000000E+00  0.00000000000E+00  0.45593999997E+02  0.45594000000E+02  0.51100000000E-03 0.  1.
         11   -1    0    0    0    0 -0.00000000000E+00 -0.00000000000E+00 -0.45593999997E+02  0.45594000000E+02  0.51100000000E-03 0. -1.
    9900012    2    1    2    0    0 -0.54951219791E+01  0.15048124504E+02  0.40335854713E+02  0.47787267378E+02  0.19999983286E+02 0.  0.
         12    1    1    2    0    0  0.54951219791E+01 -0.15048124504E+02 -0.40335854713E+02  0.43400732622E+02  0.00000000000E+00 0. -1.
         11    1    3    3    0    0  0.18934971517E+01  0.37246637167E+01  0.31022436846E+01  0.52040721945E+01  0.51100000000E-03 0. -1.
        -11    1    3    3    0    0 -0.25729448095E+00  0.12593542196E+02  0.28996215175E+02  0.31613984251E+02  0.51100000000E-03 0.  1.
         12    1    3    3    0    0 -0.71313246498E+01 -0.12700814086E+01  0.82373958533E+01  0.10969210933E+02  0.00000000000E+00 0. -1.
</event>
<event>
 7    1  0.2414091E-009  0.4778728E+02  0.7816164E-02  0.1312668E+00
        -11   -1    0    0    0    0  0.00000000000E+00  0.00000000000E+00  0.45593999997E+02  0.45594000000E+02  0.51100000000E-03 0.  1.
         11   -1    0    0    0    0 -0.00000000000E+00 -0.00000000000E+00 -0.45593999997E+02  0.45594000000E+02  0.51100000000E-03 0. -1.
    9900012    2    1    2    0    0 -0.16332776060E+02  0.35344820682E+02  0.19173059185E+02  0.47787284322E+02  0.20000060536E+02 0.  0.
         12    1    1    2    0    0  0.16332776060E+02 -0.35344820682E+02 -0.19173059185E+02  0.43400715678E+02  0.00000000000E+00 0. -1.
         11    1    3    3    0    0  0.80351536319E+00  0.87700374219E+01  0.46828982933E+01  0.99744037419E+01  0.51100000000E-03 0. -1.
        -11    1    3    3    0    0 -0.11202601062E+02  0.22875222210E+02  0.16725716029E+02  0.30471685852E+02  0.51100000000E-03 0.  1.
        -12    1    3    3    0    0 -0.59336903609E+01  0.36995610502E+01 -0.22355551370E+01  0.73411947280E+01  0.00000000000E+00 0.  1.
</event>
<event>
 7    1  0.2414091E-009  0.4778728E+02  0.7816164E-02  0.1312668E+00
        -11   -1    0    0    0    0  0.00000000000E+00  0.00000000000E+00  0.45593999997E+02  0.45594000000E+02  0.51100000000E-03 0.  1.
         11   -1    0    0    0    0 -0.00000000000E+00 -0.00000000000E+00 -0.45593999997E+02  0.45594000000E+02  0.51100000000E-03 0. -1.
    9900012    2    1    2    0    0 -0.10495039926E+02  0.19370473196E+02  0.37393331043E+02  0.47787282248E+02  0.20000051081E+02 0.  0.
         12    1    1    2    0    0  0.10495039926E+02 -0.19370473196E+02 -0.37393331043E+02  0.43400717752E+02  0.00000000000E+00 0. -1.
         11    1    3    3    0    0 -0.22259404918E+01 -0.24705519595E+00  0.16612351118E+01  0.27884672673E+01  0.51100000000E-03 0. -1.
        -11    1    3    3    0    0 -0.85547066956E+01  0.14655333693E+02  0.36226366107E+02  0.40003892484E+02  0.51100000000E-03 0.  1.
        -12    1    3    3    0    0  0.28560726117E+00  0.49621946992E+01 -0.49427017551E+00  0.49949224966E+01  0.00000000000E+00 0.  1.
</event>
<event>
 7    1  0.2414091E-009  0.4778727E+02  0.7816164E-02  0.1312668E+00
        -11   -1    0    0    0    0  0.00000000000E+00  0.00000000000E+00  0.45593999997E+02  0.45594000000E+02  0.51100000000E-03 0.  1.
         11   -1    0    0    0    0 -0.00000000000E+00 -0.00000000000E+00 -0.45593999997E+02  0.45594000000E+02  0.51100000000E-03 0. -1.
    9900012    2    1    2    0    0  0.21053828542E+02 -0.36335049691E+01  0.37777735180E+02  0.47787270398E+02  0.19999997052E+02 0.  0.
         12    1    1    2    0    0 -0.21053828542E+02  0.36335049691E+01 -0.37777735180E+02  0.43400729602E+02  0.00000000000E+00 0. -1.
         11    1    3    3    0    0  0.51287672465E+01  0.28611918286E+01  0.10383036006E+02  0.11928877110E+02  0.51100000000E-03 0. -1.
        -11    1    3    3    0    0 -0.77398097080E+00  0.88654344279E+00  0.11767266254E+02  0.11825969778E+02  0.51100000000E-03 0.  1.
         12    1    3    3    0    0  0.16699042266E+02 -0.73812402404E+01  0.15627432921E+02  0.24032423510E+02  0.00000000000E+00 0. -1.
</event>
<event>
 7    1  0.2414091E-009  0.4778727E+02  0.7816164E-02  0.1312668E+00
        -11   -1    0    0    0    0  0.00000000000E+00  0.00000000000E+00  0.45593999997E+02  0.45594000000E+02  0.51100000000E-03 0. -1.
         11   -1    0    0    0    0 -0.00000000000E+00 -0.00000000000E+00 -0.45593999997E+02  0.45594000000E+02  0.51100000000E-03 0.  1.
    9900012    2    1    2    0    0 -0.42743490107E+02  0.75226787231E+01  0.16308474612E+00  0.47787271454E+02  0.20000001865E+02 0.  0.
         12    1    1    2    0    0  0.42743490107E+02 -0.75226787231E+01 -0.16308474612E+00  0.43400728546E+02  0.00000000000E+00 0. -1.
         11    1    3    3    0    0  0.30508124874E+00 -0.52838807798E+00  0.15698063261E+01  0.16842092186E+01  0.51100000000E-03 0. -1.
        -11    1    3    3    0    0 -0.74884216402E+01  0.73609091818E+01 -0.80272208435E+00  0.10531087581E+02  0.51100000000E-03 0.  1.
         12    1    3    3    0    0 -0.35560149716E+02  0.69015761935E+00 -0.60399949567E+00  0.35571974653E+02  0.00000000000E+00 0. -1.
</event>
<event>
 7    1  0.2414091E-009  0.4778727E+02  0.7816164E-02  0.1312668E+00
        -11   -1    0    0    0    0  0.00000000000E+00  0.00000000000E+00  0.45593999997E+02  0.45594000000E+02  0.51100000000E-03 0.  1.
         11   -1    0    0    0    0 -0.00000000000E+00 -0.00000000000E+00 -0.45593999997E+02  0.45594000000E+02  0.51100000000E-03 0. -1.
    9900012    2    1    2    0    0  0.24570509629E+02 -0.15408956264E+02  0.32287416823E+02  0.47787272337E+02  0.20000005893E+02 0.  0.
         12    1    1    2    0    0 -0.24570509629E+02  0.15408956264E+02 -0.32287416823E+02  0.43400727663E+02  0.00000000000E+00 0. -1.
         11    1    3    3    0    0  0.12172410773E+02 -0.11836748987E+02  0.92011264260E+01  0.19311575244E+02  0.51100000000E-03 0. -1.
        -11    1    3    3    0    0  0.16212893177E+01  0.32388246517E+01  0.30891616670E+01  0.47604079911E+01  0.51100000000E-03 0.  1.
        -12    1    3    3    0    0  0.10776809538E+02 -0.68110319285E+01  0.19997128730E+02  0.23715289102E+02  0.00000000000E+00 0.  1.
</event>
<event>
 7    1  0.2414091E-009  0.4778727E+02  0.7816164E-02  0.1312668E+00
        -11   -1    0    0    0    0  0.00000000000E+00  0.00000000000E+00  0.45593999997E+02  0.45594000000E+02  0.51100000000E-03 0.  1.
         11   -1    0    0    0    0 -0.00000000000E+00 -0.00000000000E+00 -0.45593999997E+02  0.45594000000E+02  0.51100000000E-03 0. -1.
    9900012    2    1    2    0    0 -0.38140200187E+02  0.37848567566E+01  0.20362294220E+02  0.47787273775E+02  0.20000012448E+02 0.  0.
         12    1    1    2    0    0  0.38140200187E+02 -0.37848567566E+01 -0.20362294220E+02  0.43400726225E+02  0.00000000000E+00 0. -1.
         11    1    3    3    0    0 -0.86658400572E+01  0.66071285951E+01  0.77741785132E+01  0.13386141490E+02  0.51100000000E-03 0. -1.
        -11    1    3    3    0    0 -0.91379010600E+01  0.35774376257E+01  0.35179225582E+00  0.98195241128E+01  0.51100000000E-03 0.  1.
         12    1    3    3    0    0 -0.20336459070E+02 -0.63997094642E+01  0.12236323451E+02  0.24581608172E+02  0.00000000000E+00 0. -1.
</event>
<event>
 7    1  0.2414091E-009  0.4778727E+02  0.7816164E-02  0.1312668E+00
        -11   -1    0    0    0    0  0.00000000000E+00  0.00000000000E+00  0.45593999997E+02  0.45594000000E+02  0.51100000000E-03 0.  1.
         11   -1    0    0    0    0 -0.00000000000E+00 -0.00000000000E+00 -0.45593999997E+02  0.45594000000E+02  0.51100000000E-03 0. -1.
    9900012    2    1    2    0    0 -0.31307611293E+02 -0.29423956544E+02  0.61390501230E+01  0.47787266366E+02  0.19999978669E+02 0.  0.
         12    1    1    2    0    0  0.31307611293E+02  0.29423956544E+02 -0.61390501230E+01  0.43400733634E+02  0.00000000000E+00 0. -1.
         11    1    3    3    0    0 -0.18076159478E+02 -0.87110633453E+01  0.37192165502E+01  0.20407418702E+02  0.51100000000E-03 0. -1.
        -11    1    3    3    0    0 -0.77646561120E+01 -0.37940790408E+01 -0.23790236764E+01  0.89635190756E+01  0.51100000000E-03 0.  1.
         12    1    3    3    0    0 -0.54667957026E+01 -0.16918814158E+02  0.47988572492E+01  0.18416328588E+02  0.00000000000E+00 0. -1.
</event>
<event>
 7    1  0.2414091E-009  0.4778727E+02  0.7816164E-02  0.1312668E+00
        -11   -1    0    0    0    0  0.00000000000E+00  0.00000000000E+00  0.45593999997E+02  0.45594000000E+02  0.51100000000E-03 0. -1.
         11   -1    0    0    0    0 -0.00000000000E+00 -0.00000000000E+00 -0.45593999997E+02  0.45594000000E+02  0.51100000000E-03 0.  1.
    9900012    2    1    2    0    0 -0.18630405898E+02  0.39012714527E+02  0.38130403173E+01  0.47787271951E+02  0.20000004132E+02 0.  0.
         12    1    1    2    0    0  0.18630405898E+02 -0.39012714527E+02 -0.38130403173E+01  0.43400728049E+02  0.00000000000E+00 0. -1.
         11    1    3    3    0    0 -0.30433012661E+01  0.20409547962E+02  0.64499368485E+01  0.21619736729E+02  0.51100000000E-03 0. -1.
        -11    1    3    3    0    0 -0.30329384419E+00 -0.94697390784E+00  0.56945507159E+00  0.11458734999E+01  0.51100000000E-03 0.  1.
        -12    1    3    3    0    0 -0.15283810788E+02  0.19550140473E+02 -0.32063516028E+01  0.25021661722E+02  0.00000000000E+00 0.  1.
</event>
<event>
 7    1  0.2414091E-009  0.4778731E+02  0.7816164E-02  0.1312668E+00
        -11   -1    0    0    0    0  0.00000000000E+00  0.00000000000E+00  0.45593999997E+02  0.45594000000E+02  0.51100000000E-03 0.  1.
         11   -1    0    0    0    0 -0.00000000000E+00 -0.00000000000E+00 -0.45593999997E+02  0.45594000000E+02  0.51100000000E-03 0. -1.
    9900012    2    1    2    0    0  0.13202322028E+02 -0.22327876196E+02  0.34796331005E+02  0.47787308603E+02  0.20000171243E+02 0.  0.
         12    1    1    2    0    0 -0.13202322028E+02  0.22327876196E+02 -0.34796331005E+02  0.43400691397E+02  0.00000000000E+00 0. -1.
         11    1    3    3    0    0  0.19111538564E+01 -0.65038739631E-01 -0.12111271641E+01  0.22635300681E+01  0.51100000000E-03 0. -1.
        -11    1    3    3    0    0 -0.12137877544E+01 -0.36788663291E+01  0.12354863633E+02  0.12947972576E+02  0.51100000000E-03 0.  1.
         12    1    3    3    0    0  0.12504955926E+02 -0.18583971128E+02  0.23652594535E+02  0.32575805958E+02  0.00000000000E+00 0. -1.
</event>
<event>
 7    1  0.2414091E-009  0.4778727E+02  0.7816164E-02  0.1312668E+00
        -11   -1    0    0    0    0  0.00000000000E+00  0.00000000000E+00  0.45593999997E+02  0.45594000000E+02  0.51100000000E-03 0. -1.
         11   -1    0    0    0    0 -0.00000000000E+00 -0.00000000000E+00 -0.45593999997E+02  0.45594000000E+02  0.51100000000E-03 0.  1.
    9900012    2    1    2    0    0 -0.13854252050E+02 -0.37669091657E+02  0.16514320498E+02  0.47787267891E+02  0.19999985620E+02 0.  0.
         12    1    1    2    0    0  0.13854252050E+02  0.37669091657E+02 -0.16514320498E+02  0.43400732109E+02  0.00000000000E+00 0. -1.
         11    1    3    3    0    0 -0.40623325524E+01 -0.16221538146E+00  0.10284031079E+01  0.41936228741E+01  0.51100000000E-03 0. -1.
        -11    1    3    3    0    0 -0.94601195743E+01 -0.31272732755E+02  0.17461343416E+02  0.37045596101E+02  0.51100000000E-03 0.  1.
        -12    1    3    3    0    0 -0.33179992357E+00 -0.62341435206E+01 -0.19754260252E+01  0.65480489160E+01  0.00000000000E+00 0.  1.
</event>
<event>
 7    1  0.2414091E-009  0.4778727E+02  0.7816164E-02  0.1312668E+00
        -11   -1    0    0    0    0  0.00000000000E+00  0.00000000000E+00  0.45593999997E+02  0.45594000000E+02  0.51100000000E-03 0. -1.
         11   -1    0    0    0    0 -0.00000000000E+00 -0.00000000000E+00 -0.45593999997E+02  0.45594000000E+02  0.51100000000E-03 0.  1.
    9900012    2    1    2    0    0  0.32008262131E+02 -0.19929941205E+01 -0.29242470711E+02  0.47787274621E+02  0.20000016305E+02 0.  0.
         12    1    1    2    0    0 -0.32008262131E+02  0.19929941205E+01  0.29242470711E+02  0.43400725379E+02  0.00000000000E+00 0. -1.
         11    1    3    3    0    0  0.46860976701E+01  0.43232614773E+01 -0.50617469886E+00  0.63958044265E+01  0.51100000000E-03 0. -1.
        -11    1    3    3    0    0  0.14880779420E+02  0.12338653277E+01 -0.11592172541E+02  0.18903398750E+02  0.51100000000E-03 0.  1.
         12    1    3    3    0    0  0.12441385041E+02 -0.75501209255E+01 -0.17144123470E+02  0.22488071444E+02  0.00000000000E+00 0. -1.
</event>
<event>
 7    1  0.2414091E-009  0.4778726E+02  0.7816164E-02  0.1312668E+00
        -11   -1    0    0    0    0  0.00000000000E+00  0.00000000000E+00  0.45593999997E+02  0.45594000000E+02  0.51100000000E-03 0.  1.
         11   -1    0    0    0    0 -0.00000000000E+00 -0.00000000000E+00 -0.45593999997E+02  0.45594000000E+02  0.51100000000E-03 0. -1.
    9900012    2    1    2    0    0 -0.33666281954E+02 -0.64658937306E+01  0.26615741793E+02  0.47787262293E+02  0.19999960097E+02 0.  0.
         12    1    1    2    0    0  0.33666281954E+02  0.64658937306E+01 -0.26615741793E+02  0.43400737707E+02  0.00000000000E+00 0. -1.
         11    1    3    3    0    0 -0.18804360685E+02 -0.96954600997E+00  0.19189405949E+02  0.26884517872E+02  0.51100000000E-03 0. -1.
        -11    1    3    3    0    0 -0.11078163064E+02 -0.11393584044E+01  0.96328364944E+01  0.14724651902E+02  0.51100000000E-03 0.  1.
         12    1    3    3    0    0 -0.37837582050E+01 -0.43569893162E+01 -0.22065006506E+01  0.61780925192E+01  0.00000000000E+00 0. -1.
</event>
<event>
 7    1  0.2414091E-009  0.4778728E+02  0.7816164E-02  0.1312668E+00
        -11   -1    0    0    0    0  0.00000000000E+00  0.00000000000E+00  0.45593999997E+02  0.45594000000E+02  0.51100000000E-03 0. -1.
         11   -1    0    0    0    0 -0.00000000000E+00 -0.00000000000E+00 -0.45593999997E+02  0.45594000000E+02  0.51100000000E-03 0.  1.
    9900012    2    1    2    0    0 -0.23296158905E+02  0.32129680290E+01 -0.36477229006E+02  0.47787280891E+02  0.20000044893E+02 0.  0.
         12    1    1    2    0    0  0.23296158905E+02 -0.32129680290E+01  0.36477229006E+02  0.43400719109E+02  0.00000000000E+00 0. -1.
         11    1    3    3    0    0 -0.17415472769E+01 -0.13306892240E+01 -0.10582406065E+02  0.10806990290E+02  0.51100000000E-03 0. -1.
        -11    1    3    3    0    0 -0.36830740821E+01 -0.37011937004E+01 -0.11394339296E+02  0.12533747954E+02  0.51100000000E-03 0.  1.
        -12    1    3    3    0    0 -0.17871537546E+02  0.82448509533E+01 -0.14500483644E+02  0.24446542647E+02  0.00000000000E+00 0.  1.
</event>
<event>
 7    1  0.2414091E-009  0.4778727E+02  0.7816164E-02  0.1312668E+00
        -11   -1    0    0    0    0  0.00000000000E+00  0.00000000000E+00  0.45593999997E+02  0.45594000000E+02  0.51100000000E-03 0. -1.
         11   -1    0    0    0    0 -0.00000000000E+00 -0.00000000000E+00 -0.45593999997E+02  0.45594000000E+02  0.51100000000E-03 0.  1.
    9900012    2    1    2    0    0  0.17444068266E+02 -0.38098193211E+02 -0.11307319139E+02  0.47787270632E+02  0.19999998119E+02 0.  0.
         12    1    1    2    0    0 -0.17444068266E+02  0.38098193211E+02  0.11307319139E+02  0.43400729368E+02  0.00000000000E+00 0. -1.
         11    1    3    3    0    0  0.74759055347E+00 -0.54978410234E+01 -0.43111835340E+01  0.70264821411E+01  0.51100000000E-03 0. -1.
        -11    1    3    3    0    0  0.73325282330E+01 -0.11668535516E+02 -0.10809849749E+02  0.17514951991E+02  0.51100000000E-03 0.  1.
         12    1    3    3    0    0  0.93639494798E+01 -0.20931816671E+02  0.38137141443E+01  0.23245836500E+02  0.00000000000E+00 0. -1.
</event>
<event>
 7    1  0.2414091E-009  0.4778728E+02  0.7816164E-02  0.1312668E+00
        -11   -1    0    0    0    0  0.00000000000E+00  0.00000000000E+00  0.45593999997E+02  0.45594000000E+02  0.51100000000E-03 0.  1.
         11   -1    0    0    0    0 -0.00000000000E+00 -0.00000000000E+00 -0.45593999997E+02  0.45594000000E+02  0.51100000000E-03 0. -1.
    9900012    2    1    2    0    0 -0.20079952439E+02  0.29275132247E+02  0.24967672061E+02  0.47787279889E+02  0.20000040327E+02 0.  0.
         12    1    1    2    0    0  0.20079952439E+02 -0.29275132247E+02 -0.24967672061E+02  0.43400720111E+02  0.00000000000E+00 0. -1.
         11    1    3    3    0    0 -0.14764647557E+02  0.14579722306E+02  0.12438986725E+02  0.24192798743E+02  0.51100000000E-03 0. -1.
        -11    1    3    3    0    0 -0.81564082229E+01  0.47814822519E+01  0.42324729303E+01  0.10358735202E+02  0.51100000000E-03 0.  1.
         12    1    3    3    0    0  0.28411033416E+01  0.99139276887E+01  0.82962124057E+01  0.13235745944E+02  0.00000000000E+00 0. -1.
</event>
<event>
 7    1  0.2414091E-009  0.4778727E+02  0.7816164E-02  0.1312668E+00
        -11   -1    0    0    0    0  0.00000000000E+00  0.00000000000E+00  0.45593999997E+02  0.45594000000E+02  0.51100000000E-03 0. -1.
         11   -1    0    0    0    0 -0.00000000000E+00 -0.00000000000E+00 -0.45593999997E+02  0.45594000000E+02  0.51100000000E-03 0.  1.
    9900012    2    1    2    0    0  0.28601628602E+02  0.31034459654E+02  0.10120892052E+02  0.47787270736E+02  0.19999998592E+02 0.  0.
         12    1    1    2    0    0 -0.28601628602E+02 -0.31034459654E+02 -0.10120892052E+02  0.43400729264E+02  0.00000000000E+00 0. -1.
         11    1    3    3    0    0  0.63427237833E+01  0.65944668462E+00  0.17012879012E+01  0.65999542199E+01  0.51100000000E-03 0. -1.
        -11    1    3    3    0    0  0.20904814495E+02  0.20526395258E+02  0.10327792098E+02  0.31064569227E+02  0.51100000000E-03 0.  1.
        -12    1    3    3    0    0  0.13540903244E+01  0.98486177116E+01 -0.19081879478E+01  0.10122747289E+02  0.00000000000E+00 0.  1.
</event>
<event>
 7    1  0.2414091E-009  0.4778727E+02  0.7816164E-02  0.1312668E+00
        -11   -1    0    0    0    0  0.00000000000E+00  0.00000000000E+00  0.45593999997E+02  0.45594000000E+02  0.51100000000E-03 0.  1.
         11   -1    0    0    0    0 -0.00000000000E+00 -0.00000000000E+00 -0.45593999997E+02  0.45594000000E+02  0.51100000000E-03 0. -1.
    9900012    2    1    2    0    0  0.29908053246E+02 -0.19292697151E+02  0.24837944509E+02  0.47787270746E+02  0.19999998641E+02 0.  0.
         12    1    1    2    0    0 -0.29908053246E+02  0.19292697151E+02 -0.24837944509E+02  0.43400729254E+02  0.00000000000E+00 0. -1.
         11    1    3    3    0    0  0.54090068153E+01 -0.19435842273E+01  0.70938276712E+01  0.91300200256E+01  0.51100000000E-03 0. -1.
        -11    1    3    3    0    0  0.13265945070E+02 -0.15505743257E+02  0.39712257508E+01  0.20789035735E+02  0.51100000000E-03 0.  1.
        -12    1    3    3    0    0  0.11233101361E+02 -0.18433696669E+01  0.13772891087E+02  0.17868214986E+02  0.00000000000E+00 0.  1.
</event>
<event>
 7    1  0.2414091E-009  0.4778727E+02  0.7816164E-02  0.1312668E+00
        -11   -1    0    0    0    0  0.00000000000E+00  0.00000000000E+00  0.45593999997E+02  0.45594000000E+02  0.51100000000E-03 0.  1.
         11   -1    0    0    0    0 -0.00000000000E+00 -0.00000000000E+00 -0.45593999997E+02  0.45594000000E+02  0.51100000000E-03 0. -1.
    9900012    2    1    2    0    0  0.18020693347E+02  0.15999049491E+02  0.36095826308E+02  0.47787266709E+02  0.19999980235E+02 0.  0.
         12    1    1    2    0    0 -0.18020693347E+02 -0.15999049491E+02 -0.36095826308E+02  0.43400733291E+02  0.00000000000E+00 0. -1.
         11    1    3    3    0    0  0.62745768939E+01  0.21291464366E+01  0.28606051413E+01  0.72171075773E+01  0.51100000000E-03 0. -1.
        -11    1    3    3    0    0  0.73345551769E+01  0.13706934514E+02  0.14284843606E+02  0.21112378135E+02  0.51100000000E-03 0.  1.
        -12    1    3    3    0    0  0.44115612762E+01  0.16296853998E+00  0.18950377560E+02  0.19457780997E+02  0.00000000000E+00 0.  1.
</event>
<event>
 7    1  0.2414091E-009  0.4778727E+02  0.7816164E-02  0.1312668E+00
        -11   -1    0    0    0    0  0.00000000000E+00  0.00000000000E+00  0.45593999997E+02  0.45594000000E+02  0.51100000000E-03 0.  1.
         11   -1    0    0    0    0 -0.00000000000E+00 -0.00000000000E+00 -0.45593999997E+02  0.45594000000E+02  0.51100000000E-03 0. -1.
    9900012    2    1    2    0    0 -0.29548010601E+02 -0.28936603812E+02  0.13160973860E+02  0.47787271854E+02  0.20000003690E+02 0.  0.
         12    1    1    2    0    0  0.29548010601E+02  0.28936603812E+02 -0.13160973860E+02  0.43400728146E+02  0.00000000000E+00 0. -1.
         11    1    3    3    0    0 -0.96330237602E+01 -0.14018041089E+02  0.91320409950E+01  0.19305304860E+02  0.51100000000E-03 0. -1.
        -11    1    3    3    0    0 -0.87797244629E+00 -0.53446775446E+01  0.46873616278E+01  0.71629444339E+01  0.51100000000E-03 0.  1.
        -12    1    3    3    0    0 -0.19037014395E+02 -0.95738851783E+01 -0.65842876262E+00  0.21319022560E+02  0.00000000000E+00 0.  1.
</event>
<event>
 7    1  0.2414091E-009  0.4778726E+02  0.7816164E-02  0.1312668E+00
        -11   -1    0    0    0    0  0.00000000000E+00  0.00000000000E+00  0.45593999997E+02  0.45594000000E+02  0.51100000000E-03 0.  1.
         11   -1    0    0    0    0 -0.00000000000E+00 -0.00000000000E+00 -0.45593999997E+02  0.45594000000E+02  0.51100000000E-03 0. -1.
    9900012    2    1    2    0    0 -0.23749609841E+01 -0.98669671795E+01  0.42197469762E+02  0.47787263425E+02  0.19999965258E+02 0.  0.
         12    1    1    2    0    0  0.23749609841E+01  0.98669671795E+01 -0.42197469762E+02  0.43400736575E+02  0.00000000000E+00 0. -1.
         11    1    3    3    0    0 -0.26987268606E+01  0.12241371926E+01  0.17962940824E+01  0.34653010296E+01  0.51100000000E-03 0. -1.
        -11    1    3    3    0    0  0.18893212642E+01  0.23384522026E+01  0.17265320592E+02  0.17525101682E+02  0.51100000000E-03 0.  1.
        -12    1    3    3    0    0 -0.15655553876E+01 -0.13429556575E+02  0.23135855087E+02  0.26796860713E+02  0.00000000000E+00 0.  1.
</event>
<event>
 7    1  0.2414091E-009  0.4778727E+02  0.7816164E-02  0.1312668E+00
        -11   -1    0    0    0    0  0.00000000000E+00  0.00000000000E+00  0.45593999997E+02  0.45594000000E+02  0.51100000000E-03 0.  1.
         11   -1    0    0    0    0 -0.00000000000E+00 -0.00000000000E+00 -0.45593999997E+02  0.45594000000E+02  0.51100000000E-03 0. -1.
    9900012    2    1    2    0    0  0.21092958663E+02  0.27022415200E+02  0.26617658318E+02  0.47787267716E+02  0.19999984826E+02 0.  0.
         12    1    1    2    0    0 -0.21092958663E+02 -0.27022415200E+02 -0.26617658318E+02  0.43400732284E+02  0.00000000000E+00 0. -1.
         11    1    3    3    0    0  0.59812167113E+01  0.14804248234E+02  0.17959675854E+02  0.24031035687E+02  0.51100000000E-03 0. -1.
        -11    1    3    3    0    0  0.94226396789E+01  0.11632224822E+02  0.98425457824E+01  0.17915649599E+02  0.51100000000E-03 0.  1.
         12    1    3    3    0    0  0.56891022733E+01  0.58594214474E+00 -0.11845633189E+01  0.58405824306E+01  0.00000000000E+00 0. -1.
</event>
<event>
 7    1  0.2414091E-009  0.4778727E+02  0.7816164E-02  0.1312668E+00
        -11   -1    0    0    0    0  0.00000000000E+00  0.00000000000E+00  0.45593999997E+02  0.45594000000E+02  0.51100000000E-03 0. -1.
         11   -1    0    0    0    0 -0.00000000000E+00 -0.00000000000E+00 -0.45593999997E+02  0.45594000000E+02  0.51100000000E-03 0.  1.
    9900012    2    1    2    0    0  0.21497490009E+02  0.15545747701E+02 -0.34348371843E+02  0.47787274240E+02  0.20000014568E+02 0.  0.
         12    1    1    2    0    0 -0.21497490009E+02 -0.15545747701E+02  0.34348371843E+02  0.43400725760E+02  0.00000000000E+00 0. -1.
         11    1    3    3    0    0 -0.14460484079E+01  0.36316255567E+01 -0.16767429307E+01  0.42533783395E+01  0.51100000000E-03 0. -1.
        -11    1    3    3    0    0  0.11461856247E+01 -0.11889821553E-01 -0.94688124968E+01  0.95379396734E+01  0.51100000000E-03 0.  1.
         12    1    3    3    0    0  0.21797352792E+02  0.11926011966E+02 -0.23202816415E+02  0.33995956227E+02  0.00000000000E+00 0. -1.
</event>
<event>
 7    1  0.2414091E-009  0.4778727E+02  0.7816164E-02  0.1312668E+00
        -11   -1    0    0    0    0  0.00000000000E+00  0.00000000000E+00  0.45593999997E+02  0.45594000000E+02  0.51100000000E-03 0. -1.
         11   -1    0    0    0    0 -0.00000000000E+00 -0.00000000000E+00 -0.45593999997E+02  0.45594000000E+02  0.51100000000E-03 0.  1.
    9900012    2    1    2    0    0 -0.15895053197E+02 -0.39785620666E+02 -0.69336027407E+01  0.47787272185E+02  0.20000005202E+02 0.  0.
         12    1    1    2    0    0  0.15895053197E+02  0.39785620666E+02  0.69336027407E+01  0.43400727815E+02  0.00000000000E+00 0. -1.
         11    1    3    3    0    0 -0.98081082466E+01 -0.23240398044E+02  0.44877793834E+01  0.25621382724E+02  0.51100000000E-03 0. -1.
        -11    1    3    3    0    0 -0.55119968569E+01 -0.80554750936E+01 -0.30427737204E+01  0.10224053037E+02  0.51100000000E-03 0.  1.
        -12    1    3    3    0    0 -0.57494809305E+00 -0.84897475280E+01 -0.83786084036E+01  0.11941836424E+02  0.00000000000E+00 0.  1.
</event>
<event>
 7    1  0.2414091E-009  0.4778727E+02  0.7816164E-02  0.1312668E+00
        -11   -1    0    0    0    0  0.00000000000E+00  0.00000000000E+00  0.45593999997E+02  0.45594000000E+02  0.51100000000E-03 0. -1.
         11   -1    0    0    0    0 -0.00000000000E+00 -0.00000000000E+00 -0.45593999997E+02  0.45594000000E+02  0.51100000000E-03 0.  1.
    9900012    2    1    2    0    0 -0.12874817204E+02  0.29607858491E+02 -0.29004086810E+02  0.47787271271E+02  0.20000001034E+02 0.  0.
         12    1    1    2    0    0  0.12874817204E+02 -0.29607858491E+02  0.29004086810E+02  0.43400728729E+02  0.00000000000E+00 0. -1.
         11    1    3    3    0    0  0.90016220741E+00  0.80787946062E+01 -0.71837297907E+01  0.10848188248E+02  0.51100000000E-03 0. -1.
        -11    1    3    3    0    0 -0.10870969942E+02  0.23190757035E+02 -0.21735836111E+02  0.33592198068E+02  0.51100000000E-03 0.  1.
         12    1    3    3    0    0 -0.29040094696E+01 -0.16616931496E+01 -0.84520908861E-01  0.33468849558E+01  0.00000000000E+00 0. -1.
</event>
<event>
 7    1  0.2414091E-009  0.4778728E+02  0.7816164E-02  0.1312668E+00
        -11   -1    0    0    0    0  0.00000000000E+00  0.00000000000E+00  0.45593999997E+02  0.45594000000E+02  0.51100000000E-03 0.  1.
         11   -1    0    0    0    0 -0.00000000000E+00 -0.00000000000E+00 -0.45593999997E+02  0.45594000000E+02  0.51100000000E-03 0. -1.
    9900012    2    1    2    0    0 -0.33860531074E+02  0.25583592714E+02 -0.90866345051E+01  0.47787277571E+02  0.20000029757E+02 0.  0.
         12    1    1    2    0    0  0.33860531074E+02 -0.25583592714E+02  0.90866345051E+01  0.43400722429E+02  0.00000000000E+00 0. -1.
         11    1    3    3    0    0 -0.23726986158E+00 -0.15784072363E+01 -0.11102019562E+01  0.19442775098E+01  0.51100000000E-03 0. -1.
        -11    1    3    3    0    0 -0.38455386607E+01 -0.11300803153E+01 -0.13956729670E+01  0.42441904295E+01  0.51100000000E-03 0.  1.
        -12    1    3    3    0    0 -0.29777722552E+02  0.28292080265E+02 -0.65807595820E+01  0.41598809632E+02  0.00000000000E+00 0.  1.
</event>
<event>
 7    1  0.2414091E-009  0.4778726E+02  0.7816164E-02  0.1312668E+00
        -11   -1    0    0    0    0  0.00000000000E+00  0.00000000000E+00  0.45593999997E+02  0.45594000000E+02  0.51100000000E-03 0.  1.
         11   -1    0    0    0    0 -0.00000000000E+00 -0.00000000000E+00 -0.45593999997E+02  0.45594000000E+02  0.51100000000E-03 0. -1.
    9900012    2    1    2    0    0 -0.13150634493E+02  0.88666704050E+01  0.40398850683E+02  0.47787260742E+02  0.19999953028E+02 0.  0.
         12    1    1    2    0    0  0.13150634493E+02 -0.88666704050E+01 -0.40398850683E+02  0.43400739258E+02  0.00000000000E+00 0. -1.
         11    1    3    3    0    0 -0.53618359657E+01  0.93776524068E+00  0.10934714853E+02  0.12214609193E+02  0.51100000000E-03 0. -1.
        -11    1    3    3    0    0 -0.11894956524E+02  0.64665542633E+01  0.13877073237E+02  0.19387611422E+02  0.51100000000E-03 0.  1.
         12    1    3    3    0    0  0.41061579964E+01  0.14623509010E+01  0.15587062593E+02  0.16185040128E+02  0.00000000000E+00 0. -1.
</event>
<event>
 7    1  0.2414091E-009  0.4778727E+02  0.7816164E-02  0.1312668E+00
        -11   -1    0    0    0    0  0.00000000000E+00  0.00000000000E+00  0.45593999997E+02  0.45594000000E+02  0.51100000000E-03 0. -1.
         11   -1    0    0    0    0 -0.00000000000E+00 -0.00000000000E+00 -0.45593999997E+02  0.45594000000E+02  0.51100000000E-03 0.  1.
    9900012    2    1    2    0    0 -0.40160163450E+02  0.11871032862E+02 -0.11395739366E+02  0.47787273909E+02  0.20000013061E+02 0.  0.
         12    1    1    2    0    0  0.40160163450E+02 -0.11871032862E+02  0.11395739366E+02  0.43400726091E+02  0.00000000000E+00 0. -1.
         11    1    3    3    0    0 -0.15797517099E+02 -0.31507440479E+01 -0.43264291827E+01  0.16679530098E+02  0.51100000000E-03 0. -1.
        -11    1    3    3    0    0  0.47523388802E+00  0.23142786283E+01 -0.93913778558E+00  0.25423833030E+01  0.51100000000E-03 0.  1.
        -12    1    3    3    0    0 -0.24837880239E+02  0.12707498282E+02 -0.61301723973E+01  0.28565360508E+02  0.00000000000E+00 0.  1.
</event>
<event>
 7    1  0.2414091E-009  0.4778727E+02  0.7816164E-02  0.1312668E+00
        -11   -1    0    0    0    0  0.00000000000E+00  0.00000000000E+00  0.45593999997E+02  0.45594000000E+02  0.51100000000E-03 0.  1.
         11   -1    0    0    0    0 -0.00000000000E+00 -0.00000000000E+00 -0.45593999997E+02  0.45594000000E+02  0.51100000000E-03 0. -1.
    9900012    2    1    2    0    0  0.35136711725E+01 -0.12207821154E+02  0.41499959078E+02  0.47787269754E+02  0.19999994115E+02 0.  0.
         12    1    1    2    0    0 -0.35136711725E+01  0.12207821154E+02 -0.41499959078E+02  0.43400730246E+02  0.00000000000E+00 0. -1.
         11    1    3    3    0    0 -0.75906462757E-01 -0.52190035723E+01  0.14847728870E+02  0.15738450144E+02  0.51100000000E-03 0. -1.
        -11    1    3    3    0    0 -0.31689780790E+01 -0.95221204261E+01  0.19257221741E+02  0.21715289290E+02  0.51100000000E-03 0.  1.
         12    1    3    3    0    0  0.67585557142E+01  0.25333028449E+01  0.73950084667E+01  0.10333530320E+02  0.00000000000E+00 0. -1.
</event>
<event>
 7    1  0.2414091E-009  0.4778727E+02  0.7816164E-02  0.1312668E+00
        -11   -1    0    0    0    0  0.00000000000E+00  0.00000000000E+00  0.45593999997E+02  0.45594000000E+02  0.51100000000E-03 0.  1.
         11   -1    0    0    0    0 -0.00000000000E+00 -0.00000000000E+00 -0.45593999997E+02  0.45594000000E+02  0.51100000000E-03 0. -1.
    9900012    2    1    2    0    0 -0.24581202868E+02 -0.20452131798E+02  0.29344473297E+02  0.47787270253E+02  0.19999996391E+02 0.  0.
         12    1    1    2    0    0  0.24581202868E+02  0.20452131798E+02 -0.29344473297E+02  0.43400729747E+02  0.00000000000E+00 0. -1.
         11    1    3    3    0    0 -0.14469066240E+02 -0.11202437323E+02  0.16519680716E+02  0.24652552222E+02  0.51100000000E-03 0. -1.
        -11    1    3    3    0    0 -0.58587144094E+01 -0.43523767887E+01  0.14674761471E+02  0.16389519295E+02  0.51100000000E-03 0.  1.
         12    1    3    3    0    0 -0.42534222189E+01 -0.48973176859E+01 -0.18499688902E+01  0.67451987356E+01  0.00000000000E+00 0. -1.
</event>
<event>
 7    1  0.2414091E-009  0.4778727E+02  0.7816164E-02  0.1312668E+00
        -11   -1    0    0    0    0  0.00000000000E+00  0.00000000000E+00  0.45593999997E+02  0.45594000000E+02  0.51100000000E-03 0. -1.
         11   -1    0    0    0    0 -0.00000000000E+00 -0.00000000000E+00 -0.45593999997E+02  0.45594000000E+02  0.51100000000E-03 0.  1.
    9900012    2    1    2    0    0 -0.12443221406E+02 -0.18165968325E+01 -0.41539013554E+02  0.47787269245E+02  0.19999991797E+02 0.  0.
         12    1    1    2    0    0  0.12443221406E+02  0.18165968325E+01  0.41539013554E+02  0.43400730755E+02  0.00000000000E+00 0. -1.
         11    1    3    3    0    0 -0.91781329531E+00  0.12550805118E+00  0.66633577320E+00  0.11411122380E+01  0.51100000000E-03 0. -1.
        -11    1    3    3    0    0  0.66512029359E+00  0.92607041942E+00 -0.26657686603E+02  0.26682058517E+02  0.51100000000E-03 0.  1.
        -12    1    3    3    0    0 -0.12190528404E+02 -0.28681753031E+01 -0.15547662725E+02  0.19964098490E+02  0.00000000000E+00 0.  1.
</event>
<event>
 7    1  0.2414091E-009  0.4778727E+02  0.7816164E-02  0.1312668E+00
        -11   -1    0    0    0    0  0.00000000000E+00  0.00000000000E+00  0.45593999997E+02  0.45594000000E+02  0.51100000000E-03 0.  1.
         11   -1    0    0    0    0 -0.00000000000E+00 -0.00000000000E+00 -0.45593999997E+02  0.45594000000E+02  0.51100000000E-03 0. -1.
    9900012    2    1    2    0    0  0.84263727008E+01  0.45201013636E+01  0.42334243758E+02  0.47787271115E+02  0.20000000320E+02 0.  0.
         12    1    1    2    0    0 -0.84263727008E+01 -0.45201013636E+01 -0.42334243758E+02  0.43400728885E+02  0.00000000000E+00 0. -1.
         11    1    3    3    0    0  0.52154006254E+01  0.58611996559E+01  0.18119601243E+02  0.19745227640E+02  0.51100000000E-03 0. -1.
        -11    1    3    3    0    0  0.77309884555E+01  0.16527544704E+01  0.18729745312E+02  0.20329858326E+02  0.51100000000E-03 0.  1.
         12    1    3    3    0    0 -0.45200163801E+01 -0.29938527626E+01  0.54848972027E+01  0.77121851485E+01  0.00000000000E+00 0. -1.
</event>
<event>
 7    1  0.2414091E-009  0.4778727E+02  0.7816164E-02  0.1312668E+00
        -11   -1    0    0    0    0  0.00000000000E+00  0.00000000000E+00  0.45593999997E+02  0.45594000000E+02  0.51100000000E-03 0.  1.
         11   -1    0    0    0    0 -0.00000000000E+00 -0.00000000000E+00 -0.45593999997E+02  0.45594000000E+02  0.51100000000E-03 0. -1.
    9900012    2    1    2    0    0 -0.40169048901E+02 -0.10622676834E+02 -0.12539111528E+02  0.47787273386E+02  0.20000010675E+02 0.  0.
         12    1    1    2    0    0  0.40169048901E+02  0.10622676834E+02  0.12539111528E+02  0.43400726614E+02  0.00000000000E+00 0. -1.
         11    1    3    3    0    0 -0.20321941805E+00 -0.13618562518E+01 -0.43851553231E+01  0.45962526096E+01  0.51100000000E-03 0. -1.
        -11    1    3    3    0    0 -0.82967781936E+01 -0.63769689475E+01 -0.46541266012E+00  0.10474677587E+02  0.51100000000E-03 0.  1.
         12    1    3    3    0    0 -0.31669051289E+02 -0.28838516351E+01 -0.76885435452E+01  0.32716343189E+02  0.00000000000E+00 0. -1.
</event>
<event>
 7    1  0.2414091E-009  0.4778728E+02  0.7816164E-02  0.1312668E+00
        -11   -1    0    0    0    0  0.00000000000E+00  0.00000000000E+00  0.45593999997E+02  0.45594000000E+02  0.51100000000E-03 0.  1.
         11   -1    0    0    0    0 -0.00000000000E+00 -0.00000000000E+00 -0.45593999997E+02  0.45594000000E+02  0.51100000000E-03 0. -1.
    9900012    2    1    2    0    0 -0.35982073999E+02 -0.50606970912E+01  0.23733989984E+02  0.47787278982E+02  0.20000036189E+02 0.  0.
         12    1    1    2    0    0  0.35982073999E+02  0.50606970912E+01 -0.23733989984E+02  0.43400721018E+02  0.00000000000E+00 0. -1.
         11    1    3    3    0    0 -0.15310131808E+02 -0.53148747221E+01  0.89125381500E+01  0.18495441758E+02  0.51100000000E-03 0. -1.
        -11    1    3    3    0    0 -0.78274055947E+01 -0.65769704461E+01  0.90051783069E+01  0.13624171725E+02  0.51100000000E-03 0.  1.
        -12    1    3    3    0    0 -0.12844536597E+02  0.68311480770E+01  0.58162735268E+01  0.15667665498E+02  0.00000000000E+00 0.  1.
</event>
<event>
 7    1  0.2414091E-009  0.4778727E+02  0.7816164E-02  0.1312668E+00
        -11   -1    0    0    0    0  0.00000000000E+00  0.00000000000E+00  0.45593999997E+02  0.45594000000E+02  0.51100000000E-03 0.  1.
         11   -1    0    0    0    0 -0.00000000000E+00 -0.00000000000E+00 -0.45593999997E+02  0.45594000000E+02  0.51100000000E-03 0. -1.
    9900012    2    1    2    0    0  0.73336584773E+01  0.39814097446E+02  0.15642209409E+02  0.47787267088E+02  0.19999981959E+02 0.  0.
         12    1    1    2    0    0 -0.73336584773E+01 -0.39814097446E+02 -0.15642209409E+02  0.43400732912E+02  0.00000000000E+00 0. -1.
         11    1    3    3    0    0 -0.24509363346E+01  0.43393679514E+00  0.45349771481E+01  0.51731429570E+01  0.51100000000E-03 0. -1.
        -11    1    3    3    0    0  0.15967084770E+01  0.10922469012E+02  0.14956042546E+00  0.11039573174E+02  0.51100000000E-03 0.  1.
         12    1    3    3    0    0  0.81878863349E+01  0.28457691639E+02  0.10957671835E+02  0.31574550957E+02  0.00000000000E+00 0. -1.
</event>
<event>
 7    1  0.2414091E-009  0.4778727E+02  0.7816164E-02  0.1312668E+00
        -11   -1    0    0    0    0  0.00000000000E+00  0.00000000000E+00  0.45593999997E+02  0.45594000000E+02  0.51100000000E-03 0. -1.
         11   -1    0    0    0    0 -0.00000000000E+00 -0.00000000000E+00 -0.45593999997E+02  0.45594000000E+02  0.51100000000E-03 0.  1.
    9900012    2    1    2    0    0  0.12698980162E+02 -0.41359433759E+02  0.34287533773E+01  0.47787271807E+02  0.20000003476E+02 0.  0.
         12    1    1    2    0    0 -0.12698980162E+02  0.41359433759E+02 -0.34287533773E+01  0.43400728193E+02  0.00000000000E+00 0. -1.
         11    1    3    3    0    0  0.52874496903E+01 -0.14435438007E+02  0.39620480441E+01  0.15875667534E+02  0.51100000000E-03 0. -1.
        -11    1    3    3    0    0  0.85420527270E+01 -0.18506941362E+02  0.59424295148E+01  0.21231721837E+02  0.51100000000E-03 0.  1.
        -12    1    3    3    0    0 -0.11305222558E+01 -0.84170543889E+01 -0.64757241816E+01  0.10679882435E+02  0.00000000000E+00 0.  1.
</event>
<event>
 7    1  0.2414091E-009  0.4778727E+02  0.7816164E-02  0.1312668E+00
        -11   -1    0    0    0    0  0.00000000000E+00  0.00000000000E+00  0.45593999997E+02  0.45594000000E+02  0.51100000000E-03 0. -1.
         11   -1    0    0    0    0 -0.00000000000E+00 -0.00000000000E+00 -0.45593999997E+02  0.45594000000E+02  0.51100000000E-03 0.  1.
    9900012    2    1    2    0    0  0.30748352661E+02  0.15944562346E+02 -0.26152112767E+02  0.47787271182E+02  0.20000000626E+02 0.  0.
         12    1    1    2    0    0 -0.30748352661E+02 -0.15944562346E+02  0.26152112767E+02  0.43400728818E+02  0.00000000000E+00 0. -1.
         11    1    3    3    0    0  0.12821960059E+01  0.72863184102E+00 -0.76099511574E+00  0.16595314955E+01  0.51100000000E-03 0. -1.
        -11    1    3    3    0    0  0.27376921801E+02  0.19505850498E+02 -0.20949234456E+02  0.39608641425E+02  0.51100000000E-03 0.  1.
         12    1    3    3    0    0  0.20892348545E+01 -0.42899199935E+01 -0.44418831949E+01  0.65190982616E+01  0.00000000000E+00 0. -1.
</event>
<event>
 7    1  0.2414091E-009  0.4778727E+02  0.7816164E-02  0.1312668E+00
        -11   -1    0    0    0    0  0.00000000000E+00  0.00000000000E+00  0.45593999997E+02  0.45594000000E+02  0.51100000000E-03 0. -1.
         11   -1    0    0    0    0 -0.00000000000E+00 -0.00000000000E+00 -0.45593999997E+02  0.45594000000E+02  0.51100000000E-03 0.  1.
    9900012    2    1    2    0    0 -0.20945037534E+02  0.15876265202E+00 -0.38011886457E+02  0.47787270572E+02  0.19999997845E+02 0.  0.
         12    1    1    2    0    0  0.20945037534E+02 -0.15876265202E+00  0.38011886457E+02  0.43400729428E+02  0.00000000000E+00 0. -1.
         11    1    3    3    0    0 -0.10794421896E+02  0.58951904414E+00 -0.19443846780E+02  0.22247027996E+02  0.51100000000E-03 0. -1.
        -11    1    3    3    0    0 -0.17210600636E+01  0.35563765948E+01 -0.15072390882E+02  0.15581618317E+02  0.51100000000E-03 0.  1.
         12    1    3    3    0    0 -0.84295555745E+01 -0.39871329869E+01 -0.34956487953E+01  0.99586242594E+01  0.00000000000E+00 0. -1.
</event>
<event>
 7    1  0.2414091E-009  0.4778727E+02  0.7816164E-02  0.1312668E+00
        -11   -1    0    0    0    0  0.00000000000E+00  0.00000000000E+00  0.45593999997E+02  0.45594000000E+02  0.51100000000E-03 0.  1.
         11   -1    0    0    0    0 -0.00000000000E+00 -0.00000000000E+00 -0.45593999997E+02  0.45594000000E+02  0.51100000000E-03 0. -1.
    9900012    2    1    2    0    0 -0.28957184983E+02  0.24294595002E+01  0.32236664753E+02  0.47787269706E+02  0.19999993900E+02 0.  0.
         12    1    1    2    0    0  0.28957184983E+02 -0.24294595002E+01 -0.32236664753E+02  0.43400730294E+02  0.00000000000E+00 0. -1.
         11    1    3    3    0    0 -0.14538168366E+00 -0.68053807861E+00  0.21621938820E+01  0.22714203827E+01  0.51100000000E-03 0. -1.
        -11    1    3    3    0    0 -0.21023993020E+02 -0.38647107173E+01  0.11682780043E+02  0.24360451992E+02  0.51100000000E-03 0.  1.
         12    1    3    3    0    0 -0.77878102788E+01  0.69747082962E+01  0.18391690828E+02  0.21155397332E+02  0.00000000000E+00 0. -1.
</event>
<event>
 7    1  0.2414091E-009  0.4778727E+02  0.7816164E-02  0.1312668E+00
        -11   -1    0    0    0    0  0.00000000000E+00  0.00000000000E+00  0.45593999997E+02  0.45594000000E+02  0.51100000000E-03 0.  1.
         11   -1    0    0    0    0 -0.00000000000E+00 -0.00000000000E+00 -0.45593999997E+02  0.45594000000E+02  0.51100000000E-03 0. -1.
    9900012    2    1    2    0    0  0.32801753792E+02  0.75705081308E+01  0.27392616243E+02  0.47787273395E+02  0.20000010718E+02 0.  0.
         12    1    1    2    0    0 -0.32801753792E+02 -0.75705081308E+01 -0.27392616243E+02  0.43400726605E+02  0.00000000000E+00 0. -1.
         11    1    3    3    0    0  0.20859052888E+02  0.12632298165E+02  0.16849581326E+02  0.29640908141E+02  0.51100000000E-03 0. -1.
        -11    1    3    3    0    0  0.56440102834E+01  0.92462189399E+00  0.22855790948E+01  0.61590299387E+01  0.51100000000E-03 0.  1.
        -12    1    3    3    0    0  0.62986906206E+01 -0.59864119279E+01  0.82574558226E+01  0.11987335316E+02  0.00000000000E+00 0.  1.
</event>
<event>
 7    1  0.2414091E-009  0.4778727E+02  0.7816164E-02  0.1312668E+00
        -11   -1    0    0    0    0  0.00000000000E+00  0.00000000000E+00  0.45593999997E+02  0.45594000000E+02  0.51100000000E-03 0. -1.
         11   -1    0    0    0    0 -0.00000000000E+00 -0.00000000000E+00 -0.45593999997E+02  0.45594000000E+02  0.51100000000E-03 0.  1.
    9900012    2    1    2    0    0  0.25441026382E+02 -0.33916389064E+02 -0.92766240710E+01  0.47787273916E+02  0.20000013092E+02 0.  0.
         12    1    1    2    0    0 -0.25441026382E+02  0.33916389064E+02  0.92766240710E+01  0.43400726084E+02  0.00000000000E+00 0. -1.
         11    1    3    3    0    0  0.27586667399E+01 -0.13229122908E+02 -0.64311666100E+01  0.14965956011E+02  0.51100000000E-03 0. -1.
        -11    1    3    3    0    0  0.16104241257E+02 -0.18230893236E+02 -0.61055029071E+01  0.25079657507E+02  0.51100000000E-03 0.  1.
         12    1    3    3    0    0  0.65781183854E+01 -0.24563729197E+01  0.32600454460E+01  0.77416603983E+01  0.00000000000E+00 0. -1.
</event>
<event>
 7    1  0.2414091E-009  0.4778727E+02  0.7816164E-02  0.1312668E+00
        -11   -1    0    0    0    0  0.00000000000E+00  0.00000000000E+00  0.45593999997E+02  0.45594000000E+02  0.51100000000E-03 0. -1.
         11   -1    0    0    0    0 -0.00000000000E+00 -0.00000000000E+00 -0.45593999997E+02  0.45594000000E+02  0.51100000000E-03 0.  1.
    9900012    2    1    2    0    0 -0.36336182840E+01 -0.35465880382E+02 -0.24750587542E+02  0.47787269168E+02  0.19999991445E+02 0.  0.
         12    1    1    2    0    0  0.36336182840E+01  0.35465880382E+02  0.24750587542E+02  0.43400730832E+02  0.00000000000E+00 0. -1.
         11    1    3    3    0    0  0.18512261594E+01 -0.13950019875E+02 -0.17156456544E+02  0.22189504145E+02  0.51100000000E-03 0. -1.
        -11    1    3    3    0    0 -0.52749801542E+01 -0.82995556567E+01 -0.75197123360E+01  0.12379584549E+02  0.51100000000E-03 0.  1.
        -12    1    3    3    0    0 -0.20986428924E+00 -0.13216304850E+02 -0.74418662129E-01  0.13218180474E+02  0.00000000000E+00 0.  1.
</event>
<event>
 7    1  0.2414091E-009  0.4778727E+02  0.7816164E-02  0.1312668E+00
        -11   -1    0    0    0    0  0.00000000000E+00  0.00000000000E+00  0.45593999997E+02  0.45594000000E+02  0.51100000000E-03 0.  1.
         11   -1    0    0    0    0 -0.00000000000E+00 -0.00000000000E+00 -0.45593999997E+02  0.45594000000E+02  0.51100000000E-03 0. -1.
    9900012    2    1    2    0    0  0.30697545391E+02  0.11735889894E+00  0.30680128009E+02  0.47787270504E+02  0.19999997537E+02 0.  0.
         12    1    1    2    0    0 -0.30697545391E+02 -0.11735889894E+00 -0.30680128009E+02  0.43400729496E+02  0.00000000000E+00 0. -1.
         11    1    3    3    0    0  0.96108813049E+00 -0.36524671714E+01  0.16377936849E+00  0.37803479701E+01  0.51100000000E-03 0. -1.
        -11    1    3    3    0    0 -0.11202756615E+00  0.98574318336E+00  0.35461270554E+01  0.36822896618E+01  0.51100000000E-03 0.  1.
        -12    1    3    3    0    0  0.29848484826E+02  0.27840828869E+01  0.26970221585E+02  0.40324632872E+02  0.00000000000E+00 0.  1.
</event>
<event>
 7    1  0.2414091E-009  0.4778728E+02  0.7816164E-02  0.1312668E+00
        -11   -1    0    0    0    0  0.00000000000E+00  0.00000000000E+00  0.45593999997E+02  0.45594000000E+02  0.51100000000E-03 0.  1.
         11   -1    0    0    0    0 -0.00000000000E+00 -0.00000000000E+00 -0.45593999997E+02  0.45594000000E+02  0.51100000000E-03 0. -1.
    9900012    2    1    2    0    0  0.25335233996E+02  0.34630782801E+02  0.65159451117E+01  0.47787277198E+02  0.20000028055E+02 0.  0.
         12    1    1    2    0    0 -0.25335233996E+02 -0.34630782801E+02 -0.65159451117E+01  0.43400722802E+02  0.00000000000E+00 0. -1.
         11    1    3    3    0    0  0.16940478982E+02  0.11173532168E+02 -0.73228601588E+00  0.20306744996E+02  0.51100000000E-03 0. -1.
        -11    1    3    3    0    0  0.23974125086E+01  0.79877653348E+01 -0.18725844811E+01  0.85474297119E+01  0.51100000000E-03 0.  1.
        -12    1    3    3    0    0  0.59973425054E+01  0.15469485298E+02  0.91208156088E+01  0.18933102490E+02  0.00000000000E+00 0.  1.
</event>
<event>
 7    1  0.2414091E-009  0.4778728E+02  0.7816164E-02  0.1312668E+00
        -11   -1    0    0    0    0  0.00000000000E+00  0.00000000000E+00  0.45593999997E+02  0.45594000000E+02  0.51100000000E-03 0.  1.
         11   -1    0    0    0    0 -0.00000000000E+00 -0.00000000000E+00 -0.45593999997E+02  0.45594000000E+02  0.51100000000E-03 0. -1.
    9900012    2    1    2    0    0 -0.30288097231E+02  0.42109831885E+01  0.30798078585E+02  0.47787275837E+02  0.20000021853E+02 0.  0.
         12    1    1    2    0    0  0.30288097231E+02 -0.42109831885E+01 -0.30798078585E+02  0.43400724163E+02  0.00000000000E+00 0. -1.
         11    1    3    3    0    0 -0.54693297070E+01  0.14925813906E+01  0.15507230200E+02  0.16511073720E+02  0.51100000000E-03 0. -1.
        -11    1    3    3    0    0 -0.14448026109E+02  0.62016614478E+01  0.12220377082E+02  0.19913404517E+02  0.51100000000E-03 0.  1.
        -12    1    3    3    0    0 -0.10370741415E+02 -0.34832596499E+01  0.30704713032E+01  0.11362797600E+02  0.00000000000E+00 0.  1.
</event>
<event>
 7    1  0.2414091E-009  0.4778723E+02  0.7816164E-02  0.1312668E+00
        -11   -1    0    0    0    0  0.00000000000E+00  0.00000000000E+00  0.45593999997E+02  0.45594000000E+02  0.51100000000E-03 0.  1.
         11   -1    0    0    0    0 -0.00000000000E+00 -0.00000000000E+00 -0.45593999997E+02  0.45594000000E+02  0.51100000000E-03 0. -1.
    9900012    2    1    2    0    0 -0.37466588290E+01  0.17918855996E+00  0.43238379349E+02  0.47787228006E+02  0.19999803771E+02 0.  0.
         12    1    1    2    0    0  0.37466588290E+01 -0.17918855996E+00 -0.43238379349E+02  0.43400771994E+02  0.00000000000E+00 0. -1.
         11    1    3    3    0    0  0.52923164673E+01  0.18280287954E+01  0.21461818493E+02  0.22180170337E+02  0.51100000000E-03 0. -1.
        -11    1    3    3    0    0 -0.20881954411E+01  0.34643516275E+01  0.11486089854E+02  0.12177542970E+02  0.51100000000E-03 0.  1.
        -12    1    3    3    0    0 -0.69507798552E+01 -0.51131918629E+01  0.10290471002E+02  0.13429514699E+02  0.00000000000E+00 0.  1.
</event>
<event>
 7    1  0.2414091E-009  0.4778729E+02  0.7816164E-02  0.1312668E+00
        -11   -1    0    0    0    0  0.00000000000E+00  0.00000000000E+00  0.45593999997E+02  0.45594000000E+02  0.51100000000E-03 0.  1.
         11   -1    0    0    0    0 -0.00000000000E+00 -0.00000000000E+00 -0.45593999997E+02  0.45594000000E+02  0.51100000000E-03 0. -1.
    9900012    2    1    2    0    0  0.31327124194E+02  0.27104573445E+02  0.12945082669E+02  0.47787288287E+02  0.20000078615E+02 0.  0.
         12    1    1    2    0    0 -0.31327124194E+02 -0.27104573445E+02 -0.12945082669E+02  0.43400711713E+02  0.00000000000E+00 0. -1.
         11    1    3    3    0    0  0.65980858351E+00  0.66703882821E+01 -0.26851297324E+00  0.67083177234E+01  0.51100000000E-03 0. -1.
        -11    1    3    3    0    0  0.50737036657E+01  0.60438984305E+01  0.80387643006E+01  0.11264675267E+02  0.51100000000E-03 0.  1.
         12    1    3    3    0    0  0.25593611945E+02  0.14390286732E+02  0.51748313417E+01  0.29814295297E+02  0.00000000000E+00 0. -1.
</event>
<event>
 7    1  0.2414091E-009  0.4778727E+02  0.7816164E-02  0.1312668E+00
        -11   -1    0    0    0    0  0.00000000000E+00  0.00000000000E+00  0.45593999997E+02  0.45594000000E+02  0.51100000000E-03 0.  1.
         11   -1    0    0    0    0 -0.00000000000E+00 -0.00000000000E+00 -0.45593999997E+02  0.45594000000E+02  0.51100000000E-03 0. -1.
    9900012    2    1    2    0    0  0.43100036875E+02  0.14811321791E+01 -0.48801990596E+01  0.47787271043E+02  0.19999999995E+02 0.  0.
         12    1    1    2    0    0 -0.43100036875E+02 -0.14811321791E+01  0.48801990596E+01  0.43400728957E+02  0.00000000000E+00 0. -1.
         11    1    3    3    0    0  0.14714473004E+02  0.22498887123E+01 -0.17621532591E+01  0.14989426252E+02  0.51100000000E-03 0. -1.
        -11    1    3    3    0    0  0.23011175116E+02  0.19855794634E+01  0.40242253997E+01  0.23444638968E+02  0.51100000000E-03 0.  1.
         12    1    3    3    0    0  0.53743887548E+01 -0.27543359966E+01 -0.71422712001E+01  0.93532058229E+01  0.00000000000E+00 0. -1.
</event>
<event>
 7    1  0.2414091E-009  0.4778727E+02  0.7816164E-02  0.1312668E+00
        -11   -1    0    0    0    0  0.00000000000E+00  0.00000000000E+00  0.45593999997E+02  0.45594000000E+02  0.51100000000E-03 0.  1.
         11   -1    0    0    0    0 -0.00000000000E+00 -0.00000000000E+00 -0.45593999997E+02  0.45594000000E+02  0.51100000000E-03 0. -1.
    9900012    2    1    2    0    0  0.30223382253E+00 -0.83143435631E+01  0.42595817216E+02  0.47787270761E+02  0.19999998708E+02 0.  0.
         12    1    1    2    0    0 -0.30223382253E+00  0.83143435631E+01 -0.42595817216E+02  0.43400729239E+02  0.00000000000E+00 0. -1.
         11    1    3    3    0    0  0.25788504986E+01 -0.34844476156E+01  0.70672926227E+01  0.82908666830E+01  0.51100000000E-03 0. -1.
        -11    1    3    3    0    0  0.26952562502E+01 -0.16829392256E+01 -0.29653797751E+00  0.31913360407E+01  0.51100000000E-03 0.  1.
         12    1    3    3    0    0 -0.49718729262E+01 -0.31469567219E+01  0.35825062571E+02  0.36305068037E+02  0.00000000000E+00 0. -1.
</event>
<event>
 7    1  0.2414091E-009  0.4778726E+02  0.7816164E-02  0.1312668E+00
        -11   -1    0    0    0    0  0.00000000000E+00  0.00000000000E+00  0.45593999997E+02  0.45594000000E+02  0.51100000000E-03 0. -1.
         11   -1    0    0    0    0 -0.00000000000E+00 -0.00000000000E+00 -0.45593999997E+02  0.45594000000E+02  0.51100000000E-03 0.  1.
    9900012    2    1    2    0    0  0.17453672341E+02 -0.80284500673E+01 -0.38917065117E+02  0.47787255237E+02  0.19999927927E+02 0.  0.
         12    1    1    2    0    0 -0.17453672341E+02  0.80284500673E+01  0.38917065117E+02  0.43400744763E+02  0.00000000000E+00 0. -1.
         11    1    3    3    0    0  0.76743136888E+01 -0.23176274830E+01 -0.10247871605E+02  0.13010970772E+02  0.51100000000E-03 0. -1.
        -11    1    3    3    0    0  0.58466293755E+01 -0.10323427826E+02 -0.25047402517E+02  0.27715133235E+02  0.51100000000E-03 0.  1.
         12    1    3    3    0    0  0.39327292764E+01  0.46126052413E+01 -0.36217909951E+01  0.70611512295E+01  0.00000000000E+00 0. -1.
</event>
<event>
 7    1  0.2414091E-009  0.4778727E+02  0.7816164E-02  0.1312668E+00
        -11   -1    0    0    0    0  0.00000000000E+00  0.00000000000E+00  0.45593999997E+02  0.45594000000E+02  0.51100000000E-03 0. -1.
         11   -1    0    0    0    0 -0.00000000000E+00 -0.00000000000E+00 -0.45593999997E+02  0.45594000000E+02  0.51100000000E-03 0.  1.
    9900012    2    1    2    0    0  0.39822033474E+02  0.16243274270E+02 -0.58296668904E+01  0.47787270454E+02  0.19999997309E+02 0.  0.
         12    1    1    2    0    0 -0.39822033474E+02 -0.16243274270E+02  0.58296668904E+01  0.43400729546E+02  0.00000000000E+00 0. -1.
         11    1    3    3    0    0  0.30962231346E+01 -0.93027853959E+00 -0.24910687871E+01  0.40813526954E+01  0.51100000000E-03 0. -1.
        -11    1    3    3    0    0  0.22947986066E+02  0.90141432921E+01  0.57183552258E+01  0.25309374360E+02  0.51100000000E-03 0.  1.
        -12    1    3    3    0    0  0.13777824274E+02  0.81594095178E+01 -0.90569533290E+01  0.18396543398E+02  0.00000000000E+00 0.  1.
</event>
<event>
 7    1  0.2414091E-009  0.4778727E+02  0.7816164E-02  0.1312668E+00
        -11   -1    0    0    0    0  0.00000000000E+00  0.00000000000E+00  0.45593999997E+02  0.45594000000E+02  0.51100000000E-03 0.  1.
         11   -1    0    0    0    0 -0.00000000000E+00 -0.00000000000E+00 -0.45593999997E+02  0.45594000000E+02  0.51100000000E-03 0. -1.
    9900012    2    1    2    0    0  0.16260624641E+02  0.19874560854E+02  0.34988814495E+02  0.47787271634E+02  0.20000002690E+02 0.  0.
         12    1    1    2    0    0 -0.16260624641E+02 -0.19874560854E+02 -0.34988814495E+02  0.43400728366E+02  0.00000000000E+00 0. -1.
         11    1    3    3    0    0 -0.10470199487E+01  0.30061069141E+01  0.46570232978E+01  0.56409924490E+01  0.51100000000E-03 0. -1.
        -11    1    3    3    0    0 -0.56181978601E+00  0.10086965880E+02  0.93692758991E+01  0.13778456128E+02  0.51100000000E-03 0.  1.
        -12    1    3    3    0    0  0.17869464376E+02  0.67814880602E+01  0.20962515299E+02  0.28367823058E+02  0.00000000000E+00 0.  1.
</event>
<event>
 7    1  0.2414091E-009  0.4778728E+02  0.7816164E-02  0.1312668E+00
        -11   -1    0    0    0    0  0.00000000000E+00  0.00000000000E+00  0.45593999997E+02  0.45594000000E+02  0.51100000000E-03 0. -1.
         11   -1    0    0    0    0 -0.00000000000E+00 -0.00000000000E+00 -0.45593999997E+02  0.45594000000E+02  0.51100000000E-03 0.  1.
    9900012    2    1    2    0    0 -0.98429178591E+01 -0.13670974713E+02 -0.39998053848E+02  0.47787275430E+02  0.20000019997E+02 0.  0.
         12    1    1    2    0    0  0.98429178591E+01  0.13670974713E+02  0.39998053848E+02  0.43400724570E+02  0.00000000000E+00 0. -1.
         11    1    3    3    0    0 -0.75837245148E+01 -0.12981847209E+02 -0.16943552083E+02  0.22652266817E+02  0.51100000000E-03 0. -1.
        -11    1    3    3    0    0  0.76297250500E+00 -0.48273794216E+01 -0.11457191304E+02  0.12456040782E+02  0.51100000000E-03 0.  1.
        -12    1    3    3    0    0 -0.30221658493E+01  0.41382519181E+01 -0.11597310460E+02  0.12678967831E+02  0.00000000000E+00 0.  1.
</event>
<event>
 7    1  0.2414091E-009  0.4778727E+02  0.7816164E-02  0.1312668E+00
        -11   -1    0    0    0    0  0.00000000000E+00  0.00000000000E+00  0.45593999997E+02  0.45594000000E+02  0.51100000000E-03 0. -1.
         11   -1    0    0    0    0 -0.00000000000E+00 -0.00000000000E+00 -0.45593999997E+02  0.45594000000E+02  0.51100000000E-03 0.  1.
    9900012    2    1    2    0    0  0.24761571699E+02 -0.14131552431E+02 -0.32722878142E+02  0.47787274649E+02  0.20000016434E+02 0.  0.
         12    1    1    2    0    0 -0.24761571699E+02  0.14131552431E+02  0.32722878142E+02  0.43400725351E+02  0.00000000000E+00 0. -1.
         11    1    3    3    0    0  0.12335050527E+02 -0.84971546775E+01 -0.89089764118E+01  0.17427706966E+02  0.51100000000E-03 0. -1.
        -11    1    3    3    0    0  0.14944242775E+02 -0.46384608757E+01 -0.17419023291E+02  0.23415125114E+02  0.51100000000E-03 0.  1.
        -12    1    3    3    0    0 -0.25177216040E+01 -0.99593687741E+00 -0.63948784390E+01  0.69444425686E+01  0.00000000000E+00 0.  1.
</event>
<event>
 7    1  0.2414091E-009  0.4778727E+02  0.7816164E-02  0.1312668E+00
        -11   -1    0    0    0    0  0.00000000000E+00  0.00000000000E+00  0.45593999997E+02  0.45594000000E+02  0.51100000000E-03 0. -1.
         11   -1    0    0    0    0 -0.00000000000E+00 -0.00000000000E+00 -0.45593999997E+02  0.45594000000E+02  0.51100000000E-03 0.  1.
    9900012    2    1    2    0    0 -0.11598149032E+02 -0.35551951103E+02 -0.22026461217E+02  0.47787270951E+02  0.19999999576E+02 0.  0.
         12    1    1    2    0    0  0.11598149032E+02  0.35551951103E+02  0.22026461217E+02  0.43400729049E+02  0.00000000000E+00 0. -1.
         11    1    3    3    0    0  0.19087727709E+01 -0.11722283856E+02 -0.33314088146E+01  0.12335057245E+02  0.51100000000E-03 0. -1.
        -11    1    3    3    0    0 -0.67916563634E+01 -0.21261670002E+02 -0.10871496268E+02  0.24826893459E+02  0.51100000000E-03 0.  1.
         12    1    3    3    0    0 -0.67152654397E+01 -0.25679972449E+01 -0.78235561342E+01  0.10625320247E+02  0.00000000000E+00 0. -1.
</event>
<event>
 7    1  0.2414091E-009  0.4778733E+02  0.7816164E-02  0.1312668E+00
        -11   -1    0    0    0    0  0.00000000000E+00  0.00000000000E+00  0.45593999997E+02  0.45594000000E+02  0.51100000000E-03 0.  1.
         11   -1    0    0    0    0 -0.00000000000E+00 -0.00000000000E+00 -0.45593999997E+02  0.45594000000E+02  0.51100000000E-03 0. -1.
    9900012    2    1    2    0    0 -0.17841313443E+02  0.33910623635E+01  0.39418356308E+02  0.47787325082E+02  0.20000246377E+02 0.  0.
         12    1    1    2    0    0  0.17841313443E+02 -0.33910623635E+01 -0.39418356308E+02  0.43400674918E+02  0.00000000000E+00 0. -1.
         11    1    3    3    0    0 -0.15919355691E+02  0.56507328068E+01  0.19907587740E+02  0.26108786199E+02  0.51100000000E-03 0. -1.
        -11    1    3    3    0    0 -0.26320138854E+01 -0.86280823315E+00  0.77341689251E+00  0.28757797362E+01  0.51100000000E-03 0.  1.
        -12    1    3    3    0    0  0.71005613304E+00 -0.13968622101E+01  0.18737351675E+02  0.18802759147E+02  0.00000000000E+00 0.  1.
</event>
<event>
 7    1  0.2414091E-009  0.4778727E+02  0.7816164E-02  0.1312668E+00
        -11   -1    0    0    0    0  0.00000000000E+00  0.00000000000E+00  0.45593999997E+02  0.45594000000E+02  0.51100000000E-03 0.  1.
         11   -1    0    0    0    0 -0.00000000000E+00 -0.00000000000E+00 -0.45593999997E+02  0.45594000000E+02  0.51100000000E-03 0. -1.
    9900012    2    1    2    0    0 -0.17593825162E+02  0.29771335486E+02  0.26224952987E+02  0.47787271209E+02  0.20000000749E+02 0.  0.
         12    1    1    2    0    0  0.17593825162E+02 -0.29771335486E+02 -0.26224952987E+02  0.43400728791E+02  0.00000000000E+00 0. -1.
         11    1    3    3    0    0 -0.71859347904E+01  0.45516333798E+01  0.40817346697E+01  0.94348070151E+01  0.51100000000E-03 0. -1.
        -11    1    3    3    0    0 -0.38046176336E+01  0.84784428845E-01 -0.55738543343E+00  0.38461646506E+01  0.51100000000E-03 0.  1.
        -12    1    3    3    0    0 -0.66032727378E+01  0.25134917677E+02  0.22700603751E+02  0.34506299543E+02  0.00000000000E+00 0.  1.
</event>
<event>
 7    1  0.2414091E-009  0.4778727E+02  0.7816164E-02  0.1312668E+00
        -11   -1    0    0    0    0  0.00000000000E+00  0.00000000000E+00  0.45593999997E+02  0.45594000000E+02  0.51100000000E-03 0.  1.
         11   -1    0    0    0    0 -0.00000000000E+00 -0.00000000000E+00 -0.45593999997E+02  0.45594000000E+02  0.51100000000E-03 0. -1.
    9900012    2    1    2    0    0  0.13017816491E+02 -0.93048813569E+01  0.40343263184E+02  0.47787271347E+02  0.20000001381E+02 0.  0.
         12    1    1    2    0    0 -0.13017816491E+02  0.93048813569E+01 -0.40343263184E+02  0.43400728653E+02  0.00000000000E+00 0. -1.
         11    1    3    3    0    0  0.25367602705E+01 -0.79434863072E+01  0.21830596638E+02  0.23368976812E+02  0.51100000000E-03 0. -1.
        -11    1    3    3    0    0 -0.74055150650E+00 -0.14058642822E+01  0.10524508311E+02  0.10643784400E+02  0.51100000000E-03 0.  1.
        -12    1    3    3    0    0  0.11221607727E+02  0.44469232486E-01  0.79881582351E+01  0.13774510135E+02  0.00000000000E+00 0.  1.
</event>
<event>
 7    1  0.2414091E-009  0.4778727E+02  0.7816164E-02  0.1312668E+00
        -11   -1    0    0    0    0  0.00000000000E+00  0.00000000000E+00  0.45593999997E+02  0.45594000000E+02  0.51100000000E-03 0. -1.
         11   -1    0    0    0    0 -0.00000000000E+00 -0.00000000000E+00 -0.45593999997E+02  0.45594000000E+02  0.51100000000E-03 0.  1.
    9900012    2    1    2    0    0  0.27939170237E+02 -0.89397327771E+01 -0.31986051706E+02  0.47787267755E+02  0.19999985002E+02 0.  0.
         12    1    1    2    0    0 -0.27939170237E+02  0.89397327771E+01  0.31986051706E+02  0.43400732245E+02  0.00000000000E+00 0. -1.
         11    1    3    3    0    0  0.14385224661E+01  0.51587491324E+01 -0.37270406530E+01  0.65247890224E+01  0.51100000000E-03 0. -1.
        -11    1    3    3    0    0  0.52092689154E+01 -0.35511212027E+01 -0.57459572184E+01  0.85301212796E+01  0.51100000000E-03 0.  1.
         12    1    3    3    0    0  0.21291378856E+02 -0.10547360707E+02 -0.22513053835E+02  0.32732357453E+02  0.00000000000E+00 0. -1.
</event>
<event>
 7    1  0.2414091E-009  0.4778727E+02  0.7816164E-02  0.1312668E+00
        -11   -1    0    0    0    0  0.00000000000E+00  0.00000000000E+00  0.45593999997E+02  0.45594000000E+02  0.51100000000E-03 0.  1.
         11   -1    0    0    0    0 -0.00000000000E+00 -0.00000000000E+00 -0.45593999997E+02  0.45594000000E+02  0.51100000000E-03 0. -1.
    9900012    2    1    2    0    0 -0.30958524805E+02  0.28844226816E+02  0.96542116713E+01  0.47787268650E+02  0.19999989081E+02 0.  0.
         12    1    1    2    0    0  0.30958524805E+02 -0.28844226816E+02 -0.96542116713E+01  0.43400731350E+02  0.00000000000E+00 0. -1.
         11    1    3    3    0    0 -0.96399322543E+00 -0.22924034240E+01  0.15947525872E+01  0.29542566700E+01  0.51100000000E-03 0. -1.
        -11    1    3    3    0    0  0.31234301939E-01  0.91847135906E+00 -0.91718742907E+00  0.12983829405E+01  0.51100000000E-03 0.  1.
        -12    1    3    3    0    0 -0.30025765882E+02  0.30218158881E+02  0.89766465132E+01  0.43534629039E+02  0.00000000000E+00 0.  1.
</event>
<event>
 7    1  0.2414091E-009  0.4778727E+02  0.7816164E-02  0.1312668E+00
        -11   -1    0    0    0    0  0.00000000000E+00  0.00000000000E+00  0.45593999997E+02  0.45594000000E+02  0.51100000000E-03 0.  1.
         11   -1    0    0    0    0 -0.00000000000E+00 -0.00000000000E+00 -0.45593999997E+02  0.45594000000E+02  0.51100000000E-03 0. -1.
    9900012    2    1    2    0    0 -0.21685433529E+02  0.12757743749E+02  0.35363894300E+02  0.47787273359E+02  0.20000010553E+02 0.  0.
         12    1    1    2    0    0  0.21685433529E+02 -0.12757743749E+02 -0.35363894300E+02  0.43400726641E+02  0.00000000000E+00 0. -1.
         11    1    3    3    0    0 -0.94361971600E+01  0.66230051578E+01  0.22641832200E+02  0.25407844848E+02  0.51100000000E-03 0.  1.
        -11    1    3    3    0    0 -0.88275279858E+01  0.46965310531E+01  0.14997940902E+02  0.18025562011E+02  0.51100000000E-03 0. -1.
         12    1    3    3    0    0 -0.34217083828E+01  0.14382075381E+01 -0.22758788017E+01  0.43538665000E+01  0.00000000000E+00 0. -1.
</event>
<event>
 7    1  0.2414091E-009  0.4778726E+02  0.7816164E-02  0.1312668E+00
        -11   -1    0    0    0    0  0.00000000000E+00  0.00000000000E+00  0.45593999997E+02  0.45594000000E+02  0.51100000000E-03 0.  1.
         11   -1    0    0    0    0 -0.00000000000E+00 -0.00000000000E+00 -0.45593999997E+02  0.45594000000E+02  0.51100000000E-03 0. -1.
    9900012    2    1    2    0    0 -0.19891076560E+02  0.17586319873E+02  0.34332065963E+02  0.47787258915E+02  0.19999944698E+02 0.  0.
         12    1    1    2    0    0  0.19891076560E+02 -0.17586319873E+02 -0.34332065963E+02  0.43400741085E+02  0.00000000000E+00 0. -1.
         11    1    3    3    0    0 -0.14635913704E+02  0.16481560125E+02  0.21718774987E+02  0.30944417611E+02  0.51100000000E-03 0. -1.
        -11    1    3    3    0    0 -0.32429742580E+01  0.11741492369E+01 -0.57947322673E+00  0.34973272580E+01  0.51100000000E-03 0.  1.
        -12    1    3    3    0    0 -0.20121885989E+01 -0.69389488164E-01  0.13192764202E+02  0.13345514046E+02  0.00000000000E+00 0.  1.
</event>
<event>
 7    1  0.2414091E-009  0.4778727E+02  0.7816164E-02  0.1312668E+00
        -11   -1    0    0    0    0  0.00000000000E+00  0.00000000000E+00  0.45593999997E+02  0.45594000000E+02  0.51100000000E-03 0. -1.
         11   -1    0    0    0    0 -0.00000000000E+00 -0.00000000000E+00 -0.45593999997E+02  0.45594000000E+02  0.51100000000E-03 0.  1.
    9900012    2    1    2    0    0 -0.40849510956E+02  0.92685787763E+01 -0.11359323453E+02  0.47787270430E+02  0.19999997199E+02 0.  0.
         12    1    1    2    0    0  0.40849510956E+02 -0.92685787763E+01  0.11359323453E+02  0.43400729570E+02  0.00000000000E+00 0. -1.
         11    1    3    3    0    0 -0.85985304929E+01  0.14529614984E+01 -0.60169107852E+00  0.87411587429E+01  0.51100000000E-03 0. -1.
        -11    1    3    3    0    0 -0.15038258068E+02  0.29895937044E+01 -0.14134416739E+02  0.20853503616E+02  0.51100000000E-03 0.  1.
        -12    1    3    3    0    0 -0.17212722395E+02  0.48260235735E+01  0.33767843650E+01  0.18192608071E+02  0.00000000000E+00 0.  1.
</event>
<event>
 7    1  0.2414091E-009  0.4778727E+02  0.7816164E-02  0.1312668E+00
        -11   -1    0    0    0    0  0.00000000000E+00  0.00000000000E+00  0.45593999997E+02  0.45594000000E+02  0.51100000000E-03 0.  1.
         11   -1    0    0    0    0 -0.00000000000E+00 -0.00000000000E+00 -0.45593999997E+02  0.45594000000E+02  0.51100000000E-03 0. -1.
    9900012    2    1    2    0    0 -0.79157438511E+01  0.38333284587E+02  0.18748959864E+02  0.47787271851E+02  0.20000003676E+02 0.  0.
         12    1    1    2    0    0  0.79157438511E+01 -0.38333284587E+02 -0.18748959864E+02  0.43400728149E+02  0.00000000000E+00 0. -1.
         11    1    3    3    0    0 -0.29538047501E+01  0.50254396721E+01  0.36467897543E+01  0.68759786338E+01  0.51100000000E-03 0. -1.
        -11    1    3    3    0    0 -0.58793925075E+01  0.19149055506E+01  0.48998335206E+01  0.78893908710E+01  0.51100000000E-03 0.  1.
        -12    1    3    3    0    0  0.91745340645E+00  0.31392939364E+02  0.10202336589E+02  0.33021902346E+02  0.00000000000E+00 0.  1.
</event>
<event>
 7    1  0.2414091E-009  0.4778727E+02  0.7816164E-02  0.1312668E+00
        -11   -1    0    0    0    0  0.00000000000E+00  0.00000000000E+00  0.45593999997E+02  0.45594000000E+02  0.51100000000E-03 0.  1.
         11   -1    0    0    0    0 -0.00000000000E+00 -0.00000000000E+00 -0.45593999997E+02  0.45594000000E+02  0.51100000000E-03 0. -1.
    9900012    2    1    2    0    0  0.66833734405E+01  0.14111357652E+02  0.40494758772E+02  0.47787269784E+02  0.19999994253E+02 0.  0.
         12    1    1    2    0    0 -0.66833734405E+01 -0.14111357652E+02 -0.40494758772E+02  0.43400730216E+02  0.00000000000E+00 0. -1.
         11    1    3    3    0    0 -0.30551437200E+01 -0.14117461761E+01  0.11268773186E+02  0.11760619873E+02  0.51100000000E-03 0. -1.
        -11    1    3    3    0    0  0.39429116137E+01  0.75778450022E+01  0.22620710762E+02  0.24179885080E+02  0.51100000000E-03 0.  1.
        -12    1    3    3    0    0  0.57956055469E+01  0.79452588256E+01  0.66052748239E+01  0.11846764831E+02  0.00000000000E+00 0.  1.
</event>
<event>
 7    1  0.2414091E-009  0.4778727E+02  0.7816164E-02  0.1312668E+00
        -11   -1    0    0    0    0  0.00000000000E+00  0.00000000000E+00  0.45593999997E+02  0.45594000000E+02  0.51100000000E-03 0.  1.
         11   -1    0    0    0    0 -0.00000000000E+00 -0.00000000000E+00 -0.45593999997E+02  0.45594000000E+02  0.51100000000E-03 0. -1.
    9900012    2    1    2    0    0  0.66868547061E+01 -0.41166249773E+02  0.12010377773E+02  0.47787270508E+02  0.19999997553E+02 0.  0.
         12    1    1    2    0    0 -0.66868547061E+01  0.41166249773E+02 -0.12010377773E+02  0.43400729492E+02  0.00000000000E+00 0. -1.
         11    1    3    3    0    0  0.96055802716E+00 -0.33981790389E+00 -0.14167818106E+01  0.17451128592E+01  0.51100000000E-03 0. -1.
        -11    1    3    3    0    0  0.29808111077E+01 -0.53821747485E+01  0.79807062296E+01  0.10076939618E+02  0.51100000000E-03 0.  1.
         12    1    3    3    0    0  0.27454855712E+01 -0.35444257120E+02  0.54464533545E+01  0.35965218030E+02  0.00000000000E+00 0. -1.
</event>
<event>
 7    1  0.2414091E-009  0.4778727E+02  0.7816164E-02  0.1312668E+00
        -11   -1    0    0    0    0  0.00000000000E+00  0.00000000000E+00  0.45593999997E+02  0.45594000000E+02  0.51100000000E-03 0.  1.
         11   -1    0    0    0    0 -0.00000000000E+00 -0.00000000000E+00 -0.45593999997E+02  0.45594000000E+02  0.51100000000E-03 0. -1.
    9900012    2    1    2    0    0 -0.15418659516E+02  0.40567799175E+02 -0.37679079479E+00  0.47787270024E+02  0.19999995347E+02 0.  0.
         12    1    1    2    0    0  0.15418659516E+02 -0.40567799175E+02  0.37679079479E+00  0.43400729976E+02  0.00000000000E+00 0. -1.
         11    1    3    3    0    0 -0.37394308637E+01  0.74293081530E+01  0.15102158435E+01  0.84533256752E+01  0.51100000000E-03 0. -1.
        -11    1    3    3    0    0 -0.11805542724E+02  0.33412343996E+02  0.19451045742E+01  0.35489984536E+02  0.51100000000E-03 0.  1.
         12    1    3    3    0    0  0.12631407155E+00 -0.27385297407E+00 -0.38321112125E+01  0.38439598127E+01  0.00000000000E+00 0. -1.
</event>
<event>
 7    1  0.2414091E-009  0.4778727E+02  0.7816164E-02  0.1312668E+00
        -11   -1    0    0    0    0  0.00000000000E+00  0.00000000000E+00  0.45593999997E+02  0.45594000000E+02  0.51100000000E-03 0.  1.
         11   -1    0    0    0    0 -0.00000000000E+00 -0.00000000000E+00 -0.45593999997E+02  0.45594000000E+02  0.51100000000E-03 0. -1.
    9900012    2    1    2    0    0  0.40186679580E+02  0.16004780209E+02  0.35357240731E+01  0.47787267864E+02  0.19999985501E+02 0.  0.
         12    1    1    2    0    0 -0.40186679580E+02 -0.16004780209E+02 -0.35357240731E+01  0.43400732136E+02  0.00000000000E+00 0. -1.
         11    1    3    3    0    0  0.94041917872E+00  0.45079818085E+01 -0.37562138475E+01  0.59426787686E+01  0.51100000000E-03 0. -1.
        -11    1    3    3    0    0  0.75651760853E+01  0.22060707135E+00  0.16583799347E+01  0.77479533394E+01  0.51100000000E-03 0.  1.
        -12    1    3    3    0    0  0.31681084316E+02  0.11276191329E+02  0.56335579858E+01  0.34096635756E+02  0.00000000000E+00 0.  1.
</event>
<event>
 7    1  0.2414091E-009  0.4778728E+02  0.7816164E-02  0.1312668E+00
        -11   -1    0    0    0    0  0.00000000000E+00  0.00000000000E+00  0.45593999997E+02  0.45594000000E+02  0.51100000000E-03 0. -1.
         11   -1    0    0    0    0 -0.00000000000E+00 -0.00000000000E+00 -0.45593999997E+02  0.45594000000E+02  0.51100000000E-03 0.  1.
    9900012    2    1    2    0    0  0.93086259054E+01  0.54057626762E+01 -0.42044617840E+02  0.47787277936E+02  0.20000031423E+02 0.  0.
         12    1    1    2    0    0 -0.93086259054E+01 -0.54057626762E+01  0.42044617840E+02  0.43400722064E+02  0.00000000000E+00 0. -1.
         11    1    3    3    0    0 -0.20418467003E+01 -0.25905783511E+01 -0.54179779299E+01  0.63430843641E+01  0.51100000000E-03 0. -1.
        -11    1    3    3    0    0  0.59502535616E+00  0.31169837984E+01 -0.23790928148E+02  0.24001622978E+02  0.51100000000E-03 0.  1.
         12    1    3    3    0    0  0.10755447249E+02  0.48793572290E+01 -0.12835711762E+02  0.17442570594E+02  0.00000000000E+00 0. -1.
</event>
<event>
 7    1  0.2414091E-009  0.4778727E+02  0.7816164E-02  0.1312668E+00
        -11   -1    0    0    0    0  0.00000000000E+00  0.00000000000E+00  0.45593999997E+02  0.45594000000E+02  0.51100000000E-03 0.  1.
         11   -1    0    0    0    0 -0.00000000000E+00 -0.00000000000E+00 -0.45593999997E+02  0.45594000000E+02  0.51100000000E-03 0. -1.
    9900012    2    1    2    0    0 -0.10460339166E+02 -0.23248965473E+02  0.35123923076E+02  0.47787273470E+02  0.20000011059E+02 0.  0.
         12    1    1    2    0    0  0.10460339166E+02  0.23248965473E+02 -0.35123923076E+02  0.43400726530E+02  0.00000000000E+00 0. -1.
         11    1    3    3    0    0 -0.43718933721E+01 -0.56917114676E+01  0.24655665207E+01  0.75886790429E+01  0.51100000000E-03 0. -1.
        -11    1    3    3    0    0  0.19860799986E+01 -0.27240774610E+01 -0.67546218493E-01  0.33718947978E+01  0.51100000000E-03 0.  1.
        -12    1    3    3    0    0 -0.80745257927E+01 -0.14833176545E+02  0.32725902774E+02  0.36826699629E+02  0.00000000000E+00 0.  1.
</event>
<event>
 7    1  0.2414091E-009  0.4778727E+02  0.7816164E-02  0.1312668E+00
        -11   -1    0    0    0    0  0.00000000000E+00  0.00000000000E+00  0.45593999997E+02  0.45594000000E+02  0.51100000000E-03 0.  1.
         11   -1    0    0    0    0 -0.00000000000E+00 -0.00000000000E+00 -0.45593999997E+02  0.45594000000E+02  0.51100000000E-03 0. -1.
    9900012    2    1    2    0    0  0.91767849719E+01  0.29949764750E+02  0.30040326881E+02  0.47787273853E+02  0.20000012805E+02 0.  0.
         12    1    1    2    0    0 -0.91767849719E+01 -0.29949764750E+02 -0.30040326881E+02  0.43400726147E+02  0.00000000000E+00 0. -1.
         11    1    3    3    0    0 -0.17779368185E+01 -0.13220917128E+01 -0.91989121865E+00  0.23989968618E+01  0.51100000000E-03 0. -1.
        -11    1    3    3    0    0  0.26399304781E+01  0.68181467438E+01  0.78868842311E+01  0.10754501434E+02  0.51100000000E-03 0.  1.
         12    1    3    3    0    0  0.83147913123E+01  0.24453709719E+02  0.23073333868E+02  0.34633775558E+02  0.00000000000E+00 0. -1.
</event>
<event>
 7    1  0.2414091E-009  0.4778727E+02  0.7816164E-02  0.1312668E+00
        -11   -1    0    0    0    0  0.00000000000E+00  0.00000000000E+00  0.45593999997E+02  0.45594000000E+02  0.51100000000E-03 0. -1.
         11   -1    0    0    0    0 -0.00000000000E+00 -0.00000000000E+00 -0.45593999997E+02  0.45594000000E+02  0.51100000000E-03 0.  1.
    9900012    2    1    2    0    0  0.19138440365E+02  0.22504368489E+02 -0.31794601329E+02  0.47787272191E+02  0.20000005228E+02 0.  0.
         12    1    1    2    0    0 -0.19138440365E+02 -0.22504368489E+02  0.31794601329E+02  0.43400727809E+02  0.00000000000E+00 0. -1.
         11    1    3    3    0    0  0.25266576426E+01  0.65162691497E+01 -0.11571960450E+01  0.70841277107E+01  0.51100000000E-03 0. -1.
        -11    1    3    3    0    0  0.18731979473E+01  0.41393469639E+01  0.17896838104E+00  0.45469873300E+01  0.51100000000E-03 0.  1.
        -12    1    3    3    0    0  0.14738584775E+02  0.11848752375E+02 -0.30816373665E+02  0.36156157150E+02  0.00000000000E+00 0.  1.
</event>
<event>
 7    1  0.2414091E-009  0.4778727E+02  0.7816164E-02  0.1312668E+00
        -11   -1    0    0    0    0  0.00000000000E+00  0.00000000000E+00  0.45593999997E+02  0.45594000000E+02  0.51100000000E-03 0.  1.
         11   -1    0    0    0    0 -0.00000000000E+00 -0.00000000000E+00 -0.45593999997E+02  0.45594000000E+02  0.51100000000E-03 0. -1.
    9900012    2    1    2    0    0 -0.15424495112E+02  0.39981779956E+02  0.68677013466E+01  0.47787273052E+02  0.20000009151E+02 0.  0.
         12    1    1    2    0    0  0.15424495112E+02 -0.39981779956E+02 -0.68677013466E+01  0.43400726948E+02  0.00000000000E+00 0. -1.
         11    1    3    3    0    0 -0.22116134275E+01 -0.17021576309E+01  0.11594017853E+00  0.27932090755E+01  0.51100000000E-03 0. -1.
        -11    1    3    3    0    0  0.40646851936E+00  0.78231040559E+01  0.26374569705E+01  0.82657336794E+01  0.51100000000E-03 0.  1.
        -12    1    3    3    0    0 -0.13619350204E+02  0.33860833531E+02  0.41143041976E+01  0.36728330297E+02  0.00000000000E+00 0.  1.
</event>
<event>
 7    1  0.2414091E-009  0.4778727E+02  0.7816164E-02  0.1312668E+00
        -11   -1    0    0    0    0  0.00000000000E+00  0.00000000000E+00  0.45593999997E+02  0.45594000000E+02  0.51100000000E-03 0.  1.
         11   -1    0    0    0    0 -0.00000000000E+00 -0.00000000000E+00 -0.45593999997E+02  0.45594000000E+02  0.51100000000E-03 0. -1.
    9900012    2    1    2    0    0 -0.69204571161E+01  0.82127704594E+01  0.42050933567E+02  0.47787270292E+02  0.19999996569E+02 0.  0.
         12    1    1    2    0    0  0.69204571161E+01 -0.82127704594E+01 -0.42050933567E+02  0.43400729708E+02  0.00000000000E+00 0. -1.
         11    1    3    3    0    0 -0.27442371942E+01  0.41607902408E+01  0.45207235939E+01  0.67290382135E+01  0.51100000000E-03 0.  1.
        -11    1    3    3    0    0 -0.19768441373E+01  0.37254688883E+00 -0.10303330416E+01  0.22601527305E+01  0.51100000000E-03 0. -1.
        -12    1    3    3    0    0 -0.21993757846E+01  0.36794333298E+01  0.38560543015E+02  0.38798079348E+02  0.00000000000E+00 0.  1.
</event>
<event>
 7    1  0.2414091E-009  0.4778727E+02  0.7816164E-02  0.1312668E+00
        -11   -1    0    0    0    0  0.00000000000E+00  0.00000000000E+00  0.45593999997E+02  0.45594000000E+02  0.51100000000E-03 0.  1.
         11   -1    0    0    0    0 -0.00000000000E+00 -0.00000000000E+00 -0.45593999997E+02  0.45594000000E+02  0.51100000000E-03 0. -1.
    9900012    2    1    2    0    0 -0.29206676689E+02 -0.31989197117E+02  0.26990080175E+01  0.47787270286E+02  0.19999996543E+02 0.  0.
         12    1    1    2    0    0  0.29206676689E+02  0.31989197117E+02 -0.26990080175E+01  0.43400729714E+02  0.00000000000E+00 0. -1.
         11    1    3    3    0    0  0.18988444569E+01 -0.18265430858E+01  0.20794412169E-01  0.26348249628E+01  0.51100000000E-03 0. -1.
        -11    1    3    3    0    0 -0.49471299040E+01 -0.73321712325E+01  0.53372217376E+01  0.10330574302E+02  0.51100000000E-03 0.  1.
        -12    1    3    3    0    0 -0.26158391242E+02 -0.22830482799E+02 -0.26590081322E+01  0.34821871021E+02  0.00000000000E+00 0.  1.
</event>
<event>
 7    1  0.2414091E-009  0.4778727E+02  0.7816164E-02  0.1312668E+00
        -11   -1    0    0    0    0  0.00000000000E+00  0.00000000000E+00  0.45593999997E+02  0.45594000000E+02  0.51100000000E-03 0. -1.
         11   -1    0    0    0    0 -0.00000000000E+00 -0.00000000000E+00 -0.45593999997E+02  0.45594000000E+02  0.51100000000E-03 0.  1.
    9900012    2    1    2    0    0 -0.52368273859E+01  0.26331028975E+02 -0.34100966481E+02  0.47787270019E+02  0.19999995324E+02 0.  0.
         12    1    1    2    0    0  0.52368273859E+01 -0.26331028975E+02  0.34100966481E+02  0.43400729981E+02  0.00000000000E+00 0. -1.
         11    1    3    3    0    0 -0.60290293904E+01  0.31437425063E+01 -0.51404749530E+00  0.68188384220E+01  0.51100000000E-03 0. -1.
        -11    1    3    3    0    0 -0.33406027013E+00  0.70900036425E+01 -0.77752924181E+01  0.10527816505E+02  0.51100000000E-03 0.  1.
         12    1    3    3    0    0  0.11262622747E+01  0.16097282826E+02 -0.25811626568E+02  0.30440615092E+02  0.00000000000E+00 0. -1.
</event>
<event>
 7    1  0.2414091E-009  0.4778726E+02  0.7816164E-02  0.1312668E+00
        -11   -1    0    0    0    0  0.00000000000E+00  0.00000000000E+00  0.45593999997E+02  0.45594000000E+02  0.51100000000E-03 0.  1.
         11   -1    0    0    0    0 -0.00000000000E+00 -0.00000000000E+00 -0.45593999997E+02  0.45594000000E+02  0.51100000000E-03 0. -1.
    9900012    2    1    2    0    0 -0.35565908574E+02 -0.27772692753E+01  0.24717952295E+02  0.47787259880E+02  0.19999949095E+02 0.  0.
         12    1    1    2    0    0  0.35565908574E+02  0.27772692753E+01 -0.24717952295E+02  0.43400740120E+02  0.00000000000E+00 0. -1.
         11    1    3    3    0    0 -0.47814036333E+01  0.40335862970E+00  0.79647117810E+01  0.92984489515E+01  0.51100000000E-03 0. -1.
        -11    1    3    3    0    0 -0.11588572678E+02 -0.74662662136E+01  0.11945962355E+02  0.18241331221E+02  0.51100000000E-03 0.  1.
        -12    1    3    3    0    0 -0.19195932264E+02  0.42856383086E+01  0.48072781589E+01  0.20247479707E+02  0.00000000000E+00 0.  1.
</event>
<event>
 7    1  0.2414091E-009  0.4778727E+02  0.7816164E-02  0.1312668E+00
        -11   -1    0    0    0    0  0.00000000000E+00  0.00000000000E+00  0.45593999997E+02  0.45594000000E+02  0.51100000000E-03 0. -1.
         11   -1    0    0    0    0 -0.00000000000E+00 -0.00000000000E+00 -0.45593999997E+02  0.45594000000E+02  0.51100000000E-03 0.  1.
    9900012    2    1    2    0    0 -0.18725570665E+02  0.18015345280E+02 -0.34762385043E+02  0.47787273322E+02  0.20000010385E+02 0.  0.
         12    1    1    2    0    0  0.18725570665E+02 -0.18015345280E+02  0.34762385043E+02  0.43400726678E+02  0.00000000000E+00 0. -1.
         11    1    3    3    0    0 -0.31673055273E+01  0.15566393720E+00 -0.48359815508E+01  0.57829727118E+01  0.51100000000E-03 0. -1.
        -11    1    3    3    0    0  0.26254189916E+01  0.21768619824E+01  0.27356909682E+00  0.34214606945E+01  0.51100000000E-03 0.  1.
        -12    1    3    3    0    0 -0.18183684130E+02  0.15682819360E+02 -0.30199972589E+02  0.38582839916E+02  0.00000000000E+00 0.  1.
</event>
<event>
 7    1  0.2414091E-009  0.4778727E+02  0.7816164E-02  0.1312668E+00
        -11   -1    0    0    0    0  0.00000000000E+00  0.00000000000E+00  0.45593999997E+02  0.45594000000E+02  0.51100000000E-03 0.  1.
         11   -1    0    0    0    0 -0.00000000000E+00 -0.00000000000E+00 -0.45593999997E+02  0.45594000000E+02  0.51100000000E-03 0. -1.
    9900012    2    1    2    0    0 -0.18162015826E+02 -0.33347664870E+02 -0.21016599870E+02  0.47787273725E+02  0.20000012220E+02 0.  0.
         12    1    1    2    0    0  0.18162015826E+02  0.33347664870E+02  0.21016599870E+02  0.43400726275E+02  0.00000000000E+00 0. -1.
         11    1    3    3    0    0 -0.40642888760E+01 -0.62842251615E+01 -0.24775032720E+01  0.78833972799E+01  0.51100000000E-03 0. -1.
        -11    1    3    3    0    0 -0.17606923661E+02 -0.17560081823E+02 -0.15602009169E+02  0.29356139474E+02  0.51100000000E-03 0.  1.
         12    1    3    3    0    0  0.35091967107E+01 -0.95033578850E+01 -0.29370874295E+01  0.10547736971E+02  0.00000000000E+00 0. -1.
</event>
<event>
 7    1  0.2414091E-009  0.4778728E+02  0.7816164E-02  0.1312668E+00
        -11   -1    0    0    0    0  0.00000000000E+00  0.00000000000E+00  0.45593999997E+02  0.45594000000E+02  0.51100000000E-03 0. -1.
         11   -1    0    0    0    0 -0.00000000000E+00 -0.00000000000E+00 -0.45593999997E+02  0.45594000000E+02  0.51100000000E-03 0.  1.
    9900012    2    1    2    0    0 -0.37827656856E+02 -0.19653630964E+02 -0.81501960794E+01  0.47787279620E+02  0.20000039101E+02 0.  0.
         12    1    1    2    0    0  0.37827656856E+02  0.19653630964E+02  0.81501960794E+01  0.43400720380E+02  0.00000000000E+00 0. -1.
         11    1    3    3    0    0 -0.96004381689E+01 -0.37981826155E+01  0.30638906751E+01  0.10769495371E+02  0.51100000000E-03 0. -1.
        -11    1    3    3    0    0 -0.22350562099E+02 -0.12690527971E+02 -0.21924748996E+01  0.25795427361E+02  0.51100000000E-03 0.  1.
         12    1    3    3    0    0 -0.58766565886E+01 -0.31649203783E+01 -0.90216118549E+01  0.11222356888E+02  0.00000000000E+00 0. -1.
</event>
<event>
 7    1  0.2414091E-009  0.4778727E+02  0.7816164E-02  0.1312668E+00
        -11   -1    0    0    0    0  0.00000000000E+00  0.00000000000E+00  0.45593999997E+02  0.45594000000E+02  0.51100000000E-03 0.  1.
         11   -1    0    0    0    0 -0.00000000000E+00 -0.00000000000E+00 -0.45593999997E+02  0.45594000000E+02  0.51100000000E-03 0. -1.
    9900012    2    1    2    0    0  0.17312035512E+02 -0.25837435195E+02  0.30271169032E+02  0.47787270679E+02  0.19999998336E+02 0.  0.
         12    1    1    2    0    0 -0.17312035512E+02  0.25837435195E+02 -0.30271169032E+02  0.43400729321E+02  0.00000000000E+00 0. -1.
         11    1    3    3    0    0  0.27308091813E+00 -0.40817564635E+01  0.15609752149E+01  0.43785788673E+01  0.51100000000E-03 0. -1.
        -11    1    3    3    0    0 -0.19804529516E+00  0.26616472822E+01  0.22717205890E+01  0.35048969870E+01  0.51100000000E-03 0.  1.
        -12    1    3    3    0    0  0.17236999889E+02 -0.24417326014E+02  0.26438473228E+02  0.39903794825E+02  0.00000000000E+00 0.  1.
</event>
<event>
 7    1  0.2414091E-009  0.4778727E+02  0.7816164E-02  0.1312668E+00
        -11   -1    0    0    0    0  0.00000000000E+00  0.00000000000E+00  0.45593999997E+02  0.45594000000E+02  0.51100000000E-03 0. -1.
         11   -1    0    0    0    0 -0.00000000000E+00 -0.00000000000E+00 -0.45593999997E+02  0.45594000000E+02  0.51100000000E-03 0.  1.
    9900012    2    1    2    0    0 -0.12905565671E+02 -0.38465025118E+01 -0.41258627989E+02  0.47787267398E+02  0.19999983375E+02 0.  0.
         12    1    1    2    0    0  0.12905565671E+02  0.38465025118E+01  0.41258627989E+02  0.43400732602E+02  0.00000000000E+00 0. -1.
         11    1    3    3    0    0 -0.87758256156E+01  0.41680558759E+01 -0.11724352848E+02  0.15226564123E+02  0.51100000000E-03 0. -1.
        -11    1    3    3    0    0 -0.36533099526E+01  0.52422558211E+00 -0.32416889730E+01  0.49122330696E+01  0.51100000000E-03 0.  1.
        -12    1    3    3    0    0 -0.47643010319E+00 -0.85387839698E+01 -0.26292586168E+02  0.27648470206E+02  0.00000000000E+00 0.  1.
</event>
<event>
 7    1  0.2414091E-009  0.4778727E+02  0.7816164E-02  0.1312668E+00
        -11   -1    0    0    0    0  0.00000000000E+00  0.00000000000E+00  0.45593999997E+02  0.45594000000E+02  0.51100000000E-03 0.  1.
         11   -1    0    0    0    0 -0.00000000000E+00 -0.00000000000E+00 -0.45593999997E+02  0.45594000000E+02  0.51100000000E-03 0. -1.
    9900012    2    1    2    0    0 -0.12331977411E+02 -0.35563483224E+02  0.21605189980E+02  0.47787271436E+02  0.20000001784E+02 0.  0.
         12    1    1    2    0    0  0.12331977411E+02  0.35563483224E+02 -0.21605189980E+02  0.43400728564E+02  0.00000000000E+00 0. -1.
         11    1    3    3    0    0 -0.12351967742E+02 -0.23857045534E+02  0.14696678842E+02  0.30622248414E+02  0.51100000000E-03 0.  1.
        -11    1    3    3    0    0 -0.33477918544E+01 -0.50872500317E+01 -0.11593521149E+01  0.61993484152E+01  0.51100000000E-03 0. -1.
         12    1    3    3    0    0  0.33677821860E+01 -0.66191876581E+01  0.80678632530E+01  0.10965674607E+02  0.00000000000E+00 0. -1.
</event>
<event>
 7    1  0.2414091E-009  0.4778727E+02  0.7816164E-02  0.1312668E+00
        -11   -1    0    0    0    0  0.00000000000E+00  0.00000000000E+00  0.45593999997E+02  0.45594000000E+02  0.51100000000E-03 0.  1.
         11   -1    0    0    0    0 -0.00000000000E+00 -0.00000000000E+00 -0.45593999997E+02  0.45594000000E+02  0.51100000000E-03 0. -1.
    9900012    2    1    2    0    0 -0.14936478894E+02 -0.35795023432E+02  0.19474116668E+02  0.47787270464E+02  0.19999997355E+02 0.  0.
         12    1    1    2    0    0  0.14936478894E+02  0.35795023432E+02 -0.19474116668E+02  0.43400729536E+02  0.00000000000E+00 0. -1.
         11    1    3    3    0    0 -0.35773235446E+01 -0.96560279540E+00  0.41201125645E+01  0.55412056726E+01  0.51100000000E-03 0. -1.
        -11    1    3    3    0    0 -0.63144021499E+01 -0.95237184176E+01  0.11400363593E+02  0.16141287970E+02  0.51100000000E-03 0.  1.
        -12    1    3    3    0    0 -0.50447531994E+01 -0.25305702219E+02  0.39536405101E+01  0.26104776822E+02  0.00000000000E+00 0.  1.
</event>
<event>
 7    1  0.2414091E-009  0.4778732E+02  0.7816164E-02  0.1312668E+00
        -11   -1    0    0    0    0  0.00000000000E+00  0.00000000000E+00  0.45593999997E+02  0.45594000000E+02  0.51100000000E-03 0. -1.
         11   -1    0    0    0    0 -0.00000000000E+00 -0.00000000000E+00 -0.45593999997E+02  0.45594000000E+02  0.51100000000E-03 0.  1.
    9900012    2    1    2    0    0 -0.17266219895E+02  0.17036864881E+02 -0.35989474660E+02  0.47787315665E+02  0.20000203444E+02 0.  0.
         12    1    1    2    0    0  0.17266219895E+02 -0.17036864881E+02  0.35989474660E+02  0.43400684335E+02  0.00000000000E+00 0. -1.
         11    1    3    3    0    0 -0.10858409400E+02  0.58503628957E+01 -0.12311682330E+02  0.17427258040E+02  0.51100000000E-03 0. -1.
        -11    1    3    3    0    0 -0.83079203712E+00  0.37027363345E+01  0.10434524683E+01  0.39356403655E+01  0.51100000000E-03 0.  1.
         12    1    3    3    0    0 -0.55770184573E+01  0.74837656512E+01 -0.24721244798E+02  0.26424417260E+02  0.00000000000E+00 0. -1.
</event>
<event>
 7    1  0.2414091E-009  0.4778727E+02  0.7816164E-02  0.1312668E+00
        -11   -1    0    0    0    0  0.00000000000E+00  0.00000000000E+00  0.45593999997E+02  0.45594000000E+02  0.51100000000E-03 0. -1.
         11   -1    0    0    0    0 -0.00000000000E+00 -0.00000000000E+00 -0.45593999997E+02  0.45594000000E+02  0.51100000000E-03 0.  1.
    9900012    2    1    2    0    0  0.25737123272E+02  0.27985986114E+02 -0.20928649643E+02  0.47787270640E+02  0.19999998157E+02 0.  0.
         12    1    1    2    0    0 -0.25737123272E+02 -0.27985986114E+02  0.20928649643E+02  0.43400729360E+02  0.00000000000E+00 0. -1.
         11    1    3    3    0    0 -0.15704094422E-01 -0.25100914515E+00  0.25079144038E+00  0.35517434764E+00  0.51100000000E-03 0. -1.
        -11    1    3    3    0    0  0.90208546003E+01  0.19267311195E+02 -0.36363919465E+01  0.21583059215E+02  0.51100000000E-03 0.  1.
         12    1    3    3    0    0  0.16731972766E+02  0.89696840644E+01 -0.17543049137E+02  0.25849037078E+02  0.00000000000E+00 0. -1.
</event>
<event>
 7    1  0.2414091E-009  0.4778727E+02  0.7816164E-02  0.1312668E+00
        -11   -1    0    0    0    0  0.00000000000E+00  0.00000000000E+00  0.45593999997E+02  0.45594000000E+02  0.51100000000E-03 0.  1.
         11   -1    0    0    0    0 -0.00000000000E+00 -0.00000000000E+00 -0.45593999997E+02  0.45594000000E+02  0.51100000000E-03 0. -1.
    9900012    2    1    2    0    0  0.39244872540E+01  0.15275979181E+02  0.40433477038E+02  0.47787271832E+02  0.20000003589E+02 0.  0.
         12    1    1    2    0    0 -0.39244872540E+01 -0.15275979181E+02 -0.40433477038E+02  0.43400728168E+02  0.00000000000E+00 0. -1.
         11    1    3    3    0    0 -0.26891765405E+01  0.13744889383E+01  0.76822630509E+01  0.82545778906E+01  0.51100000000E-03 0. -1.
        -11    1    3    3    0    0  0.60554951175E+01 -0.17290474578E+01  0.71116215633E+01  0.94991466854E+01  0.51100000000E-03 0.  1.
        -12    1    3    3    0    0  0.55816867692E+00  0.15630537700E+02  0.25639592424E+02  0.30033547256E+02  0.00000000000E+00 0.  1.
</event>
<event>
 7    1  0.2414091E-009  0.4778727E+02  0.7816164E-02  0.1312668E+00
        -11   -1    0    0    0    0  0.00000000000E+00  0.00000000000E+00  0.45593999997E+02  0.45594000000E+02  0.51100000000E-03 0. -1.
         11   -1    0    0    0    0 -0.00000000000E+00 -0.00000000000E+00 -0.45593999997E+02  0.45594000000E+02  0.51100000000E-03 0.  1.
    9900012    2    1    2    0    0  0.49000312468E+01  0.29304355714E+02 -0.31636489273E+02  0.47787273928E+02  0.20000013149E+02 0.  0.
         12    1    1    2    0    0 -0.49000312468E+01 -0.29304355714E+02  0.31636489273E+02  0.43400726072E+02  0.00000000000E+00 0. -1.
         11    1    3    3    0    0 -0.10013607757E+01  0.14512953341E+02 -0.13272933817E+02  0.19692620711E+02  0.51100000000E-03 0. -1.
        -11    1    3    3    0    0  0.48988672043E+01  0.16471423397E+02 -0.10832850172E+02  0.20313968882E+02  0.51100000000E-03 0.  1.
         12    1    3    3    0    0  0.10025248182E+01 -0.16800210247E+01 -0.75307052847E+01  0.77806843362E+01  0.00000000000E+00 0. -1.
</event>
<event>
 7    1  0.2414091E-009  0.4778727E+02  0.7816164E-02  0.1312668E+00
        -11   -1    0    0    0    0  0.00000000000E+00  0.00000000000E+00  0.45593999997E+02  0.45594000000E+02  0.51100000000E-03 0. -1.
         11   -1    0    0    0    0 -0.00000000000E+00 -0.00000000000E+00 -0.45593999997E+02  0.45594000000E+02  0.51100000000E-03 0.  1.
    9900012    2    1    2    0    0  0.40278888071E+02 -0.10274891191E+02 -0.12476423668E+02  0.47787270043E+02  0.19999995436E+02 0.  0.
         12    1    1    2    0    0 -0.40278888071E+02  0.10274891191E+02  0.12476423668E+02  0.43400729957E+02  0.00000000000E+00 0. -1.
         11    1    3    3    0    0  0.15531977490E+02  0.34144022636E+01  0.10037518317E+01  0.15934490439E+02  0.51100000000E-03 0. -1.
        -11    1    3    3    0    0  0.74586875321E+00 -0.17967856740E+01 -0.17285807939E+01  0.26024509174E+01  0.51100000000E-03 0.  1.
        -12    1    3    3    0    0  0.24001041828E+02 -0.11892507781E+02 -0.11751594706E+02  0.29250328687E+02  0.00000000000E+00 0.  1.
</event>
<event>
 7    1  0.2414091E-009  0.4778727E+02  0.7816164E-02  0.1312668E+00
        -11   -1    0    0    0    0  0.00000000000E+00  0.00000000000E+00  0.45593999997E+02  0.45594000000E+02  0.51100000000E-03 0.  1.
         11   -1    0    0    0    0 -0.00000000000E+00 -0.00000000000E+00 -0.45593999997E+02  0.45594000000E+02  0.51100000000E-03 0. -1.
    9900012    2    1    2    0    0 -0.12021276970E+02 -0.12916258729E+02  0.39652016588E+02  0.47787271216E+02  0.20000000780E+02 0.  0.
         12    1    1    2    0    0  0.12021276970E+02  0.12916258729E+02 -0.39652016588E+02  0.43400728784E+02  0.00000000000E+00 0. -1.
         11    1    3    3    0    0 -0.75290628728E+01  0.22328756154E+01  0.24065627327E+02  0.25314559845E+02  0.51100000000E-03 0. -1.
        -11    1    3    3    0    0 -0.25767435747E+01 -0.33079455490E+01  0.39343598922E+01  0.57498955840E+01  0.51100000000E-03 0.  1.
         12    1    3    3    0    0 -0.19154705230E+01 -0.11841188796E+02  0.11652029368E+02  0.16722815786E+02  0.00000000000E+00 0. -1.
</event>
<event>
 7    1  0.2414091E-009  0.4778727E+02  0.7816164E-02  0.1312668E+00
        -11   -1    0    0    0    0  0.00000000000E+00  0.00000000000E+00  0.45593999997E+02  0.45594000000E+02  0.51100000000E-03 0.  1.
         11   -1    0    0    0    0 -0.00000000000E+00 -0.00000000000E+00 -0.45593999997E+02  0.45594000000E+02  0.51100000000E-03 0. -1.
    9900012    2    1    2    0    0 -0.48177922039E+01  0.43104450061E+02 -0.15552305932E+01  0.47787268681E+02  0.19999989225E+02 0.  0.
         12    1    1    2    0    0  0.48177922039E+01 -0.43104450061E+02  0.15552305932E+01  0.43400731319E+02  0.00000000000E+00 0. -1.
         11    1    3    3    0    0 -0.54734683641E-02  0.56382511015E+00  0.16560116523E+01  0.17493723353E+01  0.51100000000E-03 0. -1.
        -11    1    3    3    0    0  0.13083187756E+00  0.34171135440E+02  0.33122332360E+01  0.34331538030E+02  0.51100000000E-03 0.  1.
        -12    1    3    3    0    0 -0.49431506131E+01  0.83694895115E+01 -0.65234754815E+01  0.11706358316E+02  0.00000000000E+00 0.  1.
</event>
<event>
 7    1  0.2414091E-009  0.4778726E+02  0.7816164E-02  0.1312668E+00
        -11   -1    0    0    0    0  0.00000000000E+00  0.00000000000E+00  0.45593999997E+02  0.45594000000E+02  0.51100000000E-03 0.  1.
         11   -1    0    0    0    0 -0.00000000000E+00 -0.00000000000E+00 -0.45593999997E+02  0.45594000000E+02  0.51100000000E-03 0. -1.
    9900012    2    1    2    0    0 -0.28424386925E+01  0.28489851715E+01  0.43213743827E+02  0.47787264640E+02  0.19999970800E+02 0.  0.
         12    1    1    2    0    0  0.28424386925E+01 -0.28489851715E+01 -0.43213743827E+02  0.43400735360E+02  0.00000000000E+00 0. -1.
         11    1    3    3    0    0  0.11669186517E+01  0.98557137586E+00  0.39382266080E+01  0.42240595585E+01  0.51100000000E-03 0. -1.
        -11    1    3    3    0    0  0.47023009202E+01  0.23432809489E+01  0.31314420548E+02  0.31752094956E+02  0.51100000000E-03 0.  1.
         12    1    3    3    0    0 -0.87116582644E+01 -0.47986715327E+00  0.79610966711E+01  0.11811110126E+02  0.00000000000E+00 0. -1.
</event>
<event>
 7    1  0.2414091E-009  0.4778727E+02  0.7816164E-02  0.1312668E+00
        -11   -1    0    0    0    0  0.00000000000E+00  0.00000000000E+00  0.45593999997E+02  0.45594000000E+02  0.51100000000E-03 0. -1.
         11   -1    0    0    0    0 -0.00000000000E+00 -0.00000000000E+00 -0.45593999997E+02  0.45594000000E+02  0.51100000000E-03 0.  1.
    9900012    2    1    2    0    0  0.39842101334E+02  0.98338282470E+00 -0.17183226679E+02  0.47787270056E+02  0.19999995496E+02 0.  0.
         12    1    1    2    0    0 -0.39842101334E+02 -0.98338282470E+00  0.17183226679E+02  0.43400729944E+02  0.00000000000E+00 0. -1.
         11    1    3    3    0    0  0.81639287899E+01 -0.32132465386E+01 -0.60291607270E+01  0.10645443435E+02  0.51100000000E-03 0. -1.
        -11    1    3    3    0    0  0.24206178198E+02  0.70661641311E+01 -0.13757227670E+02  0.28725094463E+02  0.51100000000E-03 0.  1.
         12    1    3    3    0    0  0.74719943461E+01 -0.28695347678E+01  0.26031617173E+01  0.84167321579E+01  0.00000000000E+00 0. -1.
</event>
<event>
 7    1  0.2414091E-009  0.4778727E+02  0.7816164E-02  0.1312668E+00
        -11   -1    0    0    0    0  0.00000000000E+00  0.00000000000E+00  0.45593999997E+02  0.45594000000E+02  0.51100000000E-03 0.  1.
         11   -1    0    0    0    0 -0.00000000000E+00 -0.00000000000E+00 -0.45593999997E+02  0.45594000000E+02  0.51100000000E-03 0. -1.
    9900012    2    1    2    0    0  0.43611877694E+01  0.37998536827E+02 -0.20511335658E+02  0.47787266709E+02  0.19999980232E+02 0.  0.
         12    1    1    2    0    0 -0.43611877694E+01 -0.37998536827E+02  0.20511335658E+02  0.43400733291E+02  0.00000000000E+00 0. -1.
         11    1    3    3    0    0 -0.16877834965E+00  0.38320702085E+01 -0.40259191206E+01  0.55606899968E+01  0.51100000000E-03 0.  1.
        -11    1    3    3    0    0  0.98423239708E+01  0.30307331938E+02 -0.11129506013E+02  0.33753097853E+02  0.51100000000E-03 0. -1.
         12    1    3    3    0    0 -0.53123578518E+01  0.38591346808E+01 -0.53559105240E+01  0.84734788588E+01  0.00000000000E+00 0. -1.
</event>
<event>
 7    1  0.2414091E-009  0.4778727E+02  0.7816164E-02  0.1312668E+00
        -11   -1    0    0    0    0  0.00000000000E+00  0.00000000000E+00  0.45593999997E+02  0.45594000000E+02  0.51100000000E-03 0.  1.
         11   -1    0    0    0    0 -0.00000000000E+00 -0.00000000000E+00 -0.45593999997E+02  0.45594000000E+02  0.51100000000E-03 0. -1.
    9900012    2    1    2    0    0 -0.14303057449E+02 -0.15011973043E+02  0.38127240177E+02  0.47787271544E+02  0.20000002277E+02 0.  0.
         12    1    1    2    0    0  0.14303057449E+02  0.15011973043E+02 -0.38127240177E+02  0.43400728456E+02  0.00000000000E+00 0. -1.
         11    1    3    3    0    0  0.32508727353E+01 -0.55798433259E+01  0.45010590001E+01  0.78716172079E+01  0.51100000000E-03 0. -1.
        -11    1    3    3    0    0 -0.15360033523E+01 -0.23773613669E+01  0.12142920028E+01  0.30798796561E+01  0.51100000000E-03 0.  1.
        -12    1    3    3    0    0 -0.16017926832E+02 -0.70547683503E+01  0.32411889174E+02  0.36835774680E+02  0.00000000000E+00 0.  1.
</event>
<event>
 7    1  0.2414091E-009  0.4778727E+02  0.7816164E-02  0.1312668E+00
        -11   -1    0    0    0    0  0.00000000000E+00  0.00000000000E+00  0.45593999997E+02  0.45594000000E+02  0.51100000000E-03 0. -1.
         11   -1    0    0    0    0 -0.00000000000E+00 -0.00000000000E+00 -0.45593999997E+02  0.45594000000E+02  0.51100000000E-03 0.  1.
    9900012    2    1    2    0    0  0.16786784026E+02  0.10961643871E+02 -0.38492461063E+02  0.47787270594E+02  0.19999997948E+02 0.  0.
         12    1    1    2    0    0 -0.16786784026E+02 -0.10961643871E+02  0.38492461063E+02  0.43400729406E+02  0.00000000000E+00 0. -1.
         11    1    3    3    0    0  0.28944103059E+01 -0.15138506242E+01 -0.40577147201E+00  0.32915050478E+01  0.51100000000E-03 0. -1.
        -11    1    3    3    0    0  0.15073535251E+02  0.95441279102E+01 -0.23143164050E+02  0.29221702295E+02  0.51100000000E-03 0.  1.
        -12    1    3    3    0    0 -0.11811615310E+01  0.29313665854E+01 -0.14943525540E+02  0.15274063251E+02  0.00000000000E+00 0.  1.
</event>
<event>
 7    1  0.2414091E-009  0.4778727E+02  0.7816164E-02  0.1312668E+00
        -11   -1    0    0    0    0  0.00000000000E+00  0.00000000000E+00  0.45593999997E+02  0.45594000000E+02  0.51100000000E-03 0.  1.
         11   -1    0    0    0    0 -0.00000000000E+00 -0.00000000000E+00 -0.45593999997E+02  0.45594000000E+02  0.51100000000E-03 0. -1.
    9900012    2    1    2    0    0 -0.17153198666E+02 -0.79271844286E+01  0.39071096596E+02  0.47787273432E+02  0.20000010885E+02 0.  0.
         12    1    1    2    0    0  0.17153198666E+02  0.79271844286E+01 -0.39071096596E+02  0.43400726568E+02  0.00000000000E+00 0. -1.
         11    1    3    3    0    0  0.21597096410E+00  0.34500410281E+01  0.50785105459E+01  0.61433456829E+01  0.51100000000E-03 0. -1.
        -11    1    3    3    0    0 -0.34770641429E+01  0.95736458752E+00  0.93805534041E+00  0.37264554324E+01  0.51100000000E-03 0.  1.
        -12    1    3    3    0    0 -0.13892105487E+02 -0.12334590044E+02  0.33054530710E+02  0.37917472316E+02  0.00000000000E+00 0.  1.
</event>
<event>
 7    1  0.2414091E-009  0.4778726E+02  0.7816164E-02  0.1312668E+00
        -11   -1    0    0    0    0  0.00000000000E+00  0.00000000000E+00  0.45593999997E+02  0.45594000000E+02  0.51100000000E-03 0.  1.
         11   -1    0    0    0    0 -0.00000000000E+00 -0.00000000000E+00 -0.45593999997E+02  0.45594000000E+02  0.51100000000E-03 0. -1.
    9900012    2    1    2    0    0  0.35718149631E+02  0.23506904166E+02  0.74339184744E+01  0.47787263826E+02  0.19999967087E+02 0.  0.
         12    1    1    2    0    0 -0.35718149631E+02 -0.23506904166E+02 -0.74339184744E+01  0.43400736174E+02  0.00000000000E+00 0. -1.
         11    1    3    3    0    0  0.59501054676E+01  0.10040806315E+02 -0.15461887190E+01  0.11773370220E+02  0.51100000000E-03 0. -1.
        -11    1    3    3    0    0  0.72311132263E+01  0.75291131078E+01  0.71155934406E+01  0.12633614406E+02  0.51100000000E-03 0.  1.
        -12    1    3    3    0    0  0.22536930937E+02  0.59369847439E+01  0.18645137528E+01  0.23380279200E+02  0.00000000000E+00 0.  1.
</event>
<event>
 7    1  0.2414091E-009  0.4778727E+02  0.7816164E-02  0.1312668E+00
        -11   -1    0    0    0    0  0.00000000000E+00  0.00000000000E+00  0.45593999997E+02  0.45594000000E+02  0.51100000000E-03 0. -1.
         11   -1    0    0    0    0 -0.00000000000E+00 -0.00000000000E+00 -0.45593999997E+02  0.45594000000E+02  0.51100000000E-03 0.  1.
    9900012    2    1    2    0    0  0.94394989204E+01  0.41487843311E+02  0.85602482935E+01  0.47787272663E+02  0.20000007382E+02 0.  0.
         12    1    1    2    0    0 -0.94394989204E+01 -0.41487843311E+02 -0.85602482935E+01  0.43400727337E+02  0.00000000000E+00 0. -1.
         11    1    3    3    0    0  0.13762519168E+01  0.14051844289E+02  0.95586958947E+01  0.17050427113E+02  0.51100000000E-03 0. -1.
        -11    1    3    3    0    0  0.57782738250E+01  0.36740920058E+01 -0.89200661058E-01  0.68480185078E+01  0.51100000000E-03 0.  1.
        -12    1    3    3    0    0  0.22849731786E+01  0.23761907017E+02 -0.90924694015E+00  0.23888827043E+02  0.00000000000E+00 0.  1.
</event>
<event>
 7    1  0.2414091E-009  0.4778727E+02  0.7816164E-02  0.1312668E+00
        -11   -1    0    0    0    0  0.00000000000E+00  0.00000000000E+00  0.45593999997E+02  0.45594000000E+02  0.51100000000E-03 0.  1.
         11   -1    0    0    0    0 -0.00000000000E+00 -0.00000000000E+00 -0.45593999997E+02  0.45594000000E+02  0.51100000000E-03 0. -1.
    9900012    2    1    2    0    0  0.31325559040E+02  0.16192569499E+02 -0.25300855965E+02  0.47787271104E+02  0.20000000274E+02 0.  0.
         12    1    1    2    0    0 -0.31325559040E+02 -0.16192569499E+02  0.25300855965E+02  0.43400728896E+02  0.00000000000E+00 0. -1.
         11    1    3    3    0    0  0.94643495184E+00  0.28524281046E+01  0.53591334633E+00  0.30527509865E+01  0.51100000000E-03 0. -1.
        -11    1    3    3    0    0  0.20509341744E+02  0.14053160571E+02 -0.24217291818E+02  0.34707371610E+02  0.51100000000E-03 0.  1.
        -12    1    3    3    0    0  0.98697823437E+01 -0.71301917616E+00 -0.16194774932E+01  0.10027148508E+02  0.00000000000E+00 0.  1.
</event>
<event>
 7    1  0.2414091E-009  0.4778727E+02  0.7816164E-02  0.1312668E+00
        -11   -1    0    0    0    0  0.00000000000E+00  0.00000000000E+00  0.45593999997E+02  0.45594000000E+02  0.51100000000E-03 0. -1.
         11   -1    0    0    0    0 -0.00000000000E+00 -0.00000000000E+00 -0.45593999997E+02  0.45594000000E+02  0.51100000000E-03 0.  1.
    9900012    2    1    2    0    0  0.34344471664E+02 -0.25116937563E+02 -0.85568706029E+01  0.47787270502E+02  0.19999997527E+02 0.  0.
         12    1    1    2    0    0 -0.34344471664E+02  0.25116937563E+02  0.85568706029E+01  0.43400729498E+02  0.00000000000E+00 0. -1.
         11    1    3    3    0    0  0.30405993750E+00 -0.22655947782E+00 -0.24696168181E+01  0.24985574101E+01  0.51100000000E-03 0. -1.
        -11    1    3    3    0    0  0.12543000982E+02 -0.10099305782E+02  0.51079823377E+01  0.16894210095E+02  0.51100000000E-03 0.  1.
        -12    1    3    3    0    0  0.21497410745E+02 -0.14791072304E+02 -0.11195236123E+02  0.28394502997E+02  0.00000000000E+00 0.  1.
</event>
<event>
 7    1  0.2414091E-009  0.4778727E+02  0.7816164E-02  0.1312668E+00
        -11   -1    0    0    0    0  0.00000000000E+00  0.00000000000E+00  0.45593999997E+02  0.45594000000E+02  0.51100000000E-03 0. -1.
         11   -1    0    0    0    0 -0.00000000000E+00 -0.00000000000E+00 -0.45593999997E+02  0.45594000000E+02  0.51100000000E-03 0.  1.
    9900012    2    1    2    0    0  0.72953077825E+01  0.35622724234E+02 -0.23694377600E+02  0.47787268124E+02  0.19999986686E+02 0.  0.
         12    1    1    2    0    0 -0.72953077825E+01 -0.35622724234E+02  0.23694377600E+02  0.43400731876E+02  0.00000000000E+00 0. -1.
         11    1    3    3    0    0  0.27977056441E+01  0.10083811342E+02 -0.64803356610E+01  0.12308743177E+02  0.51100000000E-03 0. -1.
        -11    1    3    3    0    0 -0.12050887100E+01  0.21611438009E+02 -0.18454208756E+02  0.28444055841E+02  0.51100000000E-03 0.  1.
         12    1    3    3    0    0  0.57026908484E+01  0.39274748826E+01  0.12401668174E+01  0.70344691058E+01  0.00000000000E+00 0. -1.
</event>
<event>
 7    1  0.2414091E-009  0.4778727E+02  0.7816164E-02  0.1312668E+00
        -11   -1    0    0    0    0  0.00000000000E+00  0.00000000000E+00  0.45593999997E+02  0.45594000000E+02  0.51100000000E-03 0.  1.
         11   -1    0    0    0    0 -0.00000000000E+00 -0.00000000000E+00 -0.45593999997E+02  0.45594000000E+02  0.51100000000E-03 0. -1.
    9900012    2    1    2    0    0  0.17507402567E+02 -0.38261682168E+02  0.10637558033E+02  0.47787272957E+02  0.20000008719E+02 0.  0.
         12    1    1    2    0    0 -0.17507402567E+02  0.38261682168E+02 -0.10637558033E+02  0.43400727043E+02  0.00000000000E+00 0. -1.
         11    1    3    3    0    0  0.24503102705E+01  0.26415902464E+00  0.16834374144E+01  0.29845874424E+01  0.51100000000E-03 0. -1.
        -11    1    3    3    0    0 -0.25209358894E+01 -0.80867275118E+01 -0.22616961343E+00  0.84735725974E+01  0.51100000000E-03 0.  1.
        -12    1    3    3    0    0  0.17578028185E+02 -0.30439113681E+02  0.91802902319E+01  0.36329112917E+02  0.00000000000E+00 0.  1.
</event>
<event>
 7    1  0.2414091E-009  0.4778727E+02  0.7816164E-02  0.1312668E+00
        -11   -1    0    0    0    0  0.00000000000E+00  0.00000000000E+00  0.45593999997E+02  0.45594000000E+02  0.51100000000E-03 0.  1.
         11   -1    0    0    0    0 -0.00000000000E+00 -0.00000000000E+00 -0.45593999997E+02  0.45594000000E+02  0.51100000000E-03 0. -1.
    9900012    2    1    2    0    0 -0.34172759293E+02 -0.21397357480E+02  0.16062342203E+02  0.47787271644E+02  0.20000002734E+02 0.  0.
         12    1    1    2    0    0  0.34172759293E+02  0.21397357480E+02 -0.16062342203E+02  0.43400728356E+02  0.00000000000E+00 0. -1.
         11    1    3    3    0    0 -0.99730650922E+01 -0.80193910673E+01 -0.47226140529E+00  0.12806080256E+02  0.51100000000E-03 0. -1.
        -11    1    3    3    0    0 -0.16373521424E+02 -0.43481939985E+01  0.35010692341E+01  0.17299031213E+02  0.51100000000E-03 0.  1.
        -12    1    3    3    0    0 -0.78261727763E+01 -0.90297724137E+01  0.13033534374E+02  0.17682160175E+02  0.00000000000E+00 0.  1.
</event>
<event>
 7    1  0.2414091E-009  0.4778727E+02  0.7816164E-02  0.1312668E+00
        -11   -1    0    0    0    0  0.00000000000E+00  0.00000000000E+00  0.45593999997E+02  0.45594000000E+02  0.51100000000E-03 0.  1.
         11   -1    0    0    0    0 -0.00000000000E+00 -0.00000000000E+00 -0.45593999997E+02  0.45594000000E+02  0.51100000000E-03 0. -1.
    9900012    2    1    2    0    0  0.14848718880E+01  0.53101212070E+01  0.43049056193E+02  0.47787268775E+02  0.19999989654E+02 0.  0.
         12    1    1    2    0    0 -0.14848718880E+01 -0.53101212070E+01 -0.43049056193E+02  0.43400731225E+02  0.00000000000E+00 0. -1.
         11    1    3    3    0    0  0.65495226159E+00 -0.39350480957E+01  0.48660054485E+01  0.62921836644E+01  0.51100000000E-03 0.  1.
        -11    1    3    3    0    0  0.94450193356E-01  0.37283791039E+01  0.95041347225E+00  0.38487683239E+01  0.51100000000E-03 0. -1.
        -12    1    3    3    0    0  0.73546943306E+00  0.55167901988E+01  0.37232637272E+02  0.37646316787E+02  0.00000000000E+00 0.  1.
</event>
<event>
 7    1  0.2414091E-009  0.4778727E+02  0.7816164E-02  0.1312668E+00
        -11   -1    0    0    0    0  0.00000000000E+00  0.00000000000E+00  0.45593999997E+02  0.45594000000E+02  0.51100000000E-03 0. -1.
         11   -1    0    0    0    0 -0.00000000000E+00 -0.00000000000E+00 -0.45593999997E+02  0.45594000000E+02  0.51100000000E-03 0.  1.
    9900012    2    1    2    0    0  0.39747409443E+02  0.16657876357E+02 -0.51265636309E+01  0.47787273546E+02  0.20000011404E+02 0.  0.
         12    1    1    2    0    0 -0.39747409443E+02 -0.16657876357E+02  0.51265636309E+01  0.43400726454E+02  0.00000000000E+00 0. -1.
         11    1    3    3    0    0  0.15967579593E+02  0.89065929860E+01  0.70828353928E+01  0.19607589198E+02  0.51100000000E-03 0. -1.
        -11    1    3    3    0    0  0.66033272262E+01  0.46837488708E+00 -0.44334179172E+01  0.79673395924E+01  0.51100000000E-03 0.  1.
        -12    1    3    3    0    0  0.17176502623E+02  0.72829084836E+01 -0.77759811066E+01  0.20212344756E+02  0.00000000000E+00 0.  1.
</event>
<event>
 7    1  0.2414091E-009  0.4778727E+02  0.7816164E-02  0.1312668E+00
        -11   -1    0    0    0    0  0.00000000000E+00  0.00000000000E+00  0.45593999997E+02  0.45594000000E+02  0.51100000000E-03 0. -1.
         11   -1    0    0    0    0 -0.00000000000E+00 -0.00000000000E+00 -0.45593999997E+02  0.45594000000E+02  0.51100000000E-03 0.  1.
    9900012    2    1    2    0    0 -0.40059255560E+02 -0.57829538824E+01 -0.15666416710E+02  0.47787272770E+02  0.20000007866E+02 0.  0.
         12    1    1    2    0    0  0.40059255560E+02  0.57829538824E+01  0.15666416710E+02  0.43400727230E+02  0.00000000000E+00 0. -1.
         11    1    3    3    0    0 -0.63323945881E+01  0.39941868755E+00 -0.45371942801E+00  0.63611805577E+01  0.51100000000E-03 0. -1.
        -11    1    3    3    0    0 -0.30074032428E+02 -0.10676515383E+02 -0.95135979227E+01  0.33300810094E+02  0.51100000000E-03 0.  1.
        -12    1    3    3    0    0 -0.36528285434E+01  0.44941428130E+01 -0.56990993591E+01  0.81252821179E+01  0.00000000000E+00 0.  1.
</event>
<event>
 7    1  0.2414091E-009  0.4778727E+02  0.7816164E-02  0.1312668E+00
        -11   -1    0    0    0    0  0.00000000000E+00  0.00000000000E+00  0.45593999997E+02  0.45594000000E+02  0.51100000000E-03 0. -1.
         11   -1    0    0    0    0 -0.00000000000E+00 -0.00000000000E+00 -0.45593999997E+02  0.45594000000E+02  0.51100000000E-03 0.  1.
    9900012    2    1    2    0    0  0.90721599418E+01  0.36633383741E+02 -0.21431623074E+02  0.47787270076E+02  0.19999995586E+02 0.  0.
         12    1    1    2    0    0 -0.90721599418E+01 -0.36633383741E+02  0.21431623074E+02  0.43400729924E+02  0.00000000000E+00 0. -1.
         11    1    3    3    0    0  0.18938963380E+01  0.62910750994E+01 -0.62345921748E+01  0.90572959040E+01  0.51100000000E-03 0.  1.
        -11    1    3    3    0    0  0.74255081575E+01  0.45406316917E+01  0.15556358124E+00  0.87051540966E+01  0.51100000000E-03 0. -1.
        -12    1    3    3    0    0 -0.24724455371E+00  0.25801676950E+02 -0.15352594480E+02  0.30024820076E+02  0.00000000000E+00 0.  1.
</event>
<event>
 7    1  0.2414091E-009  0.4778721E+02  0.7816164E-02  0.1312668E+00
        -11   -1    0    0    0    0  0.00000000000E+00  0.00000000000E+00  0.45593999997E+02  0.45594000000E+02  0.51100000000E-03 0.  1.
         11   -1    0    0    0    0 -0.00000000000E+00 -0.00000000000E+00 -0.45593999997E+02  0.45594000000E+02  0.51100000000E-03 0. -1.
    9900012    2    1    2    0    0 -0.25414288042E+02 -0.91341257451E+00  0.35169707911E+02  0.47787208374E+02  0.19999714259E+02 0.  0.
         12    1    1    2    0    0  0.25414288042E+02  0.91341257451E+00 -0.35169707911E+02  0.43400791626E+02  0.00000000000E+00 0. -1.
         11    1    3    3    0    0 -0.13762941148E+01 -0.29297868409E+01  0.69768748387E+01  0.76912040150E+01  0.51100000000E-03 0. -1.
        -11    1    3    3    0    0 -0.15857051209E+02  0.20633621104E+01  0.27594664797E+02  0.31893087994E+02  0.51100000000E-03 0.  1.
         12    1    3    3    0    0 -0.81809427180E+01 -0.46987844070E-01  0.59816827513E+00  0.82029163654E+01  0.00000000000E+00 0. -1.
</event>
<event>
 7    1  0.2414091E-009  0.4778726E+02  0.7816164E-02  0.1312668E+00
        -11   -1    0    0    0    0  0.00000000000E+00  0.00000000000E+00  0.45593999997E+02  0.45594000000E+02  0.51100000000E-03 0. -1.
         11   -1    0    0    0    0 -0.00000000000E+00 -0.00000000000E+00 -0.45593999997E+02  0.45594000000E+02  0.51100000000E-03 0.  1.
    9900012    2    1    2    0    0  0.27199003114E+02 -0.16147863945E+02 -0.29716739137E+02  0.47787264230E+02  0.19999968932E+02 0.  0.
         12    1    1    2    0    0 -0.27199003114E+02  0.16147863945E+02  0.29716739137E+02  0.43400735770E+02  0.00000000000E+00 0. -1.
         11    1    3    3    0    0  0.37337409578E+01 -0.28846178240E-01  0.11888137016E+01  0.39185369617E+01  0.51100000000E-03 0. -1.
        -11    1    3    3    0    0  0.13093114250E+00 -0.51151899980E+01 -0.71971180863E+01  0.88306749849E+01  0.51100000000E-03 0.  1.
        -12    1    3    3    0    0  0.23334331014E+02 -0.11003827769E+02 -0.23708434752E+02  0.35038052284E+02  0.00000000000E+00 0.  1.
</event>
<event>
 7    1  0.2414091E-009  0.4778726E+02  0.7816164E-02  0.1312668E+00
        -11   -1    0    0    0    0  0.00000000000E+00  0.00000000000E+00  0.45593999997E+02  0.45594000000E+02  0.51100000000E-03 0. -1.
         11   -1    0    0    0    0 -0.00000000000E+00 -0.00000000000E+00 -0.45593999997E+02  0.45594000000E+02  0.51100000000E-03 0.  1.
    9900012    2    1    2    0    0  0.80640097283E+01  0.31449167734E+02 -0.28801835691E+02  0.47787261029E+02  0.19999954336E+02 0.  0.
         12    1    1    2    0    0 -0.80640097283E+01 -0.31449167734E+02  0.28801835691E+02  0.43400738971E+02  0.00000000000E+00 0. -1.
         11    1    3    3    0    0 -0.38251106077E+01  0.24314699661E+01 -0.64436993821E+00  0.45780705801E+01  0.51100000000E-03 0. -1.
        -11    1    3    3    0    0  0.54227997923E+01  0.45108243991E+01 -0.90174154548E+01  0.11448496674E+02  0.51100000000E-03 0.  1.
         12    1    3    3    0    0  0.64663205437E+01  0.24506873368E+02 -0.19140050298E+02  0.31760693775E+02  0.00000000000E+00 0. -1.
</event>
<event>
 7    1  0.2414091E-009  0.4778724E+02  0.7816164E-02  0.1312668E+00
        -11   -1    0    0    0    0  0.00000000000E+00  0.00000000000E+00  0.45593999997E+02  0.45594000000E+02  0.51100000000E-03 0.  1.
         11   -1    0    0    0    0 -0.00000000000E+00 -0.00000000000E+00 -0.45593999997E+02  0.45594000000E+02  0.51100000000E-03 0. -1.
    9900012    2    1    2    0    0 -0.42088495995E+02 -0.13990839757E+01 -0.10498901310E+02  0.47787241253E+02  0.19999864168E+02 0.  0.
         12    1    1    2    0    0  0.42088495995E+02  0.13990839757E+01  0.10498901310E+02  0.43400758747E+02  0.00000000000E+00 0. -1.
         11    1    3    3    0    0 -0.38289804266E+01 -0.14955782166E+01  0.83796289073E+00  0.41952386555E+01  0.51100000000E-03 0.  1.
        -11    1    3    3    0    0 -0.32028792746E+01 -0.45553519804E+01  0.18221383080E+01  0.58591685065E+01  0.51100000000E-03 0. -1.
         12    1    3    3    0    0 -0.35056636294E+02  0.46518462213E+01 -0.13159002509E+02  0.37732834091E+02  0.00000000000E+00 0. -1.
</event>
<event>
 7    1  0.2414091E-009  0.4778727E+02  0.7816164E-02  0.1312668E+00
        -11   -1    0    0    0    0  0.00000000000E+00  0.00000000000E+00  0.45593999997E+02  0.45594000000E+02  0.51100000000E-03 0. -1.
         11   -1    0    0    0    0 -0.00000000000E+00 -0.00000000000E+00 -0.45593999997E+02  0.45594000000E+02  0.51100000000E-03 0.  1.
    9900012    2    1    2    0    0 -0.37667137907E+02  0.18720501535E+02  0.10693583940E+02  0.47787271973E+02  0.20000004233E+02 0.  0.
         12    1    1    2    0    0  0.37667137907E+02 -0.18720501535E+02 -0.10693583940E+02  0.43400728027E+02  0.00000000000E+00 0. -1.
         11    1    3    3    0    0 -0.13415521137E+02  0.80922864096E+01 -0.43951102599E+00  0.15673368397E+02  0.51100000000E-03 0. -1.
        -11    1    3    3    0    0 -0.13652570068E+02  0.12887264959E+02  0.41675898341E+01  0.19231304502E+02  0.51100000000E-03 0.  1.
         12    1    3    3    0    0 -0.10599046702E+02 -0.22590498332E+01  0.69655051319E+01  0.12882599074E+02  0.00000000000E+00 0. -1.
</event>
<event>
 7    1  0.2414091E-009  0.4778727E+02  0.7816164E-02  0.1312668E+00
        -11   -1    0    0    0    0  0.00000000000E+00  0.00000000000E+00  0.45593999997E+02  0.45594000000E+02  0.51100000000E-03 0.  1.
         11   -1    0    0    0    0 -0.00000000000E+00 -0.00000000000E+00 -0.45593999997E+02  0.45594000000E+02  0.51100000000E-03 0. -1.
    9900012    2    1    2    0    0 -0.29366142770E+02  0.20846796490E+02  0.24221141801E+02  0.47787274485E+02  0.20000015686E+02 0.  0.
         12    1    1    2    0    0  0.29366142770E+02 -0.20846796490E+02 -0.24221141801E+02  0.43400725515E+02  0.00000000000E+00 0. -1.
         11    1    3    3    0    0 -0.19396645391E+02  0.37495873376E+01  0.85279886438E+01  0.21517803052E+02  0.51100000000E-03 0. -1.
        -11    1    3    3    0    0 -0.26503733941E+01  0.51928214122E+01  0.91250188036E+01  0.10828473659E+02  0.51100000000E-03 0.  1.
        -12    1    3    3    0    0 -0.73191239850E+01  0.11904387740E+02  0.65681343541E+01  0.15440997774E+02  0.00000000000E+00 0.  1.
</event>
<event>
 7    1  0.2414091E-009  0.4778727E+02  0.7816164E-02  0.1312668E+00
        -11   -1    0    0    0    0  0.00000000000E+00  0.00000000000E+00  0.45593999997E+02  0.45594000000E+02  0.51100000000E-03 0. -1.
         11   -1    0    0    0    0 -0.00000000000E+00 -0.00000000000E+00 -0.45593999997E+02  0.45594000000E+02  0.51100000000E-03 0.  1.
    9900012    2    1    2    0    0 -0.62378876817E+01  0.24565238868E+02 -0.35231533698E+02  0.47787272240E+02  0.20000005452E+02 0.  0.
         12    1    1    2    0    0  0.62378876817E+01 -0.24565238868E+02  0.35231533698E+02  0.43400727760E+02  0.00000000000E+00 0. -1.
         11    1    3    3    0    0  0.35951760344E+01  0.46224268746E+01 -0.13534557929E+02  0.14747080373E+02  0.51100000000E-03 0.  1.
        -11    1    3    3    0    0 -0.33809860923E+01  0.10046048438E+01 -0.81434176948E+01  0.88744323684E+01  0.51100000000E-03 0. -1.
        -12    1    3    3    0    0 -0.64520776238E+01  0.18938207150E+02 -0.13553558074E+02  0.24165759499E+02  0.00000000000E+00 0.  1.
</event>
<event>
 7    1  0.2414091E-009  0.4778727E+02  0.7816164E-02  0.1312668E+00
        -11   -1    0    0    0    0  0.00000000000E+00  0.00000000000E+00  0.45593999997E+02  0.45594000000E+02  0.51100000000E-03 0.  1.
         11   -1    0    0    0    0 -0.00000000000E+00 -0.00000000000E+00 -0.45593999997E+02  0.45594000000E+02  0.51100000000E-03 0. -1.
    9900012    2    1    2    0    0 -0.27189831320E+02  0.33597899508E+02 -0.39392757343E+01  0.47787266459E+02  0.19999979093E+02 0.  0.
         12    1    1    2    0    0  0.27189831320E+02 -0.33597899508E+02  0.39392757343E+01  0.43400733541E+02  0.00000000000E+00 0. -1.
         11    1    3    3    0    0 -0.14232383082E+00 -0.71833270077E+00  0.13650835065E+01  0.15491001203E+01  0.51100000000E-03 0. -1.
        -11    1    3    3    0    0 -0.92033478652E+01  0.15782521460E+02  0.43123403851E+01  0.18771943837E+02  0.51100000000E-03 0.  1.
         12    1    3    3    0    0 -0.17844159624E+02  0.18533710749E+02 -0.96166996259E+01  0.27466222502E+02  0.00000000000E+00 0. -1.
</event>
<event>
 7    1  0.2414091E-009  0.4778725E+02  0.7816164E-02  0.1312668E+00
        -11   -1    0    0    0    0  0.00000000000E+00  0.00000000000E+00  0.45593999997E+02  0.45594000000E+02  0.51100000000E-03 0. -1.
         11   -1    0    0    0    0 -0.00000000000E+00 -0.00000000000E+00 -0.45593999997E+02  0.45594000000E+02  0.51100000000E-03 0.  1.
    9900012    2    1    2    0    0  0.11992996002E+02  0.13753153902E+02 -0.39378214839E+02  0.47787251167E+02  0.19999909370E+02 0.  0.
         12    1    1    2    0    0 -0.11992996002E+02 -0.13753153902E+02  0.39378214839E+02  0.43400748833E+02  0.00000000000E+00 0. -1.
         11    1    3    3    0    0  0.13832630363E+01 -0.21508727900E+01  0.78276602336E-01  0.25584756934E+01  0.51100000000E-03 0. -1.
        -11    1    3    3    0    0 -0.19248363381E+01  0.38805873766E+01 -0.11806332430E+02  0.12575907086E+02  0.51100000000E-03 0.  1.
        -12    1    3    3    0    0  0.12534569304E+02  0.12023439315E+02 -0.27650159011E+02  0.32652868388E+02  0.00000000000E+00 0.  1.
</event>
<event>
 7    1  0.2414091E-009  0.4778727E+02  0.7816164E-02  0.1312668E+00
        -11   -1    0    0    0    0  0.00000000000E+00  0.00000000000E+00  0.45593999997E+02  0.45594000000E+02  0.51100000000E-03 0.  1.
         11   -1    0    0    0    0 -0.00000000000E+00 -0.00000000000E+00 -0.45593999997E+02  0.45594000000E+02  0.51100000000E-03 0. -1.
    9900012    2    1    2    0    0 -0.45057173347E+01 -0.42281194843E+02  0.86961161186E+01  0.47787270034E+02  0.19999995394E+02 0.  0.
         12    1    1    2    0    0  0.45057173347E+01  0.42281194843E+02 -0.86961161186E+01  0.43400729966E+02  0.00000000000E+00 0. -1.
         11    1    3    3    0    0 -0.21515444824E+01 -0.42548294796E+01 -0.20207498563E+01  0.51784310175E+01  0.51100000000E-03 0. -1.
        -11    1    3    3    0    0 -0.69198785772E+01 -0.14372570140E+02 -0.66388168797E+00  0.15965469962E+02  0.51100000000E-03 0.  1.
         12    1    3    3    0    0  0.45657057248E+01 -0.23653795223E+02  0.11380747663E+02  0.26643369055E+02  0.00000000000E+00 0. -1.
</event>
<event>
 7    1  0.2414091E-009  0.4778727E+02  0.7816164E-02  0.1312668E+00
        -11   -1    0    0    0    0  0.00000000000E+00  0.00000000000E+00  0.45593999997E+02  0.45594000000E+02  0.51100000000E-03 0. -1.
         11   -1    0    0    0    0 -0.00000000000E+00 -0.00000000000E+00 -0.45593999997E+02  0.45594000000E+02  0.51100000000E-03 0.  1.
    9900012    2    1    2    0    0 -0.30078768861E+02  0.11268157647E+02 -0.29187658433E+02  0.47787272843E+02  0.20000008201E+02 0.  0.
         12    1    1    2    0    0  0.30078768861E+02 -0.11268157647E+02  0.29187658433E+02  0.43400727157E+02  0.00000000000E+00 0. -1.
         11    1    3    3    0    0 -0.18174549743E+02  0.88005886893E+01 -0.14451206348E+02  0.24831471661E+02  0.51100000000E-03 0. -1.
        -11    1    3    3    0    0 -0.14087346640E+02  0.39579954621E+01 -0.13902193704E+02  0.20183905803E+02  0.51100000000E-03 0.  1.
         12    1    3    3    0    0  0.21831275231E+01 -0.14904265041E+01 -0.83425838138E+00  0.27718953792E+01  0.00000000000E+00 0. -1.
</event>
<event>
 7    1  0.2414091E-009  0.4778727E+02  0.7816164E-02  0.1312668E+00
        -11   -1    0    0    0    0  0.00000000000E+00  0.00000000000E+00  0.45593999997E+02  0.45594000000E+02  0.51100000000E-03 0. -1.
         11   -1    0    0    0    0 -0.00000000000E+00 -0.00000000000E+00 -0.45593999997E+02  0.45594000000E+02  0.51100000000E-03 0.  1.
    9900012    2    1    2    0    0  0.39571856411E+02  0.11926920774E+01 -0.17783959812E+02  0.47787267739E+02  0.19999984929E+02 0.  0.
         12    1    1    2    0    0 -0.39571856411E+02 -0.11926920774E+01  0.17783959812E+02  0.43400732261E+02  0.00000000000E+00 0. -1.
         11    1    3    3    0    0  0.24728579099E+01 -0.13034929724E+01 -0.40867319488E+01  0.49513128011E+01  0.51100000000E-03 0. -1.
        -11    1    3    3    0    0  0.32384629480E+02  0.14430057063E+01 -0.17361167176E+02  0.36773042001E+02  0.51100000000E-03 0.  1.
         12    1    3    3    0    0  0.47143690211E+01  0.10531793434E+01  0.36639393126E+01  0.60629129371E+01  0.00000000000E+00 0. -1.
</event>
<event>
 7    1  0.2414091E-009  0.4778727E+02  0.7816164E-02  0.1312668E+00
        -11   -1    0    0    0    0  0.00000000000E+00  0.00000000000E+00  0.45593999997E+02  0.45594000000E+02  0.51100000000E-03 0.  1.
         11   -1    0    0    0    0 -0.00000000000E+00 -0.00000000000E+00 -0.45593999997E+02  0.45594000000E+02  0.51100000000E-03 0. -1.
    9900012    2    1    2    0    0 -0.76627584068E+01  0.42544153896E+02 -0.38600992503E+01  0.47787271166E+02  0.20000000552E+02 0.  0.
         12    1    1    2    0    0  0.76627584068E+01 -0.42544153896E+02  0.38600992503E+01  0.43400728834E+02  0.00000000000E+00 0. -1.
         11    1    3    3    0    0 -0.46689095038E+01  0.15347768482E+02 -0.14123751365E+01  0.16104270151E+02  0.51100000000E-03 0. -1.
        -11    1    3    3    0    0 -0.64494190167E+01  0.23877273229E+02 -0.63140840709E+01  0.25526199099E+02  0.51100000000E-03 0.  1.
         12    1    3    3    0    0  0.34555701137E+01  0.33191121854E+01  0.38663599571E+01  0.61568019156E+01  0.00000000000E+00 0. -1.
</event>
<event>
 7    1  0.2414091E-009  0.4778727E+02  0.7816164E-02  0.1312668E+00
        -11   -1    0    0    0    0  0.00000000000E+00  0.00000000000E+00  0.45593999997E+02  0.45594000000E+02  0.51100000000E-03 0. -1.
         11   -1    0    0    0    0 -0.00000000000E+00 -0.00000000000E+00 -0.45593999997E+02  0.45594000000E+02  0.51100000000E-03 0.  1.
    9900012    2    1    2    0    0 -0.16193785908E+02 -0.34246560666E+02  0.21179178098E+02  0.47787271845E+02  0.20000003650E+02 0.  0.
         12    1    1    2    0    0  0.16193785908E+02  0.34246560666E+02 -0.21179178098E+02  0.43400728155E+02  0.00000000000E+00 0. -1.
         11    1    3    3    0    0 -0.18069340043E+01 -0.33717283264E+01  0.51913689506E+01  0.64485559814E+01  0.51100000000E-03 0. -1.
        -11    1    3    3    0    0 -0.10814913480E+02 -0.19858429494E+02  0.18816389553E+02  0.29417275394E+02  0.51100000000E-03 0.  1.
         12    1    3    3    0    0 -0.35719384236E+01 -0.11016402846E+02 -0.28285804055E+01  0.11921440470E+02  0.00000000000E+00 0. -1.
</event>
<event>
 7    1  0.2414091E-009  0.4778727E+02  0.7816164E-02  0.1312668E+00
        -11   -1    0    0    0    0  0.00000000000E+00  0.00000000000E+00  0.45593999997E+02  0.45594000000E+02  0.51100000000E-03 0.  1.
         11   -1    0    0    0    0 -0.00000000000E+00 -0.00000000000E+00 -0.45593999997E+02  0.45594000000E+02  0.51100000000E-03 0. -1.
    9900012    2    1    2    0    0 -0.27276293262E+02  0.58156985091E+01  0.33253638992E+02  0.47787273860E+02  0.20000012838E+02 0.  0.
         12    1    1    2    0    0  0.27276293262E+02 -0.58156985091E+01 -0.33253638992E+02  0.43400726140E+02  0.00000000000E+00 0. -1.
         11    1    3    3    0    0 -0.11729316018E+02  0.38800127399E+01  0.12019910920E+02  0.17236867810E+02  0.51100000000E-03 0.  1.
        -11    1    3    3    0    0 -0.12493956234E+02 -0.33764484158E+01  0.20683341254E+02  0.24398769477E+02  0.51100000000E-03 0. -1.
         12    1    3    3    0    0 -0.30530210095E+01  0.53121341850E+01  0.55038681822E+00  0.61516365736E+01  0.00000000000E+00 0. -1.
</event>
<event>
 7    1  0.2414091E-009  0.4778727E+02  0.7816164E-02  0.1312668E+00
        -11   -1    0    0    0    0  0.00000000000E+00  0.00000000000E+00  0.45593999997E+02  0.45594000000E+02  0.51100000000E-03 0.  1.
         11   -1    0    0    0    0 -0.00000000000E+00 -0.00000000000E+00 -0.45593999997E+02  0.45594000000E+02  0.51100000000E-03 0. -1.
    9900012    2    1    2    0    0 -0.10656183154E+02  0.10205385437E+02  0.40815672950E+02  0.47787270862E+02  0.19999999169E+02 0.  0.
         12    1    1    2    0    0  0.10656183154E+02 -0.10205385437E+02 -0.40815672950E+02  0.43400729138E+02  0.00000000000E+00 0. -1.
         11    1    3    3    0    0  0.76536032763E+00  0.93674452256E+01  0.26783404126E+02  0.28384600460E+02  0.51100000000E-03 0. -1.
        -11    1    3    3    0    0 -0.40565084938E+01  0.36156299801E+01  0.46175538300E+01  0.71309077225E+01  0.51100000000E-03 0.  1.
        -12    1    3    3    0    0 -0.73650349879E+01 -0.27776897691E+01  0.94147149945E+01  0.12271762679E+02  0.00000000000E+00 0.  1.
</event>
<event>
 7    1  0.2414091E-009  0.4778727E+02  0.7816164E-02  0.1312668E+00
        -11   -1    0    0    0    0  0.00000000000E+00  0.00000000000E+00  0.45593999997E+02  0.45594000000E+02  0.51100000000E-03 0. -1.
         11   -1    0    0    0    0 -0.00000000000E+00 -0.00000000000E+00 -0.45593999997E+02  0.45594000000E+02  0.51100000000E-03 0.  1.
    9900012    2    1    2    0    0 -0.34048715282E+02  0.19123489495E+02 -0.18936744617E+02  0.47787272362E+02  0.20000006008E+02 0.  0.
         12    1    1    2    0    0  0.34048715282E+02 -0.19123489495E+02  0.18936744617E+02  0.43400727638E+02  0.00000000000E+00 0. -1.
         11    1    3    3    0    0 -0.71474550333E+01  0.10036355023E+02 -0.57097176915E+01  0.13579963622E+02  0.51100000000E-03 0. -1.
        -11    1    3    3    0    0 -0.25315876213E+01  0.45633096007E+01 -0.68550419819E+01  0.86153543880E+01  0.51100000000E-03 0.  1.
        -12    1    3    3    0    0 -0.24369672627E+02  0.45238248711E+01 -0.63719849432E+01  0.25591954352E+02  0.00000000000E+00 0.  1.
</event>
<event>
 7    1  0.2414091E-009  0.4778727E+02  0.7816164E-02  0.1312668E+00
        -11   -1    0    0    0    0  0.00000000000E+00  0.00000000000E+00  0.45593999997E+02  0.45594000000E+02  0.51100000000E-03 0. -1.
         11   -1    0    0    0    0 -0.00000000000E+00 -0.00000000000E+00 -0.45593999997E+02  0.45594000000E+02  0.51100000000E-03 0.  1.
    9900012    2    1    2    0    0  0.10519823748E+02  0.17321344593E+02 -0.38378737226E+02  0.47787272572E+02  0.20000006963E+02 0.  0.
         12    1    1    2    0    0 -0.10519823748E+02 -0.17321344593E+02  0.38378737226E+02  0.43400727428E+02  0.00000000000E+00 0. -1.
         11    1    3    3    0    0  0.16348444450E+01  0.12078031516E+00 -0.31174419910E+01  0.35221795912E+01  0.51100000000E-03 0. -1.
        -11    1    3    3    0    0 -0.17205108547E+01 -0.10777617867E+01  0.10246328205E+01  0.22741153770E+01  0.51100000000E-03 0.  1.
        -12    1    3    3    0    0  0.10605490158E+02  0.18278326065E+02 -0.36285928056E+02  0.41990977604E+02  0.00000000000E+00 0.  1.
</event>
<event>
 7    1  0.2414091E-009  0.4778727E+02  0.7816164E-02  0.1312668E+00
        -11   -1    0    0    0    0  0.00000000000E+00  0.00000000000E+00  0.45593999997E+02  0.45594000000E+02  0.51100000000E-03 0.  1.
         11   -1    0    0    0    0 -0.00000000000E+00 -0.00000000000E+00 -0.45593999997E+02  0.45594000000E+02  0.51100000000E-03 0. -1.
    9900012    2    1    2    0    0 -0.27549885334E+01  0.41238829097E+02 -0.13243566674E+02  0.47787273677E+02  0.20000012004E+02 0.  0.
         12    1    1    2    0    0  0.27549885334E+01 -0.41238829097E+02  0.13243566674E+02  0.43400726323E+02  0.00000000000E+00 0. -1.
         11    1    3    3    0    0 -0.99510693954E+00  0.20001015599E+02 -0.10430282288E+02  0.22579230538E+02  0.51100000000E-03 0. -1.
        -11    1    3    3    0    0 -0.44007351816E+01  0.16150748494E+02 -0.69649191884E+01  0.18130726588E+02  0.51100000000E-03 0.  1.
        -12    1    3    3    0    0  0.26408535877E+01  0.50870650040E+01  0.41516348029E+01  0.70773165510E+01  0.00000000000E+00 0.  1.
</event>
<event>
 7    1  0.2414091E-009  0.4778727E+02  0.7816164E-02  0.1312668E+00
        -11   -1    0    0    0    0  0.00000000000E+00  0.00000000000E+00  0.45593999997E+02  0.45594000000E+02  0.51100000000E-03 0. -1.
         11   -1    0    0    0    0 -0.00000000000E+00 -0.00000000000E+00 -0.45593999997E+02  0.45594000000E+02  0.51100000000E-03 0.  1.
    9900012    2    1    2    0    0  0.42257294710E+02 -0.98208333143E+01 -0.12229784458E+01  0.47787269598E+02  0.19999993404E+02 0.  0.
         12    1    1    2    0    0 -0.42257294710E+02  0.98208333143E+01  0.12229784458E+01  0.43400730402E+02  0.00000000000E+00 0. -1.
         11    1    3    3    0    0  0.28047989481E+01  0.46650348151E+01  0.75581358917E+00  0.54955164823E+01  0.51100000000E-03 0. -1.
        -11    1    3    3    0    0  0.61838892017E+01 -0.38482744725E+01 -0.98393346554E+00  0.73496821292E+01  0.51100000000E-03 0.  1.
         12    1    3    3    0    0  0.33268606560E+02 -0.10637593657E+02 -0.99485856942E+00  0.34942070986E+02  0.00000000000E+00 0. -1.
</event>
<event>
 7    1  0.2414091E-009  0.4778728E+02  0.7816164E-02  0.1312668E+00
        -11   -1    0    0    0    0  0.00000000000E+00  0.00000000000E+00  0.45593999997E+02  0.45594000000E+02  0.51100000000E-03 0. -1.
         11   -1    0    0    0    0 -0.00000000000E+00 -0.00000000000E+00 -0.45593999997E+02  0.45594000000E+02  0.51100000000E-03 0.  1.
    9900012    2    1    2    0    0  0.26717969800E+02  0.34182830581E+02  0.11432225091E+01  0.47787276798E+02  0.20000026231E+02 0.  0.
         12    1    1    2    0    0 -0.26717969800E+02 -0.34182830581E+02 -0.11432225091E+01  0.43400723202E+02  0.00000000000E+00 0. -1.
         11    1    3    3    0    0  0.20573179007E+02  0.20333994663E+02 -0.63362932946E+00  0.28933173345E+02  0.51100000000E-03 0.  1.
        -11    1    3    3    0    0  0.65889535352E+01  0.26096678662E+01  0.26643017984E+01  0.75712072614E+01  0.51100000000E-03 0. -1.
         12    1    3    3    0    0 -0.44416274212E+00  0.11239168052E+02 -0.88744995981E+00  0.11282896191E+02  0.00000000000E+00 0. -1.
</event>
<event>
 7    1  0.2414091E-009  0.4778727E+02  0.7816164E-02  0.1312668E+00
        -11   -1    0    0    0    0  0.00000000000E+00  0.00000000000E+00  0.45593999997E+02  0.45594000000E+02  0.51100000000E-03 0. -1.
         11   -1    0    0    0    0 -0.00000000000E+00 -0.00000000000E+00 -0.45593999997E+02  0.45594000000E+02  0.51100000000E-03 0.  1.
    9900012    2    1    2    0    0 -0.20984124731E+01 -0.17923862554E+02 -0.39470939696E+02  0.47787271155E+02  0.20000000506E+02 0.  0.
         12    1    1    2    0    0  0.20984124731E+01  0.17923862554E+02  0.39470939696E+02  0.43400728845E+02  0.00000000000E+00 0. -1.
         11    1    3    3    0    0 -0.12962857882E+01 -0.10232426023E+02 -0.17306362356E+02  0.20146788266E+02  0.51100000000E-03 0. -1.
        -11    1    3    3    0    0  0.33176338102E+01 -0.20190955281E+01 -0.19896744235E+02  0.20272243888E+02  0.51100000000E-03 0.  1.
         12    1    3    3    0    0 -0.41197604952E+01 -0.56723410028E+01 -0.22678331045E+01  0.73682390013E+01  0.00000000000E+00 0. -1.
</event>
<event>
 7    1  0.2414091E-009  0.4778727E+02  0.7816164E-02  0.1312668E+00
        -11   -1    0    0    0    0  0.00000000000E+00  0.00000000000E+00  0.45593999997E+02  0.45594000000E+02  0.51100000000E-03 0.  1.
         11   -1    0    0    0    0 -0.00000000000E+00 -0.00000000000E+00 -0.45593999997E+02  0.45594000000E+02  0.51100000000E-03 0. -1.
    9900012    2    1    2    0    0  0.95327243500E+00  0.15498445215E+02  0.40527930638E+02  0.47787266202E+02  0.19999977922E+02 0.  0.
         12    1    1    2    0    0 -0.95327243500E+00 -0.15498445215E+02 -0.40527930638E+02  0.43400733798E+02  0.00000000000E+00 0. -1.
         11    1    3    3    0    0  0.53798686759E+01  0.13473329575E+01  0.31029435015E+01  0.63550414399E+01  0.51100000000E-03 0. -1.
        -11    1    3    3    0    0  0.27965174144E+01  0.67126115721E+01  0.17997147117E+02  0.19410743633E+02  0.51100000000E-03 0.  1.
        -12    1    3    3    0    0 -0.72231136554E+01  0.74385006855E+01  0.19427840019E+02  0.22021481130E+02  0.00000000000E+00 0.  1.
</event>
<event>
 7    1  0.2414091E-009  0.4778727E+02  0.7816164E-02  0.1312668E+00
        -11   -1    0    0    0    0  0.00000000000E+00  0.00000000000E+00  0.45593999997E+02  0.45594000000E+02  0.51100000000E-03 0.  1.
         11   -1    0    0    0    0 -0.00000000000E+00 -0.00000000000E+00 -0.45593999997E+02  0.45594000000E+02  0.51100000000E-03 0. -1.
    9900012    2    1    2    0    0  0.68609033843E+01 -0.27061903773E+02  0.33229575356E+02  0.47787270635E+02  0.19999998133E+02 0.  0.
         12    1    1    2    0    0 -0.68609033843E+01  0.27061903773E+02 -0.33229575356E+02  0.43400729365E+02  0.00000000000E+00 0. -1.
         11    1    3    3    0    0  0.26611910224E+01 -0.15232082294E+02  0.99227225613E+01  0.18372770394E+02  0.51100000000E-03 0. -1.
        -11    1    3    3    0    0  0.46486874873E+01 -0.75381464438E+01  0.41549732834E+01  0.97825227017E+01  0.51100000000E-03 0.  1.
        -12    1    3    3    0    0 -0.44897512549E+00 -0.42916750355E+01  0.19151879511E+02  0.19631977539E+02  0.00000000000E+00 0.  1.
</event>
<event>
 7    1  0.2414091E-009  0.4778729E+02  0.7816164E-02  0.1312668E+00
        -11   -1    0    0    0    0  0.00000000000E+00  0.00000000000E+00  0.45593999997E+02  0.45594000000E+02  0.51100000000E-03 0. -1.
         11   -1    0    0    0    0 -0.00000000000E+00 -0.00000000000E+00 -0.45593999997E+02  0.45594000000E+02  0.51100000000E-03 0.  1.
    9900012    2    1    2    0    0  0.38348222251E+02 -0.13204946026E+02 -0.15448786103E+02  0.47787288699E+02  0.20000080493E+02 0.  0.
         12    1    1    2    0    0 -0.38348222251E+02  0.13204946026E+02  0.15448786103E+02  0.43400711301E+02  0.00000000000E+00 0. -1.
         11    1    3    3    0    0  0.16387995063E+02 -0.95303753682E+00 -0.14668125357E+02  0.22014280921E+02  0.51100000000E-03 0. -1.
        -11    1    3    3    0    0  0.10249576092E+02 -0.46413871500E+01 -0.29680383906E+01  0.11636388482E+02  0.51100000000E-03 0.  1.
         12    1    3    3    0    0  0.11710651096E+02 -0.76105213393E+01  0.21873776446E+01  0.14136619296E+02  0.00000000000E+00 0. -1.
</event>
<event>
 7    1  0.2414091E-009  0.4778727E+02  0.7816164E-02  0.1312668E+00
        -11   -1    0    0    0    0  0.00000000000E+00  0.00000000000E+00  0.45593999997E+02  0.45594000000E+02  0.51100000000E-03 0.  1.
         11   -1    0    0    0    0 -0.00000000000E+00 -0.00000000000E+00 -0.45593999997E+02  0.45594000000E+02  0.51100000000E-03 0. -1.
    9900012    2    1    2    0    0  0.37896652214E+02  0.12185520908E+02  0.17291041025E+02  0.47787271106E+02  0.20000000281E+02 0.  0.
         12    1    1    2    0    0 -0.37896652214E+02 -0.12185520908E+02 -0.17291041025E+02  0.43400728894E+02  0.00000000000E+00 0. -1.
         11    1    3    3    0    0  0.76452231952E+01  0.39432428243E+01 -0.13812054200E+01  0.87124239078E+01  0.51100000000E-03 0. -1.
        -11    1    3    3    0    0  0.14871258961E+02  0.31803424996E+00  0.19305989376E+01  0.14999423369E+02  0.51100000000E-03 0.  1.
         12    1    3    3    0    0  0.15380170057E+02  0.79242438335E+01  0.16741647507E+02  0.24075423829E+02  0.00000000000E+00 0. -1.
</event>
<event>
 7    1  0.2414091E-009  0.4778727E+02  0.7816164E-02  0.1312668E+00
        -11   -1    0    0    0    0  0.00000000000E+00  0.00000000000E+00  0.45593999997E+02  0.45594000000E+02  0.51100000000E-03 0. -1.
         11   -1    0    0    0    0 -0.00000000000E+00 -0.00000000000E+00 -0.45593999997E+02  0.45594000000E+02  0.51100000000E-03 0.  1.
    9900012    2    1    2    0    0  0.87725105500E+01  0.27986347843E+02 -0.31991103006E+02  0.47787270991E+02  0.19999999756E+02 0.  0.
         12    1    1    2    0    0 -0.87725105500E+01 -0.27986347843E+02  0.31991103006E+02  0.43400729009E+02  0.00000000000E+00 0. -1.
         11    1    3    3    0    0  0.75859474073E+01  0.61022737915E+01 -0.83869171401E+01  0.12850086493E+02  0.51100000000E-03 0. -1.
        -11    1    3    3    0    0  0.16836994657E+01  0.13824936761E+02 -0.52470320205E+01  0.14882710291E+02  0.51100000000E-03 0.  1.
         12    1    3    3    0    0 -0.49713632303E+00  0.80591372911E+01 -0.18357153846E+02  0.20054474207E+02  0.00000000000E+00 0. -1.
</event>
<event>
 7    1  0.2414091E-009  0.4778725E+02  0.7816164E-02  0.1312668E+00
        -11   -1    0    0    0    0  0.00000000000E+00  0.00000000000E+00  0.45593999997E+02  0.45594000000E+02  0.51100000000E-03 0.  1.
         11   -1    0    0    0    0 -0.00000000000E+00 -0.00000000000E+00 -0.45593999997E+02  0.45594000000E+02  0.51100000000E-03 0. -1.
    9900012    2    1    2    0    0 -0.36070896393E+02 -0.18378269497E+02  0.15644639020E+02  0.47787250164E+02  0.19999904797E+02 0.  0.
         12    1    1    2    0    0  0.36070896393E+02  0.18378269497E+02 -0.15644639020E+02  0.43400749836E+02  0.00000000000E+00 0. -1.
         11    1    3    3    0    0 -0.22836263709E+02 -0.57344258596E+01  0.67737302175E+01  0.24500244926E+02  0.51100000000E-03 0. -1.
        -11    1    3    3    0    0 -0.11175771974E+02 -0.84754642957E+01  0.89449344178E+00  0.14054589749E+02  0.51100000000E-03 0.  1.
         12    1    3    3    0    0 -0.20588607103E+01 -0.41683793412E+01  0.79764153602E+01  0.92324154887E+01  0.00000000000E+00 0. -1.
</event>
<event>
 7    1  0.2414091E-009  0.4778727E+02  0.7816164E-02  0.1312668E+00
        -11   -1    0    0    0    0  0.00000000000E+00  0.00000000000E+00  0.45593999997E+02  0.45594000000E+02  0.51100000000E-03 0.  1.
         11   -1    0    0    0    0 -0.00000000000E+00 -0.00000000000E+00 -0.45593999997E+02  0.45594000000E+02  0.51100000000E-03 0. -1.
    9900012    2    1    2    0    0 -0.19869591698E+02  0.15196479406E+02  0.35466743607E+02  0.47787267717E+02  0.19999984829E+02 0.  0.
         12    1    1    2    0    0  0.19869591698E+02 -0.15196479406E+02 -0.35466743607E+02  0.43400732283E+02  0.00000000000E+00 0. -1.
         11    1    3    3    0    0 -0.67974733813E+01  0.41461367071E+01  0.21267209413E+01  0.82413006368E+01  0.51100000000E-03 0. -1.
        -11    1    3    3    0    0 -0.69120848001E+01  0.85514848982E+01  0.86891434217E+01  0.14014493352E+02  0.51100000000E-03 0.  1.
        -12    1    3    3    0    0 -0.61600335169E+01  0.24988578011E+01  0.24650879244E+02  0.25531473728E+02  0.00000000000E+00 0.  1.
</event>
<event>
 7    1  0.2414091E-009  0.4778726E+02  0.7816164E-02  0.1312668E+00
        -11   -1    0    0    0    0  0.00000000000E+00  0.00000000000E+00  0.45593999997E+02  0.45594000000E+02  0.51100000000E-03 0.  1.
         11   -1    0    0    0    0 -0.00000000000E+00 -0.00000000000E+00 -0.45593999997E+02  0.45594000000E+02  0.51100000000E-03 0. -1.
    9900012    2    1    2    0    0  0.27587052117E+02 -0.11327042982E+02  0.31532153459E+02  0.47787262114E+02  0.19999959284E+02 0.  0.
         12    1    1    2    0    0 -0.27587052117E+02  0.11327042982E+02 -0.31532153459E+02  0.43400737886E+02  0.00000000000E+00 0. -1.
         11    1    3    3    0    0  0.54910707233E+01 -0.62961353072E+01  0.14293860377E+02  0.16556195887E+02  0.51100000000E-03 0. -1.
        -11    1    3    3    0    0  0.13155651645E+02 -0.88117836127E+01  0.13572496364E+02  0.20855007995E+02  0.51100000000E-03 0.  1.
        -12    1    3    3    0    0  0.89403297488E+01  0.37808759379E+01  0.36657967178E+01  0.10376058233E+02  0.00000000000E+00 0.  1.
</event>
<event>
 7    1  0.2414091E-009  0.4778726E+02  0.7816164E-02  0.1312668E+00
        -11   -1    0    0    0    0  0.00000000000E+00  0.00000000000E+00  0.45593999997E+02  0.45594000000E+02  0.51100000000E-03 0.  1.
         11   -1    0    0    0    0 -0.00000000000E+00 -0.00000000000E+00 -0.45593999997E+02  0.45594000000E+02  0.51100000000E-03 0. -1.
    9900012    2    1    2    0    0 -0.29959037365E+02  0.13339667509E+02  0.28427687005E+02  0.47787262247E+02  0.19999959889E+02 0.  0.
         12    1    1    2    0    0  0.29959037365E+02 -0.13339667509E+02 -0.28427687005E+02  0.43400737753E+02  0.00000000000E+00 0. -1.
         11    1    3    3    0    0 -0.16118050504E+02  0.59726079727E+01  0.19971685302E+02  0.26350176700E+02  0.51100000000E-03 0.  1.
        -11    1    3    3    0    0 -0.66499846214E+01 -0.20584388951E+01  0.62968307516E+01  0.93866684146E+01  0.51100000000E-03 0. -1.
        -12    1    3    3    0    0 -0.71910022390E+01  0.94254984310E+01  0.21591709518E+01  0.12050417133E+02  0.00000000000E+00 0.  1.
</event>
<event>
 7    1  0.2414091E-009  0.4778728E+02  0.7816164E-02  0.1312668E+00
        -11   -1    0    0    0    0  0.00000000000E+00  0.00000000000E+00  0.45593999997E+02  0.45594000000E+02  0.51100000000E-03 0.  1.
         11   -1    0    0    0    0 -0.00000000000E+00 -0.00000000000E+00 -0.45593999997E+02  0.45594000000E+02  0.51100000000E-03 0. -1.
    9900012    2    1    2    0    0 -0.31610677942E+02 -0.76106950363E+01  0.28748302573E+02  0.47787279502E+02  0.20000038562E+02 0.  0.
         12    1    1    2    0    0  0.31610677942E+02  0.76106950363E+01 -0.28748302573E+02  0.43400720498E+02  0.00000000000E+00 0. -1.
         11    1    3    3    0    0 -0.39864164198E+01 -0.30659450099E+01 -0.36602396382E+00  0.50423713151E+01  0.51100000000E-03 0. -1.
        -11    1    3    3    0    0 -0.56738692389E+01 -0.56804105278E+01  0.13767665955E+02  0.15937643553E+02  0.51100000000E-03 0.  1.
        -12    1    3    3    0    0 -0.21950392283E+02  0.11356605013E+01  0.15346660582E+02  0.26807264634E+02  0.00000000000E+00 0.  1.
</event>
<event>
 7    1  0.2414091E-009  0.4778726E+02  0.7816164E-02  0.1312668E+00
        -11   -1    0    0    0    0  0.00000000000E+00  0.00000000000E+00  0.45593999997E+02  0.45594000000E+02  0.51100000000E-03 0.  1.
         11   -1    0    0    0    0 -0.00000000000E+00 -0.00000000000E+00 -0.45593999997E+02  0.45594000000E+02  0.51100000000E-03 0. -1.
    9900012    2    1    2    0    0  0.13591862662E+01  0.29418847894E+02  0.31879582860E+02  0.47787264959E+02  0.19999972254E+02 0.  0.
         12    1    1    2    0    0 -0.13591862662E+01 -0.29418847894E+02 -0.31879582860E+02  0.43400735041E+02  0.00000000000E+00 0. -1.
         11    1    3    3    0    0  0.22891410628E+01  0.11093995008E+02  0.77617795310E+01  0.13731792082E+02  0.51100000000E-03 0. -1.
        -11    1    3    3    0    0  0.71423244398E+01  0.11162835300E+02  0.13237082968E+02  0.18730778310E+02  0.51100000000E-03 0.  1.
         12    1    3    3    0    0 -0.80722792364E+01  0.71620175868E+01  0.10880720362E+02  0.15324694567E+02  0.00000000000E+00 0. -1.
</event>
<event>
 7    1  0.2414091E-009  0.4778727E+02  0.7816164E-02  0.1312668E+00
        -11   -1    0    0    0    0  0.00000000000E+00  0.00000000000E+00  0.45593999997E+02  0.45594000000E+02  0.51100000000E-03 0. -1.
         11   -1    0    0    0    0 -0.00000000000E+00 -0.00000000000E+00 -0.45593999997E+02  0.45594000000E+02  0.51100000000E-03 0.  1.
    9900012    2    1    2    0    0  0.18758613781E+02  0.33097380140E+02 -0.20887819750E+02  0.47787272161E+02  0.20000005089E+02 0.  0.
         12    1    1    2    0    0 -0.18758613781E+02 -0.33097380140E+02  0.20887819750E+02  0.43400727839E+02  0.00000000000E+00 0. -1.
         11    1    3    3    0    0 -0.16021960808E+01  0.42571952987E+01 -0.47353839666E+00  0.45732901687E+01  0.51100000000E-03 0. -1.
        -11    1    3    3    0    0  0.22592066216E+01  0.13245878358E+02 -0.33352826110E+01  0.13844905864E+02  0.51100000000E-03 0.  1.
        -12    1    3    3    0    0  0.18101603240E+02  0.15594306483E+02 -0.17078998742E+02  0.29369076127E+02  0.00000000000E+00 0.  1.
</event>
<event>
 7    1  0.2414091E-009  0.4778726E+02  0.7816164E-02  0.1312668E+00
        -11   -1    0    0    0    0  0.00000000000E+00  0.00000000000E+00  0.45593999997E+02  0.45594000000E+02  0.51100000000E-03 0.  1.
         11   -1    0    0    0    0 -0.00000000000E+00 -0.00000000000E+00 -0.45593999997E+02  0.45594000000E+02  0.51100000000E-03 0. -1.
    9900012    2    1    2    0    0 -0.11043297567E+02 -0.39162407686E+02  0.15098849017E+02  0.47787264539E+02  0.19999970337E+02 0.  0.
         12    1    1    2    0    0  0.11043297567E+02  0.39162407686E+02 -0.15098849017E+02  0.43400735461E+02  0.00000000000E+00 0. -1.
         11    1    3    3    0    0 -0.94715837977E+01 -0.23097695357E+02  0.79136202152E+01  0.26188543595E+02  0.51100000000E-03 0.  1.
        -11    1    3    3    0    0  0.36805745797E+01 -0.13051521704E+02  0.21634099333E+01  0.13732049768E+02  0.51100000000E-03 0. -1.
         12    1    3    3    0    0 -0.52522883488E+01 -0.30131906254E+01  0.50218188684E+01  0.78666711760E+01  0.00000000000E+00 0. -1.
</event>
<event>
 7    1  0.2414091E-009  0.4778727E+02  0.7816164E-02  0.1312668E+00
        -11   -1    0    0    0    0  0.00000000000E+00  0.00000000000E+00  0.45593999997E+02  0.45594000000E+02  0.51100000000E-03 0. -1.
         11   -1    0    0    0    0 -0.00000000000E+00 -0.00000000000E+00 -0.45593999997E+02  0.45594000000E+02  0.51100000000E-03 0.  1.
    9900012    2    1    2    0    0 -0.31735680525E+02 -0.26717706082E+01 -0.29484425882E+02  0.47787272516E+02  0.20000006708E+02 0.  0.
         12    1    1    2    0    0  0.31735680525E+02  0.26717706082E+01  0.29484425882E+02  0.43400727484E+02  0.00000000000E+00 0. -1.
         11    1    3    3    0    0 -0.15954366883E+02 -0.75076722575E+01 -0.18510784959E+02  0.25564743797E+02  0.51100000000E-03 0. -1.
        -11    1    3    3    0    0 -0.27482042912E+00  0.92830021411E+00 -0.50930952881E+01  0.51842923751E+01  0.51100000000E-03 0.  1.
        -12    1    3    3    0    0 -0.15506493213E+02  0.39076014352E+01 -0.58805456358E+01  0.17038236344E+02  0.00000000000E+00 0.  1.
</event>
<event>
 7    1  0.2414091E-009  0.4778727E+02  0.7816164E-02  0.1312668E+00
        -11   -1    0    0    0    0  0.00000000000E+00  0.00000000000E+00  0.45593999997E+02  0.45594000000E+02  0.51100000000E-03 0.  1.
         11   -1    0    0    0    0 -0.00000000000E+00 -0.00000000000E+00 -0.45593999997E+02  0.45594000000E+02  0.51100000000E-03 0. -1.
    9900012    2    1    2    0    0  0.43096529863E+02 -0.31311091632E+01 -0.40631157167E+01  0.47787266824E+02  0.19999980759E+02 0.  0.
         12    1    1    2    0    0 -0.43096529863E+02  0.31311091632E+01  0.40631157167E+01  0.43400733176E+02  0.00000000000E+00 0. -1.
         11    1    3    3    0    0  0.14802701529E+02  0.43306157574E+01 -0.53119469505E+01  0.16312295548E+02  0.51100000000E-03 0. -1.
        -11    1    3    3    0    0  0.11621128200E+02 -0.67094173197E+00 -0.46436941288E+01  0.12532544788E+02  0.51100000000E-03 0.  1.
        -12    1    3    3    0    0  0.16672700134E+02 -0.67907831886E+01  0.58925253626E+01  0.18942426487E+02  0.00000000000E+00 0.  1.
</event>
<event>
 7    1  0.2414091E-009  0.4778727E+02  0.7816164E-02  0.1312668E+00
        -11   -1    0    0    0    0  0.00000000000E+00  0.00000000000E+00  0.45593999997E+02  0.45594000000E+02  0.51100000000E-03 0.  1.
         11   -1    0    0    0    0 -0.00000000000E+00 -0.00000000000E+00 -0.45593999997E+02  0.45594000000E+02  0.51100000000E-03 0. -1.
    9900012    2    1    2    0    0  0.68403542239E+01  0.27650342294E+02  0.32745861986E+02  0.47787270143E+02  0.19999995892E+02 0.  0.
         12    1    1    2    0    0 -0.68403542239E+01 -0.27650342294E+02 -0.32745861986E+02  0.43400729857E+02  0.00000000000E+00 0. -1.
         11    1    3    3    0    0  0.13876174060E+01  0.21754702822E+01 -0.17932614153E+01  0.31422825747E+01  0.51100000000E-03 0. -1.
        -11    1    3    3    0    0 -0.33118671571E+00  0.13835714097E+02  0.10702123132E+02  0.17494916662E+02  0.51100000000E-03 0.  1.
        -12    1    3    3    0    0  0.57839235336E+01  0.11639157914E+02  0.23837000269E+02  0.27150070907E+02  0.00000000000E+00 0.  1.
</event>
<event>
 7    1  0.2414091E-009  0.4778727E+02  0.7816164E-02  0.1312668E+00
        -11   -1    0    0    0    0  0.00000000000E+00  0.00000000000E+00  0.45593999997E+02  0.45594000000E+02  0.51100000000E-03 0.  1.
         11   -1    0    0    0    0 -0.00000000000E+00 -0.00000000000E+00 -0.45593999997E+02  0.45594000000E+02  0.51100000000E-03 0. -1.
    9900012    2    1    2    0    0  0.22721988870E+02  0.24054439331E+02  0.28084131114E+02  0.47787271317E+02  0.20000001245E+02 0.  0.
         12    1    1    2    0    0 -0.22721988870E+02 -0.24054439331E+02 -0.28084131114E+02  0.43400728683E+02  0.00000000000E+00 0. -1.
         11    1    3    3    0    0 -0.24594798659E+01  0.11385427078E+01  0.20497074983E+01  0.33980320478E+01  0.51100000000E-03 0. -1.
        -11    1    3    3    0    0  0.21262187116E+01  0.58455552404E+01  0.92682116381E+01  0.11162036969E+02  0.51100000000E-03 0.  1.
        -12    1    3    3    0    0  0.23055250024E+02  0.17070341383E+02  0.16766211978E+02  0.33227202300E+02  0.00000000000E+00 0.  1.
</event>
<event>
 7    1  0.2414091E-009  0.4778731E+02  0.7816164E-02  0.1312668E+00
        -11   -1    0    0    0    0  0.00000000000E+00  0.00000000000E+00  0.45593999997E+02  0.45594000000E+02  0.51100000000E-03 0. -1.
         11   -1    0    0    0    0 -0.00000000000E+00 -0.00000000000E+00 -0.45593999997E+02  0.45594000000E+02  0.51100000000E-03 0.  1.
    9900012    2    1    2    0    0 -0.26350443343E+01 -0.40567694381E+02 -0.15196674979E+02  0.47787306268E+02  0.20000160596E+02 0.  0.
         12    1    1    2    0    0  0.26350443343E+01  0.40567694381E+02  0.15196674979E+02  0.43400693732E+02  0.00000000000E+00 0. -1.
         11    1    3    3    0    0  0.20926348238E+01 -0.31804135325E+00  0.19880943370E+00  0.21259812465E+01  0.51100000000E-03 0. -1.
        -11    1    3    3    0    0  0.33569322786E+01 -0.22344793899E+02 -0.12443370012E+02  0.25795276045E+02  0.51100000000E-03 0.  1.
         12    1    3    3    0    0 -0.80846114367E+01 -0.17904859129E+02 -0.29521144015E+01  0.19866048976E+02  0.00000000000E+00 0. -1.
</event>
<event>
 7    1  0.2414091E-009  0.4778728E+02  0.7816164E-02  0.1312668E+00
        -11   -1    0    0    0    0  0.00000000000E+00  0.00000000000E+00  0.45593999997E+02  0.45594000000E+02  0.51100000000E-03 0. -1.
         11   -1    0    0    0    0 -0.00000000000E+00 -0.00000000000E+00 -0.45593999997E+02  0.45594000000E+02  0.51100000000E-03 0.  1.
    9900012    2    1    2    0    0  0.27286148211E+02 -0.24739723550E+02 -0.22957231838E+02  0.47787282273E+02  0.20000051195E+02 0.  0.
         12    1    1    2    0    0 -0.27286148211E+02  0.24739723550E+02  0.22957231838E+02  0.43400717727E+02  0.00000000000E+00 0. -1.
         11    1    3    3    0    0  0.49027201794E+01 -0.54191457847E+01 -0.89148323471E+01  0.11527273842E+02  0.51100000000E-03 0. -1.
        -11    1    3    3    0    0  0.18439382643E+02 -0.16058500344E+02 -0.17512644585E+02  0.30076219613E+02  0.51100000000E-03 0.  1.
        -12    1    3    3    0    0  0.39440453885E+01 -0.32620774217E+01  0.34702450942E+01  0.61837888180E+01  0.00000000000E+00 0.  1.
</event>
<event>
 7    1  0.2414091E-009  0.4778727E+02  0.7816164E-02  0.1312668E+00
        -11   -1    0    0    0    0  0.00000000000E+00  0.00000000000E+00  0.45593999997E+02  0.45594000000E+02  0.51100000000E-03 0.  1.
         11   -1    0    0    0    0 -0.00000000000E+00 -0.00000000000E+00 -0.45593999997E+02  0.45594000000E+02  0.51100000000E-03 0. -1.
    9900012    2    1    2    0    0 -0.14144261073E+02  0.29639582598E+02  0.28373551815E+02  0.47787269355E+02  0.19999992299E+02 0.  0.
         12    1    1    2    0    0  0.14144261073E+02 -0.29639582598E+02 -0.28373551815E+02  0.43400730645E+02  0.00000000000E+00 0. -1.
         11    1    3    3    0    0  0.18437130817E+01  0.12320042516E+02  0.35980989361E+01  0.12966458334E+02  0.51100000000E-03 0. -1.
        -11    1    3    3    0    0 -0.13625304839E+01  0.27982678405E+01  0.81789602801E+00  0.32180345555E+01  0.51100000000E-03 0.  1.
        -12    1    3    3    0    0 -0.14625443671E+02  0.14521272242E+02  0.23957556851E+02  0.31602776466E+02  0.00000000000E+00 0.  1.
</event>
<event>
 7    1  0.2414091E-009  0.4778727E+02  0.7816164E-02  0.1312668E+00
        -11   -1    0    0    0    0  0.00000000000E+00  0.00000000000E+00  0.45593999997E+02  0.45594000000E+02  0.51100000000E-03 0.  1.
         11   -1    0    0    0    0 -0.00000000000E+00 -0.00000000000E+00 -0.45593999997E+02  0.45594000000E+02  0.51100000000E-03 0. -1.
    9900012    2    1    2    0    0 -0.12507079076E+02  0.40609349475E+02 -0.88361092732E+01  0.47787272830E+02  0.20000008140E+02 0.  0.
         12    1    1    2    0    0  0.12507079076E+02 -0.40609349475E+02  0.88361092732E+01  0.43400727170E+02  0.00000000000E+00 0. -1.
         11    1    3    3    0    0  0.36834404869E+01  0.17815856762E+02 -0.30971720006E+01  0.18454402202E+02  0.51100000000E-03 0. -1.
        -11    1    3    3    0    0 -0.86690355977E+01  0.17015682281E+02 -0.53862687022E+01  0.19841812228E+02  0.51100000000E-03 0.  1.
         12    1    3    3    0    0 -0.75214839653E+01  0.57778104322E+01 -0.35266857043E+00  0.94910584000E+01  0.00000000000E+00 0. -1.
</event>
<event>
 7    1  0.2414091E-009  0.4778728E+02  0.7816164E-02  0.1312668E+00
        -11   -1    0    0    0    0  0.00000000000E+00  0.00000000000E+00  0.45593999997E+02  0.45594000000E+02  0.51100000000E-03 0. -1.
         11   -1    0    0    0    0 -0.00000000000E+00 -0.00000000000E+00 -0.45593999997E+02  0.45594000000E+02  0.51100000000E-03 0.  1.
    9900012    2    1    2    0    0 -0.32166637103E+02 -0.37878210766E+01 -0.28889140972E+02  0.47787278841E+02  0.20000035548E+02 0.  0.
         12    1    1    2    0    0  0.32166637103E+02  0.37878210766E+01  0.28889140972E+02  0.43400721159E+02  0.00000000000E+00 0. -1.
         11    1    3    3    0    0 -0.87285905448E+01 -0.94077354497E+00 -0.11615589392E+02  0.14560057175E+02  0.51100000000E-03 0.  1.
        -11    1    3    3    0    0 -0.96732542435E+01  0.30405339684E+00 -0.16445747100E+02  0.19082109267E+02  0.51100000000E-03 0. -1.
         12    1    3    3    0    0 -0.13764792315E+02 -0.31511009285E+01 -0.82780447994E+00  0.14145112399E+02  0.00000000000E+00 0. -1.
</event>
<event>
 7    1  0.2414091E-009  0.4778732E+02  0.7816164E-02  0.1312668E+00
        -11   -1    0    0    0    0  0.00000000000E+00  0.00000000000E+00  0.45593999997E+02  0.45594000000E+02  0.51100000000E-03 0.  1.
         11   -1    0    0    0    0 -0.00000000000E+00 -0.00000000000E+00 -0.45593999997E+02  0.45594000000E+02  0.51100000000E-03 0. -1.
    9900012    2    1    2    0    0 -0.23887466486E+02  0.10412149415E+01  0.36220486332E+02  0.47787322427E+02  0.20000234271E+02 0.  0.
         12    1    1    2    0    0  0.23887466486E+02 -0.10412149415E+01 -0.36220486332E+02  0.43400677573E+02  0.00000000000E+00 0. -1.
         11    1    3    3    0    0 -0.20058624029E+01  0.54621901192E+01  0.19974073732E+01  0.61521249462E+01  0.51100000000E-03 0. -1.
        -11    1    3    3    0    0 -0.40267399364E+01  0.45442141315E+00  0.12265610013E+02  0.12917674814E+02  0.51100000000E-03 0.  1.
         12    1    3    3    0    0 -0.17854864147E+02 -0.48753965909E+01  0.21957468946E+02  0.28717522667E+02  0.00000000000E+00 0. -1.
</event>
<event>
 7    1  0.2414091E-009  0.4778728E+02  0.7816164E-02  0.1312668E+00
        -11   -1    0    0    0    0  0.00000000000E+00  0.00000000000E+00  0.45593999997E+02  0.45594000000E+02  0.51100000000E-03 0. -1.
         11   -1    0    0    0    0 -0.00000000000E+00 -0.00000000000E+00 -0.45593999997E+02  0.45594000000E+02  0.51100000000E-03 0.  1.
    9900012    2    1    2    0    0 -0.10566361901E+02 -0.24063193553E+02 -0.34538928866E+02  0.47787275409E+02  0.20000019900E+02 0.  0.
         12    1    1    2    0    0  0.10566361901E+02  0.24063193553E+02  0.34538928866E+02  0.43400724591E+02  0.00000000000E+00 0. -1.
         11    1    3    3    0    0 -0.38343147071E+01 -0.48784913115E+01 -0.79157054118E+01  0.10057834716E+02  0.51100000000E-03 0. -1.
        -11    1    3    3    0    0 -0.18980340619E+01  0.31590235548E+01 -0.53875907728E+01  0.65274878564E+01  0.51100000000E-03 0.  1.
         12    1    3    3    0    0 -0.48340131324E+01 -0.22343725796E+02 -0.21235632681E+02  0.31201952836E+02  0.00000000000E+00 0. -1.
</event>
<event>
 7    1  0.2414091E-009  0.4778727E+02  0.7816164E-02  0.1312668E+00
        -11   -1    0    0    0    0  0.00000000000E+00  0.00000000000E+00  0.45593999997E+02  0.45594000000E+02  0.51100000000E-03 0.  1.
         11   -1    0    0    0    0 -0.00000000000E+00 -0.00000000000E+00 -0.45593999997E+02  0.45594000000E+02  0.51100000000E-03 0. -1.
    9900012    2    1    2    0    0 -0.45438007277E+01  0.23003095332E+02  0.36521703555E+02  0.47787270162E+02  0.19999995976E+02 0.  0.
         12    1    1    2    0    0  0.45438007277E+01 -0.23003095332E+02 -0.36521703555E+02  0.43400729838E+02  0.00000000000E+00 0. -1.
         11    1    3    3    0    0 -0.25870977892E+01 -0.34341380736E-01  0.21837915990E+00  0.25965253744E+01  0.51100000000E-03 0. -1.
        -11    1    3    3    0    0 -0.67259297198E+01  0.58689073995E+01  0.14564757425E+02  0.17082574858E+02  0.51100000000E-03 0.  1.
        -12    1    3    3    0    0  0.47692267812E+01  0.17168529313E+02  0.21738566970E+02  0.28108169930E+02  0.00000000000E+00 0.  1.
</event>
<event>
 7    1  0.2414091E-009  0.4778727E+02  0.7816164E-02  0.1312668E+00
        -11   -1    0    0    0    0  0.00000000000E+00  0.00000000000E+00  0.45593999997E+02  0.45594000000E+02  0.51100000000E-03 0.  1.
         11   -1    0    0    0    0 -0.00000000000E+00 -0.00000000000E+00 -0.45593999997E+02  0.45594000000E+02  0.51100000000E-03 0. -1.
    9900012    2    1    2    0    0  0.11706687621E+02 -0.52208068635E+01  0.41464684708E+02  0.47787269162E+02  0.19999991416E+02 0.  0.
         12    1    1    2    0    0 -0.11706687621E+02  0.52208068635E+01 -0.41464684708E+02  0.43400730838E+02  0.00000000000E+00 0. -1.
         11    1    3    3    0    0  0.75361285013E+01  0.10887190372E+01  0.38228528719E+02  0.38979468316E+02  0.51100000000E-03 0. -1.
        -11    1    3    3    0    0  0.11005180720E+01 -0.11537551038E+01  0.22021374218E+01  0.27187681681E+01  0.51100000000E-03 0.  1.
         12    1    3    3    0    0  0.30700410480E+01 -0.51557707970E+01  0.10340185667E+01  0.60890326772E+01  0.00000000000E+00 0. -1.
</event>
<event>
 7    1  0.2414091E-009  0.4778727E+02  0.7816164E-02  0.1312668E+00
        -11   -1    0    0    0    0  0.00000000000E+00  0.00000000000E+00  0.45593999997E+02  0.45594000000E+02  0.51100000000E-03 0. -1.
         11   -1    0    0    0    0 -0.00000000000E+00 -0.00000000000E+00 -0.45593999997E+02  0.45594000000E+02  0.51100000000E-03 0.  1.
    9900012    2    1    2    0    0 -0.26218997332E+01  0.21040544232E+02 -0.37868779940E+02  0.47787270122E+02  0.19999995796E+02 0.  0.
         12    1    1    2    0    0  0.26218997332E+01 -0.21040544232E+02  0.37868779940E+02  0.43400729878E+02  0.00000000000E+00 0. -1.
         11    1    3    3    0    0 -0.21446821303E+01  0.43739323609E+00 -0.84352706072E+00  0.23457434741E+01  0.51100000000E-03 0. -1.
        -11    1    3    3    0    0 -0.73613341271E+01  0.13414152832E+02 -0.28448977702E+02  0.32302833759E+02  0.51100000000E-03 0.  1.
         12    1    3    3    0    0  0.68841165242E+01  0.71889981633E+01 -0.85762751776E+01  0.13138692889E+02  0.00000000000E+00 0. -1.
</event>
<event>
 7    1  0.2414091E-009  0.4778727E+02  0.7816164E-02  0.1312668E+00
        -11   -1    0    0    0    0  0.00000000000E+00  0.00000000000E+00  0.45593999997E+02  0.45594000000E+02  0.51100000000E-03 0.  1.
         11   -1    0    0    0    0 -0.00000000000E+00 -0.00000000000E+00 -0.45593999997E+02  0.45594000000E+02  0.51100000000E-03 0. -1.
    9900012    2    1    2    0    0  0.79246545798E+01  0.13744792748E+02  0.40396828402E+02  0.47787271632E+02  0.20000002681E+02 0.  0.
         12    1    1    2    0    0 -0.79246545798E+01 -0.13744792748E+02 -0.40396828402E+02  0.43400728368E+02  0.00000000000E+00 0. -1.
         11    1    3    3    0    0 -0.20528310952E+00  0.20174204164E+01  0.99109647231E+01  0.10116291232E+02  0.51100000000E-03 0. -1.
        -11    1    3    3    0    0  0.18632842462E+01 -0.37616011983E+01  0.12195188288E+02  0.12897445072E+02  0.51100000000E-03 0.  1.
         12    1    3    3    0    0  0.62666534432E+01  0.15488973529E+02  0.18290675391E+02  0.24773535328E+02  0.00000000000E+00 0. -1.
</event>
<event>
 7    1  0.2414091E-009  0.4778727E+02  0.7816164E-02  0.1312668E+00
        -11   -1    0    0    0    0  0.00000000000E+00  0.00000000000E+00  0.45593999997E+02  0.45594000000E+02  0.51100000000E-03 0.  1.
         11   -1    0    0    0    0 -0.00000000000E+00 -0.00000000000E+00 -0.45593999997E+02  0.45594000000E+02  0.51100000000E-03 0. -1.
    9900012    2    1    2    0    0 -0.19127250063E+02  0.14700073197E+02  0.36078794881E+02  0.47787270893E+02  0.19999999309E+02 0.  0.
         12    1    1    2    0    0  0.19127250063E+02 -0.14700073197E+02 -0.36078794881E+02  0.43400729107E+02  0.00000000000E+00 0. -1.
         11    1    3    3    0    0 -0.50252577116E+01  0.61733454313E+01  0.37542584767E+01  0.88010150467E+01  0.51100000000E-03 0.  1.
        -11    1    3    3    0    0 -0.11191897220E+02  0.24051147837E+01  0.86151872559E+01  0.14327058045E+02  0.51100000000E-03 0. -1.
        -12    1    3    3    0    0 -0.29100951316E+01  0.61216129824E+01  0.23709349148E+02  0.24659197801E+02  0.00000000000E+00 0.  1.
</event>
<event>
 7    1  0.2414091E-009  0.4778727E+02  0.7816164E-02  0.1312668E+00
        -11   -1    0    0    0    0  0.00000000000E+00  0.00000000000E+00  0.45593999997E+02  0.45594000000E+02  0.51100000000E-03 0. -1.
         11   -1    0    0    0    0 -0.00000000000E+00 -0.00000000000E+00 -0.45593999997E+02  0.45594000000E+02  0.51100000000E-03 0.  1.
    9900012    2    1    2    0    0  0.10905949657E+02  0.41530821001E+02 -0.63146169938E+01  0.47787271680E+02  0.20000002899E+02 0.  0.
         12    1    1    2    0    0 -0.10905949657E+02 -0.41530821001E+02  0.63146169938E+01  0.43400728320E+02  0.00000000000E+00 0. -1.
         11    1    3    3    0    0  0.89758125678E+01  0.15344653050E+02 -0.98979336894E+00  0.17804585917E+02  0.51100000000E-03 0. -1.
        -11    1    3    3    0    0  0.43426878143E+01  0.10341527078E+02 -0.79416343748E+01  0.13743204741E+02  0.51100000000E-03 0.  1.
         12    1    3    3    0    0 -0.24125507248E+01  0.15844640872E+02  0.26168107499E+01  0.16239481022E+02  0.00000000000E+00 0. -1.
</event>
<event>
 7    1  0.2414091E-009  0.4778727E+02  0.7816164E-02  0.1312668E+00
        -11   -1    0    0    0    0  0.00000000000E+00  0.00000000000E+00  0.45593999997E+02  0.45594000000E+02  0.51100000000E-03 0. -1.
         11   -1    0    0    0    0 -0.00000000000E+00 -0.00000000000E+00 -0.45593999997E+02  0.45594000000E+02  0.51100000000E-03 0.  1.
    9900012    2    1    2    0    0  0.76405275596E+01 -0.29201179340E+02 -0.31185526145E+02  0.47787267550E+02  0.19999984070E+02 0.  0.
         12    1    1    2    0    0 -0.76405275596E+01  0.29201179340E+02  0.31185526145E+02  0.43400732450E+02  0.00000000000E+00 0. -1.
         11    1    3    3    0    0  0.80030479541E+01 -0.14466540285E+02 -0.12799286282E+02  0.20908163333E+02  0.51100000000E-03 0. -1.
        -11    1    3    3    0    0  0.19389821927E+01 -0.12404540963E+02 -0.57208471866E+01  0.13797114960E+02  0.51100000000E-03 0.  1.
         12    1    3    3    0    0 -0.23015025873E+01 -0.23300980925E+01 -0.12665392676E+02  0.13081989257E+02  0.00000000000E+00 0. -1.
</event>
<event>
 7    1  0.2414091E-009  0.4778730E+02  0.7816164E-02  0.1312668E+00
        -11   -1    0    0    0    0  0.00000000000E+00  0.00000000000E+00  0.45593999997E+02  0.45594000000E+02  0.51100000000E-03 0.  1.
         11   -1    0    0    0    0 -0.00000000000E+00 -0.00000000000E+00 -0.45593999997E+02  0.45594000000E+02  0.51100000000E-03 0. -1.
    9900012    2    1    2    0    0  0.14631792291E+02  0.14794203110E+02  0.38087564235E+02  0.47787304837E+02  0.20000154072E+02 0.  0.
         12    1    1    2    0    0 -0.14631792291E+02 -0.14794203110E+02 -0.38087564235E+02  0.43400695163E+02  0.00000000000E+00 0. -1.
         11    1    3    3    0    0 -0.94072202174E+00  0.59609331637E+01  0.49513393535E+01  0.78059876863E+01  0.51100000000E-03 0. -1.
        -11    1    3    3    0    0  0.71057509574E+01  0.67707060955E+01  0.60547697544E+01  0.11532319573E+02  0.51100000000E-03 0.  1.
        -12    1    3    3    0    0  0.84667633555E+01  0.20625638509E+01  0.27081455127E+02  0.28448997577E+02  0.00000000000E+00 0.  1.
</event>
<event>
 7    1  0.2414091E-009  0.4778727E+02  0.7816164E-02  0.1312668E+00
        -11   -1    0    0    0    0  0.00000000000E+00  0.00000000000E+00  0.45593999997E+02  0.45594000000E+02  0.51100000000E-03 0.  1.
         11   -1    0    0    0    0 -0.00000000000E+00 -0.00000000000E+00 -0.45593999997E+02  0.45594000000E+02  0.51100000000E-03 0. -1.
    9900012    2    1    2    0    0 -0.10396640028E+02  0.40371453440E+02  0.12069753319E+02  0.47787270491E+02  0.19999997478E+02 0.  0.
         12    1    1    2    0    0  0.10396640028E+02 -0.40371453440E+02 -0.12069753319E+02  0.43400729509E+02  0.00000000000E+00 0. -1.
         11    1    3    3    0    0  0.50203588447E-01  0.23708544204E+02  0.24577328601E+01  0.23835646410E+02  0.51100000000E-03 0. -1.
        -11    1    3    3    0    0 -0.24324762740E+01  0.11188223207E+02  0.83351598233E+01  0.14162209181E+02  0.51100000000E-03 0.  1.
         12    1    3    3    0    0 -0.80143673428E+01  0.54746860287E+01  0.12768606358E+01  0.97894149008E+01  0.00000000000E+00 0. -1.
</event>
<event>
 7    1  0.2414091E-009  0.4778728E+02  0.7816164E-02  0.1312668E+00
        -11   -1    0    0    0    0  0.00000000000E+00  0.00000000000E+00  0.45593999997E+02  0.45594000000E+02  0.51100000000E-03 0. -1.
         11   -1    0    0    0    0 -0.00000000000E+00 -0.00000000000E+00 -0.45593999997E+02  0.45594000000E+02  0.51100000000E-03 0.  1.
    9900012    2    1    2    0    0  0.12694148397E+02  0.34798405261E+02 -0.22617514987E+02  0.47787281153E+02  0.20000046091E+02 0.  0.
         12    1    1    2    0    0 -0.12694148397E+02 -0.34798405261E+02  0.22617514987E+02  0.43400718847E+02  0.00000000000E+00 0. -1.
         11    1    3    3    0    0  0.31122271811E+01  0.89372669280E+01 -0.17259296296E+01  0.96197469570E+01  0.51100000000E-03 0. -1.
        -11    1    3    3    0    0  0.14069661347E+01  0.19576964812E+02 -0.69382113982E+01  0.20817681970E+02  0.51100000000E-03 0.  1.
         12    1    3    3    0    0  0.81749550815E+01  0.62841735209E+01 -0.13953373959E+02  0.17349852226E+02  0.00000000000E+00 0. -1.
</event>
<event>
 7    1  0.2414091E-009  0.4778727E+02  0.7816164E-02  0.1312668E+00
        -11   -1    0    0    0    0  0.00000000000E+00  0.00000000000E+00  0.45593999997E+02  0.45594000000E+02  0.51100000000E-03 0.  1.
         11   -1    0    0    0    0 -0.00000000000E+00 -0.00000000000E+00 -0.45593999997E+02  0.45594000000E+02  0.51100000000E-03 0. -1.
    9900012    2    1    2    0    0  0.22560812425E+02 -0.13361560991E+02  0.34584704631E+02  0.47787270009E+02  0.19999995277E+02 0.  0.
         12    1    1    2    0    0 -0.22560812425E+02  0.13361560991E+02 -0.34584704631E+02  0.43400729991E+02  0.00000000000E+00 0. -1.
         11    1    3    3    0    0  0.13265115480E+02 -0.65849364957E+01  0.11444318735E+02  0.18716225820E+02  0.51100000000E-03 0.  1.
        -11    1    3    3    0    0  0.22075154790E+01  0.20717097468E+01  0.14510316409E+02  0.14822765882E+02  0.51100000000E-03 0. -1.
         12    1    3    3    0    0  0.70881814657E+01 -0.88483342419E+01  0.86300694870E+01  0.14248278306E+02  0.00000000000E+00 0. -1.
</event>
<event>
 7    1  0.2414091E-009  0.4778727E+02  0.7816164E-02  0.1312668E+00
        -11   -1    0    0    0    0  0.00000000000E+00  0.00000000000E+00  0.45593999997E+02  0.45594000000E+02  0.51100000000E-03 0.  1.
         11   -1    0    0    0    0 -0.00000000000E+00 -0.00000000000E+00 -0.45593999997E+02  0.45594000000E+02  0.51100000000E-03 0. -1.
    9900012    2    1    2    0    0 -0.39111583656E+02 -0.17738594647E+02  0.62649414713E+01  0.47787271806E+02  0.20000003473E+02 0.  0.
         12    1    1    2    0    0  0.39111583656E+02  0.17738594647E+02 -0.62649414713E+01  0.43400728194E+02  0.00000000000E+00 0. -1.
         11    1    3    3    0    0 -0.15548472779E+02 -0.13566140744E+02  0.58723292609E+01  0.21454123885E+02  0.51100000000E-03 0. -1.
        -11    1    3    3    0    0 -0.15502455877E+02 -0.22329636625E+01  0.54946958193E+01  0.16598311581E+02  0.51100000000E-03 0.  1.
         12    1    3    3    0    0 -0.80606549993E+01 -0.19394902406E+01 -0.51020836089E+01  0.97348363398E+01  0.00000000000E+00 0. -1.
</event>
<event>
 7    1  0.2414091E-009  0.4778727E+02  0.7816164E-02  0.1312668E+00
        -11   -1    0    0    0    0  0.00000000000E+00  0.00000000000E+00  0.45593999997E+02  0.45594000000E+02  0.51100000000E-03 0.  1.
         11   -1    0    0    0    0 -0.00000000000E+00 -0.00000000000E+00 -0.45593999997E+02  0.45594000000E+02  0.51100000000E-03 0. -1.
    9900012    2    1    2    0    0 -0.24653098075E+02  0.18118712659E+01  0.35673030449E+02  0.47787271624E+02  0.20000002641E+02 0.  0.
         12    1    1    2    0    0  0.24653098075E+02 -0.18118712659E+01 -0.35673030449E+02  0.43400728376E+02  0.00000000000E+00 0. -1.
         11    1    3    3    0    0 -0.62831325750E+01 -0.25346221464E+01  0.30543621691E+01  0.74317691636E+01  0.51100000000E-03 0. -1.
        -11    1    3    3    0    0  0.14498447787E+01 -0.13383053097E+01  0.80154115184E+01  0.82546915784E+01  0.51100000000E-03 0.  1.
        -12    1    3    3    0    0 -0.19819810279E+02  0.56847987220E+01  0.24603256762E+02  0.32100810882E+02  0.00000000000E+00 0.  1.
</event>
<event>
 7    1  0.2414091E-009  0.4778728E+02  0.7816164E-02  0.1312668E+00
        -11   -1    0    0    0    0  0.00000000000E+00  0.00000000000E+00  0.45593999997E+02  0.45594000000E+02  0.51100000000E-03 0. -1.
         11   -1    0    0    0    0 -0.00000000000E+00 -0.00000000000E+00 -0.45593999997E+02  0.45594000000E+02  0.51100000000E-03 0.  1.
    9900012    2    1    2    0    0 -0.90282778233E+00 -0.13498487268E+02 -0.41238313767E+02  0.47787276747E+02  0.20000026002E+02 0.  0.
         12    1    1    2    0    0  0.90282778233E+00  0.13498487268E+02  0.41238313767E+02  0.43400723253E+02  0.00000000000E+00 0. -1.
         11    1    3    3    0    0 -0.30168464829E+01 -0.80954458962E+01 -0.69225936456E+01  0.11070677938E+02  0.51100000000E-03 0. -1.
        -11    1    3    3    0    0  0.61908460169E-01 -0.84840359376E+01 -0.16880198332E+02  0.18892426907E+02  0.51100000000E-03 0.  1.
         12    1    3    3    0    0  0.20521102404E+01  0.30809945655E+01 -0.17435521790E+02  0.17824171903E+02  0.00000000000E+00 0. -1.
</event>
<event>
 7    1  0.2414091E-009  0.4778728E+02  0.7816164E-02  0.1312668E+00
        -11   -1    0    0    0    0  0.00000000000E+00  0.00000000000E+00  0.45593999997E+02  0.45594000000E+02  0.51100000000E-03 0. -1.
         11   -1    0    0    0    0 -0.00000000000E+00 -0.00000000000E+00 -0.45593999997E+02  0.45594000000E+02  0.51100000000E-03 0.  1.
    9900012    2    1    2    0    0  0.40459564403E+02 -0.52230778495E+01  0.14811008188E+02  0.47787275842E+02  0.20000021873E+02 0.  0.
         12    1    1    2    0    0 -0.40459564403E+02  0.52230778495E+01 -0.14811008188E+02  0.43400724158E+02  0.00000000000E+00 0. -1.
         11    1    3    3    0    0  0.21065980571E+01  0.11897760240E+01  0.66941413463E+01  0.71179246264E+01  0.51100000000E-03 0. -1.
        -11    1    3    3    0    0  0.68093789606E+00  0.36808335920E+00  0.16863404048E+01  0.18555069387E+01  0.51100000000E-03 0.  1.
        -12    1    3    3    0    0  0.37672028450E+02 -0.67809372327E+01  0.64305264374E+01  0.38813844277E+02  0.00000000000E+00 0.  1.
</event>
<event>
 7    1  0.2414091E-009  0.4778727E+02  0.7816164E-02  0.1312668E+00
        -11   -1    0    0    0    0  0.00000000000E+00  0.00000000000E+00  0.45593999997E+02  0.45594000000E+02  0.51100000000E-03 0.  1.
         11   -1    0    0    0    0 -0.00000000000E+00 -0.00000000000E+00 -0.45593999997E+02  0.45594000000E+02  0.51100000000E-03 0. -1.
    9900012    2    1    2    0    0  0.21555262339E+02 -0.30860779215E+02  0.21601065106E+02  0.47787273716E+02  0.20000012182E+02 0.  0.
         12    1    1    2    0    0 -0.21555262339E+02  0.30860779215E+02 -0.21601065106E+02  0.43400726284E+02  0.00000000000E+00 0. -1.
         11    1    3    3    0    0 -0.26594336097E+01 -0.37510596831E+01  0.38291019010E+01  0.59837327397E+01  0.51100000000E-03 0. -1.
        -11    1    3    3    0    0  0.45353927779E+01 -0.71009910861E+01  0.91632029979E+01  0.12448218808E+02  0.51100000000E-03 0.  1.
        -12    1    3    3    0    0  0.19679303171E+02 -0.20008728446E+02  0.86087602068E+01  0.29355322168E+02  0.00000000000E+00 0.  1.
</event>
<event>
 7    1  0.2414091E-009  0.4778727E+02  0.7816164E-02  0.1312668E+00
        -11   -1    0    0    0    0  0.00000000000E+00  0.00000000000E+00  0.45593999997E+02  0.45594000000E+02  0.51100000000E-03 0. -1.
         11   -1    0    0    0    0 -0.00000000000E+00 -0.00000000000E+00 -0.45593999997E+02  0.45594000000E+02  0.51100000000E-03 0.  1.
    9900012    2    1    2    0    0  0.62115003574E+01 -0.98828941441E+01 -0.41801541695E+02  0.47787271648E+02  0.20000002753E+02 0.  0.
         12    1    1    2    0    0 -0.62115003574E+01  0.98828941441E+01  0.41801541695E+02  0.43400728352E+02  0.00000000000E+00 0. -1.
         11    1    3    3    0    0  0.43116715837E+01 -0.32760923450E+00 -0.50010735555E+01  0.66112462233E+01  0.51100000000E-03 0. -1.
        -11    1    3    3    0    0 -0.15599323148E+01  0.40051527751E+01 -0.11263012975E+02  0.12055293407E+02  0.51100000000E-03 0.  1.
        -12    1    3    3    0    0  0.34597610885E+01 -0.13560437685E+02 -0.25537455165E+02  0.29120732018E+02  0.00000000000E+00 0.  1.
</event>
<event>
 7    1  0.2414091E-009  0.4778727E+02  0.7816164E-02  0.1312668E+00
        -11   -1    0    0    0    0  0.00000000000E+00  0.00000000000E+00  0.45593999997E+02  0.45594000000E+02  0.51100000000E-03 0.  1.
         11   -1    0    0    0    0 -0.00000000000E+00 -0.00000000000E+00 -0.45593999997E+02  0.45594000000E+02  0.51100000000E-03 0. -1.
    9900012    2    1    2    0    0  0.24169923608E+02 -0.15177860221E+02  0.32696647524E+02  0.47787269506E+02  0.19999992988E+02 0.  0.
         12    1    1    2    0    0 -0.24169923608E+02  0.15177860221E+02 -0.32696647524E+02  0.43400730494E+02  0.00000000000E+00 0. -1.
         11    1    3    3    0    0  0.57837564007E+00  0.12660484876E+00  0.63002112030E+01  0.63279703407E+01  0.51100000000E-03 0. -1.
        -11    1    3    3    0    0 -0.50195262327E+00  0.12574334038E+01  0.51311424437E+01  0.53067615585E+01  0.51100000000E-03 0.  1.
        -12    1    3    3    0    0  0.24093500591E+02 -0.16561898473E+02  0.21265293877E+02  0.36152537607E+02  0.00000000000E+00 0.  1.
</event>
<event>
 7    1  0.2414091E-009  0.4778727E+02  0.7816164E-02  0.1312668E+00
        -11   -1    0    0    0    0  0.00000000000E+00  0.00000000000E+00  0.45593999997E+02  0.45594000000E+02  0.51100000000E-03 0.  1.
         11   -1    0    0    0    0 -0.00000000000E+00 -0.00000000000E+00 -0.45593999997E+02  0.45594000000E+02  0.51100000000E-03 0. -1.
    9900012    2    1    2    0    0  0.18109084630E+02  0.70029920510E+01  0.38815493974E+02  0.47787269404E+02  0.19999992519E+02 0.  0.
         12    1    1    2    0    0 -0.18109084630E+02 -0.70029920510E+01 -0.38815493974E+02  0.43400730596E+02  0.00000000000E+00 0. -1.
         11    1    3    3    0    0 -0.36384847822E+00  0.67208964401E+01  0.14822480944E+02  0.16279090155E+02  0.51100000000E-03 0. -1.
        -11    1    3    3    0    0  0.29609717996E+00  0.10307823843E+01 -0.34119013475E+00  0.11254318429E+01  0.51100000000E-03 0.  1.
        -12    1    3    3    0    0  0.18176835928E+02 -0.74868677343E+00  0.24334203165E+02  0.30382747406E+02  0.00000000000E+00 0.  1.
</event>
<event>
 7    1  0.2414091E-009  0.4778727E+02  0.7816164E-02  0.1312668E+00
        -11   -1    0    0    0    0  0.00000000000E+00  0.00000000000E+00  0.45593999997E+02  0.45594000000E+02  0.51100000000E-03 0.  1.
         11   -1    0    0    0    0 -0.00000000000E+00 -0.00000000000E+00 -0.45593999997E+02  0.45594000000E+02  0.51100000000E-03 0. -1.
    9900012    2    1    2    0    0 -0.13979511902E+02 -0.40396322971E+02 -0.75055532938E+01  0.47787274282E+02  0.20000014760E+02 0.  0.
         12    1    1    2    0    0  0.13979511902E+02  0.40396322971E+02  0.75055532938E+01  0.43400725718E+02  0.00000000000E+00 0. -1.
         11    1    3    3    0    0 -0.37663916484E+01 -0.14006197332E+01 -0.27673497478E+01  0.48791050997E+01  0.51100000000E-03 0. -1.
        -11    1    3    3    0    0 -0.38585292308E+01 -0.10358975077E+02  0.48164486696E+01  0.12057976220E+02  0.51100000000E-03 0.  1.
        -12    1    3    3    0    0 -0.63545910227E+01 -0.28636728161E+02 -0.95546522156E+01  0.30850192962E+02  0.00000000000E+00 0.  1.
</event>
<event>
 7    1  0.2414091E-009  0.4778727E+02  0.7816164E-02  0.1312668E+00
        -11   -1    0    0    0    0  0.00000000000E+00  0.00000000000E+00  0.45593999997E+02  0.45594000000E+02  0.51100000000E-03 0.  1.
         11   -1    0    0    0    0 -0.00000000000E+00 -0.00000000000E+00 -0.45593999997E+02  0.45594000000E+02  0.51100000000E-03 0. -1.
    9900012    2    1    2    0    0  0.21021012307E+02  0.25625076201E+02  0.28019557557E+02  0.47787273112E+02  0.20000009426E+02 0.  0.
         12    1    1    2    0    0 -0.21021012307E+02 -0.25625076201E+02 -0.28019557557E+02  0.43400726888E+02  0.00000000000E+00 0. -1.
         11    1    3    3    0    0  0.63000770183E+01  0.28635580210E+01  0.10157822207E+02  0.12291146701E+02  0.51100000000E-03 0. -1.
        -11    1    3    3    0    0  0.92516007901E+01  0.35476688019E+01  0.98527538316E+01  0.13973361422E+02  0.51100000000E-03 0.  1.
         12    1    3    3    0    0  0.54693344989E+01  0.19213849378E+02  0.80089815187E+01  0.21522764989E+02  0.00000000000E+00 0. -1.
</event>
<event>
 7    1  0.2414091E-009  0.4778727E+02  0.7816164E-02  0.1312668E+00
        -11   -1    0    0    0    0  0.00000000000E+00  0.00000000000E+00  0.45593999997E+02  0.45594000000E+02  0.51100000000E-03 0.  1.
         11   -1    0    0    0    0 -0.00000000000E+00 -0.00000000000E+00 -0.45593999997E+02  0.45594000000E+02  0.51100000000E-03 0. -1.
    9900012    2    1    2    0    0 -0.42721224991E+02  0.95452037580E+00  0.75900526898E+01  0.47787273351E+02  0.20000010515E+02 0.  0.
         12    1    1    2    0    0  0.42721224991E+02 -0.95452037580E+00 -0.75900526898E+01  0.43400726649E+02  0.00000000000E+00 0. -1.
         11    1    3    3    0    0 -0.14378901987E+02  0.10631827203E+01 -0.25931770708E+00  0.14420486323E+02  0.51100000000E-03 0. -1.
        -11    1    3    3    0    0 -0.10553094159E+02 -0.76869650806E+01  0.23704120317E+01  0.13269366298E+02  0.51100000000E-03 0.  1.
         12    1    3    3    0    0 -0.17789228844E+02  0.75783027361E+01  0.54789583652E+01  0.20097420730E+02  0.00000000000E+00 0. -1.
</event>
<event>
 7    1  0.2414091E-009  0.4778727E+02  0.7816164E-02  0.1312668E+00
        -11   -1    0    0    0    0  0.00000000000E+00  0.00000000000E+00  0.45593999997E+02  0.45594000000E+02  0.51100000000E-03 0.  1.
         11   -1    0    0    0    0 -0.00000000000E+00 -0.00000000000E+00 -0.45593999997E+02  0.45594000000E+02  0.51100000000E-03 0. -1.
    9900012    2    1    2    0    0  0.17074937786E+02 -0.13818127928E+02  0.37431658894E+02  0.47787271350E+02  0.20000001393E+02 0.  0.
         12    1    1    2    0    0 -0.17074937786E+02  0.13818127928E+02 -0.37431658894E+02  0.43400728650E+02  0.00000000000E+00 0. -1.
         11    1    3    3    0    0  0.11802232590E+02 -0.52054445955E+01  0.22473190691E+02  0.25912036733E+02  0.51100000000E-03 0. -1.
        -11    1    3    3    0    0  0.82117318993E+01 -0.95920342389E+01  0.10372688328E+02  0.16341123738E+02  0.51100000000E-03 0.  1.
         12    1    3    3    0    0 -0.29390267030E+01  0.97935090671E+00  0.45857798749E+01  0.55341108789E+01  0.00000000000E+00 0. -1.
</event>
<event>
 7    1  0.2414091E-009  0.4778727E+02  0.7816164E-02  0.1312668E+00
        -11   -1    0    0    0    0  0.00000000000E+00  0.00000000000E+00  0.45593999997E+02  0.45594000000E+02  0.51100000000E-03 0.  1.
         11   -1    0    0    0    0 -0.00000000000E+00 -0.00000000000E+00 -0.45593999997E+02  0.45594000000E+02  0.51100000000E-03 0. -1.
    9900012    2    1    2    0    0  0.29872767551E+02  0.31238711251E+02 -0.39222458309E+01  0.47787270350E+02  0.19999996835E+02 0.  0.
         12    1    1    2    0    0 -0.29872767551E+02 -0.31238711251E+02  0.39222458309E+01  0.43400729650E+02  0.00000000000E+00 0. -1.
         11    1    3    3    0    0  0.37406225888E+01  0.44963640864E+01  0.53487899714E+01  0.79258502237E+01  0.51100000000E-03 0. -1.
        -11    1    3    3    0    0  0.17600881439E+02  0.14608727573E+02 -0.10384354293E+01  0.22897255232E+02  0.51100000000E-03 0.  1.
        -12    1    3    3    0    0  0.85312635231E+01  0.12133619591E+02 -0.82326003730E+01  0.16964164895E+02  0.00000000000E+00 0.  1.
</event>
<event>
 7    1  0.2414091E-009  0.4778727E+02  0.7816164E-02  0.1312668E+00
        -11   -1    0    0    0    0  0.00000000000E+00  0.00000000000E+00  0.45593999997E+02  0.45594000000E+02  0.51100000000E-03 0. -1.
         11   -1    0    0    0    0 -0.00000000000E+00 -0.00000000000E+00 -0.45593999997E+02  0.45594000000E+02  0.51100000000E-03 0.  1.
    9900012    2    1    2    0    0  0.33432403180E+02 -0.16530105016E+02 -0.22195790969E+02  0.47787273151E+02  0.20000009607E+02 0.  0.
         12    1    1    2    0    0 -0.33432403180E+02  0.16530105016E+02  0.22195790969E+02  0.43400726849E+02  0.00000000000E+00 0. -1.
         11    1    3    3    0    0  0.92093644293E+01 -0.12265096416E+01  0.10970320808E+01  0.93552230727E+01  0.51100000000E-03 0. -1.
        -11    1    3    3    0    0  0.63783231309E+01 -0.47066415863E+01 -0.10261458773E+01  0.79930254977E+01  0.51100000000E-03 0.  1.
         12    1    3    3    0    0  0.17844715620E+02 -0.10596953788E+02 -0.22266677173E+02  0.30439024581E+02  0.00000000000E+00 0. -1.
</event>
<event>
 7    1  0.2414091E-009  0.4778727E+02  0.7816164E-02  0.1312668E+00
        -11   -1    0    0    0    0  0.00000000000E+00  0.00000000000E+00  0.45593999997E+02  0.45594000000E+02  0.51100000000E-03 0. -1.
         11   -1    0    0    0    0 -0.00000000000E+00 -0.00000000000E+00 -0.45593999997E+02  0.45594000000E+02  0.51100000000E-03 0.  1.
    9900012    2    1    2    0    0 -0.25530348401E+02  0.28998971970E+02 -0.19770788696E+02  0.47787272466E+02  0.20000006481E+02 0.  0.
         12    1    1    2    0    0  0.25530348401E+02 -0.28998971970E+02  0.19770788696E+02  0.43400727534E+02  0.00000000000E+00 0. -1.
         11    1    3    3    0    0 -0.14128138728E+01  0.68098889404E+01 -0.46892796941E+01  0.83880852839E+01  0.51100000000E-03 0. -1.
        -11    1    3    3    0    0 -0.92250009473E+00  0.61531953819E+01 -0.83413147914E+01  0.10406265062E+02  0.51100000000E-03 0.  1.
         12    1    3    3    0    0 -0.23195034434E+02  0.16035887648E+02 -0.67401942105E+01  0.28992922120E+02  0.00000000000E+00 0. -1.
</event>
<event>
 7    1  0.2414091E-009  0.4778727E+02  0.7816164E-02  0.1312668E+00
        -11   -1    0    0    0    0  0.00000000000E+00  0.00000000000E+00  0.45593999997E+02  0.45594000000E+02  0.51100000000E-03 0. -1.
         11   -1    0    0    0    0 -0.00000000000E+00 -0.00000000000E+00 -0.45593999997E+02  0.45594000000E+02  0.51100000000E-03 0.  1.
    9900012    2    1    2    0    0  0.29448055938E+02 -0.13691786778E+02 -0.28791838951E+02  0.47787274040E+02  0.20000013657E+02 0.  0.
         12    1    1    2    0    0 -0.29448055938E+02  0.13691786778E+02  0.28791838951E+02  0.43400725960E+02  0.00000000000E+00 0. -1.
         11    1    3    3    0    0  0.85738157111E+01 -0.58125615317E+00 -0.57146860010E+01  0.10320165256E+02  0.51100000000E-03 0. -1.
        -11    1    3    3    0    0  0.52666191882E+01  0.14508048015E+01 -0.12506679409E+02  0.13647679009E+02  0.51100000000E-03 0.  1.
         12    1    3    3    0    0  0.15607621039E+02 -0.14561335426E+02 -0.10570473541E+02  0.23819429774E+02  0.00000000000E+00 0. -1.
</event>
<event>
 7    1  0.2414091E-009  0.4778728E+02  0.7816164E-02  0.1312668E+00
        -11   -1    0    0    0    0  0.00000000000E+00  0.00000000000E+00  0.45593999997E+02  0.45594000000E+02  0.51100000000E-03 0. -1.
         11   -1    0    0    0    0 -0.00000000000E+00 -0.00000000000E+00 -0.45593999997E+02  0.45594000000E+02  0.51100000000E-03 0.  1.
    9900012    2    1    2    0    0  0.28995231712E+01  0.33358276950E+02 -0.27612328005E+02  0.47787279573E+02  0.20000038886E+02 0.  0.
         12    1    1    2    0    0 -0.28995231712E+01 -0.33358276950E+02  0.27612328005E+02  0.43400720427E+02  0.00000000000E+00 0. -1.
         11    1    3    3    0    0  0.65544423291E+00 -0.12796552125E+01 -0.62690746433E+00  0.15684826538E+01  0.51100000000E-03 0. -1.
        -11    1    3    3    0    0  0.23674470050E+01  0.16417381328E+02 -0.43258421810E+01  0.17141998886E+02  0.51100000000E-03 0.  1.
         12    1    3    3    0    0 -0.12336806673E+00  0.18220550835E+02 -0.22659578360E+02  0.29076798033E+02  0.00000000000E+00 0. -1.
</event>
<event>
 7    1  0.2414091E-009  0.4778726E+02  0.7816164E-02  0.1312668E+00
        -11   -1    0    0    0    0  0.00000000000E+00  0.00000000000E+00  0.45593999997E+02  0.45594000000E+02  0.51100000000E-03 0.  1.
         11   -1    0    0    0    0 -0.00000000000E+00 -0.00000000000E+00 -0.45593999997E+02  0.45594000000E+02  0.51100000000E-03 0. -1.
    9900012    2    1    2    0    0  0.34731521991E+01 -0.38940658445E+02  0.18846385757E+02  0.47787263572E+02  0.19999965932E+02 0.  0.
         12    1    1    2    0    0 -0.34731521991E+01  0.38940658445E+02 -0.18846385757E+02  0.43400736428E+02  0.00000000000E+00 0. -1.
         11    1    3    3    0    0  0.66529015130E+01 -0.11327559086E+02  0.67031581897E+01  0.14748119316E+02  0.51100000000E-03 0. -1.
        -11    1    3    3    0    0  0.26239741856E+01 -0.14011826058E+02  0.58000323605E+00  0.14267197132E+02  0.51100000000E-03 0.  1.
         12    1    3    3    0    0 -0.58037234995E+01 -0.13601273301E+02  0.11563224332E+02  0.18771947124E+02  0.00000000000E+00 0. -1.
</event>
<event>
 7    1  0.2414091E-009  0.4778727E+02  0.7816164E-02  0.1312668E+00
        -11   -1    0    0    0    0  0.00000000000E+00  0.00000000000E+00  0.45593999997E+02  0.45594000000E+02  0.51100000000E-03 0. -1.
         11   -1    0    0    0    0 -0.00000000000E+00 -0.00000000000E+00 -0.45593999997E+02  0.45594000000E+02  0.51100000000E-03 0.  1.
    9900012    2    1    2    0    0 -0.36223238697E+02  0.21979285266E+02 -0.94027268853E+01  0.47787271027E+02  0.19999999922E+02 0.  0.
         12    1    1    2    0    0  0.36223238697E+02 -0.21979285266E+02  0.94027268853E+01  0.43400728973E+02  0.00000000000E+00 0. -1.
         11    1    3    3    0    0 -0.50773720082E+00  0.56159118709E+01 -0.43602060548E+01  0.71279492359E+01  0.51100000000E-03 0. -1.
        -11    1    3    3    0    0 -0.76079413663E+01  0.79258981592E+01 -0.92561875233E+00  0.11025307424E+02  0.51100000000E-03 0.  1.
        -12    1    3    3    0    0 -0.28107560129E+02  0.84374752362E+01 -0.41169020781E+01  0.29634014367E+02  0.00000000000E+00 0.  1.
</event>
<event>
 7    1  0.2414091E-009  0.4778727E+02  0.7816164E-02  0.1312668E+00
        -11   -1    0    0    0    0  0.00000000000E+00  0.00000000000E+00  0.45593999997E+02  0.45594000000E+02  0.51100000000E-03 0.  1.
         11   -1    0    0    0    0 -0.00000000000E+00 -0.00000000000E+00 -0.45593999997E+02  0.45594000000E+02  0.51100000000E-03 0. -1.
    9900012    2    1    2    0    0 -0.32403500671E+02  0.25969489740E+02  0.12618329265E+02  0.47787268594E+02  0.19999988829E+02 0.  0.
         12    1    1    2    0    0  0.32403500671E+02 -0.25969489740E+02 -0.12618329265E+02  0.43400731406E+02  0.00000000000E+00 0. -1.
         11    1    3    3    0    0 -0.78293994101E+01  0.83217752182E+01  0.10291809888E+01  0.11472168569E+02  0.51100000000E-03 0. -1.
        -11    1    3    3    0    0 -0.75818284362E+01  0.11505827618E+02 -0.17032547502E+01  0.13884137301E+02  0.51100000000E-03 0.  1.
        -12    1    3    3    0    0 -0.16992272825E+02  0.61418869042E+01  0.13292403027E+02  0.22430962724E+02  0.00000000000E+00 0.  1.
</event>
<event>
 7    1  0.2414091E-009  0.4778726E+02  0.7816164E-02  0.1312668E+00
        -11   -1    0    0    0    0  0.00000000000E+00  0.00000000000E+00  0.45593999997E+02  0.45594000000E+02  0.51100000000E-03 0.  1.
         11   -1    0    0    0    0 -0.00000000000E+00 -0.00000000000E+00 -0.45593999997E+02  0.45594000000E+02  0.51100000000E-03 0. -1.
    9900012    2    1    2    0    0  0.36843147993E+02 -0.17854581239E+02  0.14402110571E+02  0.47787257908E+02  0.19999940105E+02 0.  0.
         12    1    1    2    0    0 -0.36843147993E+02  0.17854581239E+02 -0.14402110571E+02  0.43400742092E+02  0.00000000000E+00 0. -1.
         11    1    3    3    0    0 -0.70219785602E-01 -0.38869112670E+00 -0.17269971826E+00  0.43108823235E+00  0.51100000000E-03 0. -1.
        -11    1    3    3    0    0  0.19650852899E+02  0.13659595041E+00  0.22111270269E+01  0.19775332136E+02  0.51100000000E-03 0.  1.
         12    1    3    3    0    0  0.17262514880E+02 -0.17602486063E+02  0.12363683262E+02  0.27580837539E+02  0.00000000000E+00 0. -1.
</event>
<event>
 7    1  0.2414091E-009  0.4778727E+02  0.7816164E-02  0.1312668E+00
        -11   -1    0    0    0    0  0.00000000000E+00  0.00000000000E+00  0.45593999997E+02  0.45594000000E+02  0.51100000000E-03 0.  1.
         11   -1    0    0    0    0 -0.00000000000E+00 -0.00000000000E+00 -0.45593999997E+02  0.45594000000E+02  0.51100000000E-03 0. -1.
    9900012    2    1    2    0    0  0.38664184329E+02 -0.14634869525E+01  0.19661191167E+02  0.47787269798E+02  0.19999994319E+02 0.  0.
         12    1    1    2    0    0 -0.38664184329E+02  0.14634869525E+01 -0.19661191167E+02  0.43400730202E+02  0.00000000000E+00 0. -1.
         11    1    3    3    0    0  0.15949147883E+02 -0.34606943287E+01  0.61961387697E+01  0.17456914370E+02  0.51100000000E-03 0. -1.
        -11    1    3    3    0    0  0.20689870917E+01 -0.48964754619E+01  0.16608986758E+01  0.55690900700E+01  0.51100000000E-03 0.  1.
        -12    1    3    3    0    0  0.20646049355E+02  0.68936828381E+01  0.11804153722E+02  0.24761265358E+02  0.00000000000E+00 0.  1.
</event>
<event>
 7    1  0.2414091E-009  0.4778727E+02  0.7816164E-02  0.1312668E+00
        -11   -1    0    0    0    0  0.00000000000E+00  0.00000000000E+00  0.45593999997E+02  0.45594000000E+02  0.51100000000E-03 0.  1.
         11   -1    0    0    0    0 -0.00000000000E+00 -0.00000000000E+00 -0.45593999997E+02  0.45594000000E+02  0.51100000000E-03 0. -1.
    9900012    2    1    2    0    0 -0.12918176698E+02 -0.14445353174E+02  0.38833952232E+02  0.47787270012E+02  0.19999995295E+02 0.  0.
         12    1    1    2    0    0  0.12918176698E+02  0.14445353174E+02 -0.38833952232E+02  0.43400729988E+02  0.00000000000E+00 0. -1.
         11    1    3    3    0    0  0.28022015544E+01 -0.10285255894E+01  0.23360192637E+01  0.37904069308E+01  0.51100000000E-03 0. -1.
        -11    1    3    3    0    0  0.13791614034E+01 -0.52890805568E+01  0.61549277544E+01  0.82316216651E+01  0.51100000000E-03 0.  1.
         12    1    3    3    0    0 -0.17099539656E+02 -0.81277470273E+01  0.30343005214E+02  0.35765241417E+02  0.00000000000E+00 0. -1.
</event>
<event>
 7    1  0.2414091E-009  0.4778727E+02  0.7816164E-02  0.1312668E+00
        -11   -1    0    0    0    0  0.00000000000E+00  0.00000000000E+00  0.45593999997E+02  0.45594000000E+02  0.51100000000E-03 0. -1.
         11   -1    0    0    0    0 -0.00000000000E+00 -0.00000000000E+00 -0.45593999997E+02  0.45594000000E+02  0.51100000000E-03 0.  1.
    9900012    2    1    2    0    0 -0.32474895400E+02 -0.28470497173E+02  0.42936320729E+01  0.47787270549E+02  0.19999997740E+02 0.  0.
         12    1    1    2    0    0  0.32474895400E+02  0.28470497173E+02 -0.42936320729E+01  0.43400729451E+02  0.00000000000E+00 0. -1.
         11    1    3    3    0    0 -0.86040381906E+01 -0.12591147648E+02  0.40675405757E+01  0.15783261984E+02  0.51100000000E-03 0. -1.
        -11    1    3    3    0    0  0.36949409097E+00 -0.14353713978E+01  0.33020333209E+01  0.36194255409E+01  0.51100000000E-03 0.  1.
        -12    1    3    3    0    0 -0.24240351301E+02 -0.14443978127E+02 -0.30759418237E+01  0.28384583024E+02  0.00000000000E+00 0.  1.
</event>
<event>
 7    1  0.2414091E-009  0.4778727E+02  0.7816164E-02  0.1312668E+00
        -11   -1    0    0    0    0  0.00000000000E+00  0.00000000000E+00  0.45593999997E+02  0.45594000000E+02  0.51100000000E-03 0.  1.
         11   -1    0    0    0    0 -0.00000000000E+00 -0.00000000000E+00 -0.45593999997E+02  0.45594000000E+02  0.51100000000E-03 0. -1.
    9900012    2    1    2    0    0  0.18022328231E+02  0.30784701631E+02  0.24720866204E+02  0.47787269646E+02  0.19999993624E+02 0.  0.
         12    1    1    2    0    0 -0.18022328231E+02 -0.30784701631E+02 -0.24720866204E+02  0.43400730354E+02  0.00000000000E+00 0. -1.
         11    1    3    3    0    0 -0.90127308375E+00  0.60695481478E+00  0.21165578521E+01  0.23791815233E+01  0.51100000000E-03 0. -1.
        -11    1    3    3    0    0  0.20799952294E+02  0.27188645451E+02  0.23787514204E+02  0.41685804408E+02  0.51100000000E-03 0.  1.
        -12    1    3    3    0    0 -0.18763509786E+01  0.29891013653E+01 -0.11832058518E+01  0.37222837150E+01  0.00000000000E+00 0.  1.
</event>
<event>
 7    1  0.2414091E-009  0.4778727E+02  0.7816164E-02  0.1312668E+00
        -11   -1    0    0    0    0  0.00000000000E+00  0.00000000000E+00  0.45593999997E+02  0.45594000000E+02  0.51100000000E-03 0.  1.
         11   -1    0    0    0    0 -0.00000000000E+00 -0.00000000000E+00 -0.45593999997E+02  0.45594000000E+02  0.51100000000E-03 0. -1.
    9900012    2    1    2    0    0  0.89266331915E+00  0.20061727566E+02  0.38475366748E+02  0.47787267205E+02  0.19999982496E+02 0.  0.
         12    1    1    2    0    0 -0.89266331915E+00 -0.20061727566E+02 -0.38475366748E+02  0.43400732795E+02  0.00000000000E+00 0. -1.
         11    1    3    3    0    0 -0.16685437475E+01  0.59986292697E+01  0.98393527903E+00  0.63036275467E+01  0.51100000000E-03 0. -1.
        -11    1    3    3    0    0 -0.35581597494E+01  0.54193400819E+01  0.90346082015E+01  0.11119977219E+02  0.51100000000E-03 0.  1.
         12    1    3    3    0    0  0.61193668160E+01  0.86437582141E+01  0.28456823268E+02  0.30363662440E+02  0.00000000000E+00 0. -1.
</event>
<event>
 7    1  0.2414091E-009  0.4778727E+02  0.7816164E-02  0.1312668E+00
        -11   -1    0    0    0    0  0.00000000000E+00  0.00000000000E+00  0.45593999997E+02  0.45594000000E+02  0.51100000000E-03 0.  1.
         11   -1    0    0    0    0 -0.00000000000E+00 -0.00000000000E+00 -0.45593999997E+02  0.45594000000E+02  0.51100000000E-03 0. -1.
    9900012    2    1    2    0    0 -0.11326577558E+02  0.40456579533E+02  0.10890251789E+02  0.47787265321E+02  0.19999973904E+02 0.  0.
         12    1    1    2    0    0  0.11326577558E+02 -0.40456579533E+02 -0.10890251789E+02  0.43400734679E+02  0.00000000000E+00 0. -1.
         11    1    3    3    0    0  0.90996979431E+00  0.13466484169E+01  0.41035474012E+00  0.16762751144E+01  0.51100000000E-03 0. -1.
        -11    1    3    3    0    0 -0.16122487212E+02  0.21737170686E+02  0.53843709816E+01  0.27594032588E+02  0.51100000000E-03 0.  1.
        -12    1    3    3    0    0  0.38859398600E+01  0.17372760430E+02  0.50955260670E+01  0.18516957619E+02  0.00000000000E+00 0.  1.
</event>
<event>
 7    1  0.2414091E-009  0.4778728E+02  0.7816164E-02  0.1312668E+00
        -11   -1    0    0    0    0  0.00000000000E+00  0.00000000000E+00  0.45593999997E+02  0.45594000000E+02  0.51100000000E-03 0.  1.
         11   -1    0    0    0    0 -0.00000000000E+00 -0.00000000000E+00 -0.45593999997E+02  0.45594000000E+02  0.51100000000E-03 0. -1.
    9900012    2    1    2    0    0  0.41007441907E+02  0.14197789740E+02  0.65982705290E+00  0.47787275386E+02  0.20000019797E+02 0.  0.
         12    1    1    2    0    0 -0.41007441907E+02 -0.14197789740E+02 -0.65982705290E+00  0.43400724614E+02  0.00000000000E+00 0. -1.
         11    1    3    3    0    0  0.58600669413E+01 -0.19664045623E+01  0.49544284713E+00  0.62010156696E+01  0.51100000000E-03 0. -1.
        -11    1    3    3    0    0  0.66529769777E+01  0.89310171482E+01  0.42206521977E+01  0.11909621119E+02  0.51100000000E-03 0.  1.
        -12    1    3    3    0    0  0.28494397988E+02  0.72331771546E+01 -0.40562679919E+01  0.29676638598E+02  0.00000000000E+00 0.  1.
</event>
<event>
 7    1  0.2414091E-009  0.4778727E+02  0.7816164E-02  0.1312668E+00
        -11   -1    0    0    0    0  0.00000000000E+00  0.00000000000E+00  0.45593999997E+02  0.45594000000E+02  0.51100000000E-03 0.  1.
         11   -1    0    0    0    0 -0.00000000000E+00 -0.00000000000E+00 -0.45593999997E+02  0.45594000000E+02  0.51100000000E-03 0. -1.
    9900012    2    1    2    0    0 -0.42630799675E+02 -0.42167006943E+01  0.69611761175E+01  0.47787267073E+02  0.19999981892E+02 0.  0.
         12    1    1    2    0    0  0.42630799675E+02  0.42167006943E+01 -0.69611761175E+01  0.43400732927E+02  0.00000000000E+00 0. -1.
         11    1    3    3    0    0 -0.30468326196E+01  0.21270531749E+00 -0.48245674414E+01  0.57100686355E+01  0.51100000000E-03 0. -1.
        -11    1    3    3    0    0 -0.63421223032E+01  0.75617488405E+00  0.40260502260E+01  0.75500593672E+01  0.51100000000E-03 0.  1.
         12    1    3    3    0    0 -0.33241844752E+02 -0.51855808958E+01  0.77596933329E+01  0.34527139070E+02  0.00000000000E+00 0. -1.
</event>
<event>
 7    1  0.2414091E-009  0.4778727E+02  0.7816164E-02  0.1312668E+00
        -11   -1    0    0    0    0  0.00000000000E+00  0.00000000000E+00  0.45593999997E+02  0.45594000000E+02  0.51100000000E-03 0.  1.
         11   -1    0    0    0    0 -0.00000000000E+00 -0.00000000000E+00 -0.45593999997E+02  0.45594000000E+02  0.51100000000E-03 0. -1.
    9900012    2    1    2    0    0  0.30907234839E+02 -0.13767486731E+02  0.27181281883E+02  0.47787274878E+02  0.20000017480E+02 0.  0.
         12    1    1    2    0    0 -0.30907234839E+02  0.13767486731E+02 -0.27181281883E+02  0.43400725122E+02  0.00000000000E+00 0. -1.
         11    1    3    3    0    0  0.32373373251E+01 -0.42310610219E+01 -0.26999821502E-02  0.53274982758E+01  0.51100000000E-03 0. -1.
        -11    1    3    3    0    0  0.67642509186E+01 -0.88533693631E+01  0.13320136777E+02  0.17365577548E+02  0.51100000000E-03 0.  1.
        -12    1    3    3    0    0  0.20905646596E+02 -0.68305634551E+00  0.13863845088E+02  0.25094199055E+02  0.00000000000E+00 0.  1.
</event>
<event>
 7    1  0.2414091E-009  0.4778727E+02  0.7816164E-02  0.1312668E+00
        -11   -1    0    0    0    0  0.00000000000E+00  0.00000000000E+00  0.45593999997E+02  0.45594000000E+02  0.51100000000E-03 0.  1.
         11   -1    0    0    0    0 -0.00000000000E+00 -0.00000000000E+00 -0.45593999997E+02  0.45594000000E+02  0.51100000000E-03 0. -1.
    9900012    2    1    2    0    0 -0.41238352250E+02  0.51574662523E+01  0.12506883514E+02  0.47787270862E+02  0.19999999169E+02 0.  0.
         12    1    1    2    0    0  0.41238352250E+02 -0.51574662523E+01 -0.12506883514E+02  0.43400729138E+02  0.00000000000E+00 0. -1.
         11    1    3    3    0    0 -0.99693862956E+01 -0.36529474693E+01  0.53696879466E+01  0.11898161086E+02  0.51100000000E-03 0. -1.
        -11    1    3    3    0    0 -0.14819178945E+02  0.57198823004E+00  0.90803376410E+01  0.17389300362E+02  0.51100000000E-03 0.  1.
        -12    1    3    3    0    0 -0.16449787009E+02  0.82384254915E+01 -0.19431420738E+01  0.18499809414E+02  0.00000000000E+00 0.  1.
</event>
<event>
 7    1  0.2414091E-009  0.4778727E+02  0.7816164E-02  0.1312668E+00
        -11   -1    0    0    0    0  0.00000000000E+00  0.00000000000E+00  0.45593999997E+02  0.45594000000E+02  0.51100000000E-03 0. -1.
         11   -1    0    0    0    0 -0.00000000000E+00 -0.00000000000E+00 -0.45593999997E+02  0.45594000000E+02  0.51100000000E-03 0.  1.
    9900012    2    1    2    0    0 -0.23172942381E+02  0.32963698563E+02 -0.16125527857E+02  0.47787270395E+02  0.19999997041E+02 0.  0.
         12    1    1    2    0    0  0.23172942381E+02 -0.32963698563E+02  0.16125527857E+02  0.43400729605E+02  0.00000000000E+00 0. -1.
         11    1    3    3    0    0 -0.76901391886E+01  0.13016323782E+02 -0.37559889654E+01  0.15577881079E+02  0.51100000000E-03 0. -1.
        -11    1    3    3    0    0 -0.16901084190E+01  0.12480081332E+02 -0.61468506315E+00  0.12608994191E+02  0.51100000000E-03 0.  1.
         12    1    3    3    0    0 -0.13792694774E+02  0.74672934496E+01 -0.11754853828E+02  0.19600395126E+02  0.00000000000E+00 0. -1.
</event>
<event>
 7    1  0.2414091E-009  0.4778727E+02  0.7816164E-02  0.1312668E+00
        -11   -1    0    0    0    0  0.00000000000E+00  0.00000000000E+00  0.45593999997E+02  0.45594000000E+02  0.51100000000E-03 0.  1.
         11   -1    0    0    0    0 -0.00000000000E+00 -0.00000000000E+00 -0.45593999997E+02  0.45594000000E+02  0.51100000000E-03 0. -1.
    9900012    2    1    2    0    0 -0.11175784651E+01  0.14741709543E+02  0.40805101314E+02  0.47787271030E+02  0.19999999935E+02 0.  0.
         12    1    1    2    0    0  0.11175784651E+01 -0.14741709543E+02 -0.40805101314E+02  0.43400728970E+02  0.00000000000E+00 0. -1.
         11    1    3    3    0    0  0.43347449176E+01  0.58727224807E+01  0.53861637397E+01  0.90713638957E+01  0.51100000000E-03 0. -1.
        -11    1    3    3    0    0 -0.50087272894E+01  0.10708089850E+01  0.44751263558E+01  0.68015246161E+01  0.51100000000E-03 0.  1.
        -12    1    3    3    0    0 -0.44359609329E+00  0.77981780774E+01  0.30943811218E+02  0.31914382518E+02  0.00000000000E+00 0.  1.
</event>
<event>
 7    1  0.2414091E-009  0.4778727E+02  0.7816164E-02  0.1312668E+00
        -11   -1    0    0    0    0  0.00000000000E+00  0.00000000000E+00  0.45593999997E+02  0.45594000000E+02  0.51100000000E-03 0.  1.
         11   -1    0    0    0    0 -0.00000000000E+00 -0.00000000000E+00 -0.45593999997E+02  0.45594000000E+02  0.51100000000E-03 0. -1.
    9900012    2    1    2    0    0  0.73428251831E+01 -0.23766486236E+00  0.42774405911E+02  0.47787269968E+02  0.19999995091E+02 0.  0.
         12    1    1    2    0    0 -0.73428251831E+01  0.23766486236E+00 -0.42774405911E+02  0.43400730032E+02  0.00000000000E+00 0. -1.
         11    1    3    3    0    0 -0.35289041115E+01 -0.60877824619E+00  0.33205861336E+01  0.48836531114E+01  0.51100000000E-03 0. -1.
        -11    1    3    3    0    0  0.55840234369E+01  0.47658565155E+01  0.86667445724E+01  0.11358132233E+02  0.51100000000E-03 0.  1.
        -12    1    3    3    0    0  0.52877058576E+01 -0.43947431317E+01  0.30787075206E+02  0.31545484624E+02  0.00000000000E+00 0.  1.
</event>
<event>
 7    1  0.2414091E-009  0.4778727E+02  0.7816164E-02  0.1312668E+00
        -11   -1    0    0    0    0  0.00000000000E+00  0.00000000000E+00  0.45593999997E+02  0.45594000000E+02  0.51100000000E-03 0.  1.
         11   -1    0    0    0    0 -0.00000000000E+00 -0.00000000000E+00 -0.45593999997E+02  0.45594000000E+02  0.51100000000E-03 0. -1.
    9900012    2    1    2    0    0 -0.41741877028E+02  0.93692412220E+01 -0.73114136378E+01  0.47787265579E+02  0.19999975080E+02 0.  0.
         12    1    1    2    0    0  0.41741877028E+02 -0.93692412220E+01  0.73114136378E+01  0.43400734421E+02  0.00000000000E+00 0. -1.
         11    1    3    3    0    0  0.65900715018E+00 -0.57258550648E-01 -0.23054902285E+01  0.23985108756E+01  0.51100000000E-03 0. -1.
        -11    1    3    3    0    0 -0.14550662670E+02  0.89974864666E+01 -0.10958717210E+00  0.17108142987E+02  0.51100000000E-03 0.  1.
        -12    1    3    3    0    0 -0.27850221509E+02  0.42901330602E+00 -0.48963362372E+01  0.28280611716E+02  0.00000000000E+00 0.  1.
</event>
<event>
 7    1  0.2414091E-009  0.4778727E+02  0.7816164E-02  0.1312668E+00
        -11   -1    0    0    0    0  0.00000000000E+00  0.00000000000E+00  0.45593999997E+02  0.45594000000E+02  0.51100000000E-03 0.  1.
         11   -1    0    0    0    0 -0.00000000000E+00 -0.00000000000E+00 -0.45593999997E+02  0.45594000000E+02  0.51100000000E-03 0. -1.
    9900012    2    1    2    0    0 -0.74940666013E+01 -0.16846751912E+02  0.39289304649E+02  0.47787267933E+02  0.19999985812E+02 0.  0.
         12    1    1    2    0    0  0.74940666013E+01  0.16846751912E+02 -0.39289304649E+02  0.43400732067E+02  0.00000000000E+00 0. -1.
         11    1    3    3    0    0 -0.48613317584E+01 -0.33380546265E+01  0.18426496214E+02  0.19347116533E+02  0.51100000000E-03 0. -1.
        -11    1    3    3    0    0 -0.40806410059E+01 -0.10879750533E+02  0.22274690917E+02  0.25123344889E+02  0.51100000000E-03 0.  1.
        -12    1    3    3    0    0  0.14479061630E+01 -0.26289467524E+01 -0.14118824829E+01  0.33168065107E+01  0.00000000000E+00 0.  1.
</event>
<event>
 7    1  0.2414091E-009  0.4778728E+02  0.7816164E-02  0.1312668E+00
        -11   -1    0    0    0    0  0.00000000000E+00  0.00000000000E+00  0.45593999997E+02  0.45594000000E+02  0.51100000000E-03 0.  1.
         11   -1    0    0    0    0 -0.00000000000E+00 -0.00000000000E+00 -0.45593999997E+02  0.45594000000E+02  0.51100000000E-03 0. -1.
    9900012    2    1    2    0    0  0.14162564877E+02  0.24367612677E+02  0.33003996926E+02  0.47787278755E+02  0.20000035156E+02 0.  0.
         12    1    1    2    0    0 -0.14162564877E+02 -0.24367612677E+02 -0.33003996926E+02  0.43400721245E+02  0.00000000000E+00 0. -1.
         11    1    3    3    0    0  0.10384908507E+02  0.10383909475E+02  0.21348019044E+02  0.25911576912E+02  0.51100000000E-03 0. -1.
        -11    1    3    3    0    0  0.51259452471E+01  0.12924819816E+02  0.13484634595E+02  0.19369090128E+02  0.51100000000E-03 0.  1.
         12    1    3    3    0    0 -0.13482888777E+01  0.10588833854E+01 -0.18286567122E+01  0.25066117155E+01  0.00000000000E+00 0. -1.
</event>
<event>
 7    1  0.2414091E-009  0.4778727E+02  0.7816164E-02  0.1312668E+00
        -11   -1    0    0    0    0  0.00000000000E+00  0.00000000000E+00  0.45593999997E+02  0.45594000000E+02  0.51100000000E-03 0.  1.
         11   -1    0    0    0    0 -0.00000000000E+00 -0.00000000000E+00 -0.45593999997E+02  0.45594000000E+02  0.51100000000E-03 0. -1.
    9900012    2    1    2    0    0  0.59609900856E+01 -0.42215763604E+02  0.81190846054E+01  0.47787266892E+02  0.19999981069E+02 0.  0.
         12    1    1    2    0    0 -0.59609900856E+01  0.42215763604E+02 -0.81190846054E+01  0.43400733108E+02  0.00000000000E+00 0. -1.
         11    1    3    3    0    0 -0.37445007282E+01 -0.16802023418E+02  0.59528744773E+01  0.18214444583E+02  0.51100000000E-03 0. -1.
        -11    1    3    3    0    0  0.80098185462E+00 -0.17622405482E+02  0.18409223027E+01  0.17736395973E+02  0.51100000000E-03 0.  1.
         12    1    3    3    0    0  0.89045089592E+01 -0.77913347031E+01  0.32528782544E+00  0.11836426337E+02  0.00000000000E+00 0. -1.
</event>
<event>
 7    1  0.2414091E-009  0.4778727E+02  0.7816164E-02  0.1312668E+00
        -11   -1    0    0    0    0  0.00000000000E+00  0.00000000000E+00  0.45593999997E+02  0.45594000000E+02  0.51100000000E-03 0. -1.
         11   -1    0    0    0    0 -0.00000000000E+00 -0.00000000000E+00 -0.45593999997E+02  0.45594000000E+02  0.51100000000E-03 0.  1.
    9900012    2    1    2    0    0 -0.20602263504E+02  0.12948132881E+02 -0.35937662048E+02  0.47787274660E+02  0.20000016484E+02 0.  0.
         12    1    1    2    0    0  0.20602263504E+02 -0.12948132881E+02  0.35937662048E+02  0.43400725340E+02  0.00000000000E+00 0. -1.
         11    1    3    3    0    0 -0.13454713468E+01  0.36891301561E+01 -0.49396026487E+01  0.63102812173E+01  0.51100000000E-03 0. -1.
        -11    1    3    3    0    0 -0.11259918333E+02  0.63843211295E+01 -0.45872822011E+01  0.13732751924E+02  0.51100000000E-03 0.  1.
        -12    1    3    3    0    0 -0.79968738241E+01  0.28746815950E+01 -0.26410777198E+02  0.27744241519E+02  0.00000000000E+00 0.  1.
</event>
<event>
 7    1  0.2414091E-009  0.4778724E+02  0.7816164E-02  0.1312668E+00
        -11   -1    0    0    0    0  0.00000000000E+00  0.00000000000E+00  0.45593999997E+02  0.45594000000E+02  0.51100000000E-03 0.  1.
         11   -1    0    0    0    0 -0.00000000000E+00 -0.00000000000E+00 -0.45593999997E+02  0.45594000000E+02  0.51100000000E-03 0. -1.
    9900012    2    1    2    0    0  0.42108154158E+02  0.85314877996E+01  0.61435152522E+01  0.47787242975E+02  0.19999872019E+02 0.  0.
         12    1    1    2    0    0 -0.42108154158E+02 -0.85314877996E+01 -0.61435152522E+01  0.43400757025E+02  0.00000000000E+00 0. -1.
         11    1    3    3    0    0  0.56595488198E+01 -0.33840515128E+01  0.29329482298E+00  0.66006302426E+01  0.51100000000E-03 0. -1.
        -11    1    3    3    0    0  0.74118255188E+01  0.25793341069E+01 -0.44153210764E+01  0.90046200600E+01  0.51100000000E-03 0.  1.
        -12    1    3    3    0    0  0.29036779820E+02  0.93362052055E+01  0.10265541506E+02  0.32181992672E+02  0.00000000000E+00 0.  1.
</event>
<event>
 7    1  0.2414091E-009  0.4778727E+02  0.7816164E-02  0.1312668E+00
        -11   -1    0    0    0    0  0.00000000000E+00  0.00000000000E+00  0.45593999997E+02  0.45594000000E+02  0.51100000000E-03 0. -1.
         11   -1    0    0    0    0 -0.00000000000E+00 -0.00000000000E+00 -0.45593999997E+02  0.45594000000E+02  0.51100000000E-03 0.  1.
    9900012    2    1    2    0    0 -0.84872038801E+01 -0.40702856691E+02 -0.12444594438E+02  0.47787273011E+02  0.20000008965E+02 0.  0.
         12    1    1    2    0    0  0.84872038801E+01  0.40702856691E+02  0.12444594438E+02  0.43400726989E+02  0.00000000000E+00 0. -1.
         11    1    3    3    0    0  0.24177479499E+01 -0.48678739528E+01 -0.49529821349E+01  0.73534844978E+01  0.51100000000E-03 0.  1.
        -11    1    3    3    0    0 -0.21523188335E+01  0.56006477405E+00 -0.10160281114E+01  0.24450894250E+01  0.51100000000E-03 0. -1.
        -12    1    3    3    0    0 -0.87526329965E+01 -0.36395047512E+02 -0.64755841919E+01  0.37988699088E+02  0.00000000000E+00 0.  1.
</event>
<event>
 7    1  0.2414091E-009  0.4778727E+02  0.7816164E-02  0.1312668E+00
        -11   -1    0    0    0    0  0.00000000000E+00  0.00000000000E+00  0.45593999997E+02  0.45594000000E+02  0.51100000000E-03 0.  1.
         11   -1    0    0    0    0 -0.00000000000E+00 -0.00000000000E+00 -0.45593999997E+02  0.45594000000E+02  0.51100000000E-03 0. -1.
    9900012    2    1    2    0    0  0.27106983841E+02  0.29271013382E+02  0.17089246065E+02  0.47787272720E+02  0.20000007638E+02 0.  0.
         12    1    1    2    0    0 -0.27106983841E+02 -0.29271013382E+02 -0.17089246065E+02  0.43400727280E+02  0.00000000000E+00 0. -1.
         11    1    3    3    0    0  0.15749125058E+02  0.12650574118E+02  0.91908182586E+01  0.22193312194E+02  0.51100000000E-03 0. -1.
        -11    1    3    3    0    0  0.77830731655E+01  0.15265639086E+02  0.11259638554E+02  0.20503546650E+02  0.51100000000E-03 0.  1.
         12    1    3    3    0    0  0.35747856178E+01  0.13548001773E+01 -0.33612107473E+01  0.50904138753E+01  0.00000000000E+00 0. -1.
</event>
<event>
 7    1  0.2414091E-009  0.4778724E+02  0.7816164E-02  0.1312668E+00
        -11   -1    0    0    0    0  0.00000000000E+00  0.00000000000E+00  0.45593999997E+02  0.45594000000E+02  0.51100000000E-03 0.  1.
         11   -1    0    0    0    0 -0.00000000000E+00 -0.00000000000E+00 -0.45593999997E+02  0.45594000000E+02  0.51100000000E-03 0. -1.
    9900012    2    1    2    0    0  0.10640359956E+02 -0.33806268833E+01  0.41940195643E+02  0.47787240690E+02  0.19999861600E+02 0.  0.
         12    1    1    2    0    0 -0.10640359956E+02  0.33806268833E+01 -0.41940195643E+02  0.43400759310E+02  0.00000000000E+00 0. -1.
         11    1    3    3    0    0  0.66688999092E+01  0.73655072440E+01  0.20106888508E+02  0.22427926535E+02  0.51100000000E-03 0. -1.
        -11    1    3    3    0    0 -0.14403601564E+01 -0.14013878930E+01  0.46339502752E+01  0.50509425676E+01  0.51100000000E-03 0.  1.
         12    1    3    3    0    0  0.54118202033E+01 -0.93447462343E+01  0.17199356860E+02  0.20308371587E+02  0.00000000000E+00 0. -1.
</event>
<event>
 7    1  0.2414091E-009  0.4778726E+02  0.7816164E-02  0.1312668E+00
        -11   -1    0    0    0    0  0.00000000000E+00  0.00000000000E+00  0.45593999997E+02  0.45594000000E+02  0.51100000000E-03 0.  1.
         11   -1    0    0    0    0 -0.00000000000E+00 -0.00000000000E+00 -0.45593999997E+02  0.45594000000E+02  0.51100000000E-03 0. -1.
    9900012    2    1    2    0    0  0.29367537300E+02 -0.11667529878E+02  0.29749640268E+02  0.47787255806E+02  0.19999930520E+02 0.  0.
         12    1    1    2    0    0 -0.29367537300E+02  0.11667529878E+02 -0.29749640268E+02  0.43400744194E+02  0.00000000000E+00 0. -1.
         11    1    3    3    0    0  0.74533315015E+01 -0.75050190148E+01  0.49226269908E+01  0.11666606946E+02  0.51100000000E-03 0. -1.
        -11    1    3    3    0    0  0.32182151371E+01 -0.50787636746E+01  0.14719821683E+01  0.61901115415E+01  0.51100000000E-03 0.  1.
        -12    1    3    3    0    0  0.18695990662E+02  0.91625281123E+00  0.23355031109E+02  0.29930537318E+02  0.00000000000E+00 0.  1.
</event>
<event>
 7    1  0.2414091E-009  0.4778728E+02  0.7816164E-02  0.1312668E+00
        -11   -1    0    0    0    0  0.00000000000E+00  0.00000000000E+00  0.45593999997E+02  0.45594000000E+02  0.51100000000E-03 0.  1.
         11   -1    0    0    0    0 -0.00000000000E+00 -0.00000000000E+00 -0.45593999997E+02  0.45594000000E+02  0.51100000000E-03 0. -1.
    9900012    2    1    2    0    0  0.37462537225E+02  0.21126963431E+02  0.58165649483E+01  0.47787277576E+02  0.20000029780E+02 0.  0.
         12    1    1    2    0    0 -0.37462537225E+02 -0.21126963431E+02 -0.58165649483E+01  0.43400722424E+02  0.00000000000E+00 0. -1.
         11    1    3    3    0    0  0.76247522713E+01  0.31038406778E+01  0.67079765888E+01  0.10619210156E+02  0.51100000000E-03 0. -1.
        -11    1    3    3    0    0  0.26320359444E+02  0.15533138055E+02  0.38003454642E+01  0.30797440234E+02  0.51100000000E-03 0.  1.
         12    1    3    3    0    0  0.35174255101E+01  0.24899846974E+01 -0.46917571047E+01  0.63706271859E+01  0.00000000000E+00 0. -1.
</event>
<event>
 7    1  0.2414091E-009  0.4778727E+02  0.7816164E-02  0.1312668E+00
        -11   -1    0    0    0    0  0.00000000000E+00  0.00000000000E+00  0.45593999997E+02  0.45594000000E+02  0.51100000000E-03 0.  1.
         11   -1    0    0    0    0 -0.00000000000E+00 -0.00000000000E+00 -0.45593999997E+02  0.45594000000E+02  0.51100000000E-03 0. -1.
    9900012    2    1    2    0    0  0.10028834285E+02 -0.28441501260E+02  0.31211005259E+02  0.47787270049E+02  0.19999995461E+02 0.  0.
         12    1    1    2    0    0 -0.10028834285E+02  0.28441501260E+02 -0.31211005259E+02  0.43400729951E+02  0.00000000000E+00 0. -1.
         11    1    3    3    0    0  0.84436890016E+01 -0.15990681391E+02  0.14364274873E+02  0.23093942240E+02  0.51100000000E-03 0.  1.
        -11    1    3    3    0    0  0.63351407357E+01 -0.25594980634E+01  0.45306507070E+01  0.81982824158E+01  0.51100000000E-03 0. -1.
        -12    1    3    3    0    0 -0.47499954526E+01 -0.98913218055E+01  0.12316079679E+02  0.16495045393E+02  0.00000000000E+00 0.  1.
</event>
<event>
 7    1  0.2414091E-009  0.4778727E+02  0.7816164E-02  0.1312668E+00
        -11   -1    0    0    0    0  0.00000000000E+00  0.00000000000E+00  0.45593999997E+02  0.45594000000E+02  0.51100000000E-03 0.  1.
         11   -1    0    0    0    0 -0.00000000000E+00 -0.00000000000E+00 -0.45593999997E+02  0.45594000000E+02  0.51100000000E-03 0. -1.
    9900012    2    1    2    0    0  0.31065284110E+02 -0.12242143813E+02  0.27725469251E+02  0.47787267205E+02  0.19999982494E+02 0.  0.
         12    1    1    2    0    0 -0.31065284110E+02  0.12242143813E+02 -0.27725469251E+02  0.43400732795E+02  0.00000000000E+00 0. -1.
         11    1    3    3    0    0  0.53578945114E+01 -0.69954860396E+01  0.10927252403E+02  0.14037403744E+02  0.51100000000E-03 0. -1.
        -11    1    3    3    0    0 -0.13546298591E+01 -0.10556010907E+00  0.21708985600E+01  0.25610477955E+01  0.51100000000E-03 0.  1.
         12    1    3    3    0    0  0.27062019457E+02 -0.51410976647E+01  0.14627318288E+02  0.31188815665E+02  0.00000000000E+00 0. -1.
</event>
<event>
 7    1  0.2414091E-009  0.4778727E+02  0.7816164E-02  0.1312668E+00
        -11   -1    0    0    0    0  0.00000000000E+00  0.00000000000E+00  0.45593999997E+02  0.45594000000E+02  0.51100000000E-03 0.  1.
         11   -1    0    0    0    0 -0.00000000000E+00 -0.00000000000E+00 -0.45593999997E+02  0.45594000000E+02  0.51100000000E-03 0. -1.
    9900012    2    1    2    0    0  0.32066674447E-01 -0.55722939951E+01  0.43041512863E+02  0.47787270534E+02  0.19999997672E+02 0.  0.
         12    1    1    2    0    0 -0.32066674447E-01  0.55722939951E+01 -0.43041512863E+02  0.43400729466E+02  0.00000000000E+00 0. -1.
         11    1    3    3    0    0 -0.51176970428E+01 -0.11892584058E+01  0.80576178678E+01  0.96192704787E+01  0.51100000000E-03 0. -1.
        -11    1    3    3    0    0  0.20646817245E+01 -0.49515308901E+01  0.32353036066E+01  0.62648031467E+01  0.51100000000E-03 0.  1.
        -12    1    3    3    0    0  0.30850819928E+01  0.56849530078E+00  0.31748591389E+02  0.31903196908E+02  0.00000000000E+00 0.  1.
</event>
<event>
 7    1  0.2414091E-009  0.4778725E+02  0.7816164E-02  0.1312668E+00
        -11   -1    0    0    0    0  0.00000000000E+00  0.00000000000E+00  0.45593999997E+02  0.45594000000E+02  0.51100000000E-03 0.  1.
         11   -1    0    0    0    0 -0.00000000000E+00 -0.00000000000E+00 -0.45593999997E+02  0.45594000000E+02  0.51100000000E-03 0. -1.
    9900012    2    1    2    0    0 -0.21976976586E+02 -0.23260598672E+02  0.29318626105E+02  0.47787253611E+02  0.19999920512E+02 0.  0.
         12    1    1    2    0    0  0.21976976586E+02  0.23260598672E+02 -0.29318626105E+02  0.43400746389E+02  0.00000000000E+00 0. -1.
         11    1    3    3    0    0 -0.76905701842E+01 -0.64625077744E+01  0.34797016475E+01  0.10630954816E+02  0.51100000000E-03 0. -1.
        -11    1    3    3    0    0 -0.17468570616E+02 -0.14881536680E+02  0.21523332748E+02  0.31462119226E+02  0.51100000000E-03 0.  1.
        -12    1    3    3    0    0  0.31821642140E+01 -0.19165542176E+01  0.43155917092E+01  0.56941795682E+01  0.00000000000E+00 0.  1.
</event>
<event>
 7    1  0.2414091E-009  0.4778732E+02  0.7816164E-02  0.1312668E+00
        -11   -1    0    0    0    0  0.00000000000E+00  0.00000000000E+00  0.45593999997E+02  0.45594000000E+02  0.51100000000E-03 0. -1.
         11   -1    0    0    0    0 -0.00000000000E+00 -0.00000000000E+00 -0.45593999997E+02  0.45594000000E+02  0.51100000000E-03 0.  1.
    9900012    2    1    2    0    0 -0.40959502634E+01 -0.56830638663E+01 -0.42831591688E+02  0.47787317171E+02  0.20000210310E+02 0.  0.
         12    1    1    2    0    0  0.40959502634E+01  0.56830638663E+01  0.42831591688E+02  0.43400682829E+02  0.00000000000E+00 0. -1.
         11    1    3    3    0    0 -0.28347791883E+01 -0.14644410044E+00 -0.10731916576E+01  0.30346597035E+01  0.51100000000E-03 0. -1.
        -11    1    3    3    0    0 -0.96296670654E+00  0.52297841192E+01 -0.13215756799E+02  0.14245496651E+02  0.51100000000E-03 0.  1.
         12    1    3    3    0    0 -0.29820436859E+00 -0.10766403885E+02 -0.28542643231E+02  0.30507160816E+02  0.00000000000E+00 0. -1.
</event>
<event>
 7    1  0.2414091E-009  0.4778731E+02  0.7816164E-02  0.1312668E+00
        -11   -1    0    0    0    0  0.00000000000E+00  0.00000000000E+00  0.45593999997E+02  0.45594000000E+02  0.51100000000E-03 0.  1.
         11   -1    0    0    0    0 -0.00000000000E+00 -0.00000000000E+00 -0.45593999997E+02  0.45594000000E+02  0.51100000000E-03 0. -1.
    9900012    2    1    2    0    0  0.14888571954E+02  0.20546587054E+02  0.35210625498E+02  0.47787309195E+02  0.20000173941E+02 0.  0.
         12    1    1    2    0    0 -0.14888571954E+02 -0.20546587054E+02 -0.35210625498E+02  0.43400690805E+02  0.00000000000E+00 0. -1.
         11    1    3    3    0    0  0.26835203914E+01  0.10246146570E+02  0.17254129893E+02  0.20245735350E+02  0.51100000000E-03 0. -1.
        -11    1    3    3    0    0  0.72545327006E+01  0.12648723985E+02  0.92935938244E+01  0.17291308498E+02  0.51100000000E-03 0.  1.
        -12    1    3    3    0    0  0.49505188621E+01 -0.23482835009E+01  0.86629017808E+01  0.10250265346E+02  0.00000000000E+00 0.  1.
</event>
<event>
 7    1  0.2414091E-009  0.4778727E+02  0.7816164E-02  0.1312668E+00
        -11   -1    0    0    0    0  0.00000000000E+00  0.00000000000E+00  0.45593999997E+02  0.45594000000E+02  0.51100000000E-03 0. -1.
         11   -1    0    0    0    0 -0.00000000000E+00 -0.00000000000E+00 -0.45593999997E+02  0.45594000000E+02  0.51100000000E-03 0.  1.
    9900012    2    1    2    0    0  0.75090608220E+01  0.23270903392E+02 -0.35856692164E+02  0.47787270604E+02  0.19999997994E+02 0.  0.
         12    1    1    2    0    0 -0.75090608220E+01 -0.23270903392E+02  0.35856692164E+02  0.43400729396E+02  0.00000000000E+00 0. -1.
         11    1    3    3    0    0 -0.45024182648E+00  0.41496296979E+01 -0.11805953858E+02  0.12522088128E+02  0.51100000000E-03 0.  1.
        -11    1    3    3    0    0  0.11772242321E+02  0.12706766968E+02 -0.20951981236E+02  0.27185163858E+02  0.51100000000E-03 0. -1.
         12    1    3    3    0    0 -0.38129396722E+01  0.64145067262E+01 -0.30987570702E+01  0.80800186179E+01  0.00000000000E+00 0. -1.
</event>
<event>
 7    1  0.2414091E-009  0.4778727E+02  0.7816164E-02  0.1312668E+00
        -11   -1    0    0    0    0  0.00000000000E+00  0.00000000000E+00  0.45593999997E+02  0.45594000000E+02  0.51100000000E-03 0.  1.
         11   -1    0    0    0    0 -0.00000000000E+00 -0.00000000000E+00 -0.45593999997E+02  0.45594000000E+02  0.51100000000E-03 0. -1.
    9900012    2    1    2    0    0 -0.80906191317E+01 -0.15151652517E+02  0.39857150670E+02  0.47787272455E+02  0.20000006431E+02 0.  0.
         12    1    1    2    0    0  0.80906191317E+01  0.15151652517E+02 -0.39857150670E+02  0.43400727545E+02  0.00000000000E+00 0. -1.
         11    1    3    3    0    0 -0.41137639049E+01  0.22893619725E+01  0.75280011669E+01  0.88789094790E+01  0.51100000000E-03 0. -1.
        -11    1    3    3    0    0 -0.36109813015E+01 -0.23377425867E+01  0.16398092116E+02  0.16952924575E+02  0.51100000000E-03 0.  1.
         12    1    3    3    0    0 -0.36587392529E+00 -0.15103271902E+02  0.15931057387E+02  0.21955438401E+02  0.00000000000E+00 0. -1.
</event>
<event>
 7    1  0.2414091E-009  0.4778729E+02  0.7816164E-02  0.1312668E+00
        -11   -1    0    0    0    0  0.00000000000E+00  0.00000000000E+00  0.45593999997E+02  0.45594000000E+02  0.51100000000E-03 0. -1.
         11   -1    0    0    0    0 -0.00000000000E+00 -0.00000000000E+00 -0.45593999997E+02  0.45594000000E+02  0.51100000000E-03 0.  1.
    9900012    2    1    2    0    0 -0.22630801290E+02  0.30208310052E+02 -0.21422574498E+02  0.47787287318E+02  0.20000074196E+02 0.  0.
         12    1    1    2    0    0  0.22630801290E+02 -0.30208310052E+02  0.21422574498E+02  0.43400712682E+02  0.00000000000E+00 0. -1.
         11    1    3    3    0    0 -0.85789283712E+01  0.98313604348E+01 -0.95523391678E+01  0.16170987720E+02  0.51100000000E-03 0. -1.
        -11    1    3    3    0    0 -0.15945411213E+02  0.10451760315E+02 -0.91775543863E+01  0.21159464483E+02  0.51100000000E-03 0.  1.
         12    1    3    3    0    0  0.18935382940E+01  0.99251893019E+01 -0.26926809438E+01  0.10456835115E+02  0.00000000000E+00 0. -1.
</event>
<event>
 7    1  0.2414091E-009  0.4778727E+02  0.7816164E-02  0.1312668E+00
        -11   -1    0    0    0    0  0.00000000000E+00  0.00000000000E+00  0.45593999997E+02  0.45594000000E+02  0.51100000000E-03 0. -1.
         11   -1    0    0    0    0 -0.00000000000E+00 -0.00000000000E+00 -0.45593999997E+02  0.45594000000E+02  0.51100000000E-03 0.  1.
    9900012    2    1    2    0    0 -0.37773310273E+02  0.42130343980E+01 -0.20953539678E+02  0.47787268982E+02  0.19999990599E+02 0.  0.
         12    1    1    2    0    0  0.37773310273E+02 -0.42130343980E+01  0.20953539678E+02  0.43400731018E+02  0.00000000000E+00 0. -1.
         11    1    3    3    0    0 -0.99063472444E+01  0.76265770022E+01 -0.77678309299E+01  0.14718681670E+02  0.51100000000E-03 0. -1.
        -11    1    3    3    0    0 -0.18828593784E+02  0.27115712161E+01 -0.10862842670E+02  0.21905933294E+02  0.51100000000E-03 0.  1.
         12    1    3    3    0    0 -0.90383692443E+01 -0.61251138202E+01 -0.23228660780E+01  0.11162654018E+02  0.00000000000E+00 0. -1.
</event>
<event>
 7    1  0.2414091E-009  0.4778726E+02  0.7816164E-02  0.1312668E+00
        -11   -1    0    0    0    0  0.00000000000E+00  0.00000000000E+00  0.45593999997E+02  0.45594000000E+02  0.51100000000E-03 0. -1.
         11   -1    0    0    0    0 -0.00000000000E+00 -0.00000000000E+00 -0.45593999997E+02  0.45594000000E+02  0.51100000000E-03 0.  1.
    9900012    2    1    2    0    0  0.22660118479E+02  0.26851543312E+02 -0.25478186619E+02  0.47787258749E+02  0.19999943940E+02 0.  0.
         12    1    1    2    0    0 -0.22660118479E+02 -0.26851543312E+02  0.25478186619E+02  0.43400741251E+02  0.00000000000E+00 0. -1.
         11    1    3    3    0    0  0.52614535926E+01  0.77778208063E+01 -0.10934483396E+02  0.14413199429E+02  0.51100000000E-03 0. -1.
        -11    1    3    3    0    0  0.11210034573E+02  0.11805284046E+02 -0.16978467837E+02  0.23522286813E+02  0.51100000000E-03 0.  1.
         12    1    3    3    0    0  0.61886303130E+01  0.72684384603E+01  0.24347646134E+01  0.98517725068E+01  0.00000000000E+00 0. -1.
</event>
<event>
 7    1  0.2414091E-009  0.4778727E+02  0.7816164E-02  0.1312668E+00
        -11   -1    0    0    0    0  0.00000000000E+00  0.00000000000E+00  0.45593999997E+02  0.45594000000E+02  0.51100000000E-03 0. -1.
         11   -1    0    0    0    0 -0.00000000000E+00 -0.00000000000E+00 -0.45593999997E+02  0.45594000000E+02  0.51100000000E-03 0.  1.
    9900012    2    1    2    0    0 -0.35903464395E+00  0.37721165859E+00 -0.43397601848E+02  0.47787273731E+02  0.20000012251E+02 0.  0.
         12    1    1    2    0    0  0.35903464395E+00 -0.37721165859E+00  0.43397601848E+02  0.43400726269E+02  0.00000000000E+00 0. -1.
         11    1    3    3    0    0 -0.48311396040E+00 -0.24655515049E+01 -0.43911636257E+01  0.50591166789E+01  0.51100000000E-03 0. -1.
        -11    1    3    3    0    0 -0.18164600514E+00 -0.40305583160E+01 -0.33952238310E+02  0.34191122855E+02  0.51100000000E-03 0.  1.
         12    1    3    3    0    0  0.30572532160E+00  0.68733214795E+01 -0.50541999124E+01  0.85370341974E+01  0.00000000000E+00 0. -1.
</event>
<event>
 7    1  0.2414091E-009  0.4778727E+02  0.7816164E-02  0.1312668E+00
        -11   -1    0    0    0    0  0.00000000000E+00  0.00000000000E+00  0.45593999997E+02  0.45594000000E+02  0.51100000000E-03 0.  1.
         11   -1    0    0    0    0 -0.00000000000E+00 -0.00000000000E+00 -0.45593999997E+02  0.45594000000E+02  0.51100000000E-03 0. -1.
    9900012    2    1    2    0    0  0.28370956744E+02  0.31285102704E+02  0.99977088897E+01  0.47787273960E+02  0.20000013294E+02 0.  0.
         12    1    1    2    0    0 -0.28370956744E+02 -0.31285102704E+02 -0.99977088897E+01  0.43400726040E+02  0.00000000000E+00 0. -1.
         11    1    3    3    0    0  0.14213866745E+01  0.78402725749E+01  0.35197907372E+01  0.87108634028E+01  0.51100000000E-03 0. -1.
        -11    1    3    3    0    0  0.29937838644E+01 -0.18181701011E+01  0.18313066293E+01  0.39524889089E+01  0.51100000000E-03 0.  1.
        -12    1    3    3    0    0  0.23955786205E+02  0.25263000230E+02  0.46466115232E+01  0.35123921648E+02  0.00000000000E+00 0.  1.
</event>
<event>
 7    1  0.2414091E-009  0.4778727E+02  0.7816164E-02  0.1312668E+00
        -11   -1    0    0    0    0  0.00000000000E+00  0.00000000000E+00  0.45593999997E+02  0.45594000000E+02  0.51100000000E-03 0.  1.
         11   -1    0    0    0    0 -0.00000000000E+00 -0.00000000000E+00 -0.45593999997E+02  0.45594000000E+02  0.51100000000E-03 0. -1.
    9900012    2    1    2    0    0 -0.29834156895E+02 -0.29567297620E+01  0.31381591195E+02  0.47787269194E+02  0.19999991564E+02 0.  0.
         12    1    1    2    0    0  0.29834156895E+02  0.29567297620E+01 -0.31381591195E+02  0.43400730806E+02  0.00000000000E+00 0. -1.
         11    1    3    3    0    0 -0.18752216826E+02 -0.28455865709E+01  0.18108713473E+02  0.26223434228E+02  0.51100000000E-03 0. -1.
        -11    1    3    3    0    0 -0.97656668230E+01 -0.15543182922E+01  0.19567036594E+01  0.10080319604E+02  0.51100000000E-03 0.  1.
         12    1    3    3    0    0 -0.13162732460E+01  0.14431751011E+01  0.11316174063E+02  0.11483515362E+02  0.00000000000E+00 0. -1.
</event>
<event>
 7    1  0.2414091E-009  0.4778727E+02  0.7816164E-02  0.1312668E+00
        -11   -1    0    0    0    0  0.00000000000E+00  0.00000000000E+00  0.45593999997E+02  0.45594000000E+02  0.51100000000E-03 0. -1.
         11   -1    0    0    0    0 -0.00000000000E+00 -0.00000000000E+00 -0.45593999997E+02  0.45594000000E+02  0.51100000000E-03 0.  1.
    9900012    2    1    2    0    0 -0.12332830365E+02 -0.41135690765E+02  0.62753067087E+01  0.47787271506E+02  0.20000002104E+02 0.  0.
         12    1    1    2    0    0  0.12332830365E+02  0.41135690765E+02 -0.62753067087E+01  0.43400728494E+02  0.00000000000E+00 0. -1.
         11    1    3    3    0    0  0.19474584027E+01 -0.61774288241E+01 -0.44638117148E+00  0.64924939367E+01  0.51100000000E-03 0. -1.
        -11    1    3    3    0    0  0.50596480911E+00 -0.80545182059E+01 -0.36954536339E+01  0.88762402930E+01  0.51100000000E-03 0.  1.
        -12    1    3    3    0    0 -0.14786253577E+02 -0.26903743735E+02  0.10417141514E+02  0.32418537276E+02  0.00000000000E+00 0.  1.
</event>
<event>
 7    1  0.2414091E-009  0.4778727E+02  0.7816164E-02  0.1312668E+00
        -11   -1    0    0    0    0  0.00000000000E+00  0.00000000000E+00  0.45593999997E+02  0.45594000000E+02  0.51100000000E-03 0.  1.
         11   -1    0    0    0    0 -0.00000000000E+00 -0.00000000000E+00 -0.45593999997E+02  0.45594000000E+02  0.51100000000E-03 0. -1.
    9900012    2    1    2    0    0  0.22633166099E+01  0.18778328769E+02  0.39062448857E+02  0.47787272539E+02  0.20000006813E+02 0.  0.
         12    1    1    2    0    0 -0.22633166099E+01 -0.18778328769E+02 -0.39062448857E+02  0.43400727461E+02  0.00000000000E+00 0. -1.
         11    1    3    3    0    0  0.15873734529E+01  0.10340414738E+00  0.45842131332E+01  0.48523661453E+01  0.51100000000E-03 0.  1.
        -11    1    3    3    0    0  0.63042705979E+01  0.32655367936E+00  0.71110131253E+01  0.95087839920E+01  0.51100000000E-03 0. -1.
         12    1    3    3    0    0 -0.56283274409E+01  0.18348370942E+02  0.27367222599E+02  0.33426122401E+02  0.00000000000E+00 0. -1.
</event>
<event>
 7    1  0.2414091E-009  0.4778727E+02  0.7816164E-02  0.1312668E+00
        -11   -1    0    0    0    0  0.00000000000E+00  0.00000000000E+00  0.45593999997E+02  0.45594000000E+02  0.51100000000E-03 0.  1.
         11   -1    0    0    0    0 -0.00000000000E+00 -0.00000000000E+00 -0.45593999997E+02  0.45594000000E+02  0.51100000000E-03 0. -1.
    9900012    2    1    2    0    0  0.30270429116E+02  0.30289170103E+02 -0.70633075116E+01  0.47787273999E+02  0.20000013472E+02 0.  0.
         12    1    1    2    0    0 -0.30270429116E+02 -0.30289170103E+02  0.70633075116E+01  0.43400726001E+02  0.00000000000E+00 0. -1.
         11    1    3    3    0    0  0.69791140035E+01  0.74165224681E+01 -0.31377739938E+01  0.10656381360E+02  0.51100000000E-03 0. -1.
        -11    1    3    3    0    0  0.14304149460E+02  0.10610155515E+02  0.62072612534E+01  0.18860386644E+02  0.51100000000E-03 0.  1.
         12    1    3    3    0    0  0.89871656526E+01  0.12262492120E+02 -0.10132794771E+02  0.18270505995E+02  0.00000000000E+00 0. -1.
</event>
<event>
 7    1  0.2414091E-009  0.4778728E+02  0.7816164E-02  0.1312668E+00
        -11   -1    0    0    0    0  0.00000000000E+00  0.00000000000E+00  0.45593999997E+02  0.45594000000E+02  0.51100000000E-03 0.  1.
         11   -1    0    0    0    0 -0.00000000000E+00 -0.00000000000E+00 -0.45593999997E+02  0.45594000000E+02  0.51100000000E-03 0. -1.
    9900012    2    1    2    0    0  0.48137857637E+01 -0.42569054305E+02  0.69516807333E+01  0.47787276701E+02  0.20000025791E+02 0.  0.
         12    1    1    2    0    0 -0.48137857637E+01  0.42569054305E+02 -0.69516807333E+01  0.43400723299E+02  0.00000000000E+00 0. -1.
         11    1    3    3    0    0 -0.53999474128E+00  0.77812038963E-02 -0.10338129802E+01  0.11663723278E+01  0.51100000000E-03 0. -1.
        -11    1    3    3    0    0  0.10039718342E+02 -0.28161560951E+02  0.95419984037E+01  0.31383422270E+02  0.51100000000E-03 0.  1.
        -12    1    3    3    0    0 -0.46859378367E+01 -0.14415274559E+02 -0.15565046901E+01  0.15237482104E+02  0.00000000000E+00 0.  1.
</event>
<event>
 7    1  0.2414091E-009  0.4778727E+02  0.7816164E-02  0.1312668E+00
        -11   -1    0    0    0    0  0.00000000000E+00  0.00000000000E+00  0.45593999997E+02  0.45594000000E+02  0.51100000000E-03 0. -1.
         11   -1    0    0    0    0 -0.00000000000E+00 -0.00000000000E+00 -0.45593999997E+02  0.45594000000E+02  0.51100000000E-03 0.  1.
    9900012    2    1    2    0    0 -0.16191655982E+02 -0.36412229276E+02 -0.17193108503E+02  0.47787272537E+02  0.20000006806E+02 0.  0.
         12    1    1    2    0    0  0.16191655982E+02  0.36412229276E+02  0.17193108503E+02  0.43400727463E+02  0.00000000000E+00 0. -1.
         11    1    3    3    0    0 -0.21934219906E+01 -0.42418119876E+01 -0.12984956520E+01  0.49487533972E+01  0.51100000000E-03 0.  1.
        -11    1    3    3    0    0 -0.99140471248E+00 -0.22863396779E+02 -0.48258340246E+01  0.23388169442E+02  0.51100000000E-03 0. -1.
         12    1    3    3    0    0 -0.13006829279E+02 -0.93070205100E+01 -0.11068778826E+02  0.19450349698E+02  0.00000000000E+00 0. -1.
</event>
<event>
 7    1  0.2414091E-009  0.4778727E+02  0.7816164E-02  0.1312668E+00
        -11   -1    0    0    0    0  0.00000000000E+00  0.00000000000E+00  0.45593999997E+02  0.45594000000E+02  0.51100000000E-03 0.  1.
         11   -1    0    0    0    0 -0.00000000000E+00 -0.00000000000E+00 -0.45593999997E+02  0.45594000000E+02  0.51100000000E-03 0. -1.
    9900012    2    1    2    0    0  0.36380135526E+01  0.42501097167E+02 -0.80028034545E+01  0.47787271133E+02  0.20000000406E+02 0.  0.
         12    1    1    2    0    0 -0.36380135526E+01 -0.42501097167E+02  0.80028034545E+01  0.43400728867E+02  0.00000000000E+00 0. -1.
         11    1    3    3    0    0  0.37244968270E+01  0.10426390348E+02  0.57397308611E+00  0.11086520539E+02  0.51100000000E-03 0.  1.
        -11    1    3    3    0    0  0.47693713512E+01  0.19173942307E+02 -0.11136712735E+02  0.22680682033E+02  0.51100000000E-03 0. -1.
         12    1    3    3    0    0 -0.48558546255E+01  0.12900764512E+02  0.25599361944E+01  0.14020068561E+02  0.00000000000E+00 0. -1.
</event>
<event>
 7    1  0.2414091E-009  0.4778727E+02  0.7816164E-02  0.1312668E+00
        -11   -1    0    0    0    0  0.00000000000E+00  0.00000000000E+00  0.45593999997E+02  0.45594000000E+02  0.51100000000E-03 0.  1.
         11   -1    0    0    0    0 -0.00000000000E+00 -0.00000000000E+00 -0.45593999997E+02  0.45594000000E+02  0.51100000000E-03 0. -1.
    9900012    2    1    2    0    0 -0.22584712901E+02 -0.13401130010E+01  0.37037254156E+02  0.47787270108E+02  0.19999995732E+02 0.  0.
         12    1    1    2    0    0  0.22584712901E+02  0.13401130010E+01 -0.37037254156E+02  0.43400729892E+02  0.00000000000E+00 0. -1.
         11    1    3    3    0    0 -0.90715435965E+01 -0.56078529709E+01  0.27822839365E+02  0.29796833872E+02  0.51100000000E-03 0.  1.
        -11    1    3    3    0    0 -0.81204934236E+01  0.85274902791E+00  0.81179085927E+01  0.11513906137E+02  0.51100000000E-03 0. -1.
        -12    1    3    3    0    0 -0.53926758811E+01  0.34149909420E+01  0.10965061985E+01  0.64765301000E+01  0.00000000000E+00 0.  1.
</event>
<event>
 7    1  0.2414091E-009  0.4778727E+02  0.7816164E-02  0.1312668E+00
        -11   -1    0    0    0    0  0.00000000000E+00  0.00000000000E+00  0.45593999997E+02  0.45594000000E+02  0.51100000000E-03 0. -1.
         11   -1    0    0    0    0 -0.00000000000E+00 -0.00000000000E+00 -0.45593999997E+02  0.45594000000E+02  0.51100000000E-03 0.  1.
    9900012    2    1    2    0    0  0.45916281836E+01  0.28128265572E+02 -0.32731346260E+02  0.47787269574E+02  0.19999993296E+02 0.  0.
         12    1    1    2    0    0 -0.45916281836E+01 -0.28128265572E+02  0.32731346260E+02  0.43400730426E+02  0.00000000000E+00 0. -1.
         11    1    3    3    0    0 -0.83791898663E+00  0.70746993749E+01 -0.36866127820E+01  0.80215081835E+01  0.51100000000E-03 0. -1.
        -11    1    3    3    0    0 -0.54418217489E+01  0.10533535266E+02 -0.10536093430E+02  0.15861212254E+02  0.51100000000E-03 0.  1.
        -12    1    3    3    0    0  0.10871368919E+02  0.10520030932E+02 -0.18508640048E+02  0.23904549136E+02  0.00000000000E+00 0.  1.
</event>
<event>
 7    1  0.2414091E-009  0.4778728E+02  0.7816164E-02  0.1312668E+00
        -11   -1    0    0    0    0  0.00000000000E+00  0.00000000000E+00  0.45593999997E+02  0.45594000000E+02  0.51100000000E-03 0.  1.
         11   -1    0    0    0    0 -0.00000000000E+00 -0.00000000000E+00 -0.45593999997E+02  0.45594000000E+02  0.51100000000E-03 0. -1.
    9900012    2    1    2    0    0  0.48863309402E+01  0.40298198160E+02 -0.15355833093E+02  0.47787278635E+02  0.20000034608E+02 0.  0.
         12    1    1    2    0    0 -0.48863309402E+01 -0.40298198160E+02  0.15355833093E+02  0.43400721365E+02  0.00000000000E+00 0. -1.
         11    1    3    3    0    0 -0.42995844072E+01  0.13559949614E+02 -0.73022630760E+01  0.15990050215E+02  0.51100000000E-03 0. -1.
        -11    1    3    3    0    0  0.44417480107E+01  0.21727504800E+02 -0.14149715063E+01  0.22221965144E+02  0.51100000000E-03 0.  1.
         12    1    3    3    0    0  0.47441673367E+01  0.50107437465E+01 -0.66385985104E+01  0.95752632754E+01  0.00000000000E+00 0. -1.
</event>
<event>
 7    1  0.2414091E-009  0.4778728E+02  0.7816164E-02  0.1312668E+00
        -11   -1    0    0    0    0  0.00000000000E+00  0.00000000000E+00  0.45593999997E+02  0.45594000000E+02  0.51100000000E-03 0.  1.
         11   -1    0    0    0    0 -0.00000000000E+00 -0.00000000000E+00 -0.45593999997E+02  0.45594000000E+02  0.51100000000E-03 0. -1.
    9900012    2    1    2    0    0 -0.18145715619E+01 -0.40420899993E+02  0.15699716256E+02  0.47787275160E+02  0.20000018762E+02 0.  0.
         12    1    1    2    0    0  0.18145715619E+01  0.40420899993E+02 -0.15699716256E+02  0.43400724840E+02  0.00000000000E+00 0. -1.
         11    1    3    3    0    0  0.11588795369E+01 -0.25812536422E+01 -0.28290601993E+01  0.40011815778E+01  0.51100000000E-03 0. -1.
        -11    1    3    3    0    0 -0.23682104919E+00 -0.15498846331E+02  0.15211695260E+01  0.15575117296E+02  0.51100000000E-03 0.  1.
         12    1    3    3    0    0 -0.27366300496E+01 -0.22340800020E+02  0.17007606929E+02  0.28210976286E+02  0.00000000000E+00 0. -1.
</event>
<event>
 7    1  0.2414091E-009  0.4778728E+02  0.7816164E-02  0.1312668E+00
        -11   -1    0    0    0    0  0.00000000000E+00  0.00000000000E+00  0.45593999997E+02  0.45594000000E+02  0.51100000000E-03 0.  1.
         11   -1    0    0    0    0 -0.00000000000E+00 -0.00000000000E+00 -0.45593999997E+02  0.45594000000E+02  0.51100000000E-03 0. -1.
    9900012    2    1    2    0    0  0.73842834010E+01  0.25792969927E+02  0.34114768196E+02  0.47787281710E+02  0.20000048630E+02 0.  0.
         12    1    1    2    0    0 -0.73842834010E+01 -0.25792969927E+02 -0.34114768196E+02  0.43400718290E+02  0.00000000000E+00 0. -1.
         11    1    3    3    0    0  0.15315668140E+00  0.72165014477E+01  0.79553155568E+00  0.72618331591E+01  0.51100000000E-03 0. -1.
        -11    1    3    3    0    0 -0.28079928553E+01  0.17163953118E+01  0.32903625291E+01  0.46537428566E+01  0.51100000000E-03 0.  1.
        -12    1    3    3    0    0  0.10039119575E+02  0.16860073167E+02  0.30028874111E+02  0.35871705695E+02  0.00000000000E+00 0.  1.
</event>
<event>
 7    1  0.2414091E-009  0.4778727E+02  0.7816164E-02  0.1312668E+00
        -11   -1    0    0    0    0  0.00000000000E+00  0.00000000000E+00  0.45593999997E+02  0.45594000000E+02  0.51100000000E-03 0.  1.
         11   -1    0    0    0    0 -0.00000000000E+00 -0.00000000000E+00 -0.45593999997E+02  0.45594000000E+02  0.51100000000E-03 0. -1.
    9900012    2    1    2    0    0 -0.21577467656E+02 -0.32939073860E+02 -0.18249757686E+02  0.47787270135E+02  0.19999995853E+02 0.  0.
         12    1    1    2    0    0  0.21577467656E+02  0.32939073860E+02  0.18249757686E+02  0.43400729865E+02  0.00000000000E+00 0. -1.
         11    1    3    3    0    0 -0.14406257548E+02 -0.91571493876E+01 -0.89372394029E+01  0.19268313103E+02  0.51100000000E-03 0. -1.
        -11    1    3    3    0    0 -0.89142706632E+01 -0.11770053773E+02 -0.42178492888E+01  0.15355410778E+02  0.51100000000E-03 0.  1.
         12    1    3    3    0    0  0.17430605551E+01 -0.12011870700E+02 -0.50946689940E+01  0.13163546253E+02  0.00000000000E+00 0. -1.
</event>
<event>
 7    1  0.2414091E-009  0.4778727E+02  0.7816164E-02  0.1312668E+00
        -11   -1    0    0    0    0  0.00000000000E+00  0.00000000000E+00  0.45593999997E+02  0.45594000000E+02  0.51100000000E-03 0. -1.
         11   -1    0    0    0    0 -0.00000000000E+00 -0.00000000000E+00 -0.45593999997E+02  0.45594000000E+02  0.51100000000E-03 0.  1.
    9900012    2    1    2    0    0 -0.13655049321E+02 -0.18986895564E+02 -0.36560372617E+02  0.47787269350E+02  0.19999992273E+02 0.  0.
         12    1    1    2    0    0  0.13655049321E+02  0.18986895564E+02  0.36560372617E+02  0.43400730650E+02  0.00000000000E+00 0. -1.
         11    1    3    3    0    0  0.12188549346E+01 -0.44788642261E+01 -0.17479610018E+01  0.49599596805E+01  0.51100000000E-03 0. -1.
        -11    1    3    3    0    0 -0.29281004708E+01 -0.12104962952E+02 -0.14246676570E+02  0.18922782406E+02  0.51100000000E-03 0.  1.
        -12    1    3    3    0    0 -0.11945803785E+02 -0.24030683860E+01 -0.20565735045E+02  0.23904527263E+02  0.00000000000E+00 0.  1.
</event>
<event>
 7    1  0.2414091E-009  0.4778727E+02  0.7816164E-02  0.1312668E+00
        -11   -1    0    0    0    0  0.00000000000E+00  0.00000000000E+00  0.45593999997E+02  0.45594000000E+02  0.51100000000E-03 0. -1.
         11   -1    0    0    0    0 -0.00000000000E+00 -0.00000000000E+00 -0.45593999997E+02  0.45594000000E+02  0.51100000000E-03 0.  1.
    9900012    2    1    2    0    0 -0.38137168532E+02 -0.10517530860E+02 -0.17848277921E+02  0.47787273004E+02  0.20000008934E+02 0.  0.
         12    1    1    2    0    0  0.38137168532E+02  0.10517530860E+02  0.17848277921E+02  0.43400726996E+02  0.00000000000E+00 0. -1.
         11    1    3    3    0    0 -0.11357562162E+02 -0.37559916246E+01 -0.10117198760E+02  0.15667144039E+02  0.51100000000E-03 0. -1.
        -11    1    3    3    0    0 -0.22878969585E+02 -0.98258767689E+01 -0.97823446859E+01  0.26752371322E+02  0.51100000000E-03 0.  1.
         12    1    3    3    0    0 -0.39006367853E+01  0.30643375334E+01  0.20512655250E+01  0.53677576420E+01  0.00000000000E+00 0. -1.
</event>
<event>
 7    1  0.2414091E-009  0.4778727E+02  0.7816164E-02  0.1312668E+00
        -11   -1    0    0    0    0  0.00000000000E+00  0.00000000000E+00  0.45593999997E+02  0.45594000000E+02  0.51100000000E-03 0.  1.
         11   -1    0    0    0    0 -0.00000000000E+00 -0.00000000000E+00 -0.45593999997E+02  0.45594000000E+02  0.51100000000E-03 0. -1.
    9900012    2    1    2    0    0  0.49891320957E+01 -0.22016457082E+02  0.37067608606E+02  0.47787269254E+02  0.19999991839E+02 0.  0.
         12    1    1    2    0    0 -0.49891320957E+01  0.22016457082E+02 -0.37067608606E+02  0.43400730746E+02  0.00000000000E+00 0. -1.
         11    1    3    3    0    0  0.65157555809E-01  0.15096099393E+01  0.13022489567E+01  0.19947481752E+01  0.51100000000E-03 0. -1.
        -11    1    3    3    0    0  0.29984468082E+01 -0.35497031342E+01 -0.15147891309E+00  0.46490882681E+01  0.51100000000E-03 0.  1.
        -12    1    3    3    0    0  0.19255277317E+01 -0.19976363887E+02  0.35916838562E+02  0.41143432811E+02  0.00000000000E+00 0.  1.
</event>
<event>
 7    1  0.2414091E-009  0.4778728E+02  0.7816164E-02  0.1312668E+00
        -11   -1    0    0    0    0  0.00000000000E+00  0.00000000000E+00  0.45593999997E+02  0.45594000000E+02  0.51100000000E-03 0. -1.
         11   -1    0    0    0    0 -0.00000000000E+00 -0.00000000000E+00 -0.45593999997E+02  0.45594000000E+02  0.51100000000E-03 0.  1.
    9900012    2    1    2    0    0  0.39016889177E+02 -0.18787379214E+02 -0.28878286947E+01  0.47787276350E+02  0.20000024190E+02 0.  0.
         12    1    1    2    0    0 -0.39016889177E+02  0.18787379214E+02  0.28878286947E+01  0.43400723650E+02  0.00000000000E+00 0. -1.
         11    1    3    3    0    0  0.17800724103E+02 -0.33447859001E+01  0.25666714601E+01  0.18293200211E+02  0.51100000000E-03 0. -1.
        -11    1    3    3    0    0  0.14554578318E+02 -0.35679202113E+01 -0.52448953555E+01  0.15876861535E+02  0.51100000000E-03 0.  1.
        -12    1    3    3    0    0  0.66615867556E+01 -0.11874673102E+02 -0.20960479930E+00  0.13617214603E+02  0.00000000000E+00 0.  1.
</event>
<event>
 7    1  0.2414091E-009  0.4778727E+02  0.7816164E-02  0.1312668E+00
        -11   -1    0    0    0    0  0.00000000000E+00  0.00000000000E+00  0.45593999997E+02  0.45594000000E+02  0.51100000000E-03 0. -1.
         11   -1    0    0    0    0 -0.00000000000E+00 -0.00000000000E+00 -0.45593999997E+02  0.45594000000E+02  0.51100000000E-03 0.  1.
    9900012    2    1    2    0    0 -0.31195514610E+02  0.28026341833E+02 -0.11179767447E+02  0.47787272259E+02  0.20000005537E+02 0.  0.
         12    1    1    2    0    0  0.31195514610E+02 -0.28026341833E+02  0.11179767447E+02  0.43400727741E+02  0.00000000000E+00 0. -1.
         11    1    3    3    0    0 -0.31340240080E+01  0.10199662425E+02 -0.34282895762E+00  0.10675802172E+02  0.51100000000E-03 0.  1.
        -11    1    3    3    0    0 -0.81007489212E+01  0.29708644969E+01  0.23611989206E+01  0.89455815656E+01  0.51100000000E-03 0. -1.
        -12    1    3    3    0    0 -0.19960741681E+02  0.14855814911E+02 -0.13198137410E+02  0.28165888522E+02  0.00000000000E+00 0.  1.
</event>
<event>
 7    1  0.2414091E-009  0.4778727E+02  0.7816164E-02  0.1312668E+00
        -11   -1    0    0    0    0  0.00000000000E+00  0.00000000000E+00  0.45593999997E+02  0.45594000000E+02  0.51100000000E-03 0. -1.
         11   -1    0    0    0    0 -0.00000000000E+00 -0.00000000000E+00 -0.45593999997E+02  0.45594000000E+02  0.51100000000E-03 0.  1.
    9900012    2    1    2    0    0 -0.38220793317E+02 -0.94048704367E+01 -0.18285035420E+02  0.47787272472E+02  0.20000006507E+02 0.  0.
         12    1    1    2    0    0  0.38220793317E+02  0.94048704367E+01  0.18285035420E+02  0.43400727528E+02  0.00000000000E+00 0. -1.
         11    1    3    3    0    0 -0.35814205134E+01 -0.21662484306E+01  0.31501040512E+01  0.52385456905E+01  0.51100000000E-03 0. -1.
        -11    1    3    3    0    0 -0.12324118360E+02 -0.73982444945E+01 -0.71716035487E+01  0.16063928930E+02  0.51100000000E-03 0.  1.
        -12    1    3    3    0    0 -0.22315254443E+02  0.15962248834E+00 -0.14263535922E+02  0.26484797851E+02  0.00000000000E+00 0.  1.
</event>
<event>
 7    1  0.2414091E-009  0.4778726E+02  0.7816164E-02  0.1312668E+00
        -11   -1    0    0    0    0  0.00000000000E+00  0.00000000000E+00  0.45593999997E+02  0.45594000000E+02  0.51100000000E-03 0.  1.
         11   -1    0    0    0    0 -0.00000000000E+00 -0.00000000000E+00 -0.45593999997E+02  0.45594000000E+02  0.51100000000E-03 0. -1.
    9900012    2    1    2    0    0 -0.35184114192E+02  0.61537913700E+01  0.24654264743E+02  0.47787264872E+02  0.19999971856E+02 0.  0.
         12    1    1    2    0    0  0.35184114192E+02 -0.61537913700E+01 -0.24654264743E+02  0.43400735128E+02  0.00000000000E+00 0. -1.
         11    1    3    3    0    0  0.56541365267E+00  0.15276546658E+01  0.25379575931E+00  0.16485854315E+01  0.51100000000E-03 0. -1.
        -11    1    3    3    0    0 -0.82620019667E+01  0.62865243601E-01 -0.11399671103E+01  0.83405128026E+01  0.51100000000E-03 0.  1.
        -12    1    3    3    0    0 -0.27487525878E+02  0.45632714607E+01  0.25540436094E+02  0.37798166638E+02  0.00000000000E+00 0.  1.
</event>
<event>
 7    1  0.2414091E-009  0.4778727E+02  0.7816164E-02  0.1312668E+00
        -11   -1    0    0    0    0  0.00000000000E+00  0.00000000000E+00  0.45593999997E+02  0.45594000000E+02  0.51100000000E-03 0.  1.
         11   -1    0    0    0    0 -0.00000000000E+00 -0.00000000000E+00 -0.45593999997E+02  0.45594000000E+02  0.51100000000E-03 0. -1.
    9900012    2    1    2    0    0 -0.33187253466E+02 -0.10673872841E+02  0.25851459504E+02  0.47787270599E+02  0.19999997969E+02 0.  0.
         12    1    1    2    0    0  0.33187253466E+02  0.10673872841E+02 -0.25851459504E+02  0.43400729401E+02  0.00000000000E+00 0. -1.
         11    1    3    3    0    0  0.16322771125E+01  0.18651831558E+01  0.31495699528E+01  0.40078707471E+01  0.51100000000E-03 0. -1.
        -11    1    3    3    0    0 -0.86334239208E+01 -0.27319554389E+01  0.28736567464E+01  0.95003943325E+01  0.51100000000E-03 0.  1.
        -12    1    3    3    0    0 -0.26186106658E+02 -0.98071005582E+01  0.19828232804E+02  0.34279005519E+02  0.00000000000E+00 0.  1.
</event>
<event>
 7    1  0.2414091E-009  0.4778728E+02  0.7816164E-02  0.1312668E+00
        -11   -1    0    0    0    0  0.00000000000E+00  0.00000000000E+00  0.45593999997E+02  0.45594000000E+02  0.51100000000E-03 0.  1.
         11   -1    0    0    0    0 -0.00000000000E+00 -0.00000000000E+00 -0.45593999997E+02  0.45594000000E+02  0.51100000000E-03 0. -1.
    9900012    2    1    2    0    0 -0.36033364830E+02 -0.21360769825E+01  0.24096819199E+02  0.47787275336E+02  0.20000019565E+02 0.  0.
         12    1    1    2    0    0  0.36033364830E+02  0.21360769825E+01 -0.24096819199E+02  0.43400724664E+02  0.00000000000E+00 0. -1.
         11    1    3    3    0    0 -0.10635464458E+02 -0.17408973405E+01  0.70478457247E+01  0.12876954508E+02  0.51100000000E-03 0. -1.
        -11    1    3    3    0    0 -0.20444886736E+02  0.52698486598E+01  0.17426303028E+02  0.27375915255E+02  0.51100000000E-03 0.  1.
         12    1    3    3    0    0 -0.49530136364E+01 -0.56650283018E+01 -0.37732955357E+00  0.75344055727E+01  0.00000000000E+00 0. -1.
</event>
<event>
 7    1  0.2414091E-009  0.4778727E+02  0.7816164E-02  0.1312668E+00
        -11   -1    0    0    0    0  0.00000000000E+00  0.00000000000E+00  0.45593999997E+02  0.45594000000E+02  0.51100000000E-03 0.  1.
         11   -1    0    0    0    0 -0.00000000000E+00 -0.00000000000E+00 -0.45593999997E+02  0.45594000000E+02  0.51100000000E-03 0. -1.
    9900012    2    1    2    0    0 -0.34448282134E+02  0.22088812311E+02  0.14457639294E+02  0.47787272987E+02  0.20000008856E+02 0.  0.
         12    1    1    2    0    0  0.34448282134E+02 -0.22088812311E+02 -0.14457639294E+02  0.43400727013E+02  0.00000000000E+00 0. -1.
         11    1    3    3    0    0 -0.93832350793E+01  0.59582533140E+01  0.45711598743E+01  0.12018377010E+02  0.51100000000E-03 0. -1.
        -11    1    3    3    0    0 -0.15250110427E+02  0.10739529317E+02 -0.27844748713E+01  0.18858861539E+02  0.51100000000E-03 0.  1.
         12    1    3    3    0    0 -0.98149366284E+01  0.53910296798E+01  0.12670954291E+02  0.16910034437E+02  0.00000000000E+00 0. -1.
</event>
<event>
 7    1  0.2414091E-009  0.4778727E+02  0.7816164E-02  0.1312668E+00
        -11   -1    0    0    0    0  0.00000000000E+00  0.00000000000E+00  0.45593999997E+02  0.45594000000E+02  0.51100000000E-03 0.  1.
         11   -1    0    0    0    0 -0.00000000000E+00 -0.00000000000E+00 -0.45593999997E+02  0.45594000000E+02  0.51100000000E-03 0. -1.
    9900012    2    1    2    0    0 -0.13766194714E+02 -0.28549920903E+02  0.29648224012E+02  0.47787270887E+02  0.19999999283E+02 0.  0.
         12    1    1    2    0    0  0.13766194714E+02  0.28549920903E+02 -0.29648224012E+02  0.43400729113E+02  0.00000000000E+00 0. -1.
         11    1    3    3    0    0 -0.88731395222E+00 -0.36172268214E+01  0.11931397149E+02  0.12499195739E+02  0.51100000000E-03 0.  1.
        -11    1    3    3    0    0 -0.84569865347E+01 -0.44606691892E+01  0.50815734079E+01  0.10827768903E+02  0.51100000000E-03 0. -1.
        -12    1    3    3    0    0 -0.44218942266E+01 -0.20472024892E+02  0.12635253455E+02  0.24460306245E+02  0.00000000000E+00 0.  1.
</event>
<event>
 7    1  0.2414091E-009  0.4778727E+02  0.7816164E-02  0.1312668E+00
        -11   -1    0    0    0    0  0.00000000000E+00  0.00000000000E+00  0.45593999997E+02  0.45594000000E+02  0.51100000000E-03 0. -1.
         11   -1    0    0    0    0 -0.00000000000E+00 -0.00000000000E+00 -0.45593999997E+02  0.45594000000E+02  0.51100000000E-03 0.  1.
    9900012    2    1    2    0    0 -0.23465906772E+01  0.25403867020E+02 -0.35110691005E+02  0.47787267631E+02  0.19999984434E+02 0.  0.
         12    1    1    2    0    0  0.23465906772E+01 -0.25403867020E+02  0.35110691005E+02  0.43400732369E+02  0.00000000000E+00 0. -1.
         11    1    3    3    0    0 -0.23727560200E+01  0.10232881477E+02 -0.18534994231E+02  0.21304643762E+02  0.51100000000E-03 0. -1.
        -11    1    3    3    0    0 -0.34004154538E+01  0.16587192488E+02 -0.13218561967E+02  0.21480878954E+02  0.51100000000E-03 0.  1.
         12    1    3    3    0    0  0.34265807966E+01 -0.14162069457E+01 -0.33571348070E+01  0.50017449137E+01  0.00000000000E+00 0. -1.
</event>
<event>
 7    1  0.2414091E-009  0.4778731E+02  0.7816164E-02  0.1312668E+00
        -11   -1    0    0    0    0  0.00000000000E+00  0.00000000000E+00  0.45593999997E+02  0.45594000000E+02  0.51100000000E-03 0. -1.
         11   -1    0    0    0    0 -0.00000000000E+00 -0.00000000000E+00 -0.45593999997E+02  0.45594000000E+02  0.51100000000E-03 0.  1.
    9900012    2    1    2    0    0 -0.11818810951E+02 -0.41250552590E+02  0.65059793295E+01  0.47787307052E+02  0.20000164174E+02 0.  0.
         12    1    1    2    0    0  0.11818810951E+02  0.41250552590E+02 -0.65059793295E+01  0.43400692948E+02  0.00000000000E+00 0. -1.
         11    1    3    3    0    0  0.10080832379E+01 -0.25586510027E+02  0.55802618607E+01  0.26207347250E+02  0.51100000000E-03 0. -1.
        -11    1    3    3    0    0 -0.47669630988E+01 -0.18225560976E+01  0.21025416540E+01  0.55196312904E+01  0.51100000000E-03 0.  1.
        -12    1    3    3    0    0 -0.80599310900E+01 -0.13841486465E+02 -0.11768241852E+01  0.16060328512E+02  0.00000000000E+00 0.  1.
</event>
<event>
 7    1  0.2414091E-009  0.4778727E+02  0.7816164E-02  0.1312668E+00
        -11   -1    0    0    0    0  0.00000000000E+00  0.00000000000E+00  0.45593999997E+02  0.45594000000E+02  0.51100000000E-03 0.  1.
         11   -1    0    0    0    0 -0.00000000000E+00 -0.00000000000E+00 -0.45593999997E+02  0.45594000000E+02  0.51100000000E-03 0. -1.
    9900012    2    1    2    0    0  0.32862319946E+02 -0.27077192385E+02 -0.83974333272E+01  0.47787270673E+02  0.19999998304E+02 0.  0.
         12    1    1    2    0    0 -0.32862319946E+02  0.27077192385E+02  0.83974333272E+01  0.43400729327E+02  0.00000000000E+00 0. -1.
         11    1    3    3    0    0  0.29521058486E+00 -0.39396917079E+01  0.33441018356E+01  0.51760349101E+01  0.51100000000E-03 0. -1.
        -11    1    3    3    0    0  0.18373160426E+01 -0.33603243048E+01 -0.34138317991E+01  0.51304734175E+01  0.51100000000E-03 0.  1.
        -12    1    3    3    0    0  0.30729793318E+02 -0.19777176372E+02 -0.83277033637E+01  0.37480762345E+02  0.00000000000E+00 0.  1.
</event>
<event>
 7    1  0.2414091E-009  0.4778727E+02  0.7816164E-02  0.1312668E+00
        -11   -1    0    0    0    0  0.00000000000E+00  0.00000000000E+00  0.45593999997E+02  0.45594000000E+02  0.51100000000E-03 0. -1.
         11   -1    0    0    0    0 -0.00000000000E+00 -0.00000000000E+00 -0.45593999997E+02  0.45594000000E+02  0.51100000000E-03 0.  1.
    9900012    2    1    2    0    0  0.30166951827E+02  0.28763124285E+02  0.12093860204E+02  0.47787265492E+02  0.19999974685E+02 0.  0.
         12    1    1    2    0    0 -0.30166951827E+02 -0.28763124285E+02 -0.12093860204E+02  0.43400734508E+02  0.00000000000E+00 0. -1.
         11    1    3    3    0    0  0.63413760084E+01  0.37539914169E+01  0.34518201871E-01  0.73693074984E+01  0.51100000000E-03 0. -1.
        -11    1    3    3    0    0  0.21995746234E+02  0.13755358702E+02  0.35357190702E+01  0.26182514299E+02  0.51100000000E-03 0.  1.
         12    1    3    3    0    0  0.18298295844E+01  0.11253774166E+02  0.85236229324E+01  0.14235443694E+02  0.00000000000E+00 0. -1.
</event>
<event>
 7    1  0.2414091E-009  0.4778726E+02  0.7816164E-02  0.1312668E+00
        -11   -1    0    0    0    0  0.00000000000E+00  0.00000000000E+00  0.45593999997E+02  0.45594000000E+02  0.51100000000E-03 0. -1.
         11   -1    0    0    0    0 -0.00000000000E+00 -0.00000000000E+00 -0.45593999997E+02  0.45594000000E+02  0.51100000000E-03 0.  1.
    9900012    2    1    2    0    0  0.64993300916E+01  0.36024133559E+02 -0.23316188523E+02  0.47787261094E+02  0.19999954631E+02 0.  0.
         12    1    1    2    0    0 -0.64993300916E+01 -0.36024133559E+02  0.23316188523E+02  0.43400738906E+02  0.00000000000E+00 0. -1.
         11    1    3    3    0    0 -0.33493290882E+01  0.13623722935E+02 -0.80960841510E+01  0.16197852042E+02  0.51100000000E-03 0. -1.
        -11    1    3    3    0    0 -0.28135576025E+01  0.73712532109E+01 -0.58232014985E+01  0.98061794923E+01  0.51100000000E-03 0.  1.
         12    1    3    3    0    0  0.12662216782E+02  0.15029157414E+02 -0.93969028737E+01  0.21783229559E+02  0.00000000000E+00 0. -1.
</event>
<event>
 7    1  0.2414091E-009  0.4778727E+02  0.7816164E-02  0.1312668E+00
        -11   -1    0    0    0    0  0.00000000000E+00  0.00000000000E+00  0.45593999997E+02  0.45594000000E+02  0.51100000000E-03 0.  1.
         11   -1    0    0    0    0 -0.00000000000E+00 -0.00000000000E+00 -0.45593999997E+02  0.45594000000E+02  0.51100000000E-03 0. -1.
    9900012    2    1    2    0    0  0.12121548529E+02  0.10716883776E+02  0.40272069157E+02  0.47787273154E+02  0.20000009616E+02 0.  0.
         12    1    1    2    0    0 -0.12121548529E+02 -0.10716883776E+02 -0.40272069157E+02  0.43400726846E+02  0.00000000000E+00 0. -1.
         11    1    3    3    0    0  0.28200266875E+01  0.25735461072E+00  0.14234440662E+02  0.14513376008E+02  0.51100000000E-03 0. -1.
        -11    1    3    3    0    0  0.57745846372E+01  0.80054422248E+01  0.27105167229E+02  0.28846542665E+02  0.51100000000E-03 0.  1.
         12    1    3    3    0    0  0.35269372041E+01  0.24540869401E+01 -0.10675387340E+01  0.44273544809E+01  0.00000000000E+00 0. -1.
</event>
<event>
 7    1  0.2414091E-009  0.4778725E+02  0.7816164E-02  0.1312668E+00
        -11   -1    0    0    0    0  0.00000000000E+00  0.00000000000E+00  0.45593999997E+02  0.45594000000E+02  0.51100000000E-03 0. -1.
         11   -1    0    0    0    0 -0.00000000000E+00 -0.00000000000E+00 -0.45593999997E+02  0.45594000000E+02  0.51100000000E-03 0.  1.
    9900012    2    1    2    0    0 -0.33209874346E+02 -0.24833796608E+02 -0.12806714910E+02  0.47787249375E+02  0.19999901198E+02 0.  0.
         12    1    1    2    0    0  0.33209874346E+02  0.24833796608E+02  0.12806714910E+02  0.43400750625E+02  0.00000000000E+00 0. -1.
         11    1    3    3    0    0 -0.69354138462E+01 -0.54058482285E+00 -0.74579708803E+01  0.10198702225E+02  0.51100000000E-03 0. -1.
        -11    1    3    3    0    0 -0.51742522557E+01 -0.21265749013E+00 -0.43848159777E+00  0.51971507565E+01  0.51100000000E-03 0.  1.
        -12    1    3    3    0    0 -0.21100208244E+02 -0.24080554295E+02 -0.49102624319E+01  0.32391396393E+02  0.00000000000E+00 0.  1.
</event>
<event>
 7    1  0.2414091E-009  0.4778727E+02  0.7816164E-02  0.1312668E+00
        -11   -1    0    0    0    0  0.00000000000E+00  0.00000000000E+00  0.45593999997E+02  0.45594000000E+02  0.51100000000E-03 0.  1.
         11   -1    0    0    0    0 -0.00000000000E+00 -0.00000000000E+00 -0.45593999997E+02  0.45594000000E+02  0.51100000000E-03 0. -1.
    9900012    2    1    2    0    0 -0.33895009920E+02  0.72930233055E+01  0.26106767231E+02  0.47787272107E+02  0.20000004843E+02 0.  0.
         12    1    1    2    0    0  0.33895009920E+02 -0.72930233055E+01 -0.26106767231E+02  0.43400727893E+02  0.00000000000E+00 0. -1.
         11    1    3    3    0    0 -0.12544722831E+02  0.84825772348E+01  0.13811326291E+02  0.20495778142E+02  0.51100000000E-03 0.  1.
        -11    1    3    3    0    0 -0.57754252768E+01 -0.26562042235E+01  0.94528800908E+01  0.11391571458E+02  0.51100000000E-03 0. -1.
         12    1    3    3    0    0 -0.15574861812E+02  0.14666502941E+01  0.28425608490E+01  0.15899922507E+02  0.00000000000E+00 0. -1.
</event>
<event>
 7    1  0.2414091E-009  0.4778727E+02  0.7816164E-02  0.1312668E+00
        -11   -1    0    0    0    0  0.00000000000E+00  0.00000000000E+00  0.45593999997E+02  0.45594000000E+02  0.51100000000E-03 0. -1.
         11   -1    0    0    0    0 -0.00000000000E+00 -0.00000000000E+00 -0.45593999997E+02  0.45594000000E+02  0.51100000000E-03 0.  1.
    9900012    2    1    2    0    0  0.25644646533E+02 -0.34639404896E+02  0.51075638143E+01  0.47787268721E+02  0.19999989408E+02 0.  0.
         12    1    1    2    0    0 -0.25644646533E+02  0.34639404896E+02 -0.51075638143E+01  0.43400731279E+02  0.00000000000E+00 0. -1.
         11    1    3    3    0    0  0.11910208779E+02 -0.16881645396E+02  0.58875542387E+01  0.21482698146E+02  0.51100000000E-03 0. -1.
        -11    1    3    3    0    0  0.16441012724E+02 -0.15778208113E+02  0.27622908637E+00  0.22788923919E+02  0.51100000000E-03 0.  1.
         12    1    3    3    0    0 -0.27065749691E+01 -0.19795513872E+01 -0.10562195107E+01  0.35156466565E+01  0.00000000000E+00 0. -1.
</event>
<event>
 7    1  0.2414091E-009  0.4778727E+02  0.7816164E-02  0.1312668E+00
        -11   -1    0    0    0    0  0.00000000000E+00  0.00000000000E+00  0.45593999997E+02  0.45594000000E+02  0.51100000000E-03 0. -1.
         11   -1    0    0    0    0 -0.00000000000E+00 -0.00000000000E+00 -0.45593999997E+02  0.45594000000E+02  0.51100000000E-03 0.  1.
    9900012    2    1    2    0    0 -0.21890708425E+02 -0.23736823773E+02 -0.28999716260E+02  0.47787268885E+02  0.19999990153E+02 0.  0.
         12    1    1    2    0    0  0.21890708425E+02  0.23736823773E+02  0.28999716260E+02  0.43400731115E+02  0.00000000000E+00 0. -1.
         11    1    3    3    0    0 -0.75617766784E+01  0.16688708494E+01 -0.42210768387E+01  0.88194720015E+01  0.51100000000E-03 0. -1.
        -11    1    3    3    0    0 -0.70455457795E+01 -0.84108929292E+01 -0.55648656931E+01  0.12302461772E+02  0.51100000000E-03 0.  1.
        -12    1    3    3    0    0 -0.72833859673E+01 -0.16994801694E+02 -0.19213773728E+02  0.26665335112E+02  0.00000000000E+00 0.  1.
</event>
<event>
 7    1  0.2414091E-009  0.4778727E+02  0.7816164E-02  0.1312668E+00
        -11   -1    0    0    0    0  0.00000000000E+00  0.00000000000E+00  0.45593999997E+02  0.45594000000E+02  0.51100000000E-03 0. -1.
         11   -1    0    0    0    0 -0.00000000000E+00 -0.00000000000E+00 -0.45593999997E+02  0.45594000000E+02  0.51100000000E-03 0.  1.
    9900012    2    1    2    0    0  0.37103657141E+02  0.19042613797E+02 -0.12013358683E+02  0.47787270740E+02  0.19999998610E+02 0.  0.
         12    1    1    2    0    0 -0.37103657141E+02 -0.19042613797E+02  0.12013358683E+02  0.43400729260E+02  0.00000000000E+00 0. -1.
         11    1    3    3    0    0  0.18422977242E+02  0.51189447539E+01 -0.13199237143E+02  0.23234232229E+02  0.51100000000E-03 0. -1.
        -11    1    3    3    0    0 -0.35773663788E+00  0.18917933312E+01 -0.43235471810E+00  0.19732684494E+01  0.51100000000E-03 0.  1.
        -12    1    3    3    0    0  0.19038416537E+02  0.12031875712E+02  0.16182331779E+01  0.22579770061E+02  0.00000000000E+00 0.  1.
</event>
<event>
 7    1  0.2414091E-009  0.4778729E+02  0.7816164E-02  0.1312668E+00
        -11   -1    0    0    0    0  0.00000000000E+00  0.00000000000E+00  0.45593999997E+02  0.45594000000E+02  0.51100000000E-03 0.  1.
         11   -1    0    0    0    0 -0.00000000000E+00 -0.00000000000E+00 -0.45593999997E+02  0.45594000000E+02  0.51100000000E-03 0. -1.
    9900012    2    1    2    0    0 -0.34469619272E+02 -0.17397698796E+02  0.19818865753E+02  0.47787285537E+02  0.20000066078E+02 0.  0.
         12    1    1    2    0    0  0.34469619272E+02  0.17397698796E+02 -0.19818865753E+02  0.43400714463E+02  0.00000000000E+00 0. -1.
         11    1    3    3    0    0 -0.74406691298E+01 -0.22687400751E+01  0.71510672548E+01  0.10566385464E+02  0.51100000000E-03 0. -1.
        -11    1    3    3    0    0  0.17806217108E+01 -0.35063414589E+01  0.14949399423E+01  0.42071236962E+01  0.51100000000E-03 0.  1.
        -12    1    3    3    0    0 -0.28809571853E+02 -0.11622617262E+02  0.11172858556E+02  0.33013776377E+02  0.00000000000E+00 0.  1.
</event>
<event>
 7    1  0.2414091E-009  0.4778727E+02  0.7816164E-02  0.1312668E+00
        -11   -1    0    0    0    0  0.00000000000E+00  0.00000000000E+00  0.45593999997E+02  0.45594000000E+02  0.51100000000E-03 0. -1.
         11   -1    0    0    0    0 -0.00000000000E+00 -0.00000000000E+00 -0.45593999997E+02  0.45594000000E+02  0.51100000000E-03 0.  1.
    9900012    2    1    2    0    0  0.41664766750E+02 -0.75790339074E+01  0.94988829438E+01  0.47787270508E+02  0.19999997553E+02 0.  0.
         12    1    1    2    0    0 -0.41664766750E+02  0.75790339074E+01 -0.94988829438E+01  0.43400729492E+02  0.00000000000E+00 0. -1.
         11    1    3    3    0    0  0.83535436814E+00 -0.16960959831E+01 -0.37048790074E+00  0.19266084319E+01  0.51100000000E-03 0. -1.
        -11    1    3    3    0    0  0.27604790127E+02 -0.15008960809E+01 -0.17763680786E+01  0.27702574083E+02  0.51100000000E-03 0.  1.
        -12    1    3    3    0    0  0.13224622254E+02 -0.43820418435E+01  0.11645738923E+02  0.18158087993E+02  0.00000000000E+00 0.  1.
</event>
<event>
 7    1  0.2414091E-009  0.4778727E+02  0.7816164E-02  0.1312668E+00
        -11   -1    0    0    0    0  0.00000000000E+00  0.00000000000E+00  0.45593999997E+02  0.45594000000E+02  0.51100000000E-03 0. -1.
         11   -1    0    0    0    0 -0.00000000000E+00 -0.00000000000E+00 -0.45593999997E+02  0.45594000000E+02  0.51100000000E-03 0.  1.
    9900012    2    1    2    0    0  0.23351998778E+02  0.36562251305E+02 -0.12284247378E+01  0.47787273108E+02  0.20000009408E+02 0.  0.
         12    1    1    2    0    0 -0.23351998778E+02 -0.36562251305E+02  0.12284247378E+01  0.43400726892E+02  0.00000000000E+00 0. -1.
         11    1    3    3    0    0  0.63616563812E+01  0.94931371965E+00  0.62288307939E+00  0.64621863206E+01  0.51100000000E-03 0. -1.
        -11    1    3    3    0    0  0.92348623595E+01  0.76121113079E+01 -0.26560318226E+01  0.12258932526E+02  0.51100000000E-03 0.  1.
         12    1    3    3    0    0  0.77554800376E+01  0.28000826277E+02  0.80472400543E+00  0.29066154262E+02  0.00000000000E+00 0. -1.
</event>
<event>
 7    1  0.2414091E-009  0.4778727E+02  0.7816164E-02  0.1312668E+00
        -11   -1    0    0    0    0  0.00000000000E+00  0.00000000000E+00  0.45593999997E+02  0.45594000000E+02  0.51100000000E-03 0.  1.
         11   -1    0    0    0    0 -0.00000000000E+00 -0.00000000000E+00 -0.45593999997E+02  0.45594000000E+02  0.51100000000E-03 0. -1.
    9900012    2    1    2    0    0  0.91942997376E+01 -0.38566792185E+02  0.17654764095E+02  0.47787270717E+02  0.19999998506E+02 0.  0.
         12    1    1    2    0    0 -0.91942997376E+01  0.38566792185E+02 -0.17654764095E+02  0.43400729283E+02  0.00000000000E+00 0. -1.
         11    1    3    3    0    0  0.88092705222E+01 -0.19695612932E+02  0.13625913424E+02  0.25518345025E+02  0.51100000000E-03 0. -1.
        -11    1    3    3    0    0 -0.36129952852E+01 -0.16784865181E+02  0.44587816531E+01  0.17738832209E+02  0.51100000000E-03 0.  1.
         12    1    3    3    0    0  0.39980245005E+01 -0.20863140717E+01 -0.42993098218E+00  0.45300934827E+01  0.00000000000E+00 0. -1.
</event>
<event>
 7    1  0.2414091E-009  0.4778728E+02  0.7816164E-02  0.1312668E+00
        -11   -1    0    0    0    0  0.00000000000E+00  0.00000000000E+00  0.45593999997E+02  0.45594000000E+02  0.51100000000E-03 0.  1.
         11   -1    0    0    0    0 -0.00000000000E+00 -0.00000000000E+00 -0.45593999997E+02  0.45594000000E+02  0.51100000000E-03 0. -1.
    9900012    2    1    2    0    0  0.22515190150E+02 -0.17449302258E+02  0.32744632478E+02  0.47787275433E+02  0.20000020011E+02 0.  0.
         12    1    1    2    0    0 -0.22515190150E+02  0.17449302258E+02 -0.32744632478E+02  0.43400724567E+02  0.00000000000E+00 0. -1.
         11    1    3    3    0    0  0.87635102200E+01  0.92031323658E+00  0.68783928578E+01  0.11178478268E+02  0.51100000000E-03 0. -1.
        -11    1    3    3    0    0 -0.14380348504E+00 -0.24132754034E+01  0.96567753250E+01  0.99547921903E+01  0.51100000000E-03 0.  1.
        -12    1    3    3    0    0  0.13895483415E+02 -0.15956340091E+02  0.16209464295E+02  0.26654004975E+02  0.00000000000E+00 0.  1.
</event>
<event>
 7    1  0.2414091E-009  0.4778728E+02  0.7816164E-02  0.1312668E+00
        -11   -1    0    0    0    0  0.00000000000E+00  0.00000000000E+00  0.45593999997E+02  0.45594000000E+02  0.51100000000E-03 0.  1.
         11   -1    0    0    0    0 -0.00000000000E+00 -0.00000000000E+00 -0.45593999997E+02  0.45594000000E+02  0.51100000000E-03 0. -1.
    9900012    2    1    2    0    0  0.22747964956E+02  0.99831042305E+01  0.35587782367E+02  0.47787279574E+02  0.20000038890E+02 0.  0.
         12    1    1    2    0    0 -0.22747964956E+02 -0.99831042305E+01 -0.35587782367E+02  0.43400720426E+02  0.00000000000E+00 0. -1.
         11    1    3    3    0    0  0.68684521449E+01  0.10981493848E+00  0.33671932930E+01  0.76502081750E+01  0.51100000000E-03 0. -1.
        -11    1    3    3    0    0  0.11731612052E+02  0.87901765289E+01  0.10586610600E+02  0.18082429289E+02  0.51100000000E-03 0.  1.
        -12    1    3    3    0    0  0.41479007586E+01  0.10831127632E+01  0.21633978474E+02  0.22054642110E+02  0.00000000000E+00 0.  1.
</event>
<event>
 7    1  0.2414091E-009  0.4778727E+02  0.7816164E-02  0.1312668E+00
        -11   -1    0    0    0    0  0.00000000000E+00  0.00000000000E+00  0.45593999997E+02  0.45594000000E+02  0.51100000000E-03 0.  1.
         11   -1    0    0    0    0 -0.00000000000E+00 -0.00000000000E+00 -0.45593999997E+02  0.45594000000E+02  0.51100000000E-03 0. -1.
    9900012    2    1    2    0    0 -0.28597555443E+02 -0.29304354281E+02  0.14389514285E+02  0.47787268687E+02  0.19999989252E+02 0.  0.
         12    1    1    2    0    0  0.28597555443E+02  0.29304354281E+02 -0.14389514285E+02  0.43400731313E+02  0.00000000000E+00 0. -1.
         11    1    3    3    0    0 -0.40593971933E+01 -0.19632242589E+01 -0.29505709467E+01  0.53887683413E+01  0.51100000000E-03 0. -1.
        -11    1    3    3    0    0 -0.13272920518E+01 -0.62879776356E+01  0.67520976131E+01  0.93215443664E+01  0.51100000000E-03 0.  1.
         12    1    3    3    0    0 -0.23210866198E+02 -0.21053152386E+02  0.10587987619E+02  0.33076955979E+02  0.00000000000E+00 0. -1.
</event>
<event>
 7    1  0.2414091E-009  0.4778728E+02  0.7816164E-02  0.1312668E+00
        -11   -1    0    0    0    0  0.00000000000E+00  0.00000000000E+00  0.45593999997E+02  0.45594000000E+02  0.51100000000E-03 0. -1.
         11   -1    0    0    0    0 -0.00000000000E+00 -0.00000000000E+00 -0.45593999997E+02  0.45594000000E+02  0.51100000000E-03 0.  1.
    9900012    2    1    2    0    0  0.18443302624E+01  0.38175500071E+02 -0.20563361768E+02  0.47787283336E+02  0.20000056041E+02 0.  0.
         12    1    1    2    0    0 -0.18443302624E+01 -0.38175500071E+02  0.20563361768E+02  0.43400716664E+02  0.00000000000E+00 0. -1.
         11    1    3    3    0    0 -0.26743879204E-01  0.11745202440E+02 -0.10906817715E+02  0.16028386336E+02  0.51100000000E-03 0.  1.
        -11    1    3    3    0    0  0.38874330047E+01  0.16362339142E+02 -0.12671876146E+02  0.21057414914E+02  0.51100000000E-03 0. -1.
         12    1    3    3    0    0 -0.20163588632E+01  0.10067958489E+02  0.30153320931E+01  0.10701482086E+02  0.00000000000E+00 0. -1.
</event>
<event>
 7    1  0.2414091E-009  0.4778726E+02  0.7816164E-02  0.1312668E+00
        -11   -1    0    0    0    0  0.00000000000E+00  0.00000000000E+00  0.45593999997E+02  0.45594000000E+02  0.51100000000E-03 0.  1.
         11   -1    0    0    0    0 -0.00000000000E+00 -0.00000000000E+00 -0.45593999997E+02  0.45594000000E+02  0.51100000000E-03 0. -1.
    9900012    2    1    2    0    0 -0.29490425167E+02 -0.10429267369E+02  0.30086029838E+02  0.47787262843E+02  0.19999962606E+02 0.  0.
         12    1    1    2    0    0  0.29490425167E+02  0.10429267369E+02 -0.30086029838E+02  0.43400737157E+02  0.00000000000E+00 0. -1.
         11    1    3    3    0    0 -0.12521448929E+02 -0.99874744382E+01  0.10454426515E+02  0.19126718562E+02  0.51100000000E-03 0. -1.
        -11    1    3    3    0    0 -0.85442900740E+01 -0.62811937799E+01  0.92663510554E+01  0.14082739446E+02  0.51100000000E-03 0.  1.
        -12    1    3    3    0    0 -0.84246861639E+01  0.58394008487E+01  0.10365252268E+02  0.14577804835E+02  0.00000000000E+00 0.  1.
</event>
<event>
 7    1  0.2414091E-009  0.4778727E+02  0.7816164E-02  0.1312668E+00
        -11   -1    0    0    0    0  0.00000000000E+00  0.00000000000E+00  0.45593999997E+02  0.45594000000E+02  0.51100000000E-03 0.  1.
         11   -1    0    0    0    0 -0.00000000000E+00 -0.00000000000E+00 -0.45593999997E+02  0.45594000000E+02  0.51100000000E-03 0. -1.
    9900012    2    1    2    0    0  0.21203662894E+02 -0.74542383206E+01  0.37127645829E+02  0.47787273348E+02  0.20000010504E+02 0.  0.
         12    1    1    2    0    0 -0.21203662894E+02  0.74542383206E+01 -0.37127645829E+02  0.43400726652E+02  0.00000000000E+00 0. -1.
         11    1    3    3    0    0  0.11250318299E+02  0.96721829049E+00  0.98736338399E+01  0.14999793949E+02  0.51100000000E-03 0. -1.
        -11    1    3    3    0    0  0.91891466373E+01 -0.84032313543E+00  0.20971788911E+02  0.22912059909E+02  0.51100000000E-03 0.  1.
         12    1    3    3    0    0  0.76419795793E+00 -0.75811334756E+01  0.62822230781E+01  0.98754194897E+01  0.00000000000E+00 0. -1.
</event>
<event>
 7    1  0.2414091E-009  0.4778727E+02  0.7816164E-02  0.1312668E+00
        -11   -1    0    0    0    0  0.00000000000E+00  0.00000000000E+00  0.45593999997E+02  0.45594000000E+02  0.51100000000E-03 0.  1.
         11   -1    0    0    0    0 -0.00000000000E+00 -0.00000000000E+00 -0.45593999997E+02  0.45594000000E+02  0.51100000000E-03 0. -1.
    9900012    2    1    2    0    0 -0.13216217851E+02  0.10646188768E+02  0.39945130571E+02  0.47787271828E+02  0.20000003571E+02 0.  0.
         12    1    1    2    0    0  0.13216217851E+02 -0.10646188768E+02 -0.39945130571E+02  0.43400728172E+02  0.00000000000E+00 0. -1.
         11    1    3    3    0    0  0.22702045915E+01 -0.26082194907E+01  0.18407778137E+01  0.39172823512E+01  0.51100000000E-03 0. -1.
        -11    1    3    3    0    0 -0.12966944962E+01  0.41844096618E+01  0.44904459263E+01  0.62733408733E+01  0.51100000000E-03 0.  1.
        -12    1    3    3    0    0 -0.14189727947E+02  0.90699985973E+01  0.33613906831E+02  0.37596648603E+02  0.00000000000E+00 0.  1.
</event>
<event>
 7    1  0.2414091E-009  0.4778727E+02  0.7816164E-02  0.1312668E+00
        -11   -1    0    0    0    0  0.00000000000E+00  0.00000000000E+00  0.45593999997E+02  0.45594000000E+02  0.51100000000E-03 0. -1.
         11   -1    0    0    0    0 -0.00000000000E+00 -0.00000000000E+00 -0.45593999997E+02  0.45594000000E+02  0.51100000000E-03 0.  1.
    9900012    2    1    2    0    0  0.14730796956E+02  0.40423123851E+02 -0.57094503654E+01  0.47787272537E+02  0.20000006804E+02 0.  0.
         12    1    1    2    0    0 -0.14730796956E+02 -0.40423123851E+02  0.57094503654E+01  0.43400727463E+02  0.00000000000E+00 0. -1.
         11    1    3    3    0    0 -0.13079449890E+00 -0.36489447734E+00 -0.14329742264E+01  0.14844765324E+01  0.51100000000E-03 0. -1.
        -11    1    3    3    0    0 -0.13341162607E+01  0.96945026410E+01  0.34983981052E+01  0.10392402861E+02  0.51100000000E-03 0.  1.
        -12    1    3    3    0    0  0.16195707715E+02  0.31093515688E+02 -0.77748742442E+01  0.35910393144E+02  0.00000000000E+00 0.  1.
</event>
<event>
 7    1  0.2414091E-009  0.4778727E+02  0.7816164E-02  0.1312668E+00
        -11   -1    0    0    0    0  0.00000000000E+00  0.00000000000E+00  0.45593999997E+02  0.45594000000E+02  0.51100000000E-03 0.  1.
         11   -1    0    0    0    0 -0.00000000000E+00 -0.00000000000E+00 -0.45593999997E+02  0.45594000000E+02  0.51100000000E-03 0. -1.
    9900012    2    1    2    0    0 -0.11539789360E+02  0.19786750673E+02  0.36863817956E+02  0.47787270571E+02  0.19999997842E+02 0.  0.
         12    1    1    2    0    0  0.11539789360E+02 -0.19786750673E+02 -0.36863817956E+02  0.43400729429E+02  0.00000000000E+00 0. -1.
         11    1    3    3    0    0 -0.13659296337E+01 -0.62798501778E+00 -0.70389623454E-01  0.15050195703E+01  0.51100000000E-03 0. -1.
        -11    1    3    3    0    0 -0.37201834392E+01  0.50565808563E+01  0.59411333853E+00  0.63056915321E+01  0.51100000000E-03 0.  1.
        -12    1    3    3    0    0 -0.64536762874E+01  0.15358154835E+02  0.36340094241E+02  0.39976559469E+02  0.00000000000E+00 0.  1.
</event>
<event>
 7    1  0.2414091E-009  0.4778728E+02  0.7816164E-02  0.1312668E+00
        -11   -1    0    0    0    0  0.00000000000E+00  0.00000000000E+00  0.45593999997E+02  0.45594000000E+02  0.51100000000E-03 0.  1.
         11   -1    0    0    0    0 -0.00000000000E+00 -0.00000000000E+00 -0.45593999997E+02  0.45594000000E+02  0.51100000000E-03 0. -1.
    9900012    2    1    2    0    0 -0.76004449410E+01  0.42063606625E+02  0.75172537602E+01  0.47787275701E+02  0.20000021229E+02 0.  0.
         12    1    1    2    0    0  0.76004449410E+01 -0.42063606625E+02 -0.75172537602E+01  0.43400724299E+02  0.00000000000E+00 0. -1.
         11    1    3    3    0    0  0.63046730389E+01  0.86145009280E+01  0.27675600146E+01  0.11028051372E+02  0.51100000000E-03 0. -1.
        -11    1    3    3    0    0 -0.11759097466E+01  0.69763480497E+01  0.10813465791E+01  0.71569201846E+01  0.51100000000E-03 0.  1.
         12    1    3    3    0    0 -0.12729208233E+02  0.26472757647E+02  0.36683471666E+01  0.29602304144E+02  0.00000000000E+00 0. -1.
</event>
<event>
 7    1  0.2414091E-009  0.4778727E+02  0.7816164E-02  0.1312668E+00
        -11   -1    0    0    0    0  0.00000000000E+00  0.00000000000E+00  0.45593999997E+02  0.45594000000E+02  0.51100000000E-03 0.  1.
         11   -1    0    0    0    0 -0.00000000000E+00 -0.00000000000E+00 -0.45593999997E+02  0.45594000000E+02  0.51100000000E-03 0. -1.
    9900012    2    1    2    0    0 -0.66164269882E+01 -0.13614468383E+01  0.42871815213E+02  0.47787272089E+02  0.20000004760E+02 0.  0.
         12    1    1    2    0    0  0.66164269882E+01  0.13614468383E+01 -0.42871815213E+02  0.43400727911E+02  0.00000000000E+00 0. -1.
         11    1    3    3    0    0  0.27026018932E+01  0.18930323425E+01  0.13592462761E+01  0.35686382758E+01  0.51100000000E-03 0.  1.
        -11    1    3    3    0    0  0.17034727576E+01 -0.38321383736E+01  0.11468733211E+02  0.12211426848E+02  0.51100000000E-03 0. -1.
        -12    1    3    3    0    0 -0.11022501639E+02  0.57765919283E+00  0.30043835726E+02  0.32007206965E+02  0.00000000000E+00 0.  1.
</event>
<event>
 7    1  0.2414091E-009  0.4778729E+02  0.7816164E-02  0.1312668E+00
        -11   -1    0    0    0    0  0.00000000000E+00  0.00000000000E+00  0.45593999997E+02  0.45594000000E+02  0.51100000000E-03 0.  1.
         11   -1    0    0    0    0 -0.00000000000E+00 -0.00000000000E+00 -0.45593999997E+02  0.45594000000E+02  0.51100000000E-03 0. -1.
    9900012    2    1    2    0    0  0.15657298062E+02 -0.19749845710E+02  0.35332908044E+02  0.47787288266E+02  0.20000078519E+02 0.  0.
         12    1    1    2    0    0 -0.15657298062E+02  0.19749845710E+02 -0.35332908044E+02  0.43400711734E+02  0.00000000000E+00 0. -1.
         11    1    3    3    0    0 -0.12941103813E+01  0.36064201747E+00 -0.11490935151E+00  0.13483281366E+01  0.51100000000E-03 0. -1.
        -11    1    3    3    0    0 -0.21590065642E+01 -0.82399767020E+00  0.57682013553E+01  0.62138899766E+01  0.51100000000E-03 0.  1.
        -12    1    3    3    0    0  0.19110415007E+02 -0.19286490057E+02  0.29679616041E+02  0.40225070153E+02  0.00000000000E+00 0.  1.
</event>
<event>
 7    1  0.3192307E-009  0.4778727E+02  0.7816164E-02  0.1312668E+00
        -11   -1    0    0    0    0  0.00000000000E+00  0.00000000000E+00  0.45593999997E+02  0.45594000000E+02  0.51100000000E-03 0.  1.
         11   -1    0    0    0    0 -0.00000000000E+00 -0.00000000000E+00 -0.45593999997E+02  0.45594000000E+02  0.51100000000E-03 0. -1.
    9900012    2    1    2    0    0  0.13848071350E+02 -0.36265214871E+02  0.19408466442E+02  0.47787268908E+02  0.19999990258E+02 0.  0.
         12    1    1    2    0    0 -0.13848071350E+02  0.36265214871E+02 -0.19408466442E+02  0.43400731092E+02  0.00000000000E+00 0. -1.
         11    1    3    3    0    0  0.12100551599E+02 -0.29034777865E+02  0.10907733705E+02  0.33292947144E+02  0.51100000000E-03 0.  1.
        -11    1    3    3    0    0  0.46718892489E+01 -0.65994346865E+01  0.81528173101E+01  0.11482487435E+02  0.51100000000E-03 0. -1.
         12    1    3    3    0    0 -0.29243694973E+01 -0.63100231886E+00  0.34791542686E+00  0.30118343293E+01  0.00000000000E+00 0. -1.
</event>
<event>
 7    1  0.2414091E-009  0.4778727E+02  0.7816164E-02  0.1312668E+00
        -11   -1    0    0    0    0  0.00000000000E+00  0.00000000000E+00  0.45593999997E+02  0.45594000000E+02  0.51100000000E-03 0.  1.
         11   -1    0    0    0    0 -0.00000000000E+00 -0.00000000000E+00 -0.45593999997E+02  0.45594000000E+02  0.51100000000E-03 0. -1.
    9900012    2    1    2    0    0  0.62682385729E+00 -0.18017307677E+02  0.39479196064E+02  0.47787271827E+02  0.20000003569E+02 0.  0.
         12    1    1    2    0    0 -0.62682385729E+00  0.18017307677E+02 -0.39479196064E+02  0.43400728173E+02  0.00000000000E+00 0. -1.
         11    1    3    3    0    0  0.18285032998E+01  0.17941082884E+01  0.16879024561E+02  0.17072308551E+02  0.51100000000E-03 0. -1.
        -11    1    3    3    0    0  0.13641593930E+01 -0.77012595238E+01  0.12468077271E+02  0.14718127605E+02  0.51100000000E-03 0.  1.
         12    1    3    3    0    0 -0.25658388356E+01 -0.12110156441E+02  0.10132094232E+02  0.15996835671E+02  0.00000000000E+00 0. -1.
</event>
<event>
 7    1  0.2414091E-009  0.4778727E+02  0.7816164E-02  0.1312668E+00
        -11   -1    0    0    0    0  0.00000000000E+00  0.00000000000E+00  0.45593999997E+02  0.45594000000E+02  0.51100000000E-03 0. -1.
         11   -1    0    0    0    0 -0.00000000000E+00 -0.00000000000E+00 -0.45593999997E+02  0.45594000000E+02  0.51100000000E-03 0.  1.
    9900012    2    1    2    0    0 -0.34761963875E+02 -0.20661729228E+02 -0.15758243821E+02  0.47787269183E+02  0.19999991515E+02 0.  0.
         12    1    1    2    0    0  0.34761963875E+02  0.20661729228E+02  0.15758243821E+02  0.43400730817E+02  0.00000000000E+00 0. -1.
         11    1    3    3    0    0 -0.90545542504E+01 -0.92818928302E+01 -0.90882410979E+00  0.12998632571E+02  0.51100000000E-03 0. -1.
        -11    1    3    3    0    0 -0.15030676726E+02 -0.76109879633E+01 -0.96851647882E+00  0.16875615694E+02  0.51100000000E-03 0.  1.
        -12    1    3    3    0    0 -0.10676732898E+02 -0.37688484343E+01 -0.13880903232E+02  0.17913020918E+02  0.00000000000E+00 0.  1.
</event>
<event>
 7    1  0.2414091E-009  0.4778727E+02  0.7816164E-02  0.1312668E+00
        -11   -1    0    0    0    0  0.00000000000E+00  0.00000000000E+00  0.45593999997E+02  0.45594000000E+02  0.51100000000E-03 0.  1.
         11   -1    0    0    0    0 -0.00000000000E+00 -0.00000000000E+00 -0.45593999997E+02  0.45594000000E+02  0.51100000000E-03 0. -1.
    9900012    2    1    2    0    0  0.32661793852E+01 -0.12835742765E+02  0.41330362584E+02  0.47787273146E+02  0.20000009583E+02 0.  0.
         12    1    1    2    0    0 -0.32661793852E+01  0.12835742765E+02 -0.41330362584E+02  0.43400726854E+02  0.00000000000E+00 0. -1.
         11    1    3    3    0    0 -0.19051936775E+01 -0.52043283237E+01  0.26527082853E+01  0.61442377686E+01  0.51100000000E-03 0. -1.
        -11    1    3    3    0    0  0.18023250505E+00 -0.96173639260E+01  0.19750267417E+02  0.21968141386E+02  0.51100000000E-03 0.  1.
         12    1    3    3    0    0  0.49911405576E+01  0.19859494842E+01  0.18927386882E+02  0.19674893992E+02  0.00000000000E+00 0. -1.
</event>
<event>
 7    1  0.2414091E-009  0.4778727E+02  0.7816164E-02  0.1312668E+00
        -11   -1    0    0    0    0  0.00000000000E+00  0.00000000000E+00  0.45593999997E+02  0.45594000000E+02  0.51100000000E-03 0.  1.
         11   -1    0    0    0    0 -0.00000000000E+00 -0.00000000000E+00 -0.45593999997E+02  0.45594000000E+02  0.51100000000E-03 0. -1.
    9900012    2    1    2    0    0 -0.32156348310E+02 -0.17083398684E+02  0.23616729548E+02  0.47787272336E+02  0.20000005889E+02 0.  0.
         12    1    1    2    0    0  0.32156348310E+02  0.17083398684E+02 -0.23616729548E+02  0.43400727664E+02  0.00000000000E+00 0. -1.
         11    1    3    3    0    0  0.22942064165E+00 -0.36982168469E+00  0.21082311738E+01  0.21526822461E+01  0.51100000000E-03 0. -1.
        -11    1    3    3    0    0 -0.30724675579E+02 -0.17897627544E+02  0.23628654895E+02  0.42692436022E+02  0.51100000000E-03 0.  1.
        -12    1    3    3    0    0 -0.16610933727E+01  0.11840505445E+01 -0.21201565207E+01  0.29421540675E+01  0.00000000000E+00 0.  1.
</event>
<event>
 7    1  0.2414091E-009  0.4778727E+02  0.7816164E-02  0.1312668E+00
        -11   -1    0    0    0    0  0.00000000000E+00  0.00000000000E+00  0.45593999997E+02  0.45594000000E+02  0.51100000000E-03 0.  1.
         11   -1    0    0    0    0 -0.00000000000E+00 -0.00000000000E+00 -0.45593999997E+02  0.45594000000E+02  0.51100000000E-03 0. -1.
    9900012    2    1    2    0    0 -0.26005874582E+02 -0.16668780842E+02  0.30487199348E+02  0.47787273144E+02  0.20000009572E+02 0.  0.
         12    1    1    2    0    0  0.26005874582E+02  0.16668780842E+02 -0.30487199348E+02  0.43400726856E+02  0.00000000000E+00 0. -1.
         11    1    3    3    0    0 -0.18903371046E+02 -0.17956393992E+01  0.13042809780E+02  0.23036419968E+02  0.51100000000E-03 0. -1.
        -11    1    3    3    0    0 -0.65606462541E+01 -0.69119682532E+01  0.85697380599E+01  0.12816309729E+02  0.51100000000E-03 0.  1.
        -12    1    3    3    0    0 -0.54185728245E+00 -0.79611731895E+01  0.88746515083E+01  0.11934543446E+02  0.00000000000E+00 0.  1.
</event>
<event>
 7    1  0.2414091E-009  0.4778725E+02  0.7816164E-02  0.1312668E+00
        -11   -1    0    0    0    0  0.00000000000E+00  0.00000000000E+00  0.45593999997E+02  0.45594000000E+02  0.51100000000E-03 0. -1.
         11   -1    0    0    0    0 -0.00000000000E+00 -0.00000000000E+00 -0.45593999997E+02  0.45594000000E+02  0.51100000000E-03 0.  1.
    9900012    2    1    2    0    0  0.28908161185E-01  0.24519261732E+02 -0.35811029156E+02  0.47787252993E+02  0.19999917694E+02 0.  0.
         12    1    1    2    0    0 -0.28908161185E-01 -0.24519261732E+02  0.35811029156E+02  0.43400747007E+02  0.00000000000E+00 0. -1.
         11    1    3    3    0    0 -0.10452380037E+01  0.16483218314E+02 -0.20619411329E+02  0.26418726924E+02  0.51100000000E-03 0.  1.
        -11    1    3    3    0    0  0.55766046979E+01  0.67194111793E+01 -0.47935742809E+01  0.99612931491E+01  0.51100000000E-03 0. -1.
         12    1    3    3    0    0 -0.45024585330E+01  0.13166322393E+01 -0.10398043546E+02  0.11407232920E+02  0.00000000000E+00 0. -1.
</event>
<event>
 7    1  0.2414091E-009  0.4778727E+02  0.7816164E-02  0.1312668E+00
        -11   -1    0    0    0    0  0.00000000000E+00  0.00000000000E+00  0.45593999997E+02  0.45594000000E+02  0.51100000000E-03 0.  1.
         11   -1    0    0    0    0 -0.00000000000E+00 -0.00000000000E+00 -0.45593999997E+02  0.45594000000E+02  0.51100000000E-03 0. -1.
    9900012    2    1    2    0    0  0.35913261793E+02 -0.70689159761E+01  0.23321473534E+02  0.47787273353E+02  0.20000010524E+02 0.  0.
         12    1    1    2    0    0 -0.35913261793E+02  0.70689159761E+01 -0.23321473534E+02  0.43400726647E+02  0.00000000000E+00 0. -1.
         11    1    3    3    0    0  0.41599302297E+01 -0.62366665237E+01  0.31059463464E+01  0.81146738574E+01  0.51100000000E-03 0. -1.
        -11    1    3    3    0    0  0.10903112902E+02  0.12161053492E+00  0.42870808166E+00  0.10912215675E+02  0.51100000000E-03 0.  1.
         12    1    3    3    0    0  0.20850218662E+02 -0.95385998730E+00  0.19786819106E+02  0.28760383820E+02  0.00000000000E+00 0. -1.
</event>
<event>
 7    1  0.2414091E-009  0.4778725E+02  0.7816164E-02  0.1312668E+00
        -11   -1    0    0    0    0  0.00000000000E+00  0.00000000000E+00  0.45593999997E+02  0.45594000000E+02  0.51100000000E-03 0. -1.
         11   -1    0    0    0    0 -0.00000000000E+00 -0.00000000000E+00 -0.45593999997E+02  0.45594000000E+02  0.51100000000E-03 0.  1.
    9900012    2    1    2    0    0 -0.21560845516E+02 -0.27105919932E+02 -0.26153856666E+02  0.47787249163E+02  0.19999900234E+02 0.  0.
         12    1    1    2    0    0  0.21560845516E+02  0.27105919932E+02  0.26153856666E+02  0.43400750837E+02  0.00000000000E+00 0. -1.
         11    1    3    3    0    0 -0.74059487419E+01 -0.30642332497E+01 -0.42047069842E+01  0.90508100886E+01  0.51100000000E-03 0. -1.
        -11    1    3    3    0    0 -0.17532614684E+00  0.78003189636E+00  0.15914478082E+01  0.17809815845E+01  0.51100000000E-03 0.  1.
        -12    1    3    3    0    0 -0.13979570627E+02 -0.24821718579E+02 -0.23540597490E+02  0.36955457490E+02  0.00000000000E+00 0.  1.
</event>
<event>
 7    1  0.2414091E-009  0.4778727E+02  0.7816164E-02  0.1312668E+00
        -11   -1    0    0    0    0  0.00000000000E+00  0.00000000000E+00  0.45593999997E+02  0.45594000000E+02  0.51100000000E-03 0.  1.
         11   -1    0    0    0    0 -0.00000000000E+00 -0.00000000000E+00 -0.45593999997E+02  0.45594000000E+02  0.51100000000E-03 0. -1.
    9900012    2    1    2    0    0  0.28140949674E+02  0.17490139949E+02  0.28032215799E+02  0.47787272280E+02  0.20000005635E+02 0.  0.
         12    1    1    2    0    0 -0.28140949674E+02 -0.17490139949E+02 -0.28032215799E+02  0.43400727720E+02  0.00000000000E+00 0. -1.
         11    1    3    3    0    0  0.13127876847E+02  0.99725345759E+01  0.90846326088E+01  0.18823473279E+02  0.51100000000E-03 0. -1.
        -11    1    3    3    0    0  0.17485826775E+02  0.49442653664E+01  0.17068130425E+02  0.24930322390E+02  0.51100000000E-03 0.  1.
        -12    1    3    3    0    0 -0.24727539481E+01  0.25733400063E+01  0.18794527661E+01  0.40334766116E+01  0.00000000000E+00 0.  1.
</event>
<event>
 7    1  0.2414091E-009  0.4778727E+02  0.7816164E-02  0.1312668E+00
        -11   -1    0    0    0    0  0.00000000000E+00  0.00000000000E+00  0.45593999997E+02  0.45594000000E+02  0.51100000000E-03 0. -1.
         11   -1    0    0    0    0 -0.00000000000E+00 -0.00000000000E+00 -0.45593999997E+02  0.45594000000E+02  0.51100000000E-03 0.  1.
    9900012    2    1    2    0    0  0.81522752525E+01 -0.42063010812E+02 -0.69185599771E+01  0.47787274862E+02  0.20000017404E+02 0.  0.
         12    1    1    2    0    0 -0.81522752525E+01  0.42063010812E+02  0.69185599771E+01  0.43400725138E+02  0.00000000000E+00 0. -1.
         11    1    3    3    0    0  0.33712378411E+00 -0.10581607022E+02 -0.30443460881E+01  0.11015993054E+02  0.51100000000E-03 0. -1.
        -11    1    3    3    0    0  0.23833285108E+01 -0.17634243657E+02 -0.10308524041E+02  0.20564835820E+02  0.51100000000E-03 0.  1.
         12    1    3    3    0    0  0.54318229576E+01 -0.13847160133E+02  0.64343101521E+01  0.16206445987E+02  0.00000000000E+00 0. -1.
</event>
<event>
 7    1  0.2414091E-009  0.4778727E+02  0.7816164E-02  0.1312668E+00
        -11   -1    0    0    0    0  0.00000000000E+00  0.00000000000E+00  0.45593999997E+02  0.45594000000E+02  0.51100000000E-03 0. -1.
         11   -1    0    0    0    0 -0.00000000000E+00 -0.00000000000E+00 -0.45593999997E+02  0.45594000000E+02  0.51100000000E-03 0.  1.
    9900012    2    1    2    0    0 -0.29085981511E+02  0.27243701808E+02 -0.17187481376E+02  0.47787272763E+02  0.20000007837E+02 0.  0.
         12    1    1    2    0    0  0.29085981511E+02 -0.27243701808E+02  0.17187481376E+02  0.43400727237E+02  0.00000000000E+00 0. -1.
         11    1    3    3    0    0 -0.14942768918E+02  0.68158740806E+01  0.95108107918E+00  0.16451353680E+02  0.51100000000E-03 0. -1.
        -11    1    3    3    0    0 -0.80584749780E+01  0.81101581674E+01 -0.55788276772E+01  0.12721517322E+02  0.51100000000E-03 0.  1.
         12    1    3    3    0    0 -0.60847376141E+01  0.12317669560E+02 -0.12559734778E+02  0.18614401761E+02  0.00000000000E+00 0. -1.
</event>
<event>
 7    1  0.2414091E-009  0.4778724E+02  0.7816164E-02  0.1312668E+00
        -11   -1    0    0    0    0  0.00000000000E+00  0.00000000000E+00  0.45593999997E+02  0.45594000000E+02  0.51100000000E-03 0.  1.
         11   -1    0    0    0    0 -0.00000000000E+00 -0.00000000000E+00 -0.45593999997E+02  0.45594000000E+02  0.51100000000E-03 0. -1.
    9900012    2    1    2    0    0 -0.10461359101E+02  0.25638216428E+02  0.33419567123E+02  0.47787243756E+02  0.19999875581E+02 0.  0.
         12    1    1    2    0    0  0.10461359101E+02 -0.25638216428E+02 -0.33419567123E+02  0.43400756244E+02  0.00000000000E+00 0. -1.
         11    1    3    3    0    0  0.15712253971E+01  0.57141367633E+01  0.16131567476E+02  0.17185679436E+02  0.51100000000E-03 0. -1.
        -11    1    3    3    0    0 -0.43778838270E+01  0.16021308163E+02  0.10475084805E+02  0.19636078631E+02  0.51100000000E-03 0.  1.
        -12    1    3    3    0    0 -0.76547006708E+01  0.39027715016E+01  0.68129148426E+01  0.10965485689E+02  0.00000000000E+00 0.  1.
</event>
<event>
 7    1  0.2414091E-009  0.4778727E+02  0.7816164E-02  0.1312668E+00
        -11   -1    0    0    0    0  0.00000000000E+00  0.00000000000E+00  0.45593999997E+02  0.45594000000E+02  0.51100000000E-03 0.  1.
         11   -1    0    0    0    0 -0.00000000000E+00 -0.00000000000E+00 -0.45593999997E+02  0.45594000000E+02  0.51100000000E-03 0. -1.
    9900012    2    1    2    0    0  0.40767351990E+02 -0.71482110877E+01  0.13059468103E+02  0.47787267089E+02  0.19999981967E+02 0.  0.
         12    1    1    2    0    0 -0.40767351990E+02  0.71482110877E+01 -0.13059468103E+02  0.43400732911E+02  0.00000000000E+00 0. -1.
         11    1    3    3    0    0  0.53190055649E+01  0.10270656195E+01  0.56578537225E+01  0.78331343019E+01  0.51100000000E-03 0. -1.
        -11    1    3    3    0    0  0.23364490602E+02 -0.16612423216E+01  0.10828103996E+02  0.25805173582E+02  0.51100000000E-03 0.  1.
         12    1    3    3    0    0  0.12083855823E+02 -0.65140343857E+01 -0.34264896152E+01  0.14148959206E+02  0.00000000000E+00 0. -1.
</event>
<event>
 7    1  0.2414091E-009  0.4778727E+02  0.7816164E-02  0.1312668E+00
        -11   -1    0    0    0    0  0.00000000000E+00  0.00000000000E+00  0.45593999997E+02  0.45594000000E+02  0.51100000000E-03 0.  1.
         11   -1    0    0    0    0 -0.00000000000E+00 -0.00000000000E+00 -0.45593999997E+02  0.45594000000E+02  0.51100000000E-03 0. -1.
    9900012    2    1    2    0    0 -0.64630847559E+00 -0.41778680707E+02 -0.11736589797E+02  0.47787269403E+02  0.19999992516E+02 0.  0.
         12    1    1    2    0    0  0.64630847559E+00  0.41778680707E+02  0.11736589797E+02  0.43400730597E+02  0.00000000000E+00 0. -1.
         11    1    3    3    0    0  0.20372810404E+01  0.59245077539E+00 -0.34734012910E+01  0.40701386645E+01  0.51100000000E-03 0. -1.
        -11    1    3    3    0    0  0.17378861533E+01 -0.22714948543E+02 -0.44828220882E+01  0.23218200398E+02  0.51100000000E-03 0.  1.
        -12    1    3    3    0    0 -0.44214756693E+01 -0.19656182940E+02 -0.37803664183E+01  0.20498930341E+02  0.00000000000E+00 0.  1.
</event>
<event>
 7    1  0.2414091E-009  0.4778727E+02  0.7816164E-02  0.1312668E+00
        -11   -1    0    0    0    0  0.00000000000E+00  0.00000000000E+00  0.45593999997E+02  0.45594000000E+02  0.51100000000E-03 0.  1.
         11   -1    0    0    0    0 -0.00000000000E+00 -0.00000000000E+00 -0.45593999997E+02  0.45594000000E+02  0.51100000000E-03 0. -1.
    9900012    2    1    2    0    0 -0.27618428251E+02 -0.57345889693E+01  0.32984243961E+02  0.47787269138E+02  0.19999991308E+02 0.  0.
         12    1    1    2    0    0  0.27618428251E+02  0.57345889693E+01 -0.32984243961E+02  0.43400730862E+02  0.00000000000E+00 0. -1.
         11    1    3    3    0    0 -0.78055858386E+00 -0.31281265292E+01  0.21966892884E+01  0.39012679191E+01  0.51100000000E-03 0. -1.
        -11    1    3    3    0    0 -0.25328296582E+02 -0.52866486955E+01  0.31464028810E+02  0.40736425609E+02  0.51100000000E-03 0.  1.
         12    1    3    3    0    0 -0.15095730855E+01  0.26801862554E+01 -0.67647413786E+00  0.31495756100E+01  0.00000000000E+00 0. -1.
</event>
<event>
 7    1  0.2414091E-009  0.4778727E+02  0.7816164E-02  0.1312668E+00
        -11   -1    0    0    0    0  0.00000000000E+00  0.00000000000E+00  0.45593999997E+02  0.45594000000E+02  0.51100000000E-03 0.  1.
         11   -1    0    0    0    0 -0.00000000000E+00 -0.00000000000E+00 -0.45593999997E+02  0.45594000000E+02  0.51100000000E-03 0. -1.
    9900012    2    1    2    0    0  0.35436554569E+02 -0.20124394640E+02  0.14929266829E+02  0.47787266511E+02  0.19999979330E+02 0.  0.
         12    1    1    2    0    0 -0.35436554569E+02  0.20124394640E+02 -0.14929266829E+02  0.43400733489E+02  0.00000000000E+00 0. -1.
         11    1    3    3    0    0  0.13839783709E+02 -0.72245207705E+00 -0.10476998341E+01  0.13898173453E+02  0.51100000000E-03 0. -1.
        -11    1    3    3    0    0  0.67583227584E+01 -0.22098626769E+01  0.28675851273E+01  0.76669070871E+01  0.51100000000E-03 0.  1.
        -12    1    3    3    0    0  0.14838448101E+02 -0.17192079886E+02  0.13109381535E+02  0.26222185971E+02  0.00000000000E+00 0.  1.
</event>
<event>
 7    1  0.2414091E-009  0.4778727E+02  0.7816164E-02  0.1312668E+00
        -11   -1    0    0    0    0  0.00000000000E+00  0.00000000000E+00  0.45593999997E+02  0.45594000000E+02  0.51100000000E-03 0.  1.
         11   -1    0    0    0    0 -0.00000000000E+00 -0.00000000000E+00 -0.45593999997E+02  0.45594000000E+02  0.51100000000E-03 0. -1.
    9900012    2    1    2    0    0 -0.21021506644E+02  0.80844878340E+01  0.37099331512E+02  0.47787273235E+02  0.20000009987E+02 0.  0.
         12    1    1    2    0    0  0.21021506644E+02 -0.80844878340E+01 -0.37099331512E+02  0.43400726765E+02  0.00000000000E+00 0. -1.
         11    1    3    3    0    0 -0.42435362989E+01 -0.57243509845E+01  0.87284055512E+01  0.11267690901E+02  0.51100000000E-03 0. -1.
        -11    1    3    3    0    0 -0.77153728141E+01  0.26691826679E+01  0.13980146279E+02  0.16189379358E+02  0.51100000000E-03 0.  1.
         12    1    3    3    0    0 -0.90625975312E+01  0.11139656151E+02  0.14390779682E+02  0.20330202975E+02  0.00000000000E+00 0. -1.
</event>
<event>
 7    1  0.2414091E-009  0.4778726E+02  0.7816164E-02  0.1312668E+00
        -11   -1    0    0    0    0  0.00000000000E+00  0.00000000000E+00  0.45593999997E+02  0.45594000000E+02  0.51100000000E-03 0. -1.
         11   -1    0    0    0    0 -0.00000000000E+00 -0.00000000000E+00 -0.45593999997E+02  0.45594000000E+02  0.51100000000E-03 0.  1.
    9900012    2    1    2    0    0  0.11119540367E+02  0.28634893342E+02 -0.30659795060E+02  0.47787258903E+02  0.19999944643E+02 0.  0.
         12    1    1    2    0    0 -0.11119540367E+02 -0.28634893342E+02  0.30659795060E+02  0.43400741097E+02  0.00000000000E+00 0. -1.
         11    1    3    3    0    0  0.34386565144E+01  0.36577330483E+01 -0.25081947575E+01  0.56119881397E+01  0.51100000000E-03 0. -1.
        -11    1    3    3    0    0 -0.39392950810E+01  0.12411807339E+02 -0.18195849274E+02  0.22375431576E+02  0.51100000000E-03 0.  1.
        -12    1    3    3    0    0  0.11620178933E+02  0.12565352955E+02 -0.99557510287E+01  0.19799839188E+02  0.00000000000E+00 0.  1.
</event>
<event>
 7    1  0.2414091E-009  0.4778727E+02  0.7816164E-02  0.1312668E+00
        -11   -1    0    0    0    0  0.00000000000E+00  0.00000000000E+00  0.45593999997E+02  0.45594000000E+02  0.51100000000E-03 0.  1.
         11   -1    0    0    0    0 -0.00000000000E+00 -0.00000000000E+00 -0.45593999997E+02  0.45594000000E+02  0.51100000000E-03 0. -1.
    9900012    2    1    2    0    0 -0.44829916693E+01 -0.22606450936E+02  0.36776003674E+02  0.47787270923E+02  0.19999999445E+02 0.  0.
         12    1    1    2    0    0  0.44829916693E+01  0.22606450936E+02 -0.36776003674E+02  0.43400729077E+02  0.00000000000E+00 0. -1.
         11    1    3    3    0    0 -0.50805480632E+01 -0.22038788646E+01  0.28496894034E+01  0.62281442364E+01  0.51100000000E-03 0. -1.
        -11    1    3    3    0    0 -0.47877969751E+01 -0.45167615922E+01  0.14295418566E+02  0.15737951817E+02  0.51100000000E-03 0.  1.
        -12    1    3    3    0    0  0.53853533690E+01 -0.15885810479E+02  0.19630895705E+02  0.25821174869E+02  0.00000000000E+00 0.  1.
</event>
<event>
 7    1  0.2414091E-009  0.4778727E+02  0.7816164E-02  0.1312668E+00
        -11   -1    0    0    0    0  0.00000000000E+00  0.00000000000E+00  0.45593999997E+02  0.45594000000E+02  0.51100000000E-03 0.  1.
         11   -1    0    0    0    0 -0.00000000000E+00 -0.00000000000E+00 -0.45593999997E+02  0.45594000000E+02  0.51100000000E-03 0. -1.
    9900012    2    1    2    0    0 -0.39820071602E+01 -0.96941991416E+01  0.42116379729E+02  0.47787270519E+02  0.19999997605E+02 0.  0.
         12    1    1    2    0    0  0.39820071602E+01  0.96941991416E+01 -0.42116379729E+02  0.43400729481E+02  0.00000000000E+00 0. -1.
         11    1    3    3    0    0 -0.25186878934E+00 -0.48527619302E+01  0.18906087629E+01  0.52141286898E+01  0.51100000000E-03 0. -1.
        -11    1    3    3    0    0 -0.67602270672E+01 -0.44010126131E+01  0.13909159027E+02  0.16079001434E+02  0.51100000000E-03 0.  1.
         12    1    3    3    0    0  0.30300886963E+01 -0.44042459840E+00  0.26316611939E+02  0.26494140395E+02  0.00000000000E+00 0. -1.
</event>
<event>
 7    1  0.2414091E-009  0.4778727E+02  0.7816164E-02  0.1312668E+00
        -11   -1    0    0    0    0  0.00000000000E+00  0.00000000000E+00  0.45593999997E+02  0.45594000000E+02  0.51100000000E-03 0.  1.
         11   -1    0    0    0    0 -0.00000000000E+00 -0.00000000000E+00 -0.45593999997E+02  0.45594000000E+02  0.51100000000E-03 0. -1.
    9900012    2    1    2    0    0 -0.17469425949E+02  0.39537731234E+02  0.39000538738E+01  0.47787268965E+02  0.19999990521E+02 0.  0.
         12    1    1    2    0    0  0.17469425949E+02 -0.39537731234E+02 -0.39000538738E+01  0.43400731035E+02  0.00000000000E+00 0. -1.
         11    1    3    3    0    0 -0.59536642495E+01  0.75648453061E+01 -0.49375024137E+01  0.10819054157E+02  0.51100000000E-03 0. -1.
        -11    1    3    3    0    0 -0.25734150104E+01  0.77374567355E+01 -0.28186902677E+01  0.86276136119E+01  0.51100000000E-03 0.  1.
        -12    1    3    3    0    0 -0.89423466888E+01  0.24235429192E+02  0.11656246555E+02  0.28340601197E+02  0.00000000000E+00 0.  1.
</event>
<event>
 7    1  0.2414091E-009  0.4778727E+02  0.7816164E-02  0.1312668E+00
        -11   -1    0    0    0    0  0.00000000000E+00  0.00000000000E+00  0.45593999997E+02  0.45594000000E+02  0.51100000000E-03 0. -1.
         11   -1    0    0    0    0 -0.00000000000E+00 -0.00000000000E+00 -0.45593999997E+02  0.45594000000E+02  0.51100000000E-03 0.  1.
    9900012    2    1    2    0    0 -0.28966387861E+02 -0.30361068161E+02 -0.11080503863E+02  0.47787266695E+02  0.19999980170E+02 0.  0.
         12    1    1    2    0    0  0.28966387861E+02  0.30361068161E+02  0.11080503863E+02  0.43400733305E+02  0.00000000000E+00 0. -1.
         11    1    3    3    0    0 -0.57743973793E+00 -0.48351485995E+01  0.15838708492E+01  0.51206196655E+01  0.51100000000E-03 0. -1.
        -11    1    3    3    0    0 -0.13298206823E+02 -0.19463518795E+02 -0.30364389139E+01  0.23767432132E+02  0.51100000000E-03 0.  1.
         12    1    3    3    0    0 -0.15090741300E+02 -0.60624007659E+01 -0.96279357983E+01  0.18899214898E+02  0.00000000000E+00 0. -1.
</event>
<event>
 7    1  0.2414091E-009  0.4778726E+02  0.7816164E-02  0.1312668E+00
        -11   -1    0    0    0    0  0.00000000000E+00  0.00000000000E+00  0.45593999997E+02  0.45594000000E+02  0.51100000000E-03 0. -1.
         11   -1    0    0    0    0 -0.00000000000E+00 -0.00000000000E+00 -0.45593999997E+02  0.45594000000E+02  0.51100000000E-03 0.  1.
    9900012    2    1    2    0    0 -0.54373461538E+01  0.40327937754E+02  0.15090289592E+02  0.47787261105E+02  0.19999954682E+02 0.  0.
         12    1    1    2    0    0  0.54373461538E+01 -0.40327937754E+02 -0.15090289592E+02  0.43400738895E+02  0.00000000000E+00 0. -1.
         11    1    3    3    0    0 -0.45859336092E+01  0.13169341008E+02  0.80151879695E+01  0.16084326784E+02  0.51100000000E-03 0. -1.
        -11    1    3    3    0    0 -0.17389687363E+01  0.42417254900E+01  0.74710849691E+01  0.87654639509E+01  0.51100000000E-03 0.  1.
        -12    1    3    3    0    0  0.88755619174E+00  0.22916871256E+02 -0.39598334680E+00  0.22937470370E+02  0.00000000000E+00 0.  1.
</event>
<event>
 7    1  0.2414091E-009  0.4778725E+02  0.7816164E-02  0.1312668E+00
        -11   -1    0    0    0    0  0.00000000000E+00  0.00000000000E+00  0.45593999997E+02  0.45594000000E+02  0.51100000000E-03 0. -1.
         11   -1    0    0    0    0 -0.00000000000E+00 -0.00000000000E+00 -0.45593999997E+02  0.45594000000E+02  0.51100000000E-03 0.  1.
    9900012    2    1    2    0    0 -0.10143224858E+02  0.56426989206E+01 -0.41819848027E+02  0.47787254032E+02  0.19999922432E+02 0.  0.
         12    1    1    2    0    0  0.10143224858E+02 -0.56426989206E+01  0.41819848027E+02  0.43400745968E+02  0.00000000000E+00 0. -1.
         11    1    3    3    0    0 -0.10336173383E+02  0.82333450251E+01 -0.27336499944E+02  0.30362949132E+02  0.51100000000E-03 0. -1.
        -11    1    3    3    0    0 -0.95039603322E+00  0.32143831360E+01 -0.29644324924E+01  0.44747482419E+01  0.51100000000E-03 0.  1.
        -12    1    3    3    0    0  0.11433445589E+01 -0.58050292405E+01 -0.11518915590E+02  0.12949556658E+02  0.00000000000E+00 0.  1.
</event>
<event>
 7    1  0.2414091E-009  0.4778727E+02  0.7816164E-02  0.1312668E+00
        -11   -1    0    0    0    0  0.00000000000E+00  0.00000000000E+00  0.45593999997E+02  0.45594000000E+02  0.51100000000E-03 0. -1.
         11   -1    0    0    0    0 -0.00000000000E+00 -0.00000000000E+00 -0.45593999997E+02  0.45594000000E+02  0.51100000000E-03 0.  1.
    9900012    2    1    2    0    0 -0.13869492828E+02 -0.22530003291E+01 -0.41063178334E+02  0.47787268939E+02  0.19999990398E+02 0.  0.
         12    1    1    2    0    0  0.13869492828E+02  0.22530003291E+01  0.41063178334E+02  0.43400731061E+02  0.00000000000E+00 0. -1.
         11    1    3    3    0    0 -0.11258280398E+01  0.48591861117E+01 -0.23189436239E+01  0.55006070788E+01  0.51100000000E-03 0. -1.
        -11    1    3    3    0    0 -0.20351431592E+01 -0.32334190385E+01 -0.19935912899E+02  0.20298705125E+02  0.51100000000E-03 0.  1.
        -12    1    3    3    0    0 -0.10708521629E+02 -0.38787674023E+01 -0.18808321811E+02  0.21987956735E+02  0.00000000000E+00 0.  1.
</event>
<event>
 7    1  0.2414091E-009  0.4778727E+02  0.7816164E-02  0.1312668E+00
        -11   -1    0    0    0    0  0.00000000000E+00  0.00000000000E+00  0.45593999997E+02  0.45594000000E+02  0.51100000000E-03 0.  1.
         11   -1    0    0    0    0 -0.00000000000E+00 -0.00000000000E+00 -0.45593999997E+02  0.45594000000E+02  0.51100000000E-03 0. -1.
    9900012    2    1    2    0    0  0.18926647847E+02 -0.27318587688E+02  0.27912365172E+02  0.47787270035E+02  0.19999995398E+02 0.  0.
         12    1    1    2    0    0 -0.18926647847E+02  0.27318587688E+02 -0.27912365172E+02  0.43400729965E+02  0.00000000000E+00 0. -1.
         11    1    3    3    0    0  0.65278739770E+01 -0.62435264866E+01  0.13705122904E+02  0.16414175451E+02  0.51100000000E-03 0. -1.
        -11    1    3    3    0    0  0.11886310528E+02 -0.18192967647E+02  0.16795562888E+02  0.27465603630E+02  0.51100000000E-03 0.  1.
        -12    1    3    3    0    0  0.51246334210E+00 -0.28820935541E+01 -0.25883206196E+01  0.39074909547E+01  0.00000000000E+00 0.  1.
</event>
<event>
 7    1  0.2414091E-009  0.4778723E+02  0.7816164E-02  0.1312668E+00
        -11   -1    0    0    0    0  0.00000000000E+00  0.00000000000E+00  0.45593999997E+02  0.45594000000E+02  0.51100000000E-03 0.  1.
         11   -1    0    0    0    0 -0.00000000000E+00 -0.00000000000E+00 -0.45593999997E+02  0.45594000000E+02  0.51100000000E-03 0. -1.
    9900012    2    1    2    0    0  0.50486594273E+01  0.79473138521E+01  0.42367182691E+02  0.47787228940E+02  0.19999808026E+02 0.  0.
         12    1    1    2    0    0 -0.50486594273E+01 -0.79473138521E+01 -0.42367182691E+02  0.43400771060E+02  0.00000000000E+00 0. -1.
         11    1    3    3    0    0 -0.12175709330E+01 -0.46426447081E+01  0.35840705888E+01  0.59901745475E+01  0.51100000000E-03 0. -1.
        -11    1    3    3    0    0  0.42234048566E+01  0.20713319225E+01  0.91931024435E+01  0.10326698278E+02  0.51100000000E-03 0.  1.
        -12    1    3    3    0    0  0.20428255037E+01  0.10518626638E+02  0.29590009659E+02  0.31470356115E+02  0.00000000000E+00 0.  1.
</event>
<event>
 7    1  0.2414091E-009  0.4778727E+02  0.7816164E-02  0.1312668E+00
        -11   -1    0    0    0    0  0.00000000000E+00  0.00000000000E+00  0.45593999997E+02  0.45594000000E+02  0.51100000000E-03 0.  1.
         11   -1    0    0    0    0 -0.00000000000E+00 -0.00000000000E+00 -0.45593999997E+02  0.45594000000E+02  0.51100000000E-03 0. -1.
    9900012    2    1    2    0    0 -0.20339633849E+02 -0.16641053231E+02  0.34539805547E+02  0.47787268152E+02  0.19999986810E+02 0.  0.
         12    1    1    2    0    0  0.20339633849E+02  0.16641053231E+02 -0.34539805547E+02  0.43400731848E+02  0.00000000000E+00 0. -1.
         11    1    3    3    0    0  0.30085696544E+01 -0.18986672143E+00  0.79248828075E+01  0.84788742478E+01  0.51100000000E-03 0. -1.
        -11    1    3    3    0    0 -0.71332927995E+01 -0.66038105483E+01  0.11459396738E+02  0.15027040753E+02  0.51100000000E-03 0.  1.
         12    1    3    3    0    0 -0.16214910704E+02 -0.98473759618E+01  0.15155526001E+02  0.24281353151E+02  0.00000000000E+00 0. -1.
</event>
<event>
 7    1  0.2414091E-009  0.4778727E+02  0.7816164E-02  0.1312668E+00
        -11   -1    0    0    0    0  0.00000000000E+00  0.00000000000E+00  0.45593999997E+02  0.45594000000E+02  0.51100000000E-03 0. -1.
         11   -1    0    0    0    0 -0.00000000000E+00 -0.00000000000E+00 -0.45593999997E+02  0.45594000000E+02  0.51100000000E-03 0.  1.
    9900012    2    1    2    0    0  0.80268347845E+01 -0.27624866146E+02 -0.32497076762E+02  0.47787270694E+02  0.19999998401E+02 0.  0.
         12    1    1    2    0    0 -0.80268347845E+01  0.27624866146E+02  0.32497076762E+02  0.43400729306E+02  0.00000000000E+00 0. -1.
         11    1    3    3    0    0  0.94611729062E+00 -0.10306507446E+02 -0.20215511708E+02  0.22710925731E+02  0.51100000000E-03 0. -1.
        -11    1    3    3    0    0  0.77783883429E+01 -0.68898824938E+01 -0.99096553604E+01  0.14358797847E+02  0.51100000000E-03 0.  1.
         12    1    3    3    0    0 -0.69767084900E+00 -0.10428476206E+02 -0.23719096937E+01  0.10717547116E+02  0.00000000000E+00 0. -1.
</event>
<event>
 7    1  0.2414091E-009  0.4778727E+02  0.7816164E-02  0.1312668E+00
        -11   -1    0    0    0    0  0.00000000000E+00  0.00000000000E+00  0.45593999997E+02  0.45594000000E+02  0.51100000000E-03 0.  1.
         11   -1    0    0    0    0 -0.00000000000E+00 -0.00000000000E+00 -0.45593999997E+02  0.45594000000E+02  0.51100000000E-03 0. -1.
    9900012    2    1    2    0    0  0.43361730652E+02  0.12471491730E+01 -0.13520734624E+01  0.47787272254E+02  0.20000005516E+02 0.  0.
         12    1    1    2    0    0 -0.43361730652E+02 -0.12471491730E+01  0.13520734624E+01  0.43400727746E+02  0.00000000000E+00 0. -1.
         11    1    3    3    0    0  0.25843482041E+02 -0.32447557361E+01  0.26591808165E+00  0.26047739182E+02  0.51100000000E-03 0. -1.
        -11    1    3    3    0    0  0.18618330840E+02  0.42854970283E+01 -0.36207357045E+01  0.19445242486E+02  0.51100000000E-03 0.  1.
        -12    1    3    3    0    0 -0.11000822287E+01  0.20640788072E+00  0.20027441604E+01  0.22942905865E+01  0.00000000000E+00 0.  1.
</event>
<event>
 7    1  0.2414091E-009  0.4778727E+02  0.7816164E-02  0.1312668E+00
        -11   -1    0    0    0    0  0.00000000000E+00  0.00000000000E+00  0.45593999997E+02  0.45594000000E+02  0.51100000000E-03 0. -1.
         11   -1    0    0    0    0 -0.00000000000E+00 -0.00000000000E+00 -0.45593999997E+02  0.45594000000E+02  0.51100000000E-03 0.  1.
    9900012    2    1    2    0    0  0.40456148927E+01  0.38880343428E+02 -0.18856692750E+02  0.47787274586E+02  0.20000016148E+02 0.  0.
         12    1    1    2    0    0 -0.40456148927E+01 -0.38880343428E+02  0.18856692750E+02  0.43400725414E+02  0.00000000000E+00 0. -1.
         11    1    3    3    0    0 -0.19284633995E+01  0.58406571073E+00 -0.42771569748E+01  0.47280202925E+01  0.51100000000E-03 0. -1.
        -11    1    3    3    0    0  0.20214254149E+01  0.20643552423E+02 -0.13876127546E+02  0.24955747500E+02  0.51100000000E-03 0.  1.
         12    1    3    3    0    0  0.39526528772E+01  0.17652725295E+02 -0.70340822950E+00  0.18103506794E+02  0.00000000000E+00 0. -1.
</event>
<event>
 7    1  0.2414091E-009  0.4778727E+02  0.7816164E-02  0.1312668E+00
        -11   -1    0    0    0    0  0.00000000000E+00  0.00000000000E+00  0.45593999997E+02  0.45594000000E+02  0.51100000000E-03 0. -1.
         11   -1    0    0    0    0 -0.00000000000E+00 -0.00000000000E+00 -0.45593999997E+02  0.45594000000E+02  0.51100000000E-03 0.  1.
    9900012    2    1    2    0    0 -0.54004573786E+01  0.38757843813E+02 -0.18769329589E+02  0.47787272700E+02  0.20000007549E+02 0.  0.
         12    1    1    2    0    0  0.54004573786E+01 -0.38757843813E+02  0.18769329589E+02  0.43400727300E+02  0.00000000000E+00 0. -1.
         11    1    3    3    0    0  0.26988036076E+00  0.99136613184E+01  0.12109504689E+01  0.99909918148E+01  0.51100000000E-03 0. -1.
        -11    1    3    3    0    0  0.49519328969E+00  0.20485456876E+02 -0.81481136175E+01  0.22052004798E+02  0.51100000000E-03 0.  1.
         12    1    3    3    0    0 -0.61655310290E+01  0.83587256184E+01 -0.11832166441E+02  0.15744276087E+02  0.00000000000E+00 0. -1.
</event>
<event>
 7    1  0.2414091E-009  0.4778728E+02  0.7816164E-02  0.1312668E+00
        -11   -1    0    0    0    0  0.00000000000E+00  0.00000000000E+00  0.45593999997E+02  0.45594000000E+02  0.51100000000E-03 0.  1.
         11   -1    0    0    0    0 -0.00000000000E+00 -0.00000000000E+00 -0.45593999997E+02  0.45594000000E+02  0.51100000000E-03 0. -1.
    9900012    2    1    2    0    0  0.25675482333E+01 -0.29779864843E+02  0.31467288801E+02  0.47787275138E+02  0.20000018666E+02 0.  0.
         12    1    1    2    0    0 -0.25675482333E+01  0.29779864843E+02 -0.31467288801E+02  0.43400724862E+02  0.00000000000E+00 0. -1.
         11    1    3    3    0    0 -0.24934153876E+01 -0.70709953045E-01  0.15598609477E+01  0.29419868507E+01  0.51100000000E-03 0. -1.
        -11    1    3    3    0    0 -0.49889465310E+00 -0.13516056779E+02  0.45912931696E+01  0.14283300038E+02  0.51100000000E-03 0.  1.
         12    1    3    3    0    0  0.55598582740E+01 -0.16193098111E+02  0.25316134684E+02  0.30561988250E+02  0.00000000000E+00 0. -1.
</event>
<event>
 7    1  0.2414091E-009  0.4778727E+02  0.7816164E-02  0.1312668E+00
        -11   -1    0    0    0    0  0.00000000000E+00  0.00000000000E+00  0.45593999997E+02  0.45594000000E+02  0.51100000000E-03 0.  1.
         11   -1    0    0    0    0 -0.00000000000E+00 -0.00000000000E+00 -0.45593999997E+02  0.45594000000E+02  0.51100000000E-03 0. -1.
    9900012    2    1    2    0    0  0.19868107918E+02  0.28637994019E+02  0.25860139865E+02  0.47787271348E+02  0.20000001383E+02 0.  0.
         12    1    1    2    0    0 -0.19868107918E+02 -0.28637994019E+02 -0.25860139865E+02  0.43400728652E+02  0.00000000000E+00 0. -1.
         11    1    3    3    0    0  0.60074992546E+01  0.49346170758E+01  0.14536405500E+02  0.16484768063E+02  0.51100000000E-03 0. -1.
        -11    1    3    3    0    0  0.13644514137E+01  0.86082988243E+01  0.71343866143E+01  0.11263392426E+02  0.51100000000E-03 0.  1.
        -12    1    3    3    0    0  0.12496157250E+02  0.15095078119E+02  0.41893477505E+01  0.20039110859E+02  0.00000000000E+00 0.  1.
</event>
<event>
 7    1  0.2414091E-009  0.4778724E+02  0.7816164E-02  0.1312668E+00
        -11   -1    0    0    0    0  0.00000000000E+00  0.00000000000E+00  0.45593999997E+02  0.45594000000E+02  0.51100000000E-03 0.  1.
         11   -1    0    0    0    0 -0.00000000000E+00 -0.00000000000E+00 -0.45593999997E+02  0.45594000000E+02  0.51100000000E-03 0. -1.
    9900012    2    1    2    0    0  0.30142615978E+02 -0.20576765711E+02  0.23487133470E+02  0.47787239364E+02  0.19999855556E+02 0.  0.
         12    1    1    2    0    0 -0.30142615978E+02  0.20576765711E+02 -0.23487133470E+02  0.43400760636E+02  0.00000000000E+00 0. -1.
         11    1    3    3    0    0  0.78497520475E+01 -0.45035457668E+01  0.44910960675E+01  0.10102993409E+02  0.51100000000E-03 0. -1.
        -11    1    3    3    0    0  0.17630759199E+02 -0.21391938900E+01  0.89746845071E+01  0.19898863854E+02  0.51100000000E-03 0.  1.
        -12    1    3    3    0    0  0.46621047320E+01 -0.13934026054E+02  0.10021352895E+02  0.17785382101E+02  0.00000000000E+00 0.  1.
</event>
<event>
 7    1  0.2414091E-009  0.4778727E+02  0.7816164E-02  0.1312668E+00
        -11   -1    0    0    0    0  0.00000000000E+00  0.00000000000E+00  0.45593999997E+02  0.45594000000E+02  0.51100000000E-03 0. -1.
         11   -1    0    0    0    0 -0.00000000000E+00 -0.00000000000E+00 -0.45593999997E+02  0.45594000000E+02  0.51100000000E-03 0.  1.
    9900012    2    1    2    0    0 -0.21487778360E+02 -0.37567226027E+02  0.32561332456E+01  0.47787268509E+02  0.19999988441E+02 0.  0.
         12    1    1    2    0    0  0.21487778360E+02  0.37567226027E+02 -0.32561332456E+01  0.43400731491E+02  0.00000000000E+00 0. -1.
         11    1    3    3    0    0 -0.93805784190E+01 -0.16096597411E+02 -0.33517946518E+01  0.18929612446E+02  0.51100000000E-03 0.  1.
        -11    1    3    3    0    0 -0.14522874318E+02 -0.15028174841E+02  0.30770719111E+01  0.21124116296E+02  0.51100000000E-03 0. -1.
        -12    1    3    3    0    0  0.24156743765E+01 -0.64424537749E+01  0.35308559863E+01  0.77335397672E+01  0.00000000000E+00 0.  1.
</event>
<event>
 7    1  0.2414091E-009  0.4778728E+02  0.7816164E-02  0.1312668E+00
        -11   -1    0    0    0    0  0.00000000000E+00  0.00000000000E+00  0.45593999997E+02  0.45594000000E+02  0.51100000000E-03 0. -1.
         11   -1    0    0    0    0 -0.00000000000E+00 -0.00000000000E+00 -0.45593999997E+02  0.45594000000E+02  0.51100000000E-03 0.  1.
    9900012    2    1    2    0    0 -0.18586297719E+02  0.39112558740E+02 -0.28948294246E+01  0.47787277062E+02  0.20000027438E+02 0.  0.
         12    1    1    2    0    0  0.18586297719E+02 -0.39112558740E+02  0.28948294246E+01  0.43400722938E+02  0.00000000000E+00 0. -1.
         11    1    3    3    0    0 -0.23490805482E+01  0.27230878944E+01  0.31050666201E+01  0.47512973048E+01  0.51100000000E-03 0. -1.
        -11    1    3    3    0    0 -0.75825471537E+01  0.28704301402E+02  0.63325270121E+00  0.29695672236E+02  0.51100000000E-03 0.  1.
        -12    1    3    3    0    0 -0.86546700168E+01  0.76851694440E+01 -0.66331487459E+01  0.13340307521E+02  0.00000000000E+00 0.  1.
</event>
<event>
 7    1  0.2414091E-009  0.4778727E+02  0.7816164E-02  0.1312668E+00
        -11   -1    0    0    0    0  0.00000000000E+00  0.00000000000E+00  0.45593999997E+02  0.45594000000E+02  0.51100000000E-03 0. -1.
         11   -1    0    0    0    0 -0.00000000000E+00 -0.00000000000E+00 -0.45593999997E+02  0.45594000000E+02  0.51100000000E-03 0.  1.
    9900012    2    1    2    0    0 -0.18814831155E+02 -0.14274574951E+02 -0.36412393218E+02  0.47787265660E+02  0.19999975449E+02 0.  0.
         12    1    1    2    0    0  0.18814831155E+02  0.14274574951E+02  0.36412393218E+02  0.43400734340E+02  0.00000000000E+00 0. -1.
         11    1    3    3    0    0 -0.94008640698E+01 -0.84805927667E+01 -0.13051377949E+02  0.18183376077E+02  0.51100000000E-03 0. -1.
        -11    1    3    3    0    0 -0.89234886076E-01 -0.82900409979E+01 -0.13208674616E+02  0.15594929560E+02  0.51100000000E-03 0.  1.
         12    1    3    3    0    0 -0.93247321989E+01  0.24960588135E+01 -0.10152340653E+02  0.14008960023E+02  0.00000000000E+00 0. -1.
</event>
<event>
 7    1  0.2414091E-009  0.4778727E+02  0.7816164E-02  0.1312668E+00
        -11   -1    0    0    0    0  0.00000000000E+00  0.00000000000E+00  0.45593999997E+02  0.45594000000E+02  0.51100000000E-03 0.  1.
         11   -1    0    0    0    0 -0.00000000000E+00 -0.00000000000E+00 -0.45593999997E+02  0.45594000000E+02  0.51100000000E-03 0. -1.
    9900012    2    1    2    0    0 -0.18884149081E+02  0.30274594819E+02  0.24707510294E+02  0.47787271401E+02  0.20000001626E+02 0.  0.
         12    1    1    2    0    0  0.18884149081E+02 -0.30274594819E+02 -0.24707510294E+02  0.43400728599E+02  0.00000000000E+00 0. -1.
         11    1    3    3    0    0 -0.33278226620E+01  0.46236975916E+01  0.10515451505E+02  0.11959419037E+02  0.51100000000E-03 0. -1.
        -11    1    3    3    0    0 -0.62112336506E+01  0.70161884646E+00  0.24691791854E+01  0.67207543162E+01  0.51100000000E-03 0.  1.
         12    1    3    3    0    0 -0.93450927686E+01  0.24949278381E+02  0.11722879604E+02  0.29107098048E+02  0.00000000000E+00 0. -1.
</event>
<event>
 7    1  0.2414091E-009  0.4778727E+02  0.7816164E-02  0.1312668E+00
        -11   -1    0    0    0    0  0.00000000000E+00  0.00000000000E+00  0.45593999997E+02  0.45594000000E+02  0.51100000000E-03 0.  1.
         11   -1    0    0    0    0 -0.00000000000E+00 -0.00000000000E+00 -0.45593999997E+02  0.45594000000E+02  0.51100000000E-03 0. -1.
    9900012    2    1    2    0    0  0.72543918543E+01 -0.74038952531E+01  0.42144741300E+02  0.47787273217E+02  0.20000009905E+02 0.  0.
         12    1    1    2    0    0 -0.72543918543E+01  0.74038952531E+01 -0.42144741300E+02  0.43400726783E+02  0.00000000000E+00 0. -1.
         11    1    3    3    0    0  0.38400364075E+01 -0.51292547163E+01  0.54686400640E+01  0.84238446072E+01  0.51100000000E-03 0. -1.
        -11    1    3    3    0    0 -0.51319869575E+01 -0.14434635902E+01  0.98991360830E+01  0.11243387956E+02  0.51100000000E-03 0.  1.
         12    1    3    3    0    0  0.85463424043E+01 -0.83117694661E+00  0.26776965153E+02  0.28120040654E+02  0.00000000000E+00 0. -1.
</event>
<event>
 7    1  0.2414091E-009  0.4778727E+02  0.7816164E-02  0.1312668E+00
        -11   -1    0    0    0    0  0.00000000000E+00  0.00000000000E+00  0.45593999997E+02  0.45594000000E+02  0.51100000000E-03 0.  1.
         11   -1    0    0    0    0 -0.00000000000E+00 -0.00000000000E+00 -0.45593999997E+02  0.45594000000E+02  0.51100000000E-03 0. -1.
    9900012    2    1    2    0    0 -0.39176835936E+02 -0.17610252590E+02  0.62191409702E+01  0.47787272073E+02  0.20000004688E+02 0.  0.
         12    1    1    2    0    0  0.39176835936E+02  0.17610252590E+02 -0.62191409702E+01  0.43400727927E+02  0.00000000000E+00 0. -1.
         11    1    3    3    0    0 -0.44510709973E+01  0.10664140941E+01 -0.99293168780E+00  0.46835014296E+01  0.51100000000E-03 0. -1.
        -11    1    3    3    0    0 -0.40734308084E+01 -0.20609410625E+01 -0.44142575091E+01  0.63502745005E+01  0.51100000000E-03 0.  1.
        -12    1    3    3    0    0 -0.30652334130E+02 -0.16615725622E+02  0.11626330167E+02  0.36753496143E+02  0.00000000000E+00 0.  1.
</event>
<event>
 7    1  0.2414091E-009  0.4778728E+02  0.7816164E-02  0.1312668E+00
        -11   -1    0    0    0    0  0.00000000000E+00  0.00000000000E+00  0.45593999997E+02  0.45594000000E+02  0.51100000000E-03 0.  1.
         11   -1    0    0    0    0 -0.00000000000E+00 -0.00000000000E+00 -0.45593999997E+02  0.45594000000E+02  0.51100000000E-03 0. -1.
    9900012    2    1    2    0    0 -0.16082315960E+02 -0.39666967480E+01  0.40115424846E+02  0.47787275578E+02  0.20000020671E+02 0.  0.
         12    1    1    2    0    0  0.16082315960E+02  0.39666967480E+01 -0.40115424846E+02  0.43400724422E+02  0.00000000000E+00 0. -1.
         11    1    3    3    0    0 -0.42252107255E+01  0.25176495531E+01  0.46669842472E+01  0.67802438874E+01  0.51100000000E-03 0. -1.
        -11    1    3    3    0    0 -0.41788942681E+01  0.51333016425E+01  0.98821753591E+01  0.11894172235E+02  0.51100000000E-03 0.  1.
         12    1    3    3    0    0 -0.76782109665E+01 -0.11617647944E+02  0.25566265240E+02  0.29112859456E+02  0.00000000000E+00 0. -1.
</event>
<event>
 7    1  0.2414091E-009  0.4778727E+02  0.7816164E-02  0.1312668E+00
        -11   -1    0    0    0    0  0.00000000000E+00  0.00000000000E+00  0.45593999997E+02  0.45594000000E+02  0.51100000000E-03 0.  1.
         11   -1    0    0    0    0 -0.00000000000E+00 -0.00000000000E+00 -0.45593999997E+02  0.45594000000E+02  0.51100000000E-03 0. -1.
    9900012    2    1    2    0    0 -0.19405509463E+02  0.38781639504E+02 -0.17418721361E+01  0.47787268685E+02  0.19999989242E+02 0.  0.
         12    1    1    2    0    0  0.19405509463E+02 -0.38781639504E+02  0.17418721361E+01  0.43400731315E+02  0.00000000000E+00 0. -1.
         11    1    3    3    0    0 -0.50455949208E+01  0.74114403976E+01 -0.48800125598E+01  0.10207938074E+02  0.51100000000E-03 0. -1.
        -11    1    3    3    0    0 -0.10216806440E+02  0.25143926815E+02 -0.37666792821E+01  0.27400512086E+02  0.51100000000E-03 0.  1.
         12    1    3    3    0    0 -0.41431081024E+01  0.62262722910E+01  0.69048197059E+01  0.10178818525E+02  0.00000000000E+00 0. -1.
</event>
<event>
 7    1  0.2414091E-009  0.4778727E+02  0.7816164E-02  0.1312668E+00
        -11   -1    0    0    0    0  0.00000000000E+00  0.00000000000E+00  0.45593999997E+02  0.45594000000E+02  0.51100000000E-03 0.  1.
         11   -1    0    0    0    0 -0.00000000000E+00 -0.00000000000E+00 -0.45593999997E+02  0.45594000000E+02  0.51100000000E-03 0. -1.
    9900012    2    1    2    0    0  0.57122900732E+01  0.43022289079E+02  0.27550249351E+00  0.47787268242E+02  0.19999987224E+02 0.  0.
         12    1    1    2    0    0 -0.57122900732E+01 -0.43022289079E+02 -0.27550249351E+00  0.43400731758E+02  0.00000000000E+00 0. -1.
         11    1    3    3    0    0  0.45673658250E+01  0.30574739622E+02  0.66402631860E+00  0.30921132979E+02  0.51100000000E-03 0. -1.
        -11    1    3    3    0    0  0.19659940130E+01  0.79675040737E+01  0.51551813670E+01  0.96913440147E+01  0.51100000000E-03 0.  1.
         12    1    3    3    0    0 -0.82106976480E+00  0.44800453836E+01 -0.55437051921E+01  0.71747912481E+01  0.00000000000E+00 0. -1.
</event>
<event>
 7    1  0.2414091E-009  0.4778727E+02  0.7816164E-02  0.1312668E+00
        -11   -1    0    0    0    0  0.00000000000E+00  0.00000000000E+00  0.45593999997E+02  0.45594000000E+02  0.51100000000E-03 0.  1.
         11   -1    0    0    0    0 -0.00000000000E+00 -0.00000000000E+00 -0.45593999997E+02  0.45594000000E+02  0.51100000000E-03 0. -1.
    9900012    2    1    2    0    0 -0.28796018066E+02 -0.32176173594E+02  0.43711091337E+01  0.47787269606E+02  0.19999993443E+02 0.  0.
         12    1    1    2    0    0  0.28796018066E+02  0.32176173594E+02 -0.43711091337E+01  0.43400730394E+02  0.00000000000E+00 0. -1.
         11    1    3    3    0    0 -0.10705700569E+02 -0.37357700467E+01  0.17306507255E+01  0.11470098286E+02  0.51100000000E-03 0. -1.
        -11    1    3    3    0    0  0.19967059575E+01 -0.16432183468E+01  0.10454130764E+01  0.27892454137E+01  0.51100000000E-03 0.  1.
        -12    1    3    3    0    0 -0.20087023455E+02 -0.26797185201E+02  0.15950453318E+01  0.33527925906E+02  0.00000000000E+00 0.  1.
</event>
<event>
 7    1  0.2414091E-009  0.4778727E+02  0.7816164E-02  0.1312668E+00
        -11   -1    0    0    0    0  0.00000000000E+00  0.00000000000E+00  0.45593999997E+02  0.45594000000E+02  0.51100000000E-03 0.  1.
         11   -1    0    0    0    0 -0.00000000000E+00 -0.00000000000E+00 -0.45593999997E+02  0.45594000000E+02  0.51100000000E-03 0. -1.
    9900012    2    1    2    0    0  0.95293414357E+01 -0.29550050130E+02  0.30325064302E+02  0.47787270331E+02  0.19999996746E+02 0.  0.
         12    1    1    2    0    0 -0.95293414357E+01  0.29550050130E+02 -0.30325064302E+02  0.43400729669E+02  0.00000000000E+00 0. -1.
         11    1    3    3    0    0 -0.45701821794E+00 -0.63337022554E+01  0.20861700746E+01  0.66840673061E+01  0.51100000000E-03 0. -1.
        -11    1    3    3    0    0 -0.15415171786E+01 -0.11824965915E+02  0.19044905875E+02  0.22470303384E+02  0.51100000000E-03 0.  1.
         12    1    3    3    0    0  0.11527876832E+02 -0.11391381960E+02  0.91939883526E+01  0.18632899641E+02  0.00000000000E+00 0. -1.
</event>
<event>
 7    1  0.2414091E-009  0.4778727E+02  0.7816164E-02  0.1312668E+00
        -11   -1    0    0    0    0  0.00000000000E+00  0.00000000000E+00  0.45593999997E+02  0.45594000000E+02  0.51100000000E-03 0.  1.
         11   -1    0    0    0    0 -0.00000000000E+00 -0.00000000000E+00 -0.45593999997E+02  0.45594000000E+02  0.51100000000E-03 0. -1.
    9900012    2    1    2    0    0 -0.26545157809E+02  0.27929035122E+02  0.19973651472E+02  0.47787272367E+02  0.20000006028E+02 0.  0.
         12    1    1    2    0    0  0.26545157809E+02 -0.27929035122E+02 -0.19973651472E+02  0.43400727633E+02  0.00000000000E+00 0. -1.
         11    1    3    3    0    0 -0.38719916520E+01  0.25198777528E+01 -0.51189444388E+00  0.46480253254E+01  0.51100000000E-03 0. -1.
        -11    1    3    3    0    0 -0.12431249036E+02  0.23235260372E+02  0.19169992550E+02  0.32586836173E+02  0.51100000000E-03 0.  1.
        -12    1    3    3    0    0 -0.10241917121E+02  0.21738969975E+01  0.13155533664E+01  0.10552410868E+02  0.00000000000E+00 0.  1.
</event>
<event>
 7    1  0.2414091E-009  0.4778727E+02  0.7816164E-02  0.1312668E+00
        -11   -1    0    0    0    0  0.00000000000E+00  0.00000000000E+00  0.45593999997E+02  0.45594000000E+02  0.51100000000E-03 0.  1.
         11   -1    0    0    0    0 -0.00000000000E+00 -0.00000000000E+00 -0.45593999997E+02  0.45594000000E+02  0.51100000000E-03 0. -1.
    9900012    2    1    2    0    0  0.34686893804E+02 -0.14116154320E+02  0.21935749356E+02  0.47787268274E+02  0.19999987367E+02 0.  0.
         12    1    1    2    0    0 -0.34686893804E+02  0.14116154320E+02 -0.21935749356E+02  0.43400731726E+02  0.00000000000E+00 0. -1.
         11    1    3    3    0    0  0.16011706047E+02 -0.10609480516E+02  0.68301159160E+00  0.19219841635E+02  0.51100000000E-03 0. -1.
        -11    1    3    3    0    0  0.25073041365E+01 -0.77854448484E+00  0.38217095987E+01  0.46366119167E+01  0.51100000000E-03 0.  1.
         12    1    3    3    0    0  0.16167883620E+02 -0.27281293187E+01  0.17431028166E+02  0.23930814722E+02  0.00000000000E+00 0. -1.
</event>
<event>
 7    1  0.2414091E-009  0.4778727E+02  0.7816164E-02  0.1312668E+00
        -11   -1    0    0    0    0  0.00000000000E+00  0.00000000000E+00  0.45593999997E+02  0.45594000000E+02  0.51100000000E-03 0.  1.
         11   -1    0    0    0    0 -0.00000000000E+00 -0.00000000000E+00 -0.45593999997E+02  0.45594000000E+02  0.51100000000E-03 0. -1.
    9900012    2    1    2    0    0 -0.17662582107E+02  0.32842995170E+02  0.22203471386E+02  0.47787270974E+02  0.19999999678E+02 0.  0.
         12    1    1    2    0    0  0.17662582107E+02 -0.32842995170E+02 -0.22203471386E+02  0.43400729026E+02  0.00000000000E+00 0. -1.
         11    1    3    3    0    0 -0.13490210449E+01 -0.14730032615E+01  0.17467012420E+01  0.26534057131E+01  0.51100000000E-03 0. -1.
        -11    1    3    3    0    0 -0.12693226066E+02  0.14164562617E+02  0.14164637801E+02  0.23714758831E+02  0.51100000000E-03 0.  1.
         12    1    3    3    0    0 -0.36203349960E+01  0.20151435814E+02  0.62921323432E+01  0.21419106430E+02  0.00000000000E+00 0. -1.
</event>
<event>
 7    1  0.2414091E-009  0.4778727E+02  0.7816164E-02  0.1312668E+00
        -11   -1    0    0    0    0  0.00000000000E+00  0.00000000000E+00  0.45593999997E+02  0.45594000000E+02  0.51100000000E-03 0. -1.
         11   -1    0    0    0    0 -0.00000000000E+00 -0.00000000000E+00 -0.45593999997E+02  0.45594000000E+02  0.51100000000E-03 0.  1.
    9900012    2    1    2    0    0  0.35890610500E+02  0.19400919734E+02  0.14801746225E+02  0.47787270745E+02  0.19999998635E+02 0.  0.
         12    1    1    2    0    0 -0.35890610500E+02 -0.19400919734E+02 -0.14801746225E+02  0.43400729255E+02  0.00000000000E+00 0. -1.
         11    1    3    3    0    0  0.81977250807E+01  0.28552392734E+01 -0.44738347290E+01  0.97657711038E+01  0.51100000000E-03 0. -1.
        -11    1    3    3    0    0  0.56716153254E+01  0.62980136533E+01  0.45993057909E+01  0.96429150362E+01  0.51100000000E-03 0.  1.
         12    1    3    3    0    0  0.22021270093E+02  0.10247666808E+02  0.14676275163E+02  0.28378584605E+02  0.00000000000E+00 0. -1.
</event>
<event>
 7    1  0.2414091E-009  0.4778727E+02  0.7816164E-02  0.1312668E+00
        -11   -1    0    0    0    0  0.00000000000E+00  0.00000000000E+00  0.45593999997E+02  0.45594000000E+02  0.51100000000E-03 0.  1.
         11   -1    0    0    0    0 -0.00000000000E+00 -0.00000000000E+00 -0.45593999997E+02  0.45594000000E+02  0.51100000000E-03 0. -1.
    9900012    2    1    2    0    0 -0.29051785433E+01 -0.17227095863E+02  0.39729214049E+02  0.47787270246E+02  0.19999996361E+02 0.  0.
         12    1    1    2    0    0  0.29051785433E+01  0.17227095863E+02 -0.39729214049E+02  0.43400729754E+02  0.00000000000E+00 0. -1.
         11    1    3    3    0    0 -0.32476088881E+01 -0.81433776847E+01  0.26752941742E+01  0.91661749266E+01  0.51100000000E-03 0. -1.
        -11    1    3    3    0    0  0.71170070319E+00 -0.32731624852E+01  0.48450141522E+01  0.58901844574E+01  0.51100000000E-03 0.  1.
        -12    1    3    3    0    0 -0.36927035841E+00 -0.58105556932E+01  0.32208905722E+02  0.32730910862E+02  0.00000000000E+00 0.  1.
</event>
<event>
 7    1  0.2414091E-009  0.4778727E+02  0.7816164E-02  0.1312668E+00
        -11   -1    0    0    0    0  0.00000000000E+00  0.00000000000E+00  0.45593999997E+02  0.45594000000E+02  0.51100000000E-03 0.  1.
         11   -1    0    0    0    0 -0.00000000000E+00 -0.00000000000E+00 -0.45593999997E+02  0.45594000000E+02  0.51100000000E-03 0. -1.
    9900012    2    1    2    0    0  0.16489838818E+02  0.38308517164E+02  0.12006912682E+02  0.47787271623E+02  0.20000002638E+02 0.  0.
         12    1    1    2    0    0 -0.16489838818E+02 -0.38308517164E+02 -0.12006912682E+02  0.43400728377E+02  0.00000000000E+00 0. -1.
         11    1    3    3    0    0  0.77094993353E+01  0.13519509263E+02  0.69379242910E+01  0.17039609868E+02  0.51100000000E-03 0. -1.
        -11    1    3    3    0    0  0.11196001374E+02  0.92529257017E+01  0.13231602556E+01  0.14584849473E+02  0.51100000000E-03 0.  1.
         12    1    3    3    0    0 -0.24156618922E+01  0.15536082199E+02  0.37458281350E+01  0.16162812283E+02  0.00000000000E+00 0. -1.
</event>
<event>
 7    1  0.2414091E-009  0.4778727E+02  0.7816164E-02  0.1312668E+00
        -11   -1    0    0    0    0  0.00000000000E+00  0.00000000000E+00  0.45593999997E+02  0.45594000000E+02  0.51100000000E-03 0. -1.
         11   -1    0    0    0    0 -0.00000000000E+00 -0.00000000000E+00 -0.45593999997E+02  0.45594000000E+02  0.51100000000E-03 0.  1.
    9900012    2    1    2    0    0  0.84642251091E+01 -0.11708120569E+02 -0.40925544086E+02  0.47787270136E+02  0.19999995860E+02 0.  0.
         12    1    1    2    0    0 -0.84642251091E+01  0.11708120569E+02  0.40925544086E+02  0.43400729864E+02  0.00000000000E+00 0. -1.
         11    1    3    3    0    0  0.68366953291E+01 -0.30175653431E+01 -0.58870832709E+01  0.95133513192E+01  0.51100000000E-03 0. -1.
        -11    1    3    3    0    0  0.50811940941E+01 -0.84280915552E+01 -0.15012697116E+02  0.17950831058E+02  0.51100000000E-03 0.  1.
        -12    1    3    3    0    0 -0.34536643141E+01 -0.26246367087E+00 -0.20025763699E+02  0.20323087760E+02  0.00000000000E+00 0.  1.
</event>
<event>
 7    1  0.2414091E-009  0.4778727E+02  0.7816164E-02  0.1312668E+00
        -11   -1    0    0    0    0  0.00000000000E+00  0.00000000000E+00  0.45593999997E+02  0.45594000000E+02  0.51100000000E-03 0.  1.
         11   -1    0    0    0    0 -0.00000000000E+00 -0.00000000000E+00 -0.45593999997E+02  0.45594000000E+02  0.51100000000E-03 0. -1.
    9900012    2    1    2    0    0  0.10779432161E+02 -0.29068660098E+02  0.30371695119E+02  0.47787273946E+02  0.20000013230E+02 0.  0.
         12    1    1    2    0    0 -0.10779432161E+02  0.29068660098E+02 -0.30371695119E+02  0.43400726054E+02  0.00000000000E+00 0. -1.
         11    1    3    3    0    0 -0.12127492752E+01 -0.27876681645E-01  0.60353925879E+01  0.61560946927E+01  0.51100000000E-03 0. -1.
        -11    1    3    3    0    0  0.45426170482E+00 -0.16164554488E+02  0.89257484230E+01  0.18470737957E+02  0.51100000000E-03 0.  1.
         12    1    3    3    0    0  0.11537919731E+02 -0.12876228928E+02  0.15410554108E+02  0.23160441296E+02  0.00000000000E+00 0. -1.
</event>
<event>
 7    1  0.2414091E-009  0.4778727E+02  0.7816164E-02  0.1312668E+00
        -11   -1    0    0    0    0  0.00000000000E+00  0.00000000000E+00  0.45593999997E+02  0.45594000000E+02  0.51100000000E-03 0.  1.
         11   -1    0    0    0    0 -0.00000000000E+00 -0.00000000000E+00 -0.45593999997E+02  0.45594000000E+02  0.51100000000E-03 0. -1.
    9900012    2    1    2    0    0 -0.19752052142E+00 -0.26833745597E+02  0.34110619926E+02  0.47787270642E+02  0.19999998163E+02 0.  0.
         12    1    1    2    0    0  0.19752052142E+00  0.26833745597E+02 -0.34110619926E+02  0.43400729358E+02  0.00000000000E+00 0. -1.
         11    1    3    3    0    0 -0.24885152127E+01 -0.97367517202E+01  0.13611070139E+02  0.16919168792E+02  0.51100000000E-03 0. -1.
        -11    1    3    3    0    0 -0.14151785858E+01 -0.11992441447E+02  0.32559597357E+01  0.12506904347E+02  0.51100000000E-03 0.  1.
         12    1    3    3    0    0  0.37061732771E+01 -0.51045524301E+01  0.17243590051E+02  0.18361197503E+02  0.00000000000E+00 0. -1.
</event>
<event>
 7    1  0.2414091E-009  0.4778727E+02  0.7816164E-02  0.1312668E+00
        -11   -1    0    0    0    0  0.00000000000E+00  0.00000000000E+00  0.45593999997E+02  0.45594000000E+02  0.51100000000E-03 0.  1.
         11   -1    0    0    0    0 -0.00000000000E+00 -0.00000000000E+00 -0.45593999997E+02  0.45594000000E+02  0.51100000000E-03 0. -1.
    9900012    2    1    2    0    0  0.23109868752E+02  0.30733045160E+02  0.20125535877E+02  0.47787270826E+02  0.19999999003E+02 0.  0.
         12    1    1    2    0    0 -0.23109868752E+02 -0.30733045160E+02 -0.20125535877E+02  0.43400729174E+02  0.00000000000E+00 0. -1.
         11    1    3    3    0    0  0.40647777372E+01  0.37338370377E+01 -0.21656624498E+01  0.59290851895E+01  0.51100000000E-03 0. -1.
        -11    1    3    3    0    0  0.16276187476E+02  0.12121467914E+02  0.12560828072E+02  0.23866685259E+02  0.51100000000E-03 0.  1.
        -12    1    3    3    0    0  0.27689035383E+01  0.14877740209E+02  0.97303702546E+01  0.17991500377E+02  0.00000000000E+00 0.  1.
</event>
<event>
 7    1  0.2414091E-009  0.4778727E+02  0.7816164E-02  0.1312668E+00
        -11   -1    0    0    0    0  0.00000000000E+00  0.00000000000E+00  0.45593999997E+02  0.45594000000E+02  0.51100000000E-03 0.  1.
         11   -1    0    0    0    0 -0.00000000000E+00 -0.00000000000E+00 -0.45593999997E+02  0.45594000000E+02  0.51100000000E-03 0. -1.
    9900012    2    1    2    0    0 -0.15260163681E+02  0.11630672487E+02  0.38929146694E+02  0.47787267282E+02  0.19999982847E+02 0.  0.
         12    1    1    2    0    0  0.15260163681E+02 -0.11630672487E+02 -0.38929146694E+02  0.43400732718E+02  0.00000000000E+00 0. -1.
         11    1    3    3    0    0 -0.56798595179E+01 -0.45210108522E+00  0.10618157249E+01  0.57959168756E+01  0.51100000000E-03 0. -1.
        -11    1    3    3    0    0 -0.38309758876E+01 -0.88302195382E+00  0.93006164210E+01  0.10097404126E+02  0.51100000000E-03 0.  1.
        -12    1    3    3    0    0 -0.57493282759E+01  0.12965795526E+02  0.28566714548E+02  0.31893946280E+02  0.00000000000E+00 0.  1.
</event>
<event>
 7    1  0.2414091E-009  0.4778727E+02  0.7816164E-02  0.1312668E+00
        -11   -1    0    0    0    0  0.00000000000E+00  0.00000000000E+00  0.45593999997E+02  0.45594000000E+02  0.51100000000E-03 0.  1.
         11   -1    0    0    0    0 -0.00000000000E+00 -0.00000000000E+00 -0.45593999997E+02  0.45594000000E+02  0.51100000000E-03 0. -1.
    9900012    2    1    2    0    0  0.20016296300E+02  0.23258775983E+02  0.30692026068E+02  0.47787271413E+02  0.20000001680E+02 0.  0.
         12    1    1    2    0    0 -0.20016296300E+02 -0.23258775983E+02 -0.30692026068E+02  0.43400728587E+02  0.00000000000E+00 0. -1.
         11    1    3    3    0    0  0.15360122740E+02  0.17466866443E+02  0.10201381214E+02  0.25398680534E+02  0.51100000000E-03 0. -1.
        -11    1    3    3    0    0  0.10619903946E+00  0.36913348573E+01  0.58909907619E+01  0.69527694973E+01  0.51100000000E-03 0.  1.
         12    1    3    3    0    0  0.45499745202E+01  0.21005746821E+01  0.14599654091E+02  0.15435821381E+02  0.00000000000E+00 0. -1.
</event>
<event>
 7    1  0.2414091E-009  0.4778728E+02  0.7816164E-02  0.1312668E+00
        -11   -1    0    0    0    0  0.00000000000E+00  0.00000000000E+00  0.45593999997E+02  0.45594000000E+02  0.51100000000E-03 0.  1.
         11   -1    0    0    0    0 -0.00000000000E+00 -0.00000000000E+00 -0.45593999997E+02  0.45594000000E+02  0.51100000000E-03 0. -1.
    9900012    2    1    2    0    0 -0.16041665993E+02  0.39874343144E+01  0.40129639684E+02  0.47787278101E+02  0.20000032172E+02 0.  0.
         12    1    1    2    0    0  0.16041665993E+02 -0.39874343144E+01 -0.40129639684E+02  0.43400721899E+02  0.00000000000E+00 0. -1.
         11    1    3    3    0    0  0.43259313769E+00  0.53223773522E+01  0.11905328374E+02  0.13048052784E+02  0.51100000000E-03 0. -1.
        -11    1    3    3    0    0  0.28126637583E+00 -0.87104994429E+00 -0.80445686524E+00  0.12186016120E+01  0.51100000000E-03 0.  1.
        -12    1    3    3    0    0 -0.16755525506E+02 -0.46389309350E+00  0.29028768175E+02  0.33520623705E+02  0.00000000000E+00 0.  1.
</event>
<event>
 7    1  0.2414091E-009  0.4778727E+02  0.7816164E-02  0.1312668E+00
        -11   -1    0    0    0    0  0.00000000000E+00  0.00000000000E+00  0.45593999997E+02  0.45594000000E+02  0.51100000000E-03 0.  1.
         11   -1    0    0    0    0 -0.00000000000E+00 -0.00000000000E+00 -0.45593999997E+02  0.45594000000E+02  0.51100000000E-03 0. -1.
    9900012    2    1    2    0    0 -0.38702359565E+02 -0.19338366484E+02  0.34319379207E+01  0.47787271296E+02  0.20000001148E+02 0.  0.
         12    1    1    2    0    0  0.38702359565E+02  0.19338366484E+02 -0.34319379207E+01  0.43400728704E+02  0.00000000000E+00 0. -1.
         11    1    3    3    0    0 -0.24640173028E+02 -0.13017526174E+02  0.81254641170E+01  0.29027870778E+02  0.51100000000E-03 0.  1.
        -11    1    3    3    0    0  0.15534112422E+00 -0.25676752525E+01  0.12976705675E+01  0.28811518930E+01  0.51100000000E-03 0. -1.
        -12    1    3    3    0    0 -0.14217527661E+02 -0.37531650576E+01 -0.59911967638E+01  0.15878248625E+02  0.00000000000E+00 0.  1.
</event>
<event>
 7    1  0.2414091E-009  0.4778727E+02  0.7816164E-02  0.1312668E+00
        -11   -1    0    0    0    0  0.00000000000E+00  0.00000000000E+00  0.45593999997E+02  0.45594000000E+02  0.51100000000E-03 0.  1.
         11   -1    0    0    0    0 -0.00000000000E+00 -0.00000000000E+00 -0.45593999997E+02  0.45594000000E+02  0.51100000000E-03 0. -1.
    9900012    2    1    2    0    0  0.23516284886E+02  0.24363399812E+02  0.27148348504E+02  0.47787265770E+02  0.19999975951E+02 0.  0.
         12    1    1    2    0    0 -0.23516284886E+02 -0.24363399812E+02 -0.27148348504E+02  0.43400734230E+02  0.00000000000E+00 0. -1.
         11    1    3    3    0    0  0.16100715883E+02  0.34317362520E+01  0.12471211054E+02  0.20652868350E+02  0.51100000000E-03 0. -1.
        -11    1    3    3    0    0  0.44636716179E+01  0.71670606671E+01  0.76801480518E+01  0.11413842354E+02  0.51100000000E-03 0.  1.
        -12    1    3    3    0    0  0.29518973849E+01  0.13764602893E+02  0.69969893979E+01  0.15720555066E+02  0.00000000000E+00 0.  1.
</event>
<event>
 7    1  0.2414091E-009  0.4778727E+02  0.7816164E-02  0.1312668E+00
        -11   -1    0    0    0    0  0.00000000000E+00  0.00000000000E+00  0.45593999997E+02  0.45594000000E+02  0.51100000000E-03 0.  1.
         11   -1    0    0    0    0 -0.00000000000E+00 -0.00000000000E+00 -0.45593999997E+02  0.45594000000E+02  0.51100000000E-03 0. -1.
    9900012    2    1    2    0    0  0.19834468514E+02  0.38587916639E+02 -0.10906416493E+01  0.47787274764E+02  0.20000016960E+02 0.  0.
         12    1    1    2    0    0 -0.19834468514E+02 -0.38587916639E+02  0.10906416493E+01  0.43400725236E+02  0.00000000000E+00 0. -1.
         11    1    3    3    0    0  0.26982627206E+01  0.15860349652E+02 -0.25935175332E+01  0.16295939563E+02  0.51100000000E-03 0.  1.
        -11    1    3    3    0    0  0.98500570378E+01  0.89272208446E+01 -0.55000205066E+01  0.14386421428E+02  0.51100000000E-03 0. -1.
         12    1    3    3    0    0  0.72861487557E+01  0.13800346143E+02  0.70028963904E+01  0.17104913774E+02  0.00000000000E+00 0. -1.
</event>
<event>
 7    1  0.2414091E-009  0.4778727E+02  0.7816164E-02  0.1312668E+00
        -11   -1    0    0    0    0  0.00000000000E+00  0.00000000000E+00  0.45593999997E+02  0.45594000000E+02  0.51100000000E-03 0.  1.
         11   -1    0    0    0    0 -0.00000000000E+00 -0.00000000000E+00 -0.45593999997E+02  0.45594000000E+02  0.51100000000E-03 0. -1.
    9900012    2    1    2    0    0 -0.38180251105E+02  0.19840638806E+02  0.56780673861E+01  0.47787274524E+02  0.20000015863E+02 0.  0.
         12    1    1    2    0    0  0.38180251105E+02 -0.19840638806E+02 -0.56780673861E+01  0.43400725476E+02  0.00000000000E+00 0. -1.
         11    1    3    3    0    0 -0.24898696360E+01 -0.11777413270E+01 -0.37151319146E+01  0.46247952216E+01  0.51100000000E-03 0. -1.
        -11    1    3    3    0    0 -0.11402209242E+02  0.46263431859E+01 -0.27041741175E+00  0.12307987354E+02  0.51100000000E-03 0.  1.
        -12    1    3    3    0    0 -0.24288172226E+02  0.16392036947E+02  0.96636167125E+01  0.30854491948E+02  0.00000000000E+00 0.  1.
</event>
<event>
 7    1  0.2414091E-009  0.4778722E+02  0.7816164E-02  0.1312668E+00
        -11   -1    0    0    0    0  0.00000000000E+00  0.00000000000E+00  0.45593999997E+02  0.45594000000E+02  0.51100000000E-03 0.  1.
         11   -1    0    0    0    0 -0.00000000000E+00 -0.00000000000E+00 -0.45593999997E+02  0.45594000000E+02  0.51100000000E-03 0. -1.
    9900012    2    1    2    0    0  0.45944908356E+01  0.77244706913E+01  0.42459990646E+02  0.47787221215E+02  0.19999772807E+02 0.  0.
         12    1    1    2    0    0 -0.45944908356E+01 -0.77244706913E+01 -0.42459990646E+02  0.43400778785E+02  0.00000000000E+00 0. -1.
         11    1    3    3    0    0 -0.54584263026E+01  0.68294324498E+00  0.78325353598E+01  0.95712820249E+01  0.51100000000E-03 0. -1.
        -11    1    3    3    0    0 -0.80513975849E+00  0.14275689744E+01  0.15028501729E+02  0.15117607869E+02  0.51100000000E-03 0.  1.
        -12    1    3    3    0    0  0.10858056897E+02  0.56139584719E+01  0.19598953557E+02  0.23098331322E+02  0.00000000000E+00 0.  1.
</event>
<event>
 7    1  0.2414091E-009  0.4778727E+02  0.7816164E-02  0.1312668E+00
        -11   -1    0    0    0    0  0.00000000000E+00  0.00000000000E+00  0.45593999997E+02  0.45594000000E+02  0.51100000000E-03 0.  1.
         11   -1    0    0    0    0 -0.00000000000E+00 -0.00000000000E+00 -0.45593999997E+02  0.45594000000E+02  0.51100000000E-03 0. -1.
    9900012    2    1    2    0    0 -0.10697427140E+02 -0.37240982205E+02  0.19552440124E+02  0.47787267082E+02  0.19999981934E+02 0.  0.
         12    1    1    2    0    0  0.10697427140E+02  0.37240982205E+02 -0.19552440124E+02  0.43400732918E+02  0.00000000000E+00 0. -1.
         11    1    3    3    0    0 -0.14944804050E+01 -0.14082648498E+01  0.51110469114E+01  0.55081287530E+01  0.51100000000E-03 0. -1.
        -11    1    3    3    0    0 -0.63474158941E+01 -0.25352189790E+02  0.16924740686E+02  0.31136314220E+02  0.51100000000E-03 0.  1.
        -12    1    3    3    0    0 -0.28555308411E+01 -0.10480527566E+02 -0.24833474741E+01  0.11142824109E+02  0.00000000000E+00 0.  1.
</event>
<event>
 7    1  0.2414091E-009  0.4778727E+02  0.7816164E-02  0.1312668E+00
        -11   -1    0    0    0    0  0.00000000000E+00  0.00000000000E+00  0.45593999997E+02  0.45594000000E+02  0.51100000000E-03 0.  1.
         11   -1    0    0    0    0 -0.00000000000E+00 -0.00000000000E+00 -0.45593999997E+02  0.45594000000E+02  0.51100000000E-03 0. -1.
    9900012    2    1    2    0    0 -0.12755957511E+02  0.33609098675E+02  0.24317423772E+02  0.47787273454E+02  0.20000010988E+02 0.  0.
         12    1    1    2    0    0  0.12755957511E+02 -0.33609098675E+02 -0.24317423772E+02  0.43400726546E+02  0.00000000000E+00 0. -1.
         11    1    3    3    0    0 -0.85594633570E+00  0.16717822684E+02  0.12953631782E+02  0.21166360481E+02  0.51100000000E-03 0. -1.
        -11    1    3    3    0    0 -0.47244877737E+01  0.13037049800E+02  0.12151761887E+02  0.18437753915E+02  0.51100000000E-03 0.  1.
         12    1    3    3    0    0 -0.71755234013E+01  0.38542261907E+01 -0.78796989661E+00  0.81831590580E+01  0.00000000000E+00 0. -1.
</event>
<event>
 7    1  0.2414091E-009  0.4778727E+02  0.7816164E-02  0.1312668E+00
        -11   -1    0    0    0    0  0.00000000000E+00  0.00000000000E+00  0.45593999997E+02  0.45594000000E+02  0.51100000000E-03 0.  1.
         11   -1    0    0    0    0 -0.00000000000E+00 -0.00000000000E+00 -0.45593999997E+02  0.45594000000E+02  0.51100000000E-03 0. -1.
    9900012    2    1    2    0    0  0.94126490752E+01  0.10852721413E+02  0.40954164021E+02  0.47787273332E+02  0.20000010429E+02 0.  0.
         12    1    1    2    0    0 -0.94126490752E+01 -0.10852721413E+02 -0.40954164021E+02  0.43400726668E+02  0.00000000000E+00 0. -1.
         11    1    3    3    0    0 -0.44618344176E+01 -0.98939079449E+00  0.12657059324E+02  0.13456894572E+02  0.51100000000E-03 0. -1.
        -11    1    3    3    0    0  0.43006961855E+01  0.14079082801E+00  0.56947706253E+01  0.71376622555E+01  0.51100000000E-03 0.  1.
         12    1    3    3    0    0  0.95737873073E+01  0.11701321379E+02  0.22602334071E+02  0.27192716504E+02  0.00000000000E+00 0. -1.
</event>
<event>
 7    1  0.2414091E-009  0.4778727E+02  0.7816164E-02  0.1312668E+00
        -11   -1    0    0    0    0  0.00000000000E+00  0.00000000000E+00  0.45593999997E+02  0.45594000000E+02  0.51100000000E-03 0.  1.
         11   -1    0    0    0    0 -0.00000000000E+00 -0.00000000000E+00 -0.45593999997E+02  0.45594000000E+02  0.51100000000E-03 0. -1.
    9900012    2    1    2    0    0  0.15289061846E+02  0.18515789869E+02  0.36152914615E+02  0.47787272797E+02  0.20000007992E+02 0.  0.
         12    1    1    2    0    0 -0.15289061846E+02 -0.18515789869E+02 -0.36152914615E+02  0.43400727203E+02  0.00000000000E+00 0. -1.
         11    1    3    3    0    0  0.83542517820E+00  0.28051658672E+01 -0.16067862572E+01  0.33389598842E+01  0.51100000000E-03 0. -1.
        -11    1    3    3    0    0  0.52388215840E+01  0.10232446532E+02  0.12362790749E+02  0.16881552327E+02  0.51100000000E-03 0.  1.
        -12    1    3    3    0    0  0.92148150835E+01  0.54781774697E+01  0.25396910123E+02  0.27566760586E+02  0.00000000000E+00 0.  1.
</event>
<event>
 7    1  0.2414091E-009  0.4778728E+02  0.7816164E-02  0.1312668E+00
        -11   -1    0    0    0    0  0.00000000000E+00  0.00000000000E+00  0.45593999997E+02  0.45594000000E+02  0.51100000000E-03 0.  1.
         11   -1    0    0    0    0 -0.00000000000E+00 -0.00000000000E+00 -0.45593999997E+02  0.45594000000E+02  0.51100000000E-03 0. -1.
    9900012    2    1    2    0    0  0.24711223842E+02 -0.42946350678E+01  0.35419403745E+02  0.47787278395E+02  0.20000033516E+02 0.  0.
         12    1    1    2    0    0 -0.24711223842E+02  0.42946350678E+01 -0.35419403745E+02  0.43400721605E+02  0.00000000000E+00 0. -1.
         11    1    3    3    0    0  0.18612105070E+01 -0.68868276678E+00 -0.12242703890E+01  0.23317861719E+01  0.51100000000E-03 0. -1.
        -11    1    3    3    0    0  0.93130547144E+01 -0.82652053249E+01  0.14841810757E+02  0.19373330999E+02  0.51100000000E-03 0.  1.
         12    1    3    3    0    0  0.13536958621E+02  0.46592530239E+01  0.21801863377E+02  0.26082161225E+02  0.00000000000E+00 0. -1.
</event>
<event>
 7    1  0.2414091E-009  0.4778727E+02  0.7816164E-02  0.1312668E+00
        -11   -1    0    0    0    0  0.00000000000E+00  0.00000000000E+00  0.45593999997E+02  0.45594000000E+02  0.51100000000E-03 0. -1.
         11   -1    0    0    0    0 -0.00000000000E+00 -0.00000000000E+00 -0.45593999997E+02  0.45594000000E+02  0.51100000000E-03 0.  1.
    9900012    2    1    2    0    0 -0.21119090673E+02 -0.17111826987E+02 -0.33834781493E+02  0.47787273596E+02  0.20000011635E+02 0.  0.
         12    1    1    2    0    0  0.21119090673E+02  0.17111826987E+02  0.33834781493E+02  0.43400726404E+02  0.00000000000E+00 0. -1.
         11    1    3    3    0    0 -0.10100649683E+02  0.38348961814E+00 -0.84542478825E+01  0.13177423717E+02  0.51100000000E-03 0. -1.
        -11    1    3    3    0    0 -0.28120086096E+00  0.15818016462E+01 -0.13054472416E+01  0.20701118650E+01  0.51100000000E-03 0.  1.
        -12    1    3    3    0    0 -0.10737240130E+02 -0.19077118251E+02 -0.24075086369E+02  0.32539738014E+02  0.00000000000E+00 0.  1.
</event>
<event>
 7    1  0.2414091E-009  0.4778727E+02  0.7816164E-02  0.1312668E+00
        -11   -1    0    0    0    0  0.00000000000E+00  0.00000000000E+00  0.45593999997E+02  0.45594000000E+02  0.51100000000E-03 0. -1.
         11   -1    0    0    0    0 -0.00000000000E+00 -0.00000000000E+00 -0.45593999997E+02  0.45594000000E+02  0.51100000000E-03 0.  1.
    9900012    2    1    2    0    0 -0.18853875734E+02  0.54532543165E+01 -0.38709383087E+02  0.47787274754E+02  0.20000016915E+02 0.  0.
         12    1    1    2    0    0  0.18853875734E+02 -0.54532543165E+01  0.38709383087E+02  0.43400725246E+02  0.00000000000E+00 0. -1.
         11    1    3    3    0    0 -0.21247110434E+01  0.15128308144E+01 -0.29859805826E+01  0.39647363584E+01  0.51100000000E-03 0. -1.
        -11    1    3    3    0    0 -0.20339783230E+02  0.32386583411E+01 -0.34020655525E+02  0.39769343624E+02  0.51100000000E-03 0.  1.
         12    1    3    3    0    0  0.36106185395E+01  0.70176516092E+00 -0.17027469800E+01  0.40531947716E+01  0.00000000000E+00 0. -1.
</event>
<event>
 7    1  0.2414091E-009  0.4778728E+02  0.7816164E-02  0.1312668E+00
        -11   -1    0    0    0    0  0.00000000000E+00  0.00000000000E+00  0.45593999997E+02  0.45594000000E+02  0.51100000000E-03 0.  1.
         11   -1    0    0    0    0 -0.00000000000E+00 -0.00000000000E+00 -0.45593999997E+02  0.45594000000E+02  0.51100000000E-03 0. -1.
    9900012    2    1    2    0    0  0.40224129657E+01 -0.19592658656E+02  0.38517149356E+02  0.47787275654E+02  0.20000021017E+02 0.  0.
         12    1    1    2    0    0 -0.40224129657E+01  0.19592658656E+02 -0.38517149356E+02  0.43400724346E+02  0.00000000000E+00 0. -1.
         11    1    3    3    0    0 -0.14285467992E+01  0.12050905904E+01  0.45354838379E+01  0.49054666642E+01  0.51100000000E-03 0. -1.
        -11    1    3    3    0    0  0.36142247144E+00 -0.18425148843E+01  0.16475622213E+02  0.16582268086E+02  0.51100000000E-03 0.  1.
         12    1    3    3    0    0  0.50895372934E+01 -0.18955234362E+02  0.17506043305E+02  0.26299540904E+02  0.00000000000E+00 0. -1.
</event>
<event>
 7    1  0.2414091E-009  0.4778726E+02  0.7816164E-02  0.1312668E+00
        -11   -1    0    0    0    0  0.00000000000E+00  0.00000000000E+00  0.45593999997E+02  0.45594000000E+02  0.51100000000E-03 0.  1.
         11   -1    0    0    0    0 -0.00000000000E+00 -0.00000000000E+00 -0.45593999997E+02  0.45594000000E+02  0.51100000000E-03 0. -1.
    9900012    2    1    2    0    0 -0.65395497118E+01  0.40499021943E+02  0.14166425002E+02  0.47787261688E+02  0.19999957338E+02 0.  0.
         12    1    1    2    0    0  0.65395497118E+01 -0.40499021943E+02 -0.14166425002E+02  0.43400738312E+02  0.00000000000E+00 0. -1.
         11    1    3    3    0    0 -0.10689663128E+01  0.10223410554E+02  0.51326650770E+01  0.11489345647E+02  0.51100000000E-03 0. -1.
        -11    1    3    3    0    0 -0.35159092489E+01  0.82453172013E+01  0.10888532021E+02  0.14103439419E+02  0.51100000000E-03 0.  1.
         12    1    3    3    0    0 -0.19546741501E+01  0.22030294187E+02 -0.18547720963E+01  0.22194476622E+02  0.00000000000E+00 0. -1.
</event>
<event>
 7    1  0.2414091E-009  0.4778726E+02  0.7816164E-02  0.1312668E+00
        -11   -1    0    0    0    0  0.00000000000E+00  0.00000000000E+00  0.45593999997E+02  0.45594000000E+02  0.51100000000E-03 0.  1.
         11   -1    0    0    0    0 -0.00000000000E+00 -0.00000000000E+00 -0.45593999997E+02  0.45594000000E+02  0.51100000000E-03 0. -1.
    9900012    2    1    2    0    0 -0.87219139248E+01  0.38807202825E+02  0.17365289535E+02  0.47787262055E+02  0.19999959012E+02 0.  0.
         12    1    1    2    0    0  0.87219139248E+01 -0.38807202825E+02 -0.17365289535E+02  0.43400737945E+02  0.00000000000E+00 0. -1.
         11    1    3    3    0    0 -0.56221596190E+01  0.21934887130E+01  0.27077968564E+01  0.66145472703E+01  0.51100000000E-03 0. -1.
        -11    1    3    3    0    0 -0.58434157996E+01  0.18006316629E+02  0.33442725311E+01  0.19223868127E+02  0.51100000000E-03 0.  1.
        -12    1    3    3    0    0  0.27436614938E+01  0.18607397483E+02  0.11313220147E+02  0.21948846657E+02  0.00000000000E+00 0.  1.
</event>
<event>
 7    1  0.2414091E-009  0.4778727E+02  0.7816164E-02  0.1312668E+00
        -11   -1    0    0    0    0  0.00000000000E+00  0.00000000000E+00  0.45593999997E+02  0.45594000000E+02  0.51100000000E-03 0. -1.
         11   -1    0    0    0    0 -0.00000000000E+00 -0.00000000000E+00 -0.45593999997E+02  0.45594000000E+02  0.51100000000E-03 0.  1.
    9900012    2    1    2    0    0 -0.90740799676E+01 -0.41649476119E+02 -0.81612120417E+01  0.47787272238E+02  0.20000005444E+02 0.  0.
         12    1    1    2    0    0  0.90740799676E+01  0.41649476119E+02  0.81612120417E+01  0.43400727762E+02  0.00000000000E+00 0. -1.
         11    1    3    3    0    0  0.24896482431E+01 -0.31839079915E+00 -0.19271897134E+01  0.31644559608E+01  0.51100000000E-03 0. -1.
        -11    1    3    3    0    0 -0.39426931834E+01 -0.18423862532E+02 -0.78857196073E+01  0.20424693733E+02  0.51100000000E-03 0.  1.
         12    1    3    3    0    0 -0.76210350274E+01 -0.22907222788E+02  0.16516972789E+01  0.24198122544E+02  0.00000000000E+00 0. -1.
</event>
<event>
 7    1  0.2414091E-009  0.4778727E+02  0.7816164E-02  0.1312668E+00
        -11   -1    0    0    0    0  0.00000000000E+00  0.00000000000E+00  0.45593999997E+02  0.45594000000E+02  0.51100000000E-03 0. -1.
         11   -1    0    0    0    0 -0.00000000000E+00 -0.00000000000E+00 -0.45593999997E+02  0.45594000000E+02  0.51100000000E-03 0.  1.
    9900012    2    1    2    0    0 -0.38248747442E+02  0.63229676313E+01 -0.19510933134E+02  0.47787272906E+02  0.20000008487E+02 0.  0.
         12    1    1    2    0    0  0.38248747442E+02 -0.63229676313E+01  0.19510933134E+02  0.43400727094E+02  0.00000000000E+00 0. -1.
         11    1    3    3    0    0 -0.21745817786E+02  0.12175765907E+02 -0.13373532001E+02  0.28283939348E+02  0.51100000000E-03 0. -1.
        -11    1    3    3    0    0 -0.41787555375E+01  0.10849815484E+01 -0.20660401857E+01  0.47861994434E+01  0.51100000000E-03 0.  1.
        -12    1    3    3    0    0 -0.12324174118E+02 -0.69377798239E+01 -0.40713609482E+01  0.14717134115E+02  0.00000000000E+00 0.  1.
</event>
<event>
 7    1  0.2414091E-009  0.4778729E+02  0.7816164E-02  0.1312668E+00
        -11   -1    0    0    0    0  0.00000000000E+00  0.00000000000E+00  0.45593999997E+02  0.45594000000E+02  0.51100000000E-03 0.  1.
         11   -1    0    0    0    0 -0.00000000000E+00 -0.00000000000E+00 -0.45593999997E+02  0.45594000000E+02  0.51100000000E-03 0. -1.
    9900012    2    1    2    0    0  0.37742922928E+02  0.11687956539E+02  0.17957870344E+02  0.47787289562E+02  0.20000084430E+02 0.  0.
         12    1    1    2    0    0 -0.37742922928E+02 -0.11687956539E+02 -0.17957870344E+02  0.43400710438E+02  0.00000000000E+00 0. -1.
         11    1    3    3    0    0  0.10375691226E+01  0.16361850338E+01  0.10957156066E+01  0.22258131324E+01  0.51100000000E-03 0. -1.
        -11    1    3    3    0    0  0.28445194254E+02  0.15535711742E+02  0.12845885990E+02  0.34864081841E+02  0.51100000000E-03 0.  1.
         12    1    3    3    0    0  0.82601595519E+01 -0.54839402369E+01  0.40162687474E+01  0.10697394589E+02  0.00000000000E+00 0. -1.
</event>
<event>
 7    1  0.2414091E-009  0.4778727E+02  0.7816164E-02  0.1312668E+00
        -11   -1    0    0    0    0  0.00000000000E+00  0.00000000000E+00  0.45593999997E+02  0.45594000000E+02  0.51100000000E-03 0. -1.
         11   -1    0    0    0    0 -0.00000000000E+00 -0.00000000000E+00 -0.45593999997E+02  0.45594000000E+02  0.51100000000E-03 0.  1.
    9900012    2    1    2    0    0  0.37840023996E+02 -0.18412428528E+02 -0.10617823826E+02  0.47787272781E+02  0.20000007919E+02 0.  0.
         12    1    1    2    0    0 -0.37840023996E+02  0.18412428528E+02  0.10617823826E+02  0.43400727219E+02  0.00000000000E+00 0. -1.
         11    1    3    3    0    0  0.19070559333E+01  0.76997311797E+00  0.19610994494E+00  0.20659574794E+01  0.51100000000E-03 0. -1.
        -11    1    3    3    0    0  0.35706178323E+02 -0.13271583500E+02 -0.71347031864E+01  0.38755258854E+02  0.51100000000E-03 0.  1.
        -12    1    3    3    0    0  0.22678973988E+00 -0.59108181459E+01 -0.36792305845E+01  0.69660564478E+01  0.00000000000E+00 0.  1.
</event>
<event>
 7    1  0.2414091E-009  0.4778727E+02  0.7816164E-02  0.1312668E+00
        -11   -1    0    0    0    0  0.00000000000E+00  0.00000000000E+00  0.45593999997E+02  0.45594000000E+02  0.51100000000E-03 0. -1.
         11   -1    0    0    0    0 -0.00000000000E+00 -0.00000000000E+00 -0.45593999997E+02  0.45594000000E+02  0.51100000000E-03 0.  1.
    9900012    2    1    2    0    0 -0.41132606632E+02  0.74888974982E+00 -0.13826465333E+02  0.47787270653E+02  0.19999998216E+02 0.  0.
         12    1    1    2    0    0  0.41132606632E+02 -0.74888974982E+00  0.13826465333E+02  0.43400729347E+02  0.00000000000E+00 0. -1.
         11    1    3    3    0    0 -0.28655795482E+02 -0.13684343768E+01 -0.30206431075E+01  0.28847036457E+02  0.51100000000E-03 0. -1.
        -11    1    3    3    0    0 -0.51323558664E+01  0.30788257991E+01 -0.18027687154E+00  0.59877161800E+01  0.51100000000E-03 0.  1.
        -12    1    3    3    0    0 -0.73444552844E+01 -0.96150167246E+00 -0.10625545354E+02  0.12952518016E+02  0.00000000000E+00 0.  1.
</event>
<event>
 7    1  0.2414091E-009  0.4778727E+02  0.7816164E-02  0.1312668E+00
        -11   -1    0    0    0    0  0.00000000000E+00  0.00000000000E+00  0.45593999997E+02  0.45594000000E+02  0.51100000000E-03 0.  1.
         11   -1    0    0    0    0 -0.00000000000E+00 -0.00000000000E+00 -0.45593999997E+02  0.45594000000E+02  0.51100000000E-03 0. -1.
    9900012    2    1    2    0    0  0.75182864411E+01  0.14966041877E+02  0.40038933152E+02  0.47787271799E+02  0.20000003439E+02 0.  0.
         12    1    1    2    0    0 -0.75182864411E+01 -0.14966041877E+02 -0.40038933152E+02  0.43400728201E+02  0.00000000000E+00 0. -1.
         11    1    3    3    0    0 -0.44394409562E+01  0.18841065136E+01  0.25864205951E+01  0.54724825367E+01  0.51100000000E-03 0. -1.
        -11    1    3    3    0    0  0.36690792682E+01 -0.34563855971E+00  0.48217021371E+01  0.60688071687E+01  0.51100000000E-03 0.  1.
        -12    1    3    3    0    0  0.82886481290E+01  0.13427573923E+02  0.32630810420E+02  0.36245982093E+02  0.00000000000E+00 0.  1.
</event>
<event>
 7    1  0.2414091E-009  0.4778727E+02  0.7816164E-02  0.1312668E+00
        -11   -1    0    0    0    0  0.00000000000E+00  0.00000000000E+00  0.45593999997E+02  0.45594000000E+02  0.51100000000E-03 0.  1.
         11   -1    0    0    0    0 -0.00000000000E+00 -0.00000000000E+00 -0.45593999997E+02  0.45594000000E+02  0.51100000000E-03 0. -1.
    9900012    2    1    2    0    0  0.18553923817E+01 -0.14406494807E+02  0.40897845149E+02  0.47787270612E+02  0.19999998030E+02 0.  0.
         12    1    1    2    0    0 -0.18553923817E+01  0.14406494807E+02 -0.40897845149E+02  0.43400729388E+02  0.00000000000E+00 0. -1.
         11    1    3    3    0    0 -0.45330184960E+01 -0.76077769809E+01  0.11812799036E+02  0.14763764717E+02  0.51100000000E-03 0. -1.
        -11    1    3    3    0    0 -0.27601033972E+00 -0.59211091795E+01  0.23643145418E+02  0.24374864946E+02  0.51100000000E-03 0.  1.
         12    1    3    3    0    0  0.66644212174E+01 -0.87760864652E+00  0.54419006955E+01  0.86486409498E+01  0.00000000000E+00 0. -1.
</event>
<event>
 7    1  0.2414091E-009  0.4778727E+02  0.7816164E-02  0.1312668E+00
        -11   -1    0    0    0    0  0.00000000000E+00  0.00000000000E+00  0.45593999997E+02  0.45594000000E+02  0.51100000000E-03 0. -1.
         11   -1    0    0    0    0 -0.00000000000E+00 -0.00000000000E+00 -0.45593999997E+02  0.45594000000E+02  0.51100000000E-03 0.  1.
    9900012    2    1    2    0    0  0.41864404894E+01  0.28689140331E+02 -0.32295986063E+02  0.47787265298E+02  0.19999973800E+02 0.  0.
         12    1    1    2    0    0 -0.41864404894E+01 -0.28689140331E+02  0.32295986063E+02  0.43400734702E+02  0.00000000000E+00 0. -1.
         11    1    3    3    0    0 -0.20792640189E+01 -0.49252778027E-01 -0.46931430072E+01  0.51333572099E+01  0.51100000000E-03 0. -1.
        -11    1    3    3    0    0 -0.32377472939E+01  0.83657781044E+01 -0.13185948502E+02  0.15947993259E+02  0.51100000000E-03 0.  1.
         12    1    3    3    0    0  0.95034518022E+01  0.20372615005E+02 -0.14416894553E+02  0.26705914829E+02  0.00000000000E+00 0. -1.
</event>
<event>
 7    1  0.2414091E-009  0.4778723E+02  0.7816164E-02  0.1312668E+00
        -11   -1    0    0    0    0  0.00000000000E+00  0.00000000000E+00  0.45593999997E+02  0.45594000000E+02  0.51100000000E-03 0.  1.
         11   -1    0    0    0    0 -0.00000000000E+00 -0.00000000000E+00 -0.45593999997E+02  0.45594000000E+02  0.51100000000E-03 0. -1.
    9900012    2    1    2    0    0 -0.29331808593E+02  0.31861627661E+02 -0.28476040741E+01  0.47787226257E+02  0.19999795796E+02 0.  0.
         12    1    1    2    0    0  0.29331808593E+02 -0.31861627661E+02  0.28476040741E+01  0.43400773743E+02  0.00000000000E+00 0. -1.
         11    1    3    3    0    0 -0.65784448594E+01  0.17041250700E+02  0.12763972947E+01  0.18311454134E+02  0.51100000000E-03 0. -1.
        -11    1    3    3    0    0 -0.34805245733E+01  0.37784563396E+01  0.32417052432E+01  0.60744906586E+01  0.51100000000E-03 0.  1.
         12    1    3    3    0    0 -0.19272839160E+02  0.11041920621E+02 -0.73657066120E+01  0.23401281465E+02  0.00000000000E+00 0. -1.
</event>
<event>
 7    1  0.2414091E-009  0.4778726E+02  0.7816164E-02  0.1312668E+00
        -11   -1    0    0    0    0  0.00000000000E+00  0.00000000000E+00  0.45593999997E+02  0.45594000000E+02  0.51100000000E-03 0. -1.
         11   -1    0    0    0    0 -0.00000000000E+00 -0.00000000000E+00 -0.45593999997E+02  0.45594000000E+02  0.51100000000E-03 0.  1.
    9900012    2    1    2    0    0  0.35783892379E+01 -0.43089478569E+02 -0.37571341162E+01  0.47787261646E+02  0.19999957149E+02 0.  0.
         12    1    1    2    0    0 -0.35783892379E+01  0.43089478569E+02  0.37571341162E+01  0.43400738354E+02  0.00000000000E+00 0. -1.
         11    1    3    3    0    0  0.62582493677E+01 -0.22831508217E+02 -0.14497310864E+01  0.23718034764E+02  0.51100000000E-03 0.  1.
        -11    1    3    3    0    0  0.50555569272E+01 -0.79251927092E+01 -0.88817667415E+00  0.94422557363E+01  0.51100000000E-03 0. -1.
         12    1    3    3    0    0 -0.77354170570E+01 -0.12332777643E+02 -0.14192263557E+01  0.14626971145E+02  0.00000000000E+00 0. -1.
</event>
<event>
 7    1  0.2414091E-009  0.4778727E+02  0.7816164E-02  0.1312668E+00
        -11   -1    0    0    0    0  0.00000000000E+00  0.00000000000E+00  0.45593999997E+02  0.45594000000E+02  0.51100000000E-03 0. -1.
         11   -1    0    0    0    0 -0.00000000000E+00 -0.00000000000E+00 -0.45593999997E+02  0.45594000000E+02  0.51100000000E-03 0.  1.
    9900012    2    1    2    0    0 -0.27820144147E+02  0.15956400264E+02  0.29241341866E+02  0.47787271851E+02  0.20000003676E+02 0.  0.
         12    1    1    2    0    0  0.27820144147E+02 -0.15956400264E+02 -0.29241341866E+02  0.43400728149E+02  0.00000000000E+00 0. -1.
         11    1    3    3    0    0 -0.83806791938E+01 -0.22475056454E+01  0.47217528493E+01  0.98783609778E+01  0.51100000000E-03 0. -1.
        -11    1    3    3    0    0 -0.11175823796E+02  0.55219119131E+01  0.55632721264E+01  0.13650660999E+02  0.51100000000E-03 0.  1.
        -12    1    3    3    0    0 -0.82636411574E+01  0.12681993996E+02  0.18956316890E+02  0.24258249874E+02  0.00000000000E+00 0.  1.
</event>
<event>
 7    1  0.2414091E-009  0.4778727E+02  0.7816164E-02  0.1312668E+00
        -11   -1    0    0    0    0  0.00000000000E+00  0.00000000000E+00  0.45593999997E+02  0.45594000000E+02  0.51100000000E-03 0.  1.
         11   -1    0    0    0    0 -0.00000000000E+00 -0.00000000000E+00 -0.45593999997E+02  0.45594000000E+02  0.51100000000E-03 0. -1.
    9900012    2    1    2    0    0  0.33259424145E+02 -0.25327333214E+02  0.11660202756E+02  0.47787269240E+02  0.19999991774E+02 0.  0.
         12    1    1    2    0    0 -0.33259424145E+02  0.25327333214E+02 -0.11660202756E+02  0.43400730760E+02  0.00000000000E+00 0. -1.
         11    1    3    3    0    0  0.47111785624E+01 -0.15530147816E+01  0.16668751351E+01  0.52331187007E+01  0.51100000000E-03 0.  1.
        -11    1    3    3    0    0  0.15552224257E+02 -0.13678416293E+02  0.14746219219E+02  0.25424825134E+02  0.51100000000E-03 0. -1.
        -12    1    3    3    0    0  0.12996021325E+02 -0.10095902139E+02 -0.47528915974E+01  0.17129325405E+02  0.00000000000E+00 0.  1.
</event>
<event>
 7    1  0.2414091E-009  0.4778728E+02  0.7816164E-02  0.1312668E+00
        -11   -1    0    0    0    0  0.00000000000E+00  0.00000000000E+00  0.45593999997E+02  0.45594000000E+02  0.51100000000E-03 0. -1.
         11   -1    0    0    0    0 -0.00000000000E+00 -0.00000000000E+00 -0.45593999997E+02  0.45594000000E+02  0.51100000000E-03 0.  1.
    9900012    2    1    2    0    0  0.39542315936E+02 -0.14376452881E+01 -0.17831458866E+02  0.47787279973E+02  0.20000040709E+02 0.  0.
         12    1    1    2    0    0 -0.39542315936E+02  0.14376452881E+01  0.17831458866E+02  0.43400720027E+02  0.00000000000E+00 0. -1.
         11    1    3    3    0    0  0.13463188542E+02  0.16120826307E+01 -0.84022301267E+01  0.15951605797E+02  0.51100000000E-03 0.  1.
        -11    1    3    3    0    0  0.17938425128E+02 -0.52201034228E+01 -0.12921322832E+02  0.22715570867E+02  0.51100000000E-03 0. -1.
         12    1    3    3    0    0  0.81407022662E+01  0.21703755039E+01  0.34920940933E+01  0.91201033092E+01  0.00000000000E+00 0. -1.
</event>
<event>
 7    1  0.2414091E-009  0.4778727E+02  0.7816164E-02  0.1312668E+00
        -11   -1    0    0    0    0  0.00000000000E+00  0.00000000000E+00  0.45593999997E+02  0.45594000000E+02  0.51100000000E-03 0.  1.
         11   -1    0    0    0    0 -0.00000000000E+00 -0.00000000000E+00 -0.45593999997E+02  0.45594000000E+02  0.51100000000E-03 0. -1.
    9900012    2    1    2    0    0 -0.22835072866E+02  0.30539127851E+02  0.20725451929E+02  0.47787271431E+02  0.20000001761E+02 0.  0.
         12    1    1    2    0    0  0.22835072866E+02 -0.30539127851E+02 -0.20725451929E+02  0.43400728569E+02  0.00000000000E+00 0. -1.
         11    1    3    3    0    0 -0.33651112337E+01  0.17157957522E+02  0.35852752759E+01  0.17848632413E+02  0.51100000000E-03 0. -1.
        -11    1    3    3    0    0 -0.41233621799E+01  0.63083874676E+01  0.39951075420E+01  0.85298741280E+01  0.51100000000E-03 0.  1.
        -12    1    3    3    0    0 -0.15346599452E+02  0.70727828608E+01  0.13145069111E+02  0.21408764890E+02  0.00000000000E+00 0.  1.
</event>
<event>
 7    1  0.2414091E-009  0.4778727E+02  0.7816164E-02  0.1312668E+00
        -11   -1    0    0    0    0  0.00000000000E+00  0.00000000000E+00  0.45593999997E+02  0.45594000000E+02  0.51100000000E-03 0.  1.
         11   -1    0    0    0    0 -0.00000000000E+00 -0.00000000000E+00 -0.45593999997E+02  0.45594000000E+02  0.51100000000E-03 0. -1.
    9900012    2    1    2    0    0 -0.12374887193E+02  0.15503985492E+01  0.41570202256E+02  0.47787270924E+02  0.19999999453E+02 0.  0.
         12    1    1    2    0    0  0.12374887193E+02 -0.15503985492E+01 -0.41570202256E+02  0.43400729076E+02  0.00000000000E+00 0. -1.
         11    1    3    3    0    0 -0.49486506836E+01  0.50315873028E+01  0.22180077017E+02  0.23275777777E+02  0.51100000000E-03 0. -1.
        -11    1    3    3    0    0 -0.39633485912E+01  0.43311477316E+01  0.11349130929E+02  0.12777705030E+02  0.51100000000E-03 0.  1.
         12    1    3    3    0    0 -0.34628879182E+01 -0.78123364853E+01  0.80409943091E+01  0.11733788117E+02  0.00000000000E+00 0. -1.
</event>
<event>
 7    1  0.2414091E-009  0.4778727E+02  0.7816164E-02  0.1312668E+00
        -11   -1    0    0    0    0  0.00000000000E+00  0.00000000000E+00  0.45593999997E+02  0.45594000000E+02  0.51100000000E-03 0.  1.
         11   -1    0    0    0    0 -0.00000000000E+00 -0.00000000000E+00 -0.45593999997E+02  0.45594000000E+02  0.51100000000E-03 0. -1.
    9900012    2    1    2    0    0  0.12311294672E+02  0.32919516570E+02  0.25462932446E+02  0.47787268711E+02  0.19999989359E+02 0.  0.
         12    1    1    2    0    0 -0.12311294672E+02 -0.32919516570E+02 -0.25462932446E+02  0.43400731289E+02  0.00000000000E+00 0. -1.
         11    1    3    3    0    0 -0.74056909738E-01  0.77803280295E+01  0.49932534526E+01  0.92450835029E+01  0.51100000000E-03 0. -1.
        -11    1    3    3    0    0  0.49104918299E+01  0.24206610073E+02  0.12909619863E+02  0.27869897498E+02  0.51100000000E-03 0.  1.
        -12    1    3    3    0    0  0.74748597521E+01  0.93257846699E+00  0.75600591304E+01  0.10672287710E+02  0.00000000000E+00 0.  1.
</event>
<event>
 7    1  0.2414091E-009  0.4778727E+02  0.7816164E-02  0.1312668E+00
        -11   -1    0    0    0    0  0.00000000000E+00  0.00000000000E+00  0.45593999997E+02  0.45594000000E+02  0.51100000000E-03 0.  1.
         11   -1    0    0    0    0 -0.00000000000E+00 -0.00000000000E+00 -0.45593999997E+02  0.45594000000E+02  0.51100000000E-03 0. -1.
    9900012    2    1    2    0    0 -0.57751965861E+01  0.45685186572E+01  0.42771476826E+02  0.47787268575E+02  0.19999988741E+02 0.  0.
         12    1    1    2    0    0  0.57751965861E+01 -0.45685186572E+01 -0.42771476826E+02  0.43400731425E+02  0.00000000000E+00 0. -1.
         11    1    3    3    0    0 -0.54769254588E+01  0.41861077817E+01  0.94998517320E+01  0.11737435582E+02  0.51100000000E-03 0. -1.
        -11    1    3    3    0    0 -0.39508150257E+01 -0.39724763830E+01  0.60687183564E+01  0.82594703663E+01  0.51100000000E-03 0.  1.
         12    1    3    3    0    0  0.36525438983E+01  0.43548872585E+01  0.27202906738E+02  0.27790362627E+02  0.00000000000E+00 0. -1.
</event>
<event>
 7    1  0.2414091E-009  0.4778727E+02  0.7816164E-02  0.1312668E+00
        -11   -1    0    0    0    0  0.00000000000E+00  0.00000000000E+00  0.45593999997E+02  0.45594000000E+02  0.51100000000E-03 0. -1.
         11   -1    0    0    0    0 -0.00000000000E+00 -0.00000000000E+00 -0.45593999997E+02  0.45594000000E+02  0.51100000000E-03 0.  1.
    9900012    2    1    2    0    0  0.40168424129E+02 -0.15581251115E+02  0.52293179640E+01  0.47787269019E+02  0.19999990765E+02 0.  0.
         12    1    1    2    0    0 -0.40168424129E+02  0.15581251115E+02 -0.52293179640E+01  0.43400730981E+02  0.00000000000E+00 0. -1.
         11    1    3    3    0    0  0.49615761161E+01 -0.15764125043E+01  0.50783004869E+01  0.72726508259E+01  0.51100000000E-03 0. -1.
        -11    1    3    3    0    0  0.36140782383E+02 -0.12406193058E+02  0.14736401823E+01  0.38239265070E+02  0.51100000000E-03 0.  1.
         12    1    3    3    0    0 -0.93393437065E+00 -0.15986455529E+01 -0.13226227052E+01  0.22753531227E+01  0.00000000000E+00 0. -1.
</event>
<event>
 7    1  0.2414091E-009  0.4778727E+02  0.7816164E-02  0.1312668E+00
        -11   -1    0    0    0    0  0.00000000000E+00  0.00000000000E+00  0.45593999997E+02  0.45594000000E+02  0.51100000000E-03 0.  1.
         11   -1    0    0    0    0 -0.00000000000E+00 -0.00000000000E+00 -0.45593999997E+02  0.45594000000E+02  0.51100000000E-03 0. -1.
    9900012    2    1    2    0    0 -0.28185726958E+02 -0.21343181488E+02  0.25172532731E+02  0.47787274151E+02  0.20000014162E+02 0.  0.
         12    1    1    2    0    0  0.28185726958E+02  0.21343181488E+02 -0.25172532731E+02  0.43400725849E+02  0.00000000000E+00 0. -1.
         11    1    3    3    0    0 -0.42046264385E+01  0.25892790812E+01  0.54627732072E+01  0.73637722006E+01  0.51100000000E-03 0. -1.
        -11    1    3    3    0    0 -0.26986104522E+01 -0.48501676122E+00  0.45584813538E+01  0.53195387155E+01  0.51100000000E-03 0.  1.
        -12    1    3    3    0    0 -0.21282490067E+02 -0.23447443808E+02  0.15151278170E+02  0.35103963234E+02  0.00000000000E+00 0.  1.
</event>
<event>
 7    1  0.2414091E-009  0.4778727E+02  0.7816164E-02  0.1312668E+00
        -11   -1    0    0    0    0  0.00000000000E+00  0.00000000000E+00  0.45593999997E+02  0.45594000000E+02  0.51100000000E-03 0. -1.
         11   -1    0    0    0    0 -0.00000000000E+00 -0.00000000000E+00 -0.45593999997E+02  0.45594000000E+02  0.51100000000E-03 0.  1.
    9900012    2    1    2    0    0 -0.11859856974E+02  0.39058652534E+02 -0.14744104496E+02  0.47787272326E+02  0.20000005845E+02 0.  0.
         12    1    1    2    0    0  0.11859856974E+02 -0.39058652534E+02  0.14744104496E+02  0.43400727674E+02  0.00000000000E+00 0. -1.
         11    1    3    3    0    0 -0.11511739678E+02  0.18708875652E+02 -0.11475128799E+02  0.24783477557E+02  0.51100000000E-03 0.  1.
        -11    1    3    3    0    0 -0.26578851224E+01  0.11983091720E+02 -0.63170494325E+01  0.13804490366E+02  0.51100000000E-03 0. -1.
         12    1    3    3    0    0  0.23097678258E+01  0.83666851617E+01  0.30480737355E+01  0.91993044032E+01  0.00000000000E+00 0. -1.
</event>
<event>
 7    1  0.2414091E-009  0.4778727E+02  0.7816164E-02  0.1312668E+00
        -11   -1    0    0    0    0  0.00000000000E+00  0.00000000000E+00  0.45593999997E+02  0.45594000000E+02  0.51100000000E-03 0.  1.
         11   -1    0    0    0    0 -0.00000000000E+00 -0.00000000000E+00 -0.45593999997E+02  0.45594000000E+02  0.51100000000E-03 0. -1.
    9900012    2    1    2    0    0  0.31671872171E+01  0.39829198102E+02  0.16947782028E+02  0.47787269454E+02  0.19999992748E+02 0.  0.
         12    1    1    2    0    0 -0.31671872171E+01 -0.39829198102E+02 -0.16947782028E+02  0.43400730546E+02  0.00000000000E+00 0. -1.
         11    1    3    3    0    0  0.16439940667E+00  0.12085836190E+02  0.21587578837E+01  0.12278220532E+02  0.51100000000E-03 0.  1.
        -11    1    3    3    0    0 -0.35147615993E+01  0.20837977434E+02  0.46887884934E+01  0.21646237328E+02  0.51100000000E-03 0. -1.
         12    1    3    3    0    0  0.65175494097E+01  0.69053844771E+01  0.10100235651E+02  0.13862811594E+02  0.00000000000E+00 0. -1.
</event>
<event>
 7    1  0.2414091E-009  0.4778727E+02  0.7816164E-02  0.1312668E+00
        -11   -1    0    0    0    0  0.00000000000E+00  0.00000000000E+00  0.45593999997E+02  0.45594000000E+02  0.51100000000E-03 0. -1.
         11   -1    0    0    0    0 -0.00000000000E+00 -0.00000000000E+00 -0.45593999997E+02  0.45594000000E+02  0.51100000000E-03 0.  1.
    9900012    2    1    2    0    0 -0.20522485053E+02  0.17018600971E+02 -0.34246429284E+02  0.47787273157E+02  0.20000009634E+02 0.  0.
         12    1    1    2    0    0  0.20522485053E+02 -0.17018600971E+02  0.34246429284E+02  0.43400726843E+02  0.00000000000E+00 0. -1.
         11    1    3    3    0    0 -0.10145169308E+02  0.10547890849E+02 -0.99354375802E+01  0.17688849081E+02  0.51100000000E-03 0. -1.
        -11    1    3    3    0    0 -0.10539979492E+02  0.20786458237E+01 -0.85322644793E+01  0.13719018680E+02  0.51100000000E-03 0.  1.
         12    1    3    3    0    0  0.16266374650E+00  0.43920642986E+01 -0.15778727225E+02  0.16379405396E+02  0.00000000000E+00 0. -1.
</event>
<event>
 7    1  0.2414091E-009  0.4778727E+02  0.7816164E-02  0.1312668E+00
        -11   -1    0    0    0    0  0.00000000000E+00  0.00000000000E+00  0.45593999997E+02  0.45594000000E+02  0.51100000000E-03 0.  1.
         11   -1    0    0    0    0 -0.00000000000E+00 -0.00000000000E+00 -0.45593999997E+02  0.45594000000E+02  0.51100000000E-03 0. -1.
    9900012    2    1    2    0    0 -0.42232369868E+01  0.39887904343E+02  0.16575358790E+02  0.47787272327E+02  0.20000005847E+02 0.  0.
         12    1    1    2    0    0  0.42232369868E+01 -0.39887904343E+02 -0.16575358790E+02  0.43400727673E+02  0.00000000000E+00 0. -1.
         11    1    3    3    0    0 -0.55443462056E+01  0.20973670584E+02  0.16582932595E+02  0.27306195017E+02  0.51100000000E-03 0. -1.
        -11    1    3    3    0    0 -0.29542836990E+01  0.61429994807E+01  0.13366841015E+01  0.69462910566E+01  0.51100000000E-03 0.  1.
         12    1    3    3    0    0  0.42753929178E+01  0.12771234279E+02 -0.13442579062E+01  0.13534786253E+02  0.00000000000E+00 0. -1.
</event>
<event>
 7    1  0.2414091E-009  0.4778727E+02  0.7816164E-02  0.1312668E+00
        -11   -1    0    0    0    0  0.00000000000E+00  0.00000000000E+00  0.45593999997E+02  0.45594000000E+02  0.51100000000E-03 0. -1.
         11   -1    0    0    0    0 -0.00000000000E+00 -0.00000000000E+00 -0.45593999997E+02  0.45594000000E+02  0.51100000000E-03 0.  1.
    9900012    2    1    2    0    0 -0.32060619839E+02 -0.30387551293E+01 -0.29094775241E+02  0.47787270472E+02  0.19999997390E+02 0.  0.
         12    1    1    2    0    0  0.32060619839E+02  0.30387551293E+01  0.29094775241E+02  0.43400729528E+02  0.00000000000E+00 0. -1.
         11    1    3    3    0    0 -0.26698235788E+01 -0.28186861952E+00 -0.74525510701E+01  0.79213588212E+01  0.51100000000E-03 0. -1.
        -11    1    3    3    0    0 -0.52956676910E+01 -0.27554987826E+01 -0.12934459255E+02  0.14245599543E+02  0.51100000000E-03 0.  1.
         12    1    3    3    0    0 -0.24095128569E+02 -0.13877272315E-02 -0.87077649159E+01  0.25620312108E+02  0.00000000000E+00 0. -1.
</event>
<event>
 7    1  0.2414091E-009  0.4778727E+02  0.7816164E-02  0.1312668E+00
        -11   -1    0    0    0    0  0.00000000000E+00  0.00000000000E+00  0.45593999997E+02  0.45594000000E+02  0.51100000000E-03 0.  1.
         11   -1    0    0    0    0 -0.00000000000E+00 -0.00000000000E+00 -0.45593999997E+02  0.45594000000E+02  0.51100000000E-03 0. -1.
    9900012    2    1    2    0    0 -0.18042454235E+02  0.17010289047E+02  0.35619424693E+02  0.47787268396E+02  0.19999987925E+02 0.  0.
         12    1    1    2    0    0  0.18042454235E+02 -0.17010289047E+02 -0.35619424693E+02  0.43400731604E+02  0.00000000000E+00 0. -1.
         11    1    3    3    0    0 -0.45729677212E+01  0.12876555321E+02  0.20288022670E+02  0.24460612724E+02  0.51100000000E-03 0. -1.
        -11    1    3    3    0    0 -0.10085108693E+01  0.97710445183E+00  0.87936483590E+01  0.89050591803E+01  0.51100000000E-03 0.  1.
        -12    1    3    3    0    0 -0.12460975645E+02  0.31566292741E+01  0.65377536641E+01  0.14421596491E+02  0.00000000000E+00 0.  1.
</event>
<event>
 7    1  0.2414091E-009  0.4778727E+02  0.7816164E-02  0.1312668E+00
        -11   -1    0    0    0    0  0.00000000000E+00  0.00000000000E+00  0.45593999997E+02  0.45594000000E+02  0.51100000000E-03 0.  1.
         11   -1    0    0    0    0 -0.00000000000E+00 -0.00000000000E+00 -0.45593999997E+02  0.45594000000E+02  0.51100000000E-03 0. -1.
    9900012    2    1    2    0    0  0.30197139561E+02 -0.96695837252E+01  0.29635368833E+02  0.47787272207E+02  0.20000005302E+02 0.  0.
         12    1    1    2    0    0 -0.30197139561E+02  0.96695837252E+01 -0.29635368833E+02  0.43400727793E+02  0.00000000000E+00 0. -1.
         11    1    3    3    0    0  0.25848982973E+02 -0.67248196022E+01  0.14677827437E+02  0.30476740934E+02  0.51100000000E-03 0. -1.
        -11    1    3    3    0    0  0.60476599635E+01 -0.28610960421E+01  0.96919668450E+01  0.11776853705E+02  0.51100000000E-03 0.  1.
         12    1    3    3    0    0 -0.16995033764E+01 -0.83668080990E-01  0.52655745513E+01  0.55336775683E+01  0.00000000000E+00 0. -1.
</event>
<event>
 7    1  0.2414091E-009  0.4778727E+02  0.7816164E-02  0.1312668E+00
        -11   -1    0    0    0    0  0.00000000000E+00  0.00000000000E+00  0.45593999997E+02  0.45594000000E+02  0.51100000000E-03 0. -1.
         11   -1    0    0    0    0 -0.00000000000E+00 -0.00000000000E+00 -0.45593999997E+02  0.45594000000E+02  0.51100000000E-03 0.  1.
    9900012    2    1    2    0    0  0.18187302899E+02  0.20153312605E+02 -0.33862800647E+02  0.47787271166E+02  0.20000000553E+02 0.  0.
         12    1    1    2    0    0 -0.18187302899E+02 -0.20153312605E+02  0.33862800647E+02  0.43400728834E+02  0.00000000000E+00 0. -1.
         11    1    3    3    0    0 -0.21323682039E+01  0.36867595278E+01  0.24758699171E-01  0.42590847875E+01  0.51100000000E-03 0. -1.
        -11    1    3    3    0    0  0.44047337987E+01  0.56100868745E+01 -0.46513333892E+01  0.85152602506E+01  0.51100000000E-03 0.  1.
         12    1    3    3    0    0  0.15914937304E+02  0.10856466203E+02 -0.29236225957E+02  0.35012926128E+02  0.00000000000E+00 0. -1.
</event>
<event>
 7    1  0.2414091E-009  0.4778726E+02  0.7816164E-02  0.1312668E+00
        -11   -1    0    0    0    0  0.00000000000E+00  0.00000000000E+00  0.45593999997E+02  0.45594000000E+02  0.51100000000E-03 0.  1.
         11   -1    0    0    0    0 -0.00000000000E+00 -0.00000000000E+00 -0.45593999997E+02  0.45594000000E+02  0.51100000000E-03 0. -1.
    9900012    2    1    2    0    0 -0.23413610083E+02  0.27170579282E+01  0.36442342361E+02  0.47787264319E+02  0.19999969335E+02 0.  0.
         12    1    1    2    0    0  0.23413610083E+02 -0.27170579282E+01 -0.36442342361E+02  0.43400735681E+02  0.00000000000E+00 0. -1.
         11    1    3    3    0    0 -0.11548552643E+02  0.23783076495E-01  0.40776954782E+01  0.12247335811E+02  0.51100000000E-03 0. -1.
        -11    1    3    3    0    0 -0.85652336994E+01 -0.49764358452E+00  0.12562664580E+02  0.15212870179E+02  0.51100000000E-03 0.  1.
        -12    1    3    3    0    0 -0.32998237399E+01  0.31909184362E+01  0.19801982303E+02  0.20327058329E+02  0.00000000000E+00 0.  1.
</event>
<event>
 7    1  0.2414091E-009  0.4778727E+02  0.7816164E-02  0.1312668E+00
        -11   -1    0    0    0    0  0.00000000000E+00  0.00000000000E+00  0.45593999997E+02  0.45594000000E+02  0.51100000000E-03 0. -1.
         11   -1    0    0    0    0 -0.00000000000E+00 -0.00000000000E+00 -0.45593999997E+02  0.45594000000E+02  0.51100000000E-03 0.  1.
    9900012    2    1    2    0    0 -0.26684531912E+02  0.32879090847E+02  0.95144458885E+01  0.47787267992E+02  0.19999986080E+02 0.  0.
         12    1    1    2    0    0  0.26684531912E+02 -0.32879090847E+02 -0.95144458885E+01  0.43400732008E+02  0.00000000000E+00 0. -1.
         11    1    3    3    0    0 -0.33987114942E+01  0.44276947168E+01 -0.33901341609E+01  0.65305995296E+01  0.51100000000E-03 0. -1.
        -11    1    3    3    0    0 -0.95405002673E+01  0.18015917105E+02  0.12345932921E+01  0.20423482449E+02  0.51100000000E-03 0.  1.
        -12    1    3    3    0    0 -0.13745320150E+02  0.10435479025E+02  0.11669986757E+02  0.20833186013E+02  0.00000000000E+00 0.  1.
</event>
<event>
 7    1  0.2414091E-009  0.4778727E+02  0.7816164E-02  0.1312668E+00
        -11   -1    0    0    0    0  0.00000000000E+00  0.00000000000E+00  0.45593999997E+02  0.45594000000E+02  0.51100000000E-03 0.  1.
         11   -1    0    0    0    0 -0.00000000000E+00 -0.00000000000E+00 -0.45593999997E+02  0.45594000000E+02  0.51100000000E-03 0. -1.
    9900012    2    1    2    0    0  0.74263849841E+01  0.41938933358E+02  0.83425463833E+01  0.47787269530E+02  0.19999993097E+02 0.  0.
         12    1    1    2    0    0 -0.74263849841E+01 -0.41938933358E+02 -0.83425463833E+01  0.43400730470E+02  0.00000000000E+00 0. -1.
         11    1    3    3    0    0 -0.10914660625E+01  0.10422492368E+02  0.15858257036E+01  0.10598796571E+02  0.51100000000E-03 0. -1.
        -11    1    3    3    0    0  0.79751280420E+01  0.32890245228E+02  0.40235181674E+01  0.34081660716E+02  0.51100000000E-03 0.  1.
         12    1    3    3    0    0  0.54272300464E+00 -0.13738042380E+01  0.27332025123E+01  0.31068122436E+01  0.00000000000E+00 0. -1.
</event>
<event>
 7    1  0.2414091E-009  0.4778727E+02  0.7816164E-02  0.1312668E+00
        -11   -1    0    0    0    0  0.00000000000E+00  0.00000000000E+00  0.45593999997E+02  0.45594000000E+02  0.51100000000E-03 0. -1.
         11   -1    0    0    0    0 -0.00000000000E+00 -0.00000000000E+00 -0.45593999997E+02  0.45594000000E+02  0.51100000000E-03 0.  1.
    9900012    2    1    2    0    0  0.44814310429E+01 -0.40991850019E+02 -0.13535435586E+02  0.47787274100E+02  0.20000013932E+02 0.  0.
         12    1    1    2    0    0 -0.44814310429E+01  0.40991850019E+02  0.13535435586E+02  0.43400725900E+02  0.00000000000E+00 0. -1.
         11    1    3    3    0    0  0.15950415068E+01 -0.44356882869E+01 -0.23908610043E+00  0.47198146586E+01  0.51100000000E-03 0. -1.
        -11    1    3    3    0    0 -0.43696878587E+01 -0.20225119049E+02 -0.14326373744E+02  0.25167331949E+02  0.51100000000E-03 0.  1.
        -12    1    3    3    0    0  0.72560773948E+01 -0.16331042683E+02  0.10300242585E+01  0.17900127492E+02  0.00000000000E+00 0.  1.
</event>
<event>
 7    1  0.2414091E-009  0.4778727E+02  0.7816164E-02  0.1312668E+00
        -11   -1    0    0    0    0  0.00000000000E+00  0.00000000000E+00  0.45593999997E+02  0.45594000000E+02  0.51100000000E-03 0. -1.
         11   -1    0    0    0    0 -0.00000000000E+00 -0.00000000000E+00 -0.45593999997E+02  0.45594000000E+02  0.51100000000E-03 0.  1.
    9900012    2    1    2    0    0 -0.19962488793E+02 -0.11526116888E+02 -0.36773235103E+02  0.47787272480E+02  0.20000006547E+02 0.  0.
         12    1    1    2    0    0  0.19962488793E+02  0.11526116888E+02  0.36773235103E+02  0.43400727520E+02  0.00000000000E+00 0. -1.
         11    1    3    3    0    0 -0.27285771569E+01 -0.23234748729E+01  0.26287872199E+00  0.35934348846E+01  0.51100000000E-03 0. -1.
        -11    1    3    3    0    0 -0.15931332634E+02 -0.11996910241E+02 -0.35571441585E+02  0.40780640891E+02  0.51100000000E-03 0.  1.
        -12    1    3    3    0    0 -0.13025790021E+01  0.27942682259E+01 -0.14646722397E+01  0.34131967047E+01  0.00000000000E+00 0.  1.
</event>
<event>
 7    1  0.2414091E-009  0.4778727E+02  0.7816164E-02  0.1312668E+00
        -11   -1    0    0    0    0  0.00000000000E+00  0.00000000000E+00  0.45593999997E+02  0.45594000000E+02  0.51100000000E-03 0.  1.
         11   -1    0    0    0    0 -0.00000000000E+00 -0.00000000000E+00 -0.45593999997E+02  0.45594000000E+02  0.51100000000E-03 0. -1.
    9900012    2    1    2    0    0 -0.79257652408E+01 -0.26795156923E+02  0.33208808643E+02  0.47787272348E+02  0.20000005945E+02 0.  0.
         12    1    1    2    0    0  0.79257652408E+01  0.26795156923E+02 -0.33208808643E+02  0.43400727652E+02  0.00000000000E+00 0. -1.
         11    1    3    3    0    0 -0.61351485443E+01 -0.21113844180E+01  0.48056721560E+01  0.80741858384E+01  0.51100000000E-03 0. -1.
        -11    1    3    3    0    0 -0.32757768023E+01 -0.38638550602E+01  0.83407210855E+00  0.51337867241E+01  0.51100000000E-03 0.  1.
        -12    1    3    3    0    0  0.14851601057E+01 -0.20819917445E+02  0.27569064379E+02  0.34579299786E+02  0.00000000000E+00 0.  1.
</event>
<event>
 7    1  0.2414091E-009  0.4778727E+02  0.7816164E-02  0.1312668E+00
        -11   -1    0    0    0    0  0.00000000000E+00  0.00000000000E+00  0.45593999997E+02  0.45594000000E+02  0.51100000000E-03 0. -1.
         11   -1    0    0    0    0 -0.00000000000E+00 -0.00000000000E+00 -0.45593999997E+02  0.45594000000E+02  0.51100000000E-03 0.  1.
    9900012    2    1    2    0    0  0.31194035771E+02 -0.23312002689E+02 -0.19160013556E+02  0.47787268941E+02  0.19999990407E+02 0.  0.
         12    1    1    2    0    0 -0.31194035771E+02  0.23312002689E+02  0.19160013556E+02  0.43400731059E+02  0.00000000000E+00 0. -1.
         11    1    3    3    0    0  0.32154629618E+01 -0.85257765901E+01 -0.34402574989E+01  0.97397864681E+01  0.51100000000E-03 0. -1.
        -11    1    3    3    0    0  0.84597413508E+01 -0.11641023093E+02 -0.35156779794E+01  0.14813528759E+02  0.51100000000E-03 0.  1.
        -12    1    3    3    0    0  0.19518831458E+02 -0.31452030058E+01 -0.12204078077E+02  0.23233953713E+02  0.00000000000E+00 0.  1.
</event>
<event>
 7    1  0.2414091E-009  0.4778727E+02  0.7816164E-02  0.1312668E+00
        -11   -1    0    0    0    0  0.00000000000E+00  0.00000000000E+00  0.45593999997E+02  0.45594000000E+02  0.51100000000E-03 0.  1.
         11   -1    0    0    0    0 -0.00000000000E+00 -0.00000000000E+00 -0.45593999997E+02  0.45594000000E+02  0.51100000000E-03 0. -1.
    9900012    2    1    2    0    0  0.39304014411E+02 -0.23056265171E+00  0.18405560063E+02  0.47787270177E+02  0.19999996044E+02 0.  0.
         12    1    1    2    0    0 -0.39304014411E+02  0.23056265171E+00 -0.18405560063E+02  0.43400729823E+02  0.00000000000E+00 0. -1.
         11    1    3    3    0    0  0.67940023353E+01  0.54257743741E+01 -0.13741981038E+01  0.88026084759E+01  0.51100000000E-03 0. -1.
        -11    1    3    3    0    0  0.11322830453E+02  0.57783072386E+00  0.48796838467E+01  0.12343082781E+02  0.51100000000E-03 0.  1.
        -12    1    3    3    0    0  0.21187181623E+02 -0.62341677497E+01  0.14900074320E+02  0.26641578920E+02  0.00000000000E+00 0.  1.
</event>
<event>
 7    1  0.2414091E-009  0.4778727E+02  0.7816164E-02  0.1312668E+00
        -11   -1    0    0    0    0  0.00000000000E+00  0.00000000000E+00  0.45593999997E+02  0.45594000000E+02  0.51100000000E-03 0.  1.
         11   -1    0    0    0    0 -0.00000000000E+00 -0.00000000000E+00 -0.45593999997E+02  0.45594000000E+02  0.51100000000E-03 0. -1.
    9900012    2    1    2    0    0  0.23945370672E+02  0.16782471217E+02  0.32071663083E+02  0.47787266254E+02  0.19999978160E+02 0.  0.
         12    1    1    2    0    0 -0.23945370672E+02 -0.16782471217E+02 -0.32071663083E+02  0.43400733746E+02  0.00000000000E+00 0. -1.
         11    1    3    3    0    0 -0.10990229440E+01 -0.17557948690E+00 -0.17406341957E+00  0.11264892022E+01  0.51100000000E-03 0. -1.
        -11    1    3    3    0    0  0.42652840541E+01  0.10038681477E+02  0.58997328639E+01  0.12400589582E+02  0.51100000000E-03 0.  1.
         12    1    3    3    0    0  0.20779109562E+02  0.69193692267E+01  0.26345993638E+02  0.34260187470E+02  0.00000000000E+00 0. -1.
</event>
<event>
 7    1  0.2414091E-009  0.4778727E+02  0.7816164E-02  0.1312668E+00
        -11   -1    0    0    0    0  0.00000000000E+00  0.00000000000E+00  0.45593999997E+02  0.45594000000E+02  0.51100000000E-03 0.  1.
         11   -1    0    0    0    0 -0.00000000000E+00 -0.00000000000E+00 -0.45593999997E+02  0.45594000000E+02  0.51100000000E-03 0. -1.
    9900012    2    1    2    0    0  0.41082039478E+01 -0.41132016823E+02  0.13225105320E+02  0.47787267767E+02  0.19999985057E+02 0.  0.
         12    1    1    2    0    0 -0.41082039478E+01  0.41132016823E+02 -0.13225105320E+02  0.43400732233E+02  0.00000000000E+00 0. -1.
         11    1    3    3    0    0  0.33662631275E+01 -0.50194636488E+01  0.19010979252E+01  0.63356859413E+01  0.51100000000E-03 0. -1.
        -11    1    3    3    0    0 -0.43158138446E+01 -0.22611355707E+01 -0.11779086994E+01  0.50126292877E+01  0.51100000000E-03 0.  1.
        -12    1    3    3    0    0  0.50577546649E+01 -0.33851417604E+02  0.12501916095E+02  0.36438952538E+02  0.00000000000E+00 0.  1.
</event>
<event>
 7    1  0.2414091E-009  0.4778728E+02  0.7816164E-02  0.1312668E+00
        -11   -1    0    0    0    0  0.00000000000E+00  0.00000000000E+00  0.45593999997E+02  0.45594000000E+02  0.51100000000E-03 0.  1.
         11   -1    0    0    0    0 -0.00000000000E+00 -0.00000000000E+00 -0.45593999997E+02  0.45594000000E+02  0.51100000000E-03 0. -1.
    9900012    2    1    2    0    0 -0.21409790649E+02  0.30695712569E+02  0.21977632079E+02  0.47787283214E+02  0.20000055485E+02 0.  0.
         12    1    1    2    0    0  0.21409790649E+02 -0.30695712569E+02 -0.21977632079E+02  0.43400716786E+02  0.00000000000E+00 0. -1.
         11    1    3    3    0    0 -0.28171600536E+01  0.59226881332E+01 -0.36054787988E+01  0.74842570186E+01  0.51100000000E-03 0. -1.
        -11    1    3    3    0    0 -0.57797225114E+01  0.84387386367E+01  0.66039448867E+01  0.12174957512E+02  0.51100000000E-03 0.  1.
         12    1    3    3    0    0 -0.12812908084E+02  0.16334285799E+02  0.18979165991E+02  0.28128068683E+02  0.00000000000E+00 0. -1.
</event>
<event>
 7    1  0.2414091E-009  0.4778728E+02  0.7816164E-02  0.1312668E+00
        -11   -1    0    0    0    0  0.00000000000E+00  0.00000000000E+00  0.45593999997E+02  0.45594000000E+02  0.51100000000E-03 0.  1.
         11   -1    0    0    0    0 -0.00000000000E+00 -0.00000000000E+00 -0.45593999997E+02  0.45594000000E+02  0.51100000000E-03 0. -1.
    9900012    2    1    2    0    0  0.20144860614E+02  0.38201709337E+02 -0.42937910552E+01  0.47787278266E+02  0.20000032924E+02 0.  0.
         12    1    1    2    0    0 -0.20144860614E+02 -0.38201709337E+02  0.42937910552E+01  0.43400721734E+02  0.00000000000E+00 0. -1.
         11    1    3    3    0    0  0.13297121548E+02  0.17871103053E+02  0.12794044501E+00  0.22275684834E+02  0.51100000000E-03 0. -1.
        -11    1    3    3    0    0  0.53232177642E+01  0.90498438970E+00  0.47478567499E+00  0.54204304081E+01  0.51100000000E-03 0.  1.
         12    1    3    3    0    0  0.15245213010E+01  0.19425621895E+02 -0.48965171752E+01  0.20091163024E+02  0.00000000000E+00 0. -1.
</event>
<event>
 7    1  0.2414091E-009  0.4778727E+02  0.7816164E-02  0.1312668E+00
        -11   -1    0    0    0    0  0.00000000000E+00  0.00000000000E+00  0.45593999997E+02  0.45594000000E+02  0.51100000000E-03 0.  1.
         11   -1    0    0    0    0 -0.00000000000E+00 -0.00000000000E+00 -0.45593999997E+02  0.45594000000E+02  0.51100000000E-03 0. -1.
    9900012    2    1    2    0    0 -0.35525722900E+02 -0.23581857792E+02  0.80896262951E+01  0.47787273531E+02  0.20000011336E+02 0.  0.
         12    1    1    2    0    0  0.35525722900E+02  0.23581857792E+02 -0.80896262951E+01  0.43400726469E+02  0.00000000000E+00 0. -1.
         11    1    3    3    0    0 -0.14728436008E+02 -0.15303157572E+02  0.53869032787E-02  0.21239432388E+02  0.51100000000E-03 0. -1.
        -11    1    3    3    0    0 -0.16794130715E+02 -0.10162491479E+02  0.30823860760E+01  0.19870082126E+02  0.51100000000E-03 0.  1.
        -12    1    3    3    0    0 -0.40031561770E+01  0.18837912587E+01  0.50018533158E+01  0.66777590161E+01  0.00000000000E+00 0.  1.
</event>
<event>
 7    1  0.2414091E-009  0.4778727E+02  0.7816164E-02  0.1312668E+00
        -11   -1    0    0    0    0  0.00000000000E+00  0.00000000000E+00  0.45593999997E+02  0.45594000000E+02  0.51100000000E-03 0.  1.
         11   -1    0    0    0    0 -0.00000000000E+00 -0.00000000000E+00 -0.45593999997E+02  0.45594000000E+02  0.51100000000E-03 0. -1.
    9900012    2    1    2    0    0  0.38389998326E+01 -0.39314027133E+01  0.43051471711E+02  0.47787273469E+02  0.20000011052E+02 0.  0.
         12    1    1    2    0    0 -0.38389998326E+01  0.39314027133E+01 -0.43051471711E+02  0.43400726531E+02  0.00000000000E+00 0. -1.
         11    1    3    3    0    0  0.11670188403E+01 -0.39106243924E+01  0.49717876383E+01  0.64322304602E+01  0.51100000000E-03 0.  1.
        -11    1    3    3    0    0  0.41855121396E+01  0.56908748878E+01  0.78809175811E+01  0.10583639782E+02  0.51100000000E-03 0. -1.
         12    1    3    3    0    0 -0.15135311473E+01 -0.57116532087E+01  0.30198766491E+02  0.30771403226E+02  0.00000000000E+00 0. -1.
</event>
<event>
 7    1  0.2414091E-009  0.4778727E+02  0.7816164E-02  0.1312668E+00
        -11   -1    0    0    0    0  0.00000000000E+00  0.00000000000E+00  0.45593999997E+02  0.45594000000E+02  0.51100000000E-03 0.  1.
         11   -1    0    0    0    0 -0.00000000000E+00 -0.00000000000E+00 -0.45593999997E+02  0.45594000000E+02  0.51100000000E-03 0. -1.
    9900012    2    1    2    0    0 -0.30590899599E+02 -0.19316213345E+02  0.23972987629E+02  0.47787269913E+02  0.19999994840E+02 0.  0.
         12    1    1    2    0    0  0.30590899599E+02  0.19316213345E+02 -0.23972987629E+02  0.43400730087E+02  0.00000000000E+00 0. -1.
         11    1    3    3    0    0 -0.30070199327E+01 -0.12797106299E+01  0.58468581328E+01  0.66981772490E+01  0.51100000000E-03 0. -1.
        -11    1    3    3    0    0 -0.20202270697E+02 -0.44402596930E+01  0.63211632220E+01  0.21628794516E+02  0.51100000000E-03 0.  1.
         12    1    3    3    0    0 -0.73816089691E+01 -0.13596243022E+02  0.11804966274E+02  0.19460298148E+02  0.00000000000E+00 0. -1.
</event>
<event>
 7    1  0.2414091E-009  0.4778727E+02  0.7816164E-02  0.1312668E+00
        -11   -1    0    0    0    0  0.00000000000E+00  0.00000000000E+00  0.45593999997E+02  0.45594000000E+02  0.51100000000E-03 0.  1.
         11   -1    0    0    0    0 -0.00000000000E+00 -0.00000000000E+00 -0.45593999997E+02  0.45594000000E+02  0.51100000000E-03 0. -1.
    9900012    2    1    2    0    0 -0.73115706844E+01 -0.39723051104E+02 -0.15882173956E+02  0.47787270692E+02  0.19999998394E+02 0.  0.
         12    1    1    2    0    0  0.73115706844E+01  0.39723051104E+02  0.15882173956E+02  0.43400729308E+02  0.00000000000E+00 0. -1.
         11    1    3    3    0    0  0.12629666034E+01 -0.14575480810E+02 -0.32784818980E+01  0.14992937314E+02  0.51100000000E-03 0. -1.
        -11    1    3    3    0    0  0.15866930343E+01 -0.29377286567E+01 -0.69709717820E+01  0.77293138306E+01  0.51100000000E-03 0.  1.
        -12    1    3    3    0    0 -0.10161230322E+02 -0.22209841638E+02 -0.56327202755E+01  0.25065019548E+02  0.00000000000E+00 0.  1.
</event>
<event>
 7    1  0.2414091E-009  0.4778727E+02  0.7816164E-02  0.1312668E+00
        -11   -1    0    0    0    0  0.00000000000E+00  0.00000000000E+00  0.45593999997E+02  0.45594000000E+02  0.51100000000E-03 0. -1.
         11   -1    0    0    0    0 -0.00000000000E+00 -0.00000000000E+00 -0.45593999997E+02  0.45594000000E+02  0.51100000000E-03 0.  1.
    9900012    2    1    2    0    0 -0.10696826810E+01  0.40872819101E+02 -0.14556516570E+02  0.47787265710E+02  0.19999975677E+02 0.  0.
         12    1    1    2    0    0  0.10696826810E+01 -0.40872819101E+02  0.14556516570E+02  0.43400734290E+02  0.00000000000E+00 0. -1.
         11    1    3    3    0    0  0.35995491222E+01  0.11325094216E+02 -0.65752216559E+01  0.13581165376E+02  0.51100000000E-03 0. -1.
        -11    1    3    3    0    0  0.23017152700E+01  0.23144288561E+02 -0.84061610320E+01  0.24730942759E+02  0.51100000000E-03 0.  1.
         12    1    3    3    0    0 -0.69709470732E+01  0.64034363238E+01  0.42486611830E+00  0.94751575749E+01  0.00000000000E+00 0. -1.
</event>
<event>
 7    1  0.2414091E-009  0.4778727E+02  0.7816164E-02  0.1312668E+00
        -11   -1    0    0    0    0  0.00000000000E+00  0.00000000000E+00  0.45593999997E+02  0.45594000000E+02  0.51100000000E-03 0.  1.
         11   -1    0    0    0    0 -0.00000000000E+00 -0.00000000000E+00 -0.45593999997E+02  0.45594000000E+02  0.51100000000E-03 0. -1.
    9900012    2    1    2    0    0 -0.74121014190E+00  0.43394394865E+02  0.24454416362E-01  0.47787268484E+02  0.19999988324E+02 0.  0.
         12    1    1    2    0    0  0.74121014190E+00 -0.43394394865E+02 -0.24454416362E-01  0.43400731516E+02  0.00000000000E+00 0. -1.
         11    1    3    3    0    0 -0.58815003975E+01  0.10326037141E+02  0.34395780716E-01  0.11883613647E+02  0.51100000000E-03 0. -1.
        -11    1    3    3    0    0 -0.18427583383E+01  0.24893930761E+02 -0.17033720594E+01  0.25020092399E+02  0.51100000000E-03 0.  1.
         12    1    3    3    0    0  0.69830485938E+01  0.81744269625E+01  0.16934306950E+01  0.10883562438E+02  0.00000000000E+00 0. -1.
</event>
<event>
 7    1  0.2414091E-009  0.4778727E+02  0.7816164E-02  0.1312668E+00
        -11   -1    0    0    0    0  0.00000000000E+00  0.00000000000E+00  0.45593999997E+02  0.45594000000E+02  0.51100000000E-03 0.  1.
         11   -1    0    0    0    0 -0.00000000000E+00 -0.00000000000E+00 -0.45593999997E+02  0.45594000000E+02  0.51100000000E-03 0. -1.
    9900012    2    1    2    0    0 -0.18072206613E+02 -0.39298148539E+02  0.35600400362E+01  0.47787274021E+02  0.20000013572E+02 0.  0.
         12    1    1    2    0    0  0.18072206613E+02  0.39298148539E+02 -0.35600400362E+01  0.43400725979E+02  0.00000000000E+00 0. -1.
         11    1    3    3    0    0 -0.11388387789E+02 -0.21229299356E+02  0.27524834790E+01  0.24247777076E+02  0.51100000000E-03 0. -1.
        -11    1    3    3    0    0 -0.10482160102E+02 -0.12681584292E+02 -0.15803616757E+01  0.16528635873E+02  0.51100000000E-03 0.  1.
         12    1    3    3    0    0  0.37983412785E+01 -0.53872648911E+01  0.23879182329E+01  0.70108610714E+01  0.00000000000E+00 0. -1.
</event>
<event>
 7    1  0.2414091E-009  0.4778727E+02  0.7816164E-02  0.1312668E+00
        -11   -1    0    0    0    0  0.00000000000E+00  0.00000000000E+00  0.45593999997E+02  0.45594000000E+02  0.51100000000E-03 0.  1.
         11   -1    0    0    0    0 -0.00000000000E+00 -0.00000000000E+00 -0.45593999997E+02  0.45594000000E+02  0.51100000000E-03 0. -1.
    9900012    2    1    2    0    0 -0.31143397993E+02  0.25926404638E+02  0.15541364141E+02  0.47787266188E+02  0.19999977859E+02 0.  0.
         12    1    1    2    0    0  0.31143397993E+02 -0.25926404638E+02 -0.15541364141E+02  0.43400733812E+02  0.00000000000E+00 0. -1.
         11    1    3    3    0    0 -0.17417512887E+02  0.47668900976E+01  0.13309621929E+02  0.22432989826E+02  0.51100000000E-03 0. -1.
        -11    1    3    3    0    0 -0.25107887195E+01  0.35270818523E+01 -0.77383811845E-01  0.43301679993E+01  0.51100000000E-03 0.  1.
         12    1    3    3    0    0 -0.11215096387E+02  0.17632432688E+02  0.23091260236E+01  0.21024108363E+02  0.00000000000E+00 0. -1.
</event>
<event>
 7    1  0.2414091E-009  0.4778727E+02  0.7816164E-02  0.1312668E+00
        -11   -1    0    0    0    0  0.00000000000E+00  0.00000000000E+00  0.45593999997E+02  0.45594000000E+02  0.51100000000E-03 0. -1.
         11   -1    0    0    0    0 -0.00000000000E+00 -0.00000000000E+00 -0.45593999997E+02  0.45594000000E+02  0.51100000000E-03 0.  1.
    9900012    2    1    2    0    0 -0.13147457916E+02  0.30846195432E+02 -0.27555038933E+02  0.47787267369E+02  0.19999983243E+02 0.  0.
         12    1    1    2    0    0  0.13147457916E+02 -0.30846195432E+02  0.27555038933E+02  0.43400732631E+02  0.00000000000E+00 0. -1.
         11    1    3    3    0    0 -0.14666899824E+01  0.19654370858E+01  0.12400691182E+01  0.27480709820E+01  0.51100000000E-03 0.  1.
        -11    1    3    3    0    0  0.27398087052E+01  0.29818802618E+01 -0.75560115706E+01  0.85727167662E+01  0.51100000000E-03 0. -1.
        -12    1    3    3    0    0 -0.14420576639E+02  0.25898878085E+02 -0.21239096480E+02  0.36466479621E+02  0.00000000000E+00 0.  1.
</event>
<event>
 7    1  0.2414091E-009  0.4778728E+02  0.7816164E-02  0.1312668E+00
        -11   -1    0    0    0    0  0.00000000000E+00  0.00000000000E+00  0.45593999997E+02  0.45594000000E+02  0.51100000000E-03 0.  1.
         11   -1    0    0    0    0 -0.00000000000E+00 -0.00000000000E+00 -0.45593999997E+02  0.45594000000E+02  0.51100000000E-03 0. -1.
    9900012    2    1    2    0    0  0.34778066780E+02  0.66718852810E+01  0.25091724585E+02  0.47787278522E+02  0.20000034094E+02 0.  0.
         12    1    1    2    0    0 -0.34778066780E+02 -0.66718852810E+01 -0.25091724585E+02  0.43400721478E+02  0.00000000000E+00 0. -1.
         11    1    3    3    0    0  0.50360932053E+01  0.62166548461E+01  0.26328474153E+01  0.84226431731E+01  0.51100000000E-03 0. -1.
        -11    1    3    3    0    0  0.88584121924E+01 -0.24173184877E+01  0.13799189561E+02  0.16575057407E+02  0.51100000000E-03 0.  1.
         12    1    3    3    0    0  0.20883561382E+02  0.28725489226E+01  0.86596876090E+01  0.22789577943E+02  0.00000000000E+00 0. -1.
</event>
<event>
 7    1  0.2414091E-009  0.4778727E+02  0.7816164E-02  0.1312668E+00
        -11   -1    0    0    0    0  0.00000000000E+00  0.00000000000E+00  0.45593999997E+02  0.45594000000E+02  0.51100000000E-03 0.  1.
         11   -1    0    0    0    0 -0.00000000000E+00 -0.00000000000E+00 -0.45593999997E+02  0.45594000000E+02  0.51100000000E-03 0. -1.
    9900012    2    1    2    0    0 -0.33541692792E+01  0.35260952913E+02  0.25080631897E+02  0.47787270188E+02  0.19999996094E+02 0.  0.
         12    1    1    2    0    0  0.33541692792E+01 -0.35260952913E+02 -0.25080631897E+02  0.43400729812E+02  0.00000000000E+00 0. -1.
         11    1    3    3    0    0  0.40086092122E+01  0.14917351753E+01  0.46409202737E+00  0.43022788520E+01  0.51100000000E-03 0. -1.
        -11    1    3    3    0    0 -0.14220250182E+01  0.30578051600E+01 -0.44698411791E+00  0.34017822699E+01  0.51100000000E-03 0.  1.
        -12    1    3    3    0    0 -0.59407534732E+01  0.30711412578E+02  0.25063523987E+02  0.40083209066E+02  0.00000000000E+00 0.  1.
</event>
<event>
 7    1  0.2414091E-009  0.4778727E+02  0.7816164E-02  0.1312668E+00
        -11   -1    0    0    0    0  0.00000000000E+00  0.00000000000E+00  0.45593999997E+02  0.45594000000E+02  0.51100000000E-03 0.  1.
         11   -1    0    0    0    0 -0.00000000000E+00 -0.00000000000E+00 -0.45593999997E+02  0.45594000000E+02  0.51100000000E-03 0. -1.
    9900012    2    1    2    0    0  0.36678560643E+02 -0.15696873796E+01  0.23148275396E+02  0.47787269786E+02  0.19999994263E+02 0.  0.
         12    1    1    2    0    0 -0.36678560643E+02  0.15696873796E+01 -0.23148275396E+02  0.43400730214E+02  0.00000000000E+00 0. -1.
         11    1    3    3    0    0  0.17517785498E+02  0.24920430039E+01  0.97039553508E+01  0.20180432027E+02  0.51100000000E-03 0. -1.
        -11    1    3    3    0    0  0.13349985762E+02 -0.29980839717E+01  0.16101147571E+02  0.21129542842E+02  0.51100000000E-03 0.  1.
        -12    1    3    3    0    0  0.58107893823E+01 -0.10636464119E+01 -0.26568275261E+01  0.64772949167E+01  0.00000000000E+00 0.  1.
</event>
<event>
 7    1  0.2414091E-009  0.4778727E+02  0.7816164E-02  0.1312668E+00
        -11   -1    0    0    0    0  0.00000000000E+00  0.00000000000E+00  0.45593999997E+02  0.45594000000E+02  0.51100000000E-03 0. -1.
         11   -1    0    0    0    0 -0.00000000000E+00 -0.00000000000E+00 -0.45593999997E+02  0.45594000000E+02  0.51100000000E-03 0.  1.
    9900012    2    1    2    0    0  0.44336876824E+00  0.73585711225E+01 -0.42770060533E+02  0.47787271633E+02  0.20000002682E+02 0.  0.
         12    1    1    2    0    0 -0.44336876824E+00 -0.73585711225E+01  0.42770060533E+02  0.43400728367E+02  0.00000000000E+00 0. -1.
         11    1    3    3    0    0  0.10708500215E+01  0.87026918373E+01 -0.15703642267E+02  0.17985770645E+02  0.51100000000E-03 0. -1.
        -11    1    3    3    0    0 -0.20041157435E+01  0.51239914295E+01 -0.15885483414E+02  0.16811316178E+02  0.51100000000E-03 0.  1.
         12    1    3    3    0    0  0.13766344902E+01 -0.64681121442E+01 -0.11180934852E+02  0.12990184809E+02  0.00000000000E+00 0. -1.
</event>
<event>
 7    1  0.2414091E-009  0.4778727E+02  0.7816164E-02  0.1312668E+00
        -11   -1    0    0    0    0  0.00000000000E+00  0.00000000000E+00  0.45593999997E+02  0.45594000000E+02  0.51100000000E-03 0.  1.
         11   -1    0    0    0    0 -0.00000000000E+00 -0.00000000000E+00 -0.45593999997E+02  0.45594000000E+02  0.51100000000E-03 0. -1.
    9900012    2    1    2    0    0 -0.69616976500E+01 -0.39042547012E+02  0.17630593855E+02  0.47787267851E+02  0.19999985440E+02 0.  0.
         12    1    1    2    0    0  0.69616976500E+01  0.39042547012E+02 -0.17630593855E+02  0.43400732149E+02  0.00000000000E+00 0. -1.
         11    1    3    3    0    0 -0.16139755071E+01  0.80818884606E+00  0.68737459884E+00  0.19314684177E+01  0.51100000000E-03 0.  1.
        -11    1    3    3    0    0 -0.28175055112E+01 -0.53946223787E+01  0.82107368390E+01  0.10220395668E+02  0.51100000000E-03 0. -1.
        -12    1    3    3    0    0 -0.25302166317E+01 -0.34456113480E+02  0.87324824176E+01  0.35635403765E+02  0.00000000000E+00 0.  1.
</event>
<event>
 7    1  0.2414091E-009  0.4778727E+02  0.7816164E-02  0.1312668E+00
        -11   -1    0    0    0    0  0.00000000000E+00  0.00000000000E+00  0.45593999997E+02  0.45594000000E+02  0.51100000000E-03 0. -1.
         11   -1    0    0    0    0 -0.00000000000E+00 -0.00000000000E+00 -0.45593999997E+02  0.45594000000E+02  0.51100000000E-03 0.  1.
    9900012    2    1    2    0    0 -0.12461859408E+02  0.29360327851E+02 -0.29432916662E+02  0.47787269883E+02  0.19999994706E+02 0.  0.
         12    1    1    2    0    0  0.12461859408E+02 -0.29360327851E+02  0.29432916662E+02  0.43400730117E+02  0.00000000000E+00 0. -1.
         11    1    3    3    0    0 -0.36778898112E+01  0.37176458054E+01 -0.13031216696E+02  0.14041380724E+02  0.51100000000E-03 0. -1.
        -11    1    3    3    0    0 -0.88853643561E+01  0.15510868252E+02 -0.15345100805E+02  0.23558625865E+02  0.51100000000E-03 0.  1.
        -12    1    3    3    0    0  0.10139475951E+00  0.10131813794E+02 -0.10565991617E+01  0.10187263295E+02  0.00000000000E+00 0.  1.
</event>
<event>
 7    1  0.2414091E-009  0.4778727E+02  0.7816164E-02  0.1312668E+00
        -11   -1    0    0    0    0  0.00000000000E+00  0.00000000000E+00  0.45593999997E+02  0.45594000000E+02  0.51100000000E-03 0.  1.
         11   -1    0    0    0    0 -0.00000000000E+00 -0.00000000000E+00 -0.45593999997E+02  0.45594000000E+02  0.51100000000E-03 0. -1.
    9900012    2    1    2    0    0  0.42902078882E+02 -0.58387589468E+01  0.29906484461E+01  0.47787268940E+02  0.19999990403E+02 0.  0.
         12    1    1    2    0    0 -0.42902078882E+02  0.58387589468E+01 -0.29906484461E+01  0.43400731060E+02  0.00000000000E+00 0. -1.
         11    1    3    3    0    0  0.31233608411E+01  0.71708488908E+00  0.55041105371E+01  0.63690522645E+01  0.51100000000E-03 0. -1.
        -11    1    3    3    0    0 -0.12218292153E+00  0.34421497600E+00 -0.81084778805E+00  0.88931828527E+00  0.51100000000E-03 0.  1.
        -12    1    3    3    0    0  0.39900900963E+02 -0.69000588119E+01 -0.17026143030E+01  0.40528898390E+02  0.00000000000E+00 0.  1.
</event>
<event>
 7    1  0.2414091E-009  0.4778728E+02  0.7816164E-02  0.1312668E+00
        -11   -1    0    0    0    0  0.00000000000E+00  0.00000000000E+00  0.45593999997E+02  0.45594000000E+02  0.51100000000E-03 0. -1.
         11   -1    0    0    0    0 -0.00000000000E+00 -0.00000000000E+00 -0.45593999997E+02  0.45594000000E+02  0.51100000000E-03 0.  1.
    9900012    2    1    2    0    0 -0.22369600925E+02 -0.10252828290E+02 -0.35750570729E+02  0.47787276032E+02  0.20000022742E+02 0.  0.
         12    1    1    2    0    0  0.22369600925E+02  0.10252828290E+02  0.35750570729E+02  0.43400723968E+02  0.00000000000E+00 0. -1.
         11    1    3    3    0    0 -0.91624349068E+01 -0.11543367026E+02 -0.95213568824E+01  0.17545819242E+02  0.51100000000E-03 0.  1.
        -11    1    3    3    0    0  0.63262638704E+00  0.78189685346E-01 -0.95592156247E-01  0.64456799015E+00  0.51100000000E-03 0. -1.
        -12    1    3    3    0    0 -0.13839792405E+02  0.12123490507E+01 -0.26133621690E+02  0.29596888801E+02  0.00000000000E+00 0.  1.
</event>
<event>
 7    1  0.2414091E-009  0.4778727E+02  0.7816164E-02  0.1312668E+00
        -11   -1    0    0    0    0  0.00000000000E+00  0.00000000000E+00  0.45593999997E+02  0.45594000000E+02  0.51100000000E-03 0.  1.
         11   -1    0    0    0    0 -0.00000000000E+00 -0.00000000000E+00 -0.45593999997E+02  0.45594000000E+02  0.51100000000E-03 0. -1.
    9900012    2    1    2    0    0 -0.15882815624E+02 -0.38951604608E+02  0.10683243873E+02  0.47787273815E+02  0.20000012634E+02 0.  0.
         12    1    1    2    0    0  0.15882815624E+02  0.38951604608E+02 -0.10683243873E+02  0.43400726185E+02  0.00000000000E+00 0. -1.
         11    1    3    3    0    0  0.81563097500E+00 -0.39729326497E+01  0.51733692816E+01  0.65736745973E+01  0.51100000000E-03 0. -1.
        -11    1    3    3    0    0 -0.42787532316E+01 -0.56502957313E+01  0.61109045660E+01  0.93582437425E+01  0.51100000000E-03 0.  1.
        -12    1    3    3    0    0 -0.12419693367E+02 -0.29328376227E+02 -0.60102997410E+00  0.31855355476E+02  0.00000000000E+00 0.  1.
</event>
<event>
 7    1  0.2414091E-009  0.4778727E+02  0.7816164E-02  0.1312668E+00
        -11   -1    0    0    0    0  0.00000000000E+00  0.00000000000E+00  0.45593999997E+02  0.45594000000E+02  0.51100000000E-03 0.  1.
         11   -1    0    0    0    0 -0.00000000000E+00 -0.00000000000E+00 -0.45593999997E+02  0.45594000000E+02  0.51100000000E-03 0. -1.
    9900012    2    1    2    0    0  0.13184269556E+02  0.21155309087E+02  0.35528179927E+02  0.47787266881E+02  0.19999981018E+02 0.  0.
         12    1    1    2    0    0 -0.13184269556E+02 -0.21155309087E+02 -0.35528179927E+02  0.43400733119E+02  0.00000000000E+00 0. -1.
         11    1    3    3    0    0  0.82142271736E+01  0.92199120700E+01  0.17086177522E+02  0.21081218400E+02  0.51100000000E-03 0. -1.
        -11    1    3    3    0    0  0.81217584008E+01  0.48834732442E+01  0.16016143152E+02  0.18609892858E+02  0.51100000000E-03 0.  1.
         12    1    3    3    0    0 -0.31517160189E+01  0.70519237733E+01  0.24258592530E+01  0.80961556237E+01  0.00000000000E+00 0. -1.
</event>
<event>
 7    1  0.2414091E-009  0.4778727E+02  0.7816164E-02  0.1312668E+00
        -11   -1    0    0    0    0  0.00000000000E+00  0.00000000000E+00  0.45593999997E+02  0.45594000000E+02  0.51100000000E-03 0.  1.
         11   -1    0    0    0    0 -0.00000000000E+00 -0.00000000000E+00 -0.45593999997E+02  0.45594000000E+02  0.51100000000E-03 0. -1.
    9900012    2    1    2    0    0  0.15841111225E+02  0.23062704655E+02  0.33178218234E+02  0.47787270559E+02  0.19999997787E+02 0.  0.
         12    1    1    2    0    0 -0.15841111225E+02 -0.23062704655E+02 -0.33178218234E+02  0.43400729441E+02  0.00000000000E+00 0. -1.
         11    1    3    3    0    0  0.92397046085E+01  0.14284320002E+02  0.18672684798E+02  0.25260306748E+02  0.51100000000E-03 0. -1.
        -11    1    3    3    0    0  0.77587881420E+01  0.27492367459E+01  0.14159121344E+02  0.16377967322E+02  0.51100000000E-03 0.  1.
         12    1    3    3    0    0 -0.11573815259E+01  0.60291479066E+01  0.34641209183E+00  0.61489964884E+01  0.00000000000E+00 0. -1.
</event>
<event>
 7    1  0.2414091E-009  0.4778727E+02  0.7816164E-02  0.1312668E+00
        -11   -1    0    0    0    0  0.00000000000E+00  0.00000000000E+00  0.45593999997E+02  0.45594000000E+02  0.51100000000E-03 0.  1.
         11   -1    0    0    0    0 -0.00000000000E+00 -0.00000000000E+00 -0.45593999997E+02  0.45594000000E+02  0.51100000000E-03 0. -1.
    9900012    2    1    2    0    0  0.50300770470E+01 -0.25401624868E+02  0.34829280174E+02  0.47787274448E+02  0.20000015517E+02 0.  0.
         12    1    1    2    0    0 -0.50300770470E+01  0.25401624868E+02 -0.34829280174E+02  0.43400725552E+02  0.00000000000E+00 0. -1.
         11    1    3    3    0    0 -0.25043908230E+01 -0.84789763361E+01  0.66246826026E+01  0.11047689032E+02  0.51100000000E-03 0.  1.
        -11    1    3    3    0    0  0.75187972191E+00 -0.11448946995E+02  0.61340189474E+01  0.13010376594E+02  0.51100000000E-03 0. -1.
        -12    1    3    3    0    0  0.67825881480E+01 -0.54737015368E+01  0.22070578624E+02  0.23729208821E+02  0.00000000000E+00 0.  1.
</event>
<event>
 7    1  0.2414091E-009  0.4778726E+02  0.7816164E-02  0.1312668E+00
        -11   -1    0    0    0    0  0.00000000000E+00  0.00000000000E+00  0.45593999997E+02  0.45594000000E+02  0.51100000000E-03 0.  1.
         11   -1    0    0    0    0 -0.00000000000E+00 -0.00000000000E+00 -0.45593999997E+02  0.45594000000E+02  0.51100000000E-03 0. -1.
    9900012    2    1    2    0    0 -0.20529271070E+02 -0.17529974504E+02  0.33983421326E+02  0.47787263810E+02  0.19999967017E+02 0.  0.
         12    1    1    2    0    0  0.20529271070E+02  0.17529974504E+02 -0.33983421326E+02  0.43400736190E+02  0.00000000000E+00 0. -1.
         11    1    3    3    0    0 -0.50350998331E+01 -0.12390816548E+02  0.10522460488E+02  0.17017835939E+02  0.51100000000E-03 0. -1.
        -11    1    3    3    0    0 -0.85238813271E+01 -0.70116568380E+01  0.19819245933E+02  0.22685290259E+02  0.51100000000E-03 0.  1.
         12    1    3    3    0    0 -0.69702899099E+01  0.18724988825E+01  0.36417149045E+01  0.80841376126E+01  0.00000000000E+00 0. -1.
</event>
<event>
 7    1  0.2414091E-009  0.4778727E+02  0.7816164E-02  0.1312668E+00
        -11   -1    0    0    0    0  0.00000000000E+00  0.00000000000E+00  0.45593999997E+02  0.45594000000E+02  0.51100000000E-03 0.  1.
         11   -1    0    0    0    0 -0.00000000000E+00 -0.00000000000E+00 -0.45593999997E+02  0.45594000000E+02  0.51100000000E-03 0. -1.
    9900012    2    1    2    0    0  0.41185466944E+01  0.37857019128E+02  0.20820826392E+02  0.47787272635E+02  0.20000007252E+02 0.  0.
         12    1    1    2    0    0 -0.41185466944E+01 -0.37857019128E+02 -0.20820826392E+02  0.43400727365E+02  0.00000000000E+00 0. -1.
         11    1    3    3    0    0 -0.63279923787E+00  0.83908643083E+01 -0.20909790709E+01  0.86705958533E+01  0.51100000000E-03 0. -1.
        -11    1    3    3    0    0  0.41644981913E+01  0.10929156661E+02  0.33620000919E+01  0.12169328469E+02  0.51100000000E-03 0.  1.
        -12    1    3    3    0    0  0.58684774091E+00  0.18536998159E+02  0.19549805371E+02  0.26947348312E+02  0.00000000000E+00 0.  1.
</event>
<event>
 7    1  0.2414091E-009  0.4778727E+02  0.7816164E-02  0.1312668E+00
        -11   -1    0    0    0    0  0.00000000000E+00  0.00000000000E+00  0.45593999997E+02  0.45594000000E+02  0.51100000000E-03 0.  1.
         11   -1    0    0    0    0 -0.00000000000E+00 -0.00000000000E+00 -0.45593999997E+02  0.45594000000E+02  0.51100000000E-03 0. -1.
    9900012    2    1    2    0    0  0.25109707755E+02  0.34812591169E+02  0.64194704731E+01  0.47787268110E+02  0.19999986621E+02 0.  0.
         12    1    1    2    0    0 -0.25109707755E+02 -0.34812591169E+02 -0.64194704731E+01  0.43400731890E+02  0.00000000000E+00 0. -1.
         11    1    3    3    0    0  0.68248572859E+01  0.35831466921E+01  0.20005541610E+01  0.79636570998E+01  0.51100000000E-03 0. -1.
        -11    1    3    3    0    0  0.11191225702E+02  0.17879390114E+02 -0.54300089152E+01  0.21780751150E+02  0.51100000000E-03 0.  1.
         12    1    3    3    0    0  0.70936247673E+01  0.13350054362E+02  0.98489252273E+01  0.18042859860E+02  0.00000000000E+00 0. -1.
</event>
<event>
 7    1  0.2414091E-009  0.4778727E+02  0.7816164E-02  0.1312668E+00
        -11   -1    0    0    0    0  0.00000000000E+00  0.00000000000E+00  0.45593999997E+02  0.45594000000E+02  0.51100000000E-03 0.  1.
         11   -1    0    0    0    0 -0.00000000000E+00 -0.00000000000E+00 -0.45593999997E+02  0.45594000000E+02  0.51100000000E-03 0. -1.
    9900012    2    1    2    0    0 -0.21523240619E+02  0.10906711008E+02  0.36075156372E+02  0.47787272598E+02  0.20000007083E+02 0.  0.
         12    1    1    2    0    0  0.21523240619E+02 -0.10906711008E+02 -0.36075156372E+02  0.43400727402E+02  0.00000000000E+00 0. -1.
         11    1    3    3    0    0 -0.76480695551E+01  0.46954393223E+01  0.18846160887E+02  0.20873856826E+02  0.51100000000E-03 0. -1.
        -11    1    3    3    0    0 -0.12540070459E+02  0.10380278644E+02  0.13091644756E+02  0.20890062578E+02  0.51100000000E-03 0.  1.
         12    1    3    3    0    0 -0.13351006050E+01 -0.41690069580E+01  0.41373507291E+01  0.60233531937E+01  0.00000000000E+00 0. -1.
</event>
<event>
 7    1  0.2414091E-009  0.4778728E+02  0.7816164E-02  0.1312668E+00
        -11   -1    0    0    0    0  0.00000000000E+00  0.00000000000E+00  0.45593999997E+02  0.45594000000E+02  0.51100000000E-03 0.  1.
         11   -1    0    0    0    0 -0.00000000000E+00 -0.00000000000E+00 -0.45593999997E+02  0.45594000000E+02  0.51100000000E-03 0. -1.
    9900012    2    1    2    0    0  0.23466854215E+02  0.35714615211E+02  0.75759974019E+01  0.47787277390E+02  0.20000028934E+02 0.  0.
         12    1    1    2    0    0 -0.23466854215E+02 -0.35714615211E+02 -0.75759974019E+01  0.43400722610E+02  0.00000000000E+00 0. -1.
         11    1    3    3    0    0  0.21495484088E+02  0.33752436929E+02  0.95216135886E+00  0.40027358723E+02  0.51100000000E-03 0.  1.
        -11    1    3    3    0    0  0.15162658248E+01  0.25789674163E+01  0.38136416691E+01  0.48470607617E+01  0.51100000000E-03 0. -1.
        -12    1    3    3    0    0  0.45510430188E+00 -0.61678913389E+00  0.28101943739E+01  0.29128579060E+01  0.00000000000E+00 0.  1.
</event>
<event>
 7    1  0.2414091E-009  0.4778727E+02  0.7816164E-02  0.1312668E+00
        -11   -1    0    0    0    0  0.00000000000E+00  0.00000000000E+00  0.45593999997E+02  0.45594000000E+02  0.51100000000E-03 0. -1.
         11   -1    0    0    0    0 -0.00000000000E+00 -0.00000000000E+00 -0.45593999997E+02  0.45594000000E+02  0.51100000000E-03 0.  1.
    9900012    2    1    2    0    0 -0.67757304748E+01 -0.39425724631E+02 -0.16832267126E+02  0.47787268408E+02  0.19999987979E+02 0.  0.
         12    1    1    2    0    0  0.67757304748E+01  0.39425724631E+02  0.16832267126E+02  0.43400731592E+02  0.00000000000E+00 0. -1.
         11    1    3    3    0    0  0.42876288331E+01 -0.10590514356E+02 -0.11885017353E+01  0.11487179461E+02  0.51100000000E-03 0. -1.
        -11    1    3    3    0    0 -0.76721661537E+00 -0.13919643936E+02 -0.10522770629E+02  0.17466362261E+02  0.51100000000E-03 0.  1.
        -12    1    3    3    0    0 -0.10296142693E+02 -0.14915566339E+02 -0.51209947619E+01  0.18833726686E+02  0.00000000000E+00 0.  1.
</event>
<event>
 7    1  0.2414091E-009  0.4778727E+02  0.7816164E-02  0.1312668E+00
        -11   -1    0    0    0    0  0.00000000000E+00  0.00000000000E+00  0.45593999997E+02  0.45594000000E+02  0.51100000000E-03 0. -1.
         11   -1    0    0    0    0 -0.00000000000E+00 -0.00000000000E+00 -0.45593999997E+02  0.45594000000E+02  0.51100000000E-03 0.  1.
    9900012    2    1    2    0    0  0.15474651642E+02  0.30769695136E+02 -0.26408035696E+02  0.47787270380E+02  0.19999996970E+02 0.  0.
         12    1    1    2    0    0 -0.15474651642E+02 -0.30769695136E+02  0.26408035696E+02  0.43400729620E+02  0.00000000000E+00 0. -1.
         11    1    3    3    0    0  0.91786175622E+01  0.11982532684E+02 -0.18000635174E+02  0.23491508611E+02  0.51100000000E-03 0. -1.
        -11    1    3    3    0    0 -0.62763430427E+00 -0.12619386851E+01 -0.13228662252E+01  0.19329742305E+01  0.51100000000E-03 0.  1.
        -12    1    3    3    0    0  0.69236683836E+01  0.20049101137E+02 -0.70845342975E+01  0.22362787539E+02  0.00000000000E+00 0.  1.
</event>
<event>
 7    1  0.2414091E-009  0.4778727E+02  0.7816164E-02  0.1312668E+00
        -11   -1    0    0    0    0  0.00000000000E+00  0.00000000000E+00  0.45593999997E+02  0.45594000000E+02  0.51100000000E-03 0.  1.
         11   -1    0    0    0    0 -0.00000000000E+00 -0.00000000000E+00 -0.45593999997E+02  0.45594000000E+02  0.51100000000E-03 0. -1.
    9900012    2    1    2    0    0 -0.78953686491E+01  0.38993505287E+02  0.17343382330E+02  0.47787271766E+02  0.20000003288E+02 0.  0.
         12    1    1    2    0    0  0.78953686491E+01 -0.38993505287E+02 -0.17343382330E+02  0.43400728234E+02  0.00000000000E+00 0. -1.
         11    1    3    3    0    0 -0.15241810647E+00  0.23790417540E+02  0.11765438087E+02  0.26541151664E+02  0.51100000000E-03 0. -1.
        -11    1    3    3    0    0 -0.50920529706E+01  0.16548779003E+02  0.36271515191E+01  0.17690317078E+02  0.51100000000E-03 0.  1.
         12    1    3    3    0    0 -0.26508975720E+01 -0.13456912555E+01  0.19507927234E+01  0.35558030235E+01  0.00000000000E+00 0. -1.
</event>
<event>
 7    1  0.2414091E-009  0.4778727E+02  0.7816164E-02  0.1312668E+00
        -11   -1    0    0    0    0  0.00000000000E+00  0.00000000000E+00  0.45593999997E+02  0.45594000000E+02  0.51100000000E-03 0.  1.
         11   -1    0    0    0    0 -0.00000000000E+00 -0.00000000000E+00 -0.45593999997E+02  0.45594000000E+02  0.51100000000E-03 0. -1.
    9900012    2    1    2    0    0  0.91792044250E+01  0.40857956065E+02 -0.11401445150E+02  0.47787270522E+02  0.19999997617E+02 0.  0.
         12    1    1    2    0    0 -0.91792044250E+01 -0.40857956065E+02  0.11401445150E+02  0.43400729478E+02  0.00000000000E+00 0. -1.
         11    1    3    3    0    0  0.42878956592E+01  0.89376407363E+01 -0.10706015304E+02  0.14590621477E+02  0.51100000000E-03 0. -1.
        -11    1    3    3    0    0 -0.45276856989E+00 -0.24031319185E+00  0.27279586741E+00  0.58066139398E+00  0.51100000000E-03 0.  1.
        -12    1    3    3    0    0  0.53440773357E+01  0.32160628521E+02 -0.96822571334E+00  0.32615987651E+02  0.00000000000E+00 0.  1.
</event>
<event>
 7    1  0.2414091E-009  0.4778728E+02  0.7816164E-02  0.1312668E+00
        -11   -1    0    0    0    0  0.00000000000E+00  0.00000000000E+00  0.45593999997E+02  0.45594000000E+02  0.51100000000E-03 0.  1.
         11   -1    0    0    0    0 -0.00000000000E+00 -0.00000000000E+00 -0.45593999997E+02  0.45594000000E+02  0.51100000000E-03 0. -1.
    9900012    2    1    2    0    0 -0.46692095225E+01 -0.13416738257E+02  0.41009906747E+02  0.47787276108E+02  0.20000023085E+02 0.  0.
         12    1    1    2    0    0  0.46692095225E+01  0.13416738257E+02 -0.41009906747E+02  0.43400723892E+02  0.00000000000E+00 0. -1.
         11    1    3    3    0    0 -0.90094483613E+00 -0.49380103721E+01  0.43254730572E+01  0.66261123944E+01  0.51100000000E-03 0. -1.
        -11    1    3    3    0    0  0.25114257313E+01 -0.10232097768E+02  0.13776306077E+02  0.17343289576E+02  0.51100000000E-03 0.  1.
         12    1    3    3    0    0 -0.62796904177E+01  0.17533698834E+01  0.22908127612E+02  0.23817874137E+02  0.00000000000E+00 0. -1.
</event>
<event>
 7    1  0.2414091E-009  0.4778727E+02  0.7816164E-02  0.1312668E+00
        -11   -1    0    0    0    0  0.00000000000E+00  0.00000000000E+00  0.45593999997E+02  0.45594000000E+02  0.51100000000E-03 0.  1.
         11   -1    0    0    0    0 -0.00000000000E+00 -0.00000000000E+00 -0.45593999997E+02  0.45594000000E+02  0.51100000000E-03 0. -1.
    9900012    2    1    2    0    0  0.19601096922E+02  0.70145253332E+01  0.38081706905E+02  0.47787274580E+02  0.20000016120E+02 0.  0.
         12    1    1    2    0    0 -0.19601096922E+02 -0.70145253332E+01 -0.38081706905E+02  0.43400725420E+02  0.00000000000E+00 0. -1.
         11    1    3    3    0    0  0.35193929562E+01  0.28054823377E+01  0.15043537842E+02  0.15702384819E+02  0.51100000000E-03 0. -1.
        -11    1    3    3    0    0 -0.26748620758E+01 -0.10135134374E+01  0.28669067783E+01  0.40498458427E+01  0.51100000000E-03 0.  1.
        -12    1    3    3    0    0  0.18756566042E+02  0.52225564329E+01  0.20171262284E+02  0.28035043919E+02  0.00000000000E+00 0.  1.
</event>
<event>
 7    1  0.2414091E-009  0.4778727E+02  0.7816164E-02  0.1312668E+00
        -11   -1    0    0    0    0  0.00000000000E+00  0.00000000000E+00  0.45593999997E+02  0.45594000000E+02  0.51100000000E-03 0.  1.
         11   -1    0    0    0    0 -0.00000000000E+00 -0.00000000000E+00 -0.45593999997E+02  0.45594000000E+02  0.51100000000E-03 0. -1.
    9900012    2    1    2    0    0 -0.29252313781E+02  0.15835721928E+02  0.27877508220E+02  0.47787269417E+02  0.19999992582E+02 0.  0.
         12    1    1    2    0    0  0.29252313781E+02 -0.15835721928E+02 -0.27877508220E+02  0.43400730583E+02  0.00000000000E+00 0. -1.
         11    1    3    3    0    0 -0.13178672629E+02  0.26137847742E+00  0.12070788675E+02  0.17873155022E+02  0.51100000000E-03 0.  1.
        -11    1    3    3    0    0 -0.14373158303E+02  0.17612708165E+02  0.13902669119E+02  0.26647314638E+02  0.51100000000E-03 0. -1.
         12    1    3    3    0    0 -0.17004828492E+01 -0.20383647140E+01  0.19040504259E+01  0.32667997569E+01  0.00000000000E+00 0. -1.
</event>
<event>
 7    1  0.2414091E-009  0.4778727E+02  0.7816164E-02  0.1312668E+00
        -11   -1    0    0    0    0  0.00000000000E+00  0.00000000000E+00  0.45593999997E+02  0.45594000000E+02  0.51100000000E-03 0.  1.
         11   -1    0    0    0    0 -0.00000000000E+00 -0.00000000000E+00 -0.45593999997E+02  0.45594000000E+02  0.51100000000E-03 0. -1.
    9900012    2    1    2    0    0  0.23663037642E+02 -0.11238622009E+02  0.34603142701E+02  0.47787268901E+02  0.19999990229E+02 0.  0.
         12    1    1    2    0    0 -0.23663037642E+02  0.11238622009E+02 -0.34603142701E+02  0.43400731099E+02  0.00000000000E+00 0. -1.
         11    1    3    3    0    0  0.64615059123E+00  0.15158621716E+01  0.38867662113E+01  0.42216466636E+01  0.51100000000E-03 0. -1.
        -11    1    3    3    0    0 -0.14702554206E+01 -0.48670065842E+01  0.63199034883E+01  0.81111395287E+01  0.51100000000E-03 0.  1.
         12    1    3    3    0    0  0.24487142472E+02 -0.78874775964E+01  0.24396473001E+02  0.35454482709E+02  0.00000000000E+00 0. -1.
</event>
<event>
 7    1  0.2414091E-009  0.4778727E+02  0.7816164E-02  0.1312668E+00
        -11   -1    0    0    0    0  0.00000000000E+00  0.00000000000E+00  0.45593999997E+02  0.45594000000E+02  0.51100000000E-03 0. -1.
         11   -1    0    0    0    0 -0.00000000000E+00 -0.00000000000E+00 -0.45593999997E+02  0.45594000000E+02  0.51100000000E-03 0.  1.
    9900012    2    1    2    0    0 -0.25283434922E+02  0.72994897642E+01 -0.34512154808E+02  0.47787268880E+02  0.19999990131E+02 0.  0.
         12    1    1    2    0    0  0.25283434922E+02 -0.72994897642E+01  0.34512154808E+02  0.43400731120E+02  0.00000000000E+00 0. -1.
         11    1    3    3    0    0 -0.70931545303E+01 -0.26413674579E+00 -0.15495352855E+01  0.72652370418E+01  0.51100000000E-03 0. -1.
        -11    1    3    3    0    0 -0.48459194704E+01 -0.36460013502E+01 -0.71279940492E+01  0.93586623395E+01  0.51100000000E-03 0.  1.
        -12    1    3    3    0    0 -0.13344360921E+02  0.11209627860E+02 -0.25834625473E+02  0.31163369499E+02  0.00000000000E+00 0.  1.
</event>
<event>
 7    1  0.2414091E-009  0.4778727E+02  0.7816164E-02  0.1312668E+00
        -11   -1    0    0    0    0  0.00000000000E+00  0.00000000000E+00  0.45593999997E+02  0.45594000000E+02  0.51100000000E-03 0.  1.
         11   -1    0    0    0    0 -0.00000000000E+00 -0.00000000000E+00 -0.45593999997E+02  0.45594000000E+02  0.51100000000E-03 0. -1.
    9900012    2    1    2    0    0  0.31995457462E+02 -0.22634991565E+02  0.18643261573E+02  0.47787270243E+02  0.19999996346E+02 0.  0.
         12    1    1    2    0    0 -0.31995457462E+02  0.22634991565E+02 -0.18643261573E+02  0.43400729757E+02  0.00000000000E+00 0. -1.
         11    1    3    3    0    0  0.29057598075E+01 -0.48475764735E+01 -0.12505654705E+01  0.57884671531E+01  0.51100000000E-03 0. -1.
        -11    1    3    3    0    0  0.15178205911E+02 -0.65179352211E+01  0.19199736603E+01  0.16629723790E+02  0.51100000000E-03 0.  1.
        -12    1    3    3    0    0  0.13911491744E+02 -0.11269479871E+02  0.17973853383E+02  0.25369079300E+02  0.00000000000E+00 0.  1.
</event>
<event>
 7    1  0.2414091E-009  0.4778727E+02  0.7816164E-02  0.1312668E+00
        -11   -1    0    0    0    0  0.00000000000E+00  0.00000000000E+00  0.45593999997E+02  0.45594000000E+02  0.51100000000E-03 0.  1.
         11   -1    0    0    0    0 -0.00000000000E+00 -0.00000000000E+00 -0.45593999997E+02  0.45594000000E+02  0.51100000000E-03 0. -1.
    9900012    2    1    2    0    0  0.20752636314E+02  0.81345876685E+01  0.37239494531E+02  0.47787269782E+02  0.19999994244E+02 0.  0.
         12    1    1    2    0    0 -0.20752636314E+02 -0.81345876685E+01 -0.37239494531E+02  0.43400730218E+02  0.00000000000E+00 0. -1.
         11    1    3    3    0    0  0.16586862448E+01 -0.34494707605E+01  0.88087407706E+01  0.96043741499E+01  0.51100000000E-03 0. -1.
        -11    1    3    3    0    0  0.94311799156E+01  0.30204375392E+01  0.21165654093E+02  0.23367822127E+02  0.51100000000E-03 0.  1.
        -12    1    3    3    0    0  0.96627701533E+01  0.85636208898E+01  0.72650996682E+01  0.14815073505E+02  0.00000000000E+00 0.  1.
</event>
<event>
 7    1  0.2414091E-009  0.4778727E+02  0.7816164E-02  0.1312668E+00
        -11   -1    0    0    0    0  0.00000000000E+00  0.00000000000E+00  0.45593999997E+02  0.45594000000E+02  0.51100000000E-03 0.  1.
         11   -1    0    0    0    0 -0.00000000000E+00 -0.00000000000E+00 -0.45593999997E+02  0.45594000000E+02  0.51100000000E-03 0. -1.
    9900012    2    1    2    0    0  0.95315197038E+01  0.23615105534E+02  0.35143991526E+02  0.47787271693E+02  0.20000002955E+02 0.  0.
         12    1    1    2    0    0 -0.95315197038E+01 -0.23615105534E+02 -0.35143991526E+02  0.43400728307E+02  0.00000000000E+00 0. -1.
         11    1    3    3    0    0  0.25528067364E+01  0.79812204454E+01  0.15042882746E+02  0.17219321229E+02  0.51100000000E-03 0. -1.
        -11    1    3    3    0    0 -0.70723995218E+00  0.79477966765E+01  0.17729876656E+02  0.19442638372E+02  0.51100000000E-03 0.  1.
         12    1    3    3    0    0  0.76859529196E+01  0.76860884117E+01  0.23712321248E+01  0.11125312092E+02  0.00000000000E+00 0. -1.
</event>
<event>
 7    1  0.2414091E-009  0.4778727E+02  0.7816164E-02  0.1312668E+00
        -11   -1    0    0    0    0  0.00000000000E+00  0.00000000000E+00  0.45593999997E+02  0.45594000000E+02  0.51100000000E-03 0. -1.
         11   -1    0    0    0    0 -0.00000000000E+00 -0.00000000000E+00 -0.45593999997E+02  0.45594000000E+02  0.51100000000E-03 0.  1.
    9900012    2    1    2    0    0 -0.42890191245E+02 -0.65868584892E+01  0.81733371837E+00  0.47787271386E+02  0.20000001557E+02 0.  0.
         12    1    1    2    0    0  0.42890191245E+02  0.65868584892E+01 -0.81733371837E+00  0.43400728614E+02  0.00000000000E+00 0. -1.
         11    1    3    3    0    0 -0.15388768358E+02 -0.44277406286E+01 -0.68701259814E+01  0.17424629405E+02  0.51100000000E-03 0. -1.
        -11    1    3    3    0    0 -0.21766936127E+02 -0.32376974266E+00  0.16433522097E+01  0.21831283562E+02  0.51100000000E-03 0.  1.
        -12    1    3    3    0    0 -0.57344867601E+01 -0.18353481179E+01  0.60441074902E+01  0.85313584187E+01  0.00000000000E+00 0.  1.
</event>
<event>
 7    1  0.2414091E-009  0.4778727E+02  0.7816164E-02  0.1312668E+00
        -11   -1    0    0    0    0  0.00000000000E+00  0.00000000000E+00  0.45593999997E+02  0.45594000000E+02  0.51100000000E-03 0.  1.
         11   -1    0    0    0    0 -0.00000000000E+00 -0.00000000000E+00 -0.45593999997E+02  0.45594000000E+02  0.51100000000E-03 0. -1.
    9900012    2    1    2    0    0  0.10296835842E+02  0.37556527558E+02 -0.19159997818E+02  0.47787272968E+02  0.20000008770E+02 0.  0.
         12    1    1    2    0    0 -0.10296835842E+02 -0.37556527558E+02  0.19159997818E+02  0.43400727032E+02  0.00000000000E+00 0. -1.
         11    1    3    3    0    0 -0.29064112967E+01  0.42487992795E+01 -0.25326471559E+01  0.57370570696E+01  0.51100000000E-03 0. -1.
        -11    1    3    3    0    0  0.12132951265E+01  0.74337212768E+01  0.22382519452E+01  0.78576121765E+01  0.51100000000E-03 0.  1.
         12    1    3    3    0    0  0.11989952012E+02  0.25874007001E+02 -0.18865602607E+02  0.34192603722E+02  0.00000000000E+00 0. -1.
</event>
<event>
 7    1  0.2414091E-009  0.4778728E+02  0.7816164E-02  0.1312668E+00
        -11   -1    0    0    0    0  0.00000000000E+00  0.00000000000E+00  0.45593999997E+02  0.45594000000E+02  0.51100000000E-03 0.  1.
         11   -1    0    0    0    0 -0.00000000000E+00 -0.00000000000E+00 -0.45593999997E+02  0.45594000000E+02  0.51100000000E-03 0. -1.
    9900012    2    1    2    0    0  0.19160933646E+02  0.29649539674E+02  0.25246503364E+02  0.47787279808E+02  0.20000039955E+02 0.  0.
         12    1    1    2    0    0 -0.19160933646E+02 -0.29649539674E+02 -0.25246503364E+02  0.43400720192E+02  0.00000000000E+00 0. -1.
         11    1    3    3    0    0  0.17830936775E+02  0.18901008826E+02  0.13197024326E+02  0.29143642398E+02  0.51100000000E-03 0.  1.
        -11    1    3    3    0    0  0.38964005161E+01  0.64607626254E+01  0.26468130373E+01  0.79955619064E+01  0.51100000000E-03 0. -1.
        -12    1    3    3    0    0 -0.25664036446E+01  0.42877682231E+01  0.94026660008E+01  0.10648075503E+02  0.00000000000E+00 0.  1.
</event>
<event>
 7    1  0.2414091E-009  0.4778727E+02  0.7816164E-02  0.1312668E+00
        -11   -1    0    0    0    0  0.00000000000E+00  0.00000000000E+00  0.45593999997E+02  0.45594000000E+02  0.51100000000E-03 0. -1.
         11   -1    0    0    0    0 -0.00000000000E+00 -0.00000000000E+00 -0.45593999997E+02  0.45594000000E+02  0.51100000000E-03 0.  1.
    9900012    2    1    2    0    0  0.21612192415E+02 -0.29698372762E+02 -0.23120197984E+02  0.47787265438E+02  0.19999974440E+02 0.  0.
         12    1    1    2    0    0 -0.21612192415E+02  0.29698372762E+02  0.23120197984E+02  0.43400734562E+02  0.00000000000E+00 0. -1.
         11    1    3    3    0    0  0.10256063917E+02 -0.74947615527E+01 -0.28683592302E+01  0.13022510616E+02  0.51100000000E-03 0. -1.
        -11    1    3    3    0    0  0.13777386788E+02 -0.15490605897E+02 -0.12408887803E+02  0.24161037944E+02  0.51100000000E-03 0.  1.
        -12    1    3    3    0    0 -0.24212582900E+01 -0.67130053118E+01 -0.78429509514E+01  0.10603716879E+02  0.00000000000E+00 0.  1.
</event>
<event>
 7    1  0.2414091E-009  0.4778727E+02  0.7816164E-02  0.1312668E+00
        -11   -1    0    0    0    0  0.00000000000E+00  0.00000000000E+00  0.45593999997E+02  0.45594000000E+02  0.51100000000E-03 0.  1.
         11   -1    0    0    0    0 -0.00000000000E+00 -0.00000000000E+00 -0.45593999997E+02  0.45594000000E+02  0.51100000000E-03 0. -1.
    9900012    2    1    2    0    0 -0.14333037714E+02  0.40957273108E+02 -0.83011750188E+00  0.47787270910E+02  0.19999999385E+02 0.  0.
         12    1    1    2    0    0  0.14333037714E+02 -0.40957273108E+02  0.83011750188E+00  0.43400729090E+02  0.00000000000E+00 0. -1.
         11    1    3    3    0    0 -0.15414712628E+01  0.71974138302E+01 -0.54022814733E+01  0.91303638961E+01  0.51100000000E-03 0. -1.
        -11    1    3    3    0    0 -0.10834158149E+02  0.11950168582E+02 -0.65772501986E+00  0.16143671032E+02  0.51100000000E-03 0.  1.
        -12    1    3    3    0    0 -0.19574083021E+01  0.21809690696E+02  0.52298889913E+01  0.22513235982E+02  0.00000000000E+00 0.  1.
</event>
<event>
 7    1  0.2414091E-009  0.4778728E+02  0.7816164E-02  0.1312668E+00
        -11   -1    0    0    0    0  0.00000000000E+00  0.00000000000E+00  0.45593999997E+02  0.45594000000E+02  0.51100000000E-03 0.  1.
         11   -1    0    0    0    0 -0.00000000000E+00 -0.00000000000E+00 -0.45593999997E+02  0.45594000000E+02  0.51100000000E-03 0. -1.
    9900012    2    1    2    0    0 -0.31235763006E+02  0.80540484143E+01  0.29035878399E+02  0.47787276264E+02  0.20000023797E+02 0.  0.
         12    1    1    2    0    0  0.31235763006E+02 -0.80540484143E+01 -0.29035878399E+02  0.43400723736E+02  0.00000000000E+00 0. -1.
         11    1    3    3    0    0 -0.12600614484E+01 -0.17447440479E+01  0.13558892447E+01  0.25436828716E+01  0.51100000000E-03 0. -1.
        -11    1    3    3    0    0 -0.29507244053E+02  0.71517750900E+01  0.29226123193E+02  0.42142515536E+02  0.51100000000E-03 0.  1.
        -12    1    3    3    0    0 -0.46845750499E+00  0.26470173722E+01 -0.15461340394E+01  0.31010778563E+01  0.00000000000E+00 0.  1.
</event>
<event>
 7    1  0.2414091E-009  0.4778727E+02  0.7816164E-02  0.1312668E+00
        -11   -1    0    0    0    0  0.00000000000E+00  0.00000000000E+00  0.45593999997E+02  0.45594000000E+02  0.51100000000E-03 0. -1.
         11   -1    0    0    0    0 -0.00000000000E+00 -0.00000000000E+00 -0.45593999997E+02  0.45594000000E+02  0.51100000000E-03 0.  1.
    9900012    2    1    2    0    0  0.32166962066E+02 -0.17499484459E+02 -0.23295458370E+02  0.47787265149E+02  0.19999973122E+02 0.  0.
         12    1    1    2    0    0 -0.32166962066E+02  0.17499484459E+02  0.23295458370E+02  0.43400734851E+02  0.00000000000E+00 0. -1.
         11    1    3    3    0    0  0.79228884957E+00 -0.18100172677E+00 -0.32934167872E+01  0.33922083724E+01  0.51100000000E-03 0. -1.
        -11    1    3    3    0    0  0.17071080128E+02 -0.62311610464E-01 -0.67522823957E+01  0.18358076623E+02  0.51100000000E-03 0.  1.
         12    1    3    3    0    0  0.14303593089E+02 -0.17256171121E+02 -0.13249759187E+02  0.26036980154E+02  0.00000000000E+00 0. -1.
</event>
<event>
 7    1  0.2414091E-009  0.4778727E+02  0.7816164E-02  0.1312668E+00
        -11   -1    0    0    0    0  0.00000000000E+00  0.00000000000E+00  0.45593999997E+02  0.45594000000E+02  0.51100000000E-03 0. -1.
         11   -1    0    0    0    0 -0.00000000000E+00 -0.00000000000E+00 -0.45593999997E+02  0.45594000000E+02  0.51100000000E-03 0.  1.
    9900012    2    1    2    0    0  0.40383236187E+01  0.28574996421E+02 -0.32415809272E+02  0.47787272254E+02  0.20000005517E+02 0.  0.
         12    1    1    2    0    0 -0.40383236187E+01 -0.28574996421E+02  0.32415809272E+02  0.43400727746E+02  0.00000000000E+00 0. -1.
         11    1    3    3    0    0  0.10396260254E+01  0.10234763766E+02 -0.14595164305E+02  0.17856372335E+02  0.51100000000E-03 0.  1.
        -11    1    3    3    0    0  0.84637881374E+00  0.17452828817E+02 -0.69352660636E+01  0.18799348564E+02  0.51100000000E-03 0. -1.
         12    1    3    3    0    0  0.21523187795E+01  0.88740383768E+00 -0.10885378904E+02  0.11131551355E+02  0.00000000000E+00 0. -1.
</event>
<event>
 7    1  0.2414091E-009  0.4778726E+02  0.7816164E-02  0.1312668E+00
        -11   -1    0    0    0    0  0.00000000000E+00  0.00000000000E+00  0.45593999997E+02  0.45594000000E+02  0.51100000000E-03 0.  1.
         11   -1    0    0    0    0 -0.00000000000E+00 -0.00000000000E+00 -0.45593999997E+02  0.45594000000E+02  0.51100000000E-03 0. -1.
    9900012    2    1    2    0    0  0.27921617369E+02 -0.52568003301E+01  0.32808127782E+02  0.47787263661E+02  0.19999966337E+02 0.  0.
         12    1    1    2    0    0 -0.27921617369E+02  0.52568003301E+01 -0.32808127782E+02  0.43400736339E+02  0.00000000000E+00 0. -1.
         11    1    3    3    0    0  0.12550674698E+02 -0.29282673562E+01  0.83317040016E+01  0.15346383187E+02  0.51100000000E-03 0. -1.
        -11    1    3    3    0    0  0.15446635903E+02 -0.47201674276E+01  0.13045143721E+02  0.20761847611E+02  0.51100000000E-03 0.  1.
         12    1    3    3    0    0 -0.75693232356E-01  0.23916344537E+01  0.11431280059E+02  0.11679032863E+02  0.00000000000E+00 0. -1.
</event>
<event>
 7    1  0.2414091E-009  0.4778727E+02  0.7816164E-02  0.1312668E+00
        -11   -1    0    0    0    0  0.00000000000E+00  0.00000000000E+00  0.45593999997E+02  0.45594000000E+02  0.51100000000E-03 0.  1.
         11   -1    0    0    0    0 -0.00000000000E+00 -0.00000000000E+00 -0.45593999997E+02  0.45594000000E+02  0.51100000000E-03 0. -1.
    9900012    2    1    2    0    0  0.40573877126E+02  0.22055230187E+01 -0.15248597925E+02  0.47787267570E+02  0.19999984157E+02 0.  0.
         12    1    1    2    0    0 -0.40573877126E+02 -0.22055230187E+01  0.15248597925E+02  0.43400732430E+02  0.00000000000E+00 0. -1.
         11    1    3    3    0    0  0.24258895151E+02 -0.52134791653E+01 -0.10456168128E+02  0.26925931946E+02  0.51100000000E-03 0.  1.
        -11    1    3    3    0    0  0.68894064669E+01 -0.30848947816E-01 -0.55156203985E+01  0.88253578832E+01  0.51100000000E-03 0. -1.
        -12    1    3    3    0    0  0.94255755075E+01  0.74498511319E+01  0.72319060083E+00  0.12035977741E+02  0.00000000000E+00 0.  1.
</event>
<event>
 7    1  0.2414091E-009  0.4778727E+02  0.7816164E-02  0.1312668E+00
        -11   -1    0    0    0    0  0.00000000000E+00  0.00000000000E+00  0.45593999997E+02  0.45594000000E+02  0.51100000000E-03 0. -1.
         11   -1    0    0    0    0 -0.00000000000E+00 -0.00000000000E+00 -0.45593999997E+02  0.45594000000E+02  0.51100000000E-03 0.  1.
    9900012    2    1    2    0    0  0.77820855427E+01 -0.25501442477E+02 -0.34245274762E+02  0.47787271119E+02  0.20000000342E+02 0.  0.
         12    1    1    2    0    0 -0.77820855427E+01  0.25501442477E+02  0.34245274762E+02  0.43400728881E+02  0.00000000000E+00 0. -1.
         11    1    3    3    0    0  0.10135922907E+02 -0.10754768058E+02 -0.11822466716E+02  0.18925450818E+02  0.51100000000E-03 0. -1.
        -11    1    3    3    0    0  0.29385608433E+01 -0.12350228032E+01 -0.69663200461E+01  0.76609422658E+01  0.51100000000E-03 0.  1.
         12    1    3    3    0    0 -0.52923982073E+01 -0.13511651616E+02 -0.15456488001E+02  0.21200878036E+02  0.00000000000E+00 0. -1.
</event>
<event>
 7    1  0.2414091E-009  0.4778727E+02  0.7816164E-02  0.1312668E+00
        -11   -1    0    0    0    0  0.00000000000E+00  0.00000000000E+00  0.45593999997E+02  0.45594000000E+02  0.51100000000E-03 0.  1.
         11   -1    0    0    0    0 -0.00000000000E+00 -0.00000000000E+00 -0.45593999997E+02  0.45594000000E+02  0.51100000000E-03 0. -1.
    9900012    2    1    2    0    0 -0.18169402827E+02 -0.34728304885E+02  0.18639775028E+02  0.47787267606E+02  0.19999984322E+02 0.  0.
         12    1    1    2    0    0  0.18169402827E+02  0.34728304885E+02 -0.18639775028E+02  0.43400732394E+02  0.00000000000E+00 0. -1.
         11    1    3    3    0    0 -0.11638047904E+02 -0.26121504628E+02  0.49700555004E+01  0.29025482166E+02  0.51100000000E-03 0. -1.
        -11    1    3    3    0    0 -0.34536785926E+01 -0.70657503402E+00  0.12833947507E+01  0.37515658660E+01  0.51100000000E-03 0.  1.
        -12    1    3    3    0    0 -0.30776763300E+01 -0.79002252229E+01  0.12386324777E+02  0.15010219573E+02  0.00000000000E+00 0.  1.
</event>
<event>
 7    1  0.2414091E-009  0.4778727E+02  0.7816164E-02  0.1312668E+00
        -11   -1    0    0    0    0  0.00000000000E+00  0.00000000000E+00  0.45593999997E+02  0.45594000000E+02  0.51100000000E-03 0.  1.
         11   -1    0    0    0    0 -0.00000000000E+00 -0.00000000000E+00 -0.45593999997E+02  0.45594000000E+02  0.51100000000E-03 0. -1.
    9900012    2    1    2    0    0 -0.11795285029E+01 -0.17716815911E+02  0.39602351658E+02  0.47787272928E+02  0.20000008589E+02 0.  0.
         12    1    1    2    0    0  0.11795285029E+01  0.17716815911E+02 -0.39602351658E+02  0.43400727072E+02  0.00000000000E+00 0. -1.
         11    1    3    3    0    0  0.42130303361E+00 -0.61766274760E+01  0.16268348286E+02  0.17406532666E+02  0.51100000000E-03 0.  1.
        -11    1    3    3    0    0 -0.24609141787E+01 -0.10523489847E+02  0.25580159467E+02  0.27769488576E+02  0.51100000000E-03 0. -1.
         12    1    3    3    0    0  0.86008264226E+00 -0.10166985880E+01 -0.22461560948E+01  0.26112516869E+01  0.00000000000E+00 0. -1.
</event>
<event>
 7    1  0.2414091E-009  0.4778727E+02  0.7816164E-02  0.1312668E+00
        -11   -1    0    0    0    0  0.00000000000E+00  0.00000000000E+00  0.45593999997E+02  0.45594000000E+02  0.51100000000E-03 0. -1.
         11   -1    0    0    0    0 -0.00000000000E+00 -0.00000000000E+00 -0.45593999997E+02  0.45594000000E+02  0.51100000000E-03 0.  1.
    9900012    2    1    2    0    0  0.20604012229E+01 -0.10855469997E+02 -0.41970666155E+02  0.47787270748E+02  0.19999998650E+02 0.  0.
         12    1    1    2    0    0 -0.20604012229E+01  0.10855469997E+02  0.41970666155E+02  0.43400729252E+02  0.00000000000E+00 0. -1.
         11    1    3    3    0    0  0.25747721894E+01 -0.66566655055E+00 -0.65432262719E+01  0.70630286769E+01  0.51100000000E-03 0. -1.
        -11    1    3    3    0    0  0.79251870980E+01 -0.58047292133E+01 -0.23489172371E+02  0.25460649848E+02  0.51100000000E-03 0.  1.
         12    1    3    3    0    0 -0.84395580645E+01 -0.43850742328E+01 -0.11938267513E+02  0.15263592223E+02  0.00000000000E+00 0. -1.
</event>
<event>
 7    1  0.2414091E-009  0.4778728E+02  0.7816164E-02  0.1312668E+00
        -11   -1    0    0    0    0  0.00000000000E+00  0.00000000000E+00  0.45593999997E+02  0.45594000000E+02  0.51100000000E-03 0.  1.
         11   -1    0    0    0    0 -0.00000000000E+00 -0.00000000000E+00 -0.45593999997E+02  0.45594000000E+02  0.51100000000E-03 0. -1.
    9900012    2    1    2    0    0  0.10637665114E+02 -0.38230485276E+02  0.17575347376E+02  0.47787276977E+02  0.20000027049E+02 0.  0.
         12    1    1    2    0    0 -0.10637665114E+02  0.38230485276E+02 -0.17575347376E+02  0.43400723023E+02  0.00000000000E+00 0. -1.
         11    1    3    3    0    0 -0.10535048529E+01 -0.21493142922E+01  0.53237707034E+01  0.58371190809E+01  0.51100000000E-03 0. -1.
        -11    1    3    3    0    0 -0.23703025472E+01 -0.28080490925E+01  0.27767370614E+01  0.46058379086E+01  0.51100000000E-03 0.  1.
         12    1    3    3    0    0  0.14061472514E+02 -0.33273121892E+02  0.94748396111E+01  0.37344319987E+02  0.00000000000E+00 0. -1.
</event>
<event>
 7    1  0.2414091E-009  0.4778727E+02  0.7816164E-02  0.1312668E+00
        -11   -1    0    0    0    0  0.00000000000E+00  0.00000000000E+00  0.45593999997E+02  0.45594000000E+02  0.51100000000E-03 0.  1.
         11   -1    0    0    0    0 -0.00000000000E+00 -0.00000000000E+00 -0.45593999997E+02  0.45594000000E+02  0.51100000000E-03 0. -1.
    9900012    2    1    2    0    0 -0.33078290748E+02  0.13463049482E+02  0.24661637924E+02  0.47787269531E+02  0.19999993099E+02 0.  0.
         12    1    1    2    0    0  0.33078290748E+02 -0.13463049482E+02 -0.24661637924E+02  0.43400730469E+02  0.00000000000E+00 0. -1.
         11    1    3    3    0    0  0.12394883768E+01  0.18387900402E+01  0.50782270721E+01  0.55412878201E+01  0.51100000000E-03 0. -1.
        -11    1    3    3    0    0 -0.73023514874E+01  0.90228043480E+00  0.29695654865E+00  0.73638733478E+01  0.51100000000E-03 0.  1.
        -12    1    3    3    0    0 -0.27015427637E+02  0.10721979007E+02  0.19286454303E+02  0.34882108363E+02  0.00000000000E+00 0.  1.
</event>
<event>
 7    1  0.2414091E-009  0.4778727E+02  0.7816164E-02  0.1312668E+00
        -11   -1    0    0    0    0  0.00000000000E+00  0.00000000000E+00  0.45593999997E+02  0.45594000000E+02  0.51100000000E-03 0. -1.
         11   -1    0    0    0    0 -0.00000000000E+00 -0.00000000000E+00 -0.45593999997E+02  0.45594000000E+02  0.51100000000E-03 0.  1.
    9900012    2    1    2    0    0 -0.61433193196E+00 -0.43309183940E+02  0.27495974474E+01  0.47787273008E+02  0.20000008953E+02 0.  0.
         12    1    1    2    0    0  0.61433193196E+00  0.43309183940E+02 -0.27495974474E+01  0.43400726992E+02  0.00000000000E+00 0. -1.
         11    1    3    3    0    0  0.57697109967E+01 -0.58861701452E+01 -0.10438407479E+01  0.83081988260E+01  0.51100000000E-03 0. -1.
        -11    1    3    3    0    0 -0.20348040148E+01 -0.13545655812E+02 -0.34979992679E+01  0.14137228084E+02  0.51100000000E-03 0.  1.
         12    1    3    3    0    0 -0.43492389138E+01 -0.23877357983E+02  0.72914374632E+01  0.25341846098E+02  0.00000000000E+00 0. -1.
</event>
<event>
 7    1  0.2414091E-009  0.4778725E+02  0.7816164E-02  0.1312668E+00
        -11   -1    0    0    0    0  0.00000000000E+00  0.00000000000E+00  0.45593999997E+02  0.45594000000E+02  0.51100000000E-03 0.  1.
         11   -1    0    0    0    0 -0.00000000000E+00 -0.00000000000E+00 -0.45593999997E+02  0.45594000000E+02  0.51100000000E-03 0. -1.
    9900012    2    1    2    0    0 -0.20804238863E+02  0.38076369776E+02 -0.99926298989E+00  0.47787253273E+02  0.19999918972E+02 0.  0.
         12    1    1    2    0    0  0.20804238863E+02 -0.38076369776E+02  0.99926298989E+00  0.43400746727E+02  0.00000000000E+00 0. -1.
         11    1    3    3    0    0 -0.16989756631E+02  0.18398638066E+02 -0.20699788631E+01  0.25128599758E+02  0.51100000000E-03 0.  1.
        -11    1    3    3    0    0 -0.21715276567E+01 -0.60474633631E+00 -0.24391001911E+00  0.22673206332E+01  0.51100000000E-03 0. -1.
        -12    1    3    3    0    0 -0.16429545746E+01  0.20282478047E+02  0.13146258923E+01  0.20391332881E+02  0.00000000000E+00 0.  1.
</event>
<event>
 7    1  0.2414091E-009  0.4778729E+02  0.7816164E-02  0.1312668E+00
        -11   -1    0    0    0    0  0.00000000000E+00  0.00000000000E+00  0.45593999997E+02  0.45594000000E+02  0.51100000000E-03 0.  1.
         11   -1    0    0    0    0 -0.00000000000E+00 -0.00000000000E+00 -0.45593999997E+02  0.45594000000E+02  0.51100000000E-03 0. -1.
    9900012    2    1    2    0    0 -0.29116548091E+02  0.30979496121E+02  0.87246339075E+01  0.47787288145E+02  0.20000077970E+02 0.  0.
         12    1    1    2    0    0  0.29116548091E+02 -0.30979496121E+02 -0.87246339075E+01  0.43400711855E+02  0.00000000000E+00 0. -1.
         11    1    3    3    0    0  0.21693457602E+01  0.28895352033E+01  0.11287032166E+00  0.36149985738E+01  0.51100000000E-03 0. -1.
        -11    1    3    3    0    0 -0.85014028751E+01  0.91019269003E+01  0.74020707142E+01  0.14488256460E+02  0.51100000000E-03 0.  1.
        -12    1    3    3    0    0 -0.22784490976E+02  0.18988034018E+02  0.12096928716E+01  0.29684033111E+02  0.00000000000E+00 0.  1.
</event>
<event>
 7    1  0.2414091E-009  0.4778727E+02  0.7816164E-02  0.1312668E+00
        -11   -1    0    0    0    0  0.00000000000E+00  0.00000000000E+00  0.45593999997E+02  0.45594000000E+02  0.51100000000E-03 0.  1.
         11   -1    0    0    0    0 -0.00000000000E+00 -0.00000000000E+00 -0.45593999997E+02  0.45594000000E+02  0.51100000000E-03 0. -1.
    9900012    2    1    2    0    0  0.88159406151E+01 -0.75663983859E+01  0.41816885115E+02  0.47787273345E+02  0.20000010489E+02 0.  0.
         12    1    1    2    0    0 -0.88159406151E+01  0.75663983859E+01 -0.41816885115E+02  0.43400726655E+02  0.00000000000E+00 0. -1.
         11    1    3    3    0    0  0.22566350240E+00 -0.22025493397E+01  0.98360422451E+00  0.24227309264E+01  0.51100000000E-03 0. -1.
        -11    1    3    3    0    0  0.38401127240E+01  0.53921247284E+01  0.23535894117E+02  0.24449126507E+02  0.51100000000E-03 0.  1.
        -12    1    3    3    0    0  0.47501643887E+01 -0.10755973775E+02  0.17297386774E+02  0.20915415912E+02  0.00000000000E+00 0.  1.
</event>
<event>
 7    1  0.2414091E-009  0.4778727E+02  0.7816164E-02  0.1312668E+00
        -11   -1    0    0    0    0  0.00000000000E+00  0.00000000000E+00  0.45593999997E+02  0.45594000000E+02  0.51100000000E-03 0.  1.
         11   -1    0    0    0    0 -0.00000000000E+00 -0.00000000000E+00 -0.45593999997E+02  0.45594000000E+02  0.51100000000E-03 0. -1.
    9900012    2    1    2    0    0 -0.36614357822E+02 -0.11488262610E+02  0.20273922051E+02  0.47787270838E+02  0.19999999058E+02 0.  0.
         12    1    1    2    0    0  0.36614357822E+02  0.11488262610E+02 -0.20273922051E+02  0.43400729162E+02  0.00000000000E+00 0. -1.
         11    1    3    3    0    0 -0.63810231937E+01 -0.37091317406E+00  0.55351991852E+01  0.84553807639E+01  0.51100000000E-03 0. -1.
        -11    1    3    3    0    0 -0.32338404458E+02 -0.10778000382E+02  0.14883268706E+02  0.37194749398E+02  0.51100000000E-03 0.  1.
         12    1    3    3    0    0  0.21050698301E+01 -0.33934905357E+00 -0.14454584017E+00  0.21371406762E+01  0.00000000000E+00 0. -1.
</event>
<event>
 7    1  0.2414091E-009  0.4778727E+02  0.7816164E-02  0.1312668E+00
        -11   -1    0    0    0    0  0.00000000000E+00  0.00000000000E+00  0.45593999997E+02  0.45594000000E+02  0.51100000000E-03 0.  1.
         11   -1    0    0    0    0 -0.00000000000E+00 -0.00000000000E+00 -0.45593999997E+02  0.45594000000E+02  0.51100000000E-03 0. -1.
    9900012    2    1    2    0    0 -0.44066774013E+01  0.76660749376E+01  0.42490418649E+02  0.47787272038E+02  0.20000004530E+02 0.  0.
         12    1    1    2    0    0  0.44066774013E+01 -0.76660749376E+01 -0.42490418649E+02  0.43400727962E+02  0.00000000000E+00 0. -1.
         11    1    3    3    0    0 -0.68954842085E+00 -0.14643514495E+01  0.13015365182E+01  0.20769688880E+01  0.51100000000E-03 0. -1.
        -11    1    3    3    0    0 -0.14187741654E+01  0.10218772001E+02  0.98352593740E+01  0.14253720516E+02  0.51100000000E-03 0.  1.
        -12    1    3    3    0    0 -0.22983548151E+01 -0.10883456137E+01  0.31353622757E+02  0.31456582634E+02  0.00000000000E+00 0.  1.
</event>
<event>
 7    1  0.2414091E-009  0.4778726E+02  0.7816164E-02  0.1312668E+00
        -11   -1    0    0    0    0  0.00000000000E+00  0.00000000000E+00  0.45593999997E+02  0.45594000000E+02  0.51100000000E-03 0.  1.
         11   -1    0    0    0    0 -0.00000000000E+00 -0.00000000000E+00 -0.45593999997E+02  0.45594000000E+02  0.51100000000E-03 0. -1.
    9900012    2    1    2    0    0 -0.38487062548E+02 -0.11994046497E+02  0.16078342775E+02  0.47787259898E+02  0.19999949181E+02 0.  0.
         12    1    1    2    0    0  0.38487062548E+02  0.11994046497E+02 -0.16078342775E+02  0.43400740102E+02  0.00000000000E+00 0. -1.
         11    1    3    3    0    0 -0.73906383038E+01  0.20472574054E+01  0.18694194627E+01  0.78935116907E+01  0.51100000000E-03 0. -1.
        -11    1    3    3    0    0 -0.24090377480E+02 -0.67563711295E+01  0.15902050817E+02  0.29645742669E+02  0.51100000000E-03 0.  1.
         12    1    3    3    0    0 -0.70060467645E+01 -0.72849327727E+01 -0.16931275046E+01  0.10248005538E+02  0.00000000000E+00 0. -1.
</event>
<event>
 7    1  0.2414091E-009  0.4778727E+02  0.7816164E-02  0.1312668E+00
        -11   -1    0    0    0    0  0.00000000000E+00  0.00000000000E+00  0.45593999997E+02  0.45594000000E+02  0.51100000000E-03 0. -1.
         11   -1    0    0    0    0 -0.00000000000E+00 -0.00000000000E+00 -0.45593999997E+02  0.45594000000E+02  0.51100000000E-03 0.  1.
    9900012    2    1    2    0    0 -0.14373803486E+02 -0.24198793925E+02 -0.33036882317E+02  0.47787269046E+02  0.19999990888E+02 0.  0.
         12    1    1    2    0    0  0.14373803486E+02  0.24198793925E+02  0.33036882317E+02  0.43400730954E+02  0.00000000000E+00 0. -1.
         11    1    3    3    0    0 -0.34396739501E+00 -0.36787617134E+00  0.13649859223E+01  0.14549341138E+01  0.51100000000E-03 0. -1.
        -11    1    3    3    0    0  0.15323200509E+01 -0.87945840313E+01 -0.66024837238E+01  0.11103400587E+02  0.51100000000E-03 0.  1.
        -12    1    3    3    0    0 -0.15562156142E+02 -0.15036333722E+02 -0.27799384516E+02  0.35228934345E+02  0.00000000000E+00 0.  1.
</event>
<event>
 7    1  0.2414091E-009  0.4778728E+02  0.7816164E-02  0.1312668E+00
        -11   -1    0    0    0    0  0.00000000000E+00  0.00000000000E+00  0.45593999997E+02  0.45594000000E+02  0.51100000000E-03 0.  1.
         11   -1    0    0    0    0 -0.00000000000E+00 -0.00000000000E+00 -0.45593999997E+02  0.45594000000E+02  0.51100000000E-03 0. -1.
    9900012    2    1    2    0    0 -0.52456692032E+01 -0.38343724254E+02  0.19643425114E+02  0.47787281282E+02  0.20000046675E+02 0.  0.
         12    1    1    2    0    0  0.52456692032E+01  0.38343724254E+02 -0.19643425114E+02  0.43400718718E+02  0.00000000000E+00 0. -1.
         11    1    3    3    0    0  0.47569638274E+01 -0.10451135772E+02  0.71623508384E+01  0.13533447956E+02  0.51100000000E-03 0. -1.
        -11    1    3    3    0    0 -0.11182815929E+01 -0.15635590589E+02  0.10770900139E+02  0.19019320094E+02  0.51100000000E-03 0.  1.
         12    1    3    3    0    0 -0.88843514376E+01 -0.12256997894E+02  0.17101741370E+01  0.15234513232E+02  0.00000000000E+00 0. -1.
</event>
<event>
 7    1  0.2414091E-009  0.4778724E+02  0.7816164E-02  0.1312668E+00
        -11   -1    0    0    0    0  0.00000000000E+00  0.00000000000E+00  0.45593999997E+02  0.45594000000E+02  0.51100000000E-03 0.  1.
         11   -1    0    0    0    0 -0.00000000000E+00 -0.00000000000E+00 -0.45593999997E+02  0.45594000000E+02  0.51100000000E-03 0. -1.
    9900012    2    1    2    0    0 -0.11116080303E+01 -0.45093942558E+01  0.43151539768E+02  0.47787243171E+02  0.19999872916E+02 0.  0.
         12    1    1    2    0    0  0.11116080303E+01  0.45093942558E+01 -0.43151539768E+02  0.43400756829E+02  0.00000000000E+00 0. -1.
         11    1    3    3    0    0 -0.25687964543E+01 -0.76441444559E+00  0.70734765059E+00  0.27718920665E+01  0.51100000000E-03 0. -1.
        -11    1    3    3    0    0 -0.20023464666E+01  0.50698281415E+01  0.13391368723E+02  0.14458260797E+02  0.51100000000E-03 0.  1.
         12    1    3    3    0    0  0.34595348907E+01 -0.88148079517E+01  0.29052823394E+02  0.30557090308E+02  0.00000000000E+00 0. -1.
</event>
<event>
 7    1  0.2414091E-009  0.4778728E+02  0.7816164E-02  0.1312668E+00
        -11   -1    0    0    0    0  0.00000000000E+00  0.00000000000E+00  0.45593999997E+02  0.45594000000E+02  0.51100000000E-03 0.  1.
         11   -1    0    0    0    0 -0.00000000000E+00 -0.00000000000E+00 -0.45593999997E+02  0.45594000000E+02  0.51100000000E-03 0. -1.
    9900012    2    1    2    0    0 -0.41716467883E+02  0.58118421460E+01  0.10468107299E+02  0.47787280281E+02  0.20000042112E+02 0.  0.
         12    1    1    2    0    0  0.41716467883E+02 -0.58118421460E+01 -0.10468107299E+02  0.43400719719E+02  0.00000000000E+00 0. -1.
         11    1    3    3    0    0 -0.20756657624E+01 -0.18211047169E+01 -0.20790411127E+01  0.34564755108E+01  0.51100000000E-03 0. -1.
        -11    1    3    3    0    0 -0.82216549333E+01 -0.14547046818E+01  0.75259266379E+01  0.11240611530E+02  0.51100000000E-03 0.  1.
        -12    1    3    3    0    0 -0.31419147187E+02  0.90876515446E+01  0.50212217736E+01  0.33090193240E+02  0.00000000000E+00 0.  1.
</event>
<event>
 7    1  0.2414091E-009  0.4778727E+02  0.7816164E-02  0.1312668E+00
        -11   -1    0    0    0    0  0.00000000000E+00  0.00000000000E+00  0.45593999997E+02  0.45594000000E+02  0.51100000000E-03 0.  1.
         11   -1    0    0    0    0 -0.00000000000E+00 -0.00000000000E+00 -0.45593999997E+02  0.45594000000E+02  0.51100000000E-03 0. -1.
    9900012    2    1    2    0    0  0.20968955659E+02 -0.39286245371E+01  0.37795398359E+02  0.47787270406E+02  0.19999997088E+02 0.  0.
         12    1    1    2    0    0 -0.20968955659E+02  0.39286245371E+01 -0.37795398359E+02  0.43400729594E+02  0.00000000000E+00 0. -1.
         11    1    3    3    0    0  0.12424169287E+02  0.47754266902E+01  0.24574916943E+02  0.27948009331E+02  0.51100000000E-03 0. -1.
        -11    1    3    3    0    0  0.48191548862E+01 -0.10080293178E+01  0.91029288426E+01  0.10349091298E+02  0.51100000000E-03 0.  1.
         12    1    3    3    0    0  0.37256314858E+01 -0.76960219094E+01  0.41175525740E+01  0.94901697771E+01  0.00000000000E+00 0. -1.
</event>
<event>
 7    1  0.2414091E-009  0.4778727E+02  0.7816164E-02  0.1312668E+00
        -11   -1    0    0    0    0  0.00000000000E+00  0.00000000000E+00  0.45593999997E+02  0.45594000000E+02  0.51100000000E-03 0.  1.
         11   -1    0    0    0    0 -0.00000000000E+00 -0.00000000000E+00 -0.45593999997E+02  0.45594000000E+02  0.51100000000E-03 0. -1.
    9900012    2    1    2    0    0 -0.54605138207E+01 -0.28074622521E+02  0.32643862060E+02  0.47787269924E+02  0.19999994893E+02 0.  0.
         12    1    1    2    0    0  0.54605138207E+01  0.28074622521E+02 -0.32643862060E+02  0.43400730076E+02  0.00000000000E+00 0. -1.
         11    1    3    3    0    0 -0.27427077150E+01 -0.11710990586E+01  0.30283943372E+01  0.42503048288E+01  0.51100000000E-03 0. -1.
        -11    1    3    3    0    0 -0.32328739852E+01 -0.23559984605E+02  0.14077809052E+02  0.27635286442E+02  0.51100000000E-03 0.  1.
        -12    1    3    3    0    0  0.51506787950E+00 -0.33435388579E+01  0.15537658671E+02  0.15901678654E+02  0.00000000000E+00 0.  1.
</event>
<event>
 7    1  0.2414091E-009  0.4778726E+02  0.7816164E-02  0.1312668E+00
        -11   -1    0    0    0    0  0.00000000000E+00  0.00000000000E+00  0.45593999997E+02  0.45594000000E+02  0.51100000000E-03 0.  1.
         11   -1    0    0    0    0 -0.00000000000E+00 -0.00000000000E+00 -0.45593999997E+02  0.45594000000E+02  0.51100000000E-03 0. -1.
    9900012    2    1    2    0    0 -0.43257584799E+02  0.81942815736E+00  0.34254560217E+01  0.47787264360E+02  0.19999969523E+02 0.  0.
         12    1    1    2    0    0  0.43257584799E+02 -0.81942815736E+00 -0.34254560217E+01  0.43400735640E+02  0.00000000000E+00 0. -1.
         11    1    3    3    0    0 -0.19349992593E+02  0.55098730601E+01 -0.56403217660E+01  0.20894835352E+02  0.51100000000E-03 0. -1.
        -11    1    3    3    0    0 -0.22112249067E+01  0.60366764750E+00 -0.86649300334E+00  0.24504572232E+01  0.51100000000E-03 0.  1.
        -12    1    3    3    0    0 -0.21696367299E+02 -0.52941125503E+01  0.99322707911E+01  0.24441971785E+02  0.00000000000E+00 0.  1.
</event>
<event>
 7    1  0.2414091E-009  0.4778727E+02  0.7816164E-02  0.1312668E+00
        -11   -1    0    0    0    0  0.00000000000E+00  0.00000000000E+00  0.45593999997E+02  0.45594000000E+02  0.51100000000E-03 0.  1.
         11   -1    0    0    0    0 -0.00000000000E+00 -0.00000000000E+00 -0.45593999997E+02  0.45594000000E+02  0.51100000000E-03 0. -1.
    9900012    2    1    2    0    0  0.53923222568E+01 -0.35338275199E+02  0.24612037529E+02  0.47787271611E+02  0.20000002583E+02 0.  0.
         12    1    1    2    0    0 -0.53923222568E+01  0.35338275199E+02 -0.24612037529E+02  0.43400728389E+02  0.00000000000E+00 0. -1.
         11    1    3    3    0    0 -0.44838543230E+01 -0.10931322085E+02  0.38683564015E+01  0.12432334199E+02  0.51100000000E-03 0. -1.
        -11    1    3    3    0    0  0.20800259625E+01 -0.17064228864E+02  0.87969940364E+01  0.19310658173E+02  0.51100000000E-03 0.  1.
         12    1    3    3    0    0  0.77961506173E+01 -0.73427242498E+01  0.11946687091E+02  0.16044279239E+02  0.00000000000E+00 0. -1.
</event>
<event>
 7    1  0.2414091E-009  0.4778728E+02  0.7816164E-02  0.1312668E+00
        -11   -1    0    0    0    0  0.00000000000E+00  0.00000000000E+00  0.45593999997E+02  0.45594000000E+02  0.51100000000E-03 0. -1.
         11   -1    0    0    0    0 -0.00000000000E+00 -0.00000000000E+00 -0.45593999997E+02  0.45594000000E+02  0.51100000000E-03 0.  1.
    9900012    2    1    2    0    0 -0.22981537195E+02 -0.23961075376E+02  0.27952431367E+02  0.47787278758E+02  0.20000035168E+02 0.  0.
         12    1    1    2    0    0  0.22981537195E+02  0.23961075376E+02 -0.27952431367E+02  0.43400721242E+02  0.00000000000E+00 0. -1.
         11    1    3    3    0    0 -0.34069984980E+01 -0.40664966133E+01 -0.26088303795E+01  0.59118550119E+01  0.51100000000E-03 0. -1.
        -11    1    3    3    0    0  0.35618996430E+00  0.27270181192E-01  0.86902340154E+00  0.93958335819E+00  0.51100000000E-03 0.  1.
        -12    1    3    3    0    0 -0.19930728661E+02 -0.19921848944E+02  0.29692238345E+02  0.40935840388E+02  0.00000000000E+00 0.  1.
</event>
<event>
 7    1  0.2414091E-009  0.4778730E+02  0.7816164E-02  0.1312668E+00
        -11   -1    0    0    0    0  0.00000000000E+00  0.00000000000E+00  0.45593999997E+02  0.45594000000E+02  0.51100000000E-03 0.  1.
         11   -1    0    0    0    0 -0.00000000000E+00 -0.00000000000E+00 -0.45593999997E+02  0.45594000000E+02  0.51100000000E-03 0. -1.
    9900012    2    1    2    0    0 -0.29338357020E+02 -0.30880740992E+02  0.83223486441E+01  0.47787299040E+02  0.20000127643E+02 0.  0.
         12    1    1    2    0    0  0.29338357020E+02  0.30880740992E+02 -0.83223486441E+01  0.43400700960E+02  0.00000000000E+00 0. -1.
         11    1    3    3    0    0 -0.22061020655E+01  0.18242867931E+00  0.20521252147E+01  0.30185070323E+01  0.51100000000E-03 0. -1.
        -11    1    3    3    0    0 -0.92612572112E+01 -0.97043900101E+01  0.99168136665E+01  0.16682004201E+02  0.51100000000E-03 0.  1.
         12    1    3    3    0    0 -0.17870997743E+02 -0.21358779661E+02 -0.36465902371E+01  0.28086787807E+02  0.00000000000E+00 0. -1.
</event>
<event>
 7    1  0.2414091E-009  0.4778727E+02  0.7816164E-02  0.1312668E+00
        -11   -1    0    0    0    0  0.00000000000E+00  0.00000000000E+00  0.45593999997E+02  0.45594000000E+02  0.51100000000E-03 0.  1.
         11   -1    0    0    0    0 -0.00000000000E+00 -0.00000000000E+00 -0.45593999997E+02  0.45594000000E+02  0.51100000000E-03 0. -1.
    9900012    2    1    2    0    0  0.85596044713E+01 -0.19745961095E+02  0.37688907652E+02  0.47787267653E+02  0.19999984535E+02 0.  0.
         12    1    1    2    0    0 -0.85596044713E+01  0.19745961095E+02 -0.37688907652E+02  0.43400732347E+02  0.00000000000E+00 0. -1.
         11    1    3    3    0    0  0.65311679835E+01  0.17341246346E+01  0.13290410440E+02  0.14909673149E+02  0.51100000000E-03 0. -1.
        -11    1    3    3    0    0  0.22245354781E-01 -0.45214335644E+01  0.80707858608E+01  0.92510237814E+01  0.51100000000E-03 0.  1.
         12    1    3    3    0    0  0.20061911330E+01 -0.16958652165E+02  0.16327711352E+02  0.23626570722E+02  0.00000000000E+00 0. -1.
</event>
<event>
 7    1  0.2414091E-009  0.4778727E+02  0.7816164E-02  0.1312668E+00
        -11   -1    0    0    0    0  0.00000000000E+00  0.00000000000E+00  0.45593999997E+02  0.45594000000E+02  0.51100000000E-03 0. -1.
         11   -1    0    0    0    0 -0.00000000000E+00 -0.00000000000E+00 -0.45593999997E+02  0.45594000000E+02  0.51100000000E-03 0.  1.
    9900012    2    1    2    0    0 -0.18483414062E+02 -0.18849942471E+00 -0.39267684849E+02  0.47787271886E+02  0.20000003839E+02 0.  0.
         12    1    1    2    0    0  0.18483414062E+02  0.18849942471E+00  0.39267684849E+02  0.43400728114E+02  0.00000000000E+00 0. -1.
         11    1    3    3    0    0  0.46491909090E+00 -0.14690358517E+01  0.98365908329E-01  0.15439858185E+01  0.51100000000E-03 0.  1.
        -11    1    3    3    0    0 -0.35125447680E+01  0.10091352416E-02 -0.24581037017E+02  0.24830734038E+02  0.51100000000E-03 0. -1.
        -12    1    3    3    0    0 -0.15435788385E+02  0.12795272917E+01 -0.14785013740E+02  0.21412552030E+02  0.00000000000E+00 0.  1.
</event>
<event>
 7    1  0.2414091E-009  0.4778726E+02  0.7816164E-02  0.1312668E+00
        -11   -1    0    0    0    0  0.00000000000E+00  0.00000000000E+00  0.45593999997E+02  0.45594000000E+02  0.51100000000E-03 0. -1.
         11   -1    0    0    0    0 -0.00000000000E+00 -0.00000000000E+00 -0.45593999997E+02  0.45594000000E+02  0.51100000000E-03 0.  1.
    9900012    2    1    2    0    0 -0.36929180193E+02  0.73077439492E+01 -0.21597609113E+02  0.47787260481E+02  0.19999951837E+02 0.  0.
         12    1    1    2    0    0  0.36929180193E+02 -0.73077439492E+01  0.21597609113E+02  0.43400739519E+02  0.00000000000E+00 0. -1.
         11    1    3    3    0    0 -0.23349924274E+01  0.49907072834E+01 -0.26884752618E+01  0.61308440136E+01  0.51100000000E-03 0. -1.
        -11    1    3    3    0    0 -0.13306895796E+02  0.53100776894E+01 -0.13039897080E+02  0.19372901613E+02  0.51100000000E-03 0.  1.
        -12    1    3    3    0    0 -0.21287291970E+02 -0.29930410236E+01 -0.58692367715E+01  0.22283514855E+02  0.00000000000E+00 0.  1.
</event>
<event>
 7    1  0.2414091E-009  0.4778727E+02  0.7816164E-02  0.1312668E+00
        -11   -1    0    0    0    0  0.00000000000E+00  0.00000000000E+00  0.45593999997E+02  0.45594000000E+02  0.51100000000E-03 0. -1.
         11   -1    0    0    0    0 -0.00000000000E+00 -0.00000000000E+00 -0.45593999997E+02  0.45594000000E+02  0.51100000000E-03 0.  1.
    9900012    2    1    2    0    0  0.35760888126E+02  0.22202718473E+02  0.10574563520E+02  0.47787271656E+02  0.20000002787E+02 0.  0.
         12    1    1    2    0    0 -0.35760888126E+02 -0.22202718473E+02 -0.10574563520E+02  0.43400728344E+02  0.00000000000E+00 0. -1.
         11    1    3    3    0    0  0.10917545549E+02  0.43191684695E+01  0.83489525355E+01  0.14406700725E+02  0.51100000000E-03 0. -1.
        -11    1    3    3    0    0  0.91025671015E+01 -0.69452018682E-02 -0.16116946289E+01  0.92441514436E+01  0.51100000000E-03 0.  1.
        -12    1    3    3    0    0  0.15740775476E+02  0.17890495205E+02  0.38373056136E+01  0.24136419487E+02  0.00000000000E+00 0.  1.
</event>
<event>
 7    1  0.2414091E-009  0.4778727E+02  0.7816164E-02  0.1312668E+00
        -11   -1    0    0    0    0  0.00000000000E+00  0.00000000000E+00  0.45593999997E+02  0.45594000000E+02  0.51100000000E-03 0. -1.
         11   -1    0    0    0    0 -0.00000000000E+00 -0.00000000000E+00 -0.45593999997E+02  0.45594000000E+02  0.51100000000E-03 0.  1.
    9900012    2    1    2    0    0  0.32993754888E+02  0.24391963998E+02  0.14144525337E+02  0.47787269979E+02  0.19999995144E+02 0.  0.
         12    1    1    2    0    0 -0.32993754888E+02 -0.24391963998E+02 -0.14144525337E+02  0.43400730021E+02  0.00000000000E+00 0. -1.
         11    1    3    3    0    0  0.48903325219E+01  0.48057687936E+01  0.39154168656E+01  0.78956478749E+01  0.51100000000E-03 0. -1.
        -11    1    3    3    0    0  0.23282420712E+02  0.22508424460E+02  0.62242102571E+01  0.32976371532E+02  0.51100000000E-03 0.  1.
        -12    1    3    3    0    0  0.48210016547E+01 -0.29222292548E+01  0.40048982141E+01  0.69152505723E+01  0.00000000000E+00 0.  1.
</event>
<event>
 7    1  0.2414091E-009  0.4778727E+02  0.7816164E-02  0.1312668E+00
        -11   -1    0    0    0    0  0.00000000000E+00  0.00000000000E+00  0.45593999997E+02  0.45594000000E+02  0.51100000000E-03 0.  1.
         11   -1    0    0    0    0 -0.00000000000E+00 -0.00000000000E+00 -0.45593999997E+02  0.45594000000E+02  0.51100000000E-03 0. -1.
    9900012    2    1    2    0    0  0.39656204373E+02  0.39233047518E+01  0.17193497918E+02  0.47787271480E+02  0.20000001984E+02 0.  0.
         12    1    1    2    0    0 -0.39656204373E+02 -0.39233047518E+01 -0.17193497918E+02  0.43400728520E+02  0.00000000000E+00 0. -1.
         11    1    3    3    0    0  0.17986152373E+01  0.28322644779E+01  0.48653039581E+01  0.59099849163E+01  0.51100000000E-03 0. -1.
        -11    1    3    3    0    0 -0.39317507909E+00 -0.38382794872E+00  0.22185878914E+01  0.22856165536E+01  0.51100000000E-03 0.  1.
        -12    1    3    3    0    0  0.38250764215E+02  0.14748682226E+01  0.10109606068E+02  0.39591670010E+02  0.00000000000E+00 0.  1.
</event>
<event>
 7    1  0.2414091E-009  0.4778727E+02  0.7816164E-02  0.1312668E+00
        -11   -1    0    0    0    0  0.00000000000E+00  0.00000000000E+00  0.45593999997E+02  0.45594000000E+02  0.51100000000E-03 0. -1.
         11   -1    0    0    0    0 -0.00000000000E+00 -0.00000000000E+00 -0.45593999997E+02  0.45594000000E+02  0.51100000000E-03 0.  1.
    9900012    2    1    2    0    0 -0.45360478776E+01  0.23627409400E+02 -0.36121916075E+02  0.47787273898E+02  0.20000013009E+02 0.  0.
         12    1    1    2    0    0  0.45360478776E+01 -0.23627409400E+02  0.36121916075E+02  0.43400726102E+02  0.00000000000E+00 0. -1.
         11    1    3    3    0    0 -0.29064809393E+00  0.10297660449E+02 -0.33935830875E+01  0.10846321656E+02  0.51100000000E-03 0. -1.
        -11    1    3    3    0    0 -0.87100276287E+00 -0.92703267308E+00 -0.22966248076E+00  0.12925867499E+01  0.51100000000E-03 0.  1.
        -12    1    3    3    0    0 -0.33743970208E+01  0.14256781625E+02 -0.32498670506E+02  0.35648365492E+02  0.00000000000E+00 0.  1.
</event>
<event>
 7    1  0.2414091E-009  0.4778727E+02  0.7816164E-02  0.1312668E+00
        -11   -1    0    0    0    0  0.00000000000E+00  0.00000000000E+00  0.45593999997E+02  0.45594000000E+02  0.51100000000E-03 0.  1.
         11   -1    0    0    0    0 -0.00000000000E+00 -0.00000000000E+00 -0.45593999997E+02  0.45594000000E+02  0.51100000000E-03 0. -1.
    9900012    2    1    2    0    0 -0.10737145099E+02 -0.10995278312E+02  0.40588678774E+02  0.47787271036E+02  0.19999999961E+02 0.  0.
         12    1    1    2    0    0  0.10737145099E+02  0.10995278312E+02 -0.40588678774E+02  0.43400728964E+02  0.00000000000E+00 0. -1.
         11    1    3    3    0    0 -0.75333311446E+01 -0.45483302961E+00  0.15593356781E+02  0.17323704199E+02  0.51100000000E-03 0. -1.
        -11    1    3    3    0    0 -0.49841631651E+01 -0.20922457947E+01  0.19485797909E+02  0.20221664010E+02  0.51100000000E-03 0.  1.
         12    1    3    3    0    0  0.17803492108E+01 -0.84481994874E+01  0.55095240840E+01  0.10241902827E+02  0.00000000000E+00 0. -1.
</event>
<event>
 7    1  0.2414091E-009  0.4778727E+02  0.7816164E-02  0.1312668E+00
        -11   -1    0    0    0    0  0.00000000000E+00  0.00000000000E+00  0.45593999997E+02  0.45594000000E+02  0.51100000000E-03 0.  1.
         11   -1    0    0    0    0 -0.00000000000E+00 -0.00000000000E+00 -0.45593999997E+02  0.45594000000E+02  0.51100000000E-03 0. -1.
    9900012    2    1    2    0    0  0.28038585791E+02  0.14665410228E+02  0.29704997038E+02  0.47787269599E+02  0.19999993410E+02 0.  0.
         12    1    1    2    0    0 -0.28038585791E+02 -0.14665410228E+02 -0.29704997038E+02  0.43400730401E+02  0.00000000000E+00 0. -1.
         11    1    3    3    0    0  0.94861566517E+01 -0.15342968118E+01  0.11104114780E+02  0.14684774429E+02  0.51100000000E-03 0. -1.
        -11    1    3    3    0    0  0.39472640548E+01  0.10135404690E+02  0.40312740836E+01  0.11599935032E+02  0.51100000000E-03 0.  1.
         12    1    3    3    0    0  0.14605165085E+02  0.60643023502E+01  0.14569608174E+02  0.21502560138E+02  0.00000000000E+00 0. -1.
</event>
<event>
 7    1  0.2414091E-009  0.4778727E+02  0.7816164E-02  0.1312668E+00
        -11   -1    0    0    0    0  0.00000000000E+00  0.00000000000E+00  0.45593999997E+02  0.45594000000E+02  0.51100000000E-03 0.  1.
         11   -1    0    0    0    0 -0.00000000000E+00 -0.00000000000E+00 -0.45593999997E+02  0.45594000000E+02  0.51100000000E-03 0. -1.
    9900012    2    1    2    0    0 -0.21304714720E+02 -0.51868174011E+01  0.37454359529E+02  0.47787274295E+02  0.20000014820E+02 0.  0.
         12    1    1    2    0    0  0.21304714720E+02  0.51868174011E+01 -0.37454359529E+02  0.43400725705E+02  0.00000000000E+00 0. -1.
         11    1    3    3    0    0 -0.82016066022E+01 -0.74839288048E+00  0.12616935364E+02  0.15066967213E+02  0.51100000000E-03 0. -1.
        -11    1    3    3    0    0 -0.49380997479E+01  0.61554811753E+01  0.83337264557E+01  0.11477184956E+02  0.51100000000E-03 0.  1.
         12    1    3    3    0    0 -0.81650083697E+01 -0.10593905696E+02  0.16503697709E+02  0.21243122126E+02  0.00000000000E+00 0. -1.
</event>
<event>
 7    1  0.2414091E-009  0.4778727E+02  0.7816164E-02  0.1312668E+00
        -11   -1    0    0    0    0  0.00000000000E+00  0.00000000000E+00  0.45593999997E+02  0.45594000000E+02  0.51100000000E-03 0.  1.
         11   -1    0    0    0    0 -0.00000000000E+00 -0.00000000000E+00 -0.45593999997E+02  0.45594000000E+02  0.51100000000E-03 0. -1.
    9900012    2    1    2    0    0  0.48574934578E+01  0.37830147362E+02  0.20710088026E+02  0.47787273760E+02  0.20000012380E+02 0.  0.
         12    1    1    2    0    0 -0.48574934578E+01 -0.37830147362E+02 -0.20710088026E+02  0.43400726240E+02  0.00000000000E+00 0. -1.
         11    1    3    3    0    0  0.42788752622E+00  0.41189465420E+00  0.11645725092E+01  0.13072774501E+01  0.51100000000E-03 0. -1.
        -11    1    3    3    0    0  0.11271538302E+02  0.15920307712E+02  0.10691208272E+02  0.22244228643E+02  0.51100000000E-03 0.  1.
         12    1    3    3    0    0 -0.68419323702E+01  0.21497944996E+02  0.88543072444E+01  0.24235767667E+02  0.00000000000E+00 0. -1.
</event>
<event>
 7    1  0.2414091E-009  0.4778727E+02  0.7816164E-02  0.1312668E+00
        -11   -1    0    0    0    0  0.00000000000E+00  0.00000000000E+00  0.45593999997E+02  0.45594000000E+02  0.51100000000E-03 0. -1.
         11   -1    0    0    0    0 -0.00000000000E+00 -0.00000000000E+00 -0.45593999997E+02  0.45594000000E+02  0.51100000000E-03 0.  1.
    9900012    2    1    2    0    0 -0.28331329721E+02 -0.10415748130E+02 -0.31184471719E+02  0.47787270406E+02  0.19999997090E+02 0.  0.
         12    1    1    2    0    0  0.28331329721E+02  0.10415748130E+02  0.31184471719E+02  0.43400729594E+02  0.00000000000E+00 0. -1.
         11    1    3    3    0    0  0.29139864034E+00  0.11636024617E+01 -0.68670337147E+01  0.69710139977E+01  0.51100000000E-03 0. -1.
        -11    1    3    3    0    0 -0.27270565113E+01  0.16966171188E+01 -0.48048630180E+01  0.57794511631E+01  0.51100000000E-03 0.  1.
        -12    1    3    3    0    0 -0.25895671850E+02 -0.13275967711E+02 -0.19512574987E+02  0.35036805245E+02  0.00000000000E+00 0.  1.
</event>
<event>
 7    1  0.2414091E-009  0.4778727E+02  0.7816164E-02  0.1312668E+00
        -11   -1    0    0    0    0  0.00000000000E+00  0.00000000000E+00  0.45593999997E+02  0.45594000000E+02  0.51100000000E-03 0.  1.
         11   -1    0    0    0    0 -0.00000000000E+00 -0.00000000000E+00 -0.45593999997E+02  0.45594000000E+02  0.51100000000E-03 0. -1.
    9900012    2    1    2    0    0 -0.35174440634E+02  0.20512507207E+02  0.15020617206E+02  0.47787272275E+02  0.20000005609E+02 0.  0.
         12    1    1    2    0    0  0.35174440634E+02 -0.20512507207E+02 -0.15020617206E+02  0.43400727725E+02  0.00000000000E+00 0. -1.
         11    1    3    3    0    0 -0.24914875374E+02  0.15384425756E+02  0.13100632454E+02  0.32078936106E+02  0.51100000000E-03 0. -1.
        -11    1    3    3    0    0 -0.10534422643E+02  0.73105323539E+01  0.31282695648E+01  0.13198636841E+02  0.51100000000E-03 0.  1.
         12    1    3    3    0    0  0.27485738354E+00 -0.21824509030E+01 -0.12082848129E+01  0.25096993275E+01  0.00000000000E+00 0. -1.
</event>
<event>
 7    1  0.2414091E-009  0.4778727E+02  0.7816164E-02  0.1312668E+00
        -11   -1    0    0    0    0  0.00000000000E+00  0.00000000000E+00  0.45593999997E+02  0.45594000000E+02  0.51100000000E-03 0.  1.
         11   -1    0    0    0    0 -0.00000000000E+00 -0.00000000000E+00 -0.45593999997E+02  0.45594000000E+02  0.51100000000E-03 0. -1.
    9900012    2    1    2    0    0 -0.14141183770E+02  0.10028903996E+02  0.39787824912E+02  0.47787274142E+02  0.20000014124E+02 0.  0.
         12    1    1    2    0    0  0.14141183770E+02 -0.10028903996E+02 -0.39787824912E+02  0.43400725858E+02  0.00000000000E+00 0. -1.
         11    1    3    3    0    0 -0.10085726561E+02  0.28799647710E+01  0.10275109684E+02  0.14683118082E+02  0.51100000000E-03 0. -1.
        -11    1    3    3    0    0 -0.49097871411E+00  0.74001892654E+01  0.66417763534E+01  0.99557548509E+01  0.51100000000E-03 0.  1.
        -12    1    3    3    0    0 -0.35644784950E+01 -0.25125004082E+00  0.22870938874E+02  0.23148401209E+02  0.00000000000E+00 0.  1.
</event>
<event>
 7    1  0.2414091E-009  0.4778727E+02  0.7816164E-02  0.1312668E+00
        -11   -1    0    0    0    0  0.00000000000E+00  0.00000000000E+00  0.45593999997E+02  0.45594000000E+02  0.51100000000E-03 0.  1.
         11   -1    0    0    0    0 -0.00000000000E+00 -0.00000000000E+00 -0.45593999997E+02  0.45594000000E+02  0.51100000000E-03 0. -1.
    9900012    2    1    2    0    0 -0.41800737740E+02  0.85798876570E+01  0.79187858941E+01  0.47787270538E+02  0.19999997692E+02 0.  0.
         12    1    1    2    0    0  0.41800737740E+02 -0.85798876570E+01 -0.79187858941E+01  0.43400729462E+02  0.00000000000E+00 0. -1.
         11    1    3    3    0    0 -0.79194763019E+01  0.15074878956E+01 -0.40908745448E+00  0.80720491486E+01  0.51100000000E-03 0. -1.
        -11    1    3    3    0    0 -0.24300363024E+02  0.12140492863E+02  0.21736516775E+01  0.27251127901E+02  0.51100000000E-03 0.  1.
         12    1    3    3    0    0 -0.95808984141E+01 -0.50680931013E+01  0.61542216711E+01  0.12464093488E+02  0.00000000000E+00 0. -1.
</event>
<event>
 7    1  0.2414091E-009  0.4778727E+02  0.7816164E-02  0.1312668E+00
        -11   -1    0    0    0    0  0.00000000000E+00  0.00000000000E+00  0.45593999997E+02  0.45594000000E+02  0.51100000000E-03 0. -1.
         11   -1    0    0    0    0 -0.00000000000E+00 -0.00000000000E+00 -0.45593999997E+02  0.45594000000E+02  0.51100000000E-03 0.  1.
    9900012    2    1    2    0    0  0.36371144739E+02  0.16975277237E+02  0.16510709612E+02  0.47787265689E+02  0.19999975580E+02 0.  0.
         12    1    1    2    0    0 -0.36371144739E+02 -0.16975277237E+02 -0.16510709612E+02  0.43400734311E+02  0.00000000000E+00 0. -1.
         11    1    3    3    0    0  0.20010247614E+02 -0.25378342363E+00  0.10555938428E+02  0.22625256947E+02  0.51100000000E-03 0. -1.
        -11    1    3    3    0    0  0.67921582944E+01  0.57981469704E+01  0.49748389810E+01  0.10222570407E+02  0.51100000000E-03 0.  1.
         12    1    3    3    0    0  0.95687388310E+01  0.11430913690E+02  0.97993220275E+00  0.14939438334E+02  0.00000000000E+00 0. -1.
</event>
<event>
 7    1  0.2414091E-009  0.4778728E+02  0.7816164E-02  0.1312668E+00
        -11   -1    0    0    0    0  0.00000000000E+00  0.00000000000E+00  0.45593999997E+02  0.45594000000E+02  0.51100000000E-03 0.  1.
         11   -1    0    0    0    0 -0.00000000000E+00 -0.00000000000E+00 -0.45593999997E+02  0.45594000000E+02  0.51100000000E-03 0. -1.
    9900012    2    1    2    0    0 -0.39152089103E+02  0.18105561445E+02 -0.47880108924E+01  0.47787280136E+02  0.20000041454E+02 0.  0.
         12    1    1    2    0    0  0.39152089103E+02 -0.18105561445E+02  0.47880108924E+01  0.43400719864E+02  0.00000000000E+00 0. -1.
         11    1    3    3    0    0 -0.12185744151E+02  0.55357285150E+01 -0.77628723793E+01  0.15472518817E+02  0.51100000000E-03 0. -1.
        -11    1    3    3    0    0 -0.72069724110E+01  0.73152692526E+01 -0.35299954491E+01  0.10858843571E+02  0.51100000000E-03 0.  1.
        -12    1    3    3    0    0 -0.19759372541E+02  0.52545636779E+01  0.65048569361E+01  0.21455917748E+02  0.00000000000E+00 0.  1.
</event>
<event>
 7    1  0.2414091E-009  0.4778727E+02  0.7816164E-02  0.1312668E+00
        -11   -1    0    0    0    0  0.00000000000E+00  0.00000000000E+00  0.45593999997E+02  0.45594000000E+02  0.51100000000E-03 0.  1.
         11   -1    0    0    0    0 -0.00000000000E+00 -0.00000000000E+00 -0.45593999997E+02  0.45594000000E+02  0.51100000000E-03 0. -1.
    9900012    2    1    2    0    0  0.41001788211E+02 -0.11162917555E+02  0.88241848949E+01  0.47787267242E+02  0.19999982665E+02 0.  0.
         12    1    1    2    0    0 -0.41001788211E+02  0.11162917555E+02 -0.88241848949E+01  0.43400732758E+02  0.00000000000E+00 0. -1.
         11    1    3    3    0    0  0.45765256623E+01  0.33063299308E+01 -0.59551016269E+00  0.56772385333E+01  0.51100000000E-03 0. -1.
        -11    1    3    3    0    0  0.25206867941E+02 -0.40325543804E+01  0.38993165302E+01  0.25823484581E+02  0.51100000000E-03 0.  1.
        -12    1    3    3    0    0  0.11218394607E+02 -0.10436693106E+02  0.55203785274E+01  0.16286544128E+02  0.00000000000E+00 0.  1.
</event>
<event>
 7    1  0.2414091E-009  0.4778725E+02  0.7816164E-02  0.1312668E+00
        -11   -1    0    0    0    0  0.00000000000E+00  0.00000000000E+00  0.45593999997E+02  0.45594000000E+02  0.51100000000E-03 0. -1.
         11   -1    0    0    0    0 -0.00000000000E+00 -0.00000000000E+00 -0.45593999997E+02  0.45594000000E+02  0.51100000000E-03 0.  1.
    9900012    2    1    2    0    0  0.13331778582E+02  0.71059736029E+01 -0.40686533933E+02  0.47787248572E+02  0.19999897541E+02 0.  0.
         12    1    1    2    0    0 -0.13331778582E+02 -0.71059736029E+01  0.40686533933E+02  0.43400751428E+02  0.00000000000E+00 0. -1.
         11    1    3    3    0    0 -0.63568096337E+00 -0.28086154919E+00  0.34237052889E+00  0.77472016701E+00  0.51100000000E-03 0. -1.
        -11    1    3    3    0    0  0.11754157879E+01  0.61771818217E+00 -0.26403332614E+02  0.26436700842E+02  0.51100000000E-03 0.  1.
        -12    1    3    3    0    0  0.12792043757E+02  0.67691169699E+01 -0.14625571848E+02  0.20575827564E+02  0.00000000000E+00 0.  1.
</event>
<event>
 7    1  0.2414091E-009  0.4778729E+02  0.7816164E-02  0.1312668E+00
        -11   -1    0    0    0    0  0.00000000000E+00  0.00000000000E+00  0.45593999997E+02  0.45594000000E+02  0.51100000000E-03 0.  1.
         11   -1    0    0    0    0 -0.00000000000E+00 -0.00000000000E+00 -0.45593999997E+02  0.45594000000E+02  0.51100000000E-03 0. -1.
    9900012    2    1    2    0    0 -0.75215183902E+01  0.37629348103E+02  0.20275129339E+02  0.47787286328E+02  0.20000069683E+02 0.  0.
         12    1    1    2    0    0  0.75215183902E+01 -0.37629348103E+02 -0.20275129339E+02  0.43400713672E+02  0.00000000000E+00 0. -1.
         11    1    3    3    0    0 -0.18771683917E+01  0.23205220104E+01  0.65455400724E+01  0.71939334631E+01  0.51100000000E-03 0. -1.
        -11    1    3    3    0    0  0.27079572846E+01  0.20117295057E+02  0.10860038732E+02  0.23021273522E+02  0.51100000000E-03 0.  1.
        -12    1    3    3    0    0 -0.83523072832E+01  0.15191531036E+02  0.28695505347E+01  0.17572079343E+02  0.00000000000E+00 0.  1.
</event>
<event>
 7    1  0.2414091E-009  0.4778727E+02  0.7816164E-02  0.1312668E+00
        -11   -1    0    0    0    0  0.00000000000E+00  0.00000000000E+00  0.45593999997E+02  0.45594000000E+02  0.51100000000E-03 0.  1.
         11   -1    0    0    0    0 -0.00000000000E+00 -0.00000000000E+00 -0.45593999997E+02  0.45594000000E+02  0.51100000000E-03 0. -1.
    9900012    2    1    2    0    0 -0.23695608049E+02  0.25533739348E+02  0.25887639108E+02  0.47787267927E+02  0.19999985786E+02 0.  0.
         12    1    1    2    0    0  0.23695608049E+02 -0.25533739348E+02 -0.25887639108E+02  0.43400732073E+02  0.00000000000E+00 0. -1.
         11    1    3    3    0    0 -0.53482106174E+01  0.45597403439E+01  0.21459966263E+01  0.73484617842E+01  0.51100000000E-03 0. -1.
        -11    1    3    3    0    0 -0.17694262360E+02  0.74667536222E+01  0.13502773274E+02  0.23476886856E+02  0.51100000000E-03 0.  1.
         12    1    3    3    0    0 -0.65313507164E+00  0.13507245382E+02  0.10238869207E+02  0.16961919287E+02  0.00000000000E+00 0. -1.
</event>
<event>
 7    1  0.2414091E-009  0.4778727E+02  0.7816164E-02  0.1312668E+00
        -11   -1    0    0    0    0  0.00000000000E+00  0.00000000000E+00  0.45593999997E+02  0.45594000000E+02  0.51100000000E-03 0.  1.
         11   -1    0    0    0    0 -0.00000000000E+00 -0.00000000000E+00 -0.45593999997E+02  0.45594000000E+02  0.51100000000E-03 0. -1.
    9900012    2    1    2    0    0 -0.29383768347E+02 -0.95168359497E+01 -0.30490118440E+02  0.47787270384E+02  0.19999996987E+02 0.  0.
         12    1    1    2    0    0  0.29383768347E+02  0.95168359497E+01  0.30490118440E+02  0.43400729616E+02  0.00000000000E+00 0. -1.
         11    1    3    3    0    0 -0.74771701664E+00 -0.23245038280E+01 -0.44065818111E+01  0.50378926449E+01  0.51100000000E-03 0. -1.
        -11    1    3    3    0    0 -0.80076916666E+01  0.49376366813E+01 -0.10945487813E+02  0.14432847451E+02  0.51100000000E-03 0.  1.
        -12    1    3    3    0    0 -0.20628359664E+02 -0.12129968803E+02 -0.15138048816E+02  0.28316530288E+02  0.00000000000E+00 0.  1.
</event>
<event>
 7    1  0.2414091E-009  0.4778726E+02  0.7816164E-02  0.1312668E+00
        -11   -1    0    0    0    0  0.00000000000E+00  0.00000000000E+00  0.45593999997E+02  0.45594000000E+02  0.51100000000E-03 0.  1.
         11   -1    0    0    0    0 -0.00000000000E+00 -0.00000000000E+00 -0.45593999997E+02  0.45594000000E+02  0.51100000000E-03 0. -1.
    9900012    2    1    2    0    0 -0.33161168508E+02 -0.15086216738E+02  0.23587443878E+02  0.47787256446E+02  0.19999933442E+02 0.  0.
         12    1    1    2    0    0  0.33161168508E+02  0.15086216738E+02 -0.23587443878E+02  0.43400743554E+02  0.00000000000E+00 0. -1.
         11    1    3    3    0    0 -0.11235594668E+01 -0.11735123505E+00 -0.38975656728E+00  0.11950178369E+01  0.51100000000E-03 0. -1.
        -11    1    3    3    0    0 -0.30081426273E+02 -0.58815482291E+01  0.18621573315E+02  0.35864297138E+02  0.51100000000E-03 0.  1.
        -12    1    3    3    0    0 -0.19561827681E+01 -0.90873172739E+01  0.53556271306E+01  0.10727941472E+02  0.00000000000E+00 0.  1.
</event>
<event>
 7    1  0.2414091E-009  0.4778727E+02  0.7816164E-02  0.1312668E+00
        -11   -1    0    0    0    0  0.00000000000E+00  0.00000000000E+00  0.45593999997E+02  0.45594000000E+02  0.51100000000E-03 0.  1.
         11   -1    0    0    0    0 -0.00000000000E+00 -0.00000000000E+00 -0.45593999997E+02  0.45594000000E+02  0.51100000000E-03 0. -1.
    9900012    2    1    2    0    0 -0.20019363156E+02 -0.34304263806E+02  0.17494738914E+02  0.47787270673E+02  0.19999998305E+02 0.  0.
         12    1    1    2    0    0  0.20019363156E+02  0.34304263806E+02 -0.17494738914E+02  0.43400729327E+02  0.00000000000E+00 0. -1.
         11    1    3    3    0    0 -0.30996652916E+01 -0.50228885851E+01  0.78323029313E+01  0.98072577272E+01  0.51100000000E-03 0.  1.
        -11    1    3    3    0    0  0.12977940529E+01 -0.10432921449E+02  0.30081242149E+01  0.10935215175E+02  0.51100000000E-03 0. -1.
         12    1    3    3    0    0 -0.18217491918E+02 -0.18848453772E+02  0.66543117683E+01  0.27044797771E+02  0.00000000000E+00 0. -1.
</event>
<event>
 7    1  0.2414091E-009  0.4778727E+02  0.7816164E-02  0.1312668E+00
        -11   -1    0    0    0    0  0.00000000000E+00  0.00000000000E+00  0.45593999997E+02  0.45594000000E+02  0.51100000000E-03 0.  1.
         11   -1    0    0    0    0 -0.00000000000E+00 -0.00000000000E+00 -0.45593999997E+02  0.45594000000E+02  0.51100000000E-03 0. -1.
    9900012    2    1    2    0    0  0.20421579618E+02 -0.34528545941E+02  0.16563869039E+02  0.47787272397E+02  0.20000006169E+02 0.  0.
         12    1    1    2    0    0 -0.20421579618E+02  0.34528545941E+02 -0.16563869039E+02  0.43400727603E+02  0.00000000000E+00 0. -1.
         11    1    3    3    0    0  0.15127947475E+02 -0.11393981036E+02  0.84941328632E+01  0.20756394003E+02  0.51100000000E-03 0. -1.
        -11    1    3    3    0    0  0.71943262369E+01 -0.18403990206E+02  0.32701611027E+01  0.20028957522E+02  0.51100000000E-03 0.  1.
        -12    1    3    3    0    0 -0.19006940942E+01 -0.47305746991E+01  0.47995750730E+01  0.70019208726E+01  0.00000000000E+00 0.  1.
</event>
<event>
 7    1  0.2414091E-009  0.4778727E+02  0.7816164E-02  0.1312668E+00
        -11   -1    0    0    0    0  0.00000000000E+00  0.00000000000E+00  0.45593999997E+02  0.45594000000E+02  0.51100000000E-03 0.  1.
         11   -1    0    0    0    0 -0.00000000000E+00 -0.00000000000E+00 -0.45593999997E+02  0.45594000000E+02  0.51100000000E-03 0. -1.
    9900012    2    1    2    0    0  0.38162700206E+02 -0.19845172910E+02 -0.57793393054E+01  0.47787270310E+02  0.19999996650E+02 0.  0.
         12    1    1    2    0    0 -0.38162700206E+02  0.19845172910E+02  0.57793393054E+01  0.43400729690E+02  0.00000000000E+00 0. -1.
         11    1    3    3    0    0  0.29075933212E+02 -0.15300308633E+02 -0.71085736704E+01  0.33616084786E+02  0.51100000000E-03 0. -1.
        -11    1    3    3    0    0  0.10879506216E+02 -0.38493871104E+01  0.26469553280E+01  0.11840093302E+02  0.51100000000E-03 0.  1.
         12    1    3    3    0    0 -0.17927392227E+01 -0.69547716711E+00 -0.13177209630E+01  0.23310922218E+01  0.00000000000E+00 0. -1.
</event>
<event>
 7    1  0.2414091E-009  0.4778727E+02  0.7816164E-02  0.1312668E+00
        -11   -1    0    0    0    0  0.00000000000E+00  0.00000000000E+00  0.45593999997E+02  0.45594000000E+02  0.51100000000E-03 0.  1.
         11   -1    0    0    0    0 -0.00000000000E+00 -0.00000000000E+00 -0.45593999997E+02  0.45594000000E+02  0.51100000000E-03 0. -1.
    9900012    2    1    2    0    0 -0.52786719196E+01 -0.35484586885E+02  0.24425454061E+02  0.47787273166E+02  0.20000009672E+02 0.  0.
         12    1    1    2    0    0  0.52786719196E+01  0.35484586885E+02 -0.24425454061E+02  0.43400726834E+02  0.00000000000E+00 0. -1.
         11    1    3    3    0    0  0.19991286751E+01  0.16726241987E+00  0.12473321737E+00  0.20099877645E+01  0.51100000000E-03 0. -1.
        -11    1    3    3    0    0 -0.47673638852E+00 -0.20658825065E+02  0.68111166067E+01  0.21757886854E+02  0.51100000000E-03 0.  1.
        -12    1    3    3    0    0 -0.68010642061E+01 -0.14993024239E+02  0.17489604237E+02  0.24019398547E+02  0.00000000000E+00 0.  1.
</event>
<event>
 7    1  0.2414091E-009  0.4778728E+02  0.7816164E-02  0.1312668E+00
        -11   -1    0    0    0    0  0.00000000000E+00  0.00000000000E+00  0.45593999997E+02  0.45594000000E+02  0.51100000000E-03 0.  1.
         11   -1    0    0    0    0 -0.00000000000E+00 -0.00000000000E+00 -0.45593999997E+02  0.45594000000E+02  0.51100000000E-03 0. -1.
    9900012    2    1    2    0    0  0.28836959648E+02  0.29557906051E+02  0.13355977439E+02  0.47787283586E+02  0.20000057183E+02 0.  0.
         12    1    1    2    0    0 -0.28836959648E+02 -0.29557906051E+02 -0.13355977439E+02  0.43400716414E+02  0.00000000000E+00 0. -1.
         11    1    3    3    0    0  0.16764264192E+02  0.17204270624E+02  0.43920008716E+01  0.24419605924E+02  0.51100000000E-03 0. -1.
        -11    1    3    3    0    0  0.13308496807E+02  0.13655935649E+02  0.97399316372E+01  0.21411840983E+02  0.51100000000E-03 0.  1.
         12    1    3    3    0    0 -0.12358013513E+01 -0.13023002210E+01 -0.77595506943E+00  0.19558366791E+01  0.00000000000E+00 0. -1.
</event>
<event>
 7    1  0.2414091E-009  0.4778727E+02  0.7816164E-02  0.1312668E+00
        -11   -1    0    0    0    0  0.00000000000E+00  0.00000000000E+00  0.45593999997E+02  0.45594000000E+02  0.51100000000E-03 0.  1.
         11   -1    0    0    0    0 -0.00000000000E+00 -0.00000000000E+00 -0.45593999997E+02  0.45594000000E+02  0.51100000000E-03 0. -1.
    9900012    2    1    2    0    0  0.41683361757E+02  0.11876807083E+02 -0.22499519927E+01  0.47787268695E+02  0.19999989288E+02 0.  0.
         12    1    1    2    0    0 -0.41683361757E+02 -0.11876807083E+02  0.22499519927E+01  0.43400731305E+02  0.00000000000E+00 0. -1.
         11    1    3    3    0    0  0.27939983498E+02  0.15730096306E+01 -0.68646996514E+01  0.28813905301E+02  0.51100000000E-03 0.  1.
        -11    1    3    3    0    0  0.59496886428E+00 -0.86688781013E+00  0.75365949948E+00  0.12936326090E+01  0.51100000000E-03 0. -1.
        -12    1    3    3    0    0  0.13148409395E+02  0.11170685263E+02  0.38610881592E+01  0.17679730785E+02  0.00000000000E+00 0.  1.
</event>
<event>
 7    1  0.2414091E-009  0.4778727E+02  0.7816164E-02  0.1312668E+00
        -11   -1    0    0    0    0  0.00000000000E+00  0.00000000000E+00  0.45593999997E+02  0.45594000000E+02  0.51100000000E-03 0.  1.
         11   -1    0    0    0    0 -0.00000000000E+00 -0.00000000000E+00 -0.45593999997E+02  0.45594000000E+02  0.51100000000E-03 0. -1.
    9900012    2    1    2    0    0  0.14940169304E+02 -0.17218148789E+02  0.36931698317E+02  0.47787266744E+02  0.19999980393E+02 0.  0.
         12    1    1    2    0    0 -0.14940169304E+02  0.17218148789E+02 -0.36931698317E+02  0.43400733256E+02  0.00000000000E+00 0. -1.
         11    1    3    3    0    0 -0.14628201422E+00 -0.27960196441E+01  0.14026283314E+02  0.14302997872E+02  0.51100000000E-03 0. -1.
        -11    1    3    3    0    0  0.39346852336E+01 -0.64909019914E+01  0.16926804382E+02  0.18550748325E+02  0.51100000000E-03 0.  1.
         12    1    3    3    0    0  0.11151766085E+02 -0.79312271532E+01  0.59786106214E+01  0.14933520547E+02  0.00000000000E+00 0. -1.
</event>
<event>
 7    1  0.2414091E-009  0.4778727E+02  0.7816164E-02  0.1312668E+00
        -11   -1    0    0    0    0  0.00000000000E+00  0.00000000000E+00  0.45593999997E+02  0.45594000000E+02  0.51100000000E-03 0. -1.
         11   -1    0    0    0    0 -0.00000000000E+00 -0.00000000000E+00 -0.45593999997E+02  0.45594000000E+02  0.51100000000E-03 0.  1.
    9900012    2    1    2    0    0 -0.20271061039E+02  0.29254234172E+02 -0.24837413321E+02  0.47787271514E+02  0.20000002139E+02 0.  0.
         12    1    1    2    0    0  0.20271061039E+02 -0.29254234172E+02  0.24837413321E+02  0.43400728486E+02  0.00000000000E+00 0. -1.
         11    1    3    3    0    0 -0.65189314083E+01  0.60594208764E+01 -0.39492371236E+01  0.97370181361E+01  0.51100000000E-03 0.  1.
        -11    1    3    3    0    0 -0.29442559736E+01  0.99074027321E+00 -0.11032366650E+02  0.11461384022E+02  0.51100000000E-03 0. -1.
         12    1    3    3    0    0 -0.10807873657E+02  0.22204073023E+02 -0.98558095474E+01  0.26588869356E+02  0.00000000000E+00 0. -1.
</event>
<event>
 7    1  0.2414091E-009  0.4778726E+02  0.7816164E-02  0.1312668E+00
        -11   -1    0    0    0    0  0.00000000000E+00  0.00000000000E+00  0.45593999997E+02  0.45594000000E+02  0.51100000000E-03 0.  1.
         11   -1    0    0    0    0 -0.00000000000E+00 -0.00000000000E+00 -0.45593999997E+02  0.45594000000E+02  0.51100000000E-03 0. -1.
    9900012    2    1    2    0    0  0.19488475431E+02  0.38451081563E+02 -0.50337138043E+01  0.47787255506E+02  0.19999929153E+02 0.  0.
         12    1    1    2    0    0 -0.19488475431E+02 -0.38451081563E+02  0.50337138043E+01  0.43400744494E+02  0.00000000000E+00 0. -1.
         11    1    3    3    0    0  0.57543714617E+01  0.52304853871E+01 -0.54256849781E+01  0.94820264736E+01  0.51100000000E-03 0. -1.
        -11    1    3    3    0    0  0.10341308589E+02  0.25679483003E+02 -0.54053269012E+01  0.28206312587E+02  0.51100000000E-03 0.  1.
         12    1    3    3    0    0  0.33927953809E+01  0.75411131731E+01  0.57972980750E+01  0.10098916445E+02  0.00000000000E+00 0. -1.
</event>
<event>
 7    1  0.2414091E-009  0.4778728E+02  0.7816164E-02  0.1312668E+00
        -11   -1    0    0    0    0  0.00000000000E+00  0.00000000000E+00  0.45593999997E+02  0.45594000000E+02  0.51100000000E-03 0.  1.
         11   -1    0    0    0    0 -0.00000000000E+00 -0.00000000000E+00 -0.45593999997E+02  0.45594000000E+02  0.51100000000E-03 0. -1.
    9900012    2    1    2    0    0 -0.54515550246E+01  0.29684805262E+02  0.31188378567E+02  0.47787284876E+02  0.20000063065E+02 0.  0.
         12    1    1    2    0    0  0.54515550246E+01 -0.29684805262E+02 -0.31188378567E+02  0.43400715124E+02  0.00000000000E+00 0. -1.
         11    1    3    3    0    0 -0.54736699380E+01  0.75967146616E+01  0.88530160698E+01  0.12885923717E+02  0.51100000000E-03 0. -1.
        -11    1    3    3    0    0 -0.62867441396E+01  0.17598591936E+02  0.18358040848E+02  0.26196397730E+02  0.51100000000E-03 0.  1.
         12    1    3    3    0    0  0.63088590530E+01  0.44894986642E+01  0.39773216491E+01  0.87049634294E+01  0.00000000000E+00 0. -1.
</event>
<event>
 7    1  0.2414091E-009  0.4778727E+02  0.7816164E-02  0.1312668E+00
        -11   -1    0    0    0    0  0.00000000000E+00  0.00000000000E+00  0.45593999997E+02  0.45594000000E+02  0.51100000000E-03 0.  1.
         11   -1    0    0    0    0 -0.00000000000E+00 -0.00000000000E+00 -0.45593999997E+02  0.45594000000E+02  0.51100000000E-03 0. -1.
    9900012    2    1    2    0    0  0.26439764782E+02 -0.24278469007E+02 -0.24395037960E+02  0.47787273092E+02  0.20000009335E+02 0.  0.
         12    1    1    2    0    0 -0.26439764782E+02  0.24278469007E+02  0.24395037960E+02  0.43400726908E+02  0.00000000000E+00 0. -1.
         11    1    3    3    0    0  0.10230209487E+02 -0.13410019996E+02 -0.67840699793E+01  0.18179918267E+02  0.51100000000E-03 0. -1.
        -11    1    3    3    0    0  0.93062059760E+00 -0.68031021295E+01 -0.14879152832E+01  0.70258199118E+01  0.51100000000E-03 0.  1.
        -12    1    3    3    0    0  0.15278934697E+02 -0.40653468822E+01 -0.16123052698E+02  0.22581534913E+02  0.00000000000E+00 0.  1.
</event>
<event>
 7    1  0.2414091E-009  0.4778726E+02  0.7816164E-02  0.1312668E+00
        -11   -1    0    0    0    0  0.00000000000E+00  0.00000000000E+00  0.45593999997E+02  0.45594000000E+02  0.51100000000E-03 0.  1.
         11   -1    0    0    0    0 -0.00000000000E+00 -0.00000000000E+00 -0.45593999997E+02  0.45594000000E+02  0.51100000000E-03 0. -1.
    9900012    2    1    2    0    0  0.25627853877E+02  0.33627107056E+02 -0.98007517165E+01  0.47787263168E+02  0.19999964090E+02 0.  0.
         12    1    1    2    0    0 -0.25627853877E+02 -0.33627107056E+02  0.98007517165E+01  0.43400736832E+02  0.00000000000E+00 0. -1.
         11    1    3    3    0    0 -0.78095234768E+00  0.41485457903E+00  0.30482178804E+00  0.93536488852E+00  0.51100000000E-03 0. -1.
        -11    1    3    3    0    0  0.27653901538E+01 -0.17757413843E+01  0.47071209822E+00  0.33199714317E+01  0.51100000000E-03 0.  1.
         12    1    3    3    0    0  0.23643416071E+02  0.34987993862E+02 -0.10576285603E+02  0.43531926848E+02  0.00000000000E+00 0. -1.
</event>
<event>
 7    1  0.2414091E-009  0.4778727E+02  0.7816164E-02  0.1312668E+00
        -11   -1    0    0    0    0  0.00000000000E+00  0.00000000000E+00  0.45593999997E+02  0.45594000000E+02  0.51100000000E-03 0. -1.
         11   -1    0    0    0    0 -0.00000000000E+00 -0.00000000000E+00 -0.45593999997E+02  0.45594000000E+02  0.51100000000E-03 0.  1.
    9900012    2    1    2    0    0 -0.30228864075E+02  0.22968384378E+02 -0.21030749114E+02  0.47787270600E+02  0.19999997972E+02 0.  0.
         12    1    1    2    0    0  0.30228864075E+02 -0.22968384378E+02  0.21030749114E+02  0.43400729400E+02  0.00000000000E+00 0. -1.
         11    1    3    3    0    0 -0.17890585262E+02  0.83415344146E+01 -0.16116743887E+01  0.19805346046E+02  0.51100000000E-03 0. -1.
        -11    1    3    3    0    0 -0.83578629618E+01  0.66972641125E+01 -0.72968702768E+01  0.12959611722E+02  0.51100000000E-03 0.  1.
         12    1    3    3    0    0 -0.39804158507E+01  0.79295858504E+01 -0.12122204449E+02  0.15022312831E+02  0.00000000000E+00 0. -1.
</event>
<event>
 7    1  0.2414091E-009  0.4778727E+02  0.7816164E-02  0.1312668E+00
        -11   -1    0    0    0    0  0.00000000000E+00  0.00000000000E+00  0.45593999997E+02  0.45594000000E+02  0.51100000000E-03 0.  1.
         11   -1    0    0    0    0 -0.00000000000E+00 -0.00000000000E+00 -0.45593999997E+02  0.45594000000E+02  0.51100000000E-03 0. -1.
    9900012    2    1    2    0    0 -0.10701309748E+02  0.14048599107E+02  0.39645203681E+02  0.47787270259E+02  0.19999996418E+02 0.  0.
         12    1    1    2    0    0  0.10701309748E+02 -0.14048599107E+02 -0.39645203681E+02  0.43400729741E+02  0.00000000000E+00 0. -1.
         11    1    3    3    0    0 -0.65254549000E+00 -0.93090347295E-01 -0.47763246095E-01  0.66088048698E+00  0.51100000000E-03 0. -1.
        -11    1    3    3    0    0 -0.10418641633E+02  0.74297196119E+01  0.88481856132E+01  0.15557609581E+02  0.51100000000E-03 0.  1.
        -12    1    3    3    0    0  0.36987737486E+00  0.67119698422E+01  0.30844781314E+02  0.31568780190E+02  0.00000000000E+00 0.  1.
</event>
<event>
 7    1  0.2414091E-009  0.4778727E+02  0.7816164E-02  0.1312668E+00
        -11   -1    0    0    0    0  0.00000000000E+00  0.00000000000E+00  0.45593999997E+02  0.45594000000E+02  0.51100000000E-03 0.  1.
         11   -1    0    0    0    0 -0.00000000000E+00 -0.00000000000E+00 -0.45593999997E+02  0.45594000000E+02  0.51100000000E-03 0. -1.
    9900012    2    1    2    0    0 -0.16108555489E+02 -0.72078753241E+01  0.39650775467E+02  0.47787273949E+02  0.20000013241E+02 0.  0.
         12    1    1    2    0    0  0.16108555489E+02  0.72078753241E+01 -0.39650775467E+02  0.43400726051E+02  0.00000000000E+00 0. -1.
         11    1    3    3    0    0 -0.17596579369E+02 -0.31300099984E+01  0.25563417199E+02  0.31191743574E+02  0.51100000000E-03 0.  1.
        -11    1    3    3    0    0 -0.17361656213E+01 -0.62662414288E+00  0.11821646020E+00  0.18495686723E+01  0.51100000000E-03 0. -1.
        -12    1    3    3    0    0  0.32241895015E+01 -0.34512411829E+01  0.13969141809E+02  0.14745961702E+02  0.00000000000E+00 0.  1.
</event>
<event>
 7    1  0.2414091E-009  0.4778728E+02  0.7816164E-02  0.1312668E+00
        -11   -1    0    0    0    0  0.00000000000E+00  0.00000000000E+00  0.45593999997E+02  0.45594000000E+02  0.51100000000E-03 0.  1.
         11   -1    0    0    0    0 -0.00000000000E+00 -0.00000000000E+00 -0.45593999997E+02  0.45594000000E+02  0.51100000000E-03 0. -1.
    9900012    2    1    2    0    0 -0.34610958524E+02  0.13737894828E+02  0.22292919172E+02  0.47787280543E+02  0.20000043305E+02 0.  0.
         12    1    1    2    0    0  0.34610958524E+02 -0.13737894828E+02 -0.22292919172E+02  0.43400719457E+02  0.00000000000E+00 0. -1.
         11    1    3    3    0    0 -0.12866146121E+02 -0.26212381745E+01  0.63127075441E+01  0.14569107123E+02  0.51100000000E-03 0. -1.
        -11    1    3    3    0    0 -0.96785011132E+01  0.17609402020E+01  0.79435307897E+01  0.12644128118E+02  0.51100000000E-03 0.  1.
         12    1    3    3    0    0 -0.12066311290E+02  0.14598192800E+02  0.80366808380E+01  0.20574045301E+02  0.00000000000E+00 0. -1.
</event>
<event>
 7    1  0.2414091E-009  0.4778727E+02  0.7816164E-02  0.1312668E+00
        -11   -1    0    0    0    0  0.00000000000E+00  0.00000000000E+00  0.45593999997E+02  0.45594000000E+02  0.51100000000E-03 0. -1.
         11   -1    0    0    0    0 -0.00000000000E+00 -0.00000000000E+00 -0.45593999997E+02  0.45594000000E+02  0.51100000000E-03 0.  1.
    9900012    2    1    2    0    0  0.34538266584E+02  0.68809539680E+01 -0.25365014810E+02  0.47787270024E+02  0.19999995349E+02 0.  0.
         12    1    1    2    0    0 -0.34538266584E+02 -0.68809539680E+01  0.25365014810E+02  0.43400729976E+02  0.00000000000E+00 0. -1.
         11    1    3    3    0    0  0.10955632074E+02  0.80617245755E+01 -0.98811172018E+01  0.16812309618E+02  0.51100000000E-03 0. -1.
        -11    1    3    3    0    0  0.19535092321E+02  0.34318258256E+01 -0.82311507373E+01  0.21474382488E+02  0.51100000000E-03 0.  1.
         12    1    3    3    0    0  0.40475421881E+01 -0.46125964330E+01 -0.72527468706E+01  0.95005779186E+01  0.00000000000E+00 0. -1.
</event>
<event>
 7    1  0.2414091E-009  0.4778727E+02  0.7816164E-02  0.1312668E+00
        -11   -1    0    0    0    0  0.00000000000E+00  0.00000000000E+00  0.45593999997E+02  0.45594000000E+02  0.51100000000E-03 0.  1.
         11   -1    0    0    0    0 -0.00000000000E+00 -0.00000000000E+00 -0.45593999997E+02  0.45594000000E+02  0.51100000000E-03 0. -1.
    9900012    2    1    2    0    0  0.24539038576E+02 -0.80091126934E+01  0.34890013564E+02  0.47787270203E+02  0.19999996165E+02 0.  0.
         12    1    1    2    0    0 -0.24539038576E+02  0.80091126934E+01 -0.34890013564E+02  0.43400729797E+02  0.00000000000E+00 0. -1.
         11    1    3    3    0    0  0.20753094207E+01 -0.18136499136E+00  0.12965411278E+02  0.13131705613E+02  0.51100000000E-03 0. -1.
        -11    1    3    3    0    0  0.27858057137E+01 -0.46837516599E+01  0.10120164945E+02  0.11494171648E+02  0.51100000000E-03 0.  1.
         12    1    3    3    0    0  0.19677923442E+02 -0.31439960421E+01  0.11804437341E+02  0.23161392942E+02  0.00000000000E+00 0. -1.
</event>
<event>
 7    1  0.2414091E-009  0.4778727E+02  0.7816164E-02  0.1312668E+00
        -11   -1    0    0    0    0  0.00000000000E+00  0.00000000000E+00  0.45593999997E+02  0.45594000000E+02  0.51100000000E-03 0. -1.
         11   -1    0    0    0    0 -0.00000000000E+00 -0.00000000000E+00 -0.45593999997E+02  0.45594000000E+02  0.51100000000E-03 0.  1.
    9900012    2    1    2    0    0  0.29108045990E+02 -0.28998401432E+02 -0.13979902867E+02  0.47787270615E+02  0.19999998044E+02 0.  0.
         12    1    1    2    0    0 -0.29108045990E+02  0.28998401432E+02  0.13979902867E+02  0.43400729385E+02  0.00000000000E+00 0. -1.
         11    1    3    3    0    0 -0.50259953403E+00 -0.66670201576E-01 -0.11665172869E+00  0.52024906950E+00  0.51100000000E-03 0. -1.
        -11    1    3    3    0    0  0.13064565802E+02 -0.20143792252E+02 -0.82616581209E-01  0.24009624563E+02  0.51100000000E-03 0.  1.
        -12    1    3    3    0    0  0.16546079722E+02 -0.87879389784E+01 -0.13780634557E+02  0.23257396983E+02  0.00000000000E+00 0.  1.
</event>
<event>
 7    1  0.2414091E-009  0.4778727E+02  0.7816164E-02  0.1312668E+00
        -11   -1    0    0    0    0  0.00000000000E+00  0.00000000000E+00  0.45593999997E+02  0.45594000000E+02  0.51100000000E-03 0.  1.
         11   -1    0    0    0    0 -0.00000000000E+00 -0.00000000000E+00 -0.45593999997E+02  0.45594000000E+02  0.51100000000E-03 0. -1.
    9900012    2    1    2    0    0  0.37974043265E+02  0.11424612373E+02  0.17637286990E+02  0.47787267033E+02  0.19999981708E+02 0.  0.
         12    1    1    2    0    0 -0.37974043265E+02 -0.11424612373E+02 -0.17637286990E+02  0.43400732967E+02  0.00000000000E+00 0. -1.
         11    1    3    3    0    0  0.13115531431E+02  0.61763950797E+01  0.67445876332E+01  0.15989198963E+02  0.51100000000E-03 0. -1.
        -11    1    3    3    0    0  0.71330206443E+01  0.79421873481E+01  0.86292855245E+01  0.13726721834E+02  0.51100000000E-03 0.  1.
         12    1    3    3    0    0  0.17725491190E+02 -0.26939700548E+01  0.22634138326E+01  0.18071346235E+02  0.00000000000E+00 0. -1.
</event>
<event>
 7    1  0.2414091E-009  0.4778727E+02  0.7816164E-02  0.1312668E+00
        -11   -1    0    0    0    0  0.00000000000E+00  0.00000000000E+00  0.45593999997E+02  0.45594000000E+02  0.51100000000E-03 0.  1.
         11   -1    0    0    0    0 -0.00000000000E+00 -0.00000000000E+00 -0.45593999997E+02  0.45594000000E+02  0.51100000000E-03 0. -1.
    9900012    2    1    2    0    0  0.21005132018E+02  0.36016539723E+02  0.12050576386E+02  0.47787273094E+02  0.20000009345E+02 0.  0.
         12    1    1    2    0    0 -0.21005132018E+02 -0.36016539723E+02 -0.12050576386E+02  0.43400726906E+02  0.00000000000E+00 0. -1.
         11    1    3    3    0    0 -0.20080858569E+01  0.31989607234E+01  0.36264213746E+01  0.52360949921E+01  0.51100000000E-03 0. -1.
        -11    1    3    3    0    0  0.10895121849E+02  0.70473615289E+01  0.48413141499E+01  0.13849451526E+02  0.51100000000E-03 0.  1.
        -12    1    3    3    0    0  0.12118096026E+02  0.25770217471E+02  0.35828408620E+01  0.28701726576E+02  0.00000000000E+00 0.  1.
</event>
<event>
 7    1  0.2414091E-009  0.4778727E+02  0.7816164E-02  0.1312668E+00
        -11   -1    0    0    0    0  0.00000000000E+00  0.00000000000E+00  0.45593999997E+02  0.45594000000E+02  0.51100000000E-03 0. -1.
         11   -1    0    0    0    0 -0.00000000000E+00 -0.00000000000E+00 -0.45593999997E+02  0.45594000000E+02  0.51100000000E-03 0.  1.
    9900012    2    1    2    0    0 -0.24703571507E+02  0.32984981135E+02  0.13614246856E+02  0.47787272550E+02  0.20000006866E+02 0.  0.
         12    1    1    2    0    0  0.24703571507E+02 -0.32984981135E+02 -0.13614246856E+02  0.43400727450E+02  0.00000000000E+00 0. -1.
         11    1    3    3    0    0 -0.14633749127E+02  0.15219895041E+02  0.65761146787E+01  0.22114183302E+02  0.51100000000E-03 0. -1.
        -11    1    3    3    0    0 -0.10570972637E+02  0.17630574030E+02  0.98633473244E+01  0.22800618935E+02  0.51100000000E-03 0.  1.
         12    1    3    3    0    0  0.50115025673E+00  0.13451206400E+00 -0.28252151470E+01  0.28724703135E+01  0.00000000000E+00 0. -1.
</event>
<event>
 7    1  0.2414091E-009  0.4778727E+02  0.7816164E-02  0.1312668E+00
        -11   -1    0    0    0    0  0.00000000000E+00  0.00000000000E+00  0.45593999997E+02  0.45594000000E+02  0.51100000000E-03 0. -1.
         11   -1    0    0    0    0 -0.00000000000E+00 -0.00000000000E+00 -0.45593999997E+02  0.45594000000E+02  0.51100000000E-03 0.  1.
    9900012    2    1    2    0    0  0.19413874667E+01  0.36292790358E+02 -0.23721042178E+02  0.47787268908E+02  0.19999990260E+02 0.  0.
         12    1    1    2    0    0 -0.19413874667E+01 -0.36292790358E+02  0.23721042178E+02  0.43400731092E+02  0.00000000000E+00 0. -1.
         11    1    3    3    0    0  0.13679414686E+01 -0.23764510949E+00 -0.62089120780E+01  0.63622581300E+01  0.51100000000E-03 0. -1.
        -11    1    3    3    0    0  0.10575001353E+00  0.87746954989E+01 -0.85566210670E+01  0.12256517797E+02  0.51100000000E-03 0.  1.
        -12    1    3    3    0    0  0.46769598449E+00  0.27755739969E+02 -0.89555090333E+01  0.29168492981E+02  0.00000000000E+00 0.  1.
</event>
<event>
 7    1  0.2414091E-009  0.4778726E+02  0.7816164E-02  0.1312668E+00
        -11   -1    0    0    0    0  0.00000000000E+00  0.00000000000E+00  0.45593999997E+02  0.45594000000E+02  0.51100000000E-03 0. -1.
         11   -1    0    0    0    0 -0.00000000000E+00 -0.00000000000E+00 -0.45593999997E+02  0.45594000000E+02  0.51100000000E-03 0.  1.
    9900012    2    1    2    0    0  0.24383087678E+02  0.35890493327E+02 -0.98060026257E+00  0.47787262070E+02  0.19999959084E+02 0.  0.
         12    1    1    2    0    0 -0.24383087678E+02 -0.35890493327E+02  0.98060026257E+00  0.43400737930E+02  0.00000000000E+00 0. -1.
         11    1    3    3    0    0  0.87986027945E+01  0.44940062182E+01  0.10552884030E+01  0.99360523800E+01  0.51100000000E-03 0. -1.
        -11    1    3    3    0    0  0.17987880836E+02  0.26584229318E+02  0.48594157930E-02  0.32098054915E+02  0.51100000000E-03 0.  1.
         12    1    3    3    0    0 -0.24033959524E+01  0.48122577903E+01 -0.20407480813E+01  0.57531547759E+01  0.00000000000E+00 0. -1.
</event>
<event>
 7    1  0.2414091E-009  0.4778727E+02  0.7816164E-02  0.1312668E+00
        -11   -1    0    0    0    0  0.00000000000E+00  0.00000000000E+00  0.45593999997E+02  0.45594000000E+02  0.51100000000E-03 0.  1.
         11   -1    0    0    0    0 -0.00000000000E+00 -0.00000000000E+00 -0.45593999997E+02  0.45594000000E+02  0.51100000000E-03 0. -1.
    9900012    2    1    2    0    0  0.25714195075E+02  0.15904970494E+02  0.31135758939E+02  0.47787269598E+02  0.19999993404E+02 0.  0.
         12    1    1    2    0    0 -0.25714195075E+02 -0.15904970494E+02 -0.31135758939E+02  0.43400730402E+02  0.00000000000E+00 0. -1.
         11    1    3    3    0    0  0.58052854353E+01  0.40926725048E+01  0.91925041785E+01  0.11616946266E+02  0.51100000000E-03 0. -1.
        -11    1    3    3    0    0  0.19841582056E+02  0.14924070535E+02  0.21823158417E+02  0.33055506400E+02  0.51100000000E-03 0.  1.
         12    1    3    3    0    0  0.67327583875E-01 -0.31117725463E+01  0.12009634260E+00  0.31148169312E+01  0.00000000000E+00 0. -1.
</event>
<event>
 7    1  0.2414091E-009  0.4778727E+02  0.7816164E-02  0.1312668E+00
        -11   -1    0    0    0    0  0.00000000000E+00  0.00000000000E+00  0.45593999997E+02  0.45594000000E+02  0.51100000000E-03 0.  1.
         11   -1    0    0    0    0 -0.00000000000E+00 -0.00000000000E+00 -0.45593999997E+02  0.45594000000E+02  0.51100000000E-03 0. -1.
    9900012    2    1    2    0    0  0.36451025179E+02 -0.16597726798E+02  0.16717109478E+02  0.47787268200E+02  0.19999987030E+02 0.  0.
         12    1    1    2    0    0 -0.36451025179E+02  0.16597726798E+02 -0.16717109478E+02  0.43400731800E+02  0.00000000000E+00 0. -1.
         11    1    3    3    0    0  0.13011010235E+02 -0.58276579042E+01  0.11961117340E+02  0.18609575822E+02  0.51100000000E-03 0. -1.
        -11    1    3    3    0    0  0.20033281871E+02 -0.83990680179E+01  0.87488206069E+01  0.23418338719E+02  0.51100000000E-03 0.  1.
        -12    1    3    3    0    0  0.34067330737E+01 -0.23710008761E+01 -0.39928284688E+01  0.57593536591E+01  0.00000000000E+00 0.  1.
</event>
<event>
 7    1  0.2414091E-009  0.4778727E+02  0.7816164E-02  0.1312668E+00
        -11   -1    0    0    0    0  0.00000000000E+00  0.00000000000E+00  0.45593999997E+02  0.45594000000E+02  0.51100000000E-03 0. -1.
         11   -1    0    0    0    0 -0.00000000000E+00 -0.00000000000E+00 -0.45593999997E+02  0.45594000000E+02  0.51100000000E-03 0.  1.
    9900012    2    1    2    0    0  0.42852978774E+02  0.40566839186E+01  0.55487600926E+01  0.47787271749E+02  0.20000003210E+02 0.  0.
         12    1    1    2    0    0 -0.42852978774E+02 -0.40566839186E+01 -0.55487600926E+01  0.43400728251E+02  0.00000000000E+00 0. -1.
         11    1    3    3    0    0  0.16002932196E+02 -0.39725677728E+01  0.49749079086E+01  0.17222800079E+02  0.51100000000E-03 0. -1.
        -11    1    3    3    0    0  0.33210747515E+01  0.38876093435E+01  0.39170439486E+01  0.64409842003E+01  0.51100000000E-03 0.  1.
        -12    1    3    3    0    0  0.23528971826E+02  0.41416423479E+01 -0.33431917646E+01  0.24123487469E+02  0.00000000000E+00 0.  1.
</event>
<event>
 7    1  0.2414091E-009  0.4778724E+02  0.7816164E-02  0.1312668E+00
        -11   -1    0    0    0    0  0.00000000000E+00  0.00000000000E+00  0.45593999997E+02  0.45594000000E+02  0.51100000000E-03 0.  1.
         11   -1    0    0    0    0 -0.00000000000E+00 -0.00000000000E+00 -0.45593999997E+02  0.45594000000E+02  0.51100000000E-03 0. -1.
    9900012    2    1    2    0    0 -0.27545359918E+02  0.89924483298E+01  0.32311221120E+02  0.47787239750E+02  0.19999857318E+02 0.  0.
         12    1    1    2    0    0  0.27545359918E+02 -0.89924483298E+01 -0.32311221120E+02  0.43400760250E+02  0.00000000000E+00 0. -1.
         11    1    3    3    0    0 -0.66351676823E+01 -0.62238359345E+00  0.32666936976E+01  0.74218663074E+01  0.51100000000E-03 0. -1.
        -11    1    3    3    0    0  0.15216774245E+01  0.39907233752E+01  0.18153932711E+01  0.46408003869E+01  0.51100000000E-03 0.  1.
        -12    1    3    3    0    0 -0.22431869660E+02  0.56241085481E+01  0.27229134151E+02  0.35724573056E+02  0.00000000000E+00 0.  1.
</event>
<event>
 7    1  0.2414091E-009  0.4778727E+02  0.7816164E-02  0.1312668E+00
        -11   -1    0    0    0    0  0.00000000000E+00  0.00000000000E+00  0.45593999997E+02  0.45594000000E+02  0.51100000000E-03 0.  1.
         11   -1    0    0    0    0 -0.00000000000E+00 -0.00000000000E+00 -0.45593999997E+02  0.45594000000E+02  0.51100000000E-03 0. -1.
    9900012    2    1    2    0    0 -0.12409106747E+02 -0.17300282455E+02  0.37819803542E+02  0.47787271397E+02  0.20000001609E+02 0.  0.
         12    1    1    2    0    0  0.12409106747E+02  0.17300282455E+02 -0.37819803542E+02  0.43400728603E+02  0.00000000000E+00 0. -1.
         11    1    3    3    0    0  0.45619420944E+00 -0.65359431637E+01  0.11882574540E+02  0.13569165198E+02  0.51100000000E-03 0. -1.
        -11    1    3    3    0    0 -0.32050697901E+01 -0.72933270161E+01  0.21694498309E+02  0.23110957325E+02  0.51100000000E-03 0.  1.
        -12    1    3    3    0    0 -0.96602311660E+01 -0.34710122756E+01  0.42427306929E+01  0.11107148875E+02  0.00000000000E+00 0.  1.
</event>
<event>
 7    1  0.2414091E-009  0.4778729E+02  0.7816164E-02  0.1312668E+00
        -11   -1    0    0    0    0  0.00000000000E+00  0.00000000000E+00  0.45593999997E+02  0.45594000000E+02  0.51100000000E-03 0. -1.
         11   -1    0    0    0    0 -0.00000000000E+00 -0.00000000000E+00 -0.45593999997E+02  0.45594000000E+02  0.51100000000E-03 0.  1.
    9900012    2    1    2    0    0  0.92485822311E+01  0.25251965514E+02  0.34064989137E+02  0.47787291244E+02  0.20000092097E+02 0.  0.
         12    1    1    2    0    0 -0.92485822311E+01 -0.25251965514E+02 -0.34064989137E+02  0.43400708756E+02  0.00000000000E+00 0. -1.
         11    1    3    3    0    0 -0.24174458394E+01  0.46339872430E+01  0.20772641661E+01  0.56243140765E+01  0.51100000000E-03 0. -1.
        -11    1    3    3    0    0  0.72092657241E+00  0.13069924409E+02  0.10017786806E+02  0.16483285836E+02  0.51100000000E-03 0.  1.
        -12    1    3    3    0    0  0.10945101498E+02  0.75480538615E+01  0.21969938165E+02  0.25679691332E+02  0.00000000000E+00 0.  1.
</event>
<event>
 7    1  0.2414091E-009  0.4778727E+02  0.7816164E-02  0.1312668E+00
        -11   -1    0    0    0    0  0.00000000000E+00  0.00000000000E+00  0.45593999997E+02  0.45594000000E+02  0.51100000000E-03 0.  1.
         11   -1    0    0    0    0 -0.00000000000E+00 -0.00000000000E+00 -0.45593999997E+02  0.45594000000E+02  0.51100000000E-03 0. -1.
    9900012    2    1    2    0    0  0.14377789681E+02 -0.27451476228E+01  0.40857884924E+02  0.47787269222E+02  0.19999991689E+02 0.  0.
         12    1    1    2    0    0 -0.14377789681E+02  0.27451476228E+01 -0.40857884924E+02  0.43400730778E+02  0.00000000000E+00 0. -1.
         11    1    3    3    0    0 -0.26563288359E+01  0.10768576699E+01 -0.14676686649E+00  0.28700602956E+01  0.51100000000E-03 0. -1.
        -11    1    3    3    0    0  0.10641901814E+01 -0.58568573468E+00  0.60872194235E+00  0.13587020226E+01  0.51100000000E-03 0.  1.
        -12    1    3    3    0    0  0.15969928336E+02 -0.32363195580E+01  0.40395929849E+02  0.43558506904E+02  0.00000000000E+00 0.  1.
</event>
<event>
 7    1  0.2414091E-009  0.4778727E+02  0.7816164E-02  0.1312668E+00
        -11   -1    0    0    0    0  0.00000000000E+00  0.00000000000E+00  0.45593999997E+02  0.45594000000E+02  0.51100000000E-03 0.  1.
         11   -1    0    0    0    0 -0.00000000000E+00 -0.00000000000E+00 -0.45593999997E+02  0.45594000000E+02  0.51100000000E-03 0. -1.
    9900012    2    1    2    0    0  0.32589764395E+02  0.18644613843E+01  0.28601651125E+02  0.47787269515E+02  0.19999993028E+02 0.  0.
         12    1    1    2    0    0 -0.32589764395E+02 -0.18644613843E+01 -0.28601651125E+02  0.43400730485E+02  0.00000000000E+00 0. -1.
         11    1    3    3    0    0  0.10801720354E+02 -0.21556984797E+01  0.80298168127E+01  0.13630926485E+02  0.51100000000E-03 0. -1.
        -11    1    3    3    0    0  0.20960151077E+02 -0.20140634357E+01  0.17238921416E+02  0.27213320204E+02  0.51100000000E-03 0.  1.
         12    1    3    3    0    0  0.82789296421E+00  0.60342232996E+01  0.33329128960E+01  0.69430228260E+01  0.00000000000E+00 0. -1.
</event>
<event>
 7    1  0.2414091E-009  0.4778727E+02  0.7816164E-02  0.1312668E+00
        -11   -1    0    0    0    0  0.00000000000E+00  0.00000000000E+00  0.45593999997E+02  0.45594000000E+02  0.51100000000E-03 0.  1.
         11   -1    0    0    0    0 -0.00000000000E+00 -0.00000000000E+00 -0.45593999997E+02  0.45594000000E+02  0.51100000000E-03 0. -1.
    9900012    2    1    2    0    0 -0.29183378383E+02 -0.29535792715E+02  0.12632917480E+02  0.47787271558E+02  0.20000002344E+02 0.  0.
         12    1    1    2    0    0  0.29183378383E+02  0.29535792715E+02 -0.12632917480E+02  0.43400728442E+02  0.00000000000E+00 0. -1.
         11    1    3    3    0    0 -0.16388152072E+02 -0.18073519894E+02  0.83231254752E+01  0.25777860028E+02  0.51100000000E-03 0.  1.
        -11    1    3    3    0    0  0.26681459229E+01 -0.75491028905E+00  0.45790140911E+00  0.28104387864E+01  0.51100000000E-03 0. -1.
         12    1    3    3    0    0 -0.15463372235E+02 -0.10707362532E+02  0.38518905955E+01  0.19198972744E+02  0.00000000000E+00 0. -1.
</event>
<event>
 7    1  0.2414091E-009  0.4778727E+02  0.7816164E-02  0.1312668E+00
        -11   -1    0    0    0    0  0.00000000000E+00  0.00000000000E+00  0.45593999997E+02  0.45594000000E+02  0.51100000000E-03 0.  1.
         11   -1    0    0    0    0 -0.00000000000E+00 -0.00000000000E+00 -0.45593999997E+02  0.45594000000E+02  0.51100000000E-03 0. -1.
    9900012    2    1    2    0    0  0.33316451275E+02 -0.18629711017E+02  0.20653604745E+02  0.47787269049E+02  0.19999990902E+02 0.  0.
         12    1    1    2    0    0 -0.33316451275E+02  0.18629711017E+02 -0.20653604745E+02  0.43400730951E+02  0.00000000000E+00 0. -1.
         11    1    3    3    0    0  0.10183784587E+02 -0.77277562700E+01  0.31263781648E+01  0.13160620280E+02  0.51100000000E-03 0. -1.
        -11    1    3    3    0    0  0.18522079132E+02 -0.14439900630E+02  0.16555579036E+02  0.28734393034E+02  0.51100000000E-03 0.  1.
         12    1    3    3    0    0  0.46105875560E+01  0.35379458835E+01  0.97164754494E+00  0.58922557342E+01  0.00000000000E+00 0. -1.
</event>
<event>
 7    1  0.2414091E-009  0.4778727E+02  0.7816164E-02  0.1312668E+00
        -11   -1    0    0    0    0  0.00000000000E+00  0.00000000000E+00  0.45593999997E+02  0.45594000000E+02  0.51100000000E-03 0. -1.
         11   -1    0    0    0    0 -0.00000000000E+00 -0.00000000000E+00 -0.45593999997E+02  0.45594000000E+02  0.51100000000E-03 0.  1.
    9900012    2    1    2    0    0 -0.15374095136E+02  0.19562886243E+02 -0.35560569888E+02  0.47787269013E+02  0.19999990739E+02 0.  0.
         12    1    1    2    0    0  0.15374095136E+02 -0.19562886243E+02  0.35560569888E+02  0.43400730987E+02  0.00000000000E+00 0. -1.
         11    1    3    3    0    0  0.13777491820E+01  0.27838436537E+01 -0.72594834673E+01  0.78960799623E+01  0.51100000000E-03 0. -1.
        -11    1    3    3    0    0 -0.82763167135E+01  0.43927043139E+01 -0.21421483776E+02  0.23381044394E+02  0.51100000000E-03 0.  1.
         12    1    3    3    0    0 -0.84755276049E+01  0.12386338275E+02 -0.68796026454E+01  0.16510144657E+02  0.00000000000E+00 0. -1.
</event>
<event>
 7    1  0.2414091E-009  0.4778727E+02  0.7816164E-02  0.1312668E+00
        -11   -1    0    0    0    0  0.00000000000E+00  0.00000000000E+00  0.45593999997E+02  0.45594000000E+02  0.51100000000E-03 0.  1.
         11   -1    0    0    0    0 -0.00000000000E+00 -0.00000000000E+00 -0.45593999997E+02  0.45594000000E+02  0.51100000000E-03 0. -1.
    9900012    2    1    2    0    0 -0.27391788981E+02  0.26862064240E+02  0.20291441906E+02  0.47787271741E+02  0.20000003174E+02 0.  0.
         12    1    1    2    0    0  0.27391788981E+02 -0.26862064240E+02 -0.20291441906E+02  0.43400728259E+02  0.00000000000E+00 0. -1.
         11    1    3    3    0    0  0.79412910194E-01  0.17669875485E+01  0.20321709956E+01  0.26941177820E+01  0.51100000000E-03 0. -1.
        -11    1    3    3    0    0 -0.15480955502E+02  0.36331179470E+01  0.11413447952E+02  0.19573612944E+02  0.51100000000E-03 0.  1.
        -12    1    3    3    0    0 -0.11990246390E+02  0.21461958744E+02  0.68458229581E+01  0.25519541015E+02  0.00000000000E+00 0.  1.
</event>
<event>
 7    1  0.2414091E-009  0.4778727E+02  0.7816164E-02  0.1312668E+00
        -11   -1    0    0    0    0  0.00000000000E+00  0.00000000000E+00  0.45593999997E+02  0.45594000000E+02  0.51100000000E-03 0. -1.
         11   -1    0    0    0    0 -0.00000000000E+00 -0.00000000000E+00 -0.45593999997E+02  0.45594000000E+02  0.51100000000E-03 0.  1.
    9900012    2    1    2    0    0  0.34761622592E+02 -0.13106242811E+02 -0.22438342392E+02  0.47787271721E+02  0.20000003084E+02 0.  0.
         12    1    1    2    0    0 -0.34761622592E+02  0.13106242811E+02  0.22438342392E+02  0.43400728279E+02  0.00000000000E+00 0. -1.
         11    1    3    3    0    0  0.16778321108E+02 -0.13017266116E+02 -0.12649328196E+02  0.24717742219E+02  0.51100000000E-03 0. -1.
        -11    1    3    3    0    0  0.30566164756E+01 -0.11200232414E+01 -0.71772908092E+01  0.78810443446E+01  0.51100000000E-03 0.  1.
         12    1    3    3    0    0  0.14926685009E+02  0.10310465462E+01 -0.26117233870E+01  0.15188485157E+02  0.00000000000E+00 0. -1.
</event>
<event>
 7    1  0.2414091E-009  0.4778727E+02  0.7816164E-02  0.1312668E+00
        -11   -1    0    0    0    0  0.00000000000E+00  0.00000000000E+00  0.45593999997E+02  0.45594000000E+02  0.51100000000E-03 0.  1.
         11   -1    0    0    0    0 -0.00000000000E+00 -0.00000000000E+00 -0.45593999997E+02  0.45594000000E+02  0.51100000000E-03 0. -1.
    9900012    2    1    2    0    0 -0.30714943984E+02 -0.13126961364E+02  0.27710977916E+02  0.47787271945E+02  0.20000004108E+02 0.  0.
         12    1    1    2    0    0  0.30714943984E+02  0.13126961364E+02 -0.27710977916E+02  0.43400728055E+02  0.00000000000E+00 0. -1.
         11    1    3    3    0    0 -0.86554807080E+01 -0.37704739444E+01  0.88981997323E+00  0.94829109401E+01  0.51100000000E-03 0. -1.
        -11    1    3    3    0    0  0.10884406969E+01  0.12948108946E+01  0.28841422435E+01  0.33435781949E+01  0.51100000000E-03 0.  1.
        -12    1    3    3    0    0 -0.23147903973E+02 -0.10651298314E+02  0.23937015700E+02  0.34960782810E+02  0.00000000000E+00 0.  1.
</event>
<event>
 7    1  0.2414091E-009  0.4778726E+02  0.7816164E-02  0.1312668E+00
        -11   -1    0    0    0    0  0.00000000000E+00  0.00000000000E+00  0.45593999997E+02  0.45594000000E+02  0.51100000000E-03 0.  1.
         11   -1    0    0    0    0 -0.00000000000E+00 -0.00000000000E+00 -0.45593999997E+02  0.45594000000E+02  0.51100000000E-03 0. -1.
    9900012    2    1    2    0    0  0.26241313480E+02 -0.28537899698E+02  0.19509115586E+02  0.47787264484E+02  0.19999970089E+02 0.  0.
         12    1    1    2    0    0 -0.26241313480E+02  0.28537899698E+02 -0.19509115586E+02  0.43400735516E+02  0.00000000000E+00 0. -1.
         11    1    3    3    0    0  0.28756919711E+01 -0.15614320205E+02  0.50100622191E+01  0.16648643292E+02  0.51100000000E-03 0. -1.
        -11    1    3    3    0    0  0.25415025166E+01  0.74367036579E+00  0.13442524677E+01  0.29697298889E+01  0.51100000000E-03 0.  1.
        -12    1    3    3    0    0  0.20824118993E+02 -0.13667249859E+02  0.13154800899E+02  0.28168891303E+02  0.00000000000E+00 0.  1.
</event>
<event>
 7    1  0.2414091E-009  0.4778727E+02  0.7816164E-02  0.1312668E+00
        -11   -1    0    0    0    0  0.00000000000E+00  0.00000000000E+00  0.45593999997E+02  0.45594000000E+02  0.51100000000E-03 0.  1.
         11   -1    0    0    0    0 -0.00000000000E+00 -0.00000000000E+00 -0.45593999997E+02  0.45594000000E+02  0.51100000000E-03 0. -1.
    9900012    2    1    2    0    0  0.36713668231E+02  0.21929935086E+02  0.74032411549E+01  0.47787268815E+02  0.19999989834E+02 0.  0.
         12    1    1    2    0    0 -0.36713668231E+02 -0.21929935086E+02 -0.74032411549E+01  0.43400731185E+02  0.00000000000E+00 0. -1.
         11    1    3    3    0    0  0.29549759534E+00  0.14528047582E+01 -0.29351716680E+01  0.32883420558E+01  0.51100000000E-03 0.  1.
        -11    1    3    3    0    0  0.22435064952E+01  0.54863849187E+01  0.79882053095E+00  0.59809577303E+01  0.51100000000E-03 0. -1.
        -12    1    3    3    0    0  0.34174664140E+02  0.14990745409E+02  0.95395922919E+01  0.38517969029E+02  0.00000000000E+00 0.  1.
</event>
<event>
 7    1  0.2414091E-009  0.4778727E+02  0.7816164E-02  0.1312668E+00
        -11   -1    0    0    0    0  0.00000000000E+00  0.00000000000E+00  0.45593999997E+02  0.45594000000E+02  0.51100000000E-03 0.  1.
         11   -1    0    0    0    0 -0.00000000000E+00 -0.00000000000E+00 -0.45593999997E+02  0.45594000000E+02  0.51100000000E-03 0. -1.
    9900012    2    1    2    0    0  0.23617269399E+02  0.33854830821E+02 -0.13405156077E+02  0.47787271974E+02  0.20000004238E+02 0.  0.
         12    1    1    2    0    0 -0.23617269399E+02 -0.33854830821E+02  0.13405156077E+02  0.43400728026E+02  0.00000000000E+00 0. -1.
         11    1    3    3    0    0  0.97123525170E+01  0.66079065873E+01 -0.74015492397E+01  0.13884421208E+02  0.51100000000E-03 0. -1.
        -11    1    3    3    0    0 -0.10204669033E+01  0.48542125150E+00 -0.28897339696E+01  0.31028292200E+01  0.51100000000E-03 0.  1.
        -12    1    3    3    0    0  0.14925383785E+02  0.26761502982E+02 -0.31138728679E+01  0.30800021546E+02  0.00000000000E+00 0.  1.
</event>
<event>
 7    1  0.2414091E-009  0.4778727E+02  0.7816164E-02  0.1312668E+00
        -11   -1    0    0    0    0  0.00000000000E+00  0.00000000000E+00  0.45593999997E+02  0.45594000000E+02  0.51100000000E-03 0.  1.
         11   -1    0    0    0    0 -0.00000000000E+00 -0.00000000000E+00 -0.45593999997E+02  0.45594000000E+02  0.51100000000E-03 0. -1.
    9900012    2    1    2    0    0  0.17823840499E+02  0.10139242941E+02  0.38250881339E+02  0.47787268892E+02  0.19999990185E+02 0.  0.
         12    1    1    2    0    0 -0.17823840499E+02 -0.10139242941E+02 -0.38250881339E+02  0.43400731108E+02  0.00000000000E+00 0. -1.
         11    1    3    3    0    0  0.13205320266E+02  0.73600826006E+01  0.31369574716E+02  0.34822428367E+02  0.51100000000E-03 0.  1.
        -11    1    3    3    0    0  0.52294234201E+01 -0.22594530105E+01  0.49075947890E+01  0.75190746829E+01  0.51100000000E-03 0. -1.
        -12    1    3    3    0    0 -0.61090318747E+00  0.50386133512E+01  0.19737118336E+01  0.54457658423E+01  0.00000000000E+00 0.  1.
</event>
<event>
 7    1  0.2414091E-009  0.4778728E+02  0.7816164E-02  0.1312668E+00
        -11   -1    0    0    0    0  0.00000000000E+00  0.00000000000E+00  0.45593999997E+02  0.45594000000E+02  0.51100000000E-03 0.  1.
         11   -1    0    0    0    0 -0.00000000000E+00 -0.00000000000E+00 -0.45593999997E+02  0.45594000000E+02  0.51100000000E-03 0. -1.
    9900012    2    1    2    0    0 -0.16227715254E+02 -0.36127900742E+01  0.40090294821E+02  0.47787277272E+02  0.20000028396E+02 0.  0.
         12    1    1    2    0    0  0.16227715254E+02  0.36127900742E+01 -0.40090294821E+02  0.43400722728E+02  0.00000000000E+00 0. -1.
         11    1    3    3    0    0 -0.28181763304E+01  0.17139586260E+01  0.25959651644E+02  0.26168364216E+02  0.51100000000E-03 0. -1.
        -11    1    3    3    0    0 -0.39656040709E+01 -0.20870343782E+01  0.97212442908E+01  0.10704406521E+02  0.51100000000E-03 0.  1.
        -12    1    3    3    0    0 -0.94439348523E+01 -0.32397143220E+01  0.44093988863E+01  0.10914506536E+02  0.00000000000E+00 0.  1.
</event>
<event>
 7    1  0.2414091E-009  0.4778727E+02  0.7816164E-02  0.1312668E+00
        -11   -1    0    0    0    0  0.00000000000E+00  0.00000000000E+00  0.45593999997E+02  0.45594000000E+02  0.51100000000E-03 0.  1.
         11   -1    0    0    0    0 -0.00000000000E+00 -0.00000000000E+00 -0.45593999997E+02  0.45594000000E+02  0.51100000000E-03 0. -1.
    9900012    2    1    2    0    0  0.14225542045E+02 -0.14858445562E+02  0.38216275639E+02  0.47787272186E+02  0.20000005207E+02 0.  0.
         12    1    1    2    0    0 -0.14225542045E+02  0.14858445562E+02 -0.38216275639E+02  0.43400727814E+02  0.00000000000E+00 0. -1.
         11    1    3    3    0    0 -0.10210999415E+01 -0.42872416368E+01 -0.86913634219E-01  0.44080199845E+01  0.51100000000E-03 0. -1.
        -11    1    3    3    0    0  0.54183041144E+01 -0.51586847334E+01  0.74878820169E+01  0.10584820500E+02  0.51100000000E-03 0.  1.
        -12    1    3    3    0    0  0.98283378724E+01 -0.54125191922E+01  0.30815307257E+02  0.32794431702E+02  0.00000000000E+00 0.  1.
</event>
<event>
 7    1  0.2414091E-009  0.4778726E+02  0.7816164E-02  0.1312668E+00
        -11   -1    0    0    0    0  0.00000000000E+00  0.00000000000E+00  0.45593999997E+02  0.45594000000E+02  0.51100000000E-03 0.  1.
         11   -1    0    0    0    0 -0.00000000000E+00 -0.00000000000E+00 -0.45593999997E+02  0.45594000000E+02  0.51100000000E-03 0. -1.
    9900012    2    1    2    0    0  0.40929595984E+02 -0.70028388526E+01  0.12623481943E+02  0.47787264110E+02  0.19999968384E+02 0.  0.
         12    1    1    2    0    0 -0.40929595984E+02  0.70028388526E+01 -0.12623481943E+02  0.43400735890E+02  0.00000000000E+00 0. -1.
         11    1    3    3    0    0  0.17234605159E+02 -0.56704081521E+00 -0.14928373187E+01  0.17308428981E+02  0.51100000000E-03 0. -1.
        -11    1    3    3    0    0  0.67893578274E+01  0.11237986516E+01 -0.48104027388E+00  0.68985290550E+01  0.51100000000E-03 0.  1.
        -12    1    3    3    0    0  0.16905632998E+02 -0.75595966889E+01  0.14597359535E+02  0.23580306074E+02  0.00000000000E+00 0.  1.
</event>
<event>
 7    1  0.2414091E-009  0.4778727E+02  0.7816164E-02  0.1312668E+00
        -11   -1    0    0    0    0  0.00000000000E+00  0.00000000000E+00  0.45593999997E+02  0.45594000000E+02  0.51100000000E-03 0. -1.
         11   -1    0    0    0    0 -0.00000000000E+00 -0.00000000000E+00 -0.45593999997E+02  0.45594000000E+02  0.51100000000E-03 0.  1.
    9900012    2    1    2    0    0  0.89762591796E+01  0.41824138258E+02  0.73342547238E+01  0.47787273483E+02  0.20000011118E+02 0.  0.
         12    1    1    2    0    0 -0.89762591796E+01 -0.41824138258E+02 -0.73342547238E+01  0.43400726517E+02  0.00000000000E+00 0. -1.
         11    1    3    3    0    0 -0.10878571503E+01  0.63808892511E+01  0.69748717857E+01  0.95156722045E+01  0.51100000000E-03 0. -1.
        -11    1    3    3    0    0  0.65741620030E+01  0.18861184953E+02  0.52162434712E+01  0.20643960378E+02  0.51100000000E-03 0.  1.
        -12    1    3    3    0    0  0.34899543269E+01  0.16582064053E+02 -0.48568605331E+01  0.17627640900E+02  0.00000000000E+00 0.  1.
</event>
<event>
 7    1  0.2414091E-009  0.4778727E+02  0.7816164E-02  0.1312668E+00
        -11   -1    0    0    0    0  0.00000000000E+00  0.00000000000E+00  0.45593999997E+02  0.45594000000E+02  0.51100000000E-03 0. -1.
         11   -1    0    0    0    0 -0.00000000000E+00 -0.00000000000E+00 -0.45593999997E+02  0.45594000000E+02  0.51100000000E-03 0.  1.
    9900012    2    1    2    0    0 -0.42034436676E+02 -0.10173165688E+02  0.36381449507E+01  0.47787271141E+02  0.20000000441E+02 0.  0.
         12    1    1    2    0    0  0.42034436676E+02  0.10173165688E+02 -0.36381449507E+01  0.43400728859E+02  0.00000000000E+00 0. -1.
         11    1    3    3    0    0 -0.94706740359E+01  0.10840282071E+01  0.51946555342E+01  0.10856022763E+02  0.51100000000E-03 0. -1.
        -11    1    3    3    0    0 -0.17780481842E+02  0.83263396559E+00 -0.60825519949E+00  0.17810356215E+02  0.51100000000E-03 0.  1.
        -12    1    3    3    0    0 -0.14783280799E+02 -0.12089827860E+02 -0.94825538404E+00  0.19120892164E+02  0.00000000000E+00 0.  1.
</event>
<event>
 7    1  0.2414091E-009  0.4778727E+02  0.7816164E-02  0.1312668E+00
        -11   -1    0    0    0    0  0.00000000000E+00  0.00000000000E+00  0.45593999997E+02  0.45594000000E+02  0.51100000000E-03 0.  1.
         11   -1    0    0    0    0 -0.00000000000E+00 -0.00000000000E+00 -0.45593999997E+02  0.45594000000E+02  0.51100000000E-03 0. -1.
    9900012    2    1    2    0    0  0.27993222773E+02 -0.32576052881E+02 -0.62292398096E+01  0.47787272228E+02  0.20000005396E+02 0.  0.
         12    1    1    2    0    0 -0.27993222773E+02  0.32576052881E+02  0.62292398096E+01  0.43400727772E+02  0.00000000000E+00 0. -1.
         11    1    3    3    0    0  0.95142129768E+01 -0.22992684316E+02 -0.95593393417E+01  0.26656420418E+02  0.51100000000E-03 0. -1.
        -11    1    3    3    0    0  0.34076718320E+01 -0.23643887887E+01  0.42703530614E+00  0.41695228831E+01  0.51100000000E-03 0.  1.
         12    1    3    3    0    0  0.15071337964E+02 -0.72189797770E+01  0.29030642260E+01  0.16961328927E+02  0.00000000000E+00 0. -1.
</event>
<event>
 7    1  0.2414091E-009  0.4778727E+02  0.7816164E-02  0.1312668E+00
        -11   -1    0    0    0    0  0.00000000000E+00  0.00000000000E+00  0.45593999997E+02  0.45594000000E+02  0.51100000000E-03 0.  1.
         11   -1    0    0    0    0 -0.00000000000E+00 -0.00000000000E+00 -0.45593999997E+02  0.45594000000E+02  0.51100000000E-03 0. -1.
    9900012    2    1    2    0    0 -0.26175788414E+02 -0.27788514947E+02  0.20645817412E+02  0.47787271450E+02  0.20000001849E+02 0.  0.
         12    1    1    2    0    0  0.26175788414E+02  0.27788514947E+02 -0.20645817412E+02  0.43400728550E+02  0.00000000000E+00 0. -1.
         11    1    3    3    0    0 -0.21115529181E+01  0.10166720639E+01  0.21062275228E+01  0.31509478654E+01  0.51100000000E-03 0. -1.
        -11    1    3    3    0    0 -0.11410668282E+02 -0.24062285464E+02  0.90602618601E+01  0.28129793416E+02  0.51100000000E-03 0.  1.
        -12    1    3    3    0    0 -0.12653567214E+02 -0.47429015473E+01  0.94793280294E+01  0.16506530169E+02  0.00000000000E+00 0.  1.
</event>
<event>
 7    1  0.2414091E-009  0.4778726E+02  0.7816164E-02  0.1312668E+00
        -11   -1    0    0    0    0  0.00000000000E+00  0.00000000000E+00  0.45593999997E+02  0.45594000000E+02  0.51100000000E-03 0.  1.
         11   -1    0    0    0    0 -0.00000000000E+00 -0.00000000000E+00 -0.45593999997E+02  0.45594000000E+02  0.51100000000E-03 0. -1.
    9900012    2    1    2    0    0  0.39177494574E+02  0.16737191353E+02  0.82833750194E+01  0.47787263172E+02  0.19999964108E+02 0.  0.
         12    1    1    2    0    0 -0.39177494574E+02 -0.16737191353E+02 -0.82833750194E+01  0.43400736828E+02  0.00000000000E+00 0. -1.
         11    1    3    3    0    0 -0.31348967805E+00  0.13430402053E+01  0.31979660816E+01  0.34826742729E+01  0.51100000000E-03 0. -1.
        -11    1    3    3    0    0  0.11973950898E+02  0.54687966418E+01  0.71487155191E+01  0.14979565102E+02  0.51100000000E-03 0.  1.
        -12    1    3    3    0    0  0.27517033353E+02  0.99253545062E+01 -0.20633065813E+01  0.29325023797E+02  0.00000000000E+00 0.  1.
</event>
<event>
 7    1  0.2414091E-009  0.4778727E+02  0.7816164E-02  0.1312668E+00
        -11   -1    0    0    0    0  0.00000000000E+00  0.00000000000E+00  0.45593999997E+02  0.45594000000E+02  0.51100000000E-03 0.  1.
         11   -1    0    0    0    0 -0.00000000000E+00 -0.00000000000E+00 -0.45593999997E+02  0.45594000000E+02  0.51100000000E-03 0. -1.
    9900012    2    1    2    0    0  0.36450437734E+02 -0.18088340154E+02  0.15093074558E+02  0.47787270051E+02  0.19999995471E+02 0.  0.
         12    1    1    2    0    0 -0.36450437734E+02  0.18088340154E+02 -0.15093074558E+02  0.43400729949E+02  0.00000000000E+00 0. -1.
         11    1    3    3    0    0  0.23970365442E+01 -0.31067374142E+01  0.18232387087E+01  0.43268696774E+01  0.51100000000E-03 0. -1.
        -11    1    3    3    0    0  0.35467283920E+02 -0.16520482789E+02  0.11672810720E+02  0.40830247251E+02  0.51100000000E-03 0.  1.
         12    1    3    3    0    0 -0.14138827305E+01  0.15388800498E+01  0.15970251292E+01  0.26301531223E+01  0.00000000000E+00 0. -1.
</event>
<event>
 7    1  0.2414091E-009  0.4778727E+02  0.7816164E-02  0.1312668E+00
        -11   -1    0    0    0    0  0.00000000000E+00  0.00000000000E+00  0.45593999997E+02  0.45594000000E+02  0.51100000000E-03 0.  1.
         11   -1    0    0    0    0 -0.00000000000E+00 -0.00000000000E+00 -0.45593999997E+02  0.45594000000E+02  0.51100000000E-03 0. -1.
    9900012    2    1    2    0    0 -0.29634920750E+02 -0.24894250103E+02  0.19638503801E+02  0.47787273651E+02  0.20000011885E+02 0.  0.
         12    1    1    2    0    0  0.29634920750E+02  0.24894250103E+02 -0.19638503801E+02  0.43400726349E+02  0.00000000000E+00 0. -1.
         11    1    3    3    0    0 -0.42625840227E+01 -0.90653767686E+01  0.37469236304E+00  0.10024523586E+02  0.51100000000E-03 0. -1.
        -11    1    3    3    0    0 -0.81083017088E+01 -0.10895644102E+02  0.38968769041E+01  0.14129588347E+02  0.51100000000E-03 0.  1.
        -12    1    3    3    0    0 -0.17264035019E+02 -0.49332292323E+01  0.15366934534E+02  0.23633161717E+02  0.00000000000E+00 0.  1.
</event>
<event>
 7    1  0.2414091E-009  0.4778727E+02  0.7816164E-02  0.1312668E+00
        -11   -1    0    0    0    0  0.00000000000E+00  0.00000000000E+00  0.45593999997E+02  0.45594000000E+02  0.51100000000E-03 0.  1.
         11   -1    0    0    0    0 -0.00000000000E+00 -0.00000000000E+00 -0.45593999997E+02  0.45594000000E+02  0.51100000000E-03 0. -1.
    9900012    2    1    2    0    0  0.79913342877E+01 -0.33989984194E+02  0.25776795270E+02  0.47787267015E+02  0.19999981629E+02 0.  0.
         12    1    1    2    0    0 -0.79913342877E+01  0.33989984194E+02 -0.25776795270E+02  0.43400732985E+02  0.00000000000E+00 0. -1.
         11    1    3    3    0    0  0.41521949180E+01 -0.37768099302E+01  0.57272421892E+01  0.80191220991E+01  0.51100000000E-03 0. -1.
        -11    1    3    3    0    0 -0.14784925664E+01 -0.23946994525E+01 -0.23439143209E+01  0.36625756431E+01  0.51100000000E-03 0.  1.
        -12    1    3    3    0    0  0.53176319361E+01 -0.27818474812E+02  0.22393467402E+02  0.36105569273E+02  0.00000000000E+00 0.  1.
</event>
<event>
 7    1  0.2414091E-009  0.4778727E+02  0.7816164E-02  0.1312668E+00
        -11   -1    0    0    0    0  0.00000000000E+00  0.00000000000E+00  0.45593999997E+02  0.45594000000E+02  0.51100000000E-03 0. -1.
         11   -1    0    0    0    0 -0.00000000000E+00 -0.00000000000E+00 -0.45593999997E+02  0.45594000000E+02  0.51100000000E-03 0.  1.
    9900012    2    1    2    0    0  0.39727753175E+02  0.56699612682E+01 -0.16528175911E+02  0.47787269222E+02  0.19999991692E+02 0.  0.
         12    1    1    2    0    0 -0.39727753175E+02 -0.56699612682E+01  0.16528175911E+02  0.43400730778E+02  0.00000000000E+00 0. -1.
         11    1    3    3    0    0  0.72247519012E+01 -0.12558834324E+01  0.20599917124E+01  0.76169448827E+01  0.51100000000E-03 0. -1.
        -11    1    3    3    0    0  0.32779333662E+02  0.85645965513E+01 -0.17152905900E+02  0.37974454710E+02  0.51100000000E-03 0.  1.
         12    1    3    3    0    0 -0.27633238881E+00 -0.16387518507E+01 -0.14352617227E+01  0.21958696295E+01  0.00000000000E+00 0. -1.
</event>
<event>
 7    1  0.2414091E-009  0.4778727E+02  0.7816164E-02  0.1312668E+00
        -11   -1    0    0    0    0  0.00000000000E+00  0.00000000000E+00  0.45593999997E+02  0.45594000000E+02  0.51100000000E-03 0.  1.
         11   -1    0    0    0    0 -0.00000000000E+00 -0.00000000000E+00 -0.45593999997E+02  0.45594000000E+02  0.51100000000E-03 0. -1.
    9900012    2    1    2    0    0 -0.12778686287E+02  0.10669031131E+02  0.40081166468E+02  0.47787274731E+02  0.20000016807E+02 0.  0.
         12    1    1    2    0    0  0.12778686287E+02 -0.10669031131E+02 -0.40081166468E+02  0.43400725269E+02  0.00000000000E+00 0. -1.
         11    1    3    3    0    0 -0.12561969283E+01 -0.46467285719E+00  0.25787924876E+01  0.29058772414E+01  0.51100000000E-03 0. -1.
        -11    1    3    3    0    0 -0.10119229656E+02 -0.16091798507E+01  0.90363147252E+01  0.13661744131E+02  0.51100000000E-03 0.  1.
         12    1    3    3    0    0 -0.14032597025E+01  0.12742883839E+02  0.28466059255E+02  0.31219653359E+02  0.00000000000E+00 0. -1.
</event>
<event>
 7    1  0.2414091E-009  0.4778725E+02  0.7816164E-02  0.1312668E+00
        -11   -1    0    0    0    0  0.00000000000E+00  0.00000000000E+00  0.45593999997E+02  0.45594000000E+02  0.51100000000E-03 0.  1.
         11   -1    0    0    0    0 -0.00000000000E+00 -0.00000000000E+00 -0.45593999997E+02  0.45594000000E+02  0.51100000000E-03 0. -1.
    9900012    2    1    2    0    0 -0.79950344056E+01 -0.30622305407E+02  0.29698128763E+02  0.47787250979E+02  0.19999908514E+02 0.  0.
         12    1    1    2    0    0  0.79950344056E+01  0.30622305407E+02 -0.29698128763E+02  0.43400749021E+02  0.00000000000E+00 0. -1.
         11    1    3    3    0    0 -0.48673388926E+01 -0.12726413147E+02  0.10508067349E+02  0.17206744583E+02  0.51100000000E-03 0.  1.
        -11    1    3    3    0    0  0.23819739621E+01 -0.18124771146E+02  0.14281334777E+02  0.23197794126E+02  0.51100000000E-03 0. -1.
         12    1    3    3    0    0 -0.55096694752E+01  0.22887888572E+00  0.49087266369E+01  0.73827122703E+01  0.00000000000E+00 0. -1.
</event>
<event>
 7    1  0.2414091E-009  0.4778727E+02  0.7816164E-02  0.1312668E+00
        -11   -1    0    0    0    0  0.00000000000E+00  0.00000000000E+00  0.45593999997E+02  0.45594000000E+02  0.51100000000E-03 0. -1.
         11   -1    0    0    0    0 -0.00000000000E+00 -0.00000000000E+00 -0.45593999997E+02  0.45594000000E+02  0.51100000000E-03 0.  1.
    9900012    2    1    2    0    0 -0.23820445900E+01 -0.12974436471E+02 -0.41347467994E+02  0.47787271346E+02  0.20000001376E+02 0.  0.
         12    1    1    2    0    0  0.23820445900E+01  0.12974436471E+02  0.41347467994E+02  0.43400728654E+02  0.00000000000E+00 0. -1.
         11    1    3    3    0    0 -0.52958928501E+01 -0.48446505196E+01 -0.12938851429E+02  0.14796316984E+02  0.51100000000E-03 0. -1.
        -11    1    3    3    0    0  0.89038856110E+00 -0.14592312136E+01 -0.25301400709E+02  0.25359081719E+02  0.51100000000E-03 0.  1.
        -12    1    3    3    0    0  0.20234596990E+01 -0.66705547381E+01 -0.31072158560E+01  0.76318726432E+01  0.00000000000E+00 0.  1.
</event>
<event>
 7    1  0.2414091E-009  0.4778726E+02  0.7816164E-02  0.1312668E+00
        -11   -1    0    0    0    0  0.00000000000E+00  0.00000000000E+00  0.45593999997E+02  0.45594000000E+02  0.51100000000E-03 0.  1.
         11   -1    0    0    0    0 -0.00000000000E+00 -0.00000000000E+00 -0.45593999997E+02  0.45594000000E+02  0.51100000000E-03 0. -1.
    9900012    2    1    2    0    0  0.62305736026E+01  0.42757053598E+02 -0.40789953812E+01  0.47787264026E+02  0.19999967998E+02 0.  0.
         12    1    1    2    0    0 -0.62305736026E+01 -0.42757053598E+02  0.40789953812E+01  0.43400735974E+02  0.00000000000E+00 0. -1.
         11    1    3    3    0    0  0.94158929840E+01  0.14502140578E+02 -0.37374540848E+01  0.17690101337E+02  0.51100000000E-03 0. -1.
        -11    1    3    3    0    0  0.33137187493E+01  0.60449236185E+01 -0.88013655424E+00  0.69495664698E+01  0.51100000000E-03 0.  1.
        -12    1    3    3    0    0 -0.64990381308E+01  0.22209989402E+02  0.53859525775E+00  0.23147596219E+02  0.00000000000E+00 0.  1.
</event>
<event>
 7    1  0.2414091E-009  0.4778726E+02  0.7816164E-02  0.1312668E+00
        -11   -1    0    0    0    0  0.00000000000E+00  0.00000000000E+00  0.45593999997E+02  0.45594000000E+02  0.51100000000E-03 0.  1.
         11   -1    0    0    0    0 -0.00000000000E+00 -0.00000000000E+00 -0.45593999997E+02  0.45594000000E+02  0.51100000000E-03 0. -1.
    9900012    2    1    2    0    0 -0.47231252929E+01 -0.14391389703E+02  0.40671910512E+02  0.47787259052E+02  0.19999945322E+02 0.  0.
         12    1    1    2    0    0  0.47231252929E+01  0.14391389703E+02 -0.40671910512E+02  0.43400740948E+02  0.00000000000E+00 0. -1.
         11    1    3    3    0    0 -0.17427541977E+01 -0.14106533504E+02  0.34373819401E+02  0.37196652271E+02  0.51100000000E-03 0. -1.
        -11    1    3    3    0    0 -0.21652435716E+01  0.71477318096E+00  0.80773421927E+01  0.83930112346E+01  0.51100000000E-03 0.  1.
         12    1    3    3    0    0 -0.81512752358E+00 -0.99962938047E+00 -0.17792510812E+01  0.21975955470E+01  0.00000000000E+00 0. -1.
</event>
<event>
 7    1  0.2414091E-009  0.4778727E+02  0.7816164E-02  0.1312668E+00
        -11   -1    0    0    0    0  0.00000000000E+00  0.00000000000E+00  0.45593999997E+02  0.45594000000E+02  0.51100000000E-03 0. -1.
         11   -1    0    0    0    0 -0.00000000000E+00 -0.00000000000E+00 -0.45593999997E+02  0.45594000000E+02  0.51100000000E-03 0.  1.
    9900012    2    1    2    0    0  0.28129220240E+02  0.24065298600E+02  0.22654613130E+02  0.47787272770E+02  0.20000007867E+02 0.  0.
         12    1    1    2    0    0 -0.28129220240E+02 -0.24065298600E+02 -0.22654613130E+02  0.43400727230E+02  0.00000000000E+00 0. -1.
         11    1    3    3    0    0  0.15464507618E+01 -0.65696088564E+00 -0.80085358746E-01  0.16821181557E+01  0.51100000000E-03 0. -1.
        -11    1    3    3    0    0  0.37101224107E+01  0.73211310456E+01  0.13715451689E+02  0.15983666143E+02  0.51100000000E-03 0.  1.
        -12    1    3    3    0    0  0.22872647068E+02  0.17401128440E+02  0.90192468000E+01  0.30121488471E+02  0.00000000000E+00 0.  1.
</event>
<event>
 7    1  0.2414091E-009  0.4778728E+02  0.7816164E-02  0.1312668E+00
        -11   -1    0    0    0    0  0.00000000000E+00  0.00000000000E+00  0.45593999997E+02  0.45594000000E+02  0.51100000000E-03 0.  1.
         11   -1    0    0    0    0 -0.00000000000E+00 -0.00000000000E+00 -0.45593999997E+02  0.45594000000E+02  0.51100000000E-03 0. -1.
    9900012    2    1    2    0    0  0.39337326320E+02 -0.79369993380E+01 -0.16528805589E+02  0.47787278638E+02  0.20000034623E+02 0.  0.
         12    1    1    2    0    0 -0.39337326320E+02  0.79369993380E+01  0.16528805589E+02  0.43400721362E+02  0.00000000000E+00 0. -1.
         11    1    3    3    0    0  0.28621322909E+01  0.24647211917E+01 -0.16249471562E+01  0.41118250601E+01  0.51100000000E-03 0. -1.
        -11    1    3    3    0    0  0.33157555851E+02 -0.68964267368E+01 -0.72618196114E+01  0.34636949000E+02  0.51100000000E-03 0.  1.
        -12    1    3    3    0    0  0.33176381789E+01 -0.35052937929E+01 -0.76420388210E+01  0.90385045777E+01  0.00000000000E+00 0.  1.
</event>
<event>
 7    1  0.2414091E-009  0.4778727E+02  0.7816164E-02  0.1312668E+00
        -11   -1    0    0    0    0  0.00000000000E+00  0.00000000000E+00  0.45593999997E+02  0.45594000000E+02  0.51100000000E-03 0.  1.
         11   -1    0    0    0    0 -0.00000000000E+00 -0.00000000000E+00 -0.45593999997E+02  0.45594000000E+02  0.51100000000E-03 0. -1.
    9900012    2    1    2    0    0 -0.20373154595E+02  0.20788652685E+02  0.32193006062E+02  0.47787272496E+02  0.20000006618E+02 0.  0.
         12    1    1    2    0    0  0.20373154595E+02 -0.20788652685E+02 -0.32193006062E+02  0.43400727504E+02  0.00000000000E+00 0. -1.
         11    1    3    3    0    0 -0.18577634740E+02  0.15379600570E+02  0.13185865340E+02  0.27486863613E+02  0.51100000000E-03 0. -1.
        -11    1    3    3    0    0 -0.68245643222E+00 -0.62790153395E+00  0.16947386018E+01  0.19318763697E+01  0.51100000000E-03 0.  1.
        -12    1    3    3    0    0 -0.11130634224E+01  0.60369536487E+01  0.17312402120E+02  0.18368532513E+02  0.00000000000E+00 0.  1.
</event>
<event>
 7    1  0.2414091E-009  0.4778727E+02  0.7816164E-02  0.1312668E+00
        -11   -1    0    0    0    0  0.00000000000E+00  0.00000000000E+00  0.45593999997E+02  0.45594000000E+02  0.51100000000E-03 0.  1.
         11   -1    0    0    0    0 -0.00000000000E+00 -0.00000000000E+00 -0.45593999997E+02  0.45594000000E+02  0.51100000000E-03 0. -1.
    9900012    2    1    2    0    0 -0.15822027537E+02 -0.14029706124E+02  0.37900583393E+02  0.47787269236E+02  0.19999991757E+02 0.  0.
         12    1    1    2    0    0  0.15822027537E+02  0.14029706124E+02 -0.37900583393E+02  0.43400730764E+02  0.00000000000E+00 0. -1.
         11    1    3    3    0    0 -0.94433119083E+01 -0.26985875143E+01  0.11977746384E+02  0.15489510098E+02  0.51100000000E-03 0. -1.
        -11    1    3    3    0    0 -0.82651685242E+01 -0.18984962351E+01  0.67195250347E+01  0.10819857469E+02  0.51100000000E-03 0.  1.
         12    1    3    3    0    0  0.18864528953E+01 -0.94326223745E+01  0.19203311973E+02  0.21477901670E+02  0.00000000000E+00 0. -1.
</event>
<event>
 7    1  0.2414091E-009  0.4778727E+02  0.7816164E-02  0.1312668E+00
        -11   -1    0    0    0    0  0.00000000000E+00  0.00000000000E+00  0.45593999997E+02  0.45594000000E+02  0.51100000000E-03 0.  1.
         11   -1    0    0    0    0 -0.00000000000E+00 -0.00000000000E+00 -0.45593999997E+02  0.45594000000E+02  0.51100000000E-03 0. -1.
    9900012    2    1    2    0    0  0.24855469813E+02  0.31506914472E+02  0.16527041480E+02  0.47787272595E+02  0.20000007071E+02 0.  0.
         12    1    1    2    0    0 -0.24855469813E+02 -0.31506914472E+02 -0.16527041480E+02  0.43400727405E+02  0.00000000000E+00 0. -1.
         11    1    3    3    0    0  0.63274766816E+01  0.23433167975E+01  0.43031174581E+01  0.80028066882E+01  0.51100000000E-03 0. -1.
        -11    1    3    3    0    0  0.42600950333E+01  0.10176777532E+01  0.63071206750E+01  0.76787921688E+01  0.51100000000E-03 0.  1.
        -12    1    3    3    0    0  0.14267898098E+02  0.28145919921E+02  0.59168033473E+01  0.32105673738E+02  0.00000000000E+00 0.  1.
</event>
<event>
 7    1  0.2414091E-009  0.4778727E+02  0.7816164E-02  0.1312668E+00
        -11   -1    0    0    0    0  0.00000000000E+00  0.00000000000E+00  0.45593999997E+02  0.45594000000E+02  0.51100000000E-03 0.  1.
         11   -1    0    0    0    0 -0.00000000000E+00 -0.00000000000E+00 -0.45593999997E+02  0.45594000000E+02  0.51100000000E-03 0. -1.
    9900012    2    1    2    0    0 -0.16493902225E+02  0.37234799307E+02  0.15004810962E+02  0.47787269107E+02  0.19999991168E+02 0.  0.
         12    1    1    2    0    0  0.16493902225E+02 -0.37234799307E+02 -0.15004810962E+02  0.43400730893E+02  0.00000000000E+00 0. -1.
         11    1    3    3    0    0 -0.10065966617E+02  0.94935390869E+01  0.32027746048E+01  0.14202419997E+02  0.51100000000E-03 0.  1.
        -11    1    3    3    0    0 -0.70579351130E+01  0.50043450807E+01  0.40642388401E+01  0.95590771184E+01  0.51100000000E-03 0. -1.
         12    1    3    3    0    0  0.62999950472E+00  0.22736915139E+02  0.77377975169E+01  0.24025771992E+02  0.00000000000E+00 0. -1.
</event>
<event>
 7    1  0.2414091E-009  0.4778727E+02  0.7816164E-02  0.1312668E+00
        -11   -1    0    0    0    0  0.00000000000E+00  0.00000000000E+00  0.45593999997E+02  0.45594000000E+02  0.51100000000E-03 0.  1.
         11   -1    0    0    0    0 -0.00000000000E+00 -0.00000000000E+00 -0.45593999997E+02  0.45594000000E+02  0.51100000000E-03 0. -1.
    9900012    2    1    2    0    0  0.32125859922E+02  0.18283986929E+02  0.22743094127E+02  0.47787269773E+02  0.19999994204E+02 0.  0.
         12    1    1    2    0    0 -0.32125859922E+02 -0.18283986929E+02 -0.22743094127E+02  0.43400730227E+02  0.00000000000E+00 0. -1.
         11    1    3    3    0    0  0.24168667815E+00  0.61808344743E+01  0.43723777602E+01  0.75748805131E+01  0.51100000000E-03 0. -1.
        -11    1    3    3    0    0  0.85269912787E+01  0.49605352787E+01  0.10831244309E+02  0.14650335971E+02  0.51100000000E-03 0.  1.
        -12    1    3    3    0    0  0.23357181965E+02  0.71426171764E+01  0.75394720584E+01  0.25562053290E+02  0.00000000000E+00 0.  1.
</event>
<event>
 7    1  0.2414091E-009  0.4778725E+02  0.7816164E-02  0.1312668E+00
        -11   -1    0    0    0    0  0.00000000000E+00  0.00000000000E+00  0.45593999997E+02  0.45594000000E+02  0.51100000000E-03 0.  1.
         11   -1    0    0    0    0 -0.00000000000E+00 -0.00000000000E+00 -0.45593999997E+02  0.45594000000E+02  0.51100000000E-03 0. -1.
    9900012    2    1    2    0    0  0.23177372667E+01  0.41762104412E+02  0.11583604797E+02  0.47787249188E+02  0.19999900345E+02 0.  0.
         12    1    1    2    0    0 -0.23177372667E+01 -0.41762104412E+02 -0.11583604797E+02  0.43400750812E+02  0.00000000000E+00 0. -1.
         11    1    3    3    0    0 -0.59176114011E+01  0.33358351568E+02  0.84348103454E+01  0.34913375228E+02  0.51100000000E-03 0.  1.
        -11    1    3    3    0    0  0.18276320098E-01  0.18268261054E+00 -0.62631851876E+00  0.65267304842E+00  0.51100000000E-03 0. -1.
        -12    1    3    3    0    0  0.82170723477E+01  0.82210702341E+01  0.37751129703E+01  0.12221200911E+02  0.00000000000E+00 0.  1.
</event>
<event>
 7    1  0.2414091E-009  0.4778727E+02  0.7816164E-02  0.1312668E+00
        -11   -1    0    0    0    0  0.00000000000E+00  0.00000000000E+00  0.45593999997E+02  0.45594000000E+02  0.51100000000E-03 0. -1.
         11   -1    0    0    0    0 -0.00000000000E+00 -0.00000000000E+00 -0.45593999997E+02  0.45594000000E+02  0.51100000000E-03 0.  1.
    9900012    2    1    2    0    0 -0.24899656137E+02  0.35544395444E+02  0.47599647132E+00  0.47787268487E+02  0.19999988341E+02 0.  0.
         12    1    1    2    0    0  0.24899656137E+02 -0.35544395444E+02 -0.47599647132E+00  0.43400731513E+02  0.00000000000E+00 0. -1.
         11    1    3    3    0    0 -0.13934880747E+02  0.19231245979E+02 -0.71529110569E+00  0.23759910879E+02  0.51100000000E-03 0. -1.
        -11    1    3    3    0    0 -0.10396710910E+02  0.80549952486E+01 -0.45908326745E+01  0.13930193506E+02  0.51100000000E-03 0.  1.
         12    1    3    3    0    0 -0.56806447909E+00  0.82581542159E+01  0.57821202515E+01  0.10097164102E+02  0.00000000000E+00 0. -1.
</event>
<event>
 7    1  0.2414091E-009  0.4778727E+02  0.7816164E-02  0.1312668E+00
        -11   -1    0    0    0    0  0.00000000000E+00  0.00000000000E+00  0.45593999997E+02  0.45594000000E+02  0.51100000000E-03 0. -1.
         11   -1    0    0    0    0 -0.00000000000E+00 -0.00000000000E+00 -0.45593999997E+02  0.45594000000E+02  0.51100000000E-03 0.  1.
    9900012    2    1    2    0    0  0.24201726075E+02 -0.31738555120E+02  0.17045938825E+02  0.47787268940E+02  0.19999990404E+02 0.  0.
         12    1    1    2    0    0 -0.24201726075E+02  0.31738555120E+02 -0.17045938825E+02  0.43400731060E+02  0.00000000000E+00 0. -1.
         11    1    3    3    0    0  0.12596237844E+02 -0.80389366848E+01  0.11762575692E+02  0.19017042304E+02  0.51100000000E-03 0. -1.
        -11    1    3    3    0    0  0.88491092784E+01 -0.72276678776E+01  0.67734054266E+00  0.11445728830E+02  0.51100000000E-03 0.  1.
        -12    1    3    3    0    0  0.27563789529E+01 -0.16471950558E+02  0.46060225905E+01  0.17324497806E+02  0.00000000000E+00 0.  1.
</event>
<event>
 7    1  0.2414091E-009  0.4778728E+02  0.7816164E-02  0.1312668E+00
        -11   -1    0    0    0    0  0.00000000000E+00  0.00000000000E+00  0.45593999997E+02  0.45594000000E+02  0.51100000000E-03 0.  1.
         11   -1    0    0    0    0 -0.00000000000E+00 -0.00000000000E+00 -0.45593999997E+02  0.45594000000E+02  0.51100000000E-03 0. -1.
    9900012    2    1    2    0    0  0.28710320889E+02  0.71090086350E+01  0.31761648753E+02  0.47787275802E+02  0.20000021694E+02 0.  0.
         12    1    1    2    0    0 -0.28710320889E+02 -0.71090086350E+01 -0.31761648753E+02  0.43400724198E+02  0.00000000000E+00 0. -1.
         11    1    3    3    0    0  0.51540382318E+00  0.29108992314E-01 -0.16459823390E+01  0.17250352332E+01  0.51100000000E-03 0. -1.
        -11    1    3    3    0    0  0.13134437252E+02  0.81026844811E+01  0.10639982042E+02  0.18745030164E+02  0.51100000000E-03 0.  1.
         12    1    3    3    0    0  0.15060479814E+02 -0.10227848384E+01  0.22767649050E+02  0.27317210405E+02  0.00000000000E+00 0. -1.
</event>
<event>
 7    1  0.2414091E-009  0.4778727E+02  0.7816164E-02  0.1312668E+00
        -11   -1    0    0    0    0  0.00000000000E+00  0.00000000000E+00  0.45593999997E+02  0.45594000000E+02  0.51100000000E-03 0.  1.
         11   -1    0    0    0    0 -0.00000000000E+00 -0.00000000000E+00 -0.45593999997E+02  0.45594000000E+02  0.51100000000E-03 0. -1.
    9900012    2    1    2    0    0 -0.23227270316E+01 -0.34683946148E+02  0.25985613115E+02  0.47787271086E+02  0.20000000190E+02 0.  0.
         12    1    1    2    0    0  0.23227270316E+01  0.34683946148E+02 -0.25985613115E+02  0.43400728914E+02  0.00000000000E+00 0. -1.
         11    1    3    3    0    0 -0.24778805906E+01 -0.80198769479E+01  0.11053663237E+01  0.84664132578E+01  0.51100000000E-03 0. -1.
        -11    1    3    3    0    0 -0.32972046733E+01 -0.25804043502E+02  0.18187595796E+02  0.31741280075E+02  0.51100000000E-03 0.  1.
        -12    1    3    3    0    0  0.34523582322E+01 -0.86002569832E+00  0.66926509961E+01  0.75795777534E+01  0.00000000000E+00 0.  1.
</event>
<event>
 7    1  0.2414091E-009  0.4778726E+02  0.7816164E-02  0.1312668E+00
        -11   -1    0    0    0    0  0.00000000000E+00  0.00000000000E+00  0.45593999997E+02  0.45594000000E+02  0.51100000000E-03 0.  1.
         11   -1    0    0    0    0 -0.00000000000E+00 -0.00000000000E+00 -0.45593999997E+02  0.45594000000E+02  0.51100000000E-03 0. -1.
    9900012    2    1    2    0    0  0.32696653446E+02 -0.20152540992E+02  0.20209596892E+02  0.47787264274E+02  0.19999969131E+02 0.  0.
         12    1    1    2    0    0 -0.32696653446E+02  0.20152540992E+02 -0.20209596892E+02  0.43400735726E+02  0.00000000000E+00 0. -1.
         11    1    3    3    0    0  0.13696368659E+02 -0.56110541722E+01  0.27521475995E+01  0.15054858353E+02  0.51100000000E-03 0. -1.
        -11    1    3    3    0    0  0.12637061034E+02 -0.56330947344E+01  0.22856778698E+01  0.14023244683E+02  0.51100000000E-03 0.  1.
        -12    1    3    3    0    0  0.63632237526E+01 -0.89083920858E+01  0.15171771423E+02  0.18709161237E+02  0.00000000000E+00 0.  1.
</event>
<event>
 7    1  0.2414091E-009  0.4778727E+02  0.7816164E-02  0.1312668E+00
        -11   -1    0    0    0    0  0.00000000000E+00  0.00000000000E+00  0.45593999997E+02  0.45594000000E+02  0.51100000000E-03 0.  1.
         11   -1    0    0    0    0 -0.00000000000E+00 -0.00000000000E+00 -0.45593999997E+02  0.45594000000E+02  0.51100000000E-03 0. -1.
    9900012    2    1    2    0    0 -0.49849981474E+01 -0.24265390896E+02  0.35636551030E+02  0.47787272228E+02  0.20000005396E+02 0.  0.
         12    1    1    2    0    0  0.49849981474E+01  0.24265390896E+02 -0.35636551030E+02  0.43400727772E+02  0.00000000000E+00 0. -1.
         11    1    3    3    0    0 -0.34062509749E+01  0.17012817651E+01  0.24984374076E+01  0.45540196628E+01  0.51100000000E-03 0. -1.
        -11    1    3    3    0    0 -0.10870145205E+01 -0.10320319793E+01  0.67911667517E+01  0.69546126193E+01  0.51100000000E-03 0.  1.
         12    1    3    3    0    0 -0.49173265195E+00 -0.24934640681E+02  0.26346946871E+02  0.36278639946E+02  0.00000000000E+00 0. -1.
</event>
<event>
 7    1  0.2414091E-009  0.4778728E+02  0.7816164E-02  0.1312668E+00
        -11   -1    0    0    0    0  0.00000000000E+00  0.00000000000E+00  0.45593999997E+02  0.45594000000E+02  0.51100000000E-03 0.  1.
         11   -1    0    0    0    0 -0.00000000000E+00 -0.00000000000E+00 -0.45593999997E+02  0.45594000000E+02  0.51100000000E-03 0. -1.
    9900012    2    1    2    0    0 -0.99205372184E+01  0.17445777155E+02  0.38481822221E+02  0.47787276035E+02  0.20000022755E+02 0.  0.
         12    1    1    2    0    0  0.99205372184E+01 -0.17445777155E+02 -0.38481822221E+02  0.43400723965E+02  0.00000000000E+00 0. -1.
         11    1    3    3    0    0 -0.65260983151E+01  0.76187251534E+01  0.14044558189E+02  0.17259332176E+02  0.51100000000E-03 0. -1.
        -11    1    3    3    0    0 -0.37439286214E+01  0.13784931914E+02  0.19915401185E+02  0.24508458826E+02  0.51100000000E-03 0.  1.
         12    1    3    3    0    0  0.34948971813E+00 -0.39578799121E+01  0.45218628463E+01  0.60194850331E+01  0.00000000000E+00 0. -1.
</event>
<event>
 7    1  0.2414091E-009  0.4778727E+02  0.7816164E-02  0.1312668E+00
        -11   -1    0    0    0    0  0.00000000000E+00  0.00000000000E+00  0.45593999997E+02  0.45594000000E+02  0.51100000000E-03 0.  1.
         11   -1    0    0    0    0 -0.00000000000E+00 -0.00000000000E+00 -0.45593999997E+02  0.45594000000E+02  0.51100000000E-03 0. -1.
    9900012    2    1    2    0    0  0.76533457297E+01 -0.37783433037E+02  0.19936435415E+02  0.47787274545E+02  0.20000015962E+02 0.  0.
         12    1    1    2    0    0 -0.76533457297E+01  0.37783433037E+02 -0.19936435415E+02  0.43400725455E+02  0.00000000000E+00 0. -1.
         11    1    3    3    0    0  0.24487950700E+01 -0.14896099418E+00  0.10698560837E+01  0.26764489484E+01  0.51100000000E-03 0. -1.
        -11    1    3    3    0    0  0.70164935653E+01 -0.11069905214E+02  0.12095344975E+01  0.13161951123E+02  0.51100000000E-03 0.  1.
        -12    1    3    3    0    0 -0.18119429056E+01 -0.26564566829E+02  0.17657044834E+02  0.31948874474E+02  0.00000000000E+00 0.  1.
</event>
<event>
 7    1  0.2414091E-009  0.4778727E+02  0.7816164E-02  0.1312668E+00
        -11   -1    0    0    0    0  0.00000000000E+00  0.00000000000E+00  0.45593999997E+02  0.45594000000E+02  0.51100000000E-03 0.  1.
         11   -1    0    0    0    0 -0.00000000000E+00 -0.00000000000E+00 -0.45593999997E+02  0.45594000000E+02  0.51100000000E-03 0. -1.
    9900012    2    1    2    0    0 -0.33801731011E+02  0.85321242825E+00  0.27209152103E+02  0.47787274788E+02  0.20000017067E+02 0.  0.
         12    1    1    2    0    0  0.33801731011E+02 -0.85321242825E+00 -0.27209152103E+02  0.43400725212E+02  0.00000000000E+00 0. -1.
         11    1    3    3    0    0  0.11273103820E+00  0.22921374781E+01  0.34985831124E+01  0.41840992532E+01  0.51100000000E-03 0. -1.
        -11    1    3    3    0    0 -0.64135171515E+01  0.22721047930E+00 -0.11189067859E+01  0.65143518106E+01  0.51100000000E-03 0.  1.
        -12    1    3    3    0    0 -0.27500944898E+02 -0.16661355291E+01  0.24829475777E+02  0.37088823724E+02  0.00000000000E+00 0.  1.
</event>
<event>
 7    1  0.2414091E-009  0.4778728E+02  0.7816164E-02  0.1312668E+00
        -11   -1    0    0    0    0  0.00000000000E+00  0.00000000000E+00  0.45593999997E+02  0.45594000000E+02  0.51100000000E-03 0.  1.
         11   -1    0    0    0    0 -0.00000000000E+00 -0.00000000000E+00 -0.45593999997E+02  0.45594000000E+02  0.51100000000E-03 0. -1.
    9900012    2    1    2    0    0 -0.36663851367E+02 -0.30163926869E+01  0.23027946070E+02  0.47787275097E+02  0.20000018477E+02 0.  0.
         12    1    1    2    0    0  0.36663851367E+02  0.30163926869E+01 -0.23027946070E+02  0.43400724903E+02  0.00000000000E+00 0. -1.
         11    1    3    3    0    0 -0.58265678588E+01 -0.50800893210E+01  0.15829189686E+01  0.78906167848E+01  0.51100000000E-03 0. -1.
        -11    1    3    3    0    0 -0.23422842534E+02 -0.41921837003E+01  0.16886105156E+02  0.29177808419E+02  0.51100000000E-03 0.  1.
         12    1    3    3    0    0 -0.74144409747E+01  0.62558803345E+01  0.45589219454E+01  0.10718849893E+02  0.00000000000E+00 0. -1.
</event>
<event>
 7    1  0.2414091E-009  0.4778727E+02  0.7816164E-02  0.1312668E+00
        -11   -1    0    0    0    0  0.00000000000E+00  0.00000000000E+00  0.45593999997E+02  0.45594000000E+02  0.51100000000E-03 0.  1.
         11   -1    0    0    0    0 -0.00000000000E+00 -0.00000000000E+00 -0.45593999997E+02  0.45594000000E+02  0.51100000000E-03 0. -1.
    9900012    2    1    2    0    0 -0.16115981185E+02 -0.40291788847E+02  0.68568982519E+00  0.47787271106E+02  0.20000000279E+02 0.  0.
         12    1    1    2    0    0  0.16115981185E+02  0.40291788847E+02 -0.68568982519E+00  0.43400728894E+02  0.00000000000E+00 0. -1.
         11    1    3    3    0    0 -0.77236406031E+01 -0.11855540284E+02  0.56033512994E+01  0.15218607218E+02  0.51100000000E-03 0. -1.
        -11    1    3    3    0    0  0.29494233554E+01 -0.52773780214E+01  0.95712966028E+00  0.61209406432E+01  0.51100000000E-03 0.  1.
         12    1    3    3    0    0 -0.11341763937E+02 -0.23158870541E+02 -0.58747911345E+01  0.26447723245E+02  0.00000000000E+00 0. -1.
</event>
<event>
 7    1  0.2414091E-009  0.4778727E+02  0.7816164E-02  0.1312668E+00
        -11   -1    0    0    0    0  0.00000000000E+00  0.00000000000E+00  0.45593999997E+02  0.45594000000E+02  0.51100000000E-03 0.  1.
         11   -1    0    0    0    0 -0.00000000000E+00 -0.00000000000E+00 -0.45593999997E+02  0.45594000000E+02  0.51100000000E-03 0. -1.
    9900012    2    1    2    0    0  0.31244264022E+02  0.26024852400E+02  0.15169909482E+02  0.47787272698E+02  0.20000007538E+02 0.  0.
         12    1    1    2    0    0 -0.31244264022E+02 -0.26024852400E+02 -0.15169909482E+02  0.43400727302E+02  0.00000000000E+00 0. -1.
         11    1    3    3    0    0  0.74500144664E+01  0.44772860842E+01  0.94433757803E+01  0.12834568657E+02  0.51100000000E-03 0. -1.
        -11    1    3    3    0    0  0.24028118971E+02  0.16012852775E+02  0.40027708599E+01  0.29151057101E+02  0.51100000000E-03 0.  1.
         12    1    3    3    0    0 -0.23386941560E+00  0.55347135405E+01  0.17237628415E+01  0.58016469397E+01  0.00000000000E+00 0. -1.
</event>
<event>
 7    1  0.2414091E-009  0.4778727E+02  0.7816164E-02  0.1312668E+00
        -11   -1    0    0    0    0  0.00000000000E+00  0.00000000000E+00  0.45593999997E+02  0.45594000000E+02  0.51100000000E-03 0. -1.
         11   -1    0    0    0    0 -0.00000000000E+00 -0.00000000000E+00 -0.45593999997E+02  0.45594000000E+02  0.51100000000E-03 0.  1.
    9900012    2    1    2    0    0 -0.25853534357E+01 -0.11575688462E+02 -0.41748565619E+02  0.47787270202E+02  0.19999996159E+02 0.  0.
         12    1    1    2    0    0  0.25853534357E+01  0.11575688462E+02  0.41748565619E+02  0.43400729798E+02  0.00000000000E+00 0. -1.
         11    1    3    3    0    0  0.51523812268E+00  0.45732483746E+01 -0.94186883059E+01  0.10482927105E+02  0.51100000000E-03 0. -1.
        -11    1    3    3    0    0 -0.22168960522E+01 -0.60441880317E+01 -0.21599710001E+02  0.22538729100E+02  0.51100000000E-03 0.  1.
        -12    1    3    3    0    0 -0.88369550619E+00 -0.10104748805E+02 -0.10730167312E+02  0.14765613997E+02  0.00000000000E+00 0.  1.
</event>
<event>
 7    1  0.2414091E-009  0.4778727E+02  0.7816164E-02  0.1312668E+00
        -11   -1    0    0    0    0  0.00000000000E+00  0.00000000000E+00  0.45593999997E+02  0.45594000000E+02  0.51100000000E-03 0. -1.
         11   -1    0    0    0    0 -0.00000000000E+00 -0.00000000000E+00 -0.45593999997E+02  0.45594000000E+02  0.51100000000E-03 0.  1.
    9900012    2    1    2    0    0 -0.12591929759E+02  0.41130343306E+02 -0.57759560352E+01  0.47787268398E+02  0.19999987932E+02 0.  0.
         12    1    1    2    0    0  0.12591929759E+02 -0.41130343306E+02  0.57759560352E+01  0.43400731602E+02  0.00000000000E+00 0. -1.
         11    1    3    3    0    0 -0.40734190314E+01  0.17685640212E+02 -0.42028441067E+01  0.18628969675E+02  0.51100000000E-03 0. -1.
        -11    1    3    3    0    0 -0.99438715881E+01  0.20449955326E+02  0.35906344285E+01  0.23021162239E+02  0.51100000000E-03 0.  1.
         12    1    3    3    0    0  0.14253608605E+01  0.29947477683E+01 -0.51637463569E+01  0.61371364835E+01  0.00000000000E+00 0. -1.
</event>
<event>
 7    1  0.2414091E-009  0.4778727E+02  0.7816164E-02  0.1312668E+00
        -11   -1    0    0    0    0  0.00000000000E+00  0.00000000000E+00  0.45593999997E+02  0.45594000000E+02  0.51100000000E-03 0.  1.
         11   -1    0    0    0    0 -0.00000000000E+00 -0.00000000000E+00 -0.45593999997E+02  0.45594000000E+02  0.51100000000E-03 0. -1.
    9900012    2    1    2    0    0 -0.25287203046E+02  0.62536788153E+01  0.34714147378E+02  0.47787272301E+02  0.20000005731E+02 0.  0.
         12    1    1    2    0    0  0.25287203046E+02 -0.62536788153E+01 -0.34714147378E+02  0.43400727699E+02  0.00000000000E+00 0. -1.
         11    1    3    3    0    0 -0.53951517693E+01 -0.19779836605E+01  0.44646016016E+01  0.72768640016E+01  0.51100000000E-03 0. -1.
        -11    1    3    3    0    0 -0.19510830982E+02  0.10860673248E+01  0.19574322132E+02  0.27658744639E+02  0.51100000000E-03 0.  1.
         12    1    3    3    0    0 -0.38122029396E+00  0.71455951509E+01  0.10675223645E+02  0.12851663660E+02  0.00000000000E+00 0. -1.
</event>
<event>
 7    1  0.2414091E-009  0.4778727E+02  0.7816164E-02  0.1312668E+00
        -11   -1    0    0    0    0  0.00000000000E+00  0.00000000000E+00  0.45593999997E+02  0.45594000000E+02  0.51100000000E-03 0.  1.
         11   -1    0    0    0    0 -0.00000000000E+00 -0.00000000000E+00 -0.45593999997E+02  0.45594000000E+02  0.51100000000E-03 0. -1.
    9900012    2    1    2    0    0  0.22226314131E+02  0.25433108332E+02  0.27253827713E+02  0.47787272307E+02  0.20000005757E+02 0.  0.
         12    1    1    2    0    0 -0.22226314131E+02 -0.25433108332E+02 -0.27253827713E+02  0.43400727693E+02  0.00000000000E+00 0. -1.
         11    1    3    3    0    0  0.14406915670E+01  0.33895195651E+01 -0.23223933999E+01  0.43540723971E+01  0.51100000000E-03 0. -1.
        -11    1    3    3    0    0  0.38171446411E+01  0.10788180277E+02  0.10840131042E+02  0.15762736697E+02  0.51100000000E-03 0.  1.
        -12    1    3    3    0    0  0.16968477923E+02  0.11255408489E+02  0.18736090071E+02  0.27670463213E+02  0.00000000000E+00 0.  1.
</event>
<event>
 7    1  0.2414091E-009  0.4778727E+02  0.7816164E-02  0.1312668E+00
        -11   -1    0    0    0    0  0.00000000000E+00  0.00000000000E+00  0.45593999997E+02  0.45594000000E+02  0.51100000000E-03 0. -1.
         11   -1    0    0    0    0 -0.00000000000E+00 -0.00000000000E+00 -0.45593999997E+02  0.45594000000E+02  0.51100000000E-03 0.  1.
    9900012    2    1    2    0    0  0.88891970073E+01  0.32127277979E+02 -0.27792872904E+02  0.47787267310E+02  0.19999982972E+02 0.  0.
         12    1    1    2    0    0 -0.88891970073E+01 -0.32127277979E+02  0.27792872904E+02  0.43400732690E+02  0.00000000000E+00 0. -1.
         11    1    3    3    0    0 -0.56742592611E+01  0.50445277173E+01 -0.42960440779E+01  0.87235585075E+01  0.51100000000E-03 0. -1.
        -11    1    3    3    0    0  0.15788787507E+01  0.77382780715E+01 -0.55020017933E+01  0.96252703659E+01  0.51100000000E-03 0.  1.
        -12    1    3    3    0    0  0.12984577518E+02  0.19344472190E+02 -0.17994827033E+02  0.29438438436E+02  0.00000000000E+00 0.  1.
</event>
<event>
 7    1  0.2414091E-009  0.4778727E+02  0.7816164E-02  0.1312668E+00
        -11   -1    0    0    0    0  0.00000000000E+00  0.00000000000E+00  0.45593999997E+02  0.45594000000E+02  0.51100000000E-03 0.  1.
         11   -1    0    0    0    0 -0.00000000000E+00 -0.00000000000E+00 -0.45593999997E+02  0.45594000000E+02  0.51100000000E-03 0. -1.
    9900012    2    1    2    0    0 -0.42417718631E+02  0.89377220105E+01 -0.21159817789E+01  0.47787272961E+02  0.20000008740E+02 0.  0.
         12    1    1    2    0    0  0.42417718631E+02 -0.89377220105E+01  0.21159817789E+01  0.43400727039E+02  0.00000000000E+00 0. -1.
         11    1    3    3    0    0 -0.71992511853E+01  0.58098689030E+01 -0.66373291072E+01  0.11385865458E+02  0.51100000000E-03 0. -1.
        -11    1    3    3    0    0 -0.52726394738E+01  0.32108761334E+01  0.72575463035E+00  0.62158806785E+01  0.51100000000E-03 0.  1.
        -12    1    3    3    0    0 -0.29945827972E+02 -0.83023025891E-01  0.37955926980E+01  0.30185526824E+02  0.00000000000E+00 0.  1.
</event>
<event>
 7    1  0.2414091E-009  0.4778727E+02  0.7816164E-02  0.1312668E+00
        -11   -1    0    0    0    0  0.00000000000E+00  0.00000000000E+00  0.45593999997E+02  0.45594000000E+02  0.51100000000E-03 0.  1.
         11   -1    0    0    0    0 -0.00000000000E+00 -0.00000000000E+00 -0.45593999997E+02  0.45594000000E+02  0.51100000000E-03 0. -1.
    9900012    2    1    2    0    0 -0.40038769574E+02  0.24248469585E+01  0.16572286095E+02  0.47787267078E+02  0.19999981917E+02 0.  0.
         12    1    1    2    0    0  0.40038769574E+02 -0.24248469585E+01 -0.16572286095E+02  0.43400732922E+02  0.00000000000E+00 0. -1.
         11    1    3    3    0    0 -0.28747596664E+01  0.28078190679E+00  0.75865717564E+00  0.29864096487E+01  0.51100000000E-03 0. -1.
        -11    1    3    3    0    0 -0.24654791248E+02 -0.61049873190E+01  0.15614816343E+02  0.29815299618E+02  0.51100000000E-03 0.  1.
        -12    1    3    3    0    0 -0.12509218660E+02  0.82490523707E+01  0.19881257659E+00  0.14985557812E+02  0.00000000000E+00 0.  1.
</event>
<event>
 7    1  0.2414091E-009  0.4778727E+02  0.7816164E-02  0.1312668E+00
        -11   -1    0    0    0    0  0.00000000000E+00  0.00000000000E+00  0.45593999997E+02  0.45594000000E+02  0.51100000000E-03 0.  1.
         11   -1    0    0    0    0 -0.00000000000E+00 -0.00000000000E+00 -0.45593999997E+02  0.45594000000E+02  0.51100000000E-03 0. -1.
    9900012    2    1    2    0    0 -0.21367333180E+02 -0.30109332333E+01  0.37656275994E+02  0.47787265353E+02  0.19999974051E+02 0.  0.
         12    1    1    2    0    0  0.21367333180E+02  0.30109332333E+01 -0.37656275994E+02  0.43400734647E+02  0.00000000000E+00 0. -1.
         11    1    3    3    0    0 -0.54135625010E-01  0.24744054592E+01  0.78223533908E+01  0.82045612847E+01  0.51100000000E-03 0. -1.
        -11    1    3    3    0    0 -0.83015033129E+01  0.14915450514E+01  0.29941231983E+01  0.89501082609E+01  0.51100000000E-03 0.  1.
        -12    1    3    3    0    0 -0.13011694242E+02 -0.69768837440E+01  0.26839799405E+02  0.30632595808E+02  0.00000000000E+00 0.  1.
</event>
<event>
 7    1  0.2414091E-009  0.4778726E+02  0.7816164E-02  0.1312668E+00
        -11   -1    0    0    0    0  0.00000000000E+00  0.00000000000E+00  0.45593999997E+02  0.45594000000E+02  0.51100000000E-03 0.  1.
         11   -1    0    0    0    0 -0.00000000000E+00 -0.00000000000E+00 -0.45593999997E+02  0.45594000000E+02  0.51100000000E-03 0. -1.
    9900012    2    1    2    0    0  0.20433524157E+02 -0.23788332620E+02  0.30003504128E+02  0.47787263390E+02  0.19999965102E+02 0.  0.
         12    1    1    2    0    0 -0.20433524157E+02  0.23788332620E+02 -0.30003504128E+02  0.43400736610E+02  0.00000000000E+00 0. -1.
         11    1    3    3    0    0 -0.67200691691E+00 -0.27495810609E+01  0.21056706762E+01  0.35278376613E+01  0.51100000000E-03 0. -1.
        -11    1    3    3    0    0  0.17057249838E+02 -0.56699691111E+01  0.11057263411E+02  0.21103587282E+02  0.51100000000E-03 0.  1.
        -12    1    3    3    0    0  0.40482812354E+01 -0.15368782448E+02  0.16840570041E+02  0.23155838447E+02  0.00000000000E+00 0.  1.
</event>
<event>
 7    1  0.2414091E-009  0.4778727E+02  0.7816164E-02  0.1312668E+00
        -11   -1    0    0    0    0  0.00000000000E+00  0.00000000000E+00  0.45593999997E+02  0.45594000000E+02  0.51100000000E-03 0.  1.
         11   -1    0    0    0    0 -0.00000000000E+00 -0.00000000000E+00 -0.45593999997E+02  0.45594000000E+02  0.51100000000E-03 0. -1.
    9900012    2    1    2    0    0  0.38153177021E+02 -0.15639579248E+01  0.20627958357E+02  0.47787267896E+02  0.19999985643E+02 0.  0.
         12    1    1    2    0    0 -0.38153177021E+02  0.15639579248E+01 -0.20627958357E+02  0.43400732104E+02  0.00000000000E+00 0. -1.
         11    1    3    3    0    0  0.11124251126E+02 -0.60326569606E+01  0.60078967603E+01  0.14008452336E+02  0.51100000000E-03 0. -1.
        -11    1    3    3    0    0  0.16925174136E+02 -0.10348800097E+01  0.26266142405E+01  0.17159009260E+02  0.51100000000E-03 0.  1.
         12    1    3    3    0    0  0.10103751760E+02  0.55035790455E+01  0.11993447357E+02  0.16619806299E+02  0.00000000000E+00 0. -1.
</event>
<event>
 7    1  0.2414091E-009  0.4778727E+02  0.7816164E-02  0.1312668E+00
        -11   -1    0    0    0    0  0.00000000000E+00  0.00000000000E+00  0.45593999997E+02  0.45594000000E+02  0.51100000000E-03 0.  1.
         11   -1    0    0    0    0 -0.00000000000E+00 -0.00000000000E+00 -0.45593999997E+02  0.45594000000E+02  0.51100000000E-03 0. -1.
    9900012    2    1    2    0    0 -0.28986209195E+02 -0.17949080128E+02  0.26856159201E+02  0.47787273186E+02  0.20000009765E+02 0.  0.
         12    1    1    2    0    0  0.28986209195E+02  0.17949080128E+02 -0.26856159201E+02  0.43400726814E+02  0.00000000000E+00 0. -1.
         11    1    3    3    0    0 -0.39167775828E+01 -0.18043246323E+01 -0.29505084704E+01  0.52251540176E+01  0.51100000000E-03 0. -1.
        -11    1    3    3    0    0 -0.91775221058E+01 -0.74084815842E+01  0.82591009531E+01  0.14398793706E+02  0.51100000000E-03 0.  1.
        -12    1    3    3    0    0 -0.15891909507E+02 -0.87362739111E+01  0.21547566718E+02  0.28163325462E+02  0.00000000000E+00 0.  1.
</event>
<event>
 7    1  0.2414091E-009  0.4778727E+02  0.7816164E-02  0.1312668E+00
        -11   -1    0    0    0    0  0.00000000000E+00  0.00000000000E+00  0.45593999997E+02  0.45594000000E+02  0.51100000000E-03 0. -1.
         11   -1    0    0    0    0 -0.00000000000E+00 -0.00000000000E+00 -0.45593999997E+02  0.45594000000E+02  0.51100000000E-03 0.  1.
    9900012    2    1    2    0    0 -0.15769771871E+02  0.40381240511E+02  0.20718702202E+01  0.47787274934E+02  0.20000017734E+02 0.  0.
         12    1    1    2    0    0  0.15769771871E+02 -0.40381240511E+02 -0.20718702202E+01  0.43400725066E+02  0.00000000000E+00 0. -1.
         11    1    3    3    0    0 -0.97862215196E+00  0.14082076822E+02  0.27525904595E+01  0.14381910285E+02  0.51100000000E-03 0. -1.
        -11    1    3    3    0    0 -0.44397186866E+01  0.15117986534E+02  0.58772806811E+01  0.16816867940E+02  0.51100000000E-03 0.  1.
        -12    1    3    3    0    0 -0.10351431032E+02  0.11181177154E+02 -0.65580009203E+01  0.16588496708E+02  0.00000000000E+00 0.  1.
</event>
<event>
 7    1  0.2414091E-009  0.4778727E+02  0.7816164E-02  0.1312668E+00
        -11   -1    0    0    0    0  0.00000000000E+00  0.00000000000E+00  0.45593999997E+02  0.45594000000E+02  0.51100000000E-03 0.  1.
         11   -1    0    0    0    0 -0.00000000000E+00 -0.00000000000E+00 -0.45593999997E+02  0.45594000000E+02  0.51100000000E-03 0. -1.
    9900012    2    1    2    0    0 -0.50883755538E+00 -0.48182597752E+01  0.43129442408E+02  0.47787270221E+02  0.19999996245E+02 0.  0.
         12    1    1    2    0    0  0.50883755538E+00  0.48182597752E+01 -0.43129442408E+02  0.43400729779E+02  0.00000000000E+00 0. -1.
         11    1    3    3    0    0  0.23975946399E+00 -0.50440561541E+01  0.18947952433E+02  0.19609306177E+02  0.51100000000E-03 0.  1.
        -11    1    3    3    0    0 -0.82492093064E+00 -0.52215299148E+01  0.21434458069E+02  0.22076704060E+02  0.51100000000E-03 0. -1.
         12    1    3    3    0    0  0.76323911278E-01  0.54473262937E+01  0.27470319061E+01  0.61012599832E+01  0.00000000000E+00 0. -1.
</event>
<event>
 7    1  0.2414091E-009  0.4778727E+02  0.7816164E-02  0.1312668E+00
        -11   -1    0    0    0    0  0.00000000000E+00  0.00000000000E+00  0.45593999997E+02  0.45594000000E+02  0.51100000000E-03 0.  1.
         11   -1    0    0    0    0 -0.00000000000E+00 -0.00000000000E+00 -0.45593999997E+02  0.45594000000E+02  0.51100000000E-03 0. -1.
    9900012    2    1    2    0    0 -0.27475851446E+00  0.21024006536E+02  0.37967604854E+02  0.47787270036E+02  0.19999995402E+02 0.  0.
         12    1    1    2    0    0  0.27475851446E+00 -0.21024006536E+02 -0.37967604854E+02  0.43400729964E+02  0.00000000000E+00 0. -1.
         11    1    3    3    0    0 -0.46565168394E+01  0.25173086790E+01  0.78991998471E+01  0.95088038442E+01  0.51100000000E-03 0. -1.
        -11    1    3    3    0    0 -0.36511491230E+01  0.37601493849E+01  0.14350236966E+02  0.15277398815E+02  0.51100000000E-03 0.  1.
         12    1    3    3    0    0  0.80329074479E+01  0.14746548472E+02  0.15718168041E+02  0.23001067377E+02  0.00000000000E+00 0. -1.
</event>
<event>
 7    1  0.2414091E-009  0.4778727E+02  0.7816164E-02  0.1312668E+00
        -11   -1    0    0    0    0  0.00000000000E+00  0.00000000000E+00  0.45593999997E+02  0.45594000000E+02  0.51100000000E-03 0.  1.
         11   -1    0    0    0    0 -0.00000000000E+00 -0.00000000000E+00 -0.45593999997E+02  0.45594000000E+02  0.51100000000E-03 0. -1.
    9900012    2    1    2    0    0  0.29610790672E+02 -0.31705634792E+02 -0.12557164785E+01  0.47787273904E+02  0.20000013038E+02 0.  0.
         12    1    1    2    0    0 -0.29610790672E+02  0.31705634792E+02  0.12557164785E+01  0.43400726096E+02  0.00000000000E+00 0. -1.
         11    1    3    3    0    0  0.41243392819E+01 -0.37597853015E+00  0.52347493651E+00  0.41743934455E+01  0.51100000000E-03 0. -1.
        -11    1    3    3    0    0  0.24608199597E+02 -0.32398878230E+02  0.79259773688E+00  0.40692493280E+02  0.51100000000E-03 0.  1.
        -12    1    3    3    0    0  0.87825179310E+00  0.10692219676E+01 -0.25717891519E+01  0.29203871781E+01  0.00000000000E+00 0.  1.
</event>
<event>
 7    1  0.2414091E-009  0.4778725E+02  0.7816164E-02  0.1312668E+00
        -11   -1    0    0    0    0  0.00000000000E+00  0.00000000000E+00  0.45593999997E+02  0.45594000000E+02  0.51100000000E-03 0. -1.
         11   -1    0    0    0    0 -0.00000000000E+00 -0.00000000000E+00 -0.45593999997E+02  0.45594000000E+02  0.51100000000E-03 0.  1.
    9900012    2    1    2    0    0 -0.22547281743E+02 -0.19062064687E+02 -0.31810101564E+02  0.47787253628E+02  0.19999920590E+02 0.  0.
         12    1    1    2    0    0  0.22547281743E+02  0.19062064687E+02  0.31810101564E+02  0.43400746372E+02  0.00000000000E+00 0. -1.
         11    1    3    3    0    0  0.26148321301E+01 -0.56470587110E+01 -0.70775520313E+01  0.94243494295E+01  0.51100000000E-03 0. -1.
        -11    1    3    3    0    0 -0.73927326696E+01 -0.76269731043E+01 -0.95731775134E+01  0.14299263723E+02  0.51100000000E-03 0.  1.
         12    1    3    3    0    0 -0.17769381204E+02 -0.57880328717E+01 -0.15159372019E+02  0.24063640475E+02  0.00000000000E+00 0. -1.
</event>
<event>
 7    1  0.2414091E-009  0.4778727E+02  0.7816164E-02  0.1312668E+00
        -11   -1    0    0    0    0  0.00000000000E+00  0.00000000000E+00  0.45593999997E+02  0.45594000000E+02  0.51100000000E-03 0. -1.
         11   -1    0    0    0    0 -0.00000000000E+00 -0.00000000000E+00 -0.45593999997E+02  0.45594000000E+02  0.51100000000E-03 0.  1.
    9900012    2    1    2    0    0  0.24159378025E+02 -0.29855750052E+02 -0.20213413680E+02  0.47787269011E+02  0.19999990730E+02 0.  0.
         12    1    1    2    0    0 -0.24159378025E+02  0.29855750052E+02  0.20213413680E+02  0.43400730989E+02  0.00000000000E+00 0. -1.
         11    1    3    3    0    0  0.46068374013E+01 -0.29377908842E+01 -0.53986506445E+01  0.76810803383E+01  0.51100000000E-03 0. -1.
        -11    1    3    3    0    0  0.99018533776E+01 -0.23868437350E+02 -0.15196356350E+02  0.29977962713E+02  0.51100000000E-03 0.  1.
        -12    1    3    3    0    0  0.96506872464E+01 -0.30495218185E+01  0.38159331435E+00  0.10128225960E+02  0.00000000000E+00 0.  1.
</event>
<event>
 7    1  0.2926204E-009  0.4778727E+02  0.7816164E-02  0.1312668E+00
        -11   -1    0    0    0    0  0.00000000000E+00  0.00000000000E+00  0.45593999997E+02  0.45594000000E+02  0.51100000000E-03 0.  1.
         11   -1    0    0    0    0 -0.00000000000E+00 -0.00000000000E+00 -0.45593999997E+02  0.45594000000E+02  0.51100000000E-03 0. -1.
    9900012    2    1    2    0    0  0.33987612538E+02  0.10577521038E+02  0.24831060602E+02  0.47787270421E+02  0.19999997158E+02 0.  0.
         12    1    1    2    0    0 -0.33987612538E+02 -0.10577521038E+02 -0.24831060602E+02  0.43400729579E+02  0.00000000000E+00 0. -1.
         11    1    3    3    0    0  0.66264462736E+01 -0.43482635741E+01  0.88602529116E+01  0.11887862223E+02  0.51100000000E-03 0. -1.
        -11    1    3    3    0    0  0.13092874789E+02  0.27415594265E+01  0.61713474606E+01  0.14731770025E+02  0.51100000000E-03 0.  1.
         12    1    3    3    0    0  0.14268291475E+02  0.12184225186E+02  0.97994602303E+01  0.21167638172E+02  0.00000000000E+00 0. -1.
</event>
<event>
 7    1  0.2414091E-009  0.4778727E+02  0.7816164E-02  0.1312668E+00
        -11   -1    0    0    0    0  0.00000000000E+00  0.00000000000E+00  0.45593999997E+02  0.45594000000E+02  0.51100000000E-03 0.  1.
         11   -1    0    0    0    0 -0.00000000000E+00 -0.00000000000E+00 -0.45593999997E+02  0.45594000000E+02  0.51100000000E-03 0. -1.
    9900012    2    1    2    0    0 -0.36845238778E+02 -0.20067696020E+02  0.11105820282E+02  0.47787270879E+02  0.19999999245E+02 0.  0.
         12    1    1    2    0    0  0.36845238778E+02  0.20067696020E+02 -0.11105820282E+02  0.43400729121E+02  0.00000000000E+00 0. -1.
         11    1    3    3    0    0 -0.29951517295E+02 -0.11008754525E+02  0.94649469630E+01  0.33284700475E+02  0.51100000000E-03 0. -1.
        -11    1    3    3    0    0 -0.83514225242E+01 -0.68938180770E+01 -0.89158527996E+00  0.10865813841E+02  0.51100000000E-03 0.  1.
        -12    1    3    3    0    0  0.14577010416E+01 -0.21651234174E+01  0.25324585987E+01  0.36367565623E+01  0.00000000000E+00 0.  1.
</event>
<event>
 7    1  0.2414091E-009  0.4778727E+02  0.7816164E-02  0.1312668E+00
        -11   -1    0    0    0    0  0.00000000000E+00  0.00000000000E+00  0.45593999997E+02  0.45594000000E+02  0.51100000000E-03 0.  1.
         11   -1    0    0    0    0 -0.00000000000E+00 -0.00000000000E+00 -0.45593999997E+02  0.45594000000E+02  0.51100000000E-03 0. -1.
    9900012    2    1    2    0    0  0.36819397623E+01 -0.16724945183E+02  0.39879100751E+02  0.47787272489E+02  0.20000006584E+02 0.  0.
         12    1    1    2    0    0 -0.36819397623E+01  0.16724945183E+02 -0.39879100751E+02  0.43400727511E+02  0.00000000000E+00 0. -1.
         11    1    3    3    0    0  0.22511908223E+01 -0.29434055474E+01  0.16316361450E+02  0.16731860254E+02  0.51100000000E-03 0.  1.
        -11    1    3    3    0    0  0.73407379672E+01 -0.35827690204E+01  0.71973222531E+01  0.10886878140E+02  0.51100000000E-03 0. -1.
        -12    1    3    3    0    0 -0.59099890273E+01 -0.10198770615E+02  0.16365417049E+02  0.20168534095E+02  0.00000000000E+00 0.  1.
</event>
<event>
 7    1  0.2414091E-009  0.4778730E+02  0.7816164E-02  0.1312668E+00
        -11   -1    0    0    0    0  0.00000000000E+00  0.00000000000E+00  0.45593999997E+02  0.45594000000E+02  0.51100000000E-03 0.  1.
         11   -1    0    0    0    0 -0.00000000000E+00 -0.00000000000E+00 -0.45593999997E+02  0.45594000000E+02  0.51100000000E-03 0. -1.
    9900012    2    1    2    0    0 -0.40271933377E+02  0.10937682569E+02  0.11923073052E+02  0.47787295064E+02  0.20000109514E+02 0.  0.
         12    1    1    2    0    0  0.40271933377E+02 -0.10937682569E+02 -0.11923073052E+02  0.43400704936E+02  0.00000000000E+00 0. -1.
         11    1    3    3    0    0 -0.19444775983E+02 -0.75993271263E+00  0.24817683706E+01  0.19617236943E+02  0.51100000000E-03 0. -1.
        -11    1    3    3    0    0 -0.18716945339E+02  0.88819294901E+01  0.31416080350E+01  0.20954293489E+02  0.51100000000E-03 0.  1.
         12    1    3    3    0    0 -0.21102120550E+01  0.28156857918E+01  0.62996966465E+01  0.72157646326E+01  0.00000000000E+00 0. -1.
</event>
<event>
 7    1  0.2414091E-009  0.4778727E+02  0.7816164E-02  0.1312668E+00
        -11   -1    0    0    0    0  0.00000000000E+00  0.00000000000E+00  0.45593999997E+02  0.45594000000E+02  0.51100000000E-03 0.  1.
         11   -1    0    0    0    0 -0.00000000000E+00 -0.00000000000E+00 -0.45593999997E+02  0.45594000000E+02  0.51100000000E-03 0. -1.
    9900012    2    1    2    0    0  0.20375851295E+02 -0.32548793098E+02  0.20224340197E+02  0.47787272073E+02  0.20000004692E+02 0.  0.
         12    1    1    2    0    0 -0.20375851295E+02  0.32548793098E+02 -0.20224340197E+02  0.43400727927E+02  0.00000000000E+00 0. -1.
         11    1    3    3    0    0  0.90465108557E+01 -0.61058472904E+01 -0.54350466395E+00  0.10927768637E+02  0.51100000000E-03 0. -1.
        -11    1    3    3    0    0  0.23907796744E+01 -0.11010250355E+01  0.51367533410E+01  0.57718557438E+01  0.51100000000E-03 0.  1.
        -12    1    3    3    0    0  0.89385607651E+01 -0.25341920772E+02  0.15631091520E+02  0.31087647693E+02  0.00000000000E+00 0.  1.
</event>
<event>
 7    1  0.2414091E-009  0.4778727E+02  0.7816164E-02  0.1312668E+00
        -11   -1    0    0    0    0  0.00000000000E+00  0.00000000000E+00  0.45593999997E+02  0.45594000000E+02  0.51100000000E-03 0.  1.
         11   -1    0    0    0    0 -0.00000000000E+00 -0.00000000000E+00 -0.45593999997E+02  0.45594000000E+02  0.51100000000E-03 0. -1.
    9900012    2    1    2    0    0 -0.16865188704E+02 -0.97565578323E+01  0.38781419178E+02  0.47787268621E+02  0.19999988951E+02 0.  0.
         12    1    1    2    0    0  0.16865188704E+02  0.97565578323E+01 -0.38781419178E+02  0.43400731379E+02  0.00000000000E+00 0. -1.
         11    1    3    3    0    0 -0.79138858979E+01 -0.24055000710E+01  0.79005241919E+01  0.11438282361E+02  0.51100000000E-03 0. -1.
        -11    1    3    3    0    0 -0.39508264405E+01 -0.11670607048E+02  0.17221783896E+02  0.21175503282E+02  0.51100000000E-03 0.  1.
         12    1    3    3    0    0 -0.50004763657E+01  0.43195492864E+01  0.13659111090E+02  0.15173482978E+02  0.00000000000E+00 0. -1.
</event>
<event>
 7    1  0.2414091E-009  0.4778727E+02  0.7816164E-02  0.1312668E+00
        -11   -1    0    0    0    0  0.00000000000E+00  0.00000000000E+00  0.45593999997E+02  0.45594000000E+02  0.51100000000E-03 0.  1.
         11   -1    0    0    0    0 -0.00000000000E+00 -0.00000000000E+00 -0.45593999997E+02  0.45594000000E+02  0.51100000000E-03 0. -1.
    9900012    2    1    2    0    0 -0.13156581178E+02 -0.34925415469E+02  0.22152715885E+02  0.47787273105E+02  0.20000009395E+02 0.  0.
         12    1    1    2    0    0  0.13156581178E+02  0.34925415469E+02 -0.22152715885E+02  0.43400726895E+02  0.00000000000E+00 0. -1.
         11    1    3    3    0    0 -0.34294277498E+01 -0.24536032736E+02  0.20741161398E+02  0.32310581138E+02  0.51100000000E-03 0. -1.
        -11    1    3    3    0    0  0.69698569798E+00 -0.12581752534E+01  0.70233714438E+00  0.16006472931E+01  0.51100000000E-03 0.  1.
        -12    1    3    3    0    0 -0.10424139126E+02 -0.91312074797E+01  0.70921734235E+00  0.13876044674E+02  0.00000000000E+00 0.  1.
</event>
<event>
 7    1  0.2414091E-009  0.4778727E+02  0.7816164E-02  0.1312668E+00
        -11   -1    0    0    0    0  0.00000000000E+00  0.00000000000E+00  0.45593999997E+02  0.45594000000E+02  0.51100000000E-03 0.  1.
         11   -1    0    0    0    0 -0.00000000000E+00 -0.00000000000E+00 -0.45593999997E+02  0.45594000000E+02  0.51100000000E-03 0. -1.
    9900012    2    1    2    0    0  0.26356649088E+02  0.14323679864E+02  0.31365309217E+02  0.47787269841E+02  0.19999994514E+02 0.  0.
         12    1    1    2    0    0 -0.26356649088E+02 -0.14323679864E+02 -0.31365309217E+02  0.43400730159E+02  0.00000000000E+00 0. -1.
         11    1    3    3    0    0  0.16701498212E+01 -0.43696988570E+00  0.76968503260E+01  0.78880826763E+01  0.51100000000E-03 0.  1.
        -11    1    3    3    0    0  0.23940102498E-01  0.29612355431E+01  0.76713521550E+01  0.82230853830E+01  0.51100000000E-03 0. -1.
         12    1    3    3    0    0  0.24662559164E+02  0.11799414207E+02  0.15997106736E+02  0.31676101782E+02  0.00000000000E+00 0. -1.
</event>
<event>
 7    1  0.2414091E-009  0.4778725E+02  0.7816164E-02  0.1312668E+00
        -11   -1    0    0    0    0  0.00000000000E+00  0.00000000000E+00  0.45593999997E+02  0.45594000000E+02  0.51100000000E-03 0.  1.
         11   -1    0    0    0    0 -0.00000000000E+00 -0.00000000000E+00 -0.45593999997E+02  0.45594000000E+02  0.51100000000E-03 0. -1.
    9900012    2    1    2    0    0  0.36078385074E+02  0.47602075652E+01  0.23649856809E+02  0.47787249169E+02  0.19999900259E+02 0.  0.
         12    1    1    2    0    0 -0.36078385074E+02 -0.47602075652E+01 -0.23649856809E+02  0.43400750831E+02  0.00000000000E+00 0. -1.
         11    1    3    3    0    0  0.20183598379E+01 -0.90979375873E+00 -0.20890106652E+00  0.22237673070E+01  0.51100000000E-03 0.  1.
        -11    1    3    3    0    0  0.29293132030E+02  0.81713028044E+01  0.12285106252E+02  0.32799109890E+02  0.51100000000E-03 0. -1.
         12    1    3    3    0    0  0.47668932063E+01 -0.25013014805E+01  0.11573651624E+02  0.12764371972E+02  0.00000000000E+00 0. -1.
</event>
<event>
 7    1  0.2414091E-009  0.4778726E+02  0.7816164E-02  0.1312668E+00
        -11   -1    0    0    0    0  0.00000000000E+00  0.00000000000E+00  0.45593999997E+02  0.45594000000E+02  0.51100000000E-03 0. -1.
         11   -1    0    0    0    0 -0.00000000000E+00 -0.00000000000E+00 -0.45593999997E+02  0.45594000000E+02  0.51100000000E-03 0.  1.
    9900012    2    1    2    0    0  0.11890322135E+02 -0.24666783459E+02 -0.33671860016E+02  0.47787261255E+02  0.19999955366E+02 0.  0.
         12    1    1    2    0    0 -0.11890322135E+02  0.24666783459E+02  0.33671860016E+02  0.43400738745E+02  0.00000000000E+00 0. -1.
         11    1    3    3    0    0  0.24010430030E+01 -0.14709671552E+02 -0.16586641795E+02  0.22299240592E+02  0.51100000000E-03 0.  1.
        -11    1    3    3    0    0  0.45162044320E+01 -0.10378806737E+02 -0.17088455009E+02  0.20497098005E+02  0.51100000000E-03 0. -1.
         12    1    3    3    0    0  0.49730747003E+01  0.42169482977E+00  0.32367887462E-02  0.49909226583E+01  0.00000000000E+00 0. -1.
</event>
<event>
 7    1  0.2414091E-009  0.4778726E+02  0.7816164E-02  0.1312668E+00
        -11   -1    0    0    0    0  0.00000000000E+00  0.00000000000E+00  0.45593999997E+02  0.45594000000E+02  0.51100000000E-03 0. -1.
         11   -1    0    0    0    0 -0.00000000000E+00 -0.00000000000E+00 -0.45593999997E+02  0.45594000000E+02  0.51100000000E-03 0.  1.
    9900012    2    1    2    0    0 -0.46548724803E-01  0.40240431238E+02 -0.16258221359E+02  0.47787259974E+02  0.19999949528E+02 0.  0.
         12    1    1    2    0    0  0.46548724803E-01 -0.40240431238E+02  0.16258221359E+02  0.43400740026E+02  0.00000000000E+00 0. -1.
         11    1    3    3    0    0  0.17635398686E+01  0.26589809758E+02 -0.49618704127E+01  0.27106239394E+02  0.51100000000E-03 0. -1.
        -11    1    3    3    0    0  0.63702586849E+00  0.14277645122E+02 -0.75527165380E+01  0.16164791355E+02  0.51100000000E-03 0.  1.
        -12    1    3    3    0    0 -0.24471144619E+01 -0.62702364153E+00 -0.37436344083E+01  0.45162292258E+01  0.00000000000E+00 0.  1.
</event>
<event>
 7    1  0.2414091E-009  0.4778727E+02  0.7816164E-02  0.1312668E+00
        -11   -1    0    0    0    0  0.00000000000E+00  0.00000000000E+00  0.45593999997E+02  0.45594000000E+02  0.51100000000E-03 0. -1.
         11   -1    0    0    0    0 -0.00000000000E+00 -0.00000000000E+00 -0.45593999997E+02  0.45594000000E+02  0.51100000000E-03 0.  1.
    9900012    2    1    2    0    0 -0.10069280504E+02  0.45399762165E+01 -0.41971673954E+02  0.47787271798E+02  0.20000003437E+02 0.  0.
         12    1    1    2    0    0  0.10069280504E+02 -0.45399762165E+01  0.41971673954E+02  0.43400728202E+02  0.00000000000E+00 0. -1.
         11    1    3    3    0    0  0.90647497215E+00  0.45051708078E+01 -0.63925163456E+01  0.78728982194E+01  0.51100000000E-03 0. -1.
        -11    1    3    3    0    0  0.28611072436E+01  0.26319009426E+01 -0.97718049422E+01  0.10516701447E+02  0.51100000000E-03 0.  1.
         12    1    3    3    0    0 -0.13836862720E+02 -0.25970955339E+01 -0.25807352666E+02  0.29397672132E+02  0.00000000000E+00 0. -1.
</event>
<event>
 7    1  0.2414091E-009  0.4778727E+02  0.7816164E-02  0.1312668E+00
        -11   -1    0    0    0    0  0.00000000000E+00  0.00000000000E+00  0.45593999997E+02  0.45594000000E+02  0.51100000000E-03 0.  1.
         11   -1    0    0    0    0 -0.00000000000E+00 -0.00000000000E+00 -0.45593999997E+02  0.45594000000E+02  0.51100000000E-03 0. -1.
    9900012    2    1    2    0    0  0.39294155067E+02 -0.14471011791E+02 -0.11409749832E+02  0.47787271942E+02  0.20000004093E+02 0.  0.
         12    1    1    2    0    0 -0.39294155067E+02  0.14471011791E+02  0.11409749832E+02  0.43400728058E+02  0.00000000000E+00 0. -1.
         11    1    3    3    0    0  0.16910345166E+02 -0.22525171490E+01  0.33773998697E+00  0.17063050011E+02  0.51100000000E-03 0. -1.
        -11    1    3    3    0    0  0.22274587149E+02 -0.12289994947E+02 -0.75669778287E+01  0.26541672182E+02  0.51100000000E-03 0.  1.
         12    1    3    3    0    0  0.10922275242E+00  0.71500304970E-01 -0.41805119905E+01  0.41825497494E+01  0.00000000000E+00 0. -1.
</event>
<event>
 7    1  0.2414091E-009  0.4778729E+02  0.7816164E-02  0.1312668E+00
        -11   -1    0    0    0    0  0.00000000000E+00  0.00000000000E+00  0.45593999997E+02  0.45594000000E+02  0.51100000000E-03 0.  1.
         11   -1    0    0    0    0 -0.00000000000E+00 -0.00000000000E+00 -0.45593999997E+02  0.45594000000E+02  0.51100000000E-03 0. -1.
    9900012    2    1    2    0    0  0.14917488727E+02  0.39926925911E+02  0.81811474844E+01  0.47787285066E+02  0.20000063928E+02 0.  0.
         12    1    1    2    0    0 -0.14917488727E+02 -0.39926925911E+02 -0.81811474844E+01  0.43400714934E+02  0.00000000000E+00 0. -1.
         11    1    3    3    0    0 -0.38884208040E+01  0.10920128817E+02  0.26476744277E+01  0.11890298982E+02  0.51100000000E-03 0. -1.
        -11    1    3    3    0    0  0.53564079700E+01  0.15516254470E+02  0.28174941517E+01  0.16654835114E+02  0.51100000000E-03 0.  1.
        -12    1    3    3    0    0  0.13449501561E+02  0.13490542624E+02  0.27159789049E+01  0.19242150970E+02  0.00000000000E+00 0.  1.
</event>
<event>
 7    1  0.2414091E-009  0.4778727E+02  0.7816164E-02  0.1312668E+00
        -11   -1    0    0    0    0  0.00000000000E+00  0.00000000000E+00  0.45593999997E+02  0.45594000000E+02  0.51100000000E-03 0.  1.
         11   -1    0    0    0    0 -0.00000000000E+00 -0.00000000000E+00 -0.45593999997E+02  0.45594000000E+02  0.51100000000E-03 0. -1.
    9900012    2    1    2    0    0  0.43282414089E+02 -0.31539918690E+01 -0.55520038511E+00  0.47787270956E+02  0.19999999596E+02 0.  0.
         12    1    1    2    0    0 -0.43282414089E+02  0.31539918690E+01  0.55520038511E+00  0.43400729044E+02  0.00000000000E+00 0. -1.
         11    1    3    3    0    0 -0.48751964675E+00  0.15951716774E+01  0.38159173270E+00  0.17110992367E+01  0.51100000000E-03 0. -1.
        -11    1    3    3    0    0  0.55576251047E+01  0.38497496222E+01  0.11266678834E+01  0.68539878712E+01  0.51100000000E-03 0.  1.
        -12    1    3    3    0    0  0.38212308631E+02 -0.85989131686E+01 -0.20634600012E+01  0.39222183848E+02  0.00000000000E+00 0.  1.
</event>
<event>
 7    1  0.2414091E-009  0.4778727E+02  0.7816164E-02  0.1312668E+00
        -11   -1    0    0    0    0  0.00000000000E+00  0.00000000000E+00  0.45593999997E+02  0.45594000000E+02  0.51100000000E-03 0. -1.
         11   -1    0    0    0    0 -0.00000000000E+00 -0.00000000000E+00 -0.45593999997E+02  0.45594000000E+02  0.51100000000E-03 0.  1.
    9900012    2    1    2    0    0  0.27226067802E+02 -0.30801554222E+02 -0.13915057235E+02  0.47787270417E+02  0.19999997138E+02 0.  0.
         12    1    1    2    0    0 -0.27226067802E+02  0.30801554222E+02  0.13915057235E+02  0.43400729583E+02  0.00000000000E+00 0. -1.
         11    1    3    3    0    0  0.51692648051E+01 -0.13814884585E+02 -0.80857535205E+00  0.14772478772E+02  0.51100000000E-03 0. -1.
        -11    1    3    3    0    0  0.84295424208E+01 -0.28842006996E+01  0.84261314729E+00  0.89490667825E+01  0.51100000000E-03 0.  1.
        -12    1    3    3    0    0  0.13627260576E+02 -0.14102468938E+02 -0.13949095031E+02  0.24065724862E+02  0.00000000000E+00 0.  1.
</event>
<event>
 7    1  0.2414091E-009  0.4778725E+02  0.7816164E-02  0.1312668E+00
        -11   -1    0    0    0    0  0.00000000000E+00  0.00000000000E+00  0.45593999997E+02  0.45594000000E+02  0.51100000000E-03 0.  1.
         11   -1    0    0    0    0 -0.00000000000E+00 -0.00000000000E+00 -0.45593999997E+02  0.45594000000E+02  0.51100000000E-03 0. -1.
    9900012    2    1    2    0    0 -0.54182942522E+01  0.25231145892E+02  0.34894929974E+02  0.47787253768E+02  0.19999921229E+02 0.  0.
         12    1    1    2    0    0  0.54182942522E+01 -0.25231145892E+02 -0.34894929974E+02  0.43400746232E+02  0.00000000000E+00 0. -1.
         11    1    3    3    0    0 -0.25060481810E+01 -0.66194499394E+00 -0.40015172920E+00  0.26227028669E+01  0.51100000000E-03 0. -1.
        -11    1    3    3    0    0 -0.23118812709E+01  0.29930566310E+01  0.11624190355E+02  0.12223951271E+02  0.51100000000E-03 0.  1.
        -12    1    3    3    0    0 -0.60036480033E+00  0.22900034255E+02  0.23670891348E+02  0.32940599630E+02  0.00000000000E+00 0.  1.
</event>
<event>
 7    1  0.2414091E-009  0.4778727E+02  0.7816164E-02  0.1312668E+00
        -11   -1    0    0    0    0  0.00000000000E+00  0.00000000000E+00  0.45593999997E+02  0.45594000000E+02  0.51100000000E-03 0. -1.
         11   -1    0    0    0    0 -0.00000000000E+00 -0.00000000000E+00 -0.45593999997E+02  0.45594000000E+02  0.51100000000E-03 0.  1.
    9900012    2    1    2    0    0  0.39843877707E+02 -0.15309346939E+02  0.78557172562E+01  0.47787274337E+02  0.20000015013E+02 0.  0.
         12    1    1    2    0    0 -0.39843877707E+02  0.15309346939E+02 -0.78557172562E+01  0.43400725663E+02  0.00000000000E+00 0. -1.
         11    1    3    3    0    0  0.72770058907E+01 -0.71334185789E+01 -0.40835210956E+00  0.10198393357E+02  0.51100000000E-03 0. -1.
        -11    1    3    3    0    0  0.55692033162E+00 -0.39327764736E+01 -0.79804503671E+00  0.40513907722E+01  0.51100000000E-03 0.  1.
        -12    1    3    3    0    0  0.32009951485E+02 -0.42431518862E+01  0.90621144025E+01  0.33537490208E+02  0.00000000000E+00 0.  1.
</event>
<event>
 7    1  0.2414091E-009  0.4778727E+02  0.7816164E-02  0.1312668E+00
        -11   -1    0    0    0    0  0.00000000000E+00  0.00000000000E+00  0.45593999997E+02  0.45594000000E+02  0.51100000000E-03 0.  1.
         11   -1    0    0    0    0 -0.00000000000E+00 -0.00000000000E+00 -0.45593999997E+02  0.45594000000E+02  0.51100000000E-03 0. -1.
    9900012    2    1    2    0    0 -0.84723636504E+01 -0.36740654034E+02  0.21493403184E+02  0.47787274371E+02  0.20000015169E+02 0.  0.
         12    1    1    2    0    0  0.84723636504E+01  0.36740654034E+02 -0.21493403184E+02  0.43400725629E+02  0.00000000000E+00 0. -1.
         11    1    3    3    0    0 -0.76263219778E+01 -0.14808225359E+02  0.15172885634E+02  0.22531328942E+02  0.51100000000E-03 0. -1.
        -11    1    3    3    0    0 -0.52664571550E+01 -0.17143171718E+02  0.45368139734E+01  0.18498826687E+02  0.51100000000E-03 0.  1.
         12    1    3    3    0    0  0.44204154824E+01 -0.47892569581E+01  0.17837035760E+01  0.67571187421E+01  0.00000000000E+00 0. -1.
</event>
<event>
 7    1  0.2414091E-009  0.4778727E+02  0.7816164E-02  0.1312668E+00
        -11   -1    0    0    0    0  0.00000000000E+00  0.00000000000E+00  0.45593999997E+02  0.45594000000E+02  0.51100000000E-03 0.  1.
         11   -1    0    0    0    0 -0.00000000000E+00 -0.00000000000E+00 -0.45593999997E+02  0.45594000000E+02  0.51100000000E-03 0. -1.
    9900012    2    1    2    0    0 -0.86981618293E+01  0.28803012592E+02  0.31278616731E+02  0.47787269382E+02  0.19999992419E+02 0.  0.
         12    1    1    2    0    0  0.86981618293E+01 -0.28803012592E+02 -0.31278616731E+02  0.43400730618E+02  0.00000000000E+00 0. -1.
         11    1    3    3    0    0  0.25569333494E+00  0.96152208769E+00 -0.11694598962E+01  0.15354284473E+01  0.51100000000E-03 0. -1.
        -11    1    3    3    0    0 -0.88907516523E+01  0.18258935533E+02  0.11798283521E+02  0.23486883277E+02  0.51100000000E-03 0.  1.
        -12    1    3    3    0    0 -0.63103511997E-01  0.95825549710E+01  0.20649793106E+02  0.22764957658E+02  0.00000000000E+00 0.  1.
</event>
<event>
 7    1  0.2414091E-009  0.4778726E+02  0.7816164E-02  0.1312668E+00
        -11   -1    0    0    0    0  0.00000000000E+00  0.00000000000E+00  0.45593999997E+02  0.45594000000E+02  0.51100000000E-03 0. -1.
         11   -1    0    0    0    0 -0.00000000000E+00 -0.00000000000E+00 -0.45593999997E+02  0.45594000000E+02  0.51100000000E-03 0.  1.
    9900012    2    1    2    0    0 -0.12280458319E+01  0.36524368557E+02 -0.23411244774E+02  0.47787262945E+02  0.19999963072E+02 0.  0.
         12    1    1    2    0    0  0.12280458319E+01 -0.36524368557E+02  0.23411244774E+02  0.43400737055E+02  0.00000000000E+00 0. -1.
         11    1    3    3    0    0 -0.17531468957E+00  0.27375139697E+01 -0.87670151041E+01  0.91861456592E+01  0.51100000000E-03 0. -1.
        -11    1    3    3    0    0  0.93155791541E+00  0.18150573356E+02 -0.13794315554E+02  0.22816534688E+02  0.51100000000E-03 0.  1.
        -12    1    3    3    0    0 -0.19842890577E+01  0.15636281231E+02 -0.84991411640E+00  0.15784582598E+02  0.00000000000E+00 0.  1.
</event>
<event>
 7    1  0.2414091E-009  0.4778727E+02  0.7816164E-02  0.1312668E+00
        -11   -1    0    0    0    0  0.00000000000E+00  0.00000000000E+00  0.45593999997E+02  0.45594000000E+02  0.51100000000E-03 0.  1.
         11   -1    0    0    0    0 -0.00000000000E+00 -0.00000000000E+00 -0.45593999997E+02  0.45594000000E+02  0.51100000000E-03 0. -1.
    9900012    2    1    2    0    0 -0.36023588183E+02 -0.30497464835E+01  0.24012982993E+02  0.47787271764E+02  0.20000003282E+02 0.  0.
         12    1    1    2    0    0  0.36023588183E+02  0.30497464835E+01 -0.24012982993E+02  0.43400728236E+02  0.00000000000E+00 0. -1.
         11    1    3    3    0    0 -0.12820448712E+02 -0.60085814729E+01  0.46029909262E+01  0.14888065093E+02  0.51100000000E-03 0. -1.
        -11    1    3    3    0    0 -0.17214725545E+02 -0.17033266809E+01  0.76772283426E+01  0.18925853552E+02  0.51100000000E-03 0.  1.
         12    1    3    3    0    0 -0.59884139255E+01  0.46621616703E+01  0.11732763724E+02  0.13973353119E+02  0.00000000000E+00 0. -1.
</event>
<event>
 7    1  0.2414091E-009  0.4778727E+02  0.7816164E-02  0.1312668E+00
        -11   -1    0    0    0    0  0.00000000000E+00  0.00000000000E+00  0.45593999997E+02  0.45594000000E+02  0.51100000000E-03 0.  1.
         11   -1    0    0    0    0 -0.00000000000E+00 -0.00000000000E+00 -0.45593999997E+02  0.45594000000E+02  0.51100000000E-03 0. -1.
    9900012    2    1    2    0    0 -0.97374686035E+01  0.34401429010E+02  0.24603792225E+02  0.47787271843E+02  0.20000003641E+02 0.  0.
         12    1    1    2    0    0  0.97374686035E+01 -0.34401429010E+02 -0.24603792225E+02  0.43400728157E+02  0.00000000000E+00 0. -1.
         11    1    3    3    0    0 -0.62121619312E+01  0.18393382772E+02  0.15458836781E+02  0.24816992577E+02  0.51100000000E-03 0. -1.
        -11    1    3    3    0    0 -0.74539371388E+01  0.13809682345E+02  0.41222831176E+01  0.16225342021E+02  0.51100000000E-03 0.  1.
         12    1    3    3    0    0  0.39286304665E+01  0.21983638921E+01  0.50226723258E+01  0.67449372449E+01  0.00000000000E+00 0. -1.
</event>
<event>
 7    1  0.2414091E-009  0.4778728E+02  0.7816164E-02  0.1312668E+00
        -11   -1    0    0    0    0  0.00000000000E+00  0.00000000000E+00  0.45593999997E+02  0.45594000000E+02  0.51100000000E-03 0.  1.
         11   -1    0    0    0    0 -0.00000000000E+00 -0.00000000000E+00 -0.45593999997E+02  0.45594000000E+02  0.51100000000E-03 0. -1.
    9900012    2    1    2    0    0 -0.15952453463E+02  0.84893113389E+01  0.39459768040E+02  0.47787280279E+02  0.20000042103E+02 0.  0.
         12    1    1    2    0    0  0.15952453463E+02 -0.84893113389E+01 -0.39459768040E+02  0.43400719721E+02  0.00000000000E+00 0. -1.
         11    1    3    3    0    0 -0.37039631499E+01  0.92221576624E+00  0.43383476464E+01  0.57785020115E+01  0.51100000000E-03 0. -1.
        -11    1    3    3    0    0 -0.54761429871E+01  0.86491151710E+01  0.55342598727E+01  0.11637154629E+02  0.51100000000E-03 0.  1.
         12    1    3    3    0    0 -0.67723473264E+01 -0.10820195983E+01  0.29587160521E+02  0.30371623638E+02  0.00000000000E+00 0. -1.
</event>
<event>
 7    1  0.2414091E-009  0.4778727E+02  0.7816164E-02  0.1312668E+00
        -11   -1    0    0    0    0  0.00000000000E+00  0.00000000000E+00  0.45593999997E+02  0.45594000000E+02  0.51100000000E-03 0. -1.
         11   -1    0    0    0    0 -0.00000000000E+00 -0.00000000000E+00 -0.45593999997E+02  0.45594000000E+02  0.51100000000E-03 0.  1.
    9900012    2    1    2    0    0 -0.14006154037E+02 -0.16258690554E+02 -0.37724082253E+02  0.47787265545E+02  0.19999974925E+02 0.  0.
         12    1    1    2    0    0  0.14006154037E+02  0.16258690554E+02  0.37724082253E+02  0.43400734455E+02  0.00000000000E+00 0. -1.
         11    1    3    3    0    0 -0.20910722011E+01 -0.23661320118E+01 -0.18063978381E+01  0.36378890937E+01  0.51100000000E-03 0. -1.
        -11    1    3    3    0    0  0.15963752209E+01 -0.11743458441E+02 -0.18981548414E+02  0.22377587234E+02  0.51100000000E-03 0.  1.
        -12    1    3    3    0    0 -0.13511457057E+02 -0.21491001013E+01 -0.16936136001E+02  0.21771789217E+02  0.00000000000E+00 0.  1.
</event>
<event>
 7    1  0.2414091E-009  0.4778727E+02  0.7816164E-02  0.1312668E+00
        -11   -1    0    0    0    0  0.00000000000E+00  0.00000000000E+00  0.45593999997E+02  0.45594000000E+02  0.51100000000E-03 0.  1.
         11   -1    0    0    0    0 -0.00000000000E+00 -0.00000000000E+00 -0.45593999997E+02  0.45594000000E+02  0.51100000000E-03 0. -1.
    9900012    2    1    2    0    0  0.38160381574E+02  0.20670283127E+02 -0.38450905265E+00  0.47787272200E+02  0.20000005268E+02 0.  0.
         12    1    1    2    0    0 -0.38160381574E+02 -0.20670283127E+02  0.38450905265E+00  0.43400727800E+02  0.00000000000E+00 0. -1.
         11    1    3    3    0    0  0.15920906803E+02 -0.30000211204E+00  0.42343191506E+01  0.16477097245E+02  0.51100000000E-03 0. -1.
        -11    1    3    3    0    0  0.11314394326E+02  0.74052046485E+01 -0.13608443261E+01  0.13590602356E+02  0.51100000000E-03 0.  1.
        -12    1    3    3    0    0  0.10925080444E+02  0.13565080590E+02 -0.32579838771E+01  0.17719572598E+02  0.00000000000E+00 0.  1.
</event>
<event>
 7    1  0.2414091E-009  0.4778727E+02  0.7816164E-02  0.1312668E+00
        -11   -1    0    0    0    0  0.00000000000E+00  0.00000000000E+00  0.45593999997E+02  0.45594000000E+02  0.51100000000E-03 0. -1.
         11   -1    0    0    0    0 -0.00000000000E+00 -0.00000000000E+00 -0.45593999997E+02  0.45594000000E+02  0.51100000000E-03 0.  1.
    9900012    2    1    2    0    0  0.27910192481E+02 -0.32275485894E+02  0.79333052477E+01  0.47787272285E+02  0.20000005657E+02 0.  0.
         12    1    1    2    0    0 -0.27910192481E+02  0.32275485894E+02 -0.79333052477E+01  0.43400727715E+02  0.00000000000E+00 0. -1.
         11    1    3    3    0    0 -0.67297688464E+00 -0.24355316105E+01  0.21922814956E+01  0.33452668848E+01  0.51100000000E-03 0. -1.
        -11    1    3    3    0    0  0.64994311377E+01 -0.16209994958E+02 -0.14165394047E+01  0.17521790028E+02  0.51100000000E-03 0.  1.
        -12    1    3    3    0    0  0.22083738228E+02 -0.13629959325E+02  0.71575631568E+01  0.26920215372E+02  0.00000000000E+00 0.  1.
</event>
<event>
 7    1  0.2414091E-009  0.4778727E+02  0.7816164E-02  0.1312668E+00
        -11   -1    0    0    0    0  0.00000000000E+00  0.00000000000E+00  0.45593999997E+02  0.45594000000E+02  0.51100000000E-03 0.  1.
         11   -1    0    0    0    0 -0.00000000000E+00 -0.00000000000E+00 -0.45593999997E+02  0.45594000000E+02  0.51100000000E-03 0. -1.
    9900012    2    1    2    0    0 -0.10654677701E+02  0.16595631821E+02  0.38661170372E+02  0.47787271354E+02  0.20000001413E+02 0.  0.
         12    1    1    2    0    0  0.10654677701E+02 -0.16595631821E+02 -0.38661170372E+02  0.43400728646E+02  0.00000000000E+00 0. -1.
         11    1    3    3    0    0 -0.21593727357E+01  0.33038794912E+01  0.10950603577E+02  0.11640198850E+02  0.51100000000E-03 0. -1.
        -11    1    3    3    0    0 -0.83687817191E+01  0.15767426255E+02  0.28426758550E+02  0.33566781795E+02  0.51100000000E-03 0.  1.
         12    1    3    3    0    0 -0.12652324574E+00 -0.24756739249E+01 -0.71619175512E+00  0.25802907093E+01  0.00000000000E+00 0. -1.
</event>
<event>
 7    1  0.2414091E-009  0.4778727E+02  0.7816164E-02  0.1312668E+00
        -11   -1    0    0    0    0  0.00000000000E+00  0.00000000000E+00  0.45593999997E+02  0.45594000000E+02  0.51100000000E-03 0.  1.
         11   -1    0    0    0    0 -0.00000000000E+00 -0.00000000000E+00 -0.45593999997E+02  0.45594000000E+02  0.51100000000E-03 0. -1.
    9900012    2    1    2    0    0 -0.15082548842E+02  0.36473748481E+02  0.18050098268E+02  0.47787266649E+02  0.19999979962E+02 0.  0.
         12    1    1    2    0    0  0.15082548842E+02 -0.36473748481E+02 -0.18050098268E+02  0.43400733351E+02  0.00000000000E+00 0. -1.
         11    1    3    3    0    0 -0.58270890083E+00  0.42785688222E+01  0.10426857574E+02  0.11285612963E+02  0.51100000000E-03 0. -1.
        -11    1    3    3    0    0 -0.56098675661E+01  0.11593937491E+02  0.53587806928E+01  0.13950144495E+02  0.51100000000E-03 0.  1.
         12    1    3    3    0    0 -0.88899723754E+01  0.20601242169E+02  0.22644600017E+01  0.22551509192E+02  0.00000000000E+00 0. -1.
</event>
<event>
 7    1  0.2414091E-009  0.4778727E+02  0.7816164E-02  0.1312668E+00
        -11   -1    0    0    0    0  0.00000000000E+00  0.00000000000E+00  0.45593999997E+02  0.45594000000E+02  0.51100000000E-03 0.  1.
         11   -1    0    0    0    0 -0.00000000000E+00 -0.00000000000E+00 -0.45593999997E+02  0.45594000000E+02  0.51100000000E-03 0. -1.
    9900012    2    1    2    0    0  0.36226572125E+02  0.77202577001E+01  0.22619817546E+02  0.47787273593E+02  0.20000011620E+02 0.  0.
         12    1    1    2    0    0 -0.36226572125E+02 -0.77202577001E+01 -0.22619817546E+02  0.43400726407E+02  0.00000000000E+00 0. -1.
         11    1    3    3    0    0  0.21353329323E+02  0.56606403073E+01  0.18457511672E+02  0.28786928617E+02  0.51100000000E-03 0. -1.
        -11    1    3    3    0    0  0.40050679929E+01  0.15357230692E+00  0.65799514261E+01  0.77045386048E+01  0.51100000000E-03 0.  1.
         12    1    3    3    0    0  0.10868174809E+02  0.19060450860E+01 -0.24176455525E+01  0.11295806371E+02  0.00000000000E+00 0. -1.
</event>
<event>
 7    1  0.2414091E-009  0.4778727E+02  0.7816164E-02  0.1312668E+00
        -11   -1    0    0    0    0  0.00000000000E+00  0.00000000000E+00  0.45593999997E+02  0.45594000000E+02  0.51100000000E-03 0.  1.
         11   -1    0    0    0    0 -0.00000000000E+00 -0.00000000000E+00 -0.45593999997E+02  0.45594000000E+02  0.51100000000E-03 0. -1.
    9900012    2    1    2    0    0  0.40834988013E+02  0.14135700456E+02  0.40384650373E+01  0.47787268747E+02  0.19999989525E+02 0.  0.
         12    1    1    2    0    0 -0.40834988013E+02 -0.14135700456E+02 -0.40384650373E+01  0.43400731253E+02  0.00000000000E+00 0. -1.
         11    1    3    3    0    0 -0.14120524342E+01 -0.27963534206E+00  0.38434682267E+00  0.14899029307E+01  0.51100000000E-03 0. -1.
        -11    1    3    3    0    0  0.86404978472E+01  0.18351089862E+01  0.54312316228E+01  0.10369383069E+02  0.51100000000E-03 0.  1.
        -12    1    3    3    0    0  0.33606542601E+02  0.12580226812E+02 -0.17771134081E+01  0.35927982747E+02  0.00000000000E+00 0.  1.
</event>
<event>
 7    1  0.2414091E-009  0.4778727E+02  0.7816164E-02  0.1312668E+00
        -11   -1    0    0    0    0  0.00000000000E+00  0.00000000000E+00  0.45593999997E+02  0.45594000000E+02  0.51100000000E-03 0. -1.
         11   -1    0    0    0    0 -0.00000000000E+00 -0.00000000000E+00 -0.45593999997E+02  0.45594000000E+02  0.51100000000E-03 0.  1.
    9900012    2    1    2    0    0 -0.17872895625E+02  0.28830408219E+02 -0.27073798537E+02  0.47787269553E+02  0.19999993201E+02 0.  0.
         12    1    1    2    0    0  0.17872895625E+02 -0.28830408219E+02  0.27073798537E+02  0.43400730447E+02  0.00000000000E+00 0. -1.
         11    1    3    3    0    0 -0.14633424310E+02  0.91060232411E+01 -0.13014128408E+02  0.21596858679E+02  0.51100000000E-03 0. -1.
        -11    1    3    3    0    0 -0.57169062225E+01  0.13796636270E+02 -0.12743619016E+02  0.19632371609E+02  0.51100000000E-03 0.  1.
        -12    1    3    3    0    0  0.24774349082E+01  0.59277487082E+01 -0.13160511136E+01  0.65580392653E+01  0.00000000000E+00 0.  1.
</event>
<event>
 7    1  0.2414091E-009  0.4778727E+02  0.7816164E-02  0.1312668E+00
        -11   -1    0    0    0    0  0.00000000000E+00  0.00000000000E+00  0.45593999997E+02  0.45594000000E+02  0.51100000000E-03 0. -1.
         11   -1    0    0    0    0 -0.00000000000E+00 -0.00000000000E+00 -0.45593999997E+02  0.45594000000E+02  0.51100000000E-03 0.  1.
    9900012    2    1    2    0    0 -0.27064886984E+02 -0.31737620206E+02 -0.11993276821E+02  0.47787270366E+02  0.19999996909E+02 0.  0.
         12    1    1    2    0    0  0.27064886984E+02  0.31737620206E+02  0.11993276821E+02  0.43400729634E+02  0.00000000000E+00 0. -1.
         11    1    3    3    0    0 -0.36869553754E+01 -0.16306907271E+01  0.39238378847E+01  0.56257707201E+01  0.51100000000E-03 0.  1.
        -11    1    3    3    0    0 -0.99125231148E+00  0.38488466208E+00 -0.11159492313E+01  0.15414474679E+01  0.51100000000E-03 0. -1.
        -12    1    3    3    0    0 -0.22386679297E+02 -0.30491814141E+02 -0.14801165475E+02  0.40620052179E+02  0.00000000000E+00 0.  1.
</event>
<event>
 7    1  0.2414091E-009  0.4778727E+02  0.7816164E-02  0.1312668E+00
        -11   -1    0    0    0    0  0.00000000000E+00  0.00000000000E+00  0.45593999997E+02  0.45594000000E+02  0.51100000000E-03 0. -1.
         11   -1    0    0    0    0 -0.00000000000E+00 -0.00000000000E+00 -0.45593999997E+02  0.45594000000E+02  0.51100000000E-03 0.  1.
    9900012    2    1    2    0    0  0.27831375115E+01  0.41733024113E+02 -0.11585854986E+02  0.47787271990E+02  0.20000004313E+02 0.  0.
         12    1    1    2    0    0 -0.27831375115E+01 -0.41733024113E+02  0.11585854986E+02  0.43400728010E+02  0.00000000000E+00 0. -1.
         11    1    3    3    0    0 -0.41767975998E+01  0.27536489863E+01  0.26476246594E+00  0.50098223875E+01  0.51100000000E-03 0. -1.
        -11    1    3    3    0    0  0.66963678736E+01  0.22376819942E+02 -0.11808870756E+02  0.26172749994E+02  0.51100000000E-03 0.  1.
         12    1    3    3    0    0  0.26356723767E+00  0.16602555184E+02 -0.41746695636E-01  0.16604699609E+02  0.00000000000E+00 0. -1.
</event>
<event>
 7    1  0.2414091E-009  0.4778727E+02  0.7816164E-02  0.1312668E+00
        -11   -1    0    0    0    0  0.00000000000E+00  0.00000000000E+00  0.45593999997E+02  0.45594000000E+02  0.51100000000E-03 0.  1.
         11   -1    0    0    0    0 -0.00000000000E+00 -0.00000000000E+00 -0.45593999997E+02  0.45594000000E+02  0.51100000000E-03 0. -1.
    9900012    2    1    2    0    0 -0.17192604200E+02  0.22184113298E+02  0.33104428155E+02  0.47787266303E+02  0.19999978382E+02 0.  0.
         12    1    1    2    0    0  0.17192604200E+02 -0.22184113298E+02 -0.33104428155E+02  0.43400733697E+02  0.00000000000E+00 0. -1.
         11    1    3    3    0    0 -0.12120945561E+02  0.11076542733E+02  0.22688347722E+02  0.28006574992E+02  0.51100000000E-03 0. -1.
        -11    1    3    3    0    0 -0.29078920311E+01  0.12009699319E+02  0.11776965656E+02  0.17070021503E+02  0.51100000000E-03 0.  1.
         12    1    3    3    0    0 -0.21637666072E+01 -0.90212875335E+00 -0.13608852225E+01  0.27106698078E+01  0.00000000000E+00 0. -1.
</event>
<event>
 7    1  0.2414091E-009  0.4778727E+02  0.7816164E-02  0.1312668E+00
        -11   -1    0    0    0    0  0.00000000000E+00  0.00000000000E+00  0.45593999997E+02  0.45594000000E+02  0.51100000000E-03 0.  1.
         11   -1    0    0    0    0 -0.00000000000E+00 -0.00000000000E+00 -0.45593999997E+02  0.45594000000E+02  0.51100000000E-03 0. -1.
    9900012    2    1    2    0    0  0.14511860263E+00  0.43393986398E+02  0.75106845620E+00  0.47787271680E+02  0.20000002897E+02 0.  0.
         12    1    1    2    0    0 -0.14511860263E+00 -0.43393986398E+02 -0.75106845620E+00  0.43400728320E+02  0.00000000000E+00 0. -1.
         11    1    3    3    0    0 -0.14765838975E+01  0.12390303077E+01 -0.36353260292E+01  0.41147407828E+01  0.51100000000E-03 0. -1.
        -11    1    3    3    0    0 -0.42405715998E+01  0.18669851430E+02  0.46347090711E+00  0.19150994894E+02  0.51100000000E-03 0.  1.
         12    1    3    3    0    0  0.58622740999E+01  0.23485104660E+02  0.39229235783E+01  0.24521536003E+02  0.00000000000E+00 0. -1.
</event>
<event>
 7    1  0.2414091E-009  0.4778728E+02  0.7816164E-02  0.1312668E+00
        -11   -1    0    0    0    0  0.00000000000E+00  0.00000000000E+00  0.45593999997E+02  0.45594000000E+02  0.51100000000E-03 0. -1.
         11   -1    0    0    0    0 -0.00000000000E+00 -0.00000000000E+00 -0.45593999997E+02  0.45594000000E+02  0.51100000000E-03 0.  1.
    9900012    2    1    2    0    0 -0.14424432600E+02 -0.39734924255E+02  0.98333323477E+01  0.47787275508E+02  0.20000020352E+02 0.  0.
         12    1    1    2    0    0  0.14424432600E+02  0.39734924255E+02 -0.98333323477E+01  0.43400724492E+02  0.00000000000E+00 0. -1.
         11    1    3    3    0    0 -0.28134780840E+01 -0.41408257537E+01  0.74459046856E+01  0.89723794893E+01  0.51100000000E-03 0. -1.
        -11    1    3    3    0    0 -0.38052484482E+01 -0.29990710125E+01  0.21418895171E+01  0.52973610086E+01  0.51100000000E-03 0.  1.
        -12    1    3    3    0    0 -0.78057060681E+01 -0.32595027488E+02  0.24553814496E+00  0.33517535010E+02  0.00000000000E+00 0.  1.
</event>
<event>
 7    1  0.2414091E-009  0.4778727E+02  0.7816164E-02  0.1312668E+00
        -11   -1    0    0    0    0  0.00000000000E+00  0.00000000000E+00  0.45593999997E+02  0.45594000000E+02  0.51100000000E-03 0.  1.
         11   -1    0    0    0    0 -0.00000000000E+00 -0.00000000000E+00 -0.45593999997E+02  0.45594000000E+02  0.51100000000E-03 0. -1.
    9900012    2    1    2    0    0 -0.23603988152E+02  0.18874074229E+02  0.31148742763E+02  0.47787272928E+02  0.20000008588E+02 0.  0.
         12    1    1    2    0    0  0.23603988152E+02 -0.18874074229E+02 -0.31148742763E+02  0.43400727072E+02  0.00000000000E+00 0. -1.
         11    1    3    3    0    0 -0.55832336057E+01  0.12876457276E+02  0.10101465249E+02  0.17292057423E+02  0.51100000000E-03 0. -1.
        -11    1    3    3    0    0 -0.68624303271E+01  0.81987518525E+01  0.99763366155E+01  0.14623261417E+02  0.51100000000E-03 0.  1.
        -12    1    3    3    0    0 -0.11158324219E+02 -0.22011348992E+01  0.11070940898E+02  0.15871954089E+02  0.00000000000E+00 0.  1.
</event>
<event>
 7    1  0.2414091E-009  0.4778727E+02  0.7816164E-02  0.1312668E+00
        -11   -1    0    0    0    0  0.00000000000E+00  0.00000000000E+00  0.45593999997E+02  0.45594000000E+02  0.51100000000E-03 0. -1.
         11   -1    0    0    0    0 -0.00000000000E+00 -0.00000000000E+00 -0.45593999997E+02  0.45594000000E+02  0.51100000000E-03 0.  1.
    9900012    2    1    2    0    0  0.38784038064E+02  0.80311936028E+01  0.17746042218E+02  0.47787266209E+02  0.19999977952E+02 0.  0.
         12    1    1    2    0    0 -0.38784038064E+02 -0.80311936028E+01 -0.17746042218E+02  0.43400733791E+02  0.00000000000E+00 0. -1.
         11    1    3    3    0    0  0.13232756870E+02  0.45993986819E+00  0.54285942224E+01  0.14310382055E+02  0.51100000000E-03 0. -1.
        -11    1    3    3    0    0  0.16347005722E+02 -0.29186358950E+01  0.35035525249E+01  0.16971090481E+02  0.51100000000E-03 0.  1.
         12    1    3    3    0    0  0.92042754721E+01  0.10489889630E+02  0.88138954707E+01  0.16505793673E+02  0.00000000000E+00 0. -1.
</event>
<event>
 7    1  0.2414091E-009  0.4778726E+02  0.7816164E-02  0.1312668E+00
        -11   -1    0    0    0    0  0.00000000000E+00  0.00000000000E+00  0.45593999997E+02  0.45594000000E+02  0.51100000000E-03 0.  1.
         11   -1    0    0    0    0 -0.00000000000E+00 -0.00000000000E+00 -0.45593999997E+02  0.45594000000E+02  0.51100000000E-03 0. -1.
    9900012    2    1    2    0    0  0.66019001920E+01  0.40753528634E+02  0.13386155244E+02  0.47787258826E+02  0.19999944290E+02 0.  0.
         12    1    1    2    0    0 -0.66019001920E+01 -0.40753528634E+02 -0.13386155244E+02  0.43400741174E+02  0.00000000000E+00 0. -1.
         11    1    3    3    0    0  0.16735415661E+01  0.14690514436E+01  0.18409346095E+01  0.28892722293E+01  0.51100000000E-03 0. -1.
        -11    1    3    3    0    0  0.14797254023E+01  0.22647879601E+02 -0.25274898142E+01  0.22836467386E+02  0.51100000000E-03 0.  1.
        -12    1    3    3    0    0  0.34486332235E+01  0.16636597590E+02  0.14072710449E+02  0.22061519210E+02  0.00000000000E+00 0.  1.
</event>
<event>
 7    1  0.2414091E-009  0.4778728E+02  0.7816164E-02  0.1312668E+00
        -11   -1    0    0    0    0  0.00000000000E+00  0.00000000000E+00  0.45593999997E+02  0.45594000000E+02  0.51100000000E-03 0.  1.
         11   -1    0    0    0    0 -0.00000000000E+00 -0.00000000000E+00 -0.45593999997E+02  0.45594000000E+02  0.51100000000E-03 0. -1.
    9900012    2    1    2    0    0  0.28645684170E+02  0.15129837292E+02  0.28881403958E+02  0.47787277741E+02  0.20000030532E+02 0.  0.
         12    1    1    2    0    0 -0.28645684170E+02 -0.15129837292E+02 -0.28881403958E+02  0.43400722259E+02  0.00000000000E+00 0. -1.
         11    1    3    3    0    0  0.58977528194E+01  0.61495708915E+01  0.17307988205E+02  0.19291634624E+02  0.51100000000E-03 0.  1.
        -11    1    3    3    0    0 -0.65148179975E+00 -0.71430953325E-01  0.11577332995E+01  0.13303674569E+01  0.51100000000E-03 0. -1.
        -12    1    3    3    0    0  0.23399413150E+02  0.90516973536E+01  0.10415682453E+02  0.27165275661E+02  0.00000000000E+00 0.  1.
</event>
<event>
 7    1  0.2414091E-009  0.4778728E+02  0.7816164E-02  0.1312668E+00
        -11   -1    0    0    0    0  0.00000000000E+00  0.00000000000E+00  0.45593999997E+02  0.45594000000E+02  0.51100000000E-03 0. -1.
         11   -1    0    0    0    0 -0.00000000000E+00 -0.00000000000E+00 -0.45593999997E+02  0.45594000000E+02  0.51100000000E-03 0.  1.
    9900012    2    1    2    0    0  0.23789538516E+02 -0.28369026747E+02 -0.22646828867E+02  0.47787277897E+02  0.20000031244E+02 0.  0.
         12    1    1    2    0    0 -0.23789538516E+02  0.28369026747E+02  0.22646828867E+02  0.43400722103E+02  0.00000000000E+00 0. -1.
         11    1    3    3    0    0  0.12254795922E+01 -0.47811531602E+01 -0.93300212940E+01  0.10555118350E+02  0.51100000000E-03 0. -1.
        -11    1    3    3    0    0  0.11855446467E+02 -0.16435337780E+02 -0.13505705474E+02  0.24353152147E+02  0.51100000000E-03 0.  1.
         12    1    3    3    0    0  0.10708612456E+02 -0.71525358066E+01  0.18889790112E+00  0.12879007400E+02  0.00000000000E+00 0. -1.
</event>
<event>
 7    1  0.2414091E-009  0.4778730E+02  0.7816164E-02  0.1312668E+00
        -11   -1    0    0    0    0  0.00000000000E+00  0.00000000000E+00  0.45593999997E+02  0.45594000000E+02  0.51100000000E-03 0. -1.
         11   -1    0    0    0    0 -0.00000000000E+00 -0.00000000000E+00 -0.45593999997E+02  0.45594000000E+02  0.51100000000E-03 0.  1.
    9900012    2    1    2    0    0 -0.39894633286E+02  0.17019464836E+02 -0.15417225660E+01  0.47787298891E+02  0.20000126962E+02 0.  0.
         12    1    1    2    0    0  0.39894633286E+02 -0.17019464836E+02  0.15417225660E+01  0.43400701109E+02  0.00000000000E+00 0. -1.
         11    1    3    3    0    0 -0.26949843345E+01  0.15893791112E+01  0.25869191379E+01  0.40597065669E+01  0.51100000000E-03 0. -1.
        -11    1    3    3    0    0 -0.34617494137E+02  0.82111075575E+01 -0.53038568327E+01  0.35971156295E+02  0.51100000000E-03 0.  1.
         12    1    3    3    0    0 -0.25821548144E+01  0.72189781676E+01  0.11752151289E+01  0.77564360288E+01  0.00000000000E+00 0. -1.
</event>
<event>
 7    1  0.2414091E-009  0.4778727E+02  0.7816164E-02  0.1312668E+00
        -11   -1    0    0    0    0  0.00000000000E+00  0.00000000000E+00  0.45593999997E+02  0.45594000000E+02  0.51100000000E-03 0. -1.
         11   -1    0    0    0    0 -0.00000000000E+00 -0.00000000000E+00 -0.45593999997E+02  0.45594000000E+02  0.51100000000E-03 0.  1.
    9900012    2    1    2    0    0 -0.16325752572E+02  0.43158708454E+01 -0.39980824512E+02  0.47787271125E+02  0.20000000369E+02 0.  0.
         12    1    1    2    0    0  0.16325752572E+02 -0.43158708454E+01  0.39980824512E+02  0.43400728875E+02  0.00000000000E+00 0. -1.
         11    1    3    3    0    0 -0.73903976590E+01  0.24108618830E+01 -0.54616017108E+01  0.95004908339E+01  0.51100000000E-03 0. -1.
        -11    1    3    3    0    0 -0.82645508591E+01 -0.48965669147E+01 -0.17847267142E+02  0.20268303165E+02  0.51100000000E-03 0.  1.
        -12    1    3    3    0    0 -0.67080405416E+00  0.68015758772E+01 -0.16671955659E+02  0.18018477127E+02  0.00000000000E+00 0.  1.
</event>
<event>
 7    1  0.2414091E-009  0.4778727E+02  0.7816164E-02  0.1312668E+00
        -11   -1    0    0    0    0  0.00000000000E+00  0.00000000000E+00  0.45593999997E+02  0.45594000000E+02  0.51100000000E-03 0.  1.
         11   -1    0    0    0    0 -0.00000000000E+00 -0.00000000000E+00 -0.45593999997E+02  0.45594000000E+02  0.51100000000E-03 0. -1.
    9900012    2    1    2    0    0 -0.20905866919E+02  0.82324235625E+01  0.37132132688E+02  0.47787270199E+02  0.19999996145E+02 0.  0.
         12    1    1    2    0    0  0.20905866919E+02 -0.82324235625E+01 -0.37132132688E+02  0.43400729801E+02  0.00000000000E+00 0. -1.
         11    1    3    3    0    0 -0.21936051754E+01  0.77167601649E+00  0.15210791785E+02  0.15387513592E+02  0.51100000000E-03 0. -1.
        -11    1    3    3    0    0 -0.56161269161E+00 -0.91834699718E+00  0.79202810983E+01  0.79930984581E+01  0.51100000000E-03 0.  1.
         12    1    3    3    0    0 -0.18150649052E+02  0.83790945432E+01  0.14001059804E+02  0.24406658149E+02  0.00000000000E+00 0. -1.
</event>
<event>
 7    1  0.2414091E-009  0.4778727E+02  0.7816164E-02  0.1312668E+00
        -11   -1    0    0    0    0  0.00000000000E+00  0.00000000000E+00  0.45593999997E+02  0.45594000000E+02  0.51100000000E-03 0.  1.
         11   -1    0    0    0    0 -0.00000000000E+00 -0.00000000000E+00 -0.45593999997E+02  0.45594000000E+02  0.51100000000E-03 0. -1.
    9900012    2    1    2    0    0 -0.13588877106E+02  0.24941161921E+01  0.41142981325E+02  0.47787272945E+02  0.20000008667E+02 0.  0.
         12    1    1    2    0    0  0.13588877106E+02 -0.24941161921E+01 -0.41142981325E+02  0.43400727055E+02  0.00000000000E+00 0. -1.
         11    1    3    3    0    0 -0.35072106676E+01 -0.42893828110E+01  0.33804216040E+01  0.64904993682E+01  0.51100000000E-03 0. -1.
        -11    1    3    3    0    0 -0.89967149840E+01  0.67379070385E+00  0.30175280562E+02  0.31495117585E+02  0.51100000000E-03 0.  1.
        -12    1    3    3    0    0 -0.10849514542E+01  0.61097082993E+01  0.75872791590E+01  0.98016559925E+01  0.00000000000E+00 0.  1.
</event>
<event>
 7    1  0.2414091E-009  0.4778727E+02  0.7816164E-02  0.1312668E+00
        -11   -1    0    0    0    0  0.00000000000E+00  0.00000000000E+00  0.45593999997E+02  0.45594000000E+02  0.51100000000E-03 0. -1.
         11   -1    0    0    0    0 -0.00000000000E+00 -0.00000000000E+00 -0.45593999997E+02  0.45594000000E+02  0.51100000000E-03 0.  1.
    9900012    2    1    2    0    0  0.62514135442E+01  0.42925752102E+02  0.13866418040E+01  0.47787272583E+02  0.20000007014E+02 0.  0.
         12    1    1    2    0    0 -0.62514135442E+01 -0.42925752102E+02 -0.13866418040E+01  0.43400727417E+02  0.00000000000E+00 0. -1.
         11    1    3    3    0    0  0.11044981127E+02  0.31940818504E+02  0.24321044998E+01  0.33883958260E+02  0.51100000000E-03 0. -1.
        -11    1    3    3    0    0 -0.65067419215E+00  0.72941955508E+01 -0.31463450475E+01  0.79704550093E+01  0.51100000000E-03 0.  1.
        -12    1    3    3    0    0 -0.41428933906E+01  0.36907380476E+01  0.21008823516E+01  0.59328593138E+01  0.00000000000E+00 0.  1.
</event>
<event>
 7    1  0.2414091E-009  0.4778727E+02  0.7816164E-02  0.1312668E+00
        -11   -1    0    0    0    0  0.00000000000E+00  0.00000000000E+00  0.45593999997E+02  0.45594000000E+02  0.51100000000E-03 0.  1.
         11   -1    0    0    0    0 -0.00000000000E+00 -0.00000000000E+00 -0.45593999997E+02  0.45594000000E+02  0.51100000000E-03 0. -1.
    9900012    2    1    2    0    0 -0.28984668292E+02  0.29937787085E+02 -0.12134295267E+02  0.47787271744E+02  0.20000003188E+02 0.  0.
         12    1    1    2    0    0  0.28984668292E+02 -0.29937787085E+02  0.12134295267E+02  0.43400728256E+02  0.00000000000E+00 0. -1.
         11    1    3    3    0    0 -0.26222849141E+02  0.24145586038E+02 -0.15492693005E+02  0.38867347208E+02  0.51100000000E-03 0. -1.
        -11    1    3    3    0    0 -0.40012994192E+01  0.47435551065E+01  0.13741534276E+01  0.63561002190E+01  0.51100000000E-03 0.  1.
        -12    1    3    3    0    0  0.12394802677E+01  0.10486459405E+01  0.19842443105E+01  0.25638243166E+01  0.00000000000E+00 0.  1.
</event>
<event>
 7    1  0.2414091E-009  0.4778727E+02  0.7816164E-02  0.1312668E+00
        -11   -1    0    0    0    0  0.00000000000E+00  0.00000000000E+00  0.45593999997E+02  0.45594000000E+02  0.51100000000E-03 0.  1.
         11   -1    0    0    0    0 -0.00000000000E+00 -0.00000000000E+00 -0.45593999997E+02  0.45594000000E+02  0.51100000000E-03 0. -1.
    9900012    2    1    2    0    0 -0.29863045225E+02 -0.23066736417E+02  0.21441723703E+02  0.47787270578E+02  0.19999997871E+02 0.  0.
         12    1    1    2    0    0  0.29863045225E+02  0.23066736417E+02 -0.21441723703E+02  0.43400729422E+02  0.00000000000E+00 0. -1.
         11    1    3    3    0    0 -0.35894348633E+01 -0.11159269671E+02  0.30093320021E+01  0.12102455189E+02  0.51100000000E-03 0. -1.
        -11    1    3    3    0    0 -0.13622394046E+02 -0.11310118922E+02  0.87946156379E+01  0.19769513754E+02  0.51100000000E-03 0.  1.
        -12    1    3    3    0    0 -0.12651216316E+02 -0.59734782315E+00  0.96377760626E+01  0.15915301635E+02  0.00000000000E+00 0.  1.
</event>
<event>
 7    1  0.2965899E-009  0.4778727E+02  0.7816164E-02  0.1312668E+00
        -11   -1    0    0    0    0  0.00000000000E+00  0.00000000000E+00  0.45593999997E+02  0.45594000000E+02  0.51100000000E-03 0. -1.
         11   -1    0    0    0    0 -0.00000000000E+00 -0.00000000000E+00 -0.45593999997E+02  0.45594000000E+02  0.51100000000E-03 0.  1.
    9900012    2    1    2    0    0  0.69847262171E+01  0.16520033156E+02 -0.39521205885E+02  0.47787267167E+02  0.19999982323E+02 0.  0.
         12    1    1    2    0    0 -0.69847262171E+01 -0.16520033156E+02  0.39521205885E+02  0.43400732833E+02  0.00000000000E+00 0. -1.
         11    1    3    3    0    0  0.36033098389E+01 -0.62050031918E+00 -0.10055676256E+01  0.37921008626E+01  0.51100000000E-03 0. -1.
        -11    1    3    3    0    0 -0.20967415630E+01  0.65694480516E+01 -0.52618058328E+01  0.86741324505E+01  0.51100000000E-03 0.  1.
        -12    1    3    3    0    0  0.54781579412E+01  0.10571085423E+02 -0.33253832427E+02  0.35321033854E+02  0.00000000000E+00 0.  1.
</event>
<event>
 7    1  0.2414091E-009  0.4778726E+02  0.7816164E-02  0.1312668E+00
        -11   -1    0    0    0    0  0.00000000000E+00  0.00000000000E+00  0.45593999997E+02  0.45594000000E+02  0.51100000000E-03 0.  1.
         11   -1    0    0    0    0 -0.00000000000E+00 -0.00000000000E+00 -0.45593999997E+02  0.45594000000E+02  0.51100000000E-03 0. -1.
    9900012    2    1    2    0    0 -0.95621940418E+01  0.22859243737E+02  0.35632056262E+02  0.47787262535E+02  0.19999961200E+02 0.  0.
         12    1    1    2    0    0  0.95621940418E+01 -0.22859243737E+02 -0.35632056262E+02  0.43400737465E+02  0.00000000000E+00 0. -1.
         11    1    3    3    0    0  0.26965394956E+01  0.11668096960E+02  0.80579847098E+01  0.14434227717E+02  0.51100000000E-03 0. -1.
        -11    1    3    3    0    0 -0.63298020965E+01  0.10940365726E+02  0.16450386521E+02  0.20745438384E+02  0.51100000000E-03 0.  1.
         12    1    3    3    0    0 -0.59289314409E+01  0.25078105014E+00  0.11123685031E+02  0.12607596434E+02  0.00000000000E+00 0. -1.
</event>
<event>
 7    1  0.2414091E-009  0.4778726E+02  0.7816164E-02  0.1312668E+00
        -11   -1    0    0    0    0  0.00000000000E+00  0.00000000000E+00  0.45593999997E+02  0.45594000000E+02  0.51100000000E-03 0. -1.
         11   -1    0    0    0    0 -0.00000000000E+00 -0.00000000000E+00 -0.45593999997E+02  0.45594000000E+02  0.51100000000E-03 0.  1.
    9900012    2    1    2    0    0  0.17094704289E+02  0.39544960732E+02 -0.52527340419E+01  0.47787262115E+02  0.19999959287E+02 0.  0.
         12    1    1    2    0    0 -0.17094704289E+02 -0.39544960732E+02  0.52527340419E+01  0.43400737885E+02  0.00000000000E+00 0. -1.
         11    1    3    3    0    0  0.37367702065E+01  0.16042315098E+02 -0.45671666347E+01  0.17093224875E+02  0.51100000000E-03 0. -1.
        -11    1    3    3    0    0 -0.22498586207E+01  0.67687444562E+01 -0.29092771615E+01  0.77033537625E+01  0.51100000000E-03 0.  1.
         12    1    3    3    0    0  0.15607792704E+02  0.16733901178E+02  0.22237097543E+01  0.22990683478E+02  0.00000000000E+00 0. -1.
</event>
<event>
 7    1  0.2414091E-009  0.4778727E+02  0.7816164E-02  0.1312668E+00
        -11   -1    0    0    0    0  0.00000000000E+00  0.00000000000E+00  0.45593999997E+02  0.45594000000E+02  0.51100000000E-03 0. -1.
         11   -1    0    0    0    0 -0.00000000000E+00 -0.00000000000E+00 -0.45593999997E+02  0.45594000000E+02  0.51100000000E-03 0.  1.
    9900012    2    1    2    0    0 -0.43857842357E+01  0.20574674289E+02 -0.37961443100E+02  0.47787268581E+02  0.19999988767E+02 0.  0.
         12    1    1    2    0    0  0.43857842357E+01 -0.20574674289E+02  0.37961443100E+02  0.43400731419E+02  0.00000000000E+00 0. -1.
         11    1    3    3    0    0  0.28307105908E+01 -0.27978995124E+00 -0.76696248840E+01  0.81801192527E+01  0.51100000000E-03 0. -1.
        -11    1    3    3    0    0  0.14567574501E+01  0.10304417615E+01  0.60726580828E+00  0.18848672408E+01  0.51100000000E-03 0.  1.
        -12    1    3    3    0    0 -0.86732522766E+01  0.19824022479E+02 -0.30899084025E+02  0.37722282087E+02  0.00000000000E+00 0.  1.
</event>
<event>
 7    1  0.2414091E-009  0.4778726E+02  0.7816164E-02  0.1312668E+00
        -11   -1    0    0    0    0  0.00000000000E+00  0.00000000000E+00  0.45593999997E+02  0.45594000000E+02  0.51100000000E-03 0.  1.
         11   -1    0    0    0    0 -0.00000000000E+00 -0.00000000000E+00 -0.45593999997E+02  0.45594000000E+02  0.51100000000E-03 0. -1.
    9900012    2    1    2    0    0  0.88274098417E+01  0.16171469470E+02  0.39296111417E+02  0.47787263119E+02  0.19999963864E+02 0.  0.
         12    1    1    2    0    0 -0.88274098417E+01 -0.16171469470E+02 -0.39296111417E+02  0.43400736881E+02  0.00000000000E+00 0. -1.
         11    1    3    3    0    0  0.15215224078E+01  0.45029257270E+01  0.53930855607E+01  0.71886537451E+01  0.51100000000E-03 0. -1.
        -11    1    3    3    0    0  0.21595116799E+01  0.39504977309E+01  0.30322774737E+02  0.30655188648E+02  0.51100000000E-03 0.  1.
        -12    1    3    3    0    0  0.51463757540E+01  0.77180460124E+01  0.35802511189E+01  0.99434207255E+01  0.00000000000E+00 0.  1.
</event>
<event>
 7    1  0.2414091E-009  0.4778729E+02  0.7816164E-02  0.1312668E+00
        -11   -1    0    0    0    0  0.00000000000E+00  0.00000000000E+00  0.45593999997E+02  0.45594000000E+02  0.51100000000E-03 0.  1.
         11   -1    0    0    0    0 -0.00000000000E+00 -0.00000000000E+00 -0.45593999997E+02  0.45594000000E+02  0.51100000000E-03 0. -1.
    9900012    2    1    2    0    0 -0.23701469281E+02 -0.19926717047E+02  0.30410331067E+02  0.47787286481E+02  0.20000070381E+02 0.  0.
         12    1    1    2    0    0  0.23701469281E+02  0.19926717047E+02 -0.30410331067E+02  0.43400713519E+02  0.00000000000E+00 0. -1.
         11    1    3    3    0    0 -0.64291801419E+01 -0.65738286174E+01  0.62207367865E+01  0.11101673136E+02  0.51100000000E-03 0. -1.
        -11    1    3    3    0    0 -0.13868691144E+02 -0.16713939922E+02  0.15221315951E+02  0.26521403457E+02  0.51100000000E-03 0.  1.
         12    1    3    3    0    0 -0.34035979951E+01  0.33610514927E+01  0.89682783301E+01  0.10164209888E+02  0.00000000000E+00 0. -1.
</event>
<event>
 7    1  0.2414091E-009  0.4778727E+02  0.7816164E-02  0.1312668E+00
        -11   -1    0    0    0    0  0.00000000000E+00  0.00000000000E+00  0.45593999997E+02  0.45594000000E+02  0.51100000000E-03 0. -1.
         11   -1    0    0    0    0 -0.00000000000E+00 -0.00000000000E+00 -0.45593999997E+02  0.45594000000E+02  0.51100000000E-03 0.  1.
    9900012    2    1    2    0    0  0.31548385196E+02 -0.29744619013E+02  0.18921907231E+01  0.47787270116E+02  0.19999995768E+02 0.  0.
         12    1    1    2    0    0 -0.31548385196E+02  0.29744619013E+02 -0.18921907231E+01  0.43400729884E+02  0.00000000000E+00 0. -1.
         11    1    3    3    0    0  0.55934105347E+01 -0.99436580082E+01  0.47461125815E+01  0.12356705098E+02  0.51100000000E-03 0. -1.
        -11    1    3    3    0    0  0.20757734138E+02 -0.20478807548E+02  0.57912667174E+00  0.29165055684E+02  0.51100000000E-03 0.  1.
        -12    1    3    3    0    0  0.51972405242E+01  0.67784654309E+00 -0.34330485301E+01  0.62655093338E+01  0.00000000000E+00 0.  1.
</event>
<event>
 7    1  0.2414091E-009  0.4778727E+02  0.7816164E-02  0.1312668E+00
        -11   -1    0    0    0    0  0.00000000000E+00  0.00000000000E+00  0.45593999997E+02  0.45594000000E+02  0.51100000000E-03 0.  1.
         11   -1    0    0    0    0 -0.00000000000E+00 -0.00000000000E+00 -0.45593999997E+02  0.45594000000E+02  0.51100000000E-03 0. -1.
    9900012    2    1    2    0    0  0.51447798858E+01  0.36872677470E+02  0.22306052251E+02  0.47787273383E+02  0.20000010661E+02 0.  0.
         12    1    1    2    0    0 -0.51447798858E+01 -0.36872677470E+02 -0.22306052251E+02  0.43400726617E+02  0.00000000000E+00 0. -1.
         11    1    3    3    0    0  0.16938717961E+01  0.86255015176E+01  0.25500105210E+01  0.91526516381E+01  0.51100000000E-03 0. -1.
        -11    1    3    3    0    0 -0.31256158409E+01  0.18661405953E+02  0.19259726515E+02  0.26999159473E+02  0.51100000000E-03 0.  1.
        -12    1    3    3    0    0  0.65765239305E+01  0.95857699993E+01  0.49631521469E+00  0.11635462272E+02  0.00000000000E+00 0.  1.
</event>
<event>
 7    1  0.2414091E-009  0.4778727E+02  0.7816164E-02  0.1312668E+00
        -11   -1    0    0    0    0  0.00000000000E+00  0.00000000000E+00  0.45593999997E+02  0.45594000000E+02  0.51100000000E-03 0.  1.
         11   -1    0    0    0    0 -0.00000000000E+00 -0.00000000000E+00 -0.45593999997E+02  0.45594000000E+02  0.51100000000E-03 0. -1.
    9900012    2    1    2    0    0 -0.21542577509E+02 -0.36178693411E+02 -0.10518677468E+02  0.47787273297E+02  0.20000010272E+02 0.  0.
         12    1    1    2    0    0  0.21542577509E+02  0.36178693411E+02  0.10518677468E+02  0.43400726703E+02  0.00000000000E+00 0. -1.
         11    1    3    3    0    0 -0.12329765187E+02 -0.16309581604E+02 -0.88023274562E+01  0.22259975979E+02  0.51100000000E-03 0. -1.
        -11    1    3    3    0    0  0.42458596192E+00 -0.20246648130E+01 -0.45989803493E+01  0.50428326720E+01  0.51100000000E-03 0.  1.
        -12    1    3    3    0    0 -0.96373982840E+01 -0.17844446993E+02  0.28826303371E+01  0.20484464646E+02  0.00000000000E+00 0.  1.
</event>
<event>
 7    1  0.2414091E-009  0.4778726E+02  0.7816164E-02  0.1312668E+00
        -11   -1    0    0    0    0  0.00000000000E+00  0.00000000000E+00  0.45593999997E+02  0.45594000000E+02  0.51100000000E-03 0. -1.
         11   -1    0    0    0    0 -0.00000000000E+00 -0.00000000000E+00 -0.45593999997E+02  0.45594000000E+02  0.51100000000E-03 0.  1.
    9900012    2    1    2    0    0 -0.17485050841E+01 -0.43127386760E+02  0.45382642732E+01  0.47787255751E+02  0.19999930272E+02 0.  0.
         12    1    1    2    0    0  0.17485050841E+01  0.43127386760E+02 -0.45382642732E+01  0.43400744249E+02  0.00000000000E+00 0. -1.
         11    1    3    3    0    0  0.49575316840E+00 -0.22150302907E+01  0.38784126025E+01  0.44937973886E+01  0.51100000000E-03 0. -1.
        -11    1    3    3    0    0 -0.48247914035E+01 -0.74742534754E+01 -0.33732433947E+01  0.95142970504E+01  0.51100000000E-03 0.  1.
         12    1    3    3    0    0  0.25805331511E+01 -0.33438102994E+02  0.40330950654E+01  0.33779161312E+02  0.00000000000E+00 0. -1.
</event>
<event>
 7    1  0.2414091E-009  0.4778727E+02  0.7816164E-02  0.1312668E+00
        -11   -1    0    0    0    0  0.00000000000E+00  0.00000000000E+00  0.45593999997E+02  0.45594000000E+02  0.51100000000E-03 0.  1.
         11   -1    0    0    0    0 -0.00000000000E+00 -0.00000000000E+00 -0.45593999997E+02  0.45594000000E+02  0.51100000000E-03 0. -1.
    9900012    2    1    2    0    0  0.42488287049E+02  0.74767936194E+01 -0.47398724075E+01  0.47787269941E+02  0.19999994969E+02 0.  0.
         12    1    1    2    0    0 -0.42488287049E+02 -0.74767936194E+01  0.47398724075E+01  0.43400730059E+02  0.00000000000E+00 0. -1.
         11    1    3    3    0    0  0.11238634917E+02  0.89970981019E+01 -0.50931031043E+01  0.15270703603E+02  0.51100000000E-03 0. -1.
        -11    1    3    3    0    0  0.18473599537E+01 -0.24533157969E+01 -0.35084472435E+00  0.30910498992E+01  0.51100000000E-03 0.  1.
        -12    1    3    3    0    0  0.29402292179E+02  0.93301131443E+00  0.70407542113E+00  0.29425516438E+02  0.00000000000E+00 0.  1.
</event>
<event>
 7    1  0.2414091E-009  0.4778728E+02  0.7816164E-02  0.1312668E+00
        -11   -1    0    0    0    0  0.00000000000E+00  0.00000000000E+00  0.45593999997E+02  0.45594000000E+02  0.51100000000E-03 0. -1.
         11   -1    0    0    0    0 -0.00000000000E+00 -0.00000000000E+00 -0.45593999997E+02  0.45594000000E+02  0.51100000000E-03 0.  1.
    9900012    2    1    2    0    0  0.13230277830E+02 -0.23281314741E+02 -0.34154979316E+02  0.47787280194E+02  0.20000041719E+02 0.  0.
         12    1    1    2    0    0 -0.13230277830E+02  0.23281314741E+02  0.34154979316E+02  0.43400719806E+02  0.00000000000E+00 0. -1.
         11    1    3    3    0    0 -0.60918749429E+00 -0.72365264044E+01 -0.46510008145E+01  0.86238177533E+01  0.51100000000E-03 0.  1.
        -11    1    3    3    0    0 -0.14970646605E+01 -0.33021557756E+00  0.80873698522E+00  0.17332918674E+01  0.51100000000E-03 0. -1.
        -12    1    3    3    0    0  0.15336529985E+02 -0.15714572759E+02 -0.30312715487E+02  0.37430170574E+02  0.00000000000E+00 0.  1.
</event>
<event>
 7    1  0.2414091E-009  0.4778728E+02  0.7816164E-02  0.1312668E+00
        -11   -1    0    0    0    0  0.00000000000E+00  0.00000000000E+00  0.45593999997E+02  0.45594000000E+02  0.51100000000E-03 0.  1.
         11   -1    0    0    0    0 -0.00000000000E+00 -0.00000000000E+00 -0.45593999997E+02  0.45594000000E+02  0.51100000000E-03 0. -1.
    9900012    2    1    2    0    0 -0.15233602739E+02 -0.39746263192E+02  0.84731765014E+01  0.47787276387E+02  0.20000024357E+02 0.  0.
         12    1    1    2    0    0  0.15233602739E+02  0.39746263192E+02 -0.84731765014E+01  0.43400723613E+02  0.00000000000E+00 0. -1.
         11    1    3    3    0    0  0.33019354096E+00 -0.36287991959E+01 -0.10874941930E+01  0.38026116367E+01  0.51100000000E-03 0. -1.
        -11    1    3    3    0    0  0.17392054836E+01 -0.17009876125E+02  0.49216554595E+01  0.17792791075E+02  0.51100000000E-03 0.  1.
         12    1    3    3    0    0 -0.17303001763E+02 -0.19107587871E+02  0.46390152348E+01  0.26191873675E+02  0.00000000000E+00 0. -1.
</event>
<event>
 7    1  0.2414091E-009  0.4778727E+02  0.7816164E-02  0.1312668E+00
        -11   -1    0    0    0    0  0.00000000000E+00  0.00000000000E+00  0.45593999997E+02  0.45594000000E+02  0.51100000000E-03 0. -1.
         11   -1    0    0    0    0 -0.00000000000E+00 -0.00000000000E+00 -0.45593999997E+02  0.45594000000E+02  0.51100000000E-03 0.  1.
    9900012    2    1    2    0    0 -0.42249916901E+02 -0.93483228271E+01 -0.33431211365E+01  0.47787273316E+02  0.20000010355E+02 0.  0.
         12    1    1    2    0    0  0.42249916901E+02  0.93483228271E+01  0.33431211365E+01  0.43400726684E+02  0.00000000000E+00 0. -1.
         11    1    3    3    0    0 -0.14047338255E+01 -0.44478508155E+01  0.77733055480E+00  0.47287310190E+01  0.51100000000E-03 0. -1.
        -11    1    3    3    0    0 -0.21346910810E+02 -0.82580667985E+01 -0.42130560513E+01  0.23273076933E+02  0.51100000000E-03 0.  1.
         12    1    3    3    0    0 -0.19498272265E+02  0.33575947869E+01  0.92604359976E-01  0.19785465363E+02  0.00000000000E+00 0. -1.
</event>
<event>
 7    1  0.2414091E-009  0.4778727E+02  0.7816164E-02  0.1312668E+00
        -11   -1    0    0    0    0  0.00000000000E+00  0.00000000000E+00  0.45593999997E+02  0.45594000000E+02  0.51100000000E-03 0.  1.
         11   -1    0    0    0    0 -0.00000000000E+00 -0.00000000000E+00 -0.45593999997E+02  0.45594000000E+02  0.51100000000E-03 0. -1.
    9900012    2    1    2    0    0  0.35849439659E+02  0.12346223237E+02  0.21118987460E+02  0.47787272086E+02  0.20000004750E+02 0.  0.
         12    1    1    2    0    0 -0.35849439659E+02 -0.12346223237E+02 -0.21118987460E+02  0.43400727914E+02  0.00000000000E+00 0. -1.
         11    1    3    3    0    0  0.29345968706E+01  0.22736590764E+01  0.70894809008E+01  0.80026323227E+01  0.51100000000E-03 0.  1.
        -11    1    3    3    0    0  0.18873209537E+01  0.45283098744E+01  0.49839123673E+01  0.69933506595E+01  0.51100000000E-03 0. -1.
        -12    1    3    3    0    0  0.31027521835E+02  0.55442542864E+01  0.90455941919E+01  0.32791289104E+02  0.00000000000E+00 0.  1.
</event>
<event>
 7    1  0.2414091E-009  0.4778728E+02  0.7816164E-02  0.1312668E+00
        -11   -1    0    0    0    0  0.00000000000E+00  0.00000000000E+00  0.45593999997E+02  0.45594000000E+02  0.51100000000E-03 0.  1.
         11   -1    0    0    0    0 -0.00000000000E+00 -0.00000000000E+00 -0.45593999997E+02  0.45594000000E+02  0.51100000000E-03 0. -1.
    9900012    2    1    2    0    0 -0.72586110146E+01  0.41462553307E+02  0.10573173213E+02  0.47787277052E+02  0.20000027393E+02 0.  0.
         12    1    1    2    0    0  0.72586110146E+01 -0.41462553307E+02 -0.10573173213E+02  0.43400722948E+02  0.00000000000E+00 0. -1.
         11    1    3    3    0    0 -0.39859681345E+01  0.39770505036E+01  0.77622764568E+00  0.56839600893E+01  0.51100000000E-03 0. -1.
        -11    1    3    3    0    0 -0.57088363182E+00  0.21078463458E+02  0.13540154364E+02  0.25059196123E+02  0.51100000000E-03 0.  1.
        -12    1    3    3    0    0 -0.27017592482E+01  0.16407039345E+02 -0.37432087970E+01  0.17044120840E+02  0.00000000000E+00 0.  1.
</event>
<event>
 7    1  0.2414091E-009  0.4778728E+02  0.7816164E-02  0.1312668E+00
        -11   -1    0    0    0    0  0.00000000000E+00  0.00000000000E+00  0.45593999997E+02  0.45594000000E+02  0.51100000000E-03 0.  1.
         11   -1    0    0    0    0 -0.00000000000E+00 -0.00000000000E+00 -0.45593999997E+02  0.45594000000E+02  0.51100000000E-03 0. -1.
    9900012    2    1    2    0    0 -0.14721338438E+02  0.31979597651E+02  0.25381292600E+02  0.47787280129E+02  0.20000041418E+02 0.  0.
         12    1    1    2    0    0  0.14721338438E+02 -0.31979597651E+02 -0.25381292600E+02  0.43400719871E+02  0.00000000000E+00 0. -1.
         11    1    3    3    0    0 -0.58813925661E+01  0.12731419413E+02  0.66365830204E+01  0.15515284504E+02  0.51100000000E-03 0. -1.
        -11    1    3    3    0    0 -0.61983849794E+01  0.20333581334E+02  0.19968181916E+02  0.29165095500E+02  0.51100000000E-03 0.  1.
         12    1    3    3    0    0 -0.26415608920E+01 -0.10854030965E+01 -0.12234723361E+01  0.31069001248E+01  0.00000000000E+00 0. -1.
</event>
<event>
 7    1  0.2414091E-009  0.4778727E+02  0.7816164E-02  0.1312668E+00
        -11   -1    0    0    0    0  0.00000000000E+00  0.00000000000E+00  0.45593999997E+02  0.45594000000E+02  0.51100000000E-03 0.  1.
         11   -1    0    0    0    0 -0.00000000000E+00 -0.00000000000E+00 -0.45593999997E+02  0.45594000000E+02  0.51100000000E-03 0. -1.
    9900012    2    1    2    0    0 -0.24349549361E+02 -0.15103998664E+02 -0.32597422805E+02  0.47787270706E+02  0.19999998455E+02 0.  0.
         12    1    1    2    0    0  0.24349549361E+02  0.15103998664E+02  0.32597422805E+02  0.43400729294E+02  0.00000000000E+00 0. -1.
         11    1    3    3    0    0 -0.63924037412E+01 -0.59343756852E+01 -0.22133137509E+02  0.23789817498E+02  0.51100000000E-03 0. -1.
        -11    1    3    3    0    0 -0.69803271965E+01 -0.70104028940E+01 -0.75276768846E+01  0.12431276525E+02  0.51100000000E-03 0.  1.
        -12    1    3    3    0    0 -0.10976818423E+02 -0.21592200848E+01 -0.29366084120E+01  0.11566176682E+02  0.00000000000E+00 0.  1.
</event>
<event>
 7    1  0.2414091E-009  0.4778729E+02  0.7816164E-02  0.1312668E+00
        -11   -1    0    0    0    0  0.00000000000E+00  0.00000000000E+00  0.45593999997E+02  0.45594000000E+02  0.51100000000E-03 0.  1.
         11   -1    0    0    0    0 -0.00000000000E+00 -0.00000000000E+00 -0.45593999997E+02  0.45594000000E+02  0.51100000000E-03 0. -1.
    9900012    2    1    2    0    0  0.47600814685E+01  0.42536446687E+02 -0.71842687857E+01  0.47787292744E+02  0.20000098936E+02 0.  0.
         12    1    1    2    0    0 -0.47600814685E+01 -0.42536446687E+02  0.71842687857E+01  0.43400707256E+02  0.00000000000E+00 0. -1.
         11    1    3    3    0    0 -0.38053320591E+01  0.64514868338E+01 -0.46531171088E+01  0.88178077512E+01  0.51100000000E-03 0. -1.
        -11    1    3    3    0    0 -0.88890579041E+00 -0.54379932177E+00 -0.24956454793E+00  0.10715194498E+01  0.51100000000E-03 0.  1.
        -12    1    3    3    0    0  0.94543193180E+01  0.36628759175E+02 -0.22815871289E+01  0.37897965543E+02  0.00000000000E+00 0.  1.
</event>
<event>
 7    1  0.2414091E-009  0.4778726E+02  0.7816164E-02  0.1312668E+00
        -11   -1    0    0    0    0  0.00000000000E+00  0.00000000000E+00  0.45593999997E+02  0.45594000000E+02  0.51100000000E-03 0.  1.
         11   -1    0    0    0    0 -0.00000000000E+00 -0.00000000000E+00 -0.45593999997E+02  0.45594000000E+02  0.51100000000E-03 0. -1.
    9900012    2    1    2    0    0  0.18340010739E+02 -0.37808730183E+02  0.10852120979E+02  0.47787255747E+02  0.19999930254E+02 0.  0.
         12    1    1    2    0    0 -0.18340010739E+02  0.37808730183E+02 -0.10852120979E+02  0.43400744253E+02  0.00000000000E+00 0. -1.
         11    1    3    3    0    0  0.55089999679E+01  0.16008879847E+00  0.25702656522E+00  0.55173156504E+01  0.51100000000E-03 0. -1.
        -11    1    3    3    0    0  0.47003172490E+01 -0.55250425111E+01  0.36046990186E+01  0.81001810021E+01  0.51100000000E-03 0.  1.
        -12    1    3    3    0    0  0.81306935217E+01 -0.32443776470E+02  0.69903953949E+01  0.34169759095E+02  0.00000000000E+00 0.  1.
</event>
<event>
 7    1  0.2414091E-009  0.4778727E+02  0.7816164E-02  0.1312668E+00
        -11   -1    0    0    0    0  0.00000000000E+00  0.00000000000E+00  0.45593999997E+02  0.45594000000E+02  0.51100000000E-03 0. -1.
         11   -1    0    0    0    0 -0.00000000000E+00 -0.00000000000E+00 -0.45593999997E+02  0.45594000000E+02  0.51100000000E-03 0.  1.
    9900012    2    1    2    0    0 -0.48611759266E+01 -0.23146588531E+02 -0.36389940873E+02  0.47787269722E+02  0.19999993968E+02 0.  0.
         12    1    1    2    0    0  0.48611759266E+01  0.23146588531E+02  0.36389940873E+02  0.43400730278E+02  0.00000000000E+00 0. -1.
         11    1    3    3    0    0  0.43790345558E+01 -0.36346157634E+01 -0.96914028867E+01  0.11238757296E+02  0.51100000000E-03 0. -1.
        -11    1    3    3    0    0 -0.45320717213E+01 -0.47047502225E+01 -0.17050391986E+02  0.18258976310E+02  0.51100000000E-03 0.  1.
         12    1    3    3    0    0 -0.47081387611E+01 -0.14807222545E+02 -0.96481459996E+01  0.18289536115E+02  0.00000000000E+00 0. -1.
</event>
<event>
 7    1  0.2414091E-009  0.4778727E+02  0.7816164E-02  0.1312668E+00
        -11   -1    0    0    0    0  0.00000000000E+00  0.00000000000E+00  0.45593999997E+02  0.45594000000E+02  0.51100000000E-03 0. -1.
         11   -1    0    0    0    0 -0.00000000000E+00 -0.00000000000E+00 -0.45593999997E+02  0.45594000000E+02  0.51100000000E-03 0.  1.
    9900012    2    1    2    0    0  0.12224938157E+02 -0.40751918156E+02 -0.85706265152E+01  0.47787267458E+02  0.19999983647E+02 0.  0.
         12    1    1    2    0    0 -0.12224938157E+02  0.40751918156E+02  0.85706265152E+01  0.43400732542E+02  0.00000000000E+00 0. -1.
         11    1    3    3    0    0  0.18797596720E+01 -0.13630466037E+01  0.14986047159E+01  0.27635500400E+01  0.51100000000E-03 0. -1.
        -11    1    3    3    0    0  0.58463258165E+01 -0.54398330364E+01  0.27666465440E+01  0.84513692605E+01  0.51100000000E-03 0.  1.
        -12    1    3    3    0    0  0.44988526690E+01 -0.33949038516E+02 -0.12835877775E+02  0.36572348157E+02  0.00000000000E+00 0.  1.
</event>
<event>
 7    1  0.2414091E-009  0.4778727E+02  0.7816164E-02  0.1312668E+00
        -11   -1    0    0    0    0  0.00000000000E+00  0.00000000000E+00  0.45593999997E+02  0.45594000000E+02  0.51100000000E-03 0.  1.
         11   -1    0    0    0    0 -0.00000000000E+00 -0.00000000000E+00 -0.45593999997E+02  0.45594000000E+02  0.51100000000E-03 0. -1.
    9900012    2    1    2    0    0  0.18185842054E+02 -0.17867499597E+02  0.35123366814E+02  0.47787270865E+02  0.19999999182E+02 0.  0.
         12    1    1    2    0    0 -0.18185842054E+02  0.17867499597E+02 -0.35123366814E+02  0.43400729135E+02  0.00000000000E+00 0. -1.
         11    1    3    3    0    0  0.10948077290E+02 -0.59109761348E+01  0.51240680708E+01  0.13455709163E+02  0.51100000000E-03 0. -1.
        -11    1    3    3    0    0  0.84680686587E-01  0.13711395310E+01  0.13059191646E+01  0.18954206810E+01  0.51100000000E-03 0.  1.
        -12    1    3    3    0    0  0.71530840774E+01 -0.13327662993E+02  0.28693379579E+02  0.32436141021E+02  0.00000000000E+00 0.  1.
</event>
<event>
 7    1  0.2414091E-009  0.4778727E+02  0.7816164E-02  0.1312668E+00
        -11   -1    0    0    0    0  0.00000000000E+00  0.00000000000E+00  0.45593999997E+02  0.45594000000E+02  0.51100000000E-03 0.  1.
         11   -1    0    0    0    0 -0.00000000000E+00 -0.00000000000E+00 -0.45593999997E+02  0.45594000000E+02  0.51100000000E-03 0. -1.
    9900012    2    1    2    0    0  0.22374873093E+02 -0.31798503515E+01  0.37052354099E+02  0.47787270300E+02  0.19999996608E+02 0.  0.
         12    1    1    2    0    0 -0.22374873093E+02  0.31798503515E+01 -0.37052354099E+02  0.43400729700E+02  0.00000000000E+00 0. -1.
         11    1    3    3    0    0  0.90549702606E+01 -0.83379865432E+00  0.21581267744E+02  0.23418770769E+02  0.51100000000E-03 0. -1.
        -11    1    3    3    0    0  0.22489622389E+01  0.21946272262E+01  0.11248837593E+02  0.11679493451E+02  0.51100000000E-03 0.  1.
         12    1    3    3    0    0  0.11070940593E+02 -0.45406789234E+01  0.42222487615E+01  0.12689006080E+02  0.00000000000E+00 0. -1.
</event>
<event>
 7    1  0.2414091E-009  0.4778727E+02  0.7816164E-02  0.1312668E+00
        -11   -1    0    0    0    0  0.00000000000E+00  0.00000000000E+00  0.45593999997E+02  0.45594000000E+02  0.51100000000E-03 0. -1.
         11   -1    0    0    0    0 -0.00000000000E+00 -0.00000000000E+00 -0.45593999997E+02  0.45594000000E+02  0.51100000000E-03 0.  1.
    9900012    2    1    2    0    0  0.31306220358E+02  0.29296291422E+02  0.67284071566E+01  0.47787267436E+02  0.19999983549E+02 0.  0.
         12    1    1    2    0    0 -0.31306220358E+02 -0.29296291422E+02 -0.67284071566E+01  0.43400732564E+02  0.00000000000E+00 0. -1.
         11    1    3    3    0    0  0.10150509109E+02  0.18019490145E+02  0.23817794230E+01  0.20818446957E+02  0.51100000000E-03 0. -1.
        -11    1    3    3    0    0  0.82308725052E+01  0.84165889700E+01  0.66676207691E+01  0.13529353239E+02  0.51100000000E-03 0.  1.
         12    1    3    3    0    0  0.12924838745E+02  0.28602123071E+01 -0.23209930354E+01  0.13439467240E+02  0.00000000000E+00 0. -1.
</event>
<event>
 7    1  0.2414091E-009  0.4778727E+02  0.7816164E-02  0.1312668E+00
        -11   -1    0    0    0    0  0.00000000000E+00  0.00000000000E+00  0.45593999997E+02  0.45594000000E+02  0.51100000000E-03 0.  1.
         11   -1    0    0    0    0 -0.00000000000E+00 -0.00000000000E+00 -0.45593999997E+02  0.45594000000E+02  0.51100000000E-03 0. -1.
    9900012    2    1    2    0    0 -0.20451140910E+02 -0.96174939678E+01  0.37052367137E+02  0.47787271145E+02  0.20000000457E+02 0.  0.
         12    1    1    2    0    0  0.20451140910E+02  0.96174939678E+01 -0.37052367137E+02  0.43400728855E+02  0.00000000000E+00 0. -1.
         11    1    3    3    0    0 -0.44284868998E+01  0.87424291451E+00  0.77901949443E+01  0.90034956782E+01  0.51100000000E-03 0. -1.
        -11    1    3    3    0    0 -0.99057099969E+01  0.42876018200E+00  0.41963055920E+01  0.10766424974E+02  0.51100000000E-03 0.  1.
         12    1    3    3    0    0 -0.61169440136E+01 -0.10920497064E+02  0.25065866600E+02  0.28017350492E+02  0.00000000000E+00 0. -1.
</event>
<event>
 7    1  0.2414091E-009  0.4778727E+02  0.7816164E-02  0.1312668E+00
        -11   -1    0    0    0    0  0.00000000000E+00  0.00000000000E+00  0.45593999997E+02  0.45594000000E+02  0.51100000000E-03 0.  1.
         11   -1    0    0    0    0 -0.00000000000E+00 -0.00000000000E+00 -0.45593999997E+02  0.45594000000E+02  0.51100000000E-03 0. -1.
    9900012    2    1    2    0    0  0.13183313126E+02 -0.38101005796E+02  0.16066639632E+02  0.47787270781E+02  0.19999998801E+02 0.  0.
         12    1    1    2    0    0 -0.13183313126E+02  0.38101005796E+02 -0.16066639632E+02  0.43400729219E+02  0.00000000000E+00 0. -1.
         11    1    3    3    0    0  0.40259447005E+01 -0.46615440086E+01  0.32320652351E+01  0.69558945665E+01  0.51100000000E-03 0.  1.
        -11    1    3    3    0    0 -0.47032529919E+01 -0.57051274752E+01  0.47552967305E+01  0.87910133358E+01  0.51100000000E-03 0. -1.
        -12    1    3    3    0    0  0.13860621417E+02 -0.27734334312E+02  0.80792776662E+01  0.32040362879E+02  0.00000000000E+00 0.  1.
</event>
<event>
 7    1  0.2414091E-009  0.4778727E+02  0.7816164E-02  0.1312668E+00
        -11   -1    0    0    0    0  0.00000000000E+00  0.00000000000E+00  0.45593999997E+02  0.45594000000E+02  0.51100000000E-03 0.  1.
         11   -1    0    0    0    0 -0.00000000000E+00 -0.00000000000E+00 -0.45593999997E+02  0.45594000000E+02  0.51100000000E-03 0. -1.
    9900012    2    1    2    0    0 -0.90595381616E+01  0.42366093512E+02 -0.25811177100E+01  0.47787270976E+02  0.19999999689E+02 0.  0.
         12    1    1    2    0    0  0.90595381616E+01 -0.42366093512E+02  0.25811177100E+01  0.43400729024E+02  0.00000000000E+00 0. -1.
         11    1    3    3    0    0 -0.11885603368E+01  0.35522499390E+02  0.14126240210E+01  0.35570439208E+02  0.51100000000E-03 0. -1.
        -11    1    3    3    0    0  0.62396210132E+00  0.11664694028E+01 -0.57847995012E+00  0.14438209326E+01  0.51100000000E-03 0.  1.
        -12    1    3    3    0    0 -0.84949399262E+01  0.56771247190E+01 -0.34152617809E+01  0.10773010835E+02  0.00000000000E+00 0.  1.
</event>
<event>
 7    1  0.2414091E-009  0.4778727E+02  0.7816164E-02  0.1312668E+00
        -11   -1    0    0    0    0  0.00000000000E+00  0.00000000000E+00  0.45593999997E+02  0.45594000000E+02  0.51100000000E-03 0. -1.
         11   -1    0    0    0    0 -0.00000000000E+00 -0.00000000000E+00 -0.45593999997E+02  0.45594000000E+02  0.51100000000E-03 0.  1.
    9900012    2    1    2    0    0 -0.40788470017E+02 -0.13237155966E+02  0.66859315001E+01  0.47787271153E+02  0.20000000495E+02 0.  0.
         12    1    1    2    0    0  0.40788470017E+02  0.13237155966E+02 -0.66859315001E+01  0.43400728847E+02  0.00000000000E+00 0. -1.
         11    1    3    3    0    0 -0.20776534482E+00  0.52024137870E+00 -0.10562600673E+01  0.11956183009E+01  0.51100000000E-03 0. -1.
        -11    1    3    3    0    0 -0.10973534053E+02 -0.10135532025E+02  0.76069920630E+01  0.16763465858E+02  0.51100000000E-03 0.  1.
         12    1    3    3    0    0 -0.29607170619E+02 -0.36218653192E+01  0.13519950440E+00  0.29828186995E+02  0.00000000000E+00 0. -1.
</event>
<event>
 7    1  0.2414091E-009  0.4778729E+02  0.7816164E-02  0.1312668E+00
        -11   -1    0    0    0    0  0.00000000000E+00  0.00000000000E+00  0.45593999997E+02  0.45594000000E+02  0.51100000000E-03 0.  1.
         11   -1    0    0    0    0 -0.00000000000E+00 -0.00000000000E+00 -0.45593999997E+02  0.45594000000E+02  0.51100000000E-03 0. -1.
    9900012    2    1    2    0    0  0.61148159857E+01 -0.27604304457E+02  0.32927700015E+02  0.47787285405E+02  0.20000065475E+02 0.  0.
         12    1    1    2    0    0 -0.61148159857E+01  0.27604304457E+02 -0.32927700015E+02  0.43400714595E+02  0.00000000000E+00 0. -1.
         11    1    3    3    0    0 -0.46127942832E+00 -0.19073085345E+02  0.21649188690E+02  0.28856242557E+02  0.51100000000E-03 0.  1.
        -11    1    3    3    0    0  0.31451129149E+01 -0.99136454807E+01  0.47643062585E+01  0.11439873966E+02  0.51100000000E-03 0. -1.
        -12    1    3    3    0    0  0.34309824992E+01  0.13824263692E+01  0.65142050666E+01  0.74911688825E+01  0.00000000000E+00 0.  1.
</event>
<event>
 7    1  0.2414091E-009  0.4778727E+02  0.7816164E-02  0.1312668E+00
        -11   -1    0    0    0    0  0.00000000000E+00  0.00000000000E+00  0.45593999997E+02  0.45594000000E+02  0.51100000000E-03 0. -1.
         11   -1    0    0    0    0 -0.00000000000E+00 -0.00000000000E+00 -0.45593999997E+02  0.45594000000E+02  0.51100000000E-03 0.  1.
    9900012    2    1    2    0    0 -0.30484244093E+02 -0.17878295380E+02 -0.25193266988E+02  0.47787270915E+02  0.19999999409E+02 0.  0.
         12    1    1    2    0    0  0.30484244093E+02  0.17878295380E+02  0.25193266988E+02  0.43400729085E+02  0.00000000000E+00 0. -1.
         11    1    3    3    0    0 -0.48948464547E+01  0.33408538359E+01 -0.26013232710E+01  0.64720714759E+01  0.51100000000E-03 0. -1.
        -11    1    3    3    0    0 -0.68529877433E+01 -0.13692161548E+01 -0.69452622101E+01  0.98526575763E+01  0.51100000000E-03 0.  1.
        -12    1    3    3    0    0 -0.18736409895E+02 -0.19849933061E+02 -0.15646681507E+02  0.31462541863E+02  0.00000000000E+00 0.  1.
</event>
<event>
 7    1  0.2414091E-009  0.4778727E+02  0.7816164E-02  0.1312668E+00
        -11   -1    0    0    0    0  0.00000000000E+00  0.00000000000E+00  0.45593999997E+02  0.45594000000E+02  0.51100000000E-03 0. -1.
         11   -1    0    0    0    0 -0.00000000000E+00 -0.00000000000E+00 -0.45593999997E+02  0.45594000000E+02  0.51100000000E-03 0.  1.
    9900012    2    1    2    0    0  0.20338130639E+02  0.19936877162E+02 -0.32749118652E+02  0.47787269576E+02  0.19999993303E+02 0.  0.
         12    1    1    2    0    0 -0.20338130639E+02 -0.19936877162E+02  0.32749118652E+02  0.43400730424E+02  0.00000000000E+00 0. -1.
         11    1    3    3    0    0  0.82709816713E+01  0.12206031210E+02 -0.55482962991E+01  0.15753727425E+02  0.51100000000E-03 0. -1.
        -11    1    3    3    0    0  0.87949742217E+01  0.96898750071E+01 -0.20402901831E+02  0.24238887198E+02  0.51100000000E-03 0.  1.
        -12    1    3    3    0    0  0.32721747460E+01 -0.19590290545E+01 -0.67979205223E+01  0.77946549527E+01  0.00000000000E+00 0.  1.
</event>
<event>
 7    1  0.2414091E-009  0.4778725E+02  0.7816164E-02  0.1312668E+00
        -11   -1    0    0    0    0  0.00000000000E+00  0.00000000000E+00  0.45593999997E+02  0.45594000000E+02  0.51100000000E-03 0.  1.
         11   -1    0    0    0    0 -0.00000000000E+00 -0.00000000000E+00 -0.45593999997E+02  0.45594000000E+02  0.51100000000E-03 0. -1.
    9900012    2    1    2    0    0 -0.28790439603E+02 -0.17460538150E+02  0.27383660587E+02  0.47787254935E+02  0.19999926552E+02 0.  0.
         12    1    1    2    0    0  0.28790439603E+02  0.17460538150E+02 -0.27383660587E+02  0.43400745065E+02  0.00000000000E+00 0. -1.
         11    1    3    3    0    0 -0.70518421255E+01 -0.68409548251E+01  0.67259745421E+01  0.11906547530E+02  0.51100000000E-03 0.  1.
        -11    1    3    3    0    0 -0.60397337197E+01 -0.14989891239E+01  0.15954918555E+02  0.17125559207E+02  0.51100000000E-03 0. -1.
         12    1    3    3    0    0 -0.15698863758E+02 -0.91205942008E+01  0.47027674893E+01  0.18755148198E+02  0.00000000000E+00 0. -1.
</event>
<event>
 7    1  0.2414091E-009  0.4778727E+02  0.7816164E-02  0.1312668E+00
        -11   -1    0    0    0    0  0.00000000000E+00  0.00000000000E+00  0.45593999997E+02  0.45594000000E+02  0.51100000000E-03 0.  1.
         11   -1    0    0    0    0 -0.00000000000E+00 -0.00000000000E+00 -0.45593999997E+02  0.45594000000E+02  0.51100000000E-03 0. -1.
    9900012    2    1    2    0    0 -0.13364588399E+02 -0.32624536142E+01  0.41162698561E+02  0.47787267524E+02  0.19999983947E+02 0.  0.
         12    1    1    2    0    0  0.13364588399E+02  0.32624536142E+01 -0.41162698561E+02  0.43400732476E+02  0.00000000000E+00 0. -1.
         11    1    3    3    0    0 -0.17605593102E+01 -0.82601138989E+00  0.31686833021E+02  0.31746452575E+02  0.51100000000E-03 0. -1.
        -11    1    3    3    0    0 -0.50146471108E+01  0.71036293461E+00  0.62854394647E+01  0.80720536835E+01  0.51100000000E-03 0.  1.
         12    1    3    3    0    0 -0.65893819783E+01 -0.31468051589E+01  0.31904260751E+01  0.79687612654E+01  0.00000000000E+00 0. -1.
</event>
<event>
 7    1  0.2414091E-009  0.4778727E+02  0.7816164E-02  0.1312668E+00
        -11   -1    0    0    0    0  0.00000000000E+00  0.00000000000E+00  0.45593999997E+02  0.45594000000E+02  0.51100000000E-03 0.  1.
         11   -1    0    0    0    0 -0.00000000000E+00 -0.00000000000E+00 -0.45593999997E+02  0.45594000000E+02  0.51100000000E-03 0. -1.
    9900012    2    1    2    0    0  0.19001420392E+02  0.83068252495E+01  0.38125660801E+02  0.47787270350E+02  0.19999996833E+02 0.  0.
         12    1    1    2    0    0 -0.19001420392E+02 -0.83068252495E+01 -0.38125660801E+02  0.43400729650E+02  0.00000000000E+00 0. -1.
         11    1    3    3    0    0  0.18891978492E+01  0.16885977183E+01 -0.14882825845E+01  0.29386078473E+01  0.51100000000E-03 0. -1.
        -11    1    3    3    0    0  0.89179213639E+01  0.87899773703E+01  0.24750315917E+02  0.27737540660E+02  0.51100000000E-03 0.  1.
        -12    1    3    3    0    0  0.81943011794E+01 -0.21717498390E+01  0.14863627468E+02  0.17111121842E+02  0.00000000000E+00 0.  1.
</event>
<event>
 7    1  0.2414091E-009  0.4778727E+02  0.7816164E-02  0.1312668E+00
        -11   -1    0    0    0    0  0.00000000000E+00  0.00000000000E+00  0.45593999997E+02  0.45594000000E+02  0.51100000000E-03 0.  1.
         11   -1    0    0    0    0 -0.00000000000E+00 -0.00000000000E+00 -0.45593999997E+02  0.45594000000E+02  0.51100000000E-03 0. -1.
    9900012    2    1    2    0    0  0.15808059623E+02 -0.15483903761E+02  0.37336011471E+02  0.47787265245E+02  0.19999973557E+02 0.  0.
         12    1    1    2    0    0 -0.15808059623E+02  0.15483903761E+02 -0.37336011471E+02  0.43400734755E+02  0.00000000000E+00 0. -1.
         11    1    3    3    0    0  0.13060874836E+02 -0.26715503216E+01  0.22543409462E+02  0.26190245189E+02  0.51100000000E-03 0. -1.
        -11    1    3    3    0    0  0.26471463334E+00  0.13273165436E+01  0.16459689325E+01  0.21309756056E+01  0.51100000000E-03 0.  1.
        -12    1    3    3    0    0  0.24824701530E+01 -0.14139669983E+02  0.13146633077E+02  0.19466044450E+02  0.00000000000E+00 0.  1.
</event>
<event>
 7    1  0.2414091E-009  0.4778727E+02  0.7816164E-02  0.1312668E+00
        -11   -1    0    0    0    0  0.00000000000E+00  0.00000000000E+00  0.45593999997E+02  0.45594000000E+02  0.51100000000E-03 0.  1.
         11   -1    0    0    0    0 -0.00000000000E+00 -0.00000000000E+00 -0.45593999997E+02  0.45594000000E+02  0.51100000000E-03 0. -1.
    9900012    2    1    2    0    0 -0.11796801951E+02  0.78285620949E+00  0.41759379327E+02  0.47787272335E+02  0.20000005884E+02 0.  0.
         12    1    1    2    0    0  0.11796801951E+02 -0.78285620949E+00 -0.41759379327E+02  0.43400727665E+02  0.00000000000E+00 0. -1.
         11    1    3    3    0    0 -0.79659295616E+01  0.54586403164E+01  0.24765271438E+02  0.26581411880E+02  0.51100000000E-03 0. -1.
        -11    1    3    3    0    0 -0.14106434752E-01 -0.20060092282E+01  0.16386186087E+02  0.16508524063E+02  0.51100000000E-03 0.  1.
         12    1    3    3    0    0 -0.38167659547E+01 -0.26697748787E+01  0.60792180165E+00  0.46973363913E+01  0.00000000000E+00 0. -1.
</event>
<event>
 7    1  0.2414091E-009  0.4778727E+02  0.7816164E-02  0.1312668E+00
        -11   -1    0    0    0    0  0.00000000000E+00  0.00000000000E+00  0.45593999997E+02  0.45594000000E+02  0.51100000000E-03 0.  1.
         11   -1    0    0    0    0 -0.00000000000E+00 -0.00000000000E+00 -0.45593999997E+02  0.45594000000E+02  0.51100000000E-03 0. -1.
    9900012    2    1    2    0    0 -0.59678490660E+01  0.39794767341E+02  0.16259908766E+02  0.47787270014E+02  0.19999995304E+02 0.  0.
         12    1    1    2    0    0  0.59678490660E+01 -0.39794767341E+02 -0.16259908766E+02  0.43400729986E+02  0.00000000000E+00 0. -1.
         11    1    3    3    0    0 -0.26896587121E+01 -0.25275646709E+00 -0.55066860184E-01  0.27020700286E+01  0.51100000000E-03 0. -1.
        -11    1    3    3    0    0  0.60418800692E+00  0.31958075908E+02  0.16779469293E+02  0.36100335856E+02  0.51100000000E-03 0.  1.
        -12    1    3    3    0    0 -0.38823783608E+01  0.80894479003E+01 -0.46449366690E+00  0.89848641300E+01  0.00000000000E+00 0.  1.
</event>
<event>
 7    1  0.2414091E-009  0.4778727E+02  0.7816164E-02  0.1312668E+00
        -11   -1    0    0    0    0  0.00000000000E+00  0.00000000000E+00  0.45593999997E+02  0.45594000000E+02  0.51100000000E-03 0. -1.
         11   -1    0    0    0    0 -0.00000000000E+00 -0.00000000000E+00 -0.45593999997E+02  0.45594000000E+02  0.51100000000E-03 0.  1.
    9900012    2    1    2    0    0 -0.35889082006E+02  0.22612849077E+02 -0.91791214329E+01  0.47787269351E+02  0.19999992277E+02 0.  0.
         12    1    1    2    0    0  0.35889082006E+02 -0.22612849077E+02  0.91791214329E+01  0.43400730649E+02  0.00000000000E+00 0. -1.
         11    1    3    3    0    0 -0.59826027070E+00  0.24604111826E+01  0.24913075923E+01  0.35522038680E+01  0.51100000000E-03 0. -1.
        -11    1    3    3    0    0 -0.13160477421E+02  0.13106998663E+02 -0.79729661388E+00  0.18591053279E+02  0.51100000000E-03 0.  1.
         12    1    3    3    0    0 -0.22130344315E+02  0.70454392319E+01 -0.10873132411E+02  0.25644012203E+02  0.00000000000E+00 0. -1.
</event>
<event>
 7    1  0.2414091E-009  0.4778727E+02  0.7816164E-02  0.1312668E+00
        -11   -1    0    0    0    0  0.00000000000E+00  0.00000000000E+00  0.45593999997E+02  0.45594000000E+02  0.51100000000E-03 0.  1.
         11   -1    0    0    0    0 -0.00000000000E+00 -0.00000000000E+00 -0.45593999997E+02  0.45594000000E+02  0.51100000000E-03 0. -1.
    9900012    2    1    2    0    0  0.38675972943E+02  0.19546181904E+02  0.23956678939E+01  0.47787270343E+02  0.19999996803E+02 0.  0.
         12    1    1    2    0    0 -0.38675972943E+02 -0.19546181904E+02 -0.23956678939E+01  0.43400729657E+02  0.00000000000E+00 0. -1.
         11    1    3    3    0    0  0.23457526065E+02  0.86691754645E+01 -0.63195030839E+01  0.25794306577E+02  0.51100000000E-03 0.  1.
        -11    1    3    3    0    0  0.36583978723E+01  0.62399106922E+01  0.90078610511E+00  0.72891547046E+01  0.51100000000E-03 0. -1.
        -12    1    3    3    0    0  0.11560049006E+02  0.46370957471E+01  0.78143848726E+01  0.14703809062E+02  0.00000000000E+00 0.  1.
</event>
<event>
 7    1  0.2414091E-009  0.4778728E+02  0.7816164E-02  0.1312668E+00
        -11   -1    0    0    0    0  0.00000000000E+00  0.00000000000E+00  0.45593999997E+02  0.45594000000E+02  0.51100000000E-03 0. -1.
         11   -1    0    0    0    0 -0.00000000000E+00 -0.00000000000E+00 -0.45593999997E+02  0.45594000000E+02  0.51100000000E-03 0.  1.
    9900012    2    1    2    0    0 -0.30519436050E+01  0.28829628664E+02 -0.32298003562E+02  0.47787275550E+02  0.20000020543E+02 0.  0.
         12    1    1    2    0    0  0.30519436050E+01 -0.28829628664E+02  0.32298003562E+02  0.43400724450E+02  0.00000000000E+00 0. -1.
         11    1    3    3    0    0  0.32638667325E+01  0.33894931493E+01 -0.19371383817E+01  0.50886142738E+01  0.51100000000E-03 0. -1.
        -11    1    3    3    0    0  0.26733212921E+01  0.86023895053E+01 -0.17502052926E+02  0.19684247733E+02  0.51100000000E-03 0.  1.
         12    1    3    3    0    0 -0.89891316297E+01  0.16837746010E+02 -0.12858812254E+02  0.23014413543E+02  0.00000000000E+00 0. -1.
</event>
<event>
 7    1  0.2414091E-009  0.4778727E+02  0.7816164E-02  0.1312668E+00
        -11   -1    0    0    0    0  0.00000000000E+00  0.00000000000E+00  0.45593999997E+02  0.45594000000E+02  0.51100000000E-03 0.  1.
         11   -1    0    0    0    0 -0.00000000000E+00 -0.00000000000E+00 -0.45593999997E+02  0.45594000000E+02  0.51100000000E-03 0. -1.
    9900012    2    1    2    0    0 -0.26746973540E+02  0.26797407101E+02  0.21216071382E+02  0.47787270677E+02  0.19999998326E+02 0.  0.
         12    1    1    2    0    0  0.26746973540E+02 -0.26797407101E+02 -0.21216071382E+02  0.43400729323E+02  0.00000000000E+00 0. -1.
         11    1    3    3    0    0 -0.32711039147E+01  0.24999431057E+01  0.76636204941E+01  0.86994778976E+01  0.51100000000E-03 0. -1.
        -11    1    3    3    0    0 -0.15083553783E+02  0.16339779294E+02  0.15835215539E+02  0.27299377896E+02  0.51100000000E-03 0.  1.
        -12    1    3    3    0    0 -0.83923158426E+01  0.79576847014E+01 -0.22827646518E+01  0.11788414883E+02  0.00000000000E+00 0.  1.
</event>
<event>
 7    1  0.2414091E-009  0.4778727E+02  0.7816164E-02  0.1312668E+00
        -11   -1    0    0    0    0  0.00000000000E+00  0.00000000000E+00  0.45593999997E+02  0.45594000000E+02  0.51100000000E-03 0. -1.
         11   -1    0    0    0    0 -0.00000000000E+00 -0.00000000000E+00 -0.45593999997E+02  0.45594000000E+02  0.51100000000E-03 0.  1.
    9900012    2    1    2    0    0  0.41328462981E+02  0.15353490181E+01  0.13161464955E+02  0.47787270643E+02  0.19999998168E+02 0.  0.
         12    1    1    2    0    0 -0.41328462981E+02 -0.15353490181E+01 -0.13161464955E+02  0.43400729357E+02  0.00000000000E+00 0. -1.
         11    1    3    3    0    0  0.50531042435E+01 -0.21093971039E+01  0.14602378320E+01  0.56670727387E+01  0.51100000000E-03 0. -1.
        -11    1    3    3    0    0  0.27883714295E+02  0.23544578039E+01  0.40094910450E+00  0.27985813457E+02  0.51100000000E-03 0.  1.
         12    1    3    3    0    0  0.83916444431E+01  0.12902883181E+01  0.11300278018E+02  0.14134384447E+02  0.00000000000E+00 0. -1.
</event>
<event>
 7    1  0.2414091E-009  0.4778727E+02  0.7816164E-02  0.1312668E+00
        -11   -1    0    0    0    0  0.00000000000E+00  0.00000000000E+00  0.45593999997E+02  0.45594000000E+02  0.51100000000E-03 0.  1.
         11   -1    0    0    0    0 -0.00000000000E+00 -0.00000000000E+00 -0.45593999997E+02  0.45594000000E+02  0.51100000000E-03 0. -1.
    9900012    2    1    2    0    0  0.10830091740E+02  0.99272626155E+01  0.40838484824E+02  0.47787271056E+02  0.20000000052E+02 0.  0.
         12    1    1    2    0    0 -0.10830091740E+02 -0.99272626155E+01 -0.40838484824E+02  0.43400728944E+02  0.00000000000E+00 0. -1.
         11    1    3    3    0    0  0.41687797683E+01 -0.51512321277E+01  0.69443689789E+01  0.95988633685E+01  0.51100000000E-03 0. -1.
        -11    1    3    3    0    0 -0.22670000627E+00  0.55344957812E+00  0.57164683222E+01  0.57476699338E+01  0.51100000000E-03 0.  1.
         12    1    3    3    0    0  0.68880119784E+01  0.14525045165E+02  0.28177647523E+02  0.32440737754E+02  0.00000000000E+00 0. -1.
</event>
<event>
 7    1  0.2414091E-009  0.4778727E+02  0.7816164E-02  0.1312668E+00
        -11   -1    0    0    0    0  0.00000000000E+00  0.00000000000E+00  0.45593999997E+02  0.45594000000E+02  0.51100000000E-03 0.  1.
         11   -1    0    0    0    0 -0.00000000000E+00 -0.00000000000E+00 -0.45593999997E+02  0.45594000000E+02  0.51100000000E-03 0. -1.
    9900012    2    1    2    0    0 -0.33480449823E+02 -0.26596402657E+02  0.74373503625E+01  0.47787270340E+02  0.19999996787E+02 0.  0.
         12    1    1    2    0    0  0.33480449823E+02  0.26596402657E+02 -0.74373503625E+01  0.43400729660E+02  0.00000000000E+00 0. -1.
         11    1    3    3    0    0 -0.10704593888E+02 -0.21899898141E+01  0.25611922244E+01  0.11222481525E+02  0.51100000000E-03 0. -1.
        -11    1    3    3    0    0 -0.97111528670E+01 -0.33147421398E+01  0.57053770859E+01  0.11740755232E+02  0.51100000000E-03 0.  1.
         12    1    3    3    0    0 -0.13064703067E+02 -0.21091670703E+02 -0.82921894779E+00  0.24824033583E+02  0.00000000000E+00 0. -1.
</event>
<event>
 7    1  0.2414091E-009  0.4778727E+02  0.7816164E-02  0.1312668E+00
        -11   -1    0    0    0    0  0.00000000000E+00  0.00000000000E+00  0.45593999997E+02  0.45594000000E+02  0.51100000000E-03 0.  1.
         11   -1    0    0    0    0 -0.00000000000E+00 -0.00000000000E+00 -0.45593999997E+02  0.45594000000E+02  0.51100000000E-03 0. -1.
    9900012    2    1    2    0    0  0.86602435261E+01 -0.21072076492E+01  0.42475679319E+02  0.47787268720E+02  0.19999989402E+02 0.  0.
         12    1    1    2    0    0 -0.86602435261E+01  0.21072076492E+01 -0.42475679319E+02  0.43400731280E+02  0.00000000000E+00 0. -1.
         11    1    3    3    0    0  0.15987941461E+01 -0.38647547824E+01  0.66522930571E+01  0.78578289259E+01  0.51100000000E-03 0. -1.
        -11    1    3    3    0    0  0.85944670890E+00 -0.69069146902E+01  0.13213539904E+02  0.14934582560E+02  0.51100000000E-03 0.  1.
        -12    1    3    3    0    0  0.62020026711E+01  0.86644618234E+01  0.22609846358E+02  0.24994857234E+02  0.00000000000E+00 0.  1.
</event>
<event>
 7    1  0.2414091E-009  0.4778726E+02  0.7816164E-02  0.1312668E+00
        -11   -1    0    0    0    0  0.00000000000E+00  0.00000000000E+00  0.45593999997E+02  0.45594000000E+02  0.51100000000E-03 0.  1.
         11   -1    0    0    0    0 -0.00000000000E+00 -0.00000000000E+00 -0.45593999997E+02  0.45594000000E+02  0.51100000000E-03 0. -1.
    9900012    2    1    2    0    0  0.35805690782E+02  0.24432518559E+02  0.21513683570E+01  0.47787264507E+02  0.19999970195E+02 0.  0.
         12    1    1    2    0    0 -0.35805690782E+02 -0.24432518559E+02 -0.21513683570E+01  0.43400735493E+02  0.00000000000E+00 0. -1.
         11    1    3    3    0    0  0.36902992593E+01  0.22995818542E+01  0.24209441406E+01  0.49766812356E+01  0.51100000000E-03 0. -1.
        -11    1    3    3    0    0  0.18314908870E+02  0.19646132097E+02  0.58857840006E+01  0.27496342427E+02  0.51100000000E-03 0.  1.
         12    1    3    3    0    0  0.13800482652E+02  0.24868046078E+01 -0.61553597842E+01  0.15314240845E+02  0.00000000000E+00 0. -1.
</event>
<event>
 7    1  0.2414091E-009  0.4778727E+02  0.7816164E-02  0.1312668E+00
        -11   -1    0    0    0    0  0.00000000000E+00  0.00000000000E+00  0.45593999997E+02  0.45594000000E+02  0.51100000000E-03 0. -1.
         11   -1    0    0    0    0 -0.00000000000E+00 -0.00000000000E+00 -0.45593999997E+02  0.45594000000E+02  0.51100000000E-03 0.  1.
    9900012    2    1    2    0    0  0.12764784455E+02  0.36218310164E+02 -0.20221710270E+02  0.47787270979E+02  0.19999999702E+02 0.  0.
         12    1    1    2    0    0 -0.12764784455E+02 -0.36218310164E+02  0.20221710270E+02  0.43400729021E+02  0.00000000000E+00 0. -1.
         11    1    3    3    0    0  0.10464871533E+02  0.99593919530E+01 -0.76289675412E+01  0.16337202034E+02  0.51100000000E-03 0.  1.
        -11    1    3    3    0    0  0.34507313016E+01  0.17776757300E+01  0.30729645683E-01  0.38818323108E+01  0.51100000000E-03 0. -1.
        -12    1    3    3    0    0 -0.11508183803E+01  0.24481242481E+02 -0.12623472374E+02  0.27568236635E+02  0.00000000000E+00 0.  1.
</event>
<event>
 7    1  0.2414091E-009  0.4778727E+02  0.7816164E-02  0.1312668E+00
        -11   -1    0    0    0    0  0.00000000000E+00  0.00000000000E+00  0.45593999997E+02  0.45594000000E+02  0.51100000000E-03 0.  1.
         11   -1    0    0    0    0 -0.00000000000E+00 -0.00000000000E+00 -0.45593999997E+02  0.45594000000E+02  0.51100000000E-03 0. -1.
    9900012    2    1    2    0    0  0.41431015606E+02  0.10860828190E+02  0.70097530500E+01  0.47787270963E+02  0.19999999629E+02 0.  0.
         12    1    1    2    0    0 -0.41431015606E+02 -0.10860828190E+02 -0.70097530500E+01  0.43400729037E+02  0.00000000000E+00 0. -1.
         11    1    3    3    0    0  0.19219709961E+01  0.14616328528E+01 -0.29935690994E+00  0.24330963662E+01  0.51100000000E-03 0. -1.
        -11    1    3    3    0    0  0.33056676606E+02  0.14322151286E+02  0.88410684759E+01  0.37094910402E+02  0.51100000000E-03 0.  1.
         12    1    3    3    0    0  0.64523680040E+01 -0.49229559494E+01 -0.15319585159E+01  0.82592641944E+01  0.00000000000E+00 0. -1.
</event>
<event>
 7    1  0.2414091E-009  0.4778727E+02  0.7816164E-02  0.1312668E+00
        -11   -1    0    0    0    0  0.00000000000E+00  0.00000000000E+00  0.45593999997E+02  0.45594000000E+02  0.51100000000E-03 0.  1.
         11   -1    0    0    0    0 -0.00000000000E+00 -0.00000000000E+00 -0.45593999997E+02  0.45594000000E+02  0.51100000000E-03 0. -1.
    9900012    2    1    2    0    0  0.10055900834E+02  0.40906842661E+02  0.10446643982E+02  0.47787270875E+02  0.19999999227E+02 0.  0.
         12    1    1    2    0    0 -0.10055900834E+02 -0.40906842661E+02 -0.10446643982E+02  0.43400729125E+02  0.00000000000E+00 0. -1.
         11    1    3    3    0    0 -0.21938017752E+01  0.94225521613E+01  0.93182766537E+01  0.13432331723E+02  0.51100000000E-03 0.  1.
        -11    1    3    3    0    0  0.23714922338E+00  0.33747431847E+01  0.16885801134E+01  0.37810625989E+01  0.51100000000E-03 0. -1.
         12    1    3    3    0    0  0.12012553386E+02  0.28109547315E+02 -0.56021278465E+00  0.30573876553E+02  0.00000000000E+00 0. -1.
</event>
<event>
 7    1  0.2414091E-009  0.4778727E+02  0.7816164E-02  0.1312668E+00
        -11   -1    0    0    0    0  0.00000000000E+00  0.00000000000E+00  0.45593999997E+02  0.45594000000E+02  0.51100000000E-03 0. -1.
         11   -1    0    0    0    0 -0.00000000000E+00 -0.00000000000E+00 -0.45593999997E+02  0.45594000000E+02  0.51100000000E-03 0.  1.
    9900012    2    1    2    0    0  0.75874080706E+01  0.21808940716E+02 -0.36748121212E+02  0.47787273405E+02  0.20000010762E+02 0.  0.
         12    1    1    2    0    0 -0.75874080706E+01 -0.21808940716E+02  0.36748121212E+02  0.43400726595E+02  0.00000000000E+00 0. -1.
         11    1    3    3    0    0 -0.58216492342E+01  0.42136688902E+01 -0.11811991515E+02  0.13826414905E+02  0.51100000000E-03 0. -1.
        -11    1    3    3    0    0  0.30547502265E+01  0.77894072115E+01 -0.12485677862E+02  0.15029920678E+02  0.51100000000E-03 0.  1.
         12    1    3    3    0    0  0.10354307078E+02  0.98058646142E+01 -0.12450451835E+02  0.18930937822E+02  0.00000000000E+00 0. -1.
</event>
<event>
 7    1  0.2414091E-009  0.4778727E+02  0.7816164E-02  0.1312668E+00
        -11   -1    0    0    0    0  0.00000000000E+00  0.00000000000E+00  0.45593999997E+02  0.45594000000E+02  0.51100000000E-03 0.  1.
         11   -1    0    0    0    0 -0.00000000000E+00 -0.00000000000E+00 -0.45593999997E+02  0.45594000000E+02  0.51100000000E-03 0. -1.
    9900012    2    1    2    0    0  0.28813099332E+02 -0.27268515524E+02  0.17602756900E+02  0.47787266337E+02  0.19999978537E+02 0.  0.
         12    1    1    2    0    0 -0.28813099332E+02  0.27268515524E+02 -0.17602756900E+02  0.43400733663E+02  0.00000000000E+00 0. -1.
         11    1    3    3    0    0  0.34653631402E+01 -0.10784145904E+02  0.16130734376E+00  0.11328396395E+02  0.51100000000E-03 0. -1.
        -11    1    3    3    0    0  0.10945039689E+02 -0.11869037524E+02  0.50795324794E+01  0.16925412728E+02  0.51100000000E-03 0.  1.
        -12    1    3    3    0    0  0.14402696503E+02 -0.46153320966E+01  0.12361917077E+02  0.19533457214E+02  0.00000000000E+00 0.  1.
</event>
<event>
 7    1  0.2414091E-009  0.4778727E+02  0.7816164E-02  0.1312668E+00
        -11   -1    0    0    0    0  0.00000000000E+00  0.00000000000E+00  0.45593999997E+02  0.45594000000E+02  0.51100000000E-03 0.  1.
         11   -1    0    0    0    0 -0.00000000000E+00 -0.00000000000E+00 -0.45593999997E+02  0.45594000000E+02  0.51100000000E-03 0. -1.
    9900012    2    1    2    0    0  0.36537792128E+01 -0.27737761700E+02  0.33179659454E+02  0.47787270419E+02  0.19999997148E+02 0.  0.
         12    1    1    2    0    0 -0.36537792128E+01  0.27737761700E+02 -0.33179659454E+02  0.43400729581E+02  0.00000000000E+00 0. -1.
         11    1    3    3    0    0  0.25926870796E+01 -0.12554352994E+02  0.91433053078E+01  0.15745914949E+02  0.51100000000E-03 0. -1.
        -11    1    3    3    0    0  0.76145383525E+01 -0.92421091015E+01  0.10827176644E+02  0.16143900684E+02  0.51100000000E-03 0.  1.
         12    1    3    3    0    0 -0.65534462193E+01 -0.59412996048E+01  0.13209177503E+02  0.15897454785E+02  0.00000000000E+00 0. -1.
</event>
<event>
 7    1  0.2414091E-009  0.4778727E+02  0.7816164E-02  0.1312668E+00
        -11   -1    0    0    0    0  0.00000000000E+00  0.00000000000E+00  0.45593999997E+02  0.45594000000E+02  0.51100000000E-03 0.  1.
         11   -1    0    0    0    0 -0.00000000000E+00 -0.00000000000E+00 -0.45593999997E+02  0.45594000000E+02  0.51100000000E-03 0. -1.
    9900012    2    1    2    0    0 -0.88379919687E+01  0.30039415503E+02  0.30052398279E+02  0.47787271571E+02  0.20000002403E+02 0.  0.
         12    1    1    2    0    0  0.88379919687E+01 -0.30039415503E+02 -0.30052398279E+02  0.43400728429E+02  0.00000000000E+00 0. -1.
         11    1    3    3    0    0 -0.92370565915E+00  0.91304927780E+01  0.10485464131E+01  0.92368057441E+01  0.51100000000E-03 0. -1.
        -11    1    3    3    0    0 -0.82830556992E+01  0.19464989007E+02  0.18993220253E+02  0.28429513267E+02  0.51100000000E-03 0.  1.
         12    1    3    3    0    0  0.36876938962E+00  0.14439337187E+01  0.10010631612E+02  0.10120952560E+02  0.00000000000E+00 0. -1.
</event>
<event>
 7    1  0.2414091E-009  0.4778727E+02  0.7816164E-02  0.1312668E+00
        -11   -1    0    0    0    0  0.00000000000E+00  0.00000000000E+00  0.45593999997E+02  0.45594000000E+02  0.51100000000E-03 0. -1.
         11   -1    0    0    0    0 -0.00000000000E+00 -0.00000000000E+00 -0.45593999997E+02  0.45594000000E+02  0.51100000000E-03 0.  1.
    9900012    2    1    2    0    0  0.13479550308E+01 -0.20780911360E+02 -0.38078339837E+02  0.47787271614E+02  0.20000002597E+02 0.  0.
         12    1    1    2    0    0 -0.13479550308E+01  0.20780911360E+02  0.38078339837E+02  0.43400728386E+02  0.00000000000E+00 0. -1.
         11    1    3    3    0    0 -0.81730615236E+00  0.74777921398E+00 -0.10941971312E+02  0.10997904325E+02  0.51100000000E-03 0. -1.
        -11    1    3    3    0    0  0.61516466664E+01 -0.53623742388E+01 -0.80916433781E+01  0.11492280322E+02  0.51100000000E-03 0.  1.
        -12    1    3    3    0    0 -0.39863854832E+01 -0.16166316335E+02 -0.19044725147E+02  0.25297086966E+02  0.00000000000E+00 0.  1.
</event>
<event>
 7    1  0.2414091E-009  0.4778727E+02  0.7816164E-02  0.1312668E+00
        -11   -1    0    0    0    0  0.00000000000E+00  0.00000000000E+00  0.45593999997E+02  0.45594000000E+02  0.51100000000E-03 0.  1.
         11   -1    0    0    0    0 -0.00000000000E+00 -0.00000000000E+00 -0.45593999997E+02  0.45594000000E+02  0.51100000000E-03 0. -1.
    9900012    2    1    2    0    0 -0.31001650111E+02  0.26526634450E+02  0.14793865010E+02  0.47787273200E+02  0.20000009828E+02 0.  0.
         12    1    1    2    0    0  0.31001650111E+02 -0.26526634450E+02 -0.14793865010E+02  0.43400726800E+02  0.00000000000E+00 0. -1.
         11    1    3    3    0    0 -0.84640545081E+01  0.52334950004E+01 -0.14526559985E+01  0.10056833415E+02  0.51100000000E-03 0. -1.
        -11    1    3    3    0    0 -0.80749435660E+01  0.13256819781E+02  0.14238210059E+02  0.21063584933E+02  0.51100000000E-03 0.  1.
        -12    1    3    3    0    0 -0.14462652037E+02  0.80363196682E+01  0.20083109492E+01  0.16666854851E+02  0.00000000000E+00 0.  1.
</event>
<event>
 7    1  0.2414091E-009  0.4778727E+02  0.7816164E-02  0.1312668E+00
        -11   -1    0    0    0    0  0.00000000000E+00  0.00000000000E+00  0.45593999997E+02  0.45594000000E+02  0.51100000000E-03 0.  1.
         11   -1    0    0    0    0 -0.00000000000E+00 -0.00000000000E+00 -0.45593999997E+02  0.45594000000E+02  0.51100000000E-03 0. -1.
    9900012    2    1    2    0    0 -0.32531126608E+01  0.35227793308E+02  0.25140475250E+02  0.47787266606E+02  0.19999979763E+02 0.  0.
         12    1    1    2    0    0  0.32531126608E+01 -0.35227793308E+02 -0.25140475250E+02  0.43400733394E+02  0.00000000000E+00 0. -1.
         11    1    3    3    0    0  0.22313977381E+01  0.18996213734E+01  0.35656630584E+01  0.46153711157E+01  0.51100000000E-03 0. -1.
        -11    1    3    3    0    0 -0.87319242542E+01  0.99862763653E+01  0.11445184968E+02  0.17520401709E+02  0.51100000000E-03 0.  1.
        -12    1    3    3    0    0  0.32474138553E+01  0.23341895570E+02  0.10129627223E+02  0.25651493781E+02  0.00000000000E+00 0.  1.
</event>
<event>
 7    1  0.2414091E-009  0.4778726E+02  0.7816164E-02  0.1312668E+00
        -11   -1    0    0    0    0  0.00000000000E+00  0.00000000000E+00  0.45593999997E+02  0.45594000000E+02  0.51100000000E-03 0. -1.
         11   -1    0    0    0    0 -0.00000000000E+00 -0.00000000000E+00 -0.45593999997E+02  0.45594000000E+02  0.51100000000E-03 0.  1.
    9900012    2    1    2    0    0 -0.34339086672E+02 -0.72666131728E+01 -0.25527384396E+02  0.47787263894E+02  0.19999967397E+02 0.  0.
         12    1    1    2    0    0  0.34339086672E+02  0.72666131728E+01  0.25527384396E+02  0.43400736106E+02  0.00000000000E+00 0. -1.
         11    1    3    3    0    0 -0.68770869560E+01 -0.15477254825E+01 -0.13248477619E+02  0.15007062959E+02  0.51100000000E-03 0. -1.
        -11    1    3    3    0    0 -0.16955653251E+02 -0.66325118889E+01 -0.12744372718E+02  0.22223938160E+02  0.51100000000E-03 0.  1.
         12    1    3    3    0    0 -0.10506346465E+02  0.91362419854E+00  0.46546594128E+00  0.10556262775E+02  0.00000000000E+00 0. -1.
</event>
<event>
 7    1  0.2414091E-009  0.4778727E+02  0.7816164E-02  0.1312668E+00
        -11   -1    0    0    0    0  0.00000000000E+00  0.00000000000E+00  0.45593999997E+02  0.45594000000E+02  0.51100000000E-03 0.  1.
         11   -1    0    0    0    0 -0.00000000000E+00 -0.00000000000E+00 -0.45593999997E+02  0.45594000000E+02  0.51100000000E-03 0. -1.
    9900012    2    1    2    0    0  0.38856888059E+01  0.39477707281E+02  0.17607826535E+02  0.47787268382E+02  0.19999987863E+02 0.  0.
         12    1    1    2    0    0 -0.38856888059E+01 -0.39477707281E+02 -0.17607826535E+02  0.43400731618E+02  0.00000000000E+00 0. -1.
         11    1    3    3    0    0 -0.34349014688E+01  0.14944288263E+02  0.63179776736E+01  0.16584545273E+02  0.51100000000E-03 0. -1.
        -11    1    3    3    0    0 -0.15984282653E+01  0.75154317451E+01 -0.18783010650E+01  0.79097852301E+01  0.51100000000E-03 0.  1.
        -12    1    3    3    0    0  0.89190185400E+01  0.17017987273E+02  0.13168149926E+02  0.23292937879E+02  0.00000000000E+00 0.  1.
</event>
<event>
 7    1  0.2414091E-009  0.4778727E+02  0.7816164E-02  0.1312668E+00
        -11   -1    0    0    0    0  0.00000000000E+00  0.00000000000E+00  0.45593999997E+02  0.45594000000E+02  0.51100000000E-03 0.  1.
         11   -1    0    0    0    0 -0.00000000000E+00 -0.00000000000E+00 -0.45593999997E+02  0.45594000000E+02  0.51100000000E-03 0. -1.
    9900012    2    1    2    0    0 -0.14710548129E+02  0.40640478086E+02  0.39464330571E+01  0.47787273978E+02  0.20000013377E+02 0.  0.
         12    1    1    2    0    0  0.14710548129E+02 -0.40640478086E+02 -0.39464330571E+01  0.43400726022E+02  0.00000000000E+00 0. -1.
         11    1    3    3    0    0 -0.28799468647E+01  0.11110183304E+02  0.48579456112E+01  0.12463141771E+02  0.51100000000E-03 0. -1.
        -11    1    3    3    0    0 -0.13381914697E+02  0.28586351983E+02  0.22868106589E+01  0.31646242493E+02  0.51100000000E-03 0.  1.
        -12    1    3    3    0    0  0.15513134325E+01  0.94394279921E+00 -0.31983232131E+01  0.36778897142E+01  0.00000000000E+00 0.  1.
</event>
<event>
 7    1  0.2414091E-009  0.4778727E+02  0.7816164E-02  0.1312668E+00
        -11   -1    0    0    0    0  0.00000000000E+00  0.00000000000E+00  0.45593999997E+02  0.45594000000E+02  0.51100000000E-03 0.  1.
         11   -1    0    0    0    0 -0.00000000000E+00 -0.00000000000E+00 -0.45593999997E+02  0.45594000000E+02  0.51100000000E-03 0. -1.
    9900012    2    1    2    0    0  0.80771924471E+01 -0.40706060448E+02  0.12704289279E+02  0.47787270039E+02  0.19999995417E+02 0.  0.
         12    1    1    2    0    0 -0.80771924471E+01  0.40706060448E+02 -0.12704289279E+02  0.43400729961E+02  0.00000000000E+00 0. -1.
         11    1    3    3    0    0  0.10507497898E+02 -0.21327982288E+02  0.74507391972E+01  0.24915935772E+02  0.51100000000E-03 0. -1.
        -11    1    3    3    0    0  0.18173656182E+01  0.53572686820E+00  0.55813516973E+00  0.19751800415E+01  0.51100000000E-03 0.  1.
         12    1    3    3    0    0 -0.42476710691E+01 -0.19913805029E+02  0.46954149117E+01  0.20896154226E+02  0.00000000000E+00 0. -1.
</event>
<event>
 7    1  0.2414091E-009  0.4778727E+02  0.7816164E-02  0.1312668E+00
        -11   -1    0    0    0    0  0.00000000000E+00  0.00000000000E+00  0.45593999997E+02  0.45594000000E+02  0.51100000000E-03 0.  1.
         11   -1    0    0    0    0 -0.00000000000E+00 -0.00000000000E+00 -0.45593999997E+02  0.45594000000E+02  0.51100000000E-03 0. -1.
    9900012    2    1    2    0    0 -0.84481412434E+01  0.38327939922E+02  0.18526242944E+02  0.47787265597E+02  0.19999975163E+02 0.  0.
         12    1    1    2    0    0  0.84481412434E+01 -0.38327939922E+02 -0.18526242944E+02  0.43400734403E+02  0.00000000000E+00 0. -1.
         11    1    3    3    0    0  0.25099843629E+01  0.33810387025E+00  0.10233590381E+01  0.27315928889E+01  0.51100000000E-03 0. -1.
        -11    1    3    3    0    0 -0.55079001508E+01  0.80400012188E+01  0.94314091555E+01  0.13562081794E+02  0.51100000000E-03 0.  1.
         12    1    3    3    0    0 -0.54502254555E+01  0.29949834833E+02  0.80714747500E+01  0.31493590914E+02  0.00000000000E+00 0. -1.
</event>
<event>
 7    1  0.2414091E-009  0.4778727E+02  0.7816164E-02  0.1312668E+00
        -11   -1    0    0    0    0  0.00000000000E+00  0.00000000000E+00  0.45593999997E+02  0.45594000000E+02  0.51100000000E-03 0. -1.
         11   -1    0    0    0    0 -0.00000000000E+00 -0.00000000000E+00 -0.45593999997E+02  0.45594000000E+02  0.51100000000E-03 0.  1.
    9900012    2    1    2    0    0  0.20802628016E+02 -0.36592344065E+02  0.10577057107E+02  0.47787272891E+02  0.20000008420E+02 0.  0.
         12    1    1    2    0    0 -0.20802628016E+02  0.36592344065E+02 -0.10577057107E+02  0.43400727109E+02  0.00000000000E+00 0. -1.
         11    1    3    3    0    0  0.71932935330E+00 -0.31604732775E+00  0.32231213779E+01  0.33175039276E+01  0.51100000000E-03 0. -1.
        -11    1    3    3    0    0  0.74870077424E+01 -0.20497288979E+02  0.10185642702E+02  0.24081973713E+02  0.51100000000E-03 0.  1.
        -12    1    3    3    0    0  0.12596290920E+02 -0.15779007758E+02 -0.28317069726E+01  0.20387795250E+02  0.00000000000E+00 0.  1.
</event>
<event>
 7    1  0.2414091E-009  0.4778727E+02  0.7816164E-02  0.1312668E+00
        -11   -1    0    0    0    0  0.00000000000E+00  0.00000000000E+00  0.45593999997E+02  0.45594000000E+02  0.51100000000E-03 0.  1.
         11   -1    0    0    0    0 -0.00000000000E+00 -0.00000000000E+00 -0.45593999997E+02  0.45594000000E+02  0.51100000000E-03 0. -1.
    9900012    2    1    2    0    0  0.22069364357E+02  0.37133210411E+02 -0.42060837022E+01  0.47787270758E+02  0.19999998696E+02 0.  0.
         12    1    1    2    0    0 -0.22069364357E+02 -0.37133210411E+02  0.42060837022E+01  0.43400729242E+02  0.00000000000E+00 0. -1.
         11    1    3    3    0    0  0.65157571748E+01  0.73346571766E+01  0.27388669084E+01  0.10185955020E+02  0.51100000000E-03 0. -1.
        -11    1    3    3    0    0 -0.96040295113E+00 -0.73263620101E+00  0.14521593925E+01  0.18888877134E+01  0.51100000000E-03 0.  1.
         12    1    3    3    0    0  0.16514010134E+02  0.30531189436E+02 -0.83971100032E+01  0.35712428025E+02  0.00000000000E+00 0. -1.
</event>
<event>
 7    1  0.2414091E-009  0.4778727E+02  0.7816164E-02  0.1312668E+00
        -11   -1    0    0    0    0  0.00000000000E+00  0.00000000000E+00  0.45593999997E+02  0.45594000000E+02  0.51100000000E-03 0.  1.
         11   -1    0    0    0    0 -0.00000000000E+00 -0.00000000000E+00 -0.45593999997E+02  0.45594000000E+02  0.51100000000E-03 0. -1.
    9900012    2    1    2    0    0 -0.34539237320E+02  0.22677690298E+02 -0.13281081933E+02  0.47787266259E+02  0.19999978183E+02 0.  0.
         12    1    1    2    0    0  0.34539237320E+02 -0.22677690298E+02  0.13281081933E+02  0.43400733741E+02  0.00000000000E+00 0. -1.
         11    1    3    3    0    0  0.46512543008E-01  0.68791479057E+01 -0.51524139529E+00  0.68985732787E+01  0.51100000000E-03 0. -1.
        -11    1    3    3    0    0 -0.13857351660E+02  0.92623946944E+01 -0.25092816309E+01  0.16855700669E+02  0.51100000000E-03 0.  1.
         12    1    3    3    0    0 -0.20728398204E+02  0.65361476977E+01 -0.10256558907E+02  0.24032992311E+02  0.00000000000E+00 0. -1.
</event>
<event>
 7    1  0.2414091E-009  0.4778727E+02  0.7816164E-02  0.1312668E+00
        -11   -1    0    0    0    0  0.00000000000E+00  0.00000000000E+00  0.45593999997E+02  0.45594000000E+02  0.51100000000E-03 0.  1.
         11   -1    0    0    0    0 -0.00000000000E+00 -0.00000000000E+00 -0.45593999997E+02  0.45594000000E+02  0.51100000000E-03 0. -1.
    9900012    2    1    2    0    0 -0.14861452991E+02 -0.34840198795E+01  0.40627852578E+02  0.47787267465E+02  0.19999983679E+02 0.  0.
         12    1    1    2    0    0  0.14861452991E+02  0.34840198795E+01 -0.40627852578E+02  0.43400732535E+02  0.00000000000E+00 0. -1.
         11    1    3    3    0    0  0.21823164359E+01  0.41803226850E+00  0.66831893643E+01  0.70428883524E+01  0.51100000000E-03 0. -1.
        -11    1    3    3    0    0 -0.70494826142E+00  0.23567538075E+01  0.13993257676E+02  0.14207832390E+02  0.51100000000E-03 0.  1.
        -12    1    3    3    0    0 -0.16338821165E+02 -0.62588059554E+01  0.19951405537E+02  0.26536546723E+02  0.00000000000E+00 0.  1.
</event>
<event>
 7    1  0.2414091E-009  0.4778727E+02  0.7816164E-02  0.1312668E+00
        -11   -1    0    0    0    0  0.00000000000E+00  0.00000000000E+00  0.45593999997E+02  0.45594000000E+02  0.51100000000E-03 0. -1.
         11   -1    0    0    0    0 -0.00000000000E+00 -0.00000000000E+00 -0.45593999997E+02  0.45594000000E+02  0.51100000000E-03 0.  1.
    9900012    2    1    2    0    0  0.14255945954E+02 -0.25093404674E+02 -0.32414691390E+02  0.47787272228E+02  0.20000005398E+02 0.  0.
         12    1    1    2    0    0 -0.14255945954E+02  0.25093404674E+02  0.32414691390E+02  0.43400727772E+02  0.00000000000E+00 0. -1.
         11    1    3    3    0    0 -0.20115555817E+01 -0.34010421302E+01 -0.28985563445E+01  0.49005175821E+01  0.51100000000E-03 0. -1.
        -11    1    3    3    0    0  0.32581332010E+01 -0.89576205111E+01 -0.20421754606E+02  0.22536691386E+02  0.51100000000E-03 0.  1.
         12    1    3    3    0    0  0.13009368335E+02 -0.12734742033E+02 -0.90943804399E+01  0.20350063260E+02  0.00000000000E+00 0. -1.
</event>
<event>
 7    1  0.2414091E-009  0.4778727E+02  0.7816164E-02  0.1312668E+00
        -11   -1    0    0    0    0  0.00000000000E+00  0.00000000000E+00  0.45593999997E+02  0.45594000000E+02  0.51100000000E-03 0. -1.
         11   -1    0    0    0    0 -0.00000000000E+00 -0.00000000000E+00 -0.45593999997E+02  0.45594000000E+02  0.51100000000E-03 0.  1.
    9900012    2    1    2    0    0  0.32836805650E+02 -0.10688766828E+01 -0.28358861982E+02  0.47787270104E+02  0.19999995710E+02 0.  0.
         12    1    1    2    0    0 -0.32836805650E+02  0.10688766828E+01  0.28358861982E+02  0.43400729896E+02  0.00000000000E+00 0. -1.
         11    1    3    3    0    0  0.16545421641E+02 -0.40843716912E+01 -0.13642817684E+02  0.21830243792E+02  0.51100000000E-03 0. -1.
        -11    1    3    3    0    0  0.17467299833E+02  0.57377700473E+01 -0.12169384207E+02  0.22048185431E+02  0.51100000000E-03 0.  1.
         12    1    3    3    0    0 -0.11759158240E+01 -0.27222750389E+01 -0.25466600902E+01  0.39088408803E+01  0.00000000000E+00 0. -1.
</event>
<event>
 7    1  0.2414091E-009  0.4778727E+02  0.7816164E-02  0.1312668E+00
        -11   -1    0    0    0    0  0.00000000000E+00  0.00000000000E+00  0.45593999997E+02  0.45594000000E+02  0.51100000000E-03 0.  1.
         11   -1    0    0    0    0 -0.00000000000E+00 -0.00000000000E+00 -0.45593999997E+02  0.45594000000E+02  0.51100000000E-03 0. -1.
    9900012    2    1    2    0    0 -0.34583835535E+02  0.19867639186E+02 -0.17113117302E+02  0.47787267852E+02  0.19999985446E+02 0.  0.
         12    1    1    2    0    0  0.34583835535E+02 -0.19867639186E+02  0.17113117302E+02  0.43400732148E+02  0.00000000000E+00 0. -1.
         11    1    3    3    0    0 -0.10191530962E+02  0.10828820812E+02 -0.13504139376E+02  0.20087121349E+02  0.51100000000E-03 0. -1.
        -11    1    3    3    0    0 -0.52588784522E+01  0.60862137940E+01 -0.19007508242E+01  0.82650260059E+01  0.51100000000E-03 0.  1.
        -12    1    3    3    0    0 -0.19133426121E+02  0.29526045804E+01 -0.17082271013E+01  0.19435120498E+02  0.00000000000E+00 0.  1.
</event>
<event>
 7    1  0.2414091E-009  0.4778727E+02  0.7816164E-02  0.1312668E+00
        -11   -1    0    0    0    0  0.00000000000E+00  0.00000000000E+00  0.45593999997E+02  0.45594000000E+02  0.51100000000E-03 0. -1.
         11   -1    0    0    0    0 -0.00000000000E+00 -0.00000000000E+00 -0.45593999997E+02  0.45594000000E+02  0.51100000000E-03 0.  1.
    9900012    2    1    2    0    0  0.30685511442E+02 -0.39435371690E+01  0.30437987373E+02  0.47787272204E+02  0.20000005287E+02 0.  0.
         12    1    1    2    0    0 -0.30685511442E+02  0.39435371690E+01 -0.30437987373E+02  0.43400727796E+02  0.00000000000E+00 0. -1.
         11    1    3    3    0    0  0.32508161105E+01 -0.35152969232E+01  0.60120623556E+01  0.76857017813E+01  0.51100000000E-03 0. -1.
        -11    1    3    3    0    0  0.60637062814E+00 -0.40280470050E+01  0.75493699070E+00  0.41427983458E+01  0.51100000000E-03 0.  1.
        -12    1    3    3    0    0  0.26828324704E+02  0.35998067592E+01  0.23670988027E+02  0.35958772077E+02  0.00000000000E+00 0.  1.
</event>
<event>
 7    1  0.2414091E-009  0.4778729E+02  0.7816164E-02  0.1312668E+00
        -11   -1    0    0    0    0  0.00000000000E+00  0.00000000000E+00  0.45593999997E+02  0.45594000000E+02  0.51100000000E-03 0.  1.
         11   -1    0    0    0    0 -0.00000000000E+00 -0.00000000000E+00 -0.45593999997E+02  0.45594000000E+02  0.51100000000E-03 0. -1.
    9900012    2    1    2    0    0  0.11233140746E+02  0.33710657995E+02  0.24920460139E+02  0.47787294394E+02  0.20000106461E+02 0.  0.
         12    1    1    2    0    0 -0.11233140746E+02 -0.33710657995E+02 -0.24920460139E+02  0.43400705606E+02  0.00000000000E+00 0. -1.
         11    1    3    3    0    0  0.26421867457E+01  0.31395604324E-01  0.41007042313E+01  0.48783103568E+01  0.51100000000E-03 0. -1.
        -11    1    3    3    0    0  0.19514773777E+01  0.12783188269E+01 -0.17081223343E+01  0.28913742666E+01  0.51100000000E-03 0.  1.
        -12    1    3    3    0    0  0.66394766229E+01  0.32400943564E+02  0.22527878242E+02  0.40017609771E+02  0.00000000000E+00 0.  1.
</event>
<event>
 7    1  0.2414091E-009  0.4778724E+02  0.7816164E-02  0.1312668E+00
        -11   -1    0    0    0    0  0.00000000000E+00  0.00000000000E+00  0.45593999997E+02  0.45594000000E+02  0.51100000000E-03 0.  1.
         11   -1    0    0    0    0 -0.00000000000E+00 -0.00000000000E+00 -0.45593999997E+02  0.45594000000E+02  0.51100000000E-03 0. -1.
    9900012    2    1    2    0    0 -0.26597457194E+01  0.40438250320E+02 -0.15533826674E+02  0.47787238401E+02  0.19999851167E+02 0.  0.
         12    1    1    2    0    0  0.26597457194E+01 -0.40438250320E+02  0.15533826674E+02  0.43400761599E+02  0.00000000000E+00 0. -1.
         11    1    3    3    0    0 -0.32955311501E+00  0.40817525934E+01 -0.46370404111E+01  0.61863926100E+01  0.51100000000E-03 0. -1.
        -11    1    3    3    0    0  0.46004121578E+00  0.36635557901E+02 -0.78688836781E+01  0.37473925218E+02  0.51100000000E-03 0.  1.
        -12    1    3    3    0    0 -0.27902338202E+01 -0.27906017532E+00 -0.30279025849E+01  0.41269205731E+01  0.00000000000E+00 0.  1.
</event>
<event>
 7    1  0.2414091E-009  0.4778727E+02  0.7816164E-02  0.1312668E+00
        -11   -1    0    0    0    0  0.00000000000E+00  0.00000000000E+00  0.45593999997E+02  0.45594000000E+02  0.51100000000E-03 0.  1.
         11   -1    0    0    0    0 -0.00000000000E+00 -0.00000000000E+00 -0.45593999997E+02  0.45594000000E+02  0.51100000000E-03 0. -1.
    9900012    2    1    2    0    0 -0.13354549098E+02  0.39894054382E+02  0.10665082198E+02  0.47787268037E+02  0.19999986287E+02 0.  0.
         12    1    1    2    0    0  0.13354549098E+02 -0.39894054382E+02 -0.10665082198E+02  0.43400731963E+02  0.00000000000E+00 0. -1.
         11    1    3    3    0    0 -0.35540408969E+01  0.14365257298E+02  0.25579537366E+01  0.15017821131E+02  0.51100000000E-03 0. -1.
        -11    1    3    3    0    0 -0.13876217495E+02  0.19585175698E+02  0.36047984344E+01  0.24271858007E+02  0.51100000000E-03 0.  1.
         12    1    3    3    0    0  0.40757092936E+01  0.59436213865E+01  0.45023300275E+01  0.84975888997E+01  0.00000000000E+00 0. -1.
</event>
<event>
 7    1  0.2414091E-009  0.4778727E+02  0.7816164E-02  0.1312668E+00
        -11   -1    0    0    0    0  0.00000000000E+00  0.00000000000E+00  0.45593999997E+02  0.45594000000E+02  0.51100000000E-03 0. -1.
         11   -1    0    0    0    0 -0.00000000000E+00 -0.00000000000E+00 -0.45593999997E+02  0.45594000000E+02  0.51100000000E-03 0.  1.
    9900012    2    1    2    0    0  0.79293371020E+01 -0.12324144868E+02 -0.40851737096E+02  0.47787270083E+02  0.19999995616E+02 0.  0.
         12    1    1    2    0    0 -0.79293371020E+01  0.12324144868E+02  0.40851737096E+02  0.43400729917E+02  0.00000000000E+00 0. -1.
         11    1    3    3    0    0 -0.10454735306E+00  0.23302667252E+00 -0.18005431069E+02  0.18007242427E+02  0.51100000000E-03 0. -1.
        -11    1    3    3    0    0 -0.27658497841E+01 -0.17354667495E+01 -0.71919393131E+01  0.78984657504E+01  0.51100000000E-03 0.  1.
        -12    1    3    3    0    0  0.10799734239E+02 -0.10821704791E+02 -0.15654366713E+02  0.21881561905E+02  0.00000000000E+00 0.  1.
</event>
<event>
 7    1  0.2414091E-009  0.4778727E+02  0.7816164E-02  0.1312668E+00
        -11   -1    0    0    0    0  0.00000000000E+00  0.00000000000E+00  0.45593999997E+02  0.45594000000E+02  0.51100000000E-03 0.  1.
         11   -1    0    0    0    0 -0.00000000000E+00 -0.00000000000E+00 -0.45593999997E+02  0.45594000000E+02  0.51100000000E-03 0. -1.
    9900012    2    1    2    0    0  0.41034265633E+02  0.47150499848E+01  0.13325937126E+02  0.47787271289E+02  0.20000001114E+02 0.  0.
         12    1    1    2    0    0 -0.41034265633E+02 -0.47150499848E+01 -0.13325937126E+02  0.43400728711E+02  0.00000000000E+00 0. -1.
         11    1    3    3    0    0  0.10321322303E+02  0.75447394949E+01  0.27768536471E+01  0.13082954734E+02  0.51100000000E-03 0. -1.
        -11    1    3    3    0    0  0.15840774887E+02  0.42933713757E+01  0.35577275852E+01  0.16793469345E+02  0.51100000000E-03 0.  1.
        -12    1    3    3    0    0  0.14872168442E+02 -0.71230608857E+01  0.69913558934E+01  0.17910847210E+02  0.00000000000E+00 0.  1.
</event>
<event>
 7    1  0.2414091E-009  0.4778726E+02  0.7816164E-02  0.1312668E+00
        -11   -1    0    0    0    0  0.00000000000E+00  0.00000000000E+00  0.45593999997E+02  0.45594000000E+02  0.51100000000E-03 0.  1.
         11   -1    0    0    0    0 -0.00000000000E+00 -0.00000000000E+00 -0.45593999997E+02  0.45594000000E+02  0.51100000000E-03 0. -1.
    9900012    2    1    2    0    0 -0.28926825959E+02 -0.40141114753E+01  0.32105300121E+02  0.47787255227E+02  0.19999927882E+02 0.  0.
         12    1    1    2    0    0  0.28926825959E+02  0.40141114753E+01 -0.32105300121E+02  0.43400744773E+02  0.00000000000E+00 0. -1.
         11    1    3    3    0    0 -0.26528636333E+01  0.11847072298E+01  0.32860354838E+01  0.43862565063E+01  0.51100000000E-03 0. -1.
        -11    1    3    3    0    0 -0.23470764920E+02 -0.66550799731E+01  0.13749782773E+02  0.28003989394E+02  0.51100000000E-03 0.  1.
         12    1    3    3    0    0 -0.28031974053E+01  0.14562612680E+01  0.15069481864E+02  0.15397009327E+02  0.00000000000E+00 0. -1.
</event>
<event>
 7    1  0.2414091E-009  0.4778728E+02  0.7816164E-02  0.1312668E+00
        -11   -1    0    0    0    0  0.00000000000E+00  0.00000000000E+00  0.45593999997E+02  0.45594000000E+02  0.51100000000E-03 0.  1.
         11   -1    0    0    0    0 -0.00000000000E+00 -0.00000000000E+00 -0.45593999997E+02  0.45594000000E+02  0.51100000000E-03 0. -1.
    9900012    2    1    2    0    0  0.29372630783E+02  0.23309491272E+02 -0.21852666977E+02  0.47787275622E+02  0.20000020872E+02 0.  0.
         12    1    1    2    0    0 -0.29372630783E+02 -0.23309491272E+02  0.21852666977E+02  0.43400724378E+02  0.00000000000E+00 0. -1.
         11    1    3    3    0    0  0.36428163037E+01 -0.61227050648E+00  0.23089749594E+00  0.37011214125E+01  0.51100000000E-03 0. -1.
        -11    1    3    3    0    0  0.60573214517E+01  0.23836051110E+01  0.13755187151E+01  0.66531773230E+01  0.51100000000E-03 0.  1.
         12    1    3    3    0    0  0.19672493028E+02  0.21538156668E+02 -0.23459083188E+02  0.37432976887E+02  0.00000000000E+00 0. -1.
</event>
<event>
 7    1  0.2414091E-009  0.4778728E+02  0.7816164E-02  0.1312668E+00
        -11   -1    0    0    0    0  0.00000000000E+00  0.00000000000E+00  0.45593999997E+02  0.45594000000E+02  0.51100000000E-03 0.  1.
         11   -1    0    0    0    0 -0.00000000000E+00 -0.00000000000E+00 -0.45593999997E+02  0.45594000000E+02  0.51100000000E-03 0. -1.
    9900012    2    1    2    0    0  0.12882884452E+02  0.17272149276E+02  0.37673956475E+02  0.47787275941E+02  0.20000022324E+02 0.  0.
         12    1    1    2    0    0 -0.12882884452E+02 -0.17272149276E+02 -0.37673956475E+02  0.43400724059E+02  0.00000000000E+00 0. -1.
         11    1    3    3    0    0 -0.19241283393E+01  0.41068084877E+01  0.24258277256E+01  0.51432272200E+01  0.51100000000E-03 0. -1.
        -11    1    3    3    0    0  0.15880504218E+02  0.93760057713E+01  0.33692628658E+02  0.38409544706E+02  0.51100000000E-03 0.  1.
        -12    1    3    3    0    0 -0.10734914264E+01  0.37893350169E+01  0.15555000915E+01  0.42345040144E+01  0.00000000000E+00 0.  1.
</event>
<event>
 7    1  0.2414091E-009  0.4778728E+02  0.7816164E-02  0.1312668E+00
        -11   -1    0    0    0    0  0.00000000000E+00  0.00000000000E+00  0.45593999997E+02  0.45594000000E+02  0.51100000000E-03 0.  1.
         11   -1    0    0    0    0 -0.00000000000E+00 -0.00000000000E+00 -0.45593999997E+02  0.45594000000E+02  0.51100000000E-03 0. -1.
    9900012    2    1    2    0    0  0.39850650350E+02 -0.13755274759E+02  0.10312163748E+02  0.47787278368E+02  0.20000033391E+02 0.  0.
         12    1    1    2    0    0 -0.39850650350E+02  0.13755274759E+02 -0.10312163748E+02  0.43400721632E+02  0.00000000000E+00 0. -1.
         11    1    3    3    0    0  0.81348298751E+01 -0.46680733528E+01  0.70135921541E+01  0.11711397914E+02  0.51100000000E-03 0. -1.
        -11    1    3    3    0    0  0.22754810789E+02 -0.10966043760E+02  0.69824809806E+01  0.26206689426E+02  0.51100000000E-03 0.  1.
         12    1    3    3    0    0  0.89610096859E+01  0.18788423540E+01 -0.36839093863E+01  0.98691910281E+01  0.00000000000E+00 0. -1.
</event>
<event>
 7    1  0.2414091E-009  0.4778727E+02  0.7816164E-02  0.1312668E+00
        -11   -1    0    0    0    0  0.00000000000E+00  0.00000000000E+00  0.45593999997E+02  0.45594000000E+02  0.51100000000E-03 0.  1.
         11   -1    0    0    0    0 -0.00000000000E+00 -0.00000000000E+00 -0.45593999997E+02  0.45594000000E+02  0.51100000000E-03 0. -1.
    9900012    2    1    2    0    0  0.42290949554E+01  0.11512320059E+02  0.41631772048E+02  0.47787271882E+02  0.20000003819E+02 0.  0.
         12    1    1    2    0    0 -0.42290949554E+01 -0.11512320059E+02 -0.41631772048E+02  0.43400728118E+02  0.00000000000E+00 0. -1.
         11    1    3    3    0    0 -0.76544771088E+00  0.12741636061E+01  0.20972440731E+01  0.25705711538E+01  0.51100000000E-03 0. -1.
        -11    1    3    3    0    0  0.10042615316E+01 -0.48160750543E+01  0.17872226751E+02  0.18536979513E+02  0.51100000000E-03 0.  1.
        -12    1    3    3    0    0  0.39902811347E+01  0.15054231508E+02  0.21662301224E+02  0.26679721216E+02  0.00000000000E+00 0.  1.
</event>
<event>
 7    1  0.2414091E-009  0.4778727E+02  0.7816164E-02  0.1312668E+00
        -11   -1    0    0    0    0  0.00000000000E+00  0.00000000000E+00  0.45593999997E+02  0.45594000000E+02  0.51100000000E-03 0. -1.
         11   -1    0    0    0    0 -0.00000000000E+00 -0.00000000000E+00 -0.45593999997E+02  0.45594000000E+02  0.51100000000E-03 0.  1.
    9900012    2    1    2    0    0  0.97597963704E+01  0.35050924853E+02 -0.23660140145E+02  0.47787272012E+02  0.20000004411E+02 0.  0.
         12    1    1    2    0    0 -0.97597963704E+01 -0.35050924853E+02  0.23660140145E+02  0.43400727988E+02  0.00000000000E+00 0. -1.
         11    1    3    3    0    0  0.52346004550E+00  0.27304843280E+02 -0.14122638771E+02  0.30745363929E+02  0.51100000000E-03 0.  1.
        -11    1    3    3    0    0 -0.11976252661E+01  0.11694145903E+01 -0.48527452250E+00  0.17427932710E+01  0.51100000000E-03 0. -1.
        -12    1    3    3    0    0  0.10433961591E+02  0.65766669818E+01 -0.90522268512E+01  0.15299114812E+02  0.00000000000E+00 0.  1.
</event>
<event>
 7    1  0.2414091E-009  0.4778727E+02  0.7816164E-02  0.1312668E+00
        -11   -1    0    0    0    0  0.00000000000E+00  0.00000000000E+00  0.45593999997E+02  0.45594000000E+02  0.51100000000E-03 0.  1.
         11   -1    0    0    0    0 -0.00000000000E+00 -0.00000000000E+00 -0.45593999997E+02  0.45594000000E+02  0.51100000000E-03 0. -1.
    9900012    2    1    2    0    0  0.22649278551E+02 -0.34445349041E+02 -0.13570241616E+02  0.47787270202E+02  0.19999996159E+02 0.  0.
         12    1    1    2    0    0 -0.22649278551E+02  0.34445349041E+02  0.13570241616E+02  0.43400729798E+02  0.00000000000E+00 0. -1.
         11    1    3    3    0    0  0.60219983146E+01 -0.14367653820E+02  0.10175190767E+00  0.15578969597E+02  0.51100000000E-03 0. -1.
        -11    1    3    3    0    0  0.43723119937E+01 -0.14899582267E+02 -0.49403991867E+01  0.16294852202E+02  0.51100000000E-03 0.  1.
         12    1    3    3    0    0  0.12254968243E+02 -0.51781129540E+01 -0.87315943369E+01  0.15913448403E+02  0.00000000000E+00 0. -1.
</event>
<event>
 7    1  0.2414091E-009  0.4778728E+02  0.7816164E-02  0.1312668E+00
        -11   -1    0    0    0    0  0.00000000000E+00  0.00000000000E+00  0.45593999997E+02  0.45594000000E+02  0.51100000000E-03 0. -1.
         11   -1    0    0    0    0 -0.00000000000E+00 -0.00000000000E+00 -0.45593999997E+02  0.45594000000E+02  0.51100000000E-03 0.  1.
    9900012    2    1    2    0    0  0.18756966702E+02  0.50361915851E+01 -0.38812827752E+02  0.47787278536E+02  0.20000034155E+02 0.  0.
         12    1    1    2    0    0 -0.18756966702E+02 -0.50361915851E+01  0.38812827752E+02  0.43400721464E+02  0.00000000000E+00 0. -1.
         11    1    3    3    0    0 -0.44925664406E+00  0.56424557580E+01 -0.23209394819E+01  0.61176710318E+01  0.51100000000E-03 0. -1.
        -11    1    3    3    0    0  0.45462998517E+01  0.23148119298E+01 -0.10830337003E+02  0.11971774993E+02  0.51100000000E-03 0.  1.
        -12    1    3    3    0    0  0.14659923494E+02 -0.29210761026E+01 -0.25661551267E+02  0.29697832511E+02  0.00000000000E+00 0.  1.
</event>
<event>
 7    1  0.2414091E-009  0.4778727E+02  0.7816164E-02  0.1312668E+00
        -11   -1    0    0    0    0  0.00000000000E+00  0.00000000000E+00  0.45593999997E+02  0.45594000000E+02  0.51100000000E-03 0.  1.
         11   -1    0    0    0    0 -0.00000000000E+00 -0.00000000000E+00 -0.45593999997E+02  0.45594000000E+02  0.51100000000E-03 0. -1.
    9900012    2    1    2    0    0  0.42649144682E+02  0.46349832516E+01 -0.65719961309E+01  0.47787265617E+02  0.19999975255E+02 0.  0.
         12    1    1    2    0    0 -0.42649144682E+02 -0.46349832516E+01  0.65719961309E+01  0.43400734383E+02  0.00000000000E+00 0. -1.
         11    1    3    3    0    0  0.73112769452E+01  0.50991614742E+01 -0.36185722318E+01  0.96203057939E+01  0.51100000000E-03 0. -1.
        -11    1    3    3    0    0  0.46069281027E+01  0.33776607494E+00 -0.56610727711E+01  0.73065462186E+01  0.51100000000E-03 0.  1.
        -12    1    3    3    0    0  0.30730939634E+02 -0.80194429753E+00  0.27076488720E+01  0.30860413605E+02  0.00000000000E+00 0.  1.
</event>
<event>
 7    1  0.2414091E-009  0.4778722E+02  0.7816164E-02  0.1312668E+00
        -11   -1    0    0    0    0  0.00000000000E+00  0.00000000000E+00  0.45593999997E+02  0.45594000000E+02  0.51100000000E-03 0.  1.
         11   -1    0    0    0    0 -0.00000000000E+00 -0.00000000000E+00 -0.45593999997E+02  0.45594000000E+02  0.51100000000E-03 0. -1.
    9900012    2    1    2    0    0  0.16656341697E+02 -0.39873600852E+02 -0.40361060515E+01  0.47787217569E+02  0.19999756180E+02 0.  0.
         12    1    1    2    0    0 -0.16656341697E+02  0.39873600852E+02  0.40361060515E+01  0.43400782431E+02  0.00000000000E+00 0. -1.
         11    1    3    3    0    0 -0.96020384499E+00 -0.45791941121E+01 -0.33425052847E+01  0.57500740847E+01  0.51100000000E-03 0. -1.
        -11    1    3    3    0    0  0.48451386536E+01 -0.17982767137E+02 -0.65485527336E+01  0.19741804012E+02  0.51100000000E-03 0.  1.
        -12    1    3    3    0    0  0.12771406888E+02 -0.17311639603E+02  0.58549519668E+01  0.22295339472E+02  0.00000000000E+00 0.  1.
</event>
<event>
 7    1  0.2414091E-009  0.4778728E+02  0.7816164E-02  0.1312668E+00
        -11   -1    0    0    0    0  0.00000000000E+00  0.00000000000E+00  0.45593999997E+02  0.45594000000E+02  0.51100000000E-03 0.  1.
         11   -1    0    0    0    0 -0.00000000000E+00 -0.00000000000E+00 -0.45593999997E+02  0.45594000000E+02  0.51100000000E-03 0. -1.
    9900012    2    1    2    0    0 -0.16298536374E+02 -0.26397085034E+02  0.30350857140E+02  0.47787275174E+02  0.20000018830E+02 0.  0.
         12    1    1    2    0    0  0.16298536374E+02  0.26397085034E+02 -0.30350857140E+02  0.43400724826E+02  0.00000000000E+00 0. -1.
         11    1    3    3    0    0 -0.21669662604E+01 -0.77801271472E+01  0.10717003300E+01  0.81470646897E+01  0.51100000000E-03 0. -1.
        -11    1    3    3    0    0  0.11217848240E+01 -0.59724112729E+01  0.11559444470E+02  0.13059435452E+02  0.51100000000E-03 0.  1.
        -12    1    3    3    0    0 -0.15253354937E+02 -0.12644546614E+02  0.17719712340E+02  0.26580775033E+02  0.00000000000E+00 0.  1.
</event>
<event>
 7    1  0.2414091E-009  0.4778727E+02  0.7816164E-02  0.1312668E+00
        -11   -1    0    0    0    0  0.00000000000E+00  0.00000000000E+00  0.45593999997E+02  0.45594000000E+02  0.51100000000E-03 0.  1.
         11   -1    0    0    0    0 -0.00000000000E+00 -0.00000000000E+00 -0.45593999997E+02  0.45594000000E+02  0.51100000000E-03 0. -1.
    9900012    2    1    2    0    0 -0.36212099198E+02 -0.12872548928E+02  0.20164438276E+02  0.47787271721E+02  0.20000003084E+02 0.  0.
         12    1    1    2    0    0  0.36212099198E+02  0.12872548928E+02 -0.20164438276E+02  0.43400728279E+02  0.00000000000E+00 0. -1.
         11    1    3    3    0    0 -0.48437165332E+01 -0.30205479660E+01 -0.15607171846E+01  0.59178660225E+01  0.51100000000E-03 0. -1.
        -11    1    3    3    0    0 -0.15920158423E+02 -0.68203750059E+01  0.32940187900E+01  0.17630074291E+02  0.51100000000E-03 0.  1.
        -12    1    3    3    0    0 -0.15448224241E+02 -0.30316259557E+01  0.18431136670E+02  0.24239331408E+02  0.00000000000E+00 0.  1.
</event>
<event>
 7    1  0.2414091E-009  0.4778727E+02  0.7816164E-02  0.1312668E+00
        -11   -1    0    0    0    0  0.00000000000E+00  0.00000000000E+00  0.45593999997E+02  0.45594000000E+02  0.51100000000E-03 0. -1.
         11   -1    0    0    0    0 -0.00000000000E+00 -0.00000000000E+00 -0.45593999997E+02  0.45594000000E+02  0.51100000000E-03 0.  1.
    9900012    2    1    2    0    0 -0.14094195561E+02  0.27583767503E+02 -0.30399223295E+02  0.47787270109E+02  0.19999995733E+02 0.  0.
         12    1    1    2    0    0  0.14094195561E+02 -0.27583767503E+02  0.30399223295E+02  0.43400729891E+02  0.00000000000E+00 0. -1.
         11    1    3    3    0    0 -0.11957796619E+00  0.65715638144E+01 -0.48852423328E+01  0.81893432440E+01  0.51100000000E-03 0. -1.
        -11    1    3    3    0    0 -0.12051162599E+02  0.23661832469E+02 -0.20231442212E+02  0.33382991029E+02  0.51100000000E-03 0.  1.
         12    1    3    3    0    0 -0.19234549957E+01 -0.26496287807E+01 -0.52825387502E+01  0.62149358358E+01  0.00000000000E+00 0. -1.
</event>
<event>
 7    1  0.2414091E-009  0.4778726E+02  0.7816164E-02  0.1312668E+00
        -11   -1    0    0    0    0  0.00000000000E+00  0.00000000000E+00  0.45593999997E+02  0.45594000000E+02  0.51100000000E-03 0. -1.
         11   -1    0    0    0    0 -0.00000000000E+00 -0.00000000000E+00 -0.45593999997E+02  0.45594000000E+02  0.51100000000E-03 0.  1.
    9900012    2    1    2    0    0 -0.39903312082E+02 -0.51369376806E+01 -0.16277638232E+02  0.47787263252E+02  0.19999964470E+02 0.  0.
         12    1    1    2    0    0  0.39903312082E+02  0.51369376806E+01  0.16277638232E+02  0.43400736748E+02  0.00000000000E+00 0. -1.
         11    1    3    3    0    0 -0.24744373955E+02 -0.22849717275E+01 -0.13383869630E+02  0.28224689631E+02  0.51100000000E-03 0. -1.
        -11    1    3    3    0    0 -0.12389987340E+02  0.11420880301E+01 -0.59805275919E+01  0.13805175185E+02  0.51100000000E-03 0.  1.
         12    1    3    3    0    0 -0.27689507876E+01 -0.39940539831E+01  0.30867589905E+01  0.57573984359E+01  0.00000000000E+00 0. -1.
</event>
<event>
 7    1  0.2414091E-009  0.4778727E+02  0.7816164E-02  0.1312668E+00
        -11   -1    0    0    0    0  0.00000000000E+00  0.00000000000E+00  0.45593999997E+02  0.45594000000E+02  0.51100000000E-03 0.  1.
         11   -1    0    0    0    0 -0.00000000000E+00 -0.00000000000E+00 -0.45593999997E+02  0.45594000000E+02  0.51100000000E-03 0. -1.
    9900012    2    1    2    0    0  0.15421249672E+02  0.18994826331E+02  0.35846968521E+02  0.47787268199E+02  0.19999987026E+02 0.  0.
         12    1    1    2    0    0 -0.15421249672E+02 -0.18994826331E+02 -0.35846968521E+02  0.43400731801E+02  0.00000000000E+00 0. -1.
         11    1    3    3    0    0  0.60067808828E+01  0.92515173888E+01  0.22151102736E+02  0.24745572194E+02  0.51100000000E-03 0. -1.
        -11    1    3    3    0    0 -0.18043554140E+01  0.57981901220E+01  0.74426158825E+01  0.96055837192E+01  0.51100000000E-03 0.  1.
         12    1    3    3    0    0  0.11218824203E+02  0.39451188197E+01  0.62532499026E+01  0.13436112285E+02  0.00000000000E+00 0. -1.
</event>
<event>
 7    1  0.2414091E-009  0.4778727E+02  0.7816164E-02  0.1312668E+00
        -11   -1    0    0    0    0  0.00000000000E+00  0.00000000000E+00  0.45593999997E+02  0.45594000000E+02  0.51100000000E-03 0. -1.
         11   -1    0    0    0    0 -0.00000000000E+00 -0.00000000000E+00 -0.45593999997E+02  0.45594000000E+02  0.51100000000E-03 0.  1.
    9900012    2    1    2    0    0  0.29507404825E+02 -0.27147222930E+02 -0.16612182803E+02  0.47787271091E+02  0.20000000213E+02 0.  0.
         12    1    1    2    0    0 -0.29507404825E+02  0.27147222930E+02  0.16612182803E+02  0.43400728909E+02  0.00000000000E+00 0. -1.
         11    1    3    3    0    0  0.44067695199E+01  0.34092205271E+00  0.12783989897E+01  0.46011030944E+01  0.51100000000E-03 0. -1.
        -11    1    3    3    0    0  0.18563153861E+02 -0.15179834438E+02 -0.56476434495E+01  0.24635623224E+02  0.51100000000E-03 0.  1.
        -12    1    3    3    0    0  0.65374814446E+01 -0.12308310545E+02 -0.12242938343E+02  0.18550544773E+02  0.00000000000E+00 0.  1.
</event>
<event>
 7    1  0.2414091E-009  0.4778727E+02  0.7816164E-02  0.1312668E+00
        -11   -1    0    0    0    0  0.00000000000E+00  0.00000000000E+00  0.45593999997E+02  0.45594000000E+02  0.51100000000E-03 0. -1.
         11   -1    0    0    0    0 -0.00000000000E+00 -0.00000000000E+00 -0.45593999997E+02  0.45594000000E+02  0.51100000000E-03 0.  1.
    9900012    2    1    2    0    0 -0.13425192210E+02  0.40311916144E+02 -0.88508122530E+01  0.47787271359E+02  0.20000001433E+02 0.  0.
         12    1    1    2    0    0  0.13425192210E+02 -0.40311916144E+02  0.88508122530E+01  0.43400728641E+02  0.00000000000E+00 0. -1.
         11    1    3    3    0    0  0.25168452298E+01  0.49140235216E+01 -0.45394315667E+01  0.71476273190E+01  0.51100000000E-03 0. -1.
        -11    1    3    3    0    0 -0.11194464343E+02  0.12741112877E+02 -0.42749253114E+01  0.17490768306E+02  0.51100000000E-03 0.  1.
         12    1    3    3    0    0 -0.47475730966E+01  0.22656779745E+02 -0.36455374875E-01  0.23148875733E+02  0.00000000000E+00 0. -1.
</event>
<event>
 7    1  0.2414091E-009  0.4778727E+02  0.7816164E-02  0.1312668E+00
        -11   -1    0    0    0    0  0.00000000000E+00  0.00000000000E+00  0.45593999997E+02  0.45594000000E+02  0.51100000000E-03 0. -1.
         11   -1    0    0    0    0 -0.00000000000E+00 -0.00000000000E+00 -0.45593999997E+02  0.45594000000E+02  0.51100000000E-03 0.  1.
    9900012    2    1    2    0    0  0.36335608669E+02  0.19601828676E+02  0.13383397366E+02  0.47787268787E+02  0.19999989708E+02 0.  0.
         12    1    1    2    0    0 -0.36335608669E+02 -0.19601828676E+02 -0.13383397366E+02  0.43400731213E+02  0.00000000000E+00 0. -1.
         11    1    3    3    0    0  0.10803740165E+00 -0.85079410116E+00 -0.62772880148E+00  0.10628106097E+01  0.51100000000E-03 0. -1.
        -11    1    3    3    0    0  0.12273330468E+02  0.15824589609E+02  0.82313468367E+01  0.21651959451E+02  0.51100000000E-03 0.  1.
         12    1    3    3    0    0  0.23954240799E+02  0.46280331683E+01  0.57797793304E+01  0.25072498726E+02  0.00000000000E+00 0. -1.
</event>
<event>
 7    1  0.2414091E-009  0.4778728E+02  0.7816164E-02  0.1312668E+00
        -11   -1    0    0    0    0  0.00000000000E+00  0.00000000000E+00  0.45593999997E+02  0.45594000000E+02  0.51100000000E-03 0.  1.
         11   -1    0    0    0    0 -0.00000000000E+00 -0.00000000000E+00 -0.45593999997E+02  0.45594000000E+02  0.51100000000E-03 0. -1.
    9900012    2    1    2    0    0 -0.19520486983E+02  0.26856196787E+02  0.27952061100E+02  0.47787280678E+02  0.20000043923E+02 0.  0.
         12    1    1    2    0    0  0.19520486983E+02 -0.26856196787E+02 -0.27952061100E+02  0.43400719322E+02  0.00000000000E+00 0. -1.
         11    1    3    3    0    0 -0.33004069854E+01  0.41124563985E+01  0.10476580059E+02  0.11728755854E+02  0.51100000000E-03 0. -1.
        -11    1    3    3    0    0 -0.83678520064E+01  0.75634414613E+01  0.15032831128E+02  0.18793951312E+02  0.51100000000E-03 0.  1.
        -12    1    3    3    0    0 -0.78522279915E+01  0.15180298927E+02  0.24426499135E+01  0.17264573512E+02  0.00000000000E+00 0.  1.
</event>
<event>
 7    1  0.2414091E-009  0.4778727E+02  0.7816164E-02  0.1312668E+00
        -11   -1    0    0    0    0  0.00000000000E+00  0.00000000000E+00  0.45593999997E+02  0.45594000000E+02  0.51100000000E-03 0. -1.
         11   -1    0    0    0    0 -0.00000000000E+00 -0.00000000000E+00 -0.45593999997E+02  0.45594000000E+02  0.51100000000E-03 0.  1.
    9900012    2    1    2    0    0  0.35068700446E+01  0.32870262421E+02 -0.28122427751E+02  0.47787271530E+02  0.20000002213E+02 0.  0.
         12    1    1    2    0    0 -0.35068700446E+01 -0.32870262421E+02  0.28122427751E+02  0.43400728470E+02  0.00000000000E+00 0. -1.
         11    1    3    3    0    0 -0.21625218250E+01  0.23124820347E+01 -0.16576080108E+01  0.35737569004E+01  0.51100000000E-03 0. -1.
        -11    1    3    3    0    0  0.84576669815E+01  0.26281124033E+02 -0.14455214863E+02  0.31163806703E+02  0.51100000000E-03 0.  1.
        -12    1    3    3    0    0 -0.27882751119E+01  0.42766563528E+01 -0.12009604877E+02  0.13049707926E+02  0.00000000000E+00 0.  1.
</event>
<event>
 7    1  0.2414091E-009  0.4778727E+02  0.7816164E-02  0.1312668E+00
        -11   -1    0    0    0    0  0.00000000000E+00  0.00000000000E+00  0.45593999997E+02  0.45594000000E+02  0.51100000000E-03 0.  1.
         11   -1    0    0    0    0 -0.00000000000E+00 -0.00000000000E+00 -0.45593999997E+02  0.45594000000E+02  0.51100000000E-03 0. -1.
    9900012    2    1    2    0    0 -0.18776740073E+02 -0.33257968057E+02  0.20614677000E+02  0.47787270573E+02  0.19999997849E+02 0.  0.
         12    1    1    2    0    0  0.18776740073E+02  0.33257968057E+02 -0.20614677000E+02  0.43400729427E+02  0.00000000000E+00 0. -1.
         11    1    3    3    0    0 -0.98617814356E+01 -0.93843341320E+01  0.10900995856E+02  0.17439959034E+02  0.51100000000E-03 0. -1.
        -11    1    3    3    0    0 -0.12082089088E+02 -0.21644531334E+02  0.75585656228E+01  0.25915140901E+02  0.51100000000E-03 0.  1.
        -12    1    3    3    0    0  0.31671304509E+01 -0.22291025909E+01  0.21551155207E+01  0.44321706376E+01  0.00000000000E+00 0.  1.
</event>
<event>
 7    1  0.2414091E-009  0.4778726E+02  0.7816164E-02  0.1312668E+00
        -11   -1    0    0    0    0  0.00000000000E+00  0.00000000000E+00  0.45593999997E+02  0.45594000000E+02  0.51100000000E-03 0.  1.
         11   -1    0    0    0    0 -0.00000000000E+00 -0.00000000000E+00 -0.45593999997E+02  0.45594000000E+02  0.51100000000E-03 0. -1.
    9900012    2    1    2    0    0  0.19541161100E+02  0.21838963160E+02  0.32012919663E+02  0.47787259057E+02  0.19999945344E+02 0.  0.
         12    1    1    2    0    0 -0.19541161100E+02 -0.21838963160E+02 -0.32012919663E+02  0.43400740943E+02  0.00000000000E+00 0. -1.
         11    1    3    3    0    0  0.25809659262E+01 -0.23718891177E+01  0.10363823538E+00  0.35068481923E+01  0.51100000000E-03 0. -1.
        -11    1    3    3    0    0  0.87383092699E+01  0.13552824232E+02  0.23178377517E+02  0.28236045724E+02  0.51100000000E-03 0.  1.
        -12    1    3    3    0    0  0.82218859044E+01  0.10658028046E+02  0.87309039101E+01  0.16044365140E+02  0.00000000000E+00 0.  1.
</event>
<event>
 7    1  0.2414091E-009  0.4778727E+02  0.7816164E-02  0.1312668E+00
        -11   -1    0    0    0    0  0.00000000000E+00  0.00000000000E+00  0.45593999997E+02  0.45594000000E+02  0.51100000000E-03 0. -1.
         11   -1    0    0    0    0 -0.00000000000E+00 -0.00000000000E+00 -0.45593999997E+02  0.45594000000E+02  0.51100000000E-03 0.  1.
    9900012    2    1    2    0    0 -0.16186481719E+02  0.40235628205E+02  0.16477357275E+01  0.47787274194E+02  0.20000014358E+02 0.  0.
         12    1    1    2    0    0  0.16186481719E+02 -0.40235628205E+02 -0.16477357275E+01  0.43400725806E+02  0.00000000000E+00 0. -1.
         11    1    3    3    0    0 -0.11822128920E+02  0.96726605438E+01  0.50884743587E+01  0.16100175954E+02  0.51100000000E-03 0. -1.
        -11    1    3    3    0    0 -0.20465105152E+01  0.60254417183E+01  0.15282415922E+01  0.65444385408E+01  0.51100000000E-03 0.  1.
        -12    1    3    3    0    0 -0.23178422836E+01  0.24537525943E+02 -0.49689802233E+01  0.25142659699E+02  0.00000000000E+00 0.  1.
</event>
<event>
 7    1  0.2414091E-009  0.4778727E+02  0.7816164E-02  0.1312668E+00
        -11   -1    0    0    0    0  0.00000000000E+00  0.00000000000E+00  0.45593999997E+02  0.45594000000E+02  0.51100000000E-03 0.  1.
         11   -1    0    0    0    0 -0.00000000000E+00 -0.00000000000E+00 -0.45593999997E+02  0.45594000000E+02  0.51100000000E-03 0. -1.
    9900012    2    1    2    0    0  0.13914097263E+02 -0.14797939139E+02  0.38354169037E+02  0.47787269730E+02  0.19999994008E+02 0.  0.
         12    1    1    2    0    0 -0.13914097263E+02  0.14797939139E+02 -0.38354169037E+02  0.43400730270E+02  0.00000000000E+00 0. -1.
         11    1    3    3    0    0  0.11558172777E+01  0.13505320624E-01  0.62738610321E+01  0.63794536195E+01  0.51100000000E-03 0. -1.
        -11    1    3    3    0    0  0.15789752301E+02 -0.91384228428E+01  0.16684802107E+02  0.24722655023E+02  0.51100000000E-03 0.  1.
        -12    1    3    3    0    0 -0.30314723155E+01 -0.56730216169E+01  0.15395505899E+02  0.16685161088E+02  0.00000000000E+00 0.  1.
</event>
<event>
 7    1  0.2414091E-009  0.4778727E+02  0.7816164E-02  0.1312668E+00
        -11   -1    0    0    0    0  0.00000000000E+00  0.00000000000E+00  0.45593999997E+02  0.45594000000E+02  0.51100000000E-03 0. -1.
         11   -1    0    0    0    0 -0.00000000000E+00 -0.00000000000E+00 -0.45593999997E+02  0.45594000000E+02  0.51100000000E-03 0.  1.
    9900012    2    1    2    0    0  0.37676262158E+02 -0.71950622056E+01 -0.20306491892E+02  0.47787271166E+02  0.20000000556E+02 0.  0.
         12    1    1    2    0    0 -0.37676262158E+02  0.71950622056E+01  0.20306491892E+02  0.43400728834E+02  0.00000000000E+00 0. -1.
         11    1    3    3    0    0  0.15965523048E+02  0.18773853606E+01 -0.11188634313E+02  0.19585914328E+02  0.51100000000E-03 0. -1.
        -11    1    3    3    0    0  0.22481418127E+02 -0.66208245310E+01 -0.10005420750E+02  0.25482502293E+02  0.51100000000E-03 0.  1.
         12    1    3    3    0    0 -0.77067901787E+00 -0.24516230352E+01  0.88756317112E+00  0.27188545452E+01  0.00000000000E+00 0. -1.
</event>
<event>
 7    1  0.2414091E-009  0.4778725E+02  0.7816164E-02  0.1312668E+00
        -11   -1    0    0    0    0  0.00000000000E+00  0.00000000000E+00  0.45593999997E+02  0.45594000000E+02  0.51100000000E-03 0.  1.
         11   -1    0    0    0    0 -0.00000000000E+00 -0.00000000000E+00 -0.45593999997E+02  0.45594000000E+02  0.51100000000E-03 0. -1.
    9900012    2    1    2    0    0 -0.21877436281E+02  0.59936865732E+01  0.37001056586E+02  0.47787254782E+02  0.19999925854E+02 0.  0.
         12    1    1    2    0    0  0.21877436281E+02 -0.59936865732E+01 -0.37001056586E+02  0.43400745218E+02  0.00000000000E+00 0. -1.
         11    1    3    3    0    0 -0.23521944916E+01  0.74049573689E+01  0.15071212585E+02  0.16956050885E+02  0.51100000000E-03 0. -1.
        -11    1    3    3    0    0 -0.12121551242E+02  0.30555309602E+01  0.16182785109E+02  0.20448736100E+02  0.51100000000E-03 0.  1.
         12    1    3    3    0    0 -0.74036905477E+01 -0.44668017559E+01  0.57470588920E+01  0.10382467797E+02  0.00000000000E+00 0. -1.
</event>
<event>
 7    1  0.2414091E-009  0.4778730E+02  0.7816164E-02  0.1312668E+00
        -11   -1    0    0    0    0  0.00000000000E+00  0.00000000000E+00  0.45593999997E+02  0.45594000000E+02  0.51100000000E-03 0. -1.
         11   -1    0    0    0    0 -0.00000000000E+00 -0.00000000000E+00 -0.45593999997E+02  0.45594000000E+02  0.51100000000E-03 0.  1.
    9900012    2    1    2    0    0 -0.52448912305E+01  0.28038035156E+02 -0.32710551462E+02  0.47787303273E+02  0.20000146944E+02 0.  0.
         12    1    1    2    0    0  0.52448912305E+01 -0.28038035156E+02  0.32710551462E+02  0.43400696727E+02  0.00000000000E+00 0. -1.
         11    1    3    3    0    0  0.14505432111E+01  0.38141246590E+00 -0.54108994599E+01  0.56149251377E+01  0.51100000000E-03 0. -1.
        -11    1    3    3    0    0 -0.77613080889E+00  0.24777463342E+02 -0.24981430583E+02  0.35193706013E+02  0.51100000000E-03 0.  1.
         12    1    3    3    0    0 -0.59193036327E+01  0.28791593475E+01 -0.23182214189E+01  0.69786721224E+01  0.00000000000E+00 0. -1.
</event>
<event>
 7    1  0.2414091E-009  0.4778727E+02  0.7816164E-02  0.1312668E+00
        -11   -1    0    0    0    0  0.00000000000E+00  0.00000000000E+00  0.45593999997E+02  0.45594000000E+02  0.51100000000E-03 0.  1.
         11   -1    0    0    0    0 -0.00000000000E+00 -0.00000000000E+00 -0.45593999997E+02  0.45594000000E+02  0.51100000000E-03 0. -1.
    9900012    2    1    2    0    0  0.32432708074E+02 -0.83053304683E+01  0.27618184872E+02  0.47787271864E+02  0.20000003734E+02 0.  0.
         12    1    1    2    0    0 -0.32432708074E+02  0.83053304683E+01 -0.27618184872E+02  0.43400728136E+02  0.00000000000E+00 0. -1.
         11    1    3    3    0    0 -0.79785560006E+00 -0.80073539702E+00 -0.92692279768E+00  0.14618265521E+01  0.51100000000E-03 0. -1.
        -11    1    3    3    0    0  0.10489184524E+02 -0.60553498143E+01  0.38169745950E+01  0.12698801072E+02  0.51100000000E-03 0.  1.
        -12    1    3    3    0    0  0.22741379149E+02 -0.14492452570E+01  0.24728133074E+02  0.33626644239E+02  0.00000000000E+00 0.  1.
</event>
<event>
 7    1  0.2414091E-009  0.4778727E+02  0.7816164E-02  0.1312668E+00
        -11   -1    0    0    0    0  0.00000000000E+00  0.00000000000E+00  0.45593999997E+02  0.45594000000E+02  0.51100000000E-03 0.  1.
         11   -1    0    0    0    0 -0.00000000000E+00 -0.00000000000E+00 -0.45593999997E+02  0.45594000000E+02  0.51100000000E-03 0. -1.
    9900012    2    1    2    0    0 -0.95896535241E-01 -0.30752039661E+02  0.30625588058E+02  0.47787265175E+02  0.19999973240E+02 0.  0.
         12    1    1    2    0    0  0.95896535241E-01  0.30752039661E+02 -0.30625588058E+02  0.43400734825E+02  0.00000000000E+00 0. -1.
         11    1    3    3    0    0 -0.10729216198E+01 -0.33944978071E+00  0.25638703296E+01  0.27999675505E+01  0.51100000000E-03 0. -1.
        -11    1    3    3    0    0 -0.12673752860E+01 -0.31504576740E+02  0.28441650467E+02  0.42462596214E+02  0.51100000000E-03 0.  1.
         12    1    3    3    0    0  0.22444003705E+01  0.10919868602E+01 -0.37993273873E+00  0.25247014105E+01  0.00000000000E+00 0. -1.
</event>
<event>
 7    1  0.2414091E-009  0.4778727E+02  0.7816164E-02  0.1312668E+00
        -11   -1    0    0    0    0  0.00000000000E+00  0.00000000000E+00  0.45593999997E+02  0.45594000000E+02  0.51100000000E-03 0. -1.
         11   -1    0    0    0    0 -0.00000000000E+00 -0.00000000000E+00 -0.45593999997E+02  0.45594000000E+02  0.51100000000E-03 0.  1.
    9900012    2    1    2    0    0  0.90130319108E+01  0.41990671934E+02 -0.62587777395E+01  0.47787267604E+02  0.19999984313E+02 0.  0.
         12    1    1    2    0    0 -0.90130319108E+01 -0.41990671934E+02  0.62587777395E+01  0.43400732396E+02  0.00000000000E+00 0. -1.
         11    1    3    3    0    0  0.54115855430E-01  0.13759887970E+02 -0.10987238401E+02  0.17608431316E+02  0.51100000000E-03 0. -1.
        -11    1    3    3    0    0  0.39284295412E+00  0.48336973443E+01  0.13568013691E+01  0.50358580023E+01  0.51100000000E-03 0.  1.
         12    1    3    3    0    0  0.85660731012E+01  0.23397086620E+02  0.33716592924E+01  0.25142978286E+02  0.00000000000E+00 0. -1.
</event>
<event>
 7    1  0.2414091E-009  0.4778727E+02  0.7816164E-02  0.1312668E+00
        -11   -1    0    0    0    0  0.00000000000E+00  0.00000000000E+00  0.45593999997E+02  0.45594000000E+02  0.51100000000E-03 0.  1.
         11   -1    0    0    0    0 -0.00000000000E+00 -0.00000000000E+00 -0.45593999997E+02  0.45594000000E+02  0.51100000000E-03 0. -1.
    9900012    2    1    2    0    0 -0.73139106578E+01 -0.36792768266E+02  0.21827109137E+02  0.47787265224E+02  0.19999973464E+02 0.  0.
         12    1    1    2    0    0  0.73139106578E+01  0.36792768266E+02 -0.21827109137E+02  0.43400734776E+02  0.00000000000E+00 0. -1.
         11    1    3    3    0    0  0.16326436977E+01 -0.35938079041E+01 -0.10465957338E+01  0.40836679085E+01  0.51100000000E-03 0. -1.
        -11    1    3    3    0    0  0.24885293039E+01 -0.17037815987E+02  0.13034709678E+02  0.21595916474E+02  0.51100000000E-03 0.  1.
        -12    1    3    3    0    0 -0.11435083659E+02 -0.16161144375E+02  0.98389951933E+01  0.22107680842E+02  0.00000000000E+00 0.  1.
</event>
<event>
 7    1  0.2414091E-009  0.4778727E+02  0.7816164E-02  0.1312668E+00
        -11   -1    0    0    0    0  0.00000000000E+00  0.00000000000E+00  0.45593999997E+02  0.45594000000E+02  0.51100000000E-03 0.  1.
         11   -1    0    0    0    0 -0.00000000000E+00 -0.00000000000E+00 -0.45593999997E+02  0.45594000000E+02  0.51100000000E-03 0. -1.
    9900012    2    1    2    0    0  0.16736885216E+02  0.31169949180E+02 -0.25138303059E+02  0.47787270291E+02  0.19999996565E+02 0.  0.
         12    1    1    2    0    0 -0.16736885216E+02 -0.31169949180E+02  0.25138303059E+02  0.43400729709E+02  0.00000000000E+00 0. -1.
         11    1    3    3    0    0  0.23095496200E+01  0.10440315645E+02 -0.13756621722E+02  0.17423514332E+02  0.51100000000E-03 0. -1.
        -11    1    3    3    0    0  0.11439025749E+02  0.19979627642E+02 -0.13440058954E+02  0.26658432357E+02  0.51100000000E-03 0.  1.
        -12    1    3    3    0    0  0.29883098471E+01  0.75000589256E+00  0.20583776167E+01  0.37053236018E+01  0.00000000000E+00 0.  1.
</event>
<event>
 7    1  0.2414091E-009  0.4778726E+02  0.7816164E-02  0.1312668E+00
        -11   -1    0    0    0    0  0.00000000000E+00  0.00000000000E+00  0.45593999997E+02  0.45594000000E+02  0.51100000000E-03 0.  1.
         11   -1    0    0    0    0 -0.00000000000E+00 -0.00000000000E+00 -0.45593999997E+02  0.45594000000E+02  0.51100000000E-03 0. -1.
    9900012    2    1    2    0    0 -0.30097963800E+02  0.74796701073E+01  0.30361010318E+02  0.47787264553E+02  0.19999970405E+02 0.  0.
         12    1    1    2    0    0  0.30097963800E+02 -0.74796701073E+01 -0.30361010318E+02  0.43400735447E+02  0.00000000000E+00 0. -1.
         11    1    3    3    0    0  0.57417560673E+00  0.26603998497E+00 -0.42795794110E-01  0.63426070513E+00  0.51100000000E-03 0. -1.
        -11    1    3    3    0    0 -0.32816914078E+02  0.76984055051E+01  0.27451618209E+02  0.43471906325E+02  0.51100000000E-03 0.  1.
        -12    1    3    3    0    0  0.21447746721E+01 -0.48477538275E+00  0.29521879028E+01  0.36810975237E+01  0.00000000000E+00 0.  1.
</event>
<event>
 7    1  0.2414091E-009  0.4778726E+02  0.7816164E-02  0.1312668E+00
        -11   -1    0    0    0    0  0.00000000000E+00  0.00000000000E+00  0.45593999997E+02  0.45594000000E+02  0.51100000000E-03 0.  1.
         11   -1    0    0    0    0 -0.00000000000E+00 -0.00000000000E+00 -0.45593999997E+02  0.45594000000E+02  0.51100000000E-03 0. -1.
    9900012    2    1    2    0    0  0.11185216743E+02  0.13372519021E+01  0.41913321362E+02  0.47787264708E+02  0.19999971111E+02 0.  0.
         12    1    1    2    0    0 -0.11185216743E+02 -0.13372519021E+01 -0.41913321362E+02  0.43400735292E+02  0.00000000000E+00 0. -1.
         11    1    3    3    0    0  0.82964983400E+01  0.25093541784E+01  0.70692804735E+01  0.11184966239E+02  0.51100000000E-03 0. -1.
        -11    1    3    3    0    0  0.53473470632E+00 -0.13851780402E+01 -0.18260379235E+00  0.14959959276E+01  0.51100000000E-03 0.  1.
        -12    1    3    3    0    0  0.23539836970E+01  0.21307576389E+00  0.35026644681E+02  0.35106302542E+02  0.00000000000E+00 0.  1.
</event>
<event>
 7    1  0.2414091E-009  0.4778727E+02  0.7816164E-02  0.1312668E+00
        -11   -1    0    0    0    0  0.00000000000E+00  0.00000000000E+00  0.45593999997E+02  0.45594000000E+02  0.51100000000E-03 0.  1.
         11   -1    0    0    0    0 -0.00000000000E+00 -0.00000000000E+00 -0.45593999997E+02  0.45594000000E+02  0.51100000000E-03 0. -1.
    9900012    2    1    2    0    0 -0.58526282589E+01 -0.15611682328E+02  0.40070501081E+02  0.47787274896E+02  0.20000017561E+02 0.  0.
         12    1    1    2    0    0  0.58526282589E+01  0.15611682328E+02 -0.40070501081E+02  0.43400725104E+02  0.00000000000E+00 0. -1.
         11    1    3    3    0    0  0.22642514945E+01 -0.21831850184E+00 -0.34669948532E+00  0.23010212065E+01  0.51100000000E-03 0. -1.
        -11    1    3    3    0    0 -0.63220477323E+01 -0.50929641890E+01  0.28494580603E+02  0.29628494659E+02  0.51100000000E-03 0.  1.
        -12    1    3    3    0    0 -0.17948320211E+01 -0.10300399637E+02  0.11922619964E+02  0.15857759031E+02  0.00000000000E+00 0.  1.
</event>
<event>
 7    1  0.2414091E-009  0.4778727E+02  0.7816164E-02  0.1312668E+00
        -11   -1    0    0    0    0  0.00000000000E+00  0.00000000000E+00  0.45593999997E+02  0.45594000000E+02  0.51100000000E-03 0.  1.
         11   -1    0    0    0    0 -0.00000000000E+00 -0.00000000000E+00 -0.45593999997E+02  0.45594000000E+02  0.51100000000E-03 0. -1.
    9900012    2    1    2    0    0 -0.27215121111E+02 -0.27883059660E+02  0.19117936671E+02  0.47787270333E+02  0.19999996756E+02 0.  0.
         12    1    1    2    0    0  0.27215121111E+02  0.27883059660E+02 -0.19117936671E+02  0.43400729667E+02  0.00000000000E+00 0. -1.
         11    1    3    3    0    0 -0.46443966987E+01  0.89483357800E+00  0.48171836143E+01  0.67510300001E+01  0.51100000000E-03 0. -1.
        -11    1    3    3    0    0 -0.95215317932E+01 -0.46617538424E+01  0.12702106825E+01  0.10677310149E+02  0.51100000000E-03 0.  1.
        -12    1    3    3    0    0 -0.13049192619E+02 -0.24116139395E+02  0.13030542375E+02  0.30358930184E+02  0.00000000000E+00 0.  1.
</event>
<event>
 7    1  0.2414091E-009  0.4778727E+02  0.7816164E-02  0.1312668E+00
        -11   -1    0    0    0    0  0.00000000000E+00  0.00000000000E+00  0.45593999997E+02  0.45594000000E+02  0.51100000000E-03 0. -1.
         11   -1    0    0    0    0 -0.00000000000E+00 -0.00000000000E+00 -0.45593999997E+02  0.45594000000E+02  0.51100000000E-03 0.  1.
    9900012    2    1    2    0    0  0.31856011696E+02  0.29466644369E+02  0.73128533865E+00  0.47787269709E+02  0.19999993912E+02 0.  0.
         12    1    1    2    0    0 -0.31856011696E+02 -0.29466644369E+02 -0.73128533865E+00  0.43400730291E+02  0.00000000000E+00 0. -1.
         11    1    3    3    0    0  0.10894708640E+01  0.45829652467E+01 -0.21299946549E+01  0.51698544183E+01  0.51100000000E-03 0. -1.
        -11    1    3    3    0    0  0.23260006889E+02  0.25835184095E+02  0.78917029340E+00  0.34772222358E+02  0.51100000000E-03 0.  1.
         12    1    3    3    0    0  0.75065339431E+01 -0.95150497222E+00  0.20721097002E+01  0.78451929333E+01  0.00000000000E+00 0. -1.
</event>
<event>
 7    1  0.2414091E-009  0.4778727E+02  0.7816164E-02  0.1312668E+00
        -11   -1    0    0    0    0  0.00000000000E+00  0.00000000000E+00  0.45593999997E+02  0.45594000000E+02  0.51100000000E-03 0.  1.
         11   -1    0    0    0    0 -0.00000000000E+00 -0.00000000000E+00 -0.45593999997E+02  0.45594000000E+02  0.51100000000E-03 0. -1.
    9900012    2    1    2    0    0  0.25186297809E+02 -0.76399055554E+01  0.34509500306E+02  0.47787269988E+02  0.19999995181E+02 0.  0.
         12    1    1    2    0    0 -0.25186297809E+02  0.76399055554E+01 -0.34509500306E+02  0.43400730012E+02  0.00000000000E+00 0. -1.
         11    1    3    3    0    0  0.69552339615E+01 -0.42386003981E+01  0.42742227626E+01  0.91983690554E+01  0.51100000000E-03 0. -1.
        -11    1    3    3    0    0  0.38463780537E+01 -0.26230959367E+01 -0.46295734465E+00  0.46786308028E+01  0.51100000000E-03 0.  1.
        -12    1    3    3    0    0  0.14384685794E+02 -0.77820922060E+00  0.30698234889E+02  0.33910270129E+02  0.00000000000E+00 0.  1.
</event>
<event>
 7    1  0.2414091E-009  0.4778727E+02  0.7816164E-02  0.1312668E+00
        -11   -1    0    0    0    0  0.00000000000E+00  0.00000000000E+00  0.45593999997E+02  0.45594000000E+02  0.51100000000E-03 0. -1.
         11   -1    0    0    0    0 -0.00000000000E+00 -0.00000000000E+00 -0.45593999997E+02  0.45594000000E+02  0.51100000000E-03 0.  1.
    9900012    2    1    2    0    0 -0.43048592133E+02 -0.23563964318E+01 -0.49889701228E+01  0.47787266000E+02  0.19999977002E+02 0.  0.
         12    1    1    2    0    0  0.43048592133E+02  0.23563964318E+01  0.49889701228E+01  0.43400734000E+02  0.00000000000E+00 0. -1.
         11    1    3    3    0    0 -0.21320032950E+01  0.15275348232E+00  0.10729236197E+01  0.23916389842E+01  0.51100000000E-03 0. -1.
        -11    1    3    3    0    0 -0.40530925033E+02 -0.20110274396E+01 -0.96830856711E+01  0.41720046306E+02  0.51100000000E-03 0.  1.
        -12    1    3    3    0    0 -0.38566380503E+00 -0.49812247457E+00  0.36211919286E+01  0.36755807098E+01  0.00000000000E+00 0.  1.
</event>
<event>
 7    1  0.2414091E-009  0.4778727E+02  0.7816164E-02  0.1312668E+00
        -11   -1    0    0    0    0  0.00000000000E+00  0.00000000000E+00  0.45593999997E+02  0.45594000000E+02  0.51100000000E-03 0. -1.
         11   -1    0    0    0    0 -0.00000000000E+00 -0.00000000000E+00 -0.45593999997E+02  0.45594000000E+02  0.51100000000E-03 0.  1.
    9900012    2    1    2    0    0  0.97017215628E+01  0.16615895947E+00 -0.42302155426E+02  0.47787270009E+02  0.19999995279E+02 0.  0.
         12    1    1    2    0    0 -0.97017215628E+01 -0.16615895947E+00  0.42302155426E+02  0.43400729991E+02  0.00000000000E+00 0. -1.
         11    1    3    3    0    0 -0.74390318248E+00 -0.31235058817E+00  0.86618249988E+00  0.11837344377E+01  0.51100000000E-03 0. -1.
        -11    1    3    3    0    0  0.89724134773E+01  0.32599800413E+01 -0.12274433394E+02  0.15549707035E+02  0.51100000000E-03 0.  1.
        -12    1    3    3    0    0  0.14732112680E+01 -0.27814704937E+01 -0.30893904531E+02  0.31053828536E+02  0.00000000000E+00 0.  1.
</event>
<event>
 7    1  0.2414091E-009  0.4778727E+02  0.7816164E-02  0.1312668E+00
        -11   -1    0    0    0    0  0.00000000000E+00  0.00000000000E+00  0.45593999997E+02  0.45594000000E+02  0.51100000000E-03 0.  1.
         11   -1    0    0    0    0 -0.00000000000E+00 -0.00000000000E+00 -0.45593999997E+02  0.45594000000E+02  0.51100000000E-03 0. -1.
    9900012    2    1    2    0    0  0.38262021389E+02 -0.17984433879E+02  0.98082150393E+01  0.47787271608E+02  0.20000002568E+02 0.  0.
         12    1    1    2    0    0 -0.38262021389E+02  0.17984433879E+02 -0.98082150393E+01  0.43400728392E+02  0.00000000000E+00 0. -1.
         11    1    3    3    0    0  0.96963203572E+01  0.10691509784E+01 -0.28338552436E+01  0.10158368377E+02  0.51100000000E-03 0. -1.
        -11    1    3    3    0    0  0.17179471258E+02 -0.72724621541E+01  0.39011482490E+01  0.19058905960E+02  0.51100000000E-03 0.  1.
         12    1    3    3    0    0  0.11386229774E+02 -0.11781122703E+02  0.87409220339E+01  0.18569997270E+02  0.00000000000E+00 0. -1.
</event>
<event>
 7    1  0.2414091E-009  0.4778727E+02  0.7816164E-02  0.1312668E+00
        -11   -1    0    0    0    0  0.00000000000E+00  0.00000000000E+00  0.45593999997E+02  0.45594000000E+02  0.51100000000E-03 0. -1.
         11   -1    0    0    0    0 -0.00000000000E+00 -0.00000000000E+00 -0.45593999997E+02  0.45594000000E+02  0.51100000000E-03 0.  1.
    9900012    2    1    2    0    0  0.38971214350E+02 -0.15609017223E+02 -0.11010274692E+02  0.47787272871E+02  0.20000008326E+02 0.  0.
         12    1    1    2    0    0 -0.38971214350E+02  0.15609017223E+02  0.11010274692E+02  0.43400727129E+02  0.00000000000E+00 0. -1.
         11    1    3    3    0    0  0.10385305354E+02 -0.37800219483E+01  0.34109685084E+01  0.11566237057E+02  0.51100000000E-03 0. -1.
        -11    1    3    3    0    0  0.24286759497E+02 -0.69615723160E+01 -0.67123284584E+01  0.26141261056E+02  0.51100000000E-03 0.  1.
        -12    1    3    3    0    0  0.42991494983E+01 -0.48674229590E+01 -0.77089147422E+01  0.10079774758E+02  0.00000000000E+00 0.  1.
</event>
<event>
 7    1  0.2414091E-009  0.4778727E+02  0.7816164E-02  0.1312668E+00
        -11   -1    0    0    0    0  0.00000000000E+00  0.00000000000E+00  0.45593999997E+02  0.45594000000E+02  0.51100000000E-03 0.  1.
         11   -1    0    0    0    0 -0.00000000000E+00 -0.00000000000E+00 -0.45593999997E+02  0.45594000000E+02  0.51100000000E-03 0. -1.
    9900012    2    1    2    0    0  0.24748435804E+02  0.20521632222E+02  0.29154770356E+02  0.47787273067E+02  0.20000009221E+02 0.  0.
         12    1    1    2    0    0 -0.24748435804E+02 -0.20521632222E+02 -0.29154770356E+02  0.43400726933E+02  0.00000000000E+00 0. -1.
         11    1    3    3    0    0  0.12043628981E+02  0.12530636388E+02  0.53548545930E+01  0.18186267217E+02  0.51100000000E-03 0. -1.
        -11    1    3    3    0    0 -0.68383315920E+00 -0.51304555012E+00 -0.15715400212E+00  0.86921871104E+00  0.51100000000E-03 0.  1.
        -12    1    3    3    0    0  0.13388639983E+02  0.85040413837E+01  0.23957069765E+02  0.28731787138E+02  0.00000000000E+00 0.  1.
</event>
<event>
 7    1  0.2414091E-009  0.4778727E+02  0.7816164E-02  0.1312668E+00
        -11   -1    0    0    0    0  0.00000000000E+00  0.00000000000E+00  0.45593999997E+02  0.45594000000E+02  0.51100000000E-03 0.  1.
         11   -1    0    0    0    0 -0.00000000000E+00 -0.00000000000E+00 -0.45593999997E+02  0.45594000000E+02  0.51100000000E-03 0. -1.
    9900012    2    1    2    0    0 -0.14989105840E+02 -0.12148619270E+02  0.38876231072E+02  0.47787267444E+02  0.19999983583E+02 0.  0.
         12    1    1    2    0    0  0.14989105840E+02  0.12148619270E+02 -0.38876231072E+02  0.43400732556E+02  0.00000000000E+00 0. -1.
         11    1    3    3    0    0  0.11715795810E+00 -0.23817443165E+01  0.12740000556E+01  0.27036102492E+01  0.51100000000E-03 0. -1.
        -11    1    3    3    0    0 -0.17646170582E+02 -0.73548681469E+01  0.36831031549E+02  0.41497063835E+02  0.51100000000E-03 0.  1.
        -12    1    3    3    0    0  0.25399067846E+01 -0.24120068068E+01  0.77119946725E+00  0.35865933598E+01  0.00000000000E+00 0.  1.
</event>
<event>
 7    1  0.2414091E-009  0.4778728E+02  0.7816164E-02  0.1312668E+00
        -11   -1    0    0    0    0  0.00000000000E+00  0.00000000000E+00  0.45593999997E+02  0.45594000000E+02  0.51100000000E-03 0.  1.
         11   -1    0    0    0    0 -0.00000000000E+00 -0.00000000000E+00 -0.45593999997E+02  0.45594000000E+02  0.51100000000E-03 0. -1.
    9900012    2    1    2    0    0 -0.81642764520E+01 -0.41396556246E+02  0.10163297627E+02  0.47787275379E+02  0.20000019763E+02 0.  0.
         12    1    1    2    0    0  0.81642764520E+01  0.41396556246E+02 -0.10163297627E+02  0.43400724621E+02  0.00000000000E+00 0. -1.
         11    1    3    3    0    0  0.94153543763E+00  0.93553111016E-01  0.16485222616E+01  0.19007543432E+01  0.51100000000E-03 0.  1.
        -11    1    3    3    0    0  0.27491909922E+01 -0.20757439815E+01  0.25763988141E+01  0.43016967930E+01  0.51100000000E-03 0. -1.
        -12    1    3    3    0    0 -0.11855002882E+02 -0.39414365375E+02  0.59383765508E+01  0.41584824243E+02  0.00000000000E+00 0.  1.
</event>
<event>
 7    1  0.2414091E-009  0.4778727E+02  0.7816164E-02  0.1312668E+00
        -11   -1    0    0    0    0  0.00000000000E+00  0.00000000000E+00  0.45593999997E+02  0.45594000000E+02  0.51100000000E-03 0.  1.
         11   -1    0    0    0    0 -0.00000000000E+00 -0.00000000000E+00 -0.45593999997E+02  0.45594000000E+02  0.51100000000E-03 0. -1.
    9900012    2    1    2    0    0 -0.16231479468E+02  0.27758176555E+02  0.29148688936E+02  0.47787270074E+02  0.19999995577E+02 0.  0.
         12    1    1    2    0    0  0.16231479468E+02 -0.27758176555E+02 -0.29148688936E+02  0.43400729926E+02  0.00000000000E+00 0. -1.
         11    1    3    3    0    0  0.51726557677E+00 -0.24631585660E+00  0.21543365569E+01  0.22292154314E+01  0.51100000000E-03 0. -1.
        -11    1    3    3    0    0 -0.10662638722E+02  0.15567220845E+02  0.49188183874E+01  0.19499359065E+02  0.51100000000E-03 0.  1.
        -12    1    3    3    0    0 -0.60861063228E+01  0.12437271567E+02  0.22075533992E+02  0.26058695578E+02  0.00000000000E+00 0.  1.
</event>
<event>
 7    1  0.2414091E-009  0.4778727E+02  0.7816164E-02  0.1312668E+00
        -11   -1    0    0    0    0  0.00000000000E+00  0.00000000000E+00  0.45593999997E+02  0.45594000000E+02  0.51100000000E-03 0.  1.
         11   -1    0    0    0    0 -0.00000000000E+00 -0.00000000000E+00 -0.45593999997E+02  0.45594000000E+02  0.51100000000E-03 0. -1.
    9900012    2    1    2    0    0  0.61207371609E+01 -0.40004007318E+02  0.15679264611E+02  0.47787270010E+02  0.19999995283E+02 0.  0.
         12    1    1    2    0    0 -0.61207371609E+01  0.40004007318E+02 -0.15679264611E+02  0.43400729990E+02  0.00000000000E+00 0. -1.
         11    1    3    3    0    0  0.22713428661E+01 -0.31925346325E+01  0.39092815205E+01  0.55347771466E+01  0.51100000000E-03 0. -1.
        -11    1    3    3    0    0 -0.41197421363E+00 -0.30602203520E+02  0.14969901108E+02  0.34069965108E+02  0.51100000000E-03 0.  1.
         12    1    3    3    0    0  0.42613685084E+01 -0.62092691659E+01 -0.31999180175E+01  0.81825277548E+01  0.00000000000E+00 0. -1.
</event>
<event>
 7    1  0.2414091E-009  0.4778727E+02  0.7816164E-02  0.1312668E+00
        -11   -1    0    0    0    0  0.00000000000E+00  0.00000000000E+00  0.45593999997E+02  0.45594000000E+02  0.51100000000E-03 0.  1.
         11   -1    0    0    0    0 -0.00000000000E+00 -0.00000000000E+00 -0.45593999997E+02  0.45594000000E+02  0.51100000000E-03 0. -1.
    9900012    2    1    2    0    0  0.42544019805E+02 -0.80816053425E+01 -0.28839861671E+01  0.47787270256E+02  0.19999996405E+02 0.  0.
         12    1    1    2    0    0 -0.42544019805E+02  0.80816053425E+01  0.28839861671E+01  0.43400729744E+02  0.00000000000E+00 0. -1.
         11    1    3    3    0    0  0.65520293196E+00 -0.21127652657E+01  0.36522930205E+01  0.42699312077E+01  0.51100000000E-03 0. -1.
        -11    1    3    3    0    0  0.88217407524E+01  0.19069395571E+01 -0.16708759306E+01  0.91788536874E+01  0.51100000000E-03 0.  1.
         12    1    3    3    0    0  0.33067076121E+02 -0.78757796339E+01 -0.48654032570E+01  0.34338485361E+02  0.00000000000E+00 0. -1.
</event>
<event>
 7    1  0.2414091E-009  0.4778727E+02  0.7816164E-02  0.1312668E+00
        -11   -1    0    0    0    0  0.00000000000E+00  0.00000000000E+00  0.45593999997E+02  0.45594000000E+02  0.51100000000E-03 0.  1.
         11   -1    0    0    0    0 -0.00000000000E+00 -0.00000000000E+00 -0.45593999997E+02  0.45594000000E+02  0.51100000000E-03 0. -1.
    9900012    2    1    2    0    0  0.47018924353E+01 -0.39909097606E+02  0.16394490283E+02  0.47787272174E+02  0.20000005151E+02 0.  0.
         12    1    1    2    0    0 -0.47018924353E+01  0.39909097606E+02 -0.16394490283E+02  0.43400727826E+02  0.00000000000E+00 0. -1.
         11    1    3    3    0    0  0.52997264277E+01 -0.31300784923E+02  0.45937080246E+01  0.32076913671E+02  0.51100000000E-03 0. -1.
        -11    1    3    3    0    0 -0.11098561054E+01 -0.70663508323E+01  0.50227559135E+01  0.87403187520E+01  0.51100000000E-03 0.  1.
         12    1    3    3    0    0  0.51202211298E+00 -0.15419618504E+01  0.67780263449E+01  0.69700397506E+01  0.00000000000E+00 0. -1.
</event>
<event>
 7    1  0.2414091E-009  0.4778727E+02  0.7816164E-02  0.1312668E+00
        -11   -1    0    0    0    0  0.00000000000E+00  0.00000000000E+00  0.45593999997E+02  0.45594000000E+02  0.51100000000E-03 0.  1.
         11   -1    0    0    0    0 -0.00000000000E+00 -0.00000000000E+00 -0.45593999997E+02  0.45594000000E+02  0.51100000000E-03 0. -1.
    9900012    2    1    2    0    0  0.35379503970E+02 -0.18448583893E+02  0.17075248844E+02  0.47787266459E+02  0.19999979091E+02 0.  0.
         12    1    1    2    0    0 -0.35379503970E+02  0.18448583893E+02 -0.17075248844E+02  0.43400733541E+02  0.00000000000E+00 0. -1.
         11    1    3    3    0    0  0.57889403262E+01 -0.65911812546E+01  0.35444841962E+01  0.94614411645E+01  0.51100000000E-03 0.  1.
        -11    1    3    3    0    0  0.47967634775E+01  0.69806113761E+00  0.89233357439E+01  0.10154907694E+02  0.51100000000E-03 0. -1.
         12    1    3    3    0    0  0.24793800167E+02 -0.12555463776E+02  0.46074289042E+01  0.28170917600E+02  0.00000000000E+00 0. -1.
</event>
<event>
 7    1  0.2414091E-009  0.4778726E+02  0.7816164E-02  0.1312668E+00
        -11   -1    0    0    0    0  0.00000000000E+00  0.00000000000E+00  0.45593999997E+02  0.45594000000E+02  0.51100000000E-03 0. -1.
         11   -1    0    0    0    0 -0.00000000000E+00 -0.00000000000E+00 -0.45593999997E+02  0.45594000000E+02  0.51100000000E-03 0.  1.
    9900012    2    1    2    0    0  0.41792701041E+02  0.10204768336E+02  0.57321056698E+01  0.47787260461E+02  0.19999951748E+02 0.  0.
         12    1    1    2    0    0 -0.41792701041E+02 -0.10204768336E+02 -0.57321056698E+01  0.43400739539E+02  0.00000000000E+00 0. -1.
         11    1    3    3    0    0  0.26391910666E+02  0.66975844588E+01  0.36303801669E+01  0.27469442051E+02  0.51100000000E-03 0. -1.
        -11    1    3    3    0    0  0.66114251342E+01  0.71438196097E+01  0.41604594292E+01  0.10585580940E+02  0.51100000000E-03 0.  1.
         12    1    3    3    0    0  0.87893652409E+01 -0.36366357329E+01 -0.20587339263E+01  0.97322374699E+01  0.00000000000E+00 0. -1.
</event>
<event>
 7    1  0.2414091E-009  0.4778728E+02  0.7816164E-02  0.1312668E+00
        -11   -1    0    0    0    0  0.00000000000E+00  0.00000000000E+00  0.45593999997E+02  0.45594000000E+02  0.51100000000E-03 0.  1.
         11   -1    0    0    0    0 -0.00000000000E+00 -0.00000000000E+00 -0.45593999997E+02  0.45594000000E+02  0.51100000000E-03 0. -1.
    9900012    2    1    2    0    0 -0.16621425672E+02 -0.39611925913E+02 -0.61843600505E+01  0.47787276790E+02  0.20000026198E+02 0.  0.
         12    1    1    2    0    0  0.16621425672E+02  0.39611925913E+02  0.61843600505E+01  0.43400723210E+02  0.00000000000E+00 0. -1.
         11    1    3    3    0    0  0.32384612752E+01 -0.16290977261E+01 -0.23443927192E-01  0.36252090575E+01  0.51100000000E-03 0. -1.
        -11    1    3    3    0    0 -0.34805468354E+01 -0.66451930811E+01 -0.45326899397E+01  0.87645921587E+01  0.51100000000E-03 0.  1.
        -12    1    3    3    0    0 -0.16379340112E+02 -0.31337635106E+02 -0.16282261836E+01  0.35397475574E+02  0.00000000000E+00 0.  1.
</event>
<event>
 7    1  0.2414091E-009  0.4778727E+02  0.7816164E-02  0.1312668E+00
        -11   -1    0    0    0    0  0.00000000000E+00  0.00000000000E+00  0.45593999997E+02  0.45594000000E+02  0.51100000000E-03 0. -1.
         11   -1    0    0    0    0 -0.00000000000E+00 -0.00000000000E+00 -0.45593999997E+02  0.45594000000E+02  0.51100000000E-03 0.  1.
    9900012    2    1    2    0    0  0.11003259623E+02  0.37441697775E+02  0.18991334300E+02  0.47787271514E+02  0.20000002141E+02 0.  0.
         12    1    1    2    0    0 -0.11003259623E+02 -0.37441697775E+02 -0.18991334300E+02  0.43400728486E+02  0.00000000000E+00 0. -1.
         11    1    3    3    0    0  0.17503234424E+01  0.12178922866E+02  0.92062654600E+01  0.15367013969E+02  0.51100000000E-03 0.  1.
        -11    1    3    3    0    0  0.12086637339E+02  0.15979943820E+02  0.10623725919E+02  0.22678380879E+02  0.51100000000E-03 0. -1.
        -12    1    3    3    0    0 -0.28337011581E+01  0.92828310891E+01 -0.83865707861E+00  0.97418766661E+01  0.00000000000E+00 0.  1.
</event>
<event>
 7    1  0.2414091E-009  0.4778727E+02  0.7816164E-02  0.1312668E+00
        -11   -1    0    0    0    0  0.00000000000E+00  0.00000000000E+00  0.45593999997E+02  0.45594000000E+02  0.51100000000E-03 0. -1.
         11   -1    0    0    0    0 -0.00000000000E+00 -0.00000000000E+00 -0.45593999997E+02  0.45594000000E+02  0.51100000000E-03 0.  1.
    9900012    2    1    2    0    0  0.74895426367E+01 -0.36374486833E+02 -0.22459445486E+02  0.47787271517E+02  0.20000002155E+02 0.  0.
         12    1    1    2    0    0 -0.74895426367E+01  0.36374486833E+02  0.22459445486E+02  0.43400728483E+02  0.00000000000E+00 0. -1.
         11    1    3    3    0    0  0.44024104884E+00 -0.69571915179E-01 -0.10694225223E+01  0.11585841466E+01  0.51100000000E-03 0. -1.
        -11    1    3    3    0    0  0.74436579568E+01 -0.22948550352E+02 -0.22797068949E+02  0.33192625084E+02  0.51100000000E-03 0.  1.
         12    1    3    3    0    0 -0.39435636893E+00 -0.13356364566E+02  0.14070459849E+01  0.13436062286E+02  0.00000000000E+00 0. -1.
</event>
<event>
 7    1  0.2414091E-009  0.4778727E+02  0.7816164E-02  0.1312668E+00
        -11   -1    0    0    0    0  0.00000000000E+00  0.00000000000E+00  0.45593999997E+02  0.45594000000E+02  0.51100000000E-03 0.  1.
         11   -1    0    0    0    0 -0.00000000000E+00 -0.00000000000E+00 -0.45593999997E+02  0.45594000000E+02  0.51100000000E-03 0. -1.
    9900012    2    1    2    0    0  0.10970109538E+02  0.30098460934E+02  0.29280754710E+02  0.47787271316E+02  0.20000001240E+02 0.  0.
         12    1    1    2    0    0 -0.10970109538E+02 -0.30098460934E+02 -0.29280754710E+02  0.43400728684E+02  0.00000000000E+00 0. -1.
         11    1    3    3    0    0  0.32614279862E+00 -0.17645409049E+00 -0.11072227020E+01  0.11676675658E+01  0.51100000000E-03 0. -1.
        -11    1    3    3    0    0  0.46159858587E+01  0.55781056543E+00  0.19282130992E+01  0.50335359432E+01  0.51100000000E-03 0.  1.
        -12    1    3    3    0    0  0.60279808811E+01  0.29717104459E+02  0.28459764313E+02  0.41586067807E+02  0.00000000000E+00 0.  1.
</event>
<event>
 7    1  0.2414091E-009  0.4778727E+02  0.7816164E-02  0.1312668E+00
        -11   -1    0    0    0    0  0.00000000000E+00  0.00000000000E+00  0.45593999997E+02  0.45594000000E+02  0.51100000000E-03 0.  1.
         11   -1    0    0    0    0 -0.00000000000E+00 -0.00000000000E+00 -0.45593999997E+02  0.45594000000E+02  0.51100000000E-03 0. -1.
    9900012    2    1    2    0    0  0.42605267347E+02  0.61952306709E+01 -0.54802819992E+01  0.47787272131E+02  0.20000004953E+02 0.  0.
         12    1    1    2    0    0 -0.42605267347E+02 -0.61952306709E+01  0.54802819992E+01  0.43400727869E+02  0.00000000000E+00 0. -1.
         11    1    3    3    0    0  0.54369376197E+01  0.45349530786E+01  0.41804294510E+01  0.82220484529E+01  0.51100000000E-03 0. -1.
        -11    1    3    3    0    0  0.49011437302E+01  0.34264913859E+01 -0.24022207213E+01  0.64445882519E+01  0.51100000000E-03 0.  1.
        -12    1    3    3    0    0  0.32267185997E+02 -0.17662137937E+01 -0.72584907289E+01  0.33120635426E+02  0.00000000000E+00 0.  1.
</event>
<event>
 7    1  0.2414091E-009  0.4778727E+02  0.7816164E-02  0.1312668E+00
        -11   -1    0    0    0    0  0.00000000000E+00  0.00000000000E+00  0.45593999997E+02  0.45594000000E+02  0.51100000000E-03 0.  1.
         11   -1    0    0    0    0 -0.00000000000E+00 -0.00000000000E+00 -0.45593999997E+02  0.45594000000E+02  0.51100000000E-03 0. -1.
    9900012    2    1    2    0    0  0.36790178902E+01  0.40411244586E+02  0.15395428643E+02  0.47787273224E+02  0.20000009937E+02 0.  0.
         12    1    1    2    0    0 -0.36790178902E+01 -0.40411244586E+02 -0.15395428643E+02  0.43400726776E+02  0.00000000000E+00 0. -1.
         11    1    3    3    0    0  0.32177045038E+01  0.44953818921E+01  0.31720262019E+01  0.63736826965E+01  0.51100000000E-03 0. -1.
        -11    1    3    3    0    0 -0.86474894676E+00  0.36295647968E+02  0.14216154901E+02  0.38990010421E+02  0.51100000000E-03 0.  1.
        -12    1    3    3    0    0  0.13260623331E+01 -0.37978527467E+00 -0.19927524602E+01  0.24235801068E+01  0.00000000000E+00 0.  1.
</event>
<event>
 7    1  0.2414091E-009  0.4778727E+02  0.7816164E-02  0.1312668E+00
        -11   -1    0    0    0    0  0.00000000000E+00  0.00000000000E+00  0.45593999997E+02  0.45594000000E+02  0.51100000000E-03 0.  1.
         11   -1    0    0    0    0 -0.00000000000E+00 -0.00000000000E+00 -0.45593999997E+02  0.45594000000E+02  0.51100000000E-03 0. -1.
    9900012    2    1    2    0    0 -0.25535930966E+02  0.29959098310E+02  0.18275437177E+02  0.47787274823E+02  0.20000017229E+02 0.  0.
         12    1    1    2    0    0  0.25535930966E+02 -0.29959098310E+02 -0.18275437177E+02  0.43400725177E+02  0.00000000000E+00 0. -1.
         11    1    3    3    0    0  0.38613158247E+00 -0.18585759654E+01 -0.79020937504E-01  0.18999070471E+01  0.51100000000E-03 0. -1.
        -11    1    3    3    0    0 -0.69235677948E+00 -0.50876719112E+00 -0.19413107120E+00  0.88084567251E+00  0.51100000000E-03 0.  1.
        -12    1    3    3    0    0 -0.25229705769E+02  0.32326441466E+02  0.18548589185E+02  0.45006522104E+02  0.00000000000E+00 0.  1.
</event>
<event>
 7    1  0.2414091E-009  0.4778727E+02  0.7816164E-02  0.1312668E+00
        -11   -1    0    0    0    0  0.00000000000E+00  0.00000000000E+00  0.45593999997E+02  0.45594000000E+02  0.51100000000E-03 0. -1.
         11   -1    0    0    0    0 -0.00000000000E+00 -0.00000000000E+00 -0.45593999997E+02  0.45594000000E+02  0.51100000000E-03 0.  1.
    9900012    2    1    2    0    0  0.22172443899E+02 -0.25616421556E+02 -0.27125725310E+02  0.47787270797E+02  0.19999998873E+02 0.  0.
         12    1    1    2    0    0 -0.22172443899E+02  0.25616421556E+02  0.27125725310E+02  0.43400729203E+02  0.00000000000E+00 0. -1.
         11    1    3    3    0    0  0.72445309697E+01 -0.18648327541E+02 -0.13441227525E+02  0.24102073493E+02  0.51100000000E-03 0. -1.
        -11    1    3    3    0    0 -0.73975338523E+00 -0.27568304585E+01 -0.79093166184E+00  0.29619119505E+01  0.51100000000E-03 0.  1.
        -12    1    3    3    0    0  0.15667666314E+02 -0.42112635567E+01 -0.12893566123E+02  0.20723285354E+02  0.00000000000E+00 0.  1.
</event>
<event>
 7    1  0.2414091E-009  0.4778727E+02  0.7816164E-02  0.1312668E+00
        -11   -1    0    0    0    0  0.00000000000E+00  0.00000000000E+00  0.45593999997E+02  0.45594000000E+02  0.51100000000E-03 0. -1.
         11   -1    0    0    0    0 -0.00000000000E+00 -0.00000000000E+00 -0.45593999997E+02  0.45594000000E+02  0.51100000000E-03 0.  1.
    9900012    2    1    2    0    0  0.75441224688E+01 -0.34087436333E+02 -0.25782863592E+02  0.47787272419E+02  0.20000006268E+02 0.  0.
         12    1    1    2    0    0 -0.75441224688E+01  0.34087436333E+02  0.25782863592E+02  0.43400727581E+02  0.00000000000E+00 0. -1.
         11    1    3    3    0    0  0.82543785813E+01 -0.15139196515E+02 -0.17076624489E+02  0.24268109549E+02  0.51100000000E-03 0. -1.
        -11    1    3    3    0    0  0.15585595196E+01 -0.12940354155E+02 -0.10625866844E+02  0.16816388432E+02  0.51100000000E-03 0.  1.
         12    1    3    3    0    0 -0.22688156321E+01 -0.60078856630E+01  0.19196277416E+01  0.67027744389E+01  0.00000000000E+00 0. -1.
</event>
<event>
 7    1  0.2414091E-009  0.4778727E+02  0.7816164E-02  0.1312668E+00
        -11   -1    0    0    0    0  0.00000000000E+00  0.00000000000E+00  0.45593999997E+02  0.45594000000E+02  0.51100000000E-03 0.  1.
         11   -1    0    0    0    0 -0.00000000000E+00 -0.00000000000E+00 -0.45593999997E+02  0.45594000000E+02  0.51100000000E-03 0. -1.
    9900012    2    1    2    0    0  0.41838394005E+02  0.10865008286E+02 -0.38889383729E+01  0.47787268904E+02  0.19999990243E+02 0.  0.
         12    1    1    2    0    0 -0.41838394005E+02 -0.10865008286E+02  0.38889383729E+01  0.43400731096E+02  0.00000000000E+00 0. -1.
         11    1    3    3    0    0  0.16194394961E+01 -0.13494176806E+01 -0.18111680767E+01  0.27791801708E+01  0.51100000000E-03 0. -1.
        -11    1    3    3    0    0  0.33664691211E+02  0.15119527658E+02  0.16235283780E+01  0.36939780665E+02  0.51100000000E-03 0.  1.
        -12    1    3    3    0    0  0.65542632976E+01 -0.29051016914E+01 -0.37012986742E+01  0.80683080684E+01  0.00000000000E+00 0.  1.
</event>
<event>
 7    1  0.2414091E-009  0.4778727E+02  0.7816164E-02  0.1312668E+00
        -11   -1    0    0    0    0  0.00000000000E+00  0.00000000000E+00  0.45593999997E+02  0.45594000000E+02  0.51100000000E-03 0.  1.
         11   -1    0    0    0    0 -0.00000000000E+00 -0.00000000000E+00 -0.45593999997E+02  0.45594000000E+02  0.51100000000E-03 0. -1.
    9900012    2    1    2    0    0  0.10465843721E+02  0.39571990758E+02  0.14427295178E+02  0.47787272086E+02  0.20000004747E+02 0.  0.
         12    1    1    2    0    0 -0.10465843721E+02 -0.39571990758E+02 -0.14427295178E+02  0.43400727914E+02  0.00000000000E+00 0. -1.
         11    1    3    3    0    0  0.27560901417E+01  0.10334456560E+02  0.81699696257E+01  0.13459027795E+02  0.51100000000E-03 0. -1.
        -11    1    3    3    0    0  0.99962054741E+01  0.22635119991E+02  0.96521596808E+01  0.26560063397E+02  0.51100000000E-03 0.  1.
         12    1    3    3    0    0 -0.22864518945E+01  0.66024142074E+01 -0.33948341283E+01  0.77681808933E+01  0.00000000000E+00 0. -1.
</event>
<event>
 7    1  0.2414091E-009  0.4778727E+02  0.7816164E-02  0.1312668E+00
        -11   -1    0    0    0    0  0.00000000000E+00  0.00000000000E+00  0.45593999997E+02  0.45594000000E+02  0.51100000000E-03 0.  1.
         11   -1    0    0    0    0 -0.00000000000E+00 -0.00000000000E+00 -0.45593999997E+02  0.45594000000E+02  0.51100000000E-03 0. -1.
    9900012    2    1    2    0    0 -0.26059770729E+02  0.91991669577E+01  0.33464716567E+02  0.47787267540E+02  0.19999984021E+02 0.  0.
         12    1    1    2    0    0  0.26059770729E+02 -0.91991669577E+01 -0.33464716567E+02  0.43400732460E+02  0.00000000000E+00 0. -1.
         11    1    3    3    0    0 -0.20137149893E+01  0.36281614815E+01  0.43771152910E+01  0.60313963828E+01  0.51100000000E-03 0. -1.
        -11    1    3    3    0    0 -0.25634794291E+02  0.39385714838E+01  0.21053749063E+02  0.33405319540E+02  0.51100000000E-03 0.  1.
         12    1    3    3    0    0  0.15887385518E+01  0.16324339923E+01  0.80338522132E+01  0.83505516171E+01  0.00000000000E+00 0. -1.
</event>
<event>
 7    1  0.2414091E-009  0.4778727E+02  0.7816164E-02  0.1312668E+00
        -11   -1    0    0    0    0  0.00000000000E+00  0.00000000000E+00  0.45593999997E+02  0.45594000000E+02  0.51100000000E-03 0.  1.
         11   -1    0    0    0    0 -0.00000000000E+00 -0.00000000000E+00 -0.45593999997E+02  0.45594000000E+02  0.51100000000E-03 0. -1.
    9900012    2    1    2    0    0  0.24131973467E+02  0.30457525952E+02  0.19328997842E+02  0.47787272033E+02  0.20000004507E+02 0.  0.
         12    1    1    2    0    0 -0.24131973467E+02 -0.30457525952E+02 -0.19328997842E+02  0.43400727967E+02  0.00000000000E+00 0. -1.
         11    1    3    3    0    0  0.22487709564E+01  0.34071661082E+01  0.17760582208E+01  0.44519809936E+01  0.51100000000E-03 0. -1.
        -11    1    3    3    0    0  0.19660106361E+02  0.29202536760E+02  0.12398271664E+02  0.37323251143E+02  0.51100000000E-03 0.  1.
         12    1    3    3    0    0  0.22230961496E+01 -0.21521769166E+01  0.51546679572E+01  0.60120398967E+01  0.00000000000E+00 0. -1.
</event>
<event>
 7    1  0.2414091E-009  0.4778727E+02  0.7816164E-02  0.1312668E+00
        -11   -1    0    0    0    0  0.00000000000E+00  0.00000000000E+00  0.45593999997E+02  0.45594000000E+02  0.51100000000E-03 0. -1.
         11   -1    0    0    0    0 -0.00000000000E+00 -0.00000000000E+00 -0.45593999997E+02  0.45594000000E+02  0.51100000000E-03 0.  1.
    9900012    2    1    2    0    0  0.24653098593E+02 -0.85582857864E+01 -0.34678576377E+02  0.47787272064E+02  0.20000004649E+02 0.  0.
         12    1    1    2    0    0 -0.24653098593E+02  0.85582857864E+01  0.34678576377E+02  0.43400727936E+02  0.00000000000E+00 0. -1.
         11    1    3    3    0    0  0.76437630702E+00 -0.31667156952E+01  0.67143925958E+00  0.33261374556E+01  0.51100000000E-03 0. -1.
        -11    1    3    3    0    0  0.12760112600E+02 -0.70579476317E+01 -0.13442702603E+02  0.19832835195E+02  0.51100000000E-03 0.  1.
         12    1    3    3    0    0  0.11128609686E+02  0.16663775405E+01 -0.21907313034E+02  0.24628299414E+02  0.00000000000E+00 0. -1.
</event>
<event>
 7    1  0.2414091E-009  0.4778727E+02  0.7816164E-02  0.1312668E+00
        -11   -1    0    0    0    0  0.00000000000E+00  0.00000000000E+00  0.45593999997E+02  0.45594000000E+02  0.51100000000E-03 0.  1.
         11   -1    0    0    0    0 -0.00000000000E+00 -0.00000000000E+00 -0.45593999997E+02  0.45594000000E+02  0.51100000000E-03 0. -1.
    9900012    2    1    2    0    0 -0.71900081052E+01 -0.41888558417E+02  0.87906463493E+01  0.47787274130E+02  0.20000014069E+02 0.  0.
         12    1    1    2    0    0  0.71900081052E+01  0.41888558417E+02 -0.87906463493E+01  0.43400725870E+02  0.00000000000E+00 0. -1.
         11    1    3    3    0    0 -0.41172175794E+01 -0.86095437039E+01 -0.31367349398E+01  0.10045637348E+02  0.51100000000E-03 0. -1.
        -11    1    3    3    0    0  0.32798693993E+00 -0.26657280573E+02  0.41578124331E+01  0.26981578669E+02  0.51100000000E-03 0.  1.
        -12    1    3    3    0    0 -0.34007774657E+01 -0.66217341399E+01  0.77695688560E+01  0.10760058113E+02  0.00000000000E+00 0.  1.
</event>
<event>
 7    1  0.2414091E-009  0.4778728E+02  0.7816164E-02  0.1312668E+00
        -11   -1    0    0    0    0  0.00000000000E+00  0.00000000000E+00  0.45593999997E+02  0.45594000000E+02  0.51100000000E-03 0. -1.
         11   -1    0    0    0    0 -0.00000000000E+00 -0.00000000000E+00 -0.45593999997E+02  0.45594000000E+02  0.51100000000E-03 0.  1.
    9900012    2    1    2    0    0 -0.38723796474E+02  0.11255355995E+02 -0.16043918639E+02  0.47787276766E+02  0.20000026086E+02 0.  0.
         12    1    1    2    0    0  0.38723796474E+02 -0.11255355995E+02  0.16043918639E+02  0.43400723234E+02  0.00000000000E+00 0. -1.
         11    1    3    3    0    0 -0.53742683481E+00 -0.13021677644E+01 -0.97189381880E+00  0.17114456888E+01  0.51100000000E-03 0. -1.
        -11    1    3    3    0    0 -0.21815893056E+02  0.12040433223E+02 -0.16097069102E+02  0.29665145474E+02  0.51100000000E-03 0.  1.
        -12    1    3    3    0    0 -0.16370476583E+02  0.51709053572E+00  0.10250442814E+01  0.16410685603E+02  0.00000000000E+00 0.  1.
</event>
<event>
 7    1  0.2414091E-009  0.4778727E+02  0.7816164E-02  0.1312668E+00
        -11   -1    0    0    0    0  0.00000000000E+00  0.00000000000E+00  0.45593999997E+02  0.45594000000E+02  0.51100000000E-03 0.  1.
         11   -1    0    0    0    0 -0.00000000000E+00 -0.00000000000E+00 -0.45593999997E+02  0.45594000000E+02  0.51100000000E-03 0. -1.
    9900012    2    1    2    0    0  0.12823131838E+02 -0.41050801193E+02  0.58328662523E+01  0.47787270543E+02  0.19999997713E+02 0.  0.
         12    1    1    2    0    0 -0.12823131838E+02  0.41050801193E+02 -0.58328662523E+01  0.43400729457E+02  0.00000000000E+00 0. -1.
         11    1    3    3    0    0 -0.16480897405E+01 -0.12711842270E+02  0.69937311070E+01  0.14602034405E+02  0.51100000000E-03 0. -1.
        -11    1    3    3    0    0  0.48284385387E+01 -0.47904407857E+01  0.29413236621E+01  0.74103661711E+01  0.51100000000E-03 0.  1.
         12    1    3    3    0    0  0.96427830399E+01 -0.23548518137E+02 -0.41021885168E+01  0.25774869967E+02  0.00000000000E+00 0. -1.
</event>
<event>
 7    1  0.2414091E-009  0.4778728E+02  0.7816164E-02  0.1312668E+00
        -11   -1    0    0    0    0  0.00000000000E+00  0.00000000000E+00  0.45593999997E+02  0.45594000000E+02  0.51100000000E-03 0.  1.
         11   -1    0    0    0    0 -0.00000000000E+00 -0.00000000000E+00 -0.45593999997E+02  0.45594000000E+02  0.51100000000E-03 0. -1.
    9900012    2    1    2    0    0  0.31281554608E+02 -0.48275089125E+01  0.29694813926E+02  0.47787280247E+02  0.20000041959E+02 0.  0.
         12    1    1    2    0    0 -0.31281554608E+02  0.48275089125E+01 -0.29694813926E+02  0.43400719753E+02  0.00000000000E+00 0. -1.
         11    1    3    3    0    0  0.16032089905E+02 -0.44334816529E+01  0.48013396989E+01  0.17312900666E+02  0.51100000000E-03 0. -1.
        -11    1    3    3    0    0  0.83248935187E+01 -0.37244726333E+01  0.89606054086E+01  0.12785460416E+02  0.51100000000E-03 0.  1.
        -12    1    3    3    0    0  0.69245711836E+01  0.33304453737E+01  0.15932868819E+02  0.17688919166E+02  0.00000000000E+00 0.  1.
</event>
<event>
 7    1  0.2414091E-009  0.4778727E+02  0.7816164E-02  0.1312668E+00
        -11   -1    0    0    0    0  0.00000000000E+00  0.00000000000E+00  0.45593999997E+02  0.45594000000E+02  0.51100000000E-03 0.  1.
         11   -1    0    0    0    0 -0.00000000000E+00 -0.00000000000E+00 -0.45593999997E+02  0.45594000000E+02  0.51100000000E-03 0. -1.
    9900012    2    1    2    0    0  0.27201394642E+02 -0.67210180393E+01  0.33144160191E+02  0.47787270643E+02  0.19999998169E+02 0.  0.
         12    1    1    2    0    0 -0.27201394642E+02  0.67210180393E+01 -0.33144160191E+02  0.43400729357E+02  0.00000000000E+00 0. -1.
         11    1    3    3    0    0  0.45046030592E+00 -0.17650486350E+01 -0.79898340890E+00  0.19891420060E+01  0.51100000000E-03 0. -1.
        -11    1    3    3    0    0  0.18917643263E+02 -0.37622206079E+01  0.12618765296E+02  0.23049181512E+02  0.51100000000E-03 0.  1.
        -12    1    3    3    0    0  0.78332910731E+01 -0.11937487963E+01  0.21324378304E+02  0.22748947125E+02  0.00000000000E+00 0.  1.
</event>
<event>
 7    1  0.2414091E-009  0.4778726E+02  0.7816164E-02  0.1312668E+00
        -11   -1    0    0    0    0  0.00000000000E+00  0.00000000000E+00  0.45593999997E+02  0.45594000000E+02  0.51100000000E-03 0.  1.
         11   -1    0    0    0    0 -0.00000000000E+00 -0.00000000000E+00 -0.45593999997E+02  0.45594000000E+02  0.51100000000E-03 0. -1.
    9900012    2    1    2    0    0 -0.16277858984E+02  0.34272035342E+02  0.21073270203E+02  0.47787264792E+02  0.19999971492E+02 0.  0.
         12    1    1    2    0    0  0.16277858984E+02 -0.34272035342E+02 -0.21073270203E+02  0.43400735208E+02  0.00000000000E+00 0. -1.
         11    1    3    3    0    0 -0.25609156764E+01  0.25218821196E+02  0.14278826682E+02  0.29093506548E+02  0.51100000000E-03 0. -1.
        -11    1    3    3    0    0 -0.28034568330E+01  0.29327478407E+01  0.43431456787E+01  0.59433403705E+01  0.51100000000E-03 0.  1.
         12    1    3    3    0    0 -0.10913486475E+02  0.61204663053E+01  0.24512978420E+01  0.12750417873E+02  0.00000000000E+00 0. -1.
</event>
<event>
 7    1  0.2414091E-009  0.4778726E+02  0.7816164E-02  0.1312668E+00
        -11   -1    0    0    0    0  0.00000000000E+00  0.00000000000E+00  0.45593999997E+02  0.45594000000E+02  0.51100000000E-03 0. -1.
         11   -1    0    0    0    0 -0.00000000000E+00 -0.00000000000E+00 -0.45593999997E+02  0.45594000000E+02  0.51100000000E-03 0.  1.
    9900012    2    1    2    0    0 -0.36013214740E+02 -0.22256646718E+02  0.95558541764E+01  0.47787259130E+02  0.19999945676E+02 0.  0.
         12    1    1    2    0    0  0.36013214740E+02  0.22256646718E+02 -0.95558541764E+01  0.43400740870E+02  0.00000000000E+00 0. -1.
         11    1    3    3    0    0 -0.68556330139E+00 -0.44612409969E+01 -0.15989648574E+01  0.47884608330E+01  0.51100000000E-03 0. -1.
        -11    1    3    3    0    0 -0.92142304973E+01  0.11091335298E+01  0.28439698801E+01  0.97067185900E+01  0.51100000000E-03 0.  1.
        -12    1    3    3    0    0 -0.26113420942E+02 -0.18904539250E+02  0.83108491536E+01  0.33292079707E+02  0.00000000000E+00 0.  1.
</event>
<event>
 7    1  0.2414091E-009  0.4778727E+02  0.7816164E-02  0.1312668E+00
        -11   -1    0    0    0    0  0.00000000000E+00  0.00000000000E+00  0.45593999997E+02  0.45594000000E+02  0.51100000000E-03 0.  1.
         11   -1    0    0    0    0 -0.00000000000E+00 -0.00000000000E+00 -0.45593999997E+02  0.45594000000E+02  0.51100000000E-03 0. -1.
    9900012    2    1    2    0    0 -0.25444815180E+02 -0.17690315336E+02  0.30384819491E+02  0.47787272682E+02  0.20000007466E+02 0.  0.
         12    1    1    2    0    0  0.25444815180E+02  0.17690315336E+02 -0.30384819491E+02  0.43400727318E+02  0.00000000000E+00 0. -1.
         11    1    3    3    0    0 -0.50300148411E+01 -0.50347767542E+01 -0.11840065589E-01  0.71168930521E+01  0.51100000000E-03 0. -1.
        -11    1    3    3    0    0  0.67544131204E+00 -0.40758340539E+01  0.61527994476E+01  0.74111797647E+01  0.51100000000E-03 0.  1.
        -12    1    3    3    0    0 -0.21090241651E+02 -0.85797045275E+01  0.24243860109E+02  0.33259199865E+02  0.00000000000E+00 0.  1.
</event>
<event>
 7    1  0.2414091E-009  0.4778728E+02  0.7816164E-02  0.1312668E+00
        -11   -1    0    0    0    0  0.00000000000E+00  0.00000000000E+00  0.45593999997E+02  0.45594000000E+02  0.51100000000E-03 0.  1.
         11   -1    0    0    0    0 -0.00000000000E+00 -0.00000000000E+00 -0.45593999997E+02  0.45594000000E+02  0.51100000000E-03 0. -1.
    9900012    2    1    2    0    0  0.20365318091E+02 -0.12067955940E+02  0.36376376522E+02  0.47787279840E+02  0.20000040104E+02 0.  0.
         12    1    1    2    0    0 -0.20365318091E+02  0.12067955940E+02 -0.36376376522E+02  0.43400720160E+02  0.00000000000E+00 0. -1.
         11    1    3    3    0    0  0.20768304426E+01  0.30105967305E+01  0.85383260523E+01  0.92886990153E+01  0.51100000000E-03 0. -1.
        -11    1    3    3    0    0  0.39428000129E+01 -0.80765768424E+01  0.16919455921E+02  0.19158412104E+02  0.51100000000E-03 0.  1.
        -12    1    3    3    0    0  0.14345687635E+02 -0.70019758277E+01  0.10918594549E+02  0.19340168721E+02  0.00000000000E+00 0.  1.
</event>
<event>
 7    1  0.2414091E-009  0.4778729E+02  0.7816164E-02  0.1312668E+00
        -11   -1    0    0    0    0  0.00000000000E+00  0.00000000000E+00  0.45593999997E+02  0.45594000000E+02  0.51100000000E-03 0.  1.
         11   -1    0    0    0    0 -0.00000000000E+00 -0.00000000000E+00 -0.45593999997E+02  0.45594000000E+02  0.51100000000E-03 0. -1.
    9900012    2    1    2    0    0  0.36055427880E+01 -0.13271727762E+02  0.41164096206E+02  0.47787291330E+02  0.20000092489E+02 0.  0.
         12    1    1    2    0    0 -0.36055427880E+01  0.13271727762E+02 -0.41164096206E+02  0.43400708670E+02  0.00000000000E+00 0. -1.
         11    1    3    3    0    0 -0.27093602129E+01 -0.24369415604E+01  0.65337062297E+00  0.37021899417E+01  0.51100000000E-03 0. -1.
        -11    1    3    3    0    0  0.21225014343E+01 -0.45614886062E+01  0.30746850184E+01  0.58962597354E+01  0.51100000000E-03 0.  1.
        -12    1    3    3    0    0  0.41924015666E+01 -0.62732975958E+01  0.37436040565E+02  0.38188841653E+02  0.00000000000E+00 0.  1.
</event>
<event>
 7    1  0.2414091E-009  0.4778727E+02  0.7816164E-02  0.1312668E+00
        -11   -1    0    0    0    0  0.00000000000E+00  0.00000000000E+00  0.45593999997E+02  0.45594000000E+02  0.51100000000E-03 0.  1.
         11   -1    0    0    0    0 -0.00000000000E+00 -0.00000000000E+00 -0.45593999997E+02  0.45594000000E+02  0.51100000000E-03 0. -1.
    9900012    2    1    2    0    0 -0.36568102876E+02  0.17679008895E+02  0.15292148751E+02  0.47787270549E+02  0.19999997740E+02 0.  0.
         12    1    1    2    0    0  0.36568102876E+02 -0.17679008895E+02 -0.15292148751E+02  0.43400729451E+02  0.00000000000E+00 0. -1.
         11    1    3    3    0    0 -0.46119498264E+01 -0.24070981282E+01 -0.74700807695E+00  0.52556849152E+01  0.51100000000E-03 0. -1.
        -11    1    3    3    0    0 -0.10061504981E+01  0.32919546013E+01 -0.74690347956E+00  0.35223811536E+01  0.51100000000E-03 0.  1.
        -12    1    3    3    0    0 -0.30950002552E+02  0.16794152422E+02  0.16786060307E+02  0.39009204480E+02  0.00000000000E+00 0.  1.
</event>
<event>
 7    1  0.2414091E-009  0.4778727E+02  0.7816164E-02  0.1312668E+00
        -11   -1    0    0    0    0  0.00000000000E+00  0.00000000000E+00  0.45593999997E+02  0.45594000000E+02  0.51100000000E-03 0.  1.
         11   -1    0    0    0    0 -0.00000000000E+00 -0.00000000000E+00 -0.45593999997E+02  0.45594000000E+02  0.51100000000E-03 0. -1.
    9900012    2    1    2    0    0  0.35579969172E+02 -0.24417587192E+02  0.46336405062E+01  0.47787269650E+02  0.19999993642E+02 0.  0.
         12    1    1    2    0    0 -0.35579969172E+02  0.24417587192E+02 -0.46336405062E+01  0.43400730350E+02  0.00000000000E+00 0. -1.
         11    1    3    3    0    0  0.19452583005E+02 -0.39851029120E+01 -0.29830936034E+01  0.20079414296E+02  0.51100000000E-03 0. -1.
        -11    1    3    3    0    0  0.82188523921E+00 -0.80628921397E+00  0.18191103060E+01  0.21528493235E+01  0.51100000000E-03 0.  1.
        -12    1    3    3    0    0  0.15305500928E+02 -0.19626195066E+02  0.57976238037E+01  0.25555006030E+02  0.00000000000E+00 0.  1.
</event>
<event>
 7    1  0.2414091E-009  0.4778727E+02  0.7816164E-02  0.1312668E+00
        -11   -1    0    0    0    0  0.00000000000E+00  0.00000000000E+00  0.45593999997E+02  0.45594000000E+02  0.51100000000E-03 0.  1.
         11   -1    0    0    0    0 -0.00000000000E+00 -0.00000000000E+00 -0.45593999997E+02  0.45594000000E+02  0.51100000000E-03 0. -1.
    9900012    2    1    2    0    0  0.25637261971E+02 -0.46293536374E+01  0.34712002036E+02  0.47787271875E+02  0.20000003786E+02 0.  0.
         12    1    1    2    0    0 -0.25637261971E+02  0.46293536374E+01 -0.34712002036E+02  0.43400728125E+02  0.00000000000E+00 0. -1.
         11    1    3    3    0    0  0.20715580821E+01  0.79584370815E+00 -0.76888394185E+00  0.23485959364E+01  0.51100000000E-03 0. -1.
        -11    1    3    3    0    0  0.37318885320E+01  0.10822504242E+01  0.17381491190E+02  0.17810516395E+02  0.51100000000E-03 0.  1.
         12    1    3    3    0    0  0.19833815357E+02 -0.65074477698E+01  0.18099394787E+02  0.27628159544E+02  0.00000000000E+00 0. -1.
</event>
<event>
 7    1  0.2414091E-009  0.4778727E+02  0.7816164E-02  0.1312668E+00
        -11   -1    0    0    0    0  0.00000000000E+00  0.00000000000E+00  0.45593999997E+02  0.45594000000E+02  0.51100000000E-03 0.  1.
         11   -1    0    0    0    0 -0.00000000000E+00 -0.00000000000E+00 -0.45593999997E+02  0.45594000000E+02  0.51100000000E-03 0. -1.
    9900012    2    1    2    0    0 -0.42972403373E+01  0.34320119793E+02  0.26216144746E+02  0.47787272558E+02  0.20000006902E+02 0.  0.
         12    1    1    2    0    0  0.42972403373E+01 -0.34320119793E+02 -0.26216144746E+02  0.43400727442E+02  0.00000000000E+00 0. -1.
         11    1    3    3    0    0 -0.50023357207E+00 -0.19994503862E+01  0.61843383978E+00  0.21518587660E+01  0.51100000000E-03 0. -1.
        -11    1    3    3    0    0  0.23452748779E+01  0.80605739640E+01  0.89333279852E+01  0.12258773023E+02  0.51100000000E-03 0.  1.
         12    1    3    3    0    0 -0.61422816432E+01  0.28258996215E+02  0.16664382921E+02  0.33376640769E+02  0.00000000000E+00 0. -1.
</event>
<event>
 7    1  0.2414091E-009  0.4778727E+02  0.7816164E-02  0.1312668E+00
        -11   -1    0    0    0    0  0.00000000000E+00  0.00000000000E+00  0.45593999997E+02  0.45594000000E+02  0.51100000000E-03 0.  1.
         11   -1    0    0    0    0 -0.00000000000E+00 -0.00000000000E+00 -0.45593999997E+02  0.45594000000E+02  0.51100000000E-03 0. -1.
    9900012    2    1    2    0    0  0.23802381029E+02  0.25621121608E+02  0.25702695117E+02  0.47787265543E+02  0.19999974918E+02 0.  0.
         12    1    1    2    0    0 -0.23802381029E+02 -0.25621121608E+02 -0.25702695117E+02  0.43400734457E+02  0.00000000000E+00 0. -1.
         11    1    3    3    0    0 -0.22801512268E+01 -0.13971381590E+01  0.14146474569E+01  0.30252788864E+01  0.51100000000E-03 0. -1.
        -11    1    3    3    0    0  0.54054657502E+01  0.58104575335E+01  0.42637984975E+01  0.90089097350E+01  0.51100000000E-03 0.  1.
         12    1    3    3    0    0  0.20677066506E+02  0.21207802234E+02  0.20024249162E+02  0.35753076922E+02  0.00000000000E+00 0. -1.
</event>
<event>
 7    1  0.2414091E-009  0.4778727E+02  0.7816164E-02  0.1312668E+00
        -11   -1    0    0    0    0  0.00000000000E+00  0.00000000000E+00  0.45593999997E+02  0.45594000000E+02  0.51100000000E-03 0. -1.
         11   -1    0    0    0    0 -0.00000000000E+00 -0.00000000000E+00 -0.45593999997E+02  0.45594000000E+02  0.51100000000E-03 0.  1.
    9900012    2    1    2    0    0  0.34438520406E+02 -0.20993165620E+02  0.16028057566E+02  0.47787270515E+02  0.19999997587E+02 0.  0.
         12    1    1    2    0    0 -0.34438520406E+02  0.20993165620E+02 -0.16028057566E+02  0.43400729485E+02  0.00000000000E+00 0. -1.
         11    1    3    3    0    0  0.10446629098E+02 -0.78531430207E+01  0.13903229606E+01  0.13142941566E+02  0.51100000000E-03 0. -1.
        -11    1    3    3    0    0  0.15016084121E+02 -0.14710700975E+02  0.54760060710E+01  0.21722664391E+02  0.51100000000E-03 0.  1.
         12    1    3    3    0    0  0.89758071872E+01  0.15706783756E+01  0.91617285342E+01  0.12921664558E+02  0.00000000000E+00 0. -1.
</event>
<event>
 7    1  0.2414091E-009  0.4778727E+02  0.7816164E-02  0.1312668E+00
        -11   -1    0    0    0    0  0.00000000000E+00  0.00000000000E+00  0.45593999997E+02  0.45594000000E+02  0.51100000000E-03 0.  1.
         11   -1    0    0    0    0 -0.00000000000E+00 -0.00000000000E+00 -0.45593999997E+02  0.45594000000E+02  0.51100000000E-03 0. -1.
    9900012    2    1    2    0    0  0.36261808635E+02  0.29696290624E+01  0.23661912074E+02  0.47787267918E+02  0.19999985746E+02 0.  0.
         12    1    1    2    0    0 -0.36261808635E+02 -0.29696290624E+01 -0.23661912074E+02  0.43400732082E+02  0.00000000000E+00 0. -1.
         11    1    3    3    0    0  0.69495713527E+01  0.24325778854E+01 -0.28809978657E+01  0.79065875141E+01  0.51100000000E-03 0. -1.
        -11    1    3    3    0    0  0.86749004399E+01  0.23727711046E+01  0.69653909587E+01  0.11375438973E+02  0.51100000000E-03 0.  1.
        -12    1    3    3    0    0  0.20637336842E+02 -0.18357199276E+01  0.19577518981E+02  0.28505241431E+02  0.00000000000E+00 0.  1.
</event>
<event>
 7    1  0.2414091E-009  0.4778727E+02  0.7816164E-02  0.1312668E+00
        -11   -1    0    0    0    0  0.00000000000E+00  0.00000000000E+00  0.45593999997E+02  0.45594000000E+02  0.51100000000E-03 0. -1.
         11   -1    0    0    0    0 -0.00000000000E+00 -0.00000000000E+00 -0.45593999997E+02  0.45594000000E+02  0.51100000000E-03 0.  1.
    9900012    2    1    2    0    0 -0.11398320140E+02  0.17662809260E+02 -0.37970078216E+02  0.47787269906E+02  0.19999994807E+02 0.  0.
         12    1    1    2    0    0  0.11398320140E+02 -0.17662809260E+02  0.37970078216E+02  0.43400730094E+02  0.00000000000E+00 0. -1.
         11    1    3    3    0    0 -0.23460008586E+01 -0.20602482020E+01 -0.93148945528E+01  0.98242355160E+01  0.51100000000E-03 0. -1.
        -11    1    3    3    0    0 -0.83143965889E+01  0.46414105153E+01 -0.13917802160E+02  0.16863484202E+02  0.51100000000E-03 0.  1.
        -12    1    3    3    0    0 -0.73792269235E+00  0.15081646947E+02 -0.14737381504E+02  0.21099550187E+02  0.00000000000E+00 0.  1.
</event>
<event>
 7    1  0.2414091E-009  0.4778727E+02  0.7816164E-02  0.1312668E+00
        -11   -1    0    0    0    0  0.00000000000E+00  0.00000000000E+00  0.45593999997E+02  0.45594000000E+02  0.51100000000E-03 0.  1.
         11   -1    0    0    0    0 -0.00000000000E+00 -0.00000000000E+00 -0.45593999997E+02  0.45594000000E+02  0.51100000000E-03 0. -1.
    9900012    2    1    2    0    0 -0.43399112707E+02  0.36887812631E+00  0.64442818146E-01  0.47787271807E+02  0.20000003476E+02 0.  0.
         12    1    1    2    0    0  0.43399112707E+02 -0.36887812631E+00 -0.64442818146E-01  0.43400728193E+02  0.00000000000E+00 0. -1.
         11    1    3    3    0    0 -0.31460328894E+01  0.31592284658E+01 -0.11121813119E+01  0.45951273075E+01  0.51100000000E-03 0. -1.
        -11    1    3    3    0    0 -0.39062836070E+02 -0.52851990311E+01 -0.13574819882E+01  0.39442125300E+02  0.51100000000E-03 0.  1.
        -12    1    3    3    0    0 -0.11902437480E+01  0.24948486916E+01  0.25341061183E+01  0.37500191989E+01  0.00000000000E+00 0.  1.
</event>
<event>
 7    1  0.2414091E-009  0.4778727E+02  0.7816164E-02  0.1312668E+00
        -11   -1    0    0    0    0  0.00000000000E+00  0.00000000000E+00  0.45593999997E+02  0.45594000000E+02  0.51100000000E-03 0.  1.
         11   -1    0    0    0    0 -0.00000000000E+00 -0.00000000000E+00 -0.45593999997E+02  0.45594000000E+02  0.51100000000E-03 0. -1.
    9900012    2    1    2    0    0 -0.28820717976E+02 -0.60221766728E+01  0.31886091156E+02  0.47787271829E+02  0.20000003579E+02 0.  0.
         12    1    1    2    0    0  0.28820717976E+02  0.60221766728E+01 -0.31886091156E+02  0.43400728171E+02  0.00000000000E+00 0. -1.
         11    1    3    3    0    0 -0.80284774668E+01 -0.50410712565E+01  0.75297501300E+01  0.12106444033E+02  0.51100000000E-03 0. -1.
        -11    1    3    3    0    0 -0.95908242792E+01  0.80051265827E+00  0.22116189175E+02  0.24119505691E+02  0.51100000000E-03 0.  1.
         12    1    3    3    0    0 -0.11201416230E+02 -0.17816180746E+01  0.22401518515E+01  0.11561322106E+02  0.00000000000E+00 0. -1.
</event>
<event>
 7    1  0.2414091E-009  0.4778727E+02  0.7816164E-02  0.1312668E+00
        -11   -1    0    0    0    0  0.00000000000E+00  0.00000000000E+00  0.45593999997E+02  0.45594000000E+02  0.51100000000E-03 0.  1.
         11   -1    0    0    0    0 -0.00000000000E+00 -0.00000000000E+00 -0.45593999997E+02  0.45594000000E+02  0.51100000000E-03 0. -1.
    9900012    2    1    2    0    0 -0.42530565535E+01  0.43014348337E+02 -0.39115942412E+01  0.47787271637E+02  0.20000002702E+02 0.  0.
         12    1    1    2    0    0  0.42530565535E+01 -0.43014348337E+02  0.39115942412E+01  0.43400728363E+02  0.00000000000E+00 0. -1.
         11    1    3    3    0    0 -0.18992901434E+01  0.12541493929E+02 -0.17330659555E+01  0.12802339274E+02  0.51100000000E-03 0. -1.
        -11    1    3    3    0    0 -0.43063780751E+01  0.32042431493E+02 -0.26377609056E+01  0.32437942151E+02  0.51100000000E-03 0.  1.
         12    1    3    3    0    0  0.19526116649E+01 -0.15695770851E+01  0.45923261988E+00  0.25469902119E+01  0.00000000000E+00 0. -1.
</event>
<event>
 7    1  0.2414091E-009  0.4778727E+02  0.7816164E-02  0.1312668E+00
        -11   -1    0    0    0    0  0.00000000000E+00  0.00000000000E+00  0.45593999997E+02  0.45594000000E+02  0.51100000000E-03 0. -1.
         11   -1    0    0    0    0 -0.00000000000E+00 -0.00000000000E+00 -0.45593999997E+02  0.45594000000E+02  0.51100000000E-03 0.  1.
    9900012    2    1    2    0    0 -0.28369159516E+02 -0.28013069528E+02  0.17148810258E+02  0.47787274553E+02  0.20000015999E+02 0.  0.
         12    1    1    2    0    0  0.28369159516E+02  0.28013069528E+02 -0.17148810258E+02  0.43400725447E+02  0.00000000000E+00 0. -1.
         11    1    3    3    0    0 -0.17540227666E+01 -0.41207113338E+01  0.61655109974E+01  0.76203926331E+01  0.51100000000E-03 0. -1.
        -11    1    3    3    0    0 -0.18818398513E+02 -0.15143897248E+02  0.14193569317E+02  0.28016551477E+02  0.51100000000E-03 0.  1.
        -12    1    3    3    0    0 -0.77967382362E+01 -0.87484609463E+01 -0.32102700558E+01  0.12150330443E+02  0.00000000000E+00 0.  1.
</event>
<event>
 7    1  0.2414091E-009  0.4778727E+02  0.7816164E-02  0.1312668E+00
        -11   -1    0    0    0    0  0.00000000000E+00  0.00000000000E+00  0.45593999997E+02  0.45594000000E+02  0.51100000000E-03 0. -1.
         11   -1    0    0    0    0 -0.00000000000E+00 -0.00000000000E+00 -0.45593999997E+02  0.45594000000E+02  0.51100000000E-03 0.  1.
    9900012    2    1    2    0    0  0.35350568732E+02  0.23616101607E+02 -0.87315604674E+01  0.47787272898E+02  0.20000008451E+02 0.  0.
         12    1    1    2    0    0 -0.35350568732E+02 -0.23616101607E+02  0.87315604674E+01  0.43400727102E+02  0.00000000000E+00 0. -1.
         11    1    3    3    0    0  0.39044865361E+01 -0.30577293916E+01  0.71643435998E+00  0.50107886202E+01  0.51100000000E-03 0. -1.
        -11    1    3    3    0    0  0.97193095372E+01  0.65413123846E+01 -0.53305528855E+01  0.12871229153E+02  0.51100000000E-03 0.  1.
         12    1    3    3    0    0  0.21726772659E+02  0.20132518614E+02 -0.41174419419E+01  0.29905255124E+02  0.00000000000E+00 0. -1.
</event>
<event>
 7    1  0.2414091E-009  0.4778728E+02  0.7816164E-02  0.1312668E+00
        -11   -1    0    0    0    0  0.00000000000E+00  0.00000000000E+00  0.45593999997E+02  0.45594000000E+02  0.51100000000E-03 0.  1.
         11   -1    0    0    0    0 -0.00000000000E+00 -0.00000000000E+00 -0.45593999997E+02  0.45594000000E+02  0.51100000000E-03 0. -1.
    9900012    2    1    2    0    0 -0.26744229503E+02 -0.25216895004E+02  0.23075466780E+02  0.47787276821E+02  0.20000026338E+02 0.  0.
         12    1    1    2    0    0  0.26744229503E+02  0.25216895004E+02 -0.23075466780E+02  0.43400723179E+02  0.00000000000E+00 0. -1.
         11    1    3    3    0    0 -0.44614495332E+01 -0.30688346187E+01  0.30927805061E+00  0.54238299225E+01  0.51100000000E-03 0. -1.
        -11    1    3    3    0    0 -0.20401221275E+02 -0.88963519002E+01  0.15617872792E+02  0.27189572587E+02  0.51100000000E-03 0.  1.
         12    1    3    3    0    0 -0.18815586951E+01 -0.13251708485E+02  0.71483159372E+01  0.15173874312E+02  0.00000000000E+00 0. -1.
</event>
<event>
 7    1  0.2414091E-009  0.4778728E+02  0.7816164E-02  0.1312668E+00
        -11   -1    0    0    0    0  0.00000000000E+00  0.00000000000E+00  0.45593999997E+02  0.45594000000E+02  0.51100000000E-03 0.  1.
         11   -1    0    0    0    0 -0.00000000000E+00 -0.00000000000E+00 -0.45593999997E+02  0.45594000000E+02  0.51100000000E-03 0. -1.
    9900012    2    1    2    0    0  0.21009507640E+02  0.15200002416E+02  0.34802049612E+02  0.47787284085E+02  0.20000059457E+02 0.  0.
         12    1    1    2    0    0 -0.21009507640E+02 -0.15200002416E+02 -0.34802049612E+02  0.43400715915E+02  0.00000000000E+00 0. -1.
         11    1    3    3    0    0  0.22040762530E+01  0.55562446667E+01  0.57401757247E+01  0.82873050226E+01  0.51100000000E-03 0. -1.
        -11    1    3    3    0    0  0.37232911861E+01  0.10435120729E+02  0.83850321806E+01  0.13894725864E+02  0.51100000000E-03 0.  1.
         12    1    3    3    0    0  0.15082140201E+02 -0.79136298020E+00  0.20676841707E+02  0.25605253199E+02  0.00000000000E+00 0. -1.
</event>
<event>
 7    1  0.2414091E-009  0.4778725E+02  0.7816164E-02  0.1312668E+00
        -11   -1    0    0    0    0  0.00000000000E+00  0.00000000000E+00  0.45593999997E+02  0.45594000000E+02  0.51100000000E-03 0. -1.
         11   -1    0    0    0    0 -0.00000000000E+00 -0.00000000000E+00 -0.45593999997E+02  0.45594000000E+02  0.51100000000E-03 0.  1.
    9900012    2    1    2    0    0 -0.89297045694E+01 -0.11084964885E+02 -0.41000106018E+02  0.47787253881E+02  0.19999921743E+02 0.  0.
         12    1    1    2    0    0  0.89297045694E+01  0.11084964885E+02  0.41000106018E+02  0.43400746119E+02  0.00000000000E+00 0. -1.
         11    1    3    3    0    0  0.10271234857E+01 -0.88940389268E+00 -0.16438791237E+01  0.21326886256E+01  0.51100000000E-03 0. -1.
        -11    1    3    3    0    0 -0.24223727487E+01  0.50077006527E+01 -0.57086794188E+01  0.79708203172E+01  0.51100000000E-03 0.  1.
        -12    1    3    3    0    0 -0.75344553063E+01 -0.15203261645E+02 -0.33647547476E+02  0.37683744938E+02  0.00000000000E+00 0.  1.
</event>
<event>
 7    1  0.2414091E-009  0.4778729E+02  0.7816164E-02  0.1312668E+00
        -11   -1    0    0    0    0  0.00000000000E+00  0.00000000000E+00  0.45593999997E+02  0.45594000000E+02  0.51100000000E-03 0. -1.
         11   -1    0    0    0    0 -0.00000000000E+00 -0.00000000000E+00 -0.45593999997E+02  0.45594000000E+02  0.51100000000E-03 0.  1.
    9900012    2    1    2    0    0  0.26855122691E+02 -0.21878223669E+02 -0.26148942988E+02  0.47787291423E+02  0.20000092913E+02 0.  0.
         12    1    1    2    0    0 -0.26855122691E+02  0.21878223669E+02  0.26148942988E+02  0.43400708577E+02  0.00000000000E+00 0. -1.
         11    1    3    3    0    0  0.10734313439E+02 -0.42627270557E+00 -0.17357036771E+01  0.10882088998E+02  0.51100000000E-03 0. -1.
        -11    1    3    3    0    0  0.94163845990E+01 -0.83406323924E+01 -0.82689789843E+01  0.15053586328E+02  0.51100000000E-03 0.  1.
        -12    1    3    3    0    0  0.67044246521E+01 -0.13111318571E+02 -0.16144260327E+02  0.21851616097E+02  0.00000000000E+00 0.  1.
</event>
<event>
 7    1  0.2414091E-009  0.4778727E+02  0.7816164E-02  0.1312668E+00
        -11   -1    0    0    0    0  0.00000000000E+00  0.00000000000E+00  0.45593999997E+02  0.45594000000E+02  0.51100000000E-03 0.  1.
         11   -1    0    0    0    0 -0.00000000000E+00 -0.00000000000E+00 -0.45593999997E+02  0.45594000000E+02  0.51100000000E-03 0. -1.
    9900012    2    1    2    0    0  0.29184348343E+02  0.53304575800E+01  0.31677804305E+02  0.47787271299E+02  0.20000001161E+02 0.  0.
         12    1    1    2    0    0 -0.29184348343E+02 -0.53304575800E+01 -0.31677804305E+02  0.43400728701E+02  0.00000000000E+00 0. -1.
         11    1    3    3    0    0  0.17644663382E+02 -0.23261829800E+01  0.13098070678E+02  0.22097618172E+02  0.51100000000E-03 0. -1.
        -11    1    3    3    0    0  0.81493215833E+01 -0.11482539706E+01  0.74738682227E+01  0.11117042589E+02  0.51100000000E-03 0.  1.
        -12    1    3    3    0    0  0.33903633770E+01  0.88048945306E+01  0.11105865404E+02  0.14572610538E+02  0.00000000000E+00 0.  1.
</event>
<event>
 7    1  0.2414091E-009  0.4778727E+02  0.7816164E-02  0.1312668E+00
        -11   -1    0    0    0    0  0.00000000000E+00  0.00000000000E+00  0.45593999997E+02  0.45594000000E+02  0.51100000000E-03 0. -1.
         11   -1    0    0    0    0 -0.00000000000E+00 -0.00000000000E+00 -0.45593999997E+02  0.45594000000E+02  0.51100000000E-03 0.  1.
    9900012    2    1    2    0    0 -0.19696824666E+02  0.37415642451E+02  0.97840845924E+01  0.47787268287E+02  0.19999987427E+02 0.  0.
         12    1    1    2    0    0  0.19696824666E+02 -0.37415642451E+02 -0.97840845924E+01  0.43400731713E+02  0.00000000000E+00 0. -1.
         11    1    3    3    0    0 -0.83860954264E+01  0.28516720354E+01  0.27433924387E+01  0.92728006682E+01  0.51100000000E-03 0. -1.
        -11    1    3    3    0    0 -0.96042334002E+00  0.12646373371E+02  0.65422346047E+01  0.14270739515E+02  0.51100000000E-03 0.  1.
         12    1    3    3    0    0 -0.10350305899E+02  0.21917597045E+02  0.49845754905E+00  0.24243728104E+02  0.00000000000E+00 0. -1.
</event>
<event>
 7    1  0.2414091E-009  0.4778727E+02  0.7816164E-02  0.1312668E+00
        -11   -1    0    0    0    0  0.00000000000E+00  0.00000000000E+00  0.45593999997E+02  0.45594000000E+02  0.51100000000E-03 0.  1.
         11   -1    0    0    0    0 -0.00000000000E+00 -0.00000000000E+00 -0.45593999997E+02  0.45594000000E+02  0.51100000000E-03 0. -1.
    9900012    2    1    2    0    0 -0.29451496997E+02 -0.26103727867E+02  0.18298311872E+02  0.47787268424E+02  0.19999988054E+02 0.  0.
         12    1    1    2    0    0  0.29451496997E+02  0.26103727867E+02 -0.18298311872E+02  0.43400731576E+02  0.00000000000E+00 0. -1.
         11    1    3    3    0    0 -0.99823958103E+01 -0.19166142633E+01  0.28906800340E+00  0.10168834590E+02  0.51100000000E-03 0. -1.
        -11    1    3    3    0    0 -0.74543120458E+01 -0.18907284383E+01  0.38144814018E+01  0.85843980994E+01  0.51100000000E-03 0.  1.
        -12    1    3    3    0    0 -0.12014789141E+02 -0.22296385166E+02  0.14194762467E+02  0.29034035735E+02  0.00000000000E+00 0.  1.
</event>
<event>
 7    1  0.2414091E-009  0.4778727E+02  0.7816164E-02  0.1312668E+00
        -11   -1    0    0    0    0  0.00000000000E+00  0.00000000000E+00  0.45593999997E+02  0.45594000000E+02  0.51100000000E-03 0.  1.
         11   -1    0    0    0    0 -0.00000000000E+00 -0.00000000000E+00 -0.45593999997E+02  0.45594000000E+02  0.51100000000E-03 0. -1.
    9900012    2    1    2    0    0 -0.14458230786E+02  0.27137086162E+02  0.30629415016E+02  0.47787274810E+02  0.20000017168E+02 0.  0.
         12    1    1    2    0    0  0.14458230786E+02 -0.27137086162E+02 -0.30629415016E+02  0.43400725190E+02  0.00000000000E+00 0. -1.
         11    1    3    3    0    0  0.15855618740E+01 -0.13060568851E+01  0.48667013230E+01  0.52824779291E+01  0.51100000000E-03 0. -1.
        -11    1    3    3    0    0 -0.71708064718E+01  0.58958286840E+01  0.97426482422E+01  0.13457356960E+02  0.51100000000E-03 0.  1.
         12    1    3    3    0    0 -0.88729861881E+01  0.22547314363E+02  0.16020065451E+02  0.29047439920E+02  0.00000000000E+00 0. -1.
</event>
<event>
 7    1  0.2414091E-009  0.4778728E+02  0.7816164E-02  0.1312668E+00
        -11   -1    0    0    0    0  0.00000000000E+00  0.00000000000E+00  0.45593999997E+02  0.45594000000E+02  0.51100000000E-03 0.  1.
         11   -1    0    0    0    0 -0.00000000000E+00 -0.00000000000E+00 -0.45593999997E+02  0.45594000000E+02  0.51100000000E-03 0. -1.
    9900012    2    1    2    0    0 -0.12620972301E+02  0.22221465731E+02  0.35079058959E+02  0.47787275829E+02  0.20000021816E+02 0.  0.
         12    1    1    2    0    0  0.12620972301E+02 -0.22221465731E+02 -0.35079058959E+02  0.43400724171E+02  0.00000000000E+00 0. -1.
         11    1    3    3    0    0 -0.36135001173E+01  0.70735517710E+01  0.16983387201E+02  0.18749078879E+02  0.51100000000E-03 0. -1.
        -11    1    3    3    0    0 -0.73478630721E+01  0.10122280116E+02  0.19850227025E+02  0.23462377537E+02  0.51100000000E-03 0.  1.
         12    1    3    3    0    0 -0.16596091118E+01  0.50256338448E+01 -0.17545552665E+01  0.55758194133E+01  0.00000000000E+00 0. -1.
</event>
<event>
 7    1  0.2414091E-009  0.4778727E+02  0.7816164E-02  0.1312668E+00
        -11   -1    0    0    0    0  0.00000000000E+00  0.00000000000E+00  0.45593999997E+02  0.45594000000E+02  0.51100000000E-03 0.  1.
         11   -1    0    0    0    0 -0.00000000000E+00 -0.00000000000E+00 -0.45593999997E+02  0.45594000000E+02  0.51100000000E-03 0. -1.
    9900012    2    1    2    0    0 -0.31661094295E+02  0.75818939264E+01  0.28700406962E+02  0.47787269969E+02  0.19999995095E+02 0.  0.
         12    1    1    2    0    0  0.31661094295E+02 -0.75818939264E+01 -0.28700406962E+02  0.43400730031E+02  0.00000000000E+00 0. -1.
         11    1    3    3    0    0 -0.27867955239E+01 -0.33937446140E+01  0.92272332268E+01  0.10218882771E+02  0.51100000000E-03 0.  1.
        -11    1    3    3    0    0 -0.94900600000E+01  0.50909383328E+01  0.11616167679E+02  0.15840272842E+02  0.51100000000E-03 0. -1.
         12    1    3    3    0    0 -0.19384238772E+02  0.58847002076E+01  0.78570060559E+01  0.21728114356E+02  0.00000000000E+00 0. -1.
</event>
<event>
 7    1  0.2414091E-009  0.4778727E+02  0.7816164E-02  0.1312668E+00
        -11   -1    0    0    0    0  0.00000000000E+00  0.00000000000E+00  0.45593999997E+02  0.45594000000E+02  0.51100000000E-03 0.  1.
         11   -1    0    0    0    0 -0.00000000000E+00 -0.00000000000E+00 -0.45593999997E+02  0.45594000000E+02  0.51100000000E-03 0. -1.
    9900012    2    1    2    0    0  0.16108002776E+01 -0.41645896817E+02  0.12109839201E+02  0.47787267234E+02  0.19999982625E+02 0.  0.
         12    1    1    2    0    0 -0.16108002776E+01  0.41645896817E+02 -0.12109839201E+02  0.43400732766E+02  0.00000000000E+00 0. -1.
         11    1    3    3    0    0 -0.42778751343E+01 -0.14937311020E+02  0.11403158927E+00  0.15538226400E+02  0.51100000000E-03 0. -1.
        -11    1    3    3    0    0  0.19619205770E+01 -0.14522637332E+02 -0.72444648224E-01  0.14654739026E+02  0.51100000000E-03 0.  1.
        -12    1    3    3    0    0  0.39267548349E+01 -0.12185948464E+02  0.12068252260E+02  0.17594301808E+02  0.00000000000E+00 0.  1.
</event>
<event>
 7    1  0.2414091E-009  0.4778727E+02  0.7816164E-02  0.1312668E+00
        -11   -1    0    0    0    0  0.00000000000E+00  0.00000000000E+00  0.45593999997E+02  0.45594000000E+02  0.51100000000E-03 0. -1.
         11   -1    0    0    0    0 -0.00000000000E+00 -0.00000000000E+00 -0.45593999997E+02  0.45594000000E+02  0.51100000000E-03 0.  1.
    9900012    2    1    2    0    0 -0.41541254022E+02  0.17078857388E+01 -0.12451122902E+02  0.47787272806E+02  0.20000008032E+02 0.  0.
         12    1    1    2    0    0  0.41541254022E+02 -0.17078857388E+01  0.12451122902E+02  0.43400727194E+02  0.00000000000E+00 0. -1.
         11    1    3    3    0    0 -0.55553197128E+01 -0.30257823062E+01  0.22370942126E+01  0.67098082277E+01  0.51100000000E-03 0. -1.
        -11    1    3    3    0    0 -0.25650039746E+02  0.15530928338E+01 -0.42475662669E+01  0.26045699372E+02  0.51100000000E-03 0.  1.
         12    1    3    3    0    0 -0.10335894564E+02  0.31805752111E+01 -0.10440650847E+02  0.15031765207E+02  0.00000000000E+00 0. -1.
</event>
<event>
 7    1  0.2414091E-009  0.4778728E+02  0.7816164E-02  0.1312668E+00
        -11   -1    0    0    0    0  0.00000000000E+00  0.00000000000E+00  0.45593999997E+02  0.45594000000E+02  0.51100000000E-03 0.  1.
         11   -1    0    0    0    0 -0.00000000000E+00 -0.00000000000E+00 -0.45593999997E+02  0.45594000000E+02  0.51100000000E-03 0. -1.
    9900012    2    1    2    0    0 -0.29203963707E+02 -0.11290032174E+01  0.32085458788E+02  0.47787276388E+02  0.20000024361E+02 0.  0.
         12    1    1    2    0    0  0.29203963707E+02  0.11290032174E+01 -0.32085458788E+02  0.43400723612E+02  0.00000000000E+00 0. -1.
         11    1    3    3    0    0 -0.81015825247E+00 -0.21173783062E+01 -0.11312920863E-01  0.22671073042E+01  0.51100000000E-03 0. -1.
        -11    1    3    3    0    0 -0.21065727656E+02 -0.62546298778E+01  0.21896973996E+02  0.31021972005E+02  0.51100000000E-03 0.  1.
         12    1    3    3    0    0 -0.73280777982E+01  0.72430049666E+01  0.10199797712E+02  0.14498197079E+02  0.00000000000E+00 0. -1.
</event>
<event>
 7    1  0.2414091E-009  0.4778727E+02  0.7816164E-02  0.1312668E+00
        -11   -1    0    0    0    0  0.00000000000E+00  0.00000000000E+00  0.45593999997E+02  0.45594000000E+02  0.51100000000E-03 0.  1.
         11   -1    0    0    0    0 -0.00000000000E+00 -0.00000000000E+00 -0.45593999997E+02  0.45594000000E+02  0.51100000000E-03 0. -1.
    9900012    2    1    2    0    0 -0.14838049683E+02  0.39644386629E+02  0.95800741831E+01  0.47787274995E+02  0.20000018011E+02 0.  0.
         12    1    1    2    0    0  0.14838049683E+02 -0.39644386629E+02 -0.95800741831E+01  0.43400725005E+02  0.00000000000E+00 0. -1.
         11    1    3    3    0    0 -0.16213346131E+01  0.10353173978E+02  0.23285558452E+00  0.10481944444E+02  0.51100000000E-03 0. -1.
        -11    1    3    3    0    0 -0.16757477482E+02  0.20533005358E+02  0.84420448988E+01  0.27815202370E+02  0.51100000000E-03 0.  1.
         12    1    3    3    0    0  0.35407624114E+01  0.87582072933E+01  0.90517369976E+00  0.94901281801E+01  0.00000000000E+00 0. -1.
</event>
<event>
 7    1  0.2414091E-009  0.4778727E+02  0.7816164E-02  0.1312668E+00
        -11   -1    0    0    0    0  0.00000000000E+00  0.00000000000E+00  0.45593999997E+02  0.45594000000E+02  0.51100000000E-03 0.  1.
         11   -1    0    0    0    0 -0.00000000000E+00 -0.00000000000E+00 -0.45593999997E+02  0.45594000000E+02  0.51100000000E-03 0. -1.
    9900012    2    1    2    0    0 -0.20217421069E+01 -0.23611802803E+02  0.36359573324E+02  0.47787271376E+02  0.20000001513E+02 0.  0.
         12    1    1    2    0    0  0.20217421069E+01  0.23611802803E+02 -0.36359573324E+02  0.43400728624E+02  0.00000000000E+00 0. -1.
         11    1    3    3    0    0 -0.77929850440E+01 -0.66183361503E+01  0.51397261334E+01  0.11443328811E+02  0.51100000000E-03 0. -1.
        -11    1    3    3    0    0  0.17087589347E-02 -0.73315599291E+01  0.11469039592E+02  0.13612150577E+02  0.51100000000E-03 0.  1.
         12    1    3    3    0    0  0.57695341782E+01 -0.96619067239E+01  0.19750807599E+02  0.22731791988E+02  0.00000000000E+00 0. -1.
</event>
<event>
 7    1  0.2414091E-009  0.4778727E+02  0.7816164E-02  0.1312668E+00
        -11   -1    0    0    0    0  0.00000000000E+00  0.00000000000E+00  0.45593999997E+02  0.45594000000E+02  0.51100000000E-03 0.  1.
         11   -1    0    0    0    0 -0.00000000000E+00 -0.00000000000E+00 -0.45593999997E+02  0.45594000000E+02  0.51100000000E-03 0. -1.
    9900012    2    1    2    0    0  0.23245216691E+02  0.32756418804E+02  0.16440813345E+02  0.47787269415E+02  0.19999992571E+02 0.  0.
         12    1    1    2    0    0 -0.23245216691E+02 -0.32756418804E+02 -0.16440813345E+02  0.43400730585E+02  0.00000000000E+00 0. -1.
         11    1    3    3    0    0  0.19859054545E+00  0.62255129856E+01  0.39444387455E+01  0.73725875659E+01  0.51100000000E-03 0. -1.
        -11    1    3    3    0    0  0.11657676456E+02  0.15388374545E+02  0.14786841432E+02  0.24317774801E+02  0.51100000000E-03 0.  1.
        -12    1    3    3    0    0  0.11388949689E+02  0.11142531273E+02 -0.22904668325E+01  0.16096907048E+02  0.00000000000E+00 0.  1.
</event>
<event>
 7    1  0.2414091E-009  0.4778727E+02  0.7816164E-02  0.1312668E+00
        -11   -1    0    0    0    0  0.00000000000E+00  0.00000000000E+00  0.45593999997E+02  0.45594000000E+02  0.51100000000E-03 0. -1.
         11   -1    0    0    0    0 -0.00000000000E+00 -0.00000000000E+00 -0.45593999997E+02  0.45594000000E+02  0.51100000000E-03 0.  1.
    9900012    2    1    2    0    0 -0.55619457745E+01  0.28017951385E+02 -0.32675412610E+02  0.47787269248E+02  0.19999991808E+02 0.  0.
         12    1    1    2    0    0  0.55619457745E+01 -0.28017951385E+02  0.32675412610E+02  0.43400730752E+02  0.00000000000E+00 0. -1.
         11    1    3    3    0    0 -0.97699075043E+01  0.72754661021E+01 -0.65091924395E+01  0.13811339042E+02  0.51100000000E-03 0. -1.
        -11    1    3    3    0    0  0.16020246732E+01  0.92152365044E+01 -0.80222754393E+01  0.12322498544E+02  0.51100000000E-03 0.  1.
         12    1    3    3    0    0  0.26059370565E+01  0.11527248779E+02 -0.18143944731E+02  0.21653431662E+02  0.00000000000E+00 0. -1.
</event>
<event>
 7    1  0.2414091E-009  0.4778727E+02  0.7816164E-02  0.1312668E+00
        -11   -1    0    0    0    0  0.00000000000E+00  0.00000000000E+00  0.45593999997E+02  0.45594000000E+02  0.51100000000E-03 0.  1.
         11   -1    0    0    0    0 -0.00000000000E+00 -0.00000000000E+00 -0.45593999997E+02  0.45594000000E+02  0.51100000000E-03 0. -1.
    9900012    2    1    2    0    0  0.40877475218E+02  0.14578842179E+02 -0.33587963794E+00  0.47787269192E+02  0.19999991555E+02 0.  0.
         12    1    1    2    0    0 -0.40877475218E+02 -0.14578842179E+02  0.33587963794E+00  0.43400730808E+02  0.00000000000E+00 0. -1.
         11    1    3    3    0    0  0.60928754668E+01  0.73462823500E+01  0.23989675594E+01  0.98410386359E+01  0.51100000000E-03 0. -1.
        -11    1    3    3    0    0  0.89533356056E+01  0.73178515647E+01  0.18518073898E+01  0.11710779686E+02  0.51100000000E-03 0.  1.
        -12    1    3    3    0    0  0.25831264146E+02 -0.85291735338E-01 -0.45866545871E+01  0.26235450870E+02  0.00000000000E+00 0.  1.
</event>
<event>
 7    1  0.2414091E-009  0.4778727E+02  0.7816164E-02  0.1312668E+00
        -11   -1    0    0    0    0  0.00000000000E+00  0.00000000000E+00  0.45593999997E+02  0.45594000000E+02  0.51100000000E-03 0. -1.
         11   -1    0    0    0    0 -0.00000000000E+00 -0.00000000000E+00 -0.45593999997E+02  0.45594000000E+02  0.51100000000E-03 0.  1.
    9900012    2    1    2    0    0  0.10951230509E+02 -0.30750207714E+02 -0.28602772894E+02  0.47787270267E+02  0.19999996456E+02 0.  0.
         12    1    1    2    0    0 -0.10951230509E+02  0.30750207714E+02  0.28602772894E+02  0.43400729733E+02  0.00000000000E+00 0. -1.
         11    1    3    3    0    0 -0.28512562312E+01 -0.96917729376E+01 -0.11800843523E+02  0.15534478842E+02  0.51100000000E-03 0. -1.
        -11    1    3    3    0    0  0.52209071192E+00 -0.44739944700E+01 -0.81506776667E+01  0.93125051365E+01  0.51100000000E-03 0.  1.
        -12    1    3    3    0    0  0.13280396029E+02 -0.16584440307E+02 -0.86512517036E+01  0.22940286289E+02  0.00000000000E+00 0.  1.
</event>
<event>
 7    1  0.2414091E-009  0.4778727E+02  0.7816164E-02  0.1312668E+00
        -11   -1    0    0    0    0  0.00000000000E+00  0.00000000000E+00  0.45593999997E+02  0.45594000000E+02  0.51100000000E-03 0.  1.
         11   -1    0    0    0    0 -0.00000000000E+00 -0.00000000000E+00 -0.45593999997E+02  0.45594000000E+02  0.51100000000E-03 0. -1.
    9900012    2    1    2    0    0  0.20203817259E+02  0.22216906367E+02  0.31334299638E+02  0.47787268507E+02  0.19999988429E+02 0.  0.
         12    1    1    2    0    0 -0.20203817259E+02 -0.22216906367E+02 -0.31334299638E+02  0.43400731493E+02  0.00000000000E+00 0. -1.
         11    1    3    3    0    0  0.70765183999E+01  0.64595338161E+01  0.22397074331E+01  0.98396635833E+01  0.51100000000E-03 0. -1.
        -11    1    3    3    0    0  0.10052413284E+02  0.17212584793E+02  0.19997050853E+02  0.28234838962E+02  0.51100000000E-03 0.  1.
        -12    1    3    3    0    0  0.30748855746E+01 -0.14552122429E+01  0.90975413524E+01  0.97127659617E+01  0.00000000000E+00 0.  1.
</event>
<event>
 7    1  0.2414091E-009  0.4778727E+02  0.7816164E-02  0.1312668E+00
        -11   -1    0    0    0    0  0.00000000000E+00  0.00000000000E+00  0.45593999997E+02  0.45594000000E+02  0.51100000000E-03 0.  1.
         11   -1    0    0    0    0 -0.00000000000E+00 -0.00000000000E+00 -0.45593999997E+02  0.45594000000E+02  0.51100000000E-03 0. -1.
    9900012    2    1    2    0    0 -0.31408695873E+02 -0.77909744541E+01  0.28920889610E+02  0.47787270568E+02  0.19999997829E+02 0.  0.
         12    1    1    2    0    0  0.31408695873E+02  0.77909744541E+01 -0.28920889610E+02  0.43400729432E+02  0.00000000000E+00 0. -1.
         11    1    3    3    0    0 -0.21366232925E+02 -0.40146695279E+01  0.21785777477E+02  0.30777484974E+02  0.51100000000E-03 0. -1.
        -11    1    3    3    0    0 -0.89287553015E+01  0.22280409272E+01  0.53624366884E+01  0.10650941982E+02  0.51100000000E-03 0.  1.
         12    1    3    3    0    0 -0.11137076469E+01 -0.60043458534E+01  0.17726754444E+01  0.63588436120E+01  0.00000000000E+00 0. -1.
</event>
<event>
 7    1  0.2414091E-009  0.4778725E+02  0.7816164E-02  0.1312668E+00
        -11   -1    0    0    0    0  0.00000000000E+00  0.00000000000E+00  0.45593999997E+02  0.45594000000E+02  0.51100000000E-03 0. -1.
         11   -1    0    0    0    0 -0.00000000000E+00 -0.00000000000E+00 -0.45593999997E+02  0.45594000000E+02  0.51100000000E-03 0.  1.
    9900012    2    1    2    0    0  0.35906208417E+02  0.13227792758E+02 -0.20479130294E+02  0.47787250217E+02  0.19999905039E+02 0.  0.
         12    1    1    2    0    0 -0.35906208417E+02 -0.13227792758E+02  0.20479130294E+02  0.43400749783E+02  0.00000000000E+00 0. -1.
         11    1    3    3    0    0  0.17981170882E+02  0.57691129897E+01 -0.19768314217E+01  0.18987180773E+02  0.51100000000E-03 0. -1.
        -11    1    3    3    0    0  0.59056275871E+01  0.73850798560E+01 -0.49071357161E+01  0.10653441832E+02  0.51100000000E-03 0.  1.
         12    1    3    3    0    0  0.12019409948E+02  0.73599912782E-01 -0.13595163156E+02  0.18146627612E+02  0.00000000000E+00 0. -1.
</event>
<event>
 7    1  0.2414091E-009  0.4778727E+02  0.7816164E-02  0.1312668E+00
        -11   -1    0    0    0    0  0.00000000000E+00  0.00000000000E+00  0.45593999997E+02  0.45594000000E+02  0.51100000000E-03 0.  1.
         11   -1    0    0    0    0 -0.00000000000E+00 -0.00000000000E+00 -0.45593999997E+02  0.45594000000E+02  0.51100000000E-03 0. -1.
    9900012    2    1    2    0    0 -0.44333898720E+01  0.18014734435E+02  0.39235667289E+02  0.47787272009E+02  0.20000004399E+02 0.  0.
         12    1    1    2    0    0  0.44333898720E+01 -0.18014734435E+02 -0.39235667289E+02  0.43400727991E+02  0.00000000000E+00 0. -1.
         11    1    3    3    0    0 -0.77741119604E+01  0.11050499540E+02  0.15629874396E+02  0.20660187094E+02  0.51100000000E-03 0. -1.
        -11    1    3    3    0    0  0.19717070074E+01  0.92200352047E+01  0.22239590804E+02  0.24155663457E+02  0.51100000000E-03 0.  1.
         12    1    3    3    0    0  0.13690150810E+01 -0.22558003099E+01  0.13662020893E+01  0.29714214576E+01  0.00000000000E+00 0. -1.
</event>
<event>
 7    1  0.2414091E-009  0.4778722E+02  0.7816164E-02  0.1312668E+00
        -11   -1    0    0    0    0  0.00000000000E+00  0.00000000000E+00  0.45593999997E+02  0.45594000000E+02  0.51100000000E-03 0. -1.
         11   -1    0    0    0    0 -0.00000000000E+00 -0.00000000000E+00 -0.45593999997E+02  0.45594000000E+02  0.51100000000E-03 0.  1.
    9900012    2    1    2    0    0 -0.40429278620E+02  0.59927237045E+01  0.14600960425E+02  0.47787224057E+02  0.19999785763E+02 0.  0.
         12    1    1    2    0    0  0.40429278620E+02 -0.59927237045E+01 -0.14600960425E+02  0.43400775943E+02  0.00000000000E+00 0. -1.
         11    1    3    3    0    0 -0.55515616466E+01  0.32920649580E+01  0.44145178584E+01  0.78195585929E+01  0.51100000000E-03 0. -1.
        -11    1    3    3    0    0 -0.25056233798E+01  0.53543673766E+01 -0.50931360614E-01  0.59118518917E+01  0.51100000000E-03 0.  1.
         12    1    3    3    0    0 -0.32372093594E+02 -0.26537086302E+01  0.10237373927E+02  0.34055813572E+02  0.00000000000E+00 0. -1.
</event>
<event>
 7    1  0.2414091E-009  0.4778727E+02  0.7816164E-02  0.1312668E+00
        -11   -1    0    0    0    0  0.00000000000E+00  0.00000000000E+00  0.45593999997E+02  0.45594000000E+02  0.51100000000E-03 0.  1.
         11   -1    0    0    0    0 -0.00000000000E+00 -0.00000000000E+00 -0.45593999997E+02  0.45594000000E+02  0.51100000000E-03 0. -1.
    9900012    2    1    2    0    0 -0.17272848641E+02  0.70216005538E+01  0.39191441317E+02  0.47787271354E+02  0.20000001410E+02 0.  0.
         12    1    1    2    0    0  0.17272848641E+02 -0.70216005538E+01 -0.39191441317E+02  0.43400728646E+02  0.00000000000E+00 0. -1.
         11    1    3    3    0    0 -0.52190567184E+01  0.39460444029E+00 -0.93225362855E+00  0.53163298227E+01  0.51100000000E-03 0. -1.
        -11    1    3    3    0    0 -0.25988916048E+01  0.21281611909E+01  0.77665402511E+01  0.84618234063E+01  0.51100000000E-03 0.  1.
         12    1    3    3    0    0 -0.94549003178E+01  0.44988349226E+01  0.32357154695E+02  0.34009118125E+02  0.00000000000E+00 0. -1.
</event>
<event>
 7    1  0.2414091E-009  0.4778727E+02  0.7816164E-02  0.1312668E+00
        -11   -1    0    0    0    0  0.00000000000E+00  0.00000000000E+00  0.45593999997E+02  0.45594000000E+02  0.51100000000E-03 0.  1.
         11   -1    0    0    0    0 -0.00000000000E+00 -0.00000000000E+00 -0.45593999997E+02  0.45594000000E+02  0.51100000000E-03 0. -1.
    9900012    2    1    2    0    0  0.32697865593E+01  0.40168971466E+02  0.16105446409E+02  0.47787272163E+02  0.20000005101E+02 0.  0.
         12    1    1    2    0    0 -0.32697865593E+01 -0.40168971466E+02 -0.16105446409E+02  0.43400727837E+02  0.00000000000E+00 0. -1.
         11    1    3    3    0    0 -0.16651169109E+01  0.21583949248E+02  0.43338154260E+01  0.22077622967E+02  0.51100000000E-03 0. -1.
        -11    1    3    3    0    0 -0.35872149514E+01  0.85933500516E+01  0.25242839760E+01  0.96480975363E+01  0.51100000000E-03 0.  1.
         12    1    3    3    0    0  0.85221184216E+01  0.99916721664E+01  0.92473470067E+01  0.16061551660E+02  0.00000000000E+00 0. -1.
</event>
<event>
 7    1  0.2414091E-009  0.4778727E+02  0.7816164E-02  0.1312668E+00
        -11   -1    0    0    0    0  0.00000000000E+00  0.00000000000E+00  0.45593999997E+02  0.45594000000E+02  0.51100000000E-03 0. -1.
         11   -1    0    0    0    0 -0.00000000000E+00 -0.00000000000E+00 -0.45593999997E+02  0.45594000000E+02  0.51100000000E-03 0.  1.
    9900012    2    1    2    0    0 -0.38110080751E+02  0.20693570010E+02 -0.17381448931E+01  0.47787271408E+02  0.20000001659E+02 0.  0.
         12    1    1    2    0    0  0.38110080751E+02 -0.20693570010E+02  0.17381448931E+01  0.43400728592E+02  0.00000000000E+00 0. -1.
         11    1    3    3    0    0 -0.17843650127E+02  0.49295198655E+01  0.19237388701E+01  0.18611737895E+02  0.51100000000E-03 0. -1.
        -11    1    3    3    0    0 -0.14507297519E+02  0.10723564850E+02  0.38554515854E+01  0.18447792052E+02  0.51100000000E-03 0.  1.
         12    1    3    3    0    0 -0.57591331050E+01  0.50404852948E+01 -0.75173353486E+01  0.10727741462E+02  0.00000000000E+00 0. -1.
</event>
<event>
 7    1  0.2414091E-009  0.4778727E+02  0.7816164E-02  0.1312668E+00
        -11   -1    0    0    0    0  0.00000000000E+00  0.00000000000E+00  0.45593999997E+02  0.45594000000E+02  0.51100000000E-03 0.  1.
         11   -1    0    0    0    0 -0.00000000000E+00 -0.00000000000E+00 -0.45593999997E+02  0.45594000000E+02  0.51100000000E-03 0. -1.
    9900012    2    1    2    0    0 -0.12221282103E+02  0.91998087180E+01  0.40615603884E+02  0.47787268491E+02  0.19999988356E+02 0.  0.
         12    1    1    2    0    0  0.12221282103E+02 -0.91998087180E+01 -0.40615603884E+02  0.43400731509E+02  0.00000000000E+00 0. -1.
         11    1    3    3    0    0 -0.29218232338E+01  0.27799203859E+01  0.20971482911E+01  0.45456616215E+01  0.51100000000E-03 0. -1.
        -11    1    3    3    0    0 -0.54472267919E+01 -0.51202880015E+01  0.15299727056E+02  0.17028543015E+02  0.51100000000E-03 0.  1.
        -12    1    3    3    0    0 -0.38522320773E+01  0.11540176334E+02  0.23218728537E+02  0.26213063855E+02  0.00000000000E+00 0.  1.
</event>
<event>
 7    1  0.2414091E-009  0.4778727E+02  0.7816164E-02  0.1312668E+00
        -11   -1    0    0    0    0  0.00000000000E+00  0.00000000000E+00  0.45593999997E+02  0.45594000000E+02  0.51100000000E-03 0.  1.
         11   -1    0    0    0    0 -0.00000000000E+00 -0.00000000000E+00 -0.45593999997E+02  0.45594000000E+02  0.51100000000E-03 0. -1.
    9900012    2    1    2    0    0  0.41077684881E+01 -0.25938608269E+02 -0.34553408500E+02  0.47787271897E+02  0.20000003887E+02 0.  0.
         12    1    1    2    0    0 -0.41077684881E+01  0.25938608269E+02  0.34553408500E+02  0.43400728103E+02  0.00000000000E+00 0. -1.
         11    1    3    3    0    0  0.23804260095E+01  0.14470905982E+01 -0.68324479279E+01  0.73785394310E+01  0.51100000000E-03 0. -1.
        -11    1    3    3    0    0 -0.17886055168E+01 -0.10549648175E+01 -0.88704558664E-01  0.20784439422E+01  0.51100000000E-03 0.  1.
         12    1    3    3    0    0  0.35159479954E+01 -0.26330734050E+02 -0.27632256013E+02  0.38330288524E+02  0.00000000000E+00 0. -1.
</event>
<event>
 7    1  0.2414091E-009  0.4778727E+02  0.7816164E-02  0.1312668E+00
        -11   -1    0    0    0    0  0.00000000000E+00  0.00000000000E+00  0.45593999997E+02  0.45594000000E+02  0.51100000000E-03 0.  1.
         11   -1    0    0    0    0 -0.00000000000E+00 -0.00000000000E+00 -0.45593999997E+02  0.45594000000E+02  0.51100000000E-03 0. -1.
    9900012    2    1    2    0    0  0.37409834075E+02 -0.86070027128E+00  0.21986060730E+02  0.47787270088E+02  0.19999995641E+02 0.  0.
         12    1    1    2    0    0 -0.37409834075E+02  0.86070027128E+00 -0.21986060730E+02  0.43400729912E+02  0.00000000000E+00 0. -1.
         11    1    3    3    0    0  0.94978311245E+01 -0.61709270580E+01  0.74437785385E+01  0.13553559533E+02  0.51100000000E-03 0. -1.
        -11    1    3    3    0    0 -0.11450596494E+01  0.11531076531E+01  0.54333519650E+00  0.17134854120E+01  0.51100000000E-03 0.  1.
        -12    1    3    3    0    0  0.29057062600E+02  0.41571191337E+01  0.13998946995E+02  0.32520225143E+02  0.00000000000E+00 0.  1.
</event>
<event>
 7    1  0.2414091E-009  0.4778727E+02  0.7816164E-02  0.1312668E+00
        -11   -1    0    0    0    0  0.00000000000E+00  0.00000000000E+00  0.45593999997E+02  0.45594000000E+02  0.51100000000E-03 0.  1.
         11   -1    0    0    0    0 -0.00000000000E+00 -0.00000000000E+00 -0.45593999997E+02  0.45594000000E+02  0.51100000000E-03 0. -1.
    9900012    2    1    2    0    0 -0.10543627186E+02  0.69512305206E+01  0.41522714120E+02  0.47787268810E+02  0.19999989812E+02 0.  0.
         12    1    1    2    0    0  0.10543627186E+02 -0.69512305206E+01 -0.41522714120E+02  0.43400731190E+02  0.00000000000E+00 0. -1.
         11    1    3    3    0    0 -0.59349651811E+01  0.78673069012E+01  0.85368792866E+01  0.13038275875E+02  0.51100000000E-03 0. -1.
        -11    1    3    3    0    0 -0.58333093961E+01 -0.68048879582E+00  0.90994596661E+01  0.10830084487E+02  0.51100000000E-03 0.  1.
        -12    1    3    3    0    0  0.12246473912E+01 -0.23558758480E+00  0.23886375167E+02  0.23918908448E+02  0.00000000000E+00 0.  1.
</event>
<event>
 7    1  0.2414091E-009  0.4778727E+02  0.7816164E-02  0.1312668E+00
        -11   -1    0    0    0    0  0.00000000000E+00  0.00000000000E+00  0.45593999997E+02  0.45594000000E+02  0.51100000000E-03 0. -1.
         11   -1    0    0    0    0 -0.00000000000E+00 -0.00000000000E+00 -0.45593999997E+02  0.45594000000E+02  0.51100000000E-03 0.  1.
    9900012    2    1    2    0    0  0.39274688819E+02 -0.83359455968E+01 -0.16481326690E+02  0.47787270740E+02  0.19999998610E+02 0.  0.
         12    1    1    2    0    0 -0.39274688819E+02  0.83359455968E+01  0.16481326690E+02  0.43400729260E+02  0.00000000000E+00 0. -1.
         11    1    3    3    0    0  0.20441875594E+02 -0.70743365423E+01 -0.94879040521E+01  0.23620686672E+02  0.51100000000E-03 0. -1.
        -11    1    3    3    0    0  0.76805615975E+01 -0.61634140986E+01 -0.68282817264E+01  0.11983494123E+02  0.51100000000E-03 0.  1.
         12    1    3    3    0    0  0.11152251628E+02  0.49018050441E+01 -0.16514091183E+00  0.12183089944E+02  0.00000000000E+00 0. -1.
</event>
<event>
 7    1  0.2414091E-009  0.4778727E+02  0.7816164E-02  0.1312668E+00
        -11   -1    0    0    0    0  0.00000000000E+00  0.00000000000E+00  0.45593999997E+02  0.45594000000E+02  0.51100000000E-03 0. -1.
         11   -1    0    0    0    0 -0.00000000000E+00 -0.00000000000E+00 -0.45593999997E+02  0.45594000000E+02  0.51100000000E-03 0.  1.
    9900012    2    1    2    0    0 -0.38784499873E+02  0.16357324628E+02 -0.10574682101E+02  0.47787269581E+02  0.19999993326E+02 0.  0.
         12    1    1    2    0    0  0.38784499873E+02 -0.16357324628E+02  0.10574682101E+02  0.43400730419E+02  0.00000000000E+00 0. -1.
         11    1    3    3    0    0 -0.11729532883E+02  0.27206337497E+00  0.32248205360E+01  0.12167802919E+02  0.51100000000E-03 0. -1.
        -11    1    3    3    0    0 -0.68396746792E+01  0.10453164415E+01 -0.57605072495E-01  0.69193319610E+01  0.51100000000E-03 0.  1.
        -12    1    3    3    0    0 -0.20215292311E+02  0.15039944812E+02 -0.13741897564E+02  0.28700134700E+02  0.00000000000E+00 0.  1.
</event>
<event>
 7    1  0.2414091E-009  0.4778727E+02  0.7816164E-02  0.1312668E+00
        -11   -1    0    0    0    0  0.00000000000E+00  0.00000000000E+00  0.45593999997E+02  0.45594000000E+02  0.51100000000E-03 0.  1.
         11   -1    0    0    0    0 -0.00000000000E+00 -0.00000000000E+00 -0.45593999997E+02  0.45594000000E+02  0.51100000000E-03 0. -1.
    9900012    2    1    2    0    0  0.22249812843E+02  0.23756883342E+02  0.28708535682E+02  0.47787266151E+02  0.19999977687E+02 0.  0.
         12    1    1    2    0    0 -0.22249812843E+02 -0.23756883342E+02 -0.28708535682E+02  0.43400733849E+02  0.00000000000E+00 0. -1.
         11    1    3    3    0    0  0.41233421840E+01 -0.12125065672E+01  0.81621003728E+00  0.43747367953E+01  0.51100000000E-03 0. -1.
        -11    1    3    3    0    0  0.30611138408E+01  0.10838579836E+00 -0.88803130646E-01  0.30643191225E+01  0.51100000000E-03 0.  1.
        -12    1    3    3    0    0  0.15065356818E+02  0.24861004111E+02  0.27981128775E+02  0.40348210233E+02  0.00000000000E+00 0.  1.
</event>
<event>
 7    1  0.2414091E-009  0.4778727E+02  0.7816164E-02  0.1312668E+00
        -11   -1    0    0    0    0  0.00000000000E+00  0.00000000000E+00  0.45593999997E+02  0.45594000000E+02  0.51100000000E-03 0.  1.
         11   -1    0    0    0    0 -0.00000000000E+00 -0.00000000000E+00 -0.45593999997E+02  0.45594000000E+02  0.51100000000E-03 0. -1.
    9900012    2    1    2    0    0  0.21672971212E+02 -0.21680453434E+02  0.30722362611E+02  0.47787270667E+02  0.19999998279E+02 0.  0.
         12    1    1    2    0    0 -0.21672971212E+02  0.21680453434E+02 -0.30722362611E+02  0.43400729333E+02  0.00000000000E+00 0. -1.
         11    1    3    3    0    0 -0.33358752243E-02  0.13784779371E+01 -0.24777168593E+00  0.14005726045E+01  0.51100000000E-03 0. -1.
        -11    1    3    3    0    0  0.20472767604E+01 -0.10586339165E+02  0.63240858959E+01  0.12500239267E+02  0.51100000000E-03 0.  1.
        -12    1    3    3    0    0  0.19629030327E+02 -0.12472592206E+02  0.24646048401E+02  0.33886458795E+02  0.00000000000E+00 0.  1.
</event>
<event>
 7    1  0.2414091E-009  0.4778727E+02  0.7816164E-02  0.1312668E+00
        -11   -1    0    0    0    0  0.00000000000E+00  0.00000000000E+00  0.45593999997E+02  0.45594000000E+02  0.51100000000E-03 0.  1.
         11   -1    0    0    0    0 -0.00000000000E+00 -0.00000000000E+00 -0.45593999997E+02  0.45594000000E+02  0.51100000000E-03 0. -1.
    9900012    2    1    2    0    0  0.28201421977E+02 -0.21514804216E+02  0.25008320590E+02  0.47787273040E+02  0.20000009097E+02 0.  0.
         12    1    1    2    0    0 -0.28201421977E+02  0.21514804216E+02 -0.25008320590E+02  0.43400726960E+02  0.00000000000E+00 0. -1.
         11    1    3    3    0    0  0.13255952355E+02 -0.70275436279E+01  0.59820856193E+01  0.16152151277E+02  0.51100000000E-03 0. -1.
        -11    1    3    3    0    0  0.12788802614E+02 -0.52312670439E+01  0.17018521110E+02  0.21921443570E+02  0.51100000000E-03 0.  1.
        -12    1    3    3    0    0  0.21566670087E+01 -0.92559935438E+01  0.20077138604E+01  0.97136781918E+01  0.00000000000E+00 0.  1.
</event>
<event>
 7    1  0.2414091E-009  0.4778727E+02  0.7816164E-02  0.1312668E+00
        -11   -1    0    0    0    0  0.00000000000E+00  0.00000000000E+00  0.45593999997E+02  0.45594000000E+02  0.51100000000E-03 0.  1.
         11   -1    0    0    0    0 -0.00000000000E+00 -0.00000000000E+00 -0.45593999997E+02  0.45594000000E+02  0.51100000000E-03 0. -1.
    9900012    2    1    2    0    0  0.19225724343E+02 -0.18624703860E+02  0.34163070765E+02  0.47787268734E+02  0.19999989464E+02 0.  0.
         12    1    1    2    0    0 -0.19225724343E+02  0.18624703860E+02 -0.34163070765E+02  0.43400731266E+02  0.00000000000E+00 0. -1.
         11    1    3    3    0    0  0.63236070052E+01 -0.85785705409E+01  0.25674926303E+01  0.10962294320E+02  0.51100000000E-03 0. -1.
        -11    1    3    3    0    0  0.52259046410E+01 -0.96703668940E+01  0.15657551897E+02  0.19130734613E+02  0.51100000000E-03 0.  1.
        -12    1    3    3    0    0  0.76762126970E+01 -0.37576642489E+00  0.15938026238E+02  0.17694239801E+02  0.00000000000E+00 0.  1.
</event>
<event>
 7    1  0.2414091E-009  0.4778727E+02  0.7816164E-02  0.1312668E+00
        -11   -1    0    0    0    0  0.00000000000E+00  0.00000000000E+00  0.45593999997E+02  0.45594000000E+02  0.51100000000E-03 0. -1.
         11   -1    0    0    0    0 -0.00000000000E+00 -0.00000000000E+00 -0.45593999997E+02  0.45594000000E+02  0.51100000000E-03 0.  1.
    9900012    2    1    2    0    0  0.25313364162E+02 -0.29867877096E+02 -0.18728780272E+02  0.47787266160E+02  0.19999977729E+02 0.  0.
         12    1    1    2    0    0 -0.25313364162E+02  0.29867877096E+02  0.18728780272E+02  0.43400733840E+02  0.00000000000E+00 0. -1.
         11    1    3    3    0    0  0.50025368364E+01 -0.27687248083E+00 -0.26855378118E+01  0.56845533483E+01  0.51100000000E-03 0. -1.
        -11    1    3    3    0    0  0.36784361085E+01  0.10538048385E+01 -0.30489691730E+01  0.48926077015E+01  0.51100000000E-03 0.  1.
         12    1    3    3    0    0  0.16632391217E+02 -0.30644809453E+02 -0.12994273287E+02  0.37210105110E+02  0.00000000000E+00 0. -1.
</event>
<event>
 7    1  0.2414091E-009  0.4778726E+02  0.7816164E-02  0.1312668E+00
        -11   -1    0    0    0    0  0.00000000000E+00  0.00000000000E+00  0.45593999997E+02  0.45594000000E+02  0.51100000000E-03 0.  1.
         11   -1    0    0    0    0 -0.00000000000E+00 -0.00000000000E+00 -0.45593999997E+02  0.45594000000E+02  0.51100000000E-03 0. -1.
    9900012    2    1    2    0    0 -0.33931595622E+01  0.16323773371E+02  0.40070496709E+02  0.47787264806E+02  0.19999971555E+02 0.  0.
         12    1    1    2    0    0  0.33931595622E+01 -0.16323773371E+02 -0.40070496709E+02  0.43400735194E+02  0.00000000000E+00 0. -1.
         11    1    3    3    0    0  0.10264271423E+01  0.47164434923E+01  0.49615742070E+01  0.69221102827E+01  0.51100000000E-03 0. -1.
        -11    1    3    3    0    0 -0.40091905057E+00  0.13735562689E+02  0.33203539280E+02  0.35934682960E+02  0.51100000000E-03 0.  1.
         12    1    3    3    0    0 -0.40186676539E+01 -0.21282328105E+01  0.19053832229E+01  0.49304715631E+01  0.00000000000E+00 0. -1.
</event>
<event>
 7    1  0.2414091E-009  0.4778727E+02  0.7816164E-02  0.1312668E+00
        -11   -1    0    0    0    0  0.00000000000E+00  0.00000000000E+00  0.45593999997E+02  0.45594000000E+02  0.51100000000E-03 0.  1.
         11   -1    0    0    0    0 -0.00000000000E+00 -0.00000000000E+00 -0.45593999997E+02  0.45594000000E+02  0.51100000000E-03 0. -1.
    9900012    2    1    2    0    0 -0.28318438230E+02 -0.32795155908E+02  0.24833644694E+01  0.47787270814E+02  0.19999998947E+02 0.  0.
         12    1    1    2    0    0  0.28318438230E+02  0.32795155908E+02 -0.24833644694E+01  0.43400729186E+02  0.00000000000E+00 0. -1.
         11    1    3    3    0    0 -0.59206035742E+00  0.91994642011E-01 -0.30024958806E+01  0.30616956503E+01  0.51100000000E-03 0. -1.
        -11    1    3    3    0    0 -0.40148014578E+01 -0.12406907575E+02  0.21563089532E+01  0.13217399702E+02  0.51100000000E-03 0.  1.
        -12    1    3    3    0    0 -0.23711576415E+02 -0.20480242976E+02  0.33295513968E+01  0.31508175462E+02  0.00000000000E+00 0.  1.
</event>
<event>
 7    1  0.2414091E-009  0.4778724E+02  0.7816164E-02  0.1312668E+00
        -11   -1    0    0    0    0  0.00000000000E+00  0.00000000000E+00  0.45593999997E+02  0.45594000000E+02  0.51100000000E-03 0.  1.
         11   -1    0    0    0    0 -0.00000000000E+00 -0.00000000000E+00 -0.45593999997E+02  0.45594000000E+02  0.51100000000E-03 0. -1.
    9900012    2    1    2    0    0 -0.29609707184E+02  0.10413462901E+02  0.29974165933E+02  0.47787244332E+02  0.19999878208E+02 0.  0.
         12    1    1    2    0    0  0.29609707184E+02 -0.10413462901E+02 -0.29974165933E+02  0.43400755668E+02  0.00000000000E+00 0. -1.
         11    1    3    3    0    0 -0.19312243891E+02  0.13905999897E+02  0.17673956548E+02  0.29643014988E+02  0.51100000000E-03 0. -1.
        -11    1    3    3    0    0 -0.78611556204E+01  0.61608202570E+00  0.10285009470E+02  0.12959889846E+02  0.51100000000E-03 0.  1.
         12    1    3    3    0    0 -0.24363076731E+01 -0.41086190216E+01  0.20151999151E+01  0.51843394990E+01  0.00000000000E+00 0. -1.
</event>
<event>
 7    1  0.2414091E-009  0.4778727E+02  0.7816164E-02  0.1312668E+00
        -11   -1    0    0    0    0  0.00000000000E+00  0.00000000000E+00  0.45593999997E+02  0.45594000000E+02  0.51100000000E-03 0.  1.
         11   -1    0    0    0    0 -0.00000000000E+00 -0.00000000000E+00 -0.45593999997E+02  0.45594000000E+02  0.51100000000E-03 0. -1.
    9900012    2    1    2    0    0  0.31143213826E+01 -0.41309902396E+02 -0.12938934872E+02  0.47787273402E+02  0.20000010747E+02 0.  0.
         12    1    1    2    0    0 -0.31143213826E+01  0.41309902396E+02  0.12938934872E+02  0.43400726598E+02  0.00000000000E+00 0. -1.
         11    1    3    3    0    0 -0.10660689259E+01 -0.15633499068E+02 -0.92581118766E+01  0.18200423947E+02  0.51100000000E-03 0.  1.
        -11    1    3    3    0    0 -0.33594987703E+01 -0.14997848696E+01  0.10450412969E+01  0.38246173947E+01  0.51100000000E-03 0. -1.
         12    1    3    3    0    0  0.75398890788E+01 -0.24176618459E+02 -0.47258642920E+01  0.25762232060E+02  0.00000000000E+00 0. -1.
</event>
<event>
 7    1  0.2414091E-009  0.4778728E+02  0.7816164E-02  0.1312668E+00
        -11   -1    0    0    0    0  0.00000000000E+00  0.00000000000E+00  0.45593999997E+02  0.45594000000E+02  0.51100000000E-03 0. -1.
         11   -1    0    0    0    0 -0.00000000000E+00 -0.00000000000E+00 -0.45593999997E+02  0.45594000000E+02  0.51100000000E-03 0.  1.
    9900012    2    1    2    0    0 -0.17170205809E+02  0.31667207600E+02 -0.24207320169E+02  0.47787281637E+02  0.20000048294E+02 0.  0.
         12    1    1    2    0    0  0.17170205809E+02 -0.31667207600E+02  0.24207320169E+02  0.43400718363E+02  0.00000000000E+00 0. -1.
         11    1    3    3    0    0 -0.99353259211E+01  0.53479033024E+01 -0.82131316160E+01  0.13955869808E+02  0.51100000000E-03 0. -1.
        -11    1    3    3    0    0 -0.61443202649E+01  0.12792478383E+02 -0.19896482524E+01  0.14330348046E+02  0.51100000000E-03 0.  1.
        -12    1    3    3    0    0 -0.10905596227E+01  0.13526825915E+02 -0.14004540301E+02  0.19501063783E+02  0.00000000000E+00 0.  1.
</event>
<event>
 7    1  0.2414091E-009  0.4778726E+02  0.7816164E-02  0.1312668E+00
        -11   -1    0    0    0    0  0.00000000000E+00  0.00000000000E+00  0.45593999997E+02  0.45594000000E+02  0.51100000000E-03 0.  1.
         11   -1    0    0    0    0 -0.00000000000E+00 -0.00000000000E+00 -0.45593999997E+02  0.45594000000E+02  0.51100000000E-03 0. -1.
    9900012    2    1    2    0    0 -0.16466094487E+02 -0.39163896333E+02  0.88702291903E+01  0.47787262569E+02  0.19999961357E+02 0.  0.
         12    1    1    2    0    0  0.16466094487E+02  0.39163896333E+02 -0.88702291903E+01  0.43400737431E+02  0.00000000000E+00 0. -1.
         11    1    3    3    0    0  0.98428023108E+00 -0.80215957487E+01  0.69666868706E+01  0.10670029622E+02  0.51100000000E-03 0. -1.
        -11    1    3    3    0    0 -0.14584216485E+01 -0.12089846869E+02  0.11451153491E+01  0.12231217455E+02  0.51100000000E-03 0.  1.
        -12    1    3    3    0    0 -0.15991953069E+02 -0.19052453716E+02  0.75842697056E+00  0.24886015491E+02  0.00000000000E+00 0.  1.
</event>
<event>
 7    1  0.2414091E-009  0.4778727E+02  0.7816164E-02  0.1312668E+00
        -11   -1    0    0    0    0  0.00000000000E+00  0.00000000000E+00  0.45593999997E+02  0.45594000000E+02  0.51100000000E-03 0. -1.
         11   -1    0    0    0    0 -0.00000000000E+00 -0.00000000000E+00 -0.45593999997E+02  0.45594000000E+02  0.51100000000E-03 0.  1.
    9900012    2    1    2    0    0 -0.42343557384E+02  0.77130185892E+01  0.55817481980E+01  0.47787269354E+02  0.19999992291E+02 0.  0.
         12    1    1    2    0    0  0.42343557384E+02 -0.77130185892E+01 -0.55817481980E+01  0.43400730646E+02  0.00000000000E+00 0. -1.
         11    1    3    3    0    0 -0.88654967096E+01  0.27784526590E+01  0.70119682657E+00  0.93171083678E+01  0.51100000000E-03 0.  1.
        -11    1    3    3    0    0  0.83700605082E+00 -0.25228464382E+01  0.18190480507E+01  0.32209112611E+01  0.51100000000E-03 0. -1.
         12    1    3    3    0    0 -0.34315066725E+02  0.74574123684E+01  0.30615033208E+01  0.35249249725E+02  0.00000000000E+00 0. -1.
</event>
<event>
 7    1  0.2414091E-009  0.4778727E+02  0.7816164E-02  0.1312668E+00
        -11   -1    0    0    0    0  0.00000000000E+00  0.00000000000E+00  0.45593999997E+02  0.45594000000E+02  0.51100000000E-03 0.  1.
         11   -1    0    0    0    0 -0.00000000000E+00 -0.00000000000E+00 -0.45593999997E+02  0.45594000000E+02  0.51100000000E-03 0. -1.
    9900012    2    1    2    0    0 -0.11687301976E+02  0.36109792097E+02  0.21050264326E+02  0.47787265663E+02  0.19999975466E+02 0.  0.
         12    1    1    2    0    0  0.11687301976E+02 -0.36109792097E+02 -0.21050264326E+02  0.43400734337E+02  0.00000000000E+00 0. -1.
         11    1    3    3    0    0 -0.99703042277E+01  0.20964746996E+02  0.14484974272E+02  0.27363151553E+02  0.51100000000E-03 0. -1.
        -11    1    3    3    0    0  0.12623306552E+01  0.15047739413E+02  0.80298825052E+01  0.17102834661E+02  0.51100000000E-03 0.  1.
         12    1    3    3    0    0 -0.29793284033E+01  0.97305687516E-01 -0.14645924512E+01  0.33212794492E+01  0.00000000000E+00 0. -1.
</event>
<event>
 7    1  0.2414091E-009  0.4778727E+02  0.7816164E-02  0.1312668E+00
        -11   -1    0    0    0    0  0.00000000000E+00  0.00000000000E+00  0.45593999997E+02  0.45594000000E+02  0.51100000000E-03 0. -1.
         11   -1    0    0    0    0 -0.00000000000E+00 -0.00000000000E+00 -0.45593999997E+02  0.45594000000E+02  0.51100000000E-03 0.  1.
    9900012    2    1    2    0    0  0.14814456262E+02  0.25328551714E+02 -0.31978420883E+02  0.47787273642E+02  0.20000011843E+02 0.  0.
         12    1    1    2    0    0 -0.14814456262E+02 -0.25328551714E+02  0.31978420883E+02  0.43400726358E+02  0.00000000000E+00 0. -1.
         11    1    3    3    0    0  0.11402974698E+02  0.12791472696E+02 -0.20100611209E+02  0.26413711911E+02  0.51100000000E-03 0.  1.
        -11    1    3    3    0    0  0.72773730521E+01  0.11749564476E+02 -0.90689182181E+01  0.16530508214E+02  0.51100000000E-03 0. -1.
         12    1    3    3    0    0 -0.38658914881E+01  0.78751454170E+00 -0.28088914555E+01  0.48430535161E+01  0.00000000000E+00 0. -1.
</event>
<event>
 7    1  0.2414091E-009  0.4778727E+02  0.7816164E-02  0.1312668E+00
        -11   -1    0    0    0    0  0.00000000000E+00  0.00000000000E+00  0.45593999997E+02  0.45594000000E+02  0.51100000000E-03 0. -1.
         11   -1    0    0    0    0 -0.00000000000E+00 -0.00000000000E+00 -0.45593999997E+02  0.45594000000E+02  0.51100000000E-03 0.  1.
    9900012    2    1    2    0    0  0.24104029384E+02 -0.36026022779E+02 -0.21782851877E+01  0.47787268714E+02  0.19999989377E+02 0.  0.
         12    1    1    2    0    0 -0.24104029384E+02  0.36026022779E+02  0.21782851877E+01  0.43400731286E+02  0.00000000000E+00 0. -1.
         11    1    3    3    0    0  0.84613686790E+01 -0.38485527924E+01  0.10091744102E+01  0.93501097197E+01  0.51100000000E-03 0. -1.
        -11    1    3    3    0    0  0.13680387077E+02 -0.12989782800E+02 -0.32866540301E+01  0.19149139478E+02  0.51100000000E-03 0.  1.
        -12    1    3    3    0    0  0.19622736271E+01 -0.19187687186E+02  0.99194432180E-01  0.19288019517E+02  0.00000000000E+00 0.  1.
</event>
<event>
 7    1  0.2414091E-009  0.4778727E+02  0.7816164E-02  0.1312668E+00
        -11   -1    0    0    0    0  0.00000000000E+00  0.00000000000E+00  0.45593999997E+02  0.45594000000E+02  0.51100000000E-03 0.  1.
         11   -1    0    0    0    0 -0.00000000000E+00 -0.00000000000E+00 -0.45593999997E+02  0.45594000000E+02  0.51100000000E-03 0. -1.
    9900012    2    1    2    0    0  0.29931871160E+02  0.28941391534E+02  0.12251618040E+02  0.47787271899E+02  0.20000003897E+02 0.  0.
         12    1    1    2    0    0 -0.29931871160E+02 -0.28941391534E+02 -0.12251618040E+02  0.43400728101E+02  0.00000000000E+00 0. -1.
         11    1    3    3    0    0  0.59814373235E+01  0.26320758437E+00 -0.12271994871E+01  0.61117010341E+01  0.51100000000E-03 0. -1.
        -11    1    3    3    0    0  0.73011743111E+01  0.50211356289E+01 -0.16755669817E+01  0.90181192217E+01  0.51100000000E-03 0.  1.
        -12    1    3    3    0    0  0.16649259526E+02  0.23657048321E+02  0.15154384509E+02  0.32657451643E+02  0.00000000000E+00 0.  1.
</event>
<event>
 7    1  0.2414091E-009  0.4778727E+02  0.7816164E-02  0.1312668E+00
        -11   -1    0    0    0    0  0.00000000000E+00  0.00000000000E+00  0.45593999997E+02  0.45594000000E+02  0.51100000000E-03 0.  1.
         11   -1    0    0    0    0 -0.00000000000E+00 -0.00000000000E+00 -0.45593999997E+02  0.45594000000E+02  0.51100000000E-03 0. -1.
    9900012    2    1    2    0    0 -0.80086129095E+01 -0.37965301273E+02  0.19445336293E+02  0.47787273219E+02  0.20000009917E+02 0.  0.
         12    1    1    2    0    0  0.80086129095E+01  0.37965301273E+02 -0.19445336293E+02  0.43400726781E+02  0.00000000000E+00 0. -1.
         11    1    3    3    0    0  0.25647133557E+01 -0.81296327129E+01  0.62351235949E+01  0.10561507901E+02  0.51100000000E-03 0. -1.
        -11    1    3    3    0    0 -0.85837333674E+01 -0.24995788946E+02  0.16394079452E+02  0.31100414546E+02  0.51100000000E-03 0.  1.
         12    1    3    3    0    0 -0.19895928978E+01 -0.48398796143E+01 -0.31838667537E+01  0.61253507724E+01  0.00000000000E+00 0. -1.
</event>
<event>
 7    1  0.2414091E-009  0.4778727E+02  0.7816164E-02  0.1312668E+00
        -11   -1    0    0    0    0  0.00000000000E+00  0.00000000000E+00  0.45593999997E+02  0.45594000000E+02  0.51100000000E-03 0.  1.
         11   -1    0    0    0    0 -0.00000000000E+00 -0.00000000000E+00 -0.45593999997E+02  0.45594000000E+02  0.51100000000E-03 0. -1.
    9900012    2    1    2    0    0  0.70210526110E+01 -0.88346902948E+01  0.41907952768E+02  0.47787269159E+02  0.19999991402E+02 0.  0.
         12    1    1    2    0    0 -0.70210526110E+01  0.88346902948E+01 -0.41907952768E+02  0.43400730841E+02  0.00000000000E+00 0. -1.
         11    1    3    3    0    0 -0.43967105579E+00  0.16418689002E+01  0.33417185880E+01  0.37491502378E+01  0.51100000000E-03 0. -1.
        -11    1    3    3    0    0  0.50111508920E+01 -0.15133779126E+02  0.27558940177E+02  0.31837683456E+02  0.51100000000E-03 0.  1.
        -12    1    3    3    0    0  0.24495727748E+01  0.46572199314E+01  0.11007294003E+02  0.12200435465E+02  0.00000000000E+00 0.  1.
</event>
<event>
 7    1  0.2414091E-009  0.4778727E+02  0.7816164E-02  0.1312668E+00
        -11   -1    0    0    0    0  0.00000000000E+00  0.00000000000E+00  0.45593999997E+02  0.45594000000E+02  0.51100000000E-03 0.  1.
         11   -1    0    0    0    0 -0.00000000000E+00 -0.00000000000E+00 -0.45593999997E+02  0.45594000000E+02  0.51100000000E-03 0. -1.
    9900012    2    1    2    0    0 -0.30256542806E+02  0.26693731203E+02  0.15987797553E+02  0.47787270298E+02  0.19999996596E+02 0.  0.
         12    1    1    2    0    0  0.30256542806E+02 -0.26693731203E+02 -0.15987797553E+02  0.43400729702E+02  0.00000000000E+00 0. -1.
         11    1    3    3    0    0 -0.52206519739E+01  0.44965816036E+01 -0.18546284297E+01  0.71354116926E+01  0.51100000000E-03 0. -1.
        -11    1    3    3    0    0 -0.14947923017E+02  0.16697664439E+02  0.41749125054E+01  0.22796541293E+02  0.51100000000E-03 0.  1.
        -12    1    3    3    0    0 -0.10087967815E+02  0.54994851601E+01  0.13667513477E+02  0.17855317312E+02  0.00000000000E+00 0.  1.
</event>
<event>
 7    1  0.2414091E-009  0.4778727E+02  0.7816164E-02  0.1312668E+00
        -11   -1    0    0    0    0  0.00000000000E+00  0.00000000000E+00  0.45593999997E+02  0.45594000000E+02  0.51100000000E-03 0.  1.
         11   -1    0    0    0    0 -0.00000000000E+00 -0.00000000000E+00 -0.45593999997E+02  0.45594000000E+02  0.51100000000E-03 0. -1.
    9900012    2    1    2    0    0  0.19328378032E+02 -0.19655227992E+02  0.33521771606E+02  0.47787270094E+02  0.19999995668E+02 0.  0.
         12    1    1    2    0    0 -0.19328378032E+02  0.19655227992E+02 -0.33521771606E+02  0.43400729906E+02  0.00000000000E+00 0. -1.
         11    1    3    3    0    0 -0.70645955606E-01 -0.10760755933E+02  0.11495625655E+02  0.15746373188E+02  0.51100000000E-03 0. -1.
        -11    1    3    3    0    0  0.44072045224E+00 -0.26971339240E+01  0.54878291240E+01  0.61306634777E+01  0.51100000000E-03 0.  1.
        -12    1    3    3    0    0  0.18958303535E+02 -0.61973381352E+01  0.16538316827E+02  0.25910233429E+02  0.00000000000E+00 0.  1.
</event>
<event>
 7    1  0.2414091E-009  0.4778726E+02  0.7816164E-02  0.1312668E+00
        -11   -1    0    0    0    0  0.00000000000E+00  0.00000000000E+00  0.45593999997E+02  0.45594000000E+02  0.51100000000E-03 0.  1.
         11   -1    0    0    0    0 -0.00000000000E+00 -0.00000000000E+00 -0.45593999997E+02  0.45594000000E+02  0.51100000000E-03 0. -1.
    9900012    2    1    2    0    0  0.24713175547E+02  0.13566021503E+02  0.32997672249E+02  0.47787258545E+02  0.19999943008E+02 0.  0.
         12    1    1    2    0    0 -0.24713175547E+02 -0.13566021503E+02 -0.32997672249E+02  0.43400741455E+02  0.00000000000E+00 0. -1.
         11    1    3    3    0    0  0.39600287217E+01 -0.21570901318E+01  0.28227312168E+01  0.53200260429E+01  0.51100000000E-03 0. -1.
        -11    1    3    3    0    0  0.13228108812E+02  0.17031700442E+02  0.17978117445E+02  0.28076224636E+02  0.51100000000E-03 0.  1.
        -12    1    3    3    0    0  0.75250380136E+01 -0.13085888077E+01  0.12196823587E+02  0.14391007866E+02  0.00000000000E+00 0.  1.
</event>
<event>
 7    1  0.2414091E-009  0.4778726E+02  0.7816164E-02  0.1312668E+00
        -11   -1    0    0    0    0  0.00000000000E+00  0.00000000000E+00  0.45593999997E+02  0.45594000000E+02  0.51100000000E-03 0.  1.
         11   -1    0    0    0    0 -0.00000000000E+00 -0.00000000000E+00 -0.45593999997E+02  0.45594000000E+02  0.51100000000E-03 0. -1.
    9900012    2    1    2    0    0 -0.37891055638E+02 -0.20015745249E+02 -0.68747115589E+01  0.47787264819E+02  0.19999971617E+02 0.  0.
         12    1    1    2    0    0  0.37891055638E+02  0.20015745249E+02  0.68747115589E+01  0.43400735181E+02  0.00000000000E+00 0. -1.
         11    1    3    3    0    0 -0.44625464725E+01 -0.45311551661E+01 -0.40561901252E+01  0.75431006060E+01  0.51100000000E-03 0. -1.
        -11    1    3    3    0    0  0.35202565816E+00  0.12707028326E+01 -0.21601720993E+01  0.25308005675E+01  0.51100000000E-03 0.  1.
        -12    1    3    3    0    0 -0.33780534823E+02 -0.16755292915E+02 -0.65834933437E+00  0.37713363646E+02  0.00000000000E+00 0.  1.
</event>
<event>
 7    1  0.2414091E-009  0.4778727E+02  0.7816164E-02  0.1312668E+00
        -11   -1    0    0    0    0  0.00000000000E+00  0.00000000000E+00  0.45593999997E+02  0.45594000000E+02  0.51100000000E-03 0.  1.
         11   -1    0    0    0    0 -0.00000000000E+00 -0.00000000000E+00 -0.45593999997E+02  0.45594000000E+02  0.51100000000E-03 0. -1.
    9900012    2    1    2    0    0 -0.13556882101E+02 -0.23317735064E+02  0.34001726423E+02  0.47787271659E+02  0.20000002800E+02 0.  0.
         12    1    1    2    0    0  0.13556882101E+02  0.23317735064E+02 -0.34001726423E+02  0.43400728341E+02  0.00000000000E+00 0. -1.
         11    1    3    3    0    0 -0.15247971228E+01 -0.11141034917E+02  0.11880414621E+02  0.16358236980E+02  0.51100000000E-03 0. -1.
        -11    1    3    3    0    0 -0.11909466732E+02 -0.13508115480E+02  0.13000527743E+02  0.22210769989E+02  0.51100000000E-03 0.  1.
         12    1    3    3    0    0 -0.12261824643E+00  0.13314153326E+01  0.91207840595E+01  0.92182646894E+01  0.00000000000E+00 0. -1.
</event>
<event>
 7    1  0.2414091E-009  0.4778725E+02  0.7816164E-02  0.1312668E+00
        -11   -1    0    0    0    0  0.00000000000E+00  0.00000000000E+00  0.45593999997E+02  0.45594000000E+02  0.51100000000E-03 0.  1.
         11   -1    0    0    0    0 -0.00000000000E+00 -0.00000000000E+00 -0.45593999997E+02  0.45594000000E+02  0.51100000000E-03 0. -1.
    9900012    2    1    2    0    0  0.12997764936E+02  0.31560569594E+02  0.26806976736E+02  0.47787245995E+02  0.19999885790E+02 0.  0.
         12    1    1    2    0    0 -0.12997764936E+02 -0.31560569594E+02 -0.26806976736E+02  0.43400754005E+02  0.00000000000E+00 0. -1.
         11    1    3    3    0    0 -0.90920060910E+00  0.57584366334E+01  0.34645551484E-01  0.58298746800E+01  0.51100000000E-03 0. -1.
        -11    1    3    3    0    0  0.24337864244E+01  0.17436193077E+02  0.11115176255E+02  0.20820453617E+02  0.51100000000E-03 0.  1.
         12    1    3    3    0    0  0.11473179121E+02  0.83659398841E+01  0.15657154930E+02  0.21136917699E+02  0.00000000000E+00 0. -1.
</event>
<event>
 7    1  0.2414091E-009  0.4778728E+02  0.7816164E-02  0.1312668E+00
        -11   -1    0    0    0    0  0.00000000000E+00  0.00000000000E+00  0.45593999997E+02  0.45594000000E+02  0.51100000000E-03 0. -1.
         11   -1    0    0    0    0 -0.00000000000E+00 -0.00000000000E+00 -0.45593999997E+02  0.45594000000E+02  0.51100000000E-03 0.  1.
    9900012    2    1    2    0    0 -0.16905933902E+02  0.36853905735E+02 -0.15479058685E+02  0.47787283107E+02  0.20000054998E+02 0.  0.
         12    1    1    2    0    0  0.16905933902E+02 -0.36853905735E+02  0.15479058685E+02  0.43400716893E+02  0.00000000000E+00 0. -1.
         11    1    3    3    0    0 -0.86700077194E+01  0.24628612834E+02 -0.17626079162E+02  0.31502639110E+02  0.51100000000E-03 0. -1.
        -11    1    3    3    0    0 -0.83689825825E+00  0.60961930078E+00 -0.16954485567E+01  0.19866002255E+01  0.51100000000E-03 0.  1.
         12    1    3    3    0    0 -0.73990279246E+01  0.11615673601E+02  0.38424690337E+01  0.14298043772E+02  0.00000000000E+00 0. -1.
</event>
<event>
 7    1  0.2414091E-009  0.4778728E+02  0.7816164E-02  0.1312668E+00
        -11   -1    0    0    0    0  0.00000000000E+00  0.00000000000E+00  0.45593999997E+02  0.45594000000E+02  0.51100000000E-03 0.  1.
         11   -1    0    0    0    0 -0.00000000000E+00 -0.00000000000E+00 -0.45593999997E+02  0.45594000000E+02  0.51100000000E-03 0. -1.
    9900012    2    1    2    0    0  0.10465018245E+02  0.33867753636E+02  0.25041596147E+02  0.47787275573E+02  0.20000020646E+02 0.  0.
         12    1    1    2    0    0 -0.10465018245E+02 -0.33867753636E+02 -0.25041596147E+02  0.43400724427E+02  0.00000000000E+00 0. -1.
         11    1    3    3    0    0  0.10874044579E+02  0.19184710810E+02  0.72702684248E+01  0.23219706665E+02  0.51100000000E-03 0. -1.
        -11    1    3    3    0    0  0.36460409605E+01  0.89833328817E+01  0.81103002537E+01  0.12640049637E+02  0.51100000000E-03 0.  1.
        -12    1    3    3    0    0 -0.40550672944E+01  0.56997099445E+01  0.96610274690E+01  0.11927519271E+02  0.00000000000E+00 0.  1.
</event>
<event>
 7    1  0.2414091E-009  0.4778726E+02  0.7816164E-02  0.1312668E+00
        -11   -1    0    0    0    0  0.00000000000E+00  0.00000000000E+00  0.45593999997E+02  0.45594000000E+02  0.51100000000E-03 0.  1.
         11   -1    0    0    0    0 -0.00000000000E+00 -0.00000000000E+00 -0.45593999997E+02  0.45594000000E+02  0.51100000000E-03 0. -1.
    9900012    2    1    2    0    0 -0.41934299642E+02  0.11186413543E+02  0.54724608067E-01  0.47787258887E+02  0.19999944569E+02 0.  0.
         12    1    1    2    0    0  0.41934299642E+02 -0.11186413543E+02 -0.54724608067E-01  0.43400741113E+02  0.00000000000E+00 0. -1.
         11    1    3    3    0    0 -0.79789187226E-01  0.38147055861E+01 -0.29074957172E+01  0.47970695878E+01  0.51100000000E-03 0. -1.
        -11    1    3    3    0    0 -0.11114989250E+02 -0.52159206933E+00  0.14006480560E+01  0.11215028291E+02  0.51100000000E-03 0.  1.
        -12    1    3    3    0    0 -0.30739521204E+02  0.78933000265E+01  0.15615722693E+01  0.31775161008E+02  0.00000000000E+00 0.  1.
</event>
<event>
 7    1  0.2414091E-009  0.4778727E+02  0.7816164E-02  0.1312668E+00
        -11   -1    0    0    0    0  0.00000000000E+00  0.00000000000E+00  0.45593999997E+02  0.45594000000E+02  0.51100000000E-03 0.  1.
         11   -1    0    0    0    0 -0.00000000000E+00 -0.00000000000E+00 -0.45593999997E+02  0.45594000000E+02  0.51100000000E-03 0. -1.
    9900012    2    1    2    0    0  0.37032879919E+02 -0.18984580508E+01  0.22551829942E+02  0.47787269917E+02  0.19999994858E+02 0.  0.
         12    1    1    2    0    0 -0.37032879919E+02  0.18984580508E+01 -0.22551829942E+02  0.43400730083E+02  0.00000000000E+00 0. -1.
         11    1    3    3    0    0  0.16573271461E+02  0.14797412074E+01  0.79879870753E+01  0.18457272245E+02  0.51100000000E-03 0.  1.
        -11    1    3    3    0    0  0.17937699018E+02  0.33258814874E+01  0.11292277570E+02  0.21455490363E+02  0.51100000000E-03 0. -1.
         12    1    3    3    0    0  0.25219094400E+01 -0.67040807456E+01  0.32715652967E+01  0.78745073089E+01  0.00000000000E+00 0. -1.
</event>
<event>
 7    1  0.2414091E-009  0.4778727E+02  0.7816164E-02  0.1312668E+00
        -11   -1    0    0    0    0  0.00000000000E+00  0.00000000000E+00  0.45593999997E+02  0.45594000000E+02  0.51100000000E-03 0.  1.
         11   -1    0    0    0    0 -0.00000000000E+00 -0.00000000000E+00 -0.45593999997E+02  0.45594000000E+02  0.51100000000E-03 0. -1.
    9900012    2    1    2    0    0 -0.22610551545E+02 -0.33800546474E+02  0.15162753328E+02  0.47787273375E+02  0.20000010624E+02 0.  0.
         12    1    1    2    0    0  0.22610551545E+02  0.33800546474E+02 -0.15162753328E+02  0.43400726625E+02  0.00000000000E+00 0. -1.
         11    1    3    3    0    0  0.55178250681E+00 -0.10321948997E+01  0.44076515951E+01  0.45604038298E+01  0.51100000000E-03 0. -1.
        -11    1    3    3    0    0 -0.10872755846E+02 -0.79469540453E+01  0.72896134020E+01  0.15313698511E+02  0.51100000000E-03 0.  1.
        -12    1    3    3    0    0 -0.12289578206E+02 -0.24821397529E+02  0.34654883305E+01  0.27913171034E+02  0.00000000000E+00 0.  1.
</event>
<event>
 7    1  0.2414091E-009  0.4778727E+02  0.7816164E-02  0.1312668E+00
        -11   -1    0    0    0    0  0.00000000000E+00  0.00000000000E+00  0.45593999997E+02  0.45594000000E+02  0.51100000000E-03 0.  1.
         11   -1    0    0    0    0 -0.00000000000E+00 -0.00000000000E+00 -0.45593999997E+02  0.45594000000E+02  0.51100000000E-03 0. -1.
    9900012    2    1    2    0    0 -0.53937993387E+01 -0.32718372630E+02  0.28000683471E+02  0.47787271277E+02  0.20000001059E+02 0.  0.
         12    1    1    2    0    0  0.53937993387E+01  0.32718372630E+02 -0.28000683471E+02  0.43400728723E+02  0.00000000000E+00 0. -1.
         11    1    3    3    0    0 -0.18333801386E+01  0.99843169990E+00  0.40529587111E+01  0.45590155918E+01  0.51100000000E-03 0. -1.
        -11    1    3    3    0    0 -0.21163315974E+01 -0.11601276966E+01  0.49485102413E+01  0.55056797557E+01  0.51100000000E-03 0.  1.
         12    1    3    3    0    0 -0.14440876027E+01 -0.32556676633E+02  0.18999214519E+02  0.37722575929E+02  0.00000000000E+00 0. -1.
</event>
<event>
 7    1  0.2414091E-009  0.4778729E+02  0.7816164E-02  0.1312668E+00
        -11   -1    0    0    0    0  0.00000000000E+00  0.00000000000E+00  0.45593999997E+02  0.45594000000E+02  0.51100000000E-03 0. -1.
         11   -1    0    0    0    0 -0.00000000000E+00 -0.00000000000E+00 -0.45593999997E+02  0.45594000000E+02  0.51100000000E-03 0.  1.
    9900012    2    1    2    0    0 -0.33136259106E+02 -0.24211366685E+02  0.14121614766E+02  0.47787286321E+02  0.20000069651E+02 0.  0.
         12    1    1    2    0    0  0.33136259106E+02  0.24211366685E+02 -0.14121614766E+02  0.43400713679E+02  0.00000000000E+00 0. -1.
         11    1    3    3    0    0 -0.82409501638E+01 -0.16666708424E+01  0.57734901100E+01  0.10199227403E+02  0.51100000000E-03 0. -1.
        -11    1    3    3    0    0 -0.24123611605E+02 -0.14400236647E+02  0.41718958750E+01  0.28402819716E+02  0.51100000000E-03 0.  1.
        -12    1    3    3    0    0 -0.77169733627E+00 -0.81444591952E+01  0.41762287813E+01  0.91852392018E+01  0.00000000000E+00 0.  1.
</event>
<event>
 7    1  0.2414091E-009  0.4778728E+02  0.7816164E-02  0.1312668E+00
        -11   -1    0    0    0    0  0.00000000000E+00  0.00000000000E+00  0.45593999997E+02  0.45594000000E+02  0.51100000000E-03 0.  1.
         11   -1    0    0    0    0 -0.00000000000E+00 -0.00000000000E+00 -0.45593999997E+02  0.45594000000E+02  0.51100000000E-03 0. -1.
    9900012    2    1    2    0    0 -0.41221703259E+02 -0.50001455955E+01  0.12625062680E+02  0.47787280153E+02  0.20000041531E+02 0.  0.
         12    1    1    2    0    0  0.41221703259E+02  0.50001455955E+01 -0.12625062680E+02  0.43400719847E+02  0.00000000000E+00 0. -1.
         11    1    3    3    0    0 -0.16314509188E+02 -0.88974634350E+01  0.87530470472E+00  0.18603607828E+02  0.51100000000E-03 0. -1.
        -11    1    3    3    0    0 -0.15238567659E+02 -0.19707171656E+01  0.75383049656E+01  0.17115014241E+02  0.51100000000E-03 0.  1.
         12    1    3    3    0    0 -0.96686264117E+01  0.58680350051E+01  0.42114530101E+01  0.12068658085E+02  0.00000000000E+00 0. -1.
</event>
<event>
 7    1  0.2414091E-009  0.4778727E+02  0.7816164E-02  0.1312668E+00
        -11   -1    0    0    0    0  0.00000000000E+00  0.00000000000E+00  0.45593999997E+02  0.45594000000E+02  0.51100000000E-03 0. -1.
         11   -1    0    0    0    0 -0.00000000000E+00 -0.00000000000E+00 -0.45593999997E+02  0.45594000000E+02  0.51100000000E-03 0.  1.
    9900012    2    1    2    0    0 -0.22336528696E+02  0.35479674571E+02 -0.11220313540E+02  0.47787271229E+02  0.20000000843E+02 0.  0.
         12    1    1    2    0    0  0.22336528696E+02 -0.35479674571E+02  0.11220313540E+02  0.43400728771E+02  0.00000000000E+00 0. -1.
         11    1    3    3    0    0  0.24475541070E+00  0.13016412067E+01 -0.20347105251E+01  0.24278019327E+01  0.51100000000E-03 0. -1.
        -11    1    3    3    0    0 -0.19224717375E+02  0.15662630249E+02 -0.94049133838E+00  0.24815162073E+02  0.51100000000E-03 0.  1.
         12    1    3    3    0    0 -0.33565667318E+01  0.18515403115E+02 -0.82451116761E+01  0.20544307224E+02  0.00000000000E+00 0. -1.
</event>
<event>
 7    1  0.2414091E-009  0.4778727E+02  0.7816164E-02  0.1312668E+00
        -11   -1    0    0    0    0  0.00000000000E+00  0.00000000000E+00  0.45593999997E+02  0.45594000000E+02  0.51100000000E-03 0. -1.
         11   -1    0    0    0    0 -0.00000000000E+00 -0.00000000000E+00 -0.45593999997E+02  0.45594000000E+02  0.51100000000E-03 0.  1.
    9900012    2    1    2    0    0  0.15015151940E+02 -0.38894627083E+02 -0.12057228869E+02  0.47787267613E+02  0.19999984355E+02 0.  0.
         12    1    1    2    0    0 -0.15015151940E+02  0.38894627083E+02  0.12057228869E+02  0.43400732387E+02  0.00000000000E+00 0. -1.
         11    1    3    3    0    0  0.36742018133E-01 -0.32961816191E+01  0.18800099578E+01  0.37948123728E+01  0.51100000000E-03 0. -1.
        -11    1    3    3    0    0  0.13457253804E+02 -0.11989725304E+02 -0.50160914760E+01  0.18708617446E+02  0.51100000000E-03 0.  1.
        -12    1    3    3    0    0  0.15211561184E+01 -0.23608720160E+02 -0.89211473511E+01  0.25283837794E+02  0.00000000000E+00 0.  1.
</event>
<event>
 7    1  0.2414091E-009  0.4778727E+02  0.7816164E-02  0.1312668E+00
        -11   -1    0    0    0    0  0.00000000000E+00  0.00000000000E+00  0.45593999997E+02  0.45594000000E+02  0.51100000000E-03 0.  1.
         11   -1    0    0    0    0 -0.00000000000E+00 -0.00000000000E+00 -0.45593999997E+02  0.45594000000E+02  0.51100000000E-03 0. -1.
    9900012    2    1    2    0    0  0.42735729838E+02  0.72521652077E+01  0.21649174998E+01  0.47787269905E+02  0.19999994807E+02 0.  0.
         12    1    1    2    0    0 -0.42735729838E+02 -0.72521652077E+01 -0.21649174998E+01  0.43400730095E+02  0.00000000000E+00 0. -1.
         11    1    3    3    0    0  0.15814223693E+02  0.73395167349E+01 -0.25457137093E+01  0.17619274544E+02  0.51100000000E-03 0. -1.
        -11    1    3    3    0    0  0.13271466251E+02 -0.74548602797E+00 -0.40973307415E+01  0.13909553743E+02  0.51100000000E-03 0.  1.
        -12    1    3    3    0    0  0.13650039894E+02  0.65813450076E+00  0.88079619507E+01  0.16258441618E+02  0.00000000000E+00 0.  1.
</event>
<event>
 7    1  0.2414091E-009  0.4778727E+02  0.7816164E-02  0.1312668E+00
        -11   -1    0    0    0    0  0.00000000000E+00  0.00000000000E+00  0.45593999997E+02  0.45594000000E+02  0.51100000000E-03 0.  1.
         11   -1    0    0    0    0 -0.00000000000E+00 -0.00000000000E+00 -0.45593999997E+02  0.45594000000E+02  0.51100000000E-03 0. -1.
    9900012    2    1    2    0    0 -0.28461732121E+02  0.22742897661E+02  0.23586301034E+02  0.47787272059E+02  0.20000004625E+02 0.  0.
         12    1    1    2    0    0  0.28461732121E+02 -0.22742897661E+02 -0.23586301034E+02  0.43400727941E+02  0.00000000000E+00 0. -1.
         11    1    3    3    0    0 -0.11753882146E+02  0.16091888974E+02  0.10439525929E+02  0.22496362776E+02  0.51100000000E-03 0. -1.
        -11    1    3    3    0    0 -0.13351640167E+02  0.98358950862E+01  0.81396423208E+01  0.18473356616E+02  0.51100000000E-03 0.  1.
        -12    1    3    3    0    0 -0.33562098079E+01 -0.31848863988E+01  0.50071327844E+01  0.68175526671E+01  0.00000000000E+00 0.  1.
</event>
<event>
 7    1  0.2414091E-009  0.4778729E+02  0.7816164E-02  0.1312668E+00
        -11   -1    0    0    0    0  0.00000000000E+00  0.00000000000E+00  0.45593999997E+02  0.45594000000E+02  0.51100000000E-03 0. -1.
         11   -1    0    0    0    0 -0.00000000000E+00 -0.00000000000E+00 -0.45593999997E+02  0.45594000000E+02  0.51100000000E-03 0.  1.
    9900012    2    1    2    0    0  0.19008808521E+02 -0.15647044890E+02 -0.35741531839E+02  0.47787286718E+02  0.20000071463E+02 0.  0.
         12    1    1    2    0    0 -0.19008808521E+02  0.15647044890E+02  0.35741531839E+02  0.43400713282E+02  0.00000000000E+00 0. -1.
         11    1    3    3    0    0 -0.11451833002E+01 -0.53439297756E-02 -0.11578088376E+01  0.16284946773E+01  0.51100000000E-03 0. -1.
        -11    1    3    3    0    0  0.14949579815E+02 -0.49989083817E+01 -0.29119360740E+02  0.33112175885E+02  0.51100000000E-03 0.  1.
        -12    1    3    3    0    0  0.52044120067E+01 -0.10642792579E+02 -0.54643622610E+01  0.13046616156E+02  0.00000000000E+00 0.  1.
</event>
<event>
 7    1  0.2414091E-009  0.4778727E+02  0.7816164E-02  0.1312668E+00
        -11   -1    0    0    0    0  0.00000000000E+00  0.00000000000E+00  0.45593999997E+02  0.45594000000E+02  0.51100000000E-03 0.  1.
         11   -1    0    0    0    0 -0.00000000000E+00 -0.00000000000E+00 -0.45593999997E+02  0.45594000000E+02  0.51100000000E-03 0. -1.
    9900012    2    1    2    0    0 -0.32612356208E+02  0.27162700047E+02  0.90689082152E+01  0.47787272501E+02  0.20000006639E+02 0.  0.
         12    1    1    2    0    0  0.32612356208E+02 -0.27162700047E+02 -0.90689082152E+01  0.43400727499E+02  0.00000000000E+00 0. -1.
         11    1    3    3    0    0 -0.56952806514E+01  0.45237349756E+01  0.62042518704E+01  0.95599760125E+01  0.51100000000E-03 0. -1.
        -11    1    3    3    0    0 -0.30797812445E+01 -0.78438055198E+00  0.35967489455E+01  0.47996779686E+01  0.51100000000E-03 0.  1.
        -12    1    3    3    0    0 -0.23837294312E+02  0.23423345623E+02 -0.73209260072E+00  0.33427618519E+02  0.00000000000E+00 0.  1.
</event>
<event>
 7    1  0.2414091E-009  0.4778723E+02  0.7816164E-02  0.1312668E+00
        -11   -1    0    0    0    0  0.00000000000E+00  0.00000000000E+00  0.45593999997E+02  0.45594000000E+02  0.51100000000E-03 0.  1.
         11   -1    0    0    0    0 -0.00000000000E+00 -0.00000000000E+00 -0.45593999997E+02  0.45594000000E+02  0.51100000000E-03 0. -1.
    9900012    2    1    2    0    0 -0.34733768937E+02  0.15071504270E+02  0.21214183954E+02  0.47787233343E+02  0.19999828105E+02 0.  0.
         12    1    1    2    0    0  0.34733768937E+02 -0.15071504270E+02 -0.21214183954E+02  0.43400766657E+02  0.00000000000E+00 0. -1.
         11    1    3    3    0    0 -0.98527571815E+01  0.11769506952E+02  0.73435174645E+01  0.17015444954E+02  0.51100000000E-03 0. -1.
        -11    1    3    3    0    0 -0.65867194774E+01  0.38686702616E+01 -0.26843258654E+00  0.76435292491E+01  0.51100000000E-03 0.  1.
         12    1    3    3    0    0 -0.18294292278E+02 -0.56667294340E+00  0.14139099076E+02  0.23128259140E+02  0.00000000000E+00 0. -1.
</event>
<event>
 7    1  0.2414091E-009  0.4778727E+02  0.7816164E-02  0.1312668E+00
        -11   -1    0    0    0    0  0.00000000000E+00  0.00000000000E+00  0.45593999997E+02  0.45594000000E+02  0.51100000000E-03 0. -1.
         11   -1    0    0    0    0 -0.00000000000E+00 -0.00000000000E+00 -0.45593999997E+02  0.45594000000E+02  0.51100000000E-03 0.  1.
    9900012    2    1    2    0    0 -0.13240591931E+02 -0.39193835425E+02 -0.13120723049E+02  0.47787269783E+02  0.19999994251E+02 0.  0.
         12    1    1    2    0    0  0.13240591931E+02  0.39193835425E+02  0.13120723049E+02  0.43400730217E+02  0.00000000000E+00 0. -1.
         11    1    3    3    0    0 -0.55870876754E+01 -0.13939965341E+02  0.11657599995E+01  0.15063106553E+02  0.51100000000E-03 0. -1.
        -11    1    3    3    0    0 -0.51422192678E+01 -0.13016262265E+02 -0.33816297898E+00  0.13999280582E+02  0.51100000000E-03 0.  1.
        -12    1    3    3    0    0 -0.25112849882E+01 -0.12237607819E+02 -0.13948320070E+02  0.18724882648E+02  0.00000000000E+00 0.  1.
</event>
<event>
 7    1  0.2414091E-009  0.4778727E+02  0.7816164E-02  0.1312668E+00
        -11   -1    0    0    0    0  0.00000000000E+00  0.00000000000E+00  0.45593999997E+02  0.45594000000E+02  0.51100000000E-03 0. -1.
         11   -1    0    0    0    0 -0.00000000000E+00 -0.00000000000E+00 -0.45593999997E+02  0.45594000000E+02  0.51100000000E-03 0.  1.
    9900012    2    1    2    0    0  0.42054919460E+02  0.35725860097E+01  0.10111560056E+02  0.47787271108E+02  0.20000000290E+02 0.  0.
         12    1    1    2    0    0 -0.42054919460E+02 -0.35725860097E+01 -0.10111560056E+02  0.43400728892E+02  0.00000000000E+00 0. -1.
         11    1    3    3    0    0  0.25594623284E+00  0.58150389733E+00  0.32397890302E+01  0.33014979142E+01  0.51100000000E-03 0. -1.
        -11    1    3    3    0    0  0.16839179168E+01  0.10310799277E+01 -0.25573094468E+01  0.32308725193E+01  0.51100000000E-03 0.  1.
        -12    1    3    3    0    0  0.40115055310E+02  0.19600021846E+01  0.94290804723E+01  0.41254900675E+02  0.00000000000E+00 0.  1.
</event>
<event>
 7    1  0.2414091E-009  0.4778726E+02  0.7816164E-02  0.1312668E+00
        -11   -1    0    0    0    0  0.00000000000E+00  0.00000000000E+00  0.45593999997E+02  0.45594000000E+02  0.51100000000E-03 0.  1.
         11   -1    0    0    0    0 -0.00000000000E+00 -0.00000000000E+00 -0.45593999997E+02  0.45594000000E+02  0.51100000000E-03 0. -1.
    9900012    2    1    2    0    0 -0.11399808485E+02  0.29491087175E+02  0.29731196233E+02  0.47787263995E+02  0.19999967861E+02 0.  0.
         12    1    1    2    0    0  0.11399808485E+02 -0.29491087175E+02 -0.29731196233E+02  0.43400736005E+02  0.00000000000E+00 0. -1.
         11    1    3    3    0    0 -0.19580114136E-01 -0.14486736726E+01  0.87176751743E+00  0.16908629915E+01  0.51100000000E-03 0. -1.
        -11    1    3    3    0    0 -0.12560958509E+02  0.14263181966E+02  0.17886477469E+02  0.26098699488E+02  0.51100000000E-03 0.  1.
         12    1    3    3    0    0  0.11807301381E+01  0.16676578882E+02  0.10972951247E+02  0.19997701516E+02  0.00000000000E+00 0. -1.
</event>
<event>
 7    1  0.2414091E-009  0.4778727E+02  0.7816164E-02  0.1312668E+00
        -11   -1    0    0    0    0  0.00000000000E+00  0.00000000000E+00  0.45593999997E+02  0.45594000000E+02  0.51100000000E-03 0.  1.
         11   -1    0    0    0    0 -0.00000000000E+00 -0.00000000000E+00 -0.45593999997E+02  0.45594000000E+02  0.51100000000E-03 0. -1.
    9900012    2    1    2    0    0  0.32503127660E+02  0.26287184617E+02 -0.11668488502E+02  0.47787274123E+02  0.20000014036E+02 0.  0.
         12    1    1    2    0    0 -0.32503127660E+02 -0.26287184617E+02  0.11668488502E+02  0.43400725877E+02  0.00000000000E+00 0. -1.
         11    1    3    3    0    0  0.13690098529E+02  0.11495620139E+02  0.39475931120E+01  0.18307145375E+02  0.51100000000E-03 0.  1.
        -11    1    3    3    0    0 -0.65304277729E+00  0.72206455134E+00 -0.43503732120E+00  0.10663488253E+01  0.51100000000E-03 0. -1.
         12    1    3    3    0    0  0.19466071908E+02  0.14069499926E+02 -0.15181044293E+02  0.28413779923E+02  0.00000000000E+00 0. -1.
</event>
<event>
 7    1  0.2414091E-009  0.4778727E+02  0.7816164E-02  0.1312668E+00
        -11   -1    0    0    0    0  0.00000000000E+00  0.00000000000E+00  0.45593999997E+02  0.45594000000E+02  0.51100000000E-03 0.  1.
         11   -1    0    0    0    0 -0.00000000000E+00 -0.00000000000E+00 -0.45593999997E+02  0.45594000000E+02  0.51100000000E-03 0. -1.
    9900012    2    1    2    0    0 -0.19738253400E+02  0.32842816091E+02  0.20380722888E+02  0.47787273260E+02  0.20000010103E+02 0.  0.
         12    1    1    2    0    0  0.19738253400E+02 -0.32842816091E+02 -0.20380722888E+02  0.43400726740E+02  0.00000000000E+00 0. -1.
         11    1    3    3    0    0 -0.74418059321E+01  0.59499917521E+01  0.42861927120E+01  0.10447694751E+02  0.51100000000E-03 0. -1.
        -11    1    3    3    0    0  0.14841646877E+01  0.11902729060E-01 -0.17188629559E+01  0.22709858250E+01  0.51100000000E-03 0.  1.
        -12    1    3    3    0    0 -0.13780612155E+02  0.26880921610E+02  0.17813393132E+02  0.35068592684E+02  0.00000000000E+00 0.  1.
</event>
<event>
 7    1  0.2414091E-009  0.4778727E+02  0.7816164E-02  0.1312668E+00
        -11   -1    0    0    0    0  0.00000000000E+00  0.00000000000E+00  0.45593999997E+02  0.45594000000E+02  0.51100000000E-03 0.  1.
         11   -1    0    0    0    0 -0.00000000000E+00 -0.00000000000E+00 -0.45593999997E+02  0.45594000000E+02  0.51100000000E-03 0. -1.
    9900012    2    1    2    0    0  0.32863573647E+02  0.28187636090E+02 -0.30109615663E+01  0.47787272002E+02  0.20000004366E+02 0.  0.
         12    1    1    2    0    0 -0.32863573647E+02 -0.28187636090E+02  0.30109615663E+01  0.43400727998E+02  0.00000000000E+00 0. -1.
         11    1    3    3    0    0  0.17110120312E+02  0.98768617179E+01 -0.91423289008E+01  0.21769032879E+02  0.51100000000E-03 0. -1.
        -11    1    3    3    0    0  0.34160784035E+01  0.36566671148E+00  0.15277320128E+01  0.37599560059E+01  0.51100000000E-03 0.  1.
        -12    1    3    3    0    0  0.12337374931E+02  0.17945107661E+02  0.46036353217E+01  0.22258283118E+02  0.00000000000E+00 0.  1.
</event>
<event>
 7    1  0.2414091E-009  0.4778727E+02  0.7816164E-02  0.1312668E+00
        -11   -1    0    0    0    0  0.00000000000E+00  0.00000000000E+00  0.45593999997E+02  0.45594000000E+02  0.51100000000E-03 0. -1.
         11   -1    0    0    0    0 -0.00000000000E+00 -0.00000000000E+00 -0.45593999997E+02  0.45594000000E+02  0.51100000000E-03 0.  1.
    9900012    2    1    2    0    0  0.40104170825E+02 -0.11547452583E+02 -0.11913644210E+02  0.47787273081E+02  0.20000009287E+02 0.  0.
         12    1    1    2    0    0 -0.40104170825E+02  0.11547452583E+02  0.11913644210E+02  0.43400726919E+02  0.00000000000E+00 0. -1.
         11    1    3    3    0    0  0.20866116478E+02 -0.57988998999E+01  0.13809814076E+01  0.21700902443E+02  0.51100000000E-03 0. -1.
        -11    1    3    3    0    0  0.80579594306E+01 -0.67792974923E+01 -0.32474940539E+01  0.11019791403E+02  0.51100000000E-03 0.  1.
         12    1    3    3    0    0  0.11180094916E+02  0.10307448093E+01 -0.10047131564E+02  0.15066579236E+02  0.00000000000E+00 0. -1.
</event>
<event>
 7    1  0.2414091E-009  0.4778727E+02  0.7816164E-02  0.1312668E+00
        -11   -1    0    0    0    0  0.00000000000E+00  0.00000000000E+00  0.45593999997E+02  0.45594000000E+02  0.51100000000E-03 0.  1.
         11   -1    0    0    0    0 -0.00000000000E+00 -0.00000000000E+00 -0.45593999997E+02  0.45594000000E+02  0.51100000000E-03 0. -1.
    9900012    2    1    2    0    0 -0.23190499090E+02  0.25902404549E+01  0.36593918877E+02  0.47787268527E+02  0.19999988522E+02 0.  0.
         12    1    1    2    0    0  0.23190499090E+02 -0.25902404549E+01 -0.36593918877E+02  0.43400731473E+02  0.00000000000E+00 0. -1.
         11    1    3    3    0    0 -0.60607326302E+01 -0.16858597464E-01  0.64265953538E+01  0.88336794332E+01  0.51100000000E-03 0. -1.
        -11    1    3    3    0    0 -0.16053637661E+02  0.39530465176E+01  0.32255681242E+02  0.36246031942E+02  0.51100000000E-03 0.  1.
         12    1    3    3    0    0 -0.10761287980E+01 -0.13459474652E+01 -0.20883577184E+01  0.27075571516E+01  0.00000000000E+00 0. -1.
</event>
<event>
 7    1  0.2414091E-009  0.4778727E+02  0.7816164E-02  0.1312668E+00
        -11   -1    0    0    0    0  0.00000000000E+00  0.00000000000E+00  0.45593999997E+02  0.45594000000E+02  0.51100000000E-03 0.  1.
         11   -1    0    0    0    0 -0.00000000000E+00 -0.00000000000E+00 -0.45593999997E+02  0.45594000000E+02  0.51100000000E-03 0. -1.
    9900012    2    1    2    0    0  0.35442091596E+02 -0.86894691992E+01  0.23494144885E+02  0.47787267569E+02  0.19999984154E+02 0.  0.
         12    1    1    2    0    0 -0.35442091596E+02  0.86894691992E+01 -0.23494144885E+02  0.43400732431E+02  0.00000000000E+00 0. -1.
         11    1    3    3    0    0  0.13421858766E+02  0.19508762489E+00  0.12471909397E+02  0.18323014932E+02  0.51100000000E-03 0. -1.
        -11    1    3    3    0    0  0.20986217880E+02 -0.90996169341E+01  0.13646436566E+02  0.26635495123E+02  0.51100000000E-03 0.  1.
        -12    1    3    3    0    0  0.10340149504E+01  0.21506011002E+00 -0.26242010789E+01  0.28287575136E+01  0.00000000000E+00 0.  1.
</event>
<event>
 7    1  0.2414091E-009  0.4778727E+02  0.7816164E-02  0.1312668E+00
        -11   -1    0    0    0    0  0.00000000000E+00  0.00000000000E+00  0.45593999997E+02  0.45594000000E+02  0.51100000000E-03 0.  1.
         11   -1    0    0    0    0 -0.00000000000E+00 -0.00000000000E+00 -0.45593999997E+02  0.45594000000E+02  0.51100000000E-03 0. -1.
    9900012    2    1    2    0    0  0.33765388468E+02 -0.73836698432E+01  0.26248872960E+02  0.47787269932E+02  0.19999994929E+02 0.  0.
         12    1    1    2    0    0 -0.33765388468E+02  0.73836698432E+01 -0.26248872960E+02  0.43400730068E+02  0.00000000000E+00 0. -1.
         11    1    3    3    0    0  0.86921347538E+01 -0.39773852620E+01  0.12984962994E+02  0.16123959325E+02  0.51100000000E-03 0. -1.
        -11    1    3    3    0    0  0.42113541548E+01 -0.61006784041E+01  0.55416107966E+01  0.92554433329E+01  0.51100000000E-03 0.  1.
         12    1    3    3    0    0  0.20861899560E+02  0.26943938229E+01  0.77222991689E+01  0.22407867274E+02  0.00000000000E+00 0. -1.
</event>
<event>
 7    1  0.2414091E-009  0.4778727E+02  0.7816164E-02  0.1312668E+00
        -11   -1    0    0    0    0  0.00000000000E+00  0.00000000000E+00  0.45593999997E+02  0.45594000000E+02  0.51100000000E-03 0. -1.
         11   -1    0    0    0    0 -0.00000000000E+00 -0.00000000000E+00 -0.45593999997E+02  0.45594000000E+02  0.51100000000E-03 0.  1.
    9900012    2    1    2    0    0 -0.14594930341E+01 -0.26769582733E+02  0.34130375853E+02  0.47787271487E+02  0.20000002017E+02 0.  0.
         12    1    1    2    0    0  0.14594930341E+01  0.26769582733E+02 -0.34130375853E+02  0.43400728513E+02  0.00000000000E+00 0. -1.
         11    1    3    3    0    0  0.59370348081E+00 -0.36598313440E+01  0.18600478589E+01  0.41480872204E+01  0.51100000000E-03 0. -1.
        -11    1    3    3    0    0  0.22646179224E+01 -0.23301799340E+02  0.20564350444E+02  0.31160790366E+02  0.51100000000E-03 0.  1.
         12    1    3    3    0    0 -0.43178144373E+01  0.19204795059E+00  0.11705977550E+02  0.12478393900E+02  0.00000000000E+00 0. -1.
</event>
<event>
 7    1  0.2414091E-009  0.4778727E+02  0.7816164E-02  0.1312668E+00
        -11   -1    0    0    0    0  0.00000000000E+00  0.00000000000E+00  0.45593999997E+02  0.45594000000E+02  0.51100000000E-03 0.  1.
         11   -1    0    0    0    0 -0.00000000000E+00 -0.00000000000E+00 -0.45593999997E+02  0.45594000000E+02  0.51100000000E-03 0. -1.
    9900012    2    1    2    0    0 -0.94341831584E+01  0.26119648145E+01  0.42282352181E+02  0.47787268693E+02  0.19999989278E+02 0.  0.
         12    1    1    2    0    0  0.94341831584E+01 -0.26119648145E+01 -0.42282352181E+02  0.43400731307E+02  0.00000000000E+00 0. -1.
         11    1    3    3    0    0 -0.13938065944E+01  0.11259775770E+01  0.20671024169E+02  0.20748536401E+02  0.51100000000E-03 0. -1.
        -11    1    3    3    0    0 -0.92963321048E+01 -0.33617083708E+01  0.18936208429E+02  0.21361246773E+02  0.51100000000E-03 0.  1.
         12    1    3    3    0    0  0.12559555408E+01  0.48476956083E+01  0.26751195826E+01  0.56774855184E+01  0.00000000000E+00 0. -1.
</event>
<event>
 7    1  0.2414091E-009  0.4778727E+02  0.7816164E-02  0.1312668E+00
        -11   -1    0    0    0    0  0.00000000000E+00  0.00000000000E+00  0.45593999997E+02  0.45594000000E+02  0.51100000000E-03 0.  1.
         11   -1    0    0    0    0 -0.00000000000E+00 -0.00000000000E+00 -0.45593999997E+02  0.45594000000E+02  0.51100000000E-03 0. -1.
    9900012    2    1    2    0    0  0.43217089176E+01 -0.15353441288E+02 -0.40363574173E+02  0.47787269046E+02  0.19999990886E+02 0.  0.
         12    1    1    2    0    0 -0.43217089176E+01  0.15353441288E+02  0.40363574173E+02  0.43400730954E+02  0.00000000000E+00 0. -1.
         11    1    3    3    0    0 -0.46686675014E+01 -0.46911895106E+01 -0.72071003690E+01  0.97849890778E+01  0.51100000000E-03 0.  1.
        -11    1    3    3    0    0  0.35653679106E+00 -0.85096037549E+01 -0.22852125490E+02  0.24387704160E+02  0.51100000000E-03 0. -1.
        -12    1    3    3    0    0  0.86338396279E+01 -0.21526480221E+01 -0.10304348314E+02  0.13614575807E+02  0.00000000000E+00 0.  1.
</event>
<event>
 7    1  0.2414091E-009  0.4778727E+02  0.7816164E-02  0.1312668E+00
        -11   -1    0    0    0    0  0.00000000000E+00  0.00000000000E+00  0.45593999997E+02  0.45594000000E+02  0.51100000000E-03 0.  1.
         11   -1    0    0    0    0 -0.00000000000E+00 -0.00000000000E+00 -0.45593999997E+02  0.45594000000E+02  0.51100000000E-03 0. -1.
    9900012    2    1    2    0    0  0.20104000798E+02  0.36315153708E+02 -0.12675270177E+02  0.47787266009E+02  0.19999977039E+02 0.  0.
         12    1    1    2    0    0 -0.20104000798E+02 -0.36315153708E+02  0.12675270177E+02  0.43400733991E+02  0.00000000000E+00 0. -1.
         11    1    3    3    0    0  0.97438600776E+01  0.22287726539E+02 -0.10366144043E+02  0.26441303033E+02  0.51100000000E-03 0. -1.
        -11    1    3    3    0    0  0.69893742695E+00  0.93853919736E+01 -0.44584779070E+01  0.10414034834E+02  0.51100000000E-03 0.  1.
        -12    1    3    3    0    0  0.96612032936E+01  0.46420351952E+01  0.21493517734E+01  0.10931928141E+02  0.00000000000E+00 0.  1.
</event>
<event>
 7    1  0.2414091E-009  0.4778727E+02  0.7816164E-02  0.1312668E+00
        -11   -1    0    0    0    0  0.00000000000E+00  0.00000000000E+00  0.45593999997E+02  0.45594000000E+02  0.51100000000E-03 0.  1.
         11   -1    0    0    0    0 -0.00000000000E+00 -0.00000000000E+00 -0.45593999997E+02  0.45594000000E+02  0.51100000000E-03 0. -1.
    9900012    2    1    2    0    0 -0.25753417856E+01  0.71971144570E+01  0.42722270279E+02  0.47787271669E+02  0.20000002848E+02 0.  0.
         12    1    1    2    0    0  0.25753417856E+01 -0.71971144570E+01 -0.42722270279E+02  0.43400728331E+02  0.00000000000E+00 0. -1.
         11    1    3    3    0    0 -0.14492609064E+01  0.40432473176E+01  0.17132014938E+02  0.17662223590E+02  0.51100000000E-03 0. -1.
        -11    1    3    3    0    0  0.55040618904E+01 -0.42347211129E+00  0.19989038596E+02  0.20737301902E+02  0.51100000000E-03 0.  1.
         12    1    3    3    0    0 -0.66301427696E+01  0.35773392507E+01  0.56012167458E+01  0.93877461775E+01  0.00000000000E+00 0. -1.
</event>
<event>
 7    1  0.2414091E-009  0.4778727E+02  0.7816164E-02  0.1312668E+00
        -11   -1    0    0    0    0  0.00000000000E+00  0.00000000000E+00  0.45593999997E+02  0.45594000000E+02  0.51100000000E-03 0. -1.
         11   -1    0    0    0    0 -0.00000000000E+00 -0.00000000000E+00 -0.45593999997E+02  0.45594000000E+02  0.51100000000E-03 0.  1.
    9900012    2    1    2    0    0  0.38686376887E+02 -0.18507379425E+02 -0.66681662390E+01  0.47787270849E+02  0.19999999109E+02 0.  0.
         12    1    1    2    0    0 -0.38686376887E+02  0.18507379425E+02  0.66681662390E+01  0.43400729151E+02  0.00000000000E+00 0. -1.
         11    1    3    3    0    0  0.15362960377E+02 -0.86193171734E+01 -0.11759625749E+01  0.17654916265E+02  0.51100000000E-03 0.  1.
        -11    1    3    3    0    0  0.19853613663E+02 -0.84416964992E+01  0.20845890524E+01  0.21674264163E+02  0.51100000000E-03 0. -1.
         12    1    3    3    0    0  0.34698028475E+01 -0.14463657526E+01 -0.75767927166E+01  0.84580904205E+01  0.00000000000E+00 0. -1.
</event>
<event>
 7    1  0.2414091E-009  0.4778727E+02  0.7816164E-02  0.1312668E+00
        -11   -1    0    0    0    0  0.00000000000E+00  0.00000000000E+00  0.45593999997E+02  0.45594000000E+02  0.51100000000E-03 0.  1.
         11   -1    0    0    0    0 -0.00000000000E+00 -0.00000000000E+00 -0.45593999997E+02  0.45594000000E+02  0.51100000000E-03 0. -1.
    9900012    2    1    2    0    0 -0.15925822248E+02  0.31963198841E+02  0.24664661643E+02  0.47787269264E+02  0.19999991883E+02 0.  0.
         12    1    1    2    0    0  0.15925822248E+02 -0.31963198841E+02 -0.24664661643E+02  0.43400730736E+02  0.00000000000E+00 0. -1.
         11    1    3    3    0    0 -0.43863196228E+01  0.49502411796E+01  0.87297733851E+01  0.10952334508E+02  0.51100000000E-03 0.  1.
        -11    1    3    3    0    0 -0.15351678883E+02  0.19896547586E+02  0.11757162831E+02  0.27744864903E+02  0.51100000000E-03 0. -1.
         12    1    3    3    0    0  0.38121762582E+01  0.71164100753E+01  0.41777254271E+01  0.90900698527E+01  0.00000000000E+00 0. -1.
</event>
<event>
 7    1  0.2414091E-009  0.4778729E+02  0.7816164E-02  0.1312668E+00
        -11   -1    0    0    0    0  0.00000000000E+00  0.00000000000E+00  0.45593999997E+02  0.45594000000E+02  0.51100000000E-03 0.  1.
         11   -1    0    0    0    0 -0.00000000000E+00 -0.00000000000E+00 -0.45593999997E+02  0.45594000000E+02  0.51100000000E-03 0. -1.
    9900012    2    1    2    0    0  0.30246100206E+02 -0.31070912810E+02  0.18422154693E+01  0.47787286200E+02  0.20000069099E+02 0.  0.
         12    1    1    2    0    0 -0.30246100206E+02  0.31070912810E+02 -0.18422154693E+01  0.43400713800E+02  0.00000000000E+00 0. -1.
         11    1    3    3    0    0  0.14555997843E+02 -0.22902134172E+02 -0.12906000412E+01  0.27167084341E+02  0.51100000000E-03 0. -1.
        -11    1    3    3    0    0  0.27779209996E+00 -0.15893819178E+01 -0.24701598200E+01  0.29504225339E+01  0.51100000000E-03 0.  1.
        -12    1    3    3    0    0  0.15412310263E+02 -0.65793967201E+01  0.56029753305E+01  0.17669779325E+02  0.00000000000E+00 0.  1.
</event>
<event>
 7    1  0.2414091E-009  0.4778727E+02  0.7816164E-02  0.1312668E+00
        -11   -1    0    0    0    0  0.00000000000E+00  0.00000000000E+00  0.45593999997E+02  0.45594000000E+02  0.51100000000E-03 0. -1.
         11   -1    0    0    0    0 -0.00000000000E+00 -0.00000000000E+00 -0.45593999997E+02  0.45594000000E+02  0.51100000000E-03 0.  1.
    9900012    2    1    2    0    0 -0.37545104202E+02  0.78475469309E+00 -0.21757121386E+02  0.47787273964E+02  0.20000013312E+02 0.  0.
         12    1    1    2    0    0  0.37545104202E+02 -0.78475469309E+00  0.21757121386E+02  0.43400726036E+02  0.00000000000E+00 0. -1.
         11    1    3    3    0    0  0.34759053513E+00  0.29300086600E+01 -0.22330590716E+01  0.37003139064E+01  0.51100000000E-03 0. -1.
        -11    1    3    3    0    0 -0.76307109459E+01  0.17802406602E+01 -0.87004765806E+01  0.11708770189E+02  0.51100000000E-03 0.  1.
         12    1    3    3    0    0 -0.30261983791E+02 -0.39254946271E+01 -0.10823585734E+02  0.32378189869E+02  0.00000000000E+00 0. -1.
</event>
<event>
 7    1  0.2414091E-009  0.4778728E+02  0.7816164E-02  0.1312668E+00
        -11   -1    0    0    0    0  0.00000000000E+00  0.00000000000E+00  0.45593999997E+02  0.45594000000E+02  0.51100000000E-03 0.  1.
         11   -1    0    0    0    0 -0.00000000000E+00 -0.00000000000E+00 -0.45593999997E+02  0.45594000000E+02  0.51100000000E-03 0. -1.
    9900012    2    1    2    0    0  0.13723954342E+02  0.33934229591E+02  0.23318320391E+02  0.47787275046E+02  0.20000018244E+02 0.  0.
         12    1    1    2    0    0 -0.13723954342E+02 -0.33934229591E+02 -0.23318320391E+02  0.43400724954E+02  0.00000000000E+00 0. -1.
         11    1    3    3    0    0  0.71012719825E+01  0.61076678140E+01  0.12545676314E+02  0.15656489527E+02  0.51100000000E-03 0. -1.
        -11    1    3    3    0    0  0.68468421274E+01  0.18159060772E+02  0.11280641651E+02  0.22447351994E+02  0.51100000000E-03 0.  1.
         12    1    3    3    0    0 -0.22415976767E+00  0.96675010053E+01 -0.50799757371E+00  0.96834335245E+01  0.00000000000E+00 0. -1.
</event>
<event>
 7    1  0.2414091E-009  0.4778727E+02  0.7816164E-02  0.1312668E+00
        -11   -1    0    0    0    0  0.00000000000E+00  0.00000000000E+00  0.45593999997E+02  0.45594000000E+02  0.51100000000E-03 0.  1.
         11   -1    0    0    0    0 -0.00000000000E+00 -0.00000000000E+00 -0.45593999997E+02  0.45594000000E+02  0.51100000000E-03 0. -1.
    9900012    2    1    2    0    0  0.19076617394E+02 -0.25550528929E+02  0.29442768727E+02  0.47787268554E+02  0.19999988645E+02 0.  0.
         12    1    1    2    0    0 -0.19076617394E+02  0.25550528929E+02 -0.29442768727E+02  0.43400731446E+02  0.00000000000E+00 0. -1.
         11    1    3    3    0    0  0.10282538036E+00  0.73189605847E+00  0.10209628392E+01  0.12604008408E+01  0.51100000000E-03 0. -1.
        -11    1    3    3    0    0  0.47000478385E+01 -0.15504737598E+02  0.22419581813E+02  0.27660892730E+02  0.51100000000E-03 0.  1.
        -12    1    3    3    0    0  0.14273744175E+02 -0.10777687389E+02  0.60022240752E+01  0.18865974984E+02  0.00000000000E+00 0.  1.
</event>
<event>
 7    1  0.2414091E-009  0.4778727E+02  0.7816164E-02  0.1312668E+00
        -11   -1    0    0    0    0  0.00000000000E+00  0.00000000000E+00  0.45593999997E+02  0.45594000000E+02  0.51100000000E-03 0. -1.
         11   -1    0    0    0    0 -0.00000000000E+00 -0.00000000000E+00 -0.45593999997E+02  0.45594000000E+02  0.51100000000E-03 0.  1.
    9900012    2    1    2    0    0 -0.54700308788E+01  0.16929173723E+02 -0.39586678239E+02  0.47787271265E+02  0.20000001004E+02 0.  0.
         12    1    1    2    0    0  0.54700308788E+01 -0.16929173723E+02  0.39586678239E+02  0.43400728735E+02  0.00000000000E+00 0. -1.
         11    1    3    3    0    0 -0.68695433678E+00  0.12806934817E+01  0.41557444108E+00  0.15115503406E+01  0.51100000000E-03 0. -1.
        -11    1    3    3    0    0  0.21813592536E+01  0.27033270431E+01 -0.25115366536E+02  0.25354446193E+02  0.51100000000E-03 0.  1.
         12    1    3    3    0    0 -0.69644357956E+01  0.12945153199E+02 -0.14886886144E+02  0.20921274731E+02  0.00000000000E+00 0. -1.
</event>
<event>
 7    1  0.2414091E-009  0.4778726E+02  0.7816164E-02  0.1312668E+00
        -11   -1    0    0    0    0  0.00000000000E+00  0.00000000000E+00  0.45593999997E+02  0.45594000000E+02  0.51100000000E-03 0.  1.
         11   -1    0    0    0    0 -0.00000000000E+00 -0.00000000000E+00 -0.45593999997E+02  0.45594000000E+02  0.51100000000E-03 0. -1.
    9900012    2    1    2    0    0 -0.10469183003E+01  0.37057955161E+02 -0.22566252649E+02  0.47787264554E+02  0.19999970409E+02 0.  0.
         12    1    1    2    0    0  0.10469183003E+01 -0.37057955161E+02  0.22566252649E+02  0.43400735446E+02  0.00000000000E+00 0. -1.
         11    1    3    3    0    0  0.48911275531E+01  0.20678528198E+02 -0.14268655530E+02  0.25595296210E+02  0.51100000000E-03 0.  1.
        -11    1    3    3    0    0  0.18399841392E+01  0.55940712587E+01 -0.65043751956E+01  0.87741707201E+01  0.51100000000E-03 0. -1.
        -12    1    3    3    0    0 -0.77780299925E+01  0.10785355704E+02 -0.17932219235E+01  0.13417797624E+02  0.00000000000E+00 0.  1.
</event>
<event>
 7    1  0.2414091E-009  0.4778727E+02  0.7816164E-02  0.1312668E+00
        -11   -1    0    0    0    0  0.00000000000E+00  0.00000000000E+00  0.45593999997E+02  0.45594000000E+02  0.51100000000E-03 0.  1.
         11   -1    0    0    0    0 -0.00000000000E+00 -0.00000000000E+00 -0.45593999997E+02  0.45594000000E+02  0.51100000000E-03 0. -1.
    9900012    2    1    2    0    0  0.14383803739E+01 -0.27072005130E+02  0.33891900429E+02  0.47787270576E+02  0.19999997864E+02 0.  0.
         12    1    1    2    0    0 -0.14383803739E+01  0.27072005130E+02 -0.33891900429E+02  0.43400729424E+02  0.00000000000E+00 0. -1.
         11    1    3    3    0    0  0.13844611545E+01  0.54023643853E-01 -0.65811794508E+00  0.15338744189E+01  0.51100000000E-03 0. -1.
        -11    1    3    3    0    0 -0.59729039800E+01 -0.10265737727E+02  0.83450922298E+01  0.14515561223E+02  0.51100000000E-03 0.  1.
        -12    1    3    3    0    0  0.60268231994E+01 -0.16860291046E+02  0.26204926144E+02  0.31737834934E+02  0.00000000000E+00 0.  1.
</event>
<event>
 7    1  0.2414091E-009  0.4778727E+02  0.7816164E-02  0.1312668E+00
        -11   -1    0    0    0    0  0.00000000000E+00  0.00000000000E+00  0.45593999997E+02  0.45594000000E+02  0.51100000000E-03 0.  1.
         11   -1    0    0    0    0 -0.00000000000E+00 -0.00000000000E+00 -0.45593999997E+02  0.45594000000E+02  0.51100000000E-03 0. -1.
    9900012    2    1    2    0    0  0.37080974369E+02 -0.63950486700E+01  0.21627022110E+02  0.47787269672E+02  0.19999993744E+02 0.  0.
         12    1    1    2    0    0 -0.37080974369E+02  0.63950486700E+01 -0.21627022110E+02  0.43400730328E+02  0.00000000000E+00 0. -1.
         11    1    3    3    0    0  0.41819381240E+00 -0.15632698304E+01 -0.43502714440E-01  0.16188240716E+01  0.51100000000E-03 0. -1.
        -11    1    3    3    0    0  0.74056559271E+01 -0.84248430818E+01  0.47593041820E+01  0.12184937309E+02  0.51100000000E-03 0.  1.
        -12    1    3    3    0    0  0.29257124629E+02  0.35930642422E+01  0.16911220642E+02  0.33983508292E+02  0.00000000000E+00 0.  1.
</event>
<event>
 7    1  0.2414091E-009  0.4778728E+02  0.7816164E-02  0.1312668E+00
        -11   -1    0    0    0    0  0.00000000000E+00  0.00000000000E+00  0.45593999997E+02  0.45594000000E+02  0.51100000000E-03 0.  1.
         11   -1    0    0    0    0 -0.00000000000E+00 -0.00000000000E+00 -0.45593999997E+02  0.45594000000E+02  0.51100000000E-03 0. -1.
    9900012    2    1    2    0    0  0.59471862552E+01 -0.13273863076E+02  0.40890811024E+02  0.47787275450E+02  0.20000020085E+02 0.  0.
         12    1    1    2    0    0 -0.59471862552E+01  0.13273863076E+02 -0.40890811024E+02  0.43400724550E+02  0.00000000000E+00 0. -1.
         11    1    3    3    0    0  0.21679337953E+00 -0.31272155217E+01  0.30432237939E+01  0.43689458236E+01  0.51100000000E-03 0.  1.
        -11    1    3    3    0    0  0.93072221743E+01 -0.11737077897E+02  0.19135861416E+02  0.24301534407E+02  0.51100000000E-03 0. -1.
         12    1    3    3    0    0 -0.35768292986E+01  0.15904303422E+01  0.18711725814E+02  0.19116795219E+02  0.00000000000E+00 0. -1.
</event>
<event>
 7    1  0.2414091E-009  0.4778727E+02  0.7816164E-02  0.1312668E+00
        -11   -1    0    0    0    0  0.00000000000E+00  0.00000000000E+00  0.45593999997E+02  0.45594000000E+02  0.51100000000E-03 0. -1.
         11   -1    0    0    0    0 -0.00000000000E+00 -0.00000000000E+00 -0.45593999997E+02  0.45594000000E+02  0.51100000000E-03 0.  1.
    9900012    2    1    2    0    0 -0.33760062848E+02  0.13294415234E+02 -0.23814700186E+02  0.47787271148E+02  0.20000000474E+02 0.  0.
         12    1    1    2    0    0  0.33760062848E+02 -0.13294415234E+02  0.23814700186E+02  0.43400728852E+02  0.00000000000E+00 0. -1.
         11    1    3    3    0    0 -0.16514300258E+02  0.36729868864E+00 -0.31383858201E+01  0.16813877815E+02  0.51100000000E-03 0. -1.
        -11    1    3    3    0    0 -0.11289973543E+02  0.33584385038E+01 -0.11064625894E+02  0.16160710325E+02  0.51100000000E-03 0.  1.
         12    1    3    3    0    0 -0.59557890465E+01  0.95686780417E+01 -0.96116884723E+01  0.14812683009E+02  0.00000000000E+00 0. -1.
</event>
<event>
 7    1  0.2414091E-009  0.4778727E+02  0.7816164E-02  0.1312668E+00
        -11   -1    0    0    0    0  0.00000000000E+00  0.00000000000E+00  0.45593999997E+02  0.45594000000E+02  0.51100000000E-03 0.  1.
         11   -1    0    0    0    0 -0.00000000000E+00 -0.00000000000E+00 -0.45593999997E+02  0.45594000000E+02  0.51100000000E-03 0. -1.
    9900012    2    1    2    0    0  0.33902328435E+02 -0.26625746400E+02 -0.50324060514E+01  0.47787270106E+02  0.19999995720E+02 0.  0.
         12    1    1    2    0    0 -0.33902328435E+02  0.26625746400E+02  0.50324060514E+01  0.43400729894E+02  0.00000000000E+00 0. -1.
         11    1    3    3    0    0  0.27183837874E+01  0.14099377165E+01 -0.39744952084E+01  0.50173844982E+01  0.51100000000E-03 0. -1.
        -11    1    3    3    0    0  0.37205651922E+01 -0.53210975942E+01 -0.28374920302E+01  0.70857636313E+01  0.51100000000E-03 0.  1.
        -12    1    3    3    0    0  0.27463379456E+02 -0.22714586523E+02  0.17795811872E+01  0.35684121976E+02  0.00000000000E+00 0.  1.
</event>
<event>
 7    1  0.2414091E-009  0.4778728E+02  0.7816164E-02  0.1312668E+00
        -11   -1    0    0    0    0  0.00000000000E+00  0.00000000000E+00  0.45593999997E+02  0.45594000000E+02  0.51100000000E-03 0.  1.
         11   -1    0    0    0    0 -0.00000000000E+00 -0.00000000000E+00 -0.45593999997E+02  0.45594000000E+02  0.51100000000E-03 0. -1.
    9900012    2    1    2    0    0 -0.26493942252E+01 -0.39023180312E+02  0.18809437210E+02  0.47787276278E+02  0.20000023861E+02 0.  0.
         12    1    1    2    0    0  0.26493942252E+01  0.39023180312E+02 -0.18809437210E+02  0.43400723722E+02  0.00000000000E+00 0. -1.
         11    1    3    3    0    0 -0.28853140243E+01 -0.16164291706E+01 -0.38457678726E+00  0.33295314759E+01  0.51100000000E-03 0. -1.
        -11    1    3    3    0    0 -0.15652427971E+01 -0.14143844043E+02  0.15136085036E+02  0.20774970032E+02  0.51100000000E-03 0.  1.
        -12    1    3    3    0    0  0.18011625962E+01 -0.23262907098E+02  0.40579289612E+01  0.23682774770E+02  0.00000000000E+00 0.  1.
</event>
<event>
 7    1  0.2414091E-009  0.4778727E+02  0.7816164E-02  0.1312668E+00
        -11   -1    0    0    0    0  0.00000000000E+00  0.00000000000E+00  0.45593999997E+02  0.45594000000E+02  0.51100000000E-03 0.  1.
         11   -1    0    0    0    0 -0.00000000000E+00 -0.00000000000E+00 -0.45593999997E+02  0.45594000000E+02  0.51100000000E-03 0. -1.
    9900012    2    1    2    0    0  0.19840713040E+02 -0.16841834594E+02  0.34732145104E+02  0.47787272011E+02  0.20000004407E+02 0.  0.
         12    1    1    2    0    0 -0.19840713040E+02  0.16841834594E+02 -0.34732145104E+02  0.43400727989E+02  0.00000000000E+00 0. -1.
         11    1    3    3    0    0 -0.36658646677E+00  0.15876606976E+01  0.11957068690E+01  0.20210807272E+01  0.51100000000E-03 0. -1.
        -11    1    3    3    0    0  0.63530527872E+01 -0.41178347890E+01  0.20771105718E+02  0.22107841959E+02  0.51100000000E-03 0.  1.
         12    1    3    3    0    0  0.13854246720E+02 -0.14311660502E+02  0.12765332518E+02  0.23658349325E+02  0.00000000000E+00 0. -1.
</event>
<event>
 7    1  0.2414091E-009  0.4778728E+02  0.7816164E-02  0.1312668E+00
        -11   -1    0    0    0    0  0.00000000000E+00  0.00000000000E+00  0.45593999997E+02  0.45594000000E+02  0.51100000000E-03 0.  1.
         11   -1    0    0    0    0 -0.00000000000E+00 -0.00000000000E+00 -0.45593999997E+02  0.45594000000E+02  0.51100000000E-03 0. -1.
    9900012    2    1    2    0    0  0.36668409948E+02  0.22969682398E+02  0.33828959106E+01  0.47787279012E+02  0.20000036326E+02 0.  0.
         12    1    1    2    0    0 -0.36668409948E+02 -0.22969682398E+02 -0.33828959106E+01  0.43400720988E+02  0.00000000000E+00 0. -1.
         11    1    3    3    0    0  0.64166029160E-01  0.10430443142E+00  0.88872188741E+00  0.89711958400E+00  0.51100000000E-03 0. -1.
        -11    1    3    3    0    0  0.94551630799E+01  0.15794921361E+02  0.38332933925E+01  0.18803557859E+02  0.51100000000E-03 0.  1.
         12    1    3    3    0    0  0.27149080839E+02  0.70704566059E+01 -0.13391193693E+01  0.28086601569E+02  0.00000000000E+00 0. -1.
</event>
<event>
 7    1  0.2414091E-009  0.4778727E+02  0.7816164E-02  0.1312668E+00
        -11   -1    0    0    0    0  0.00000000000E+00  0.00000000000E+00  0.45593999997E+02  0.45594000000E+02  0.51100000000E-03 0.  1.
         11   -1    0    0    0    0 -0.00000000000E+00 -0.00000000000E+00 -0.45593999997E+02  0.45594000000E+02  0.51100000000E-03 0. -1.
    9900012    2    1    2    0    0 -0.13728401928E+02 -0.30949502845E+02  0.27152951760E+02  0.47787268035E+02  0.19999986277E+02 0.  0.
         12    1    1    2    0    0  0.13728401928E+02  0.30949502845E+02 -0.27152951760E+02  0.43400731965E+02  0.00000000000E+00 0. -1.
         11    1    3    3    0    0 -0.65192648780E+01 -0.28655529661E+01  0.57453333434E+01  0.91499215209E+01  0.51100000000E-03 0. -1.
        -11    1    3    3    0    0 -0.47588205963E+01 -0.87285373432E+01  0.37405030400E+00  0.99485502215E+01  0.51100000000E-03 0.  1.
         12    1    3    3    0    0 -0.24503164535E+01 -0.19355412536E+02  0.21033568113E+02  0.28688796292E+02  0.00000000000E+00 0. -1.
</event>
<event>
 7    1  0.2414091E-009  0.4778727E+02  0.7816164E-02  0.1312668E+00
        -11   -1    0    0    0    0  0.00000000000E+00  0.00000000000E+00  0.45593999997E+02  0.45594000000E+02  0.51100000000E-03 0. -1.
         11   -1    0    0    0    0 -0.00000000000E+00 -0.00000000000E+00 -0.45593999997E+02  0.45594000000E+02  0.51100000000E-03 0.  1.
    9900012    2    1    2    0    0  0.36209252360E+02 -0.20407995988E+02 -0.12491090910E+02  0.47787267185E+02  0.19999982404E+02 0.  0.
         12    1    1    2    0    0 -0.36209252360E+02  0.20407995988E+02  0.12491090910E+02  0.43400732815E+02  0.00000000000E+00 0. -1.
         11    1    3    3    0    0  0.50519317094E+01 -0.44396313256E+01  0.14073553553E+01  0.68711709090E+01  0.51100000000E-03 0. -1.
        -11    1    3    3    0    0  0.20449466727E+02 -0.18313146554E+02 -0.11041855790E+02  0.29588420128E+02  0.51100000000E-03 0.  1.
         12    1    3    3    0    0  0.10707853924E+02  0.23447818912E+01 -0.28565904756E+01  0.11327676149E+02  0.00000000000E+00 0. -1.
</event>
<event>
 7    1  0.2414091E-009  0.4778727E+02  0.7816164E-02  0.1312668E+00
        -11   -1    0    0    0    0  0.00000000000E+00  0.00000000000E+00  0.45593999997E+02  0.45594000000E+02  0.51100000000E-03 0.  1.
         11   -1    0    0    0    0 -0.00000000000E+00 -0.00000000000E+00 -0.45593999997E+02  0.45594000000E+02  0.51100000000E-03 0. -1.
    9900012    2    1    2    0    0 -0.18342220056E+02  0.39198453306E+01  0.39138487718E+02  0.47787269075E+02  0.19999991020E+02 0.  0.
         12    1    1    2    0    0  0.18342220056E+02 -0.39198453306E+01 -0.39138487718E+02  0.43400730925E+02  0.00000000000E+00 0. -1.
         11    1    3    3    0    0  0.24105959888E+00  0.51676029602E+01  0.33907758825E+01  0.61854338110E+01  0.51100000000E-03 0. -1.
        -11    1    3    3    0    0 -0.16853852856E+01 -0.14381150295E+01  0.13411331364E+02  0.13593105150E+02  0.51100000000E-03 0.  1.
         12    1    3    3    0    0 -0.16897894369E+02  0.19035739995E+00  0.22336380471E+02  0.28008730114E+02  0.00000000000E+00 0. -1.
</event>
<event>
 7    1  0.2414091E-009  0.4778727E+02  0.7816164E-02  0.1312668E+00
        -11   -1    0    0    0    0  0.00000000000E+00  0.00000000000E+00  0.45593999997E+02  0.45594000000E+02  0.51100000000E-03 0.  1.
         11   -1    0    0    0    0 -0.00000000000E+00 -0.00000000000E+00 -0.45593999997E+02  0.45594000000E+02  0.51100000000E-03 0. -1.
    9900012    2    1    2    0    0 -0.10644001912E+02  0.57601922085E+01  0.41679112306E+02  0.47787274274E+02  0.20000014724E+02 0.  0.
         12    1    1    2    0    0  0.10644001912E+02 -0.57601922085E+01 -0.41679112306E+02  0.43400725726E+02  0.00000000000E+00 0. -1.
         11    1    3    3    0    0 -0.81168092235E+01  0.65011643927E+00  0.13175448232E+02  0.15488630660E+02  0.51100000000E-03 0. -1.
        -11    1    3    3    0    0 -0.39269154551E+01  0.13706446540E+00  0.26448248450E+02  0.26738535823E+02  0.51100000000E-03 0.  1.
         12    1    3    3    0    0  0.13997227668E+01  0.49730113038E+01  0.20554156238E+01  0.55601077902E+01  0.00000000000E+00 0. -1.
</event>
<event>
 7    1  0.2414091E-009  0.4778728E+02  0.7816164E-02  0.1312668E+00
        -11   -1    0    0    0    0  0.00000000000E+00  0.00000000000E+00  0.45593999997E+02  0.45594000000E+02  0.51100000000E-03 0.  1.
         11   -1    0    0    0    0 -0.00000000000E+00 -0.00000000000E+00 -0.45593999997E+02  0.45594000000E+02  0.51100000000E-03 0. -1.
    9900012    2    1    2    0    0  0.16965598192E+02  0.30375237999E+02  0.25944862433E+02  0.47787280050E+02  0.20000041058E+02 0.  0.
         12    1    1    2    0    0 -0.16965598192E+02 -0.30375237999E+02 -0.25944862433E+02  0.43400719950E+02  0.00000000000E+00 0. -1.
         11    1    3    3    0    0  0.51757429794E+01  0.18569244416E+02  0.67987695311E+01  0.20440851767E+02  0.51100000000E-03 0. -1.
        -11    1    3    3    0    0  0.16024535759E+01 -0.18668334750E+01  0.20727645396E+01  0.32170293415E+01  0.51100000000E-03 0.  1.
        -12    1    3    3    0    0  0.10187401637E+02  0.13672827058E+02  0.17073328363E+02  0.24129398941E+02  0.00000000000E+00 0.  1.
</event>
<event>
 7    1  0.2414091E-009  0.4778726E+02  0.7816164E-02  0.1312668E+00
        -11   -1    0    0    0    0  0.00000000000E+00  0.00000000000E+00  0.45593999997E+02  0.45594000000E+02  0.51100000000E-03 0.  1.
         11   -1    0    0    0    0 -0.00000000000E+00 -0.00000000000E+00 -0.45593999997E+02  0.45594000000E+02  0.51100000000E-03 0. -1.
    9900012    2    1    2    0    0 -0.57648948233E+01  0.34784646559E+02  0.25306494066E+02  0.47787259333E+02  0.19999946601E+02 0.  0.
         12    1    1    2    0    0  0.57648948233E+01 -0.34784646559E+02 -0.25306494066E+02  0.43400740667E+02  0.00000000000E+00 0. -1.
         11    1    3    3    0    0 -0.56777245434E+01  0.82220832248E+01  0.27630340414E+01  0.10366945834E+02  0.51100000000E-03 0. -1.
        -11    1    3    3    0    0 -0.43735893914E+01  0.62538907407E+01  0.11789074607E+02  0.14043564858E+02  0.51100000000E-03 0.  1.
         12    1    3    3    0    0  0.42864191116E+01  0.20308672594E+02  0.10754385417E+02  0.23376748641E+02  0.00000000000E+00 0. -1.
</event>
<event>
 7    1  0.2414091E-009  0.4778727E+02  0.7816164E-02  0.1312668E+00
        -11   -1    0    0    0    0  0.00000000000E+00  0.00000000000E+00  0.45593999997E+02  0.45594000000E+02  0.51100000000E-03 0.  1.
         11   -1    0    0    0    0 -0.00000000000E+00 -0.00000000000E+00 -0.45593999997E+02  0.45594000000E+02  0.51100000000E-03 0. -1.
    9900012    2    1    2    0    0  0.22707008109E+01  0.37922119817E+01  0.43175068784E+02  0.47787268227E+02  0.19999987156E+02 0.  0.
         12    1    1    2    0    0 -0.22707008109E+01 -0.37922119817E+01 -0.43175068784E+02  0.43400731773E+02  0.00000000000E+00 0. -1.
         11    1    3    3    0    0 -0.14688192361E+00 -0.16521388603E+01  0.10767279150E+02  0.10894284633E+02  0.51100000000E-03 0. -1.
        -11    1    3    3    0    0 -0.20111822445E+01 -0.44143396264E+01  0.19319268437E+02  0.19918970394E+02  0.51100000000E-03 0.  1.
         12    1    3    3    0    0  0.44287649790E+01  0.98586904684E+01  0.13088521197E+02  0.16974013200E+02  0.00000000000E+00 0. -1.
</event>
<event>
 7    1  0.2414091E-009  0.4778727E+02  0.7816164E-02  0.1312668E+00
        -11   -1    0    0    0    0  0.00000000000E+00  0.00000000000E+00  0.45593999997E+02  0.45594000000E+02  0.51100000000E-03 0. -1.
         11   -1    0    0    0    0 -0.00000000000E+00 -0.00000000000E+00 -0.45593999997E+02  0.45594000000E+02  0.51100000000E-03 0.  1.
    9900012    2    1    2    0    0  0.42105545426E+02 -0.99304395388E+01 -0.34831733891E+01  0.47787273256E+02  0.20000010081E+02 0.  0.
         12    1    1    2    0    0 -0.42105545426E+02  0.99304395388E+01  0.34831733891E+01  0.43400726744E+02  0.00000000000E+00 0. -1.
         11    1    3    3    0    0  0.90661345945E+01 -0.96150587160E+00 -0.35747289464E+01  0.97927512645E+01  0.51100000000E-03 0.  1.
        -11    1    3    3    0    0  0.25336557480E+02 -0.12752840011E+02 -0.37128382371E+01  0.28607013849E+02  0.51100000000E-03 0. -1.
         12    1    3    3    0    0  0.77028533516E+01  0.37839063442E+01  0.38043937944E+01  0.93875081423E+01  0.00000000000E+00 0. -1.
</event>
<event>
 7    1  0.2414091E-009  0.4778727E+02  0.7816164E-02  0.1312668E+00
        -11   -1    0    0    0    0  0.00000000000E+00  0.00000000000E+00  0.45593999997E+02  0.45594000000E+02  0.51100000000E-03 0.  1.
         11   -1    0    0    0    0 -0.00000000000E+00 -0.00000000000E+00 -0.45593999997E+02  0.45594000000E+02  0.51100000000E-03 0. -1.
    9900012    2    1    2    0    0  0.27966911267E+02  0.61160544869E+01  0.32620070853E+02  0.47787271080E+02  0.20000000163E+02 0.  0.
         12    1    1    2    0    0 -0.27966911267E+02 -0.61160544869E+01 -0.32620070853E+02  0.43400728920E+02  0.00000000000E+00 0. -1.
         11    1    3    3    0    0  0.50266158225E+01  0.58776460901E+01  0.46394269422E+01  0.90187511774E+01  0.51100000000E-03 0. -1.
        -11    1    3    3    0    0  0.17327503659E+02  0.58599515767E+01  0.23022278795E+02  0.29404195903E+02  0.51100000000E-03 0.  1.
         12    1    3    3    0    0  0.56127917856E+01 -0.56215431798E+01  0.49583651162E+01  0.93643239999E+01  0.00000000000E+00 0. -1.
</event>
<event>
 7    1  0.2414091E-009  0.4778728E+02  0.7816164E-02  0.1312668E+00
        -11   -1    0    0    0    0  0.00000000000E+00  0.00000000000E+00  0.45593999997E+02  0.45594000000E+02  0.51100000000E-03 0.  1.
         11   -1    0    0    0    0 -0.00000000000E+00 -0.00000000000E+00 -0.45593999997E+02  0.45594000000E+02  0.51100000000E-03 0. -1.
    9900012    2    1    2    0    0  0.22346647496E+02  0.36326695371E+02  0.80387008882E+01  0.47787283844E+02  0.20000058359E+02 0.  0.
         12    1    1    2    0    0 -0.22346647496E+02 -0.36326695371E+02 -0.80387008882E+01  0.43400716156E+02  0.00000000000E+00 0. -1.
         11    1    3    3    0    0  0.12192764811E+02  0.20526587440E+02  0.22101203610E+01  0.23976841701E+02  0.51100000000E-03 0. -1.
        -11    1    3    3    0    0  0.96046861205E+01  0.16547442481E+02  0.85344468354E+01  0.20950050864E+02  0.51100000000E-03 0.  1.
         12    1    3    3    0    0  0.54919656478E+00 -0.74733455044E+00 -0.27058663081E+01  0.28603912800E+01  0.00000000000E+00 0. -1.
</event>
<event>
 7    1  0.2414091E-009  0.4778729E+02  0.7816164E-02  0.1312668E+00
        -11   -1    0    0    0    0  0.00000000000E+00  0.00000000000E+00  0.45593999997E+02  0.45594000000E+02  0.51100000000E-03 0. -1.
         11   -1    0    0    0    0 -0.00000000000E+00 -0.00000000000E+00 -0.45593999997E+02  0.45594000000E+02  0.51100000000E-03 0.  1.
    9900012    2    1    2    0    0  0.24896198188E+02 -0.48207658772E+01 -0.35221599963E+02  0.47787290653E+02  0.20000089403E+02 0.  0.
         12    1    1    2    0    0 -0.24896198188E+02  0.48207658772E+01  0.35221599963E+02  0.43400709347E+02  0.00000000000E+00 0. -1.
         11    1    3    3    0    0 -0.87568374276E+00 -0.22927791355E+00 -0.69634531738E+01  0.70220417789E+01  0.51100000000E-03 0. -1.
        -11    1    3    3    0    0  0.14714988444E+02 -0.53071356254E+01 -0.24494732985E+02  0.29063525556E+02  0.51100000000E-03 0.  1.
         12    1    3    3    0    0  0.11056893487E+02  0.71564766177E+00 -0.37634138037E+01  0.11701723318E+02  0.00000000000E+00 0. -1.
</event>
<event>
 7    1  0.2414091E-009  0.4778726E+02  0.7816164E-02  0.1312668E+00
        -11   -1    0    0    0    0  0.00000000000E+00  0.00000000000E+00  0.45593999997E+02  0.45594000000E+02  0.51100000000E-03 0.  1.
         11   -1    0    0    0    0 -0.00000000000E+00 -0.00000000000E+00 -0.45593999997E+02  0.45594000000E+02  0.51100000000E-03 0. -1.
    9900012    2    1    2    0    0 -0.32622718154E+02  0.14709586685E+02  0.24556272127E+02  0.47787260594E+02  0.19999952352E+02 0.  0.
         12    1    1    2    0    0  0.32622718154E+02 -0.14709586685E+02 -0.24556272127E+02  0.43400739406E+02  0.00000000000E+00 0. -1.
         11    1    3    3    0    0 -0.13182382535E+02 -0.18316977539E+01  0.63645332038E+01  0.14752545852E+02  0.51100000000E-03 0. -1.
        -11    1    3    3    0    0 -0.13230263622E+02  0.45865857682E+01  0.78630954161E+01  0.16059418243E+02  0.51100000000E-03 0.  1.
         12    1    3    3    0    0 -0.62100719975E+01  0.11954698671E+02  0.10328643507E+02  0.16975296499E+02  0.00000000000E+00 0. -1.
</event>
<event>
 7    1  0.2414091E-009  0.4778727E+02  0.7816164E-02  0.1312668E+00
        -11   -1    0    0    0    0  0.00000000000E+00  0.00000000000E+00  0.45593999997E+02  0.45594000000E+02  0.51100000000E-03 0. -1.
         11   -1    0    0    0    0 -0.00000000000E+00 -0.00000000000E+00 -0.45593999997E+02  0.45594000000E+02  0.51100000000E-03 0.  1.
    9900012    2    1    2    0    0  0.15861712688E+02  0.40313479149E+02  0.26177893537E+01  0.47787270149E+02  0.19999995920E+02 0.  0.
         12    1    1    2    0    0 -0.15861712688E+02 -0.40313479149E+02 -0.26177893537E+01  0.43400729851E+02  0.00000000000E+00 0. -1.
         11    1    3    3    0    0  0.45707835297E+01  0.80092913255E+01  0.32259487988E+01  0.97697264816E+01  0.51100000000E-03 0. -1.
        -11    1    3    3    0    0  0.18760266717E+01  0.24150312932E+02 -0.51424065329E+01  0.24762904434E+02  0.51100000000E-03 0.  1.
        -12    1    3    3    0    0  0.94149024864E+01  0.81538748907E+01  0.45342470878E+01  0.13254639234E+02  0.00000000000E+00 0.  1.
</event>
<event>
 7    1  0.2414091E-009  0.4778727E+02  0.7816164E-02  0.1312668E+00
        -11   -1    0    0    0    0  0.00000000000E+00  0.00000000000E+00  0.45593999997E+02  0.45594000000E+02  0.51100000000E-03 0. -1.
         11   -1    0    0    0    0 -0.00000000000E+00 -0.00000000000E+00 -0.45593999997E+02  0.45594000000E+02  0.51100000000E-03 0.  1.
    9900012    2    1    2    0    0 -0.29546387918E+02  0.30792150037E+02  0.79043027117E+01  0.47787267930E+02  0.19999985800E+02 0.  0.
         12    1    1    2    0    0  0.29546387918E+02 -0.30792150037E+02 -0.79043027117E+01  0.43400732070E+02  0.00000000000E+00 0. -1.
         11    1    3    3    0    0 -0.10129469757E-01  0.10136553790E+00  0.14161701119E+01  0.14198294353E+01  0.51100000000E-03 0. -1.
        -11    1    3    3    0    0 -0.17684364255E+02  0.28826521580E+02  0.60937678920E+01  0.34363339374E+02  0.51100000000E-03 0.  1.
        -12    1    3    3    0    0 -0.11851894193E+02  0.18642629184E+01  0.39436470775E+00  0.12004099121E+02  0.00000000000E+00 0.  1.
</event>
<event>
 7    1  0.2414091E-009  0.4778728E+02  0.7816164E-02  0.1312668E+00
        -11   -1    0    0    0    0  0.00000000000E+00  0.00000000000E+00  0.45593999997E+02  0.45594000000E+02  0.51100000000E-03 0.  1.
         11   -1    0    0    0    0 -0.00000000000E+00 -0.00000000000E+00 -0.45593999997E+02  0.45594000000E+02  0.51100000000E-03 0. -1.
    9900012    2    1    2    0    0 -0.37187865454E+02 -0.18581400165E+02  0.12466637589E+02  0.47787276251E+02  0.20000023741E+02 0.  0.
         12    1    1    2    0    0  0.37187865454E+02  0.18581400165E+02 -0.12466637589E+02  0.43400723749E+02  0.00000000000E+00 0. -1.
         11    1    3    3    0    0 -0.11714046028E+02 -0.10069612643E+01  0.66467681479E+00  0.11776019738E+02  0.51100000000E-03 0. -1.
        -11    1    3    3    0    0 -0.21035582280E+02 -0.13530560371E+02  0.27682085336E+01  0.25164156345E+02  0.51100000000E-03 0.  1.
         12    1    3    3    0    0 -0.44382371462E+01 -0.40438785303E+01  0.90337522403E+01  0.10847100169E+02  0.00000000000E+00 0. -1.
</event>
<event>
 7    1  0.2414091E-009  0.4778728E+02  0.7816164E-02  0.1312668E+00
        -11   -1    0    0    0    0  0.00000000000E+00  0.00000000000E+00  0.45593999997E+02  0.45594000000E+02  0.51100000000E-03 0. -1.
         11   -1    0    0    0    0 -0.00000000000E+00 -0.00000000000E+00 -0.45593999997E+02  0.45594000000E+02  0.51100000000E-03 0.  1.
    9900012    2    1    2    0    0  0.13466934202E+02  0.40375043738E+02 -0.84923262204E+01  0.47787284818E+02  0.20000062801E+02 0.  0.
         12    1    1    2    0    0 -0.13466934202E+02 -0.40375043738E+02  0.84923262204E+01  0.43400715182E+02  0.00000000000E+00 0. -1.
         11    1    3    3    0    0 -0.32833518986E+01  0.12083671321E+01  0.10233192179E-01  0.34986648590E+01  0.51100000000E-03 0. -1.
        -11    1    3    3    0    0  0.24574300790E+01  0.16382316595E+02 -0.34874487454E+01  0.16928719934E+02  0.51100000000E-03 0.  1.
         12    1    3    3    0    0  0.14292856022E+02  0.22784360011E+02 -0.50151106671E+01  0.27359900025E+02  0.00000000000E+00 0. -1.
</event>
<event>
 7    1  0.2414091E-009  0.4778727E+02  0.7816164E-02  0.1312668E+00
        -11   -1    0    0    0    0  0.00000000000E+00  0.00000000000E+00  0.45593999997E+02  0.45594000000E+02  0.51100000000E-03 0. -1.
         11   -1    0    0    0    0 -0.00000000000E+00 -0.00000000000E+00 -0.45593999997E+02  0.45594000000E+02  0.51100000000E-03 0.  1.
    9900012    2    1    2    0    0 -0.33216030252E+02  0.19624036534E+02  0.19880032072E+02  0.47787272463E+02  0.20000006466E+02 0.  0.
         12    1    1    2    0    0  0.33216030252E+02 -0.19624036534E+02 -0.19880032072E+02  0.43400727537E+02  0.00000000000E+00 0. -1.
         11    1    3    3    0    0 -0.13912895380E+02  0.77858625848E+01  0.16622198367E+02  0.23032277197E+02  0.51100000000E-03 0. -1.
        -11    1    3    3    0    0 -0.11593759181E+01 -0.10744733661E+01  0.18609657585E+01  0.24416878075E+01  0.51100000000E-03 0.  1.
        -12    1    3    3    0    0 -0.18143758954E+02  0.12912647315E+02  0.13968679463E+01  0.22313307458E+02  0.00000000000E+00 0.  1.
</event>
<event>
 7    1  0.2414091E-009  0.4778727E+02  0.7816164E-02  0.1312668E+00
        -11   -1    0    0    0    0  0.00000000000E+00  0.00000000000E+00  0.45593999997E+02  0.45594000000E+02  0.51100000000E-03 0.  1.
         11   -1    0    0    0    0 -0.00000000000E+00 -0.00000000000E+00 -0.45593999997E+02  0.45594000000E+02  0.51100000000E-03 0. -1.
    9900012    2    1    2    0    0 -0.14701289777E+01  0.12089863902E+02  0.41656897754E+02  0.47787271678E+02  0.20000002888E+02 0.  0.
         12    1    1    2    0    0  0.14701289777E+01 -0.12089863902E+02 -0.41656897754E+02  0.43400728322E+02  0.00000000000E+00 0. -1.
         11    1    3    3    0    0  0.44384686342E+01  0.93155784074E+01  0.25077224456E+02  0.27117285844E+02  0.51100000000E-03 0. -1.
        -11    1    3    3    0    0 -0.15393301329E+01  0.98196862941E+00  0.15773803935E+02  0.15879127510E+02  0.51100000000E-03 0.  1.
         12    1    3    3    0    0 -0.43692674790E+01  0.17923168650E+01  0.80586936415E+00  0.47908583239E+01  0.00000000000E+00 0. -1.
</event>
<event>
 7    1  0.2414091E-009  0.4778727E+02  0.7816164E-02  0.1312668E+00
        -11   -1    0    0    0    0  0.00000000000E+00  0.00000000000E+00  0.45593999997E+02  0.45594000000E+02  0.51100000000E-03 0.  1.
         11   -1    0    0    0    0 -0.00000000000E+00 -0.00000000000E+00 -0.45593999997E+02  0.45594000000E+02  0.51100000000E-03 0. -1.
    9900012    2    1    2    0    0  0.10313304922E+02  0.39680403303E+02  0.14238142392E+02  0.47787270012E+02  0.19999995292E+02 0.  0.
         12    1    1    2    0    0 -0.10313304922E+02 -0.39680403303E+02 -0.14238142392E+02  0.43400729988E+02  0.00000000000E+00 0. -1.
         11    1    3    3    0    0  0.87352496787E+01  0.13065405924E+02  0.67847555577E+01  0.17118479113E+02  0.51100000000E-03 0. -1.
        -11    1    3    3    0    0  0.46757288375E+01  0.23419888606E+01  0.64286476751E+00  0.52688354838E+01  0.51100000000E-03 0.  1.
        -12    1    3    3    0    0 -0.30976735945E+01  0.24273008519E+02  0.68105220670E+01  0.25399955415E+02  0.00000000000E+00 0.  1.
</event>
<event>
 7    1  0.2414091E-009  0.4778727E+02  0.7816164E-02  0.1312668E+00
        -11   -1    0    0    0    0  0.00000000000E+00  0.00000000000E+00  0.45593999997E+02  0.45594000000E+02  0.51100000000E-03 0.  1.
         11   -1    0    0    0    0 -0.00000000000E+00 -0.00000000000E+00 -0.45593999997E+02  0.45594000000E+02  0.51100000000E-03 0. -1.
    9900012    2    1    2    0    0  0.18409185382E+02 -0.26285077704E+02  0.29220197300E+02  0.47787270207E+02  0.19999996180E+02 0.  0.
         12    1    1    2    0    0 -0.18409185382E+02  0.26285077704E+02 -0.29220197300E+02  0.43400729793E+02  0.00000000000E+00 0. -1.
         11    1    3    3    0    0  0.33494700394E+01  0.11108974529E+01 -0.11749439891E+01  0.37193462241E+01  0.51100000000E-03 0. -1.
        -11    1    3    3    0    0  0.94884298380E+00 -0.54795850191E+00  0.30120332541E+01  0.32051374561E+01  0.51100000000E-03 0.  1.
        -12    1    3    3    0    0  0.14110872358E+02 -0.26848016655E+02  0.27383108035E+02  0.40862786526E+02  0.00000000000E+00 0.  1.
</event>
<event>
 7    1  0.2414091E-009  0.4778727E+02  0.7816164E-02  0.1312668E+00
        -11   -1    0    0    0    0  0.00000000000E+00  0.00000000000E+00  0.45593999997E+02  0.45594000000E+02  0.51100000000E-03 0.  1.
         11   -1    0    0    0    0 -0.00000000000E+00 -0.00000000000E+00 -0.45593999997E+02  0.45594000000E+02  0.51100000000E-03 0. -1.
    9900012    2    1    2    0    0 -0.23581266194E+02  0.36055509529E+02  0.52485386499E+01  0.47787273731E+02  0.20000012249E+02 0.  0.
         12    1    1    2    0    0  0.23581266194E+02 -0.36055509529E+02 -0.52485386499E+01  0.43400726269E+02  0.00000000000E+00 0. -1.
         11    1    3    3    0    0 -0.33593519559E+01  0.54594856235E+01 -0.27326240620E+01  0.69683902993E+01  0.51100000000E-03 0. -1.
        -11    1    3    3    0    0 -0.17896621946E+02  0.23426543936E+02 -0.48425845816E+00  0.29484344056E+02  0.51100000000E-03 0.  1.
        -12    1    3    3    0    0 -0.23252922915E+01  0.71694799696E+01  0.84654211701E+01  0.11334539376E+02  0.00000000000E+00 0.  1.
</event>
<event>
 7    1  0.2414091E-009  0.4778726E+02  0.7816164E-02  0.1312668E+00
        -11   -1    0    0    0    0  0.00000000000E+00  0.00000000000E+00  0.45593999997E+02  0.45594000000E+02  0.51100000000E-03 0.  1.
         11   -1    0    0    0    0 -0.00000000000E+00 -0.00000000000E+00 -0.45593999997E+02  0.45594000000E+02  0.51100000000E-03 0. -1.
    9900012    2    1    2    0    0  0.19604220516E+02 -0.34741055708E+02  0.17098464051E+02  0.47787263985E+02  0.19999967815E+02 0.  0.
         12    1    1    2    0    0 -0.19604220516E+02  0.34741055708E+02 -0.17098464051E+02  0.43400736015E+02  0.00000000000E+00 0. -1.
         11    1    3    3    0    0 -0.24185606874E+01 -0.15655283202E+01  0.35829950816E+01  0.45976264242E+01  0.51100000000E-03 0. -1.
        -11    1    3    3    0    0  0.64566480171E+01 -0.83482252234E+01  0.82978460543E+01  0.13425178487E+02  0.51100000000E-03 0.  1.
         12    1    3    3    0    0  0.15566133186E+02 -0.24827302164E+02  0.52176229149E+01  0.29764459074E+02  0.00000000000E+00 0. -1.
</event>
<event>
 7    1  0.2414091E-009  0.4778727E+02  0.7816164E-02  0.1312668E+00
        -11   -1    0    0    0    0  0.00000000000E+00  0.00000000000E+00  0.45593999997E+02  0.45594000000E+02  0.51100000000E-03 0. -1.
         11   -1    0    0    0    0 -0.00000000000E+00 -0.00000000000E+00 -0.45593999997E+02  0.45594000000E+02  0.51100000000E-03 0.  1.
    9900012    2    1    2    0    0  0.23974035180E+01 -0.13280883320E+02 -0.41249164887E+02  0.47787274093E+02  0.20000013898E+02 0.  0.
         12    1    1    2    0    0 -0.23974035180E+01  0.13280883320E+02  0.41249164887E+02  0.43400725907E+02  0.00000000000E+00 0. -1.
         11    1    3    3    0    0 -0.15204174599E+00 -0.27622252380E+01 -0.23247465282E+01  0.36135096014E+01  0.51100000000E-03 0. -1.
        -11    1    3    3    0    0  0.91027942126E+01 -0.10882300273E+02 -0.28852709245E+02  0.32152202922E+02  0.51100000000E-03 0.  1.
        -12    1    3    3    0    0 -0.65533489486E+01  0.36364219051E+00 -0.10071709114E+02  0.12021561569E+02  0.00000000000E+00 0.  1.
</event>
<event>
 7    1  0.2414091E-009  0.4778729E+02  0.7816164E-02  0.1312668E+00
        -11   -1    0    0    0    0  0.00000000000E+00  0.00000000000E+00  0.45593999997E+02  0.45594000000E+02  0.51100000000E-03 0.  1.
         11   -1    0    0    0    0 -0.00000000000E+00 -0.00000000000E+00 -0.45593999997E+02  0.45594000000E+02  0.51100000000E-03 0. -1.
    9900012    2    1    2    0    0 -0.42163631005E+01  0.42698930074E+02 -0.65303387705E+01  0.47787289502E+02  0.20000084155E+02 0.  0.
         12    1    1    2    0    0  0.42163631005E+01 -0.42698930074E+02  0.65303387705E+01  0.43400710498E+02  0.00000000000E+00 0. -1.
         11    1    3    3    0    0 -0.44105909307E+01  0.13186847396E+02 -0.96111967529E+01  0.16903294350E+02  0.51100000000E-03 0. -1.
        -11    1    3    3    0    0 -0.14007134562E+01  0.18958217495E+02 -0.19013919583E+01  0.19104745494E+02  0.51100000000E-03 0.  1.
         12    1    3    3    0    0  0.15949412865E+01  0.10553865184E+02  0.49822499406E+01  0.11779249657E+02  0.00000000000E+00 0. -1.
</event>
<event>
 7    1  0.2414091E-009  0.4778726E+02  0.7816164E-02  0.1312668E+00
        -11   -1    0    0    0    0  0.00000000000E+00  0.00000000000E+00  0.45593999997E+02  0.45594000000E+02  0.51100000000E-03 0.  1.
         11   -1    0    0    0    0 -0.00000000000E+00 -0.00000000000E+00 -0.45593999997E+02  0.45594000000E+02  0.51100000000E-03 0. -1.
    9900012    2    1    2    0    0 -0.36870578202E+02  0.72742175751E+01  0.21708760631E+02  0.47787261914E+02  0.19999958371E+02 0.  0.
         12    1    1    2    0    0  0.36870578202E+02 -0.72742175751E+01 -0.21708760631E+02  0.43400738086E+02  0.00000000000E+00 0. -1.
         11    1    3    3    0    0 -0.19681840551E+02  0.24434920735E+00  0.13930679246E+02  0.24114277483E+02  0.51100000000E-03 0. -1.
        -11    1    3    3    0    0 -0.19021170230E+02  0.75242782518E+01  0.69705283578E+01  0.21610366632E+02  0.51100000000E-03 0.  1.
         12    1    3    3    0    0  0.18324325795E+01 -0.49440988400E+00  0.80755302732E+00  0.20626177987E+01  0.00000000000E+00 0. -1.
</event>
<event>
 7    1  0.2414091E-009  0.4778727E+02  0.7816164E-02  0.1312668E+00
        -11   -1    0    0    0    0  0.00000000000E+00  0.00000000000E+00  0.45593999997E+02  0.45594000000E+02  0.51100000000E-03 0.  1.
         11   -1    0    0    0    0 -0.00000000000E+00 -0.00000000000E+00 -0.45593999997E+02  0.45594000000E+02  0.51100000000E-03 0. -1.
    9900012    2    1    2    0    0 -0.24661721601E+02  0.33175551941E+02  0.13221415067E+02  0.47787267572E+02  0.19999984170E+02 0.  0.
         12    1    1    2    0    0  0.24661721601E+02 -0.33175551941E+02 -0.13221415067E+02  0.43400732428E+02  0.00000000000E+00 0. -1.
         11    1    3    3    0    0 -0.11257870966E+02  0.13596813842E+02  0.46897655898E+01  0.18264909167E+02  0.51100000000E-03 0. -1.
        -11    1    3    3    0    0 -0.69927373539E+01  0.15209612255E+02 -0.15379750067E+01  0.16810593328E+02  0.51100000000E-03 0.  1.
         12    1    3    3    0    0 -0.64111132815E+01  0.43691258429E+01  0.10069624484E+02  0.12711765077E+02  0.00000000000E+00 0. -1.
</event>
<event>
 7    1  0.2414091E-009  0.4778727E+02  0.7816164E-02  0.1312668E+00
        -11   -1    0    0    0    0  0.00000000000E+00  0.00000000000E+00  0.45593999997E+02  0.45594000000E+02  0.51100000000E-03 0.  1.
         11   -1    0    0    0    0 -0.00000000000E+00 -0.00000000000E+00 -0.45593999997E+02  0.45594000000E+02  0.51100000000E-03 0. -1.
    9900012    2    1    2    0    0  0.34765610098E+02  0.24957336190E+02  0.72185165522E+01  0.47787271246E+02  0.20000000920E+02 0.  0.
         12    1    1    2    0    0 -0.34765610098E+02 -0.24957336190E+02 -0.72185165522E+01  0.43400728754E+02  0.00000000000E+00 0. -1.
         11    1    3    3    0    0  0.49452963768E+00 -0.46907265848E+00 -0.19801042070E+00  0.70978666464E+00  0.51100000000E-03 0. -1.
        -11    1    3    3    0    0  0.24928566370E+02  0.15484297884E+02 -0.35678066782E+01  0.29562241914E+02  0.51100000000E-03 0.  1.
        -12    1    3    3    0    0  0.93425140902E+01  0.99421109639E+01  0.10984333651E+02  0.17515242668E+02  0.00000000000E+00 0.  1.
</event>
<event>
 7    1  0.2414091E-009  0.4778728E+02  0.7816164E-02  0.1312668E+00
        -11   -1    0    0    0    0  0.00000000000E+00  0.00000000000E+00  0.45593999997E+02  0.45594000000E+02  0.51100000000E-03 0. -1.
         11   -1    0    0    0    0 -0.00000000000E+00 -0.00000000000E+00 -0.45593999997E+02  0.45594000000E+02  0.51100000000E-03 0.  1.
    9900012    2    1    2    0    0 -0.27873122845E+02  0.29069991861E+02 -0.16175518214E+02  0.47787276579E+02  0.20000025236E+02 0.  0.
         12    1    1    2    0    0  0.27873122845E+02 -0.29069991861E+02  0.16175518214E+02  0.43400723421E+02  0.00000000000E+00 0. -1.
         11    1    3    3    0    0 -0.73783339255E+01  0.49628875475E+01  0.27300863215E+01  0.93017974559E+01  0.51100000000E-03 0. -1.
        -11    1    3    3    0    0 -0.17130924269E+02  0.17999374847E+02 -0.91189289157E+01  0.26468867109E+02  0.51100000000E-03 0.  1.
         12    1    3    3    0    0 -0.33638646503E+01  0.61077294665E+01 -0.97866756200E+01  0.12016612015E+02  0.00000000000E+00 0. -1.
</event>
<event>
 7    1  0.2414091E-009  0.4778727E+02  0.7816164E-02  0.1312668E+00
        -11   -1    0    0    0    0  0.00000000000E+00  0.00000000000E+00  0.45593999997E+02  0.45594000000E+02  0.51100000000E-03 0. -1.
         11   -1    0    0    0    0 -0.00000000000E+00 -0.00000000000E+00 -0.45593999997E+02  0.45594000000E+02  0.51100000000E-03 0.  1.
    9900012    2    1    2    0    0 -0.41497751586E+02 -0.95217730371E+01 -0.84199596405E+01  0.47787271103E+02  0.20000000267E+02 0.  0.
         12    1    1    2    0    0  0.41497751586E+02  0.95217730371E+01  0.84199596405E+01  0.43400728897E+02  0.00000000000E+00 0. -1.
         11    1    3    3    0    0 -0.19001159659E+02 -0.33362064100E+01 -0.82274729136E+01  0.20972974334E+02  0.51100000000E-03 0. -1.
        -11    1    3    3    0    0 -0.18957201466E+01 -0.47182472747E+01 -0.31034535145E+01  0.59570996464E+01  0.51100000000E-03 0.  1.
        -12    1    3    3    0    0 -0.20600871780E+02 -0.14673193524E+01  0.29109667876E+01  0.20857197123E+02  0.00000000000E+00 0.  1.
</event>
<event>
 7    1  0.2414091E-009  0.4778727E+02  0.7816164E-02  0.1312668E+00
        -11   -1    0    0    0    0  0.00000000000E+00  0.00000000000E+00  0.45593999997E+02  0.45594000000E+02  0.51100000000E-03 0.  1.
         11   -1    0    0    0    0 -0.00000000000E+00 -0.00000000000E+00 -0.45593999997E+02  0.45594000000E+02  0.51100000000E-03 0. -1.
    9900012    2    1    2    0    0 -0.20171342961E+02 -0.23083707493E+02  0.30722673911E+02  0.47787270505E+02  0.19999997539E+02 0.  0.
         12    1    1    2    0    0  0.20171342961E+02  0.23083707493E+02 -0.30722673911E+02  0.43400729495E+02  0.00000000000E+00 0. -1.
         11    1    3    3    0    0 -0.52427141030E+01 -0.99548510411E+01  0.76675881664E+01  0.13615322948E+02  0.51100000000E-03 0. -1.
        -11    1    3    3    0    0  0.24520665180E+01 -0.11554929465E+01  0.74381626567E+01  0.79166948992E+01  0.51100000000E-03 0.  1.
         12    1    3    3    0    0 -0.17380695376E+02 -0.11973363505E+02  0.15616923088E+02  0.26255252658E+02  0.00000000000E+00 0. -1.
</event>
<event>
 7    1  0.2414091E-009  0.4778728E+02  0.7816164E-02  0.1312668E+00
        -11   -1    0    0    0    0  0.00000000000E+00  0.00000000000E+00  0.45593999997E+02  0.45594000000E+02  0.51100000000E-03 0.  1.
         11   -1    0    0    0    0 -0.00000000000E+00 -0.00000000000E+00 -0.45593999997E+02  0.45594000000E+02  0.51100000000E-03 0. -1.
    9900012    2    1    2    0    0 -0.23448125922E+02 -0.50219755227E+01  0.36174405831E+02  0.47787280137E+02  0.20000041459E+02 0.  0.
         12    1    1    2    0    0  0.23448125922E+02  0.50219755227E+01 -0.36174405831E+02  0.43400719863E+02  0.00000000000E+00 0. -1.
         11    1    3    3    0    0 -0.31901145921E+01 -0.46944422870E+01  0.77444575595E+01  0.96016270834E+01  0.51100000000E-03 0. -1.
        -11    1    3    3    0    0 -0.12134325793E+02  0.11631112639E+01  0.47088953003E+01  0.13067837827E+02  0.51100000000E-03 0.  1.
        -12    1    3    3    0    0 -0.81236855361E+01 -0.14906444995E+01  0.23721052971E+02  0.25117815227E+02  0.00000000000E+00 0.  1.
</event>
<event>
 7    1  0.2414091E-009  0.4778727E+02  0.7816164E-02  0.1312668E+00
        -11   -1    0    0    0    0  0.00000000000E+00  0.00000000000E+00  0.45593999997E+02  0.45594000000E+02  0.51100000000E-03 0.  1.
         11   -1    0    0    0    0 -0.00000000000E+00 -0.00000000000E+00 -0.45593999997E+02  0.45594000000E+02  0.51100000000E-03 0. -1.
    9900012    2    1    2    0    0 -0.26441150933E+02  0.32638434200E+02  0.10918860223E+02  0.47787270072E+02  0.19999995566E+02 0.  0.
         12    1    1    2    0    0  0.26441150933E+02 -0.32638434200E+02 -0.10918860223E+02  0.43400729928E+02  0.00000000000E+00 0. -1.
         11    1    3    3    0    0 -0.13066207942E+02  0.87018031388E+01  0.12069454067E-01  0.15698640507E+02  0.51100000000E-03 0. -1.
        -11    1    3    3    0    0 -0.14443317297E+02  0.15852042410E+02  0.10614995439E+02  0.23928535090E+02  0.51100000000E-03 0.  1.
         12    1    3    3    0    0  0.10683743055E+01  0.80845886518E+01  0.29179532939E+00  0.81600944749E+01  0.00000000000E+00 0. -1.
</event>
<event>
 7    1  0.2414091E-009  0.4778727E+02  0.7816164E-02  0.1312668E+00
        -11   -1    0    0    0    0  0.00000000000E+00  0.00000000000E+00  0.45593999997E+02  0.45594000000E+02  0.51100000000E-03 0.  1.
         11   -1    0    0    0    0 -0.00000000000E+00 -0.00000000000E+00 -0.45593999997E+02  0.45594000000E+02  0.51100000000E-03 0. -1.
    9900012    2    1    2    0    0 -0.65662873452E+01  0.26869811480E+02  0.33444286394E+02  0.47787272001E+02  0.20000004360E+02 0.  0.
         12    1    1    2    0    0  0.65662873452E+01 -0.26869811480E+02 -0.33444286394E+02  0.43400727999E+02  0.00000000000E+00 0. -1.
         11    1    3    3    0    0  0.49167547150E+01  0.38265372151E+01  0.37444470210E+01  0.72689578167E+01  0.51100000000E-03 0.  1.
        -11    1    3    3    0    0 -0.26143074305E+01 -0.24498574204E+00  0.32539507183E+01  0.41812458542E+01  0.51100000000E-03 0. -1.
        -12    1    3    3    0    0 -0.88687346297E+01  0.23288260007E+02  0.26445888654E+02  0.36337068330E+02  0.00000000000E+00 0.  1.
</event>
<event>
 7    1  0.2414091E-009  0.4778727E+02  0.7816164E-02  0.1312668E+00
        -11   -1    0    0    0    0  0.00000000000E+00  0.00000000000E+00  0.45593999997E+02  0.45594000000E+02  0.51100000000E-03 0.  1.
         11   -1    0    0    0    0 -0.00000000000E+00 -0.00000000000E+00 -0.45593999997E+02  0.45594000000E+02  0.51100000000E-03 0. -1.
    9900012    2    1    2    0    0  0.12373649869E+01  0.16535714527E+02  0.40108131403E+02  0.47787272683E+02  0.20000007470E+02 0.  0.
         12    1    1    2    0    0 -0.12373649869E+01 -0.16535714527E+02 -0.40108131403E+02  0.43400727317E+02  0.00000000000E+00 0. -1.
         11    1    3    3    0    0  0.17354160183E+01  0.41559655774E+01  0.53788511244E+01  0.70153943807E+01  0.51100000000E-03 0. -1.
        -11    1    3    3    0    0 -0.83143986041E+01  0.70495020373E+01  0.12336212669E+02  0.16462285577E+02  0.51100000000E-03 0.  1.
        -12    1    3    3    0    0  0.78163475727E+01  0.53302469126E+01  0.22393067609E+02  0.24309592725E+02  0.00000000000E+00 0.  1.
</event>
<event>
 7    1  0.2414091E-009  0.4778727E+02  0.7816164E-02  0.1312668E+00
        -11   -1    0    0    0    0  0.00000000000E+00  0.00000000000E+00  0.45593999997E+02  0.45594000000E+02  0.51100000000E-03 0.  1.
         11   -1    0    0    0    0 -0.00000000000E+00 -0.00000000000E+00 -0.45593999997E+02  0.45594000000E+02  0.51100000000E-03 0. -1.
    9900012    2    1    2    0    0  0.17449477235E+02 -0.13139588230E+02  0.37503205953E+02  0.47787268538E+02  0.19999988573E+02 0.  0.
         12    1    1    2    0    0 -0.17449477235E+02  0.13139588230E+02 -0.37503205953E+02  0.43400731462E+02  0.00000000000E+00 0. -1.
         11    1    3    3    0    0  0.10360318189E+01 -0.84654788441E+01  0.79395552690E+01  0.11652220051E+02  0.51100000000E-03 0. -1.
        -11    1    3    3    0    0  0.87629469375E+01 -0.62354042034E+01  0.86196243641E+01  0.13782867229E+02  0.51100000000E-03 0.  1.
        -12    1    3    3    0    0  0.76504984791E+01  0.15612948176E+01  0.20944026320E+02  0.22352181258E+02  0.00000000000E+00 0.  1.
</event>
<event>
 7    1  0.2414091E-009  0.4778726E+02  0.7816164E-02  0.1312668E+00
        -11   -1    0    0    0    0  0.00000000000E+00  0.00000000000E+00  0.45593999997E+02  0.45594000000E+02  0.51100000000E-03 0.  1.
         11   -1    0    0    0    0 -0.00000000000E+00 -0.00000000000E+00 -0.45593999997E+02  0.45594000000E+02  0.51100000000E-03 0. -1.
    9900012    2    1    2    0    0 -0.32168874100E+02  0.28940909866E+02 -0.33483046424E+01  0.47787264192E+02  0.19999968755E+02 0.  0.
         12    1    1    2    0    0  0.32168874100E+02 -0.28940909866E+02  0.33483046424E+01  0.43400735808E+02  0.00000000000E+00 0. -1.
         11    1    3    3    0    0 -0.32601220535E+01  0.89750642317E+01 -0.39117568345E+01  0.10319012335E+02  0.51100000000E-03 0. -1.
        -11    1    3    3    0    0 -0.10078330947E+02  0.13152159204E+02  0.42511664274E+01  0.17106269689E+02  0.51100000000E-03 0.  1.
         12    1    3    3    0    0 -0.18830421099E+02  0.68136864302E+01 -0.36877142353E+01  0.20361982168E+02  0.00000000000E+00 0. -1.
</event>
<event>
 7    1  0.2414091E-009  0.4778727E+02  0.7816164E-02  0.1312668E+00
        -11   -1    0    0    0    0  0.00000000000E+00  0.00000000000E+00  0.45593999997E+02  0.45594000000E+02  0.51100000000E-03 0. -1.
         11   -1    0    0    0    0 -0.00000000000E+00 -0.00000000000E+00 -0.45593999997E+02  0.45594000000E+02  0.51100000000E-03 0.  1.
    9900012    2    1    2    0    0  0.39771195119E+02  0.87926743536E+01 -0.14985457183E+02  0.47787274079E+02  0.20000013834E+02 0.  0.
         12    1    1    2    0    0 -0.39771195119E+02 -0.87926743536E+01  0.14985457183E+02  0.43400725921E+02  0.00000000000E+00 0. -1.
         11    1    3    3    0    0  0.78198346152E+01 -0.10223105626E+01 -0.70147919371E+01  0.10554725884E+02  0.51100000000E-03 0.  1.
        -11    1    3    3    0    0 -0.14718155148E+01  0.10406972391E+01 -0.59715717732E+00  0.18989177467E+01  0.51100000000E-03 0. -1.
         12    1    3    3    0    0  0.33423176019E+02  0.87742876771E+01 -0.73735080689E+01  0.35333630448E+02  0.00000000000E+00 0. -1.
</event>
<event>
 7    1  0.2414091E-009  0.4778727E+02  0.7816164E-02  0.1312668E+00
        -11   -1    0    0    0    0  0.00000000000E+00  0.00000000000E+00  0.45593999997E+02  0.45594000000E+02  0.51100000000E-03 0. -1.
         11   -1    0    0    0    0 -0.00000000000E+00 -0.00000000000E+00 -0.45593999997E+02  0.45594000000E+02  0.51100000000E-03 0.  1.
    9900012    2    1    2    0    0 -0.42175508457E+02  0.91833817524E+01 -0.45293704517E+01  0.47787271772E+02  0.20000003318E+02 0.  0.
         12    1    1    2    0    0  0.42175508457E+02 -0.91833817524E+01  0.45293704517E+01  0.43400728228E+02  0.00000000000E+00 0. -1.
         11    1    3    3    0    0 -0.24156009532E+02  0.10819542291E+01 -0.19412032538E+01  0.24258023246E+02  0.51100000000E-03 0. -1.
        -11    1    3    3    0    0 -0.15326182483E+02  0.14143108031E+01 -0.45649729193E+01  0.16054006434E+02  0.51100000000E-03 0.  1.
         12    1    3    3    0    0 -0.26933164418E+01  0.66871167202E+01  0.19768057215E+01  0.74752420928E+01  0.00000000000E+00 0. -1.
</event>
<event>
 7    1  0.2414091E-009  0.4778727E+02  0.7816164E-02  0.1312668E+00
        -11   -1    0    0    0    0  0.00000000000E+00  0.00000000000E+00  0.45593999997E+02  0.45594000000E+02  0.51100000000E-03 0.  1.
         11   -1    0    0    0    0 -0.00000000000E+00 -0.00000000000E+00 -0.45593999997E+02  0.45594000000E+02  0.51100000000E-03 0. -1.
    9900012    2    1    2    0    0  0.35628062579E+02 -0.21747895012E+02 -0.11886697701E+02  0.47787270020E+02  0.19999995329E+02 0.  0.
         12    1    1    2    0    0 -0.35628062579E+02  0.21747895012E+02  0.11886697701E+02  0.43400729980E+02  0.00000000000E+00 0. -1.
         11    1    3    3    0    0  0.12418918397E+02 -0.10211963333E+02  0.46467163705E+01  0.16736358701E+02  0.51100000000E-03 0.  1.
        -11    1    3    3    0    0  0.38338406523E-01  0.24042966537E+00  0.52139362097E-02  0.24352351767E+00  0.51100000000E-03 0. -1.
        -12    1    3    3    0    0  0.23170805775E+02 -0.11776361344E+02 -0.16538628008E+02  0.30807387802E+02  0.00000000000E+00 0.  1.
</event>
<event>
 7    1  0.2414091E-009  0.4778723E+02  0.7816164E-02  0.1312668E+00
        -11   -1    0    0    0    0  0.00000000000E+00  0.00000000000E+00  0.45593999997E+02  0.45594000000E+02  0.51100000000E-03 0. -1.
         11   -1    0    0    0    0 -0.00000000000E+00 -0.00000000000E+00 -0.45593999997E+02  0.45594000000E+02  0.51100000000E-03 0.  1.
    9900012    2    1    2    0    0  0.94746649247E+01 -0.41814732795E+02  0.67368815468E+01  0.47787231261E+02  0.19999818612E+02 0.  0.
         12    1    1    2    0    0 -0.94746649247E+01  0.41814732795E+02 -0.67368815468E+01  0.43400768739E+02  0.00000000000E+00 0. -1.
         11    1    3    3    0    0  0.52633646231E+01 -0.16947684277E+02 -0.65000755477E+00  0.17758083218E+02  0.51100000000E-03 0. -1.
        -11    1    3    3    0    0  0.62981495535E+01 -0.24405460300E+02  0.33039655407E+01  0.25420648473E+02  0.51100000000E-03 0.  1.
         12    1    3    3    0    0 -0.20868492519E+01 -0.46158821817E+00  0.40829235609E+01  0.46084995701E+01  0.00000000000E+00 0. -1.
</event>
<event>
 7    1  0.2414091E-009  0.4778727E+02  0.7816164E-02  0.1312668E+00
        -11   -1    0    0    0    0  0.00000000000E+00  0.00000000000E+00  0.45593999997E+02  0.45594000000E+02  0.51100000000E-03 0. -1.
         11   -1    0    0    0    0 -0.00000000000E+00 -0.00000000000E+00 -0.45593999997E+02  0.45594000000E+02  0.51100000000E-03 0.  1.
    9900012    2    1    2    0    0  0.22434524742E+02 -0.36565609798E+02 -0.65780952330E+01  0.47787273541E+02  0.20000011383E+02 0.  0.
         12    1    1    2    0    0 -0.22434524742E+02  0.36565609798E+02  0.65780952330E+01  0.43400726459E+02  0.00000000000E+00 0. -1.
         11    1    3    3    0    0  0.74293428133E+00 -0.60646956116E+01 -0.66342125350E+01  0.90191607386E+01  0.51100000000E-03 0. -1.
        -11    1    3    3    0    0  0.47110463354E+01 -0.96772810395E+01 -0.42196496474E+01  0.11560673393E+02  0.51100000000E-03 0.  1.
        -12    1    3    3    0    0  0.16980544125E+02 -0.20823633147E+02  0.42757669494E+01  0.27207439409E+02  0.00000000000E+00 0.  1.
</event>
<event>
 7    1  0.2414091E-009  0.4778727E+02  0.7816164E-02  0.1312668E+00
        -11   -1    0    0    0    0  0.00000000000E+00  0.00000000000E+00  0.45593999997E+02  0.45594000000E+02  0.51100000000E-03 0.  1.
         11   -1    0    0    0    0 -0.00000000000E+00 -0.00000000000E+00 -0.45593999997E+02  0.45594000000E+02  0.51100000000E-03 0. -1.
    9900012    2    1    2    0    0 -0.90966458144E+01 -0.27190364789E+02  0.32581562029E+02  0.47787273201E+02  0.20000009831E+02 0.  0.
         12    1    1    2    0    0  0.90966458144E+01  0.27190364789E+02 -0.32581562029E+02  0.43400726799E+02  0.00000000000E+00 0. -1.
         11    1    3    3    0    0 -0.30401453267E+01 -0.12117810913E+02  0.99873564435E+01  0.15994721440E+02  0.51100000000E-03 0. -1.
        -11    1    3    3    0    0 -0.10912458148E+02 -0.10588085807E+02  0.12291286245E+02  0.19551598955E+02  0.51100000000E-03 0.  1.
         12    1    3    3    0    0  0.48559576601E+01 -0.44844680688E+01  0.10302919341E+02  0.12240952806E+02  0.00000000000E+00 0. -1.
</event>
<event>
 7    1  0.2414091E-009  0.4778727E+02  0.7816164E-02  0.1312668E+00
        -11   -1    0    0    0    0  0.00000000000E+00  0.00000000000E+00  0.45593999997E+02  0.45594000000E+02  0.51100000000E-03 0.  1.
         11   -1    0    0    0    0 -0.00000000000E+00 -0.00000000000E+00 -0.45593999997E+02  0.45594000000E+02  0.51100000000E-03 0. -1.
    9900012    2    1    2    0    0  0.20216365685E+02  0.33474338564E+02  0.18825259553E+02  0.47787272113E+02  0.20000004874E+02 0.  0.
         12    1    1    2    0    0 -0.20216365685E+02 -0.33474338564E+02 -0.18825259553E+02  0.43400727887E+02  0.00000000000E+00 0. -1.
         11    1    3    3    0    0  0.50548456799E+01  0.11636222541E+02  0.11003740723E+02  0.16793911100E+02  0.51100000000E-03 0. -1.
        -11    1    3    3    0    0  0.10904238115E+02  0.42518598974E+01  0.47937749902E+01  0.12647568951E+02  0.51100000000E-03 0.  1.
         12    1    3    3    0    0  0.42572818902E+01  0.17586256126E+02  0.30277438394E+01  0.18345792062E+02  0.00000000000E+00 0. -1.
</event>
<event>
 7    1  0.2414091E-009  0.4778728E+02  0.7816164E-02  0.1312668E+00
        -11   -1    0    0    0    0  0.00000000000E+00  0.00000000000E+00  0.45593999997E+02  0.45594000000E+02  0.51100000000E-03 0.  1.
         11   -1    0    0    0    0 -0.00000000000E+00 -0.00000000000E+00 -0.45593999997E+02  0.45594000000E+02  0.51100000000E-03 0. -1.
    9900012    2    1    2    0    0 -0.39181623205E+02 -0.12349046540E+01  0.18625192457E+02  0.47787281336E+02  0.20000046923E+02 0.  0.
         12    1    1    2    0    0  0.39181623205E+02  0.12349046540E+01 -0.18625192457E+02  0.43400718664E+02  0.00000000000E+00 0. -1.
         11    1    3    3    0    0 -0.31698019735E+01  0.21963799936E+01  0.32862745167E+00  0.38703650849E+01  0.51100000000E-03 0. -1.
        -11    1    3    3    0    0 -0.24096417973E+02 -0.10259448283E+02  0.11833985548E+02  0.28739117113E+02  0.51100000000E-03 0.  1.
         12    1    3    3    0    0 -0.11915403259E+02  0.68281636351E+01  0.64625794569E+01  0.15177799138E+02  0.00000000000E+00 0. -1.
</event>
<event>
 7    1  0.2414091E-009  0.4778728E+02  0.7816164E-02  0.1312668E+00
        -11   -1    0    0    0    0  0.00000000000E+00  0.00000000000E+00  0.45593999997E+02  0.45594000000E+02  0.51100000000E-03 0. -1.
         11   -1    0    0    0    0 -0.00000000000E+00 -0.00000000000E+00 -0.45593999997E+02  0.45594000000E+02  0.51100000000E-03 0.  1.
    9900012    2    1    2    0    0 -0.87217155840E+00 -0.41931322979E+02  0.11163598290E+02  0.47787280457E+02  0.20000042918E+02 0.  0.
         12    1    1    2    0    0  0.87217155840E+00  0.41931322979E+02 -0.11163598290E+02  0.43400719543E+02  0.00000000000E+00 0. -1.
         11    1    3    3    0    0  0.63063847478E+01 -0.21005799231E+02  0.62104685400E+01  0.22794385486E+02  0.51100000000E-03 0. -1.
        -11    1    3    3    0    0  0.17222255665E+01 -0.90367348461E+01 -0.39480556456E+00  0.92078504156E+01  0.51100000000E-03 0.  1.
         12    1    3    3    0    0 -0.89007818727E+01 -0.11888788902E+02  0.53479353147E+01  0.15785044556E+02  0.00000000000E+00 0. -1.
</event>
<event>
 7    1  0.2414091E-009  0.4778727E+02  0.7816164E-02  0.1312668E+00
        -11   -1    0    0    0    0  0.00000000000E+00  0.00000000000E+00  0.45593999997E+02  0.45594000000E+02  0.51100000000E-03 0.  1.
         11   -1    0    0    0    0 -0.00000000000E+00 -0.00000000000E+00 -0.45593999997E+02  0.45594000000E+02  0.51100000000E-03 0. -1.
    9900012    2    1    2    0    0  0.30029106637E+02 -0.49021862049E+01  0.30949067939E+02  0.47787268655E+02  0.19999989106E+02 0.  0.
         12    1    1    2    0    0 -0.30029106637E+02  0.49021862049E+01 -0.30949067939E+02  0.43400731345E+02  0.00000000000E+00 0. -1.
         11    1    3    3    0    0  0.28490441972E+01 -0.41586227504E+01  0.18331549009E+01  0.53639214358E+01  0.51100000000E-03 0. -1.
        -11    1    3    3    0    0  0.63900731081E+01 -0.66607466000E+01  0.91744071949E+01  0.13014158722E+02  0.51100000000E-03 0.  1.
        -12    1    3    3    0    0  0.20789989332E+02  0.59171831456E+01  0.19941505843E+02  0.29409188497E+02  0.00000000000E+00 0.  1.
</event>
<event>
 7    1  0.2414091E-009  0.4778727E+02  0.7816164E-02  0.1312668E+00
        -11   -1    0    0    0    0  0.00000000000E+00  0.00000000000E+00  0.45593999997E+02  0.45594000000E+02  0.51100000000E-03 0. -1.
         11   -1    0    0    0    0 -0.00000000000E+00 -0.00000000000E+00 -0.45593999997E+02  0.45594000000E+02  0.51100000000E-03 0.  1.
    9900012    2    1    2    0    0  0.99208384084E+01 -0.41852116510E+02  0.57965866139E+01  0.47787272962E+02  0.20000008743E+02 0.  0.
         12    1    1    2    0    0 -0.99208384084E+01  0.41852116510E+02 -0.57965866139E+01  0.43400727038E+02  0.00000000000E+00 0. -1.
         11    1    3    3    0    0  0.28514084318E+01 -0.30607447371E+01 -0.42360498115E+00  0.42045368153E+01  0.51100000000E-03 0. -1.
        -11    1    3    3    0    0  0.12635238306E+02 -0.30034865125E+02  0.30164932291E+01  0.32723716198E+02  0.51100000000E-03 0.  1.
         12    1    3    3    0    0 -0.55658083296E+01 -0.87565066478E+01  0.32036983659E+01  0.10859019949E+02  0.00000000000E+00 0. -1.
</event>
<event>
 7    1  0.2414091E-009  0.4778727E+02  0.7816164E-02  0.1312668E+00
        -11   -1    0    0    0    0  0.00000000000E+00  0.00000000000E+00  0.45593999997E+02  0.45594000000E+02  0.51100000000E-03 0. -1.
         11   -1    0    0    0    0 -0.00000000000E+00 -0.00000000000E+00 -0.45593999997E+02  0.45594000000E+02  0.51100000000E-03 0.  1.
    9900012    2    1    2    0    0  0.14134466982E+02 -0.12438591252E+02 -0.39103983219E+02  0.47787271748E+02  0.20000003209E+02 0.  0.
         12    1    1    2    0    0 -0.14134466982E+02  0.12438591252E+02  0.39103983219E+02  0.43400728252E+02  0.00000000000E+00 0. -1.
         11    1    3    3    0    0  0.55426879689E+01 -0.32338253204E+01 -0.21608909563E+02  0.22541605730E+02  0.51100000000E-03 0. -1.
        -11    1    3    3    0    0  0.88338808933E+01 -0.11305747716E+02 -0.18051386908E+02  0.23058836757E+02  0.51100000000E-03 0.  1.
         12    1    3    3    0    0 -0.24210188022E+00  0.21009817845E+01  0.55631325219E+00  0.21868292603E+01  0.00000000000E+00 0. -1.
</event>
<event>
 7    1  0.2414091E-009  0.4778727E+02  0.7816164E-02  0.1312668E+00
        -11   -1    0    0    0    0  0.00000000000E+00  0.00000000000E+00  0.45593999997E+02  0.45594000000E+02  0.51100000000E-03 0.  1.
         11   -1    0    0    0    0 -0.00000000000E+00 -0.00000000000E+00 -0.45593999997E+02  0.45594000000E+02  0.51100000000E-03 0. -1.
    9900012    2    1    2    0    0 -0.42990821788E+02 -0.58849395516E+01  0.88317662916E+00  0.47787271060E+02  0.20000000071E+02 0.  0.
         12    1    1    2    0    0  0.42990821788E+02  0.58849395516E+01 -0.88317662916E+00  0.43400728940E+02  0.00000000000E+00 0. -1.
         11    1    3    3    0    0 -0.86153649561E+01 -0.50743819899E+01  0.38798721682E+01  0.10725076886E+02  0.51100000000E-03 0. -1.
        -11    1    3    3    0    0 -0.27343014876E+02 -0.60058052445E+01 -0.62040379100E+00  0.28001697453E+02  0.51100000000E-03 0.  1.
         12    1    3    3    0    0 -0.70324419563E+01  0.51952476829E+01 -0.23762917481E+01  0.90604967207E+01  0.00000000000E+00 0. -1.
</event>
<event>
 7    1  0.2414091E-009  0.4778727E+02  0.7816164E-02  0.1312668E+00
        -11   -1    0    0    0    0  0.00000000000E+00  0.00000000000E+00  0.45593999997E+02  0.45594000000E+02  0.51100000000E-03 0.  1.
         11   -1    0    0    0    0 -0.00000000000E+00 -0.00000000000E+00 -0.45593999997E+02  0.45594000000E+02  0.51100000000E-03 0. -1.
    9900012    2    1    2    0    0  0.35460937195E+02 -0.18171236116E+02  0.17203238430E+02  0.47787270729E+02  0.19999998562E+02 0.  0.
         12    1    1    2    0    0 -0.35460937195E+02  0.18171236116E+02 -0.17203238430E+02  0.43400729271E+02  0.00000000000E+00 0. -1.
         11    1    3    3    0    0  0.19168083125E+02 -0.68589980538E+01  0.14990929280E+02  0.25282191873E+02  0.51100000000E-03 0. -1.
        -11    1    3    3    0    0  0.90489824468E+01 -0.18711195271E+00  0.17682836289E+01  0.92220345617E+01  0.51100000000E-03 0.  1.
         12    1    3    3    0    0  0.72438716236E+01 -0.11125126109E+02  0.44402552187E+00  0.13283044294E+02  0.00000000000E+00 0. -1.
</event>
<event>
 7    1  0.2414091E-009  0.4778728E+02  0.7816164E-02  0.1312668E+00
        -11   -1    0    0    0    0  0.00000000000E+00  0.00000000000E+00  0.45593999997E+02  0.45594000000E+02  0.51100000000E-03 0. -1.
         11   -1    0    0    0    0 -0.00000000000E+00 -0.00000000000E+00 -0.45593999997E+02  0.45594000000E+02  0.51100000000E-03 0.  1.
    9900012    2    1    2    0    0 -0.85170728725E+01  0.42467565219E+02 -0.27546702631E+01  0.47787276110E+02  0.20000023095E+02 0.  0.
         12    1    1    2    0    0  0.85170728725E+01 -0.42467565219E+02  0.27546702631E+01  0.43400723890E+02  0.00000000000E+00 0. -1.
         11    1    3    3    0    0 -0.78718276396E+01  0.21376361665E+02  0.57784492914E+01  0.23501169862E+02  0.51100000000E-03 0. -1.
        -11    1    3    3    0    0  0.82552575345E+00  0.77766338835E+01  0.94394945705E+00  0.78770913519E+01  0.51100000000E-03 0.  1.
        -12    1    3    3    0    0 -0.14707709864E+01  0.13314569670E+02 -0.94770690115E+01  0.16409014896E+02  0.00000000000E+00 0.  1.
</event>
<event>
 7    1  0.2414091E-009  0.4778727E+02  0.7816164E-02  0.1312668E+00
        -11   -1    0    0    0    0  0.00000000000E+00  0.00000000000E+00  0.45593999997E+02  0.45594000000E+02  0.51100000000E-03 0.  1.
         11   -1    0    0    0    0 -0.00000000000E+00 -0.00000000000E+00 -0.45593999997E+02  0.45594000000E+02  0.51100000000E-03 0. -1.
    9900012    2    1    2    0    0  0.32327385465E+02  0.26870539999E+01  0.28833020244E+02  0.47787272281E+02  0.20000005636E+02 0.  0.
         12    1    1    2    0    0 -0.32327385465E+02 -0.26870539999E+01 -0.28833020244E+02  0.43400727719E+02  0.00000000000E+00 0. -1.
         11    1    3    3    0    0  0.30026415542E+01 -0.33568804557E+01  0.10165519134E+01  0.46171290593E+01  0.51100000000E-03 0. -1.
        -11    1    3    3    0    0  0.37701576549E+01  0.21113207000E+01  0.12251447722E+02  0.12991140650E+02  0.51100000000E-03 0.  1.
        -12    1    3    3    0    0  0.25554586255E+02  0.39326137556E+01  0.15565020608E+02  0.30179002571E+02  0.00000000000E+00 0.  1.
</event>
<event>
 7    1  0.2414091E-009  0.4778727E+02  0.7816164E-02  0.1312668E+00
        -11   -1    0    0    0    0  0.00000000000E+00  0.00000000000E+00  0.45593999997E+02  0.45594000000E+02  0.51100000000E-03 0.  1.
         11   -1    0    0    0    0 -0.00000000000E+00 -0.00000000000E+00 -0.45593999997E+02  0.45594000000E+02  0.51100000000E-03 0. -1.
    9900012    2    1    2    0    0  0.19992076751E+02  0.26540766348E+02  0.27920021506E+02  0.47787274061E+02  0.20000013752E+02 0.  0.
         12    1    1    2    0    0 -0.19992076751E+02 -0.26540766348E+02 -0.27920021506E+02  0.43400725939E+02  0.00000000000E+00 0. -1.
         11    1    3    3    0    0  0.10206757478E+02  0.21320673271E+02  0.85582196973E+01  0.25139453685E+02  0.51100000000E-03 0. -1.
        -11    1    3    3    0    0  0.35933090756E+01  0.32875051243E+01  0.55192010407E+01  0.73607839558E+01  0.51100000000E-03 0.  1.
        -12    1    3    3    0    0  0.61920101981E+01  0.19325879532E+01  0.13842600768E+02  0.15287036420E+02  0.00000000000E+00 0.  1.
</event>
<event>
 7    1  0.2414091E-009  0.4778727E+02  0.7816164E-02  0.1312668E+00
        -11   -1    0    0    0    0  0.00000000000E+00  0.00000000000E+00  0.45593999997E+02  0.45594000000E+02  0.51100000000E-03 0.  1.
         11   -1    0    0    0    0 -0.00000000000E+00 -0.00000000000E+00 -0.45593999997E+02  0.45594000000E+02  0.51100000000E-03 0. -1.
    9900012    2    1    2    0    0 -0.29689787963E+02  0.14958329927E+02  0.27899607971E+02  0.47787271107E+02  0.20000000287E+02 0.  0.
         12    1    1    2    0    0  0.29689787963E+02 -0.14958329927E+02 -0.27899607971E+02  0.43400728893E+02  0.00000000000E+00 0. -1.
         11    1    3    3    0    0 -0.76229360932E+01  0.52456361216E+01  0.26061732271E+01  0.96134277005E+01  0.51100000000E-03 0. -1.
        -11    1    3    3    0    0 -0.13110876884E+02 -0.25199986186E+01  0.10423751190E+02  0.16938124892E+02  0.51100000000E-03 0.  1.
        -12    1    3    3    0    0 -0.89559749855E+01  0.12232692424E+02  0.14869683553E+02  0.21235718515E+02  0.00000000000E+00 0.  1.
</event>
<event>
 7    1  0.2414091E-009  0.4778727E+02  0.7816164E-02  0.1312668E+00
        -11   -1    0    0    0    0  0.00000000000E+00  0.00000000000E+00  0.45593999997E+02  0.45594000000E+02  0.51100000000E-03 0.  1.
         11   -1    0    0    0    0 -0.00000000000E+00 -0.00000000000E+00 -0.45593999997E+02  0.45594000000E+02  0.51100000000E-03 0. -1.
    9900012    2    1    2    0    0 -0.28437725652E+02  0.24552002648E+02  0.21728277641E+02  0.47787272776E+02  0.20000007896E+02 0.  0.
         12    1    1    2    0    0  0.28437725652E+02 -0.24552002648E+02 -0.21728277641E+02  0.43400727224E+02  0.00000000000E+00 0. -1.
         11    1    3    3    0    0 -0.14517218172E+02  0.10410315354E+02  0.79976461595E+01  0.19572599050E+02  0.51100000000E-03 0. -1.
        -11    1    3    3    0    0 -0.95735380710E+01  0.15350152045E+02  0.15029652177E+02  0.23519571506E+02  0.51100000000E-03 0.  1.
        -12    1    3    3    0    0 -0.43469694091E+01 -0.12084647501E+01 -0.12990206956E+01  0.46951022207E+01  0.00000000000E+00 0.  1.
</event>
<event>
 7    1  0.2414091E-009  0.4778727E+02  0.7816164E-02  0.1312668E+00
        -11   -1    0    0    0    0  0.00000000000E+00  0.00000000000E+00  0.45593999997E+02  0.45594000000E+02  0.51100000000E-03 0. -1.
         11   -1    0    0    0    0 -0.00000000000E+00 -0.00000000000E+00 -0.45593999997E+02  0.45594000000E+02  0.51100000000E-03 0.  1.
    9900012    2    1    2    0    0  0.40881317985E+02 -0.12116683565E+02 -0.80948875314E+01  0.47787269765E+02  0.19999994165E+02 0.  0.
         12    1    1    2    0    0 -0.40881317985E+02  0.12116683565E+02  0.80948875314E+01  0.43400730235E+02  0.00000000000E+00 0. -1.
         11    1    3    3    0    0  0.19119716579E+02 -0.67074528549E+01 -0.78620976279E+01  0.21733984109E+02  0.51100000000E-03 0. -1.
        -11    1    3    3    0    0  0.12263001855E+01 -0.42675840876E+01 -0.29157277283E+01  0.53120198170E+01  0.51100000000E-03 0.  1.
         12    1    3    3    0    0  0.20535301220E+02 -0.11416466224E+01  0.26829378248E+01  0.20741265839E+02  0.00000000000E+00 0. -1.
</event>
<event>
 7    1  0.2414091E-009  0.4778727E+02  0.7816164E-02  0.1312668E+00
        -11   -1    0    0    0    0  0.00000000000E+00  0.00000000000E+00  0.45593999997E+02  0.45594000000E+02  0.51100000000E-03 0. -1.
         11   -1    0    0    0    0 -0.00000000000E+00 -0.00000000000E+00 -0.45593999997E+02  0.45594000000E+02  0.51100000000E-03 0.  1.
    9900012    2    1    2    0    0 -0.37622537978E+02 -0.18595614430E+02 -0.11062142416E+02  0.47787271495E+02  0.20000002055E+02 0.  0.
         12    1    1    2    0    0  0.37622537978E+02  0.18595614430E+02  0.11062142416E+02  0.43400728505E+02  0.00000000000E+00 0. -1.
         11    1    3    3    0    0  0.11697990488E+00 -0.21087299866E+01 -0.90509256333E+00  0.22977422100E+01  0.51100000000E-03 0. -1.
        -11    1    3    3    0    0 -0.14913531836E+02 -0.14516886454E+02 -0.10618972320E+01  0.20839410984E+02  0.51100000000E-03 0.  1.
         12    1    3    3    0    0 -0.22825986047E+02 -0.19699979889E+01 -0.90951526204E+01  0.24650118301E+02  0.00000000000E+00 0. -1.
</event>
<event>
 7    1  0.2414091E-009  0.4778727E+02  0.7816164E-02  0.1312668E+00
        -11   -1    0    0    0    0  0.00000000000E+00  0.00000000000E+00  0.45593999997E+02  0.45594000000E+02  0.51100000000E-03 0. -1.
         11   -1    0    0    0    0 -0.00000000000E+00 -0.00000000000E+00 -0.45593999997E+02  0.45594000000E+02  0.51100000000E-03 0.  1.
    9900012    2    1    2    0    0 -0.71282659187E+01  0.36893295286E+01 -0.42652078176E+02  0.47787273047E+02  0.20000009129E+02 0.  0.
         12    1    1    2    0    0  0.71282659187E+01 -0.36893295286E+01  0.42652078176E+02  0.43400726953E+02  0.00000000000E+00 0. -1.
         11    1    3    3    0    0 -0.22968304118E+01  0.36139802100E+01 -0.84367246015E+01  0.94612158395E+01  0.51100000000E-03 0. -1.
        -11    1    3    3    0    0 -0.10894052343E+02 -0.44360867000E+00 -0.18500343194E+02  0.21474167357E+02  0.51100000000E-03 0.  1.
         12    1    3    3    0    0  0.60626168360E+01  0.51895798857E+00 -0.15715010380E+02  0.16851889850E+02  0.00000000000E+00 0. -1.
</event>
<event>
 7    1  0.2414091E-009  0.4778728E+02  0.7816164E-02  0.1312668E+00
        -11   -1    0    0    0    0  0.00000000000E+00  0.00000000000E+00  0.45593999997E+02  0.45594000000E+02  0.51100000000E-03 0.  1.
         11   -1    0    0    0    0 -0.00000000000E+00 -0.00000000000E+00 -0.45593999997E+02  0.45594000000E+02  0.51100000000E-03 0. -1.
    9900012    2    1    2    0    0 -0.18425008220E+02  0.26757988420E+02  0.28777626936E+02  0.47787277837E+02  0.20000030971E+02 0.  0.
         12    1    1    2    0    0  0.18425008220E+02 -0.26757988420E+02 -0.28777626936E+02  0.43400722163E+02  0.00000000000E+00 0. -1.
         11    1    3    3    0    0 -0.23917828970E+01  0.33539470929E+01 -0.55369861178E+00  0.41564611080E+01  0.51100000000E-03 0. -1.
        -11    1    3    3    0    0 -0.46365504448E+00  0.49098358580E+01 -0.80404472888E+00  0.49967942063E+01  0.51100000000E-03 0.  1.
        -12    1    3    3    0    0 -0.15569570279E+02  0.18494205469E+02  0.30135370276E+02  0.38634022523E+02  0.00000000000E+00 0.  1.
</event>
<event>
 7    1  0.2414091E-009  0.4778726E+02  0.7816164E-02  0.1312668E+00
        -11   -1    0    0    0    0  0.00000000000E+00  0.00000000000E+00  0.45593999997E+02  0.45594000000E+02  0.51100000000E-03 0.  1.
         11   -1    0    0    0    0 -0.00000000000E+00 -0.00000000000E+00 -0.45593999997E+02  0.45594000000E+02  0.51100000000E-03 0. -1.
    9900012    2    1    2    0    0 -0.15801162284E+02  0.21624432410E+01  0.40364231275E+02  0.47787262026E+02  0.19999958880E+02 0.  0.
         12    1    1    2    0    0  0.15801162284E+02 -0.21624432410E+01 -0.40364231275E+02  0.43400737974E+02  0.00000000000E+00 0. -1.
         11    1    3    3    0    0 -0.25643253634E+01  0.61902485406E+01  0.50632676960E+01  0.83983106388E+01  0.51100000000E-03 0. -1.
        -11    1    3    3    0    0 -0.99935223273E+01 -0.23911002815E+00  0.12281889434E+02  0.15835797121E+02  0.51100000000E-03 0.  1.
        -12    1    3    3    0    0 -0.32433145930E+01 -0.37886952714E+01  0.23019074145E+02  0.23553154266E+02  0.00000000000E+00 0.  1.
</event>
<event>
 7    1  0.2414091E-009  0.4778725E+02  0.7816164E-02  0.1312668E+00
        -11   -1    0    0    0    0  0.00000000000E+00  0.00000000000E+00  0.45593999997E+02  0.45594000000E+02  0.51100000000E-03 0.  1.
         11   -1    0    0    0    0 -0.00000000000E+00 -0.00000000000E+00 -0.45593999997E+02  0.45594000000E+02  0.51100000000E-03 0. -1.
    9900012    2    1    2    0    0 -0.36069963017E+01 -0.40218791061E+01  0.43063197071E+02  0.47787252589E+02  0.19999915856E+02 0.  0.
         12    1    1    2    0    0  0.36069963017E+01  0.40218791061E+01 -0.43063197071E+02  0.43400747411E+02  0.00000000000E+00 0. -1.
         11    1    3    3    0    0  0.80811252579E+00 -0.29653533304E+01  0.18150123273E+00  0.30788486789E+01  0.51100000000E-03 0. -1.
        -11    1    3    3    0    0 -0.34862347671E+01  0.69369808680E+00  0.26643467232E+01  0.44422734731E+01  0.51100000000E-03 0.  1.
        -12    1    3    3    0    0 -0.92887406036E+00 -0.17502238625E+01  0.40217349115E+02  0.40266130437E+02  0.00000000000E+00 0.  1.
</event>
<event>
 7    1  0.2414091E-009  0.4778727E+02  0.7816164E-02  0.1312668E+00
        -11   -1    0    0    0    0  0.00000000000E+00  0.00000000000E+00  0.45593999997E+02  0.45594000000E+02  0.51100000000E-03 0.  1.
         11   -1    0    0    0    0 -0.00000000000E+00 -0.00000000000E+00 -0.45593999997E+02  0.45594000000E+02  0.51100000000E-03 0. -1.
    9900012    2    1    2    0    0 -0.30767562715E+02 -0.24023321575E+02  0.18969986126E+02  0.47787271106E+02  0.20000000279E+02 0.  0.
         12    1    1    2    0    0  0.30767562715E+02  0.24023321575E+02 -0.18969986126E+02  0.43400728894E+02  0.00000000000E+00 0. -1.
         11    1    3    3    0    0 -0.12916877967E+02 -0.14255165978E+01  0.88813006226E+01  0.15740245709E+02  0.51100000000E-03 0. -1.
        -11    1    3    3    0    0 -0.56319176089E+01 -0.12754772201E+01  0.27744361898E+01  0.64064681787E+01  0.51100000000E-03 0.  1.
        -12    1    3    3    0    0 -0.12218767140E+02 -0.21322327758E+02  0.73142493136E+01  0.25640557218E+02  0.00000000000E+00 0.  1.
</event>
<event>
 7    1  0.2414091E-009  0.4778727E+02  0.7816164E-02  0.1312668E+00
        -11   -1    0    0    0    0  0.00000000000E+00  0.00000000000E+00  0.45593999997E+02  0.45594000000E+02  0.51100000000E-03 0. -1.
         11   -1    0    0    0    0 -0.00000000000E+00 -0.00000000000E+00 -0.45593999997E+02  0.45594000000E+02  0.51100000000E-03 0.  1.
    9900012    2    1    2    0    0  0.70208271157E+01  0.36198380065E+02  0.22891238290E+02  0.47787268172E+02  0.19999986905E+02 0.  0.
         12    1    1    2    0    0 -0.70208271157E+01 -0.36198380065E+02 -0.22891238290E+02  0.43400731828E+02  0.00000000000E+00 0. -1.
         11    1    3    3    0    0  0.68606673121E+01  0.80646427404E+01  0.91659112541E+01  0.14004326042E+02  0.51100000000E-03 0. -1.
        -11    1    3    3    0    0  0.50252152478E+01  0.20476835685E+02  0.61468272282E+01  0.21962173690E+02  0.51100000000E-03 0.  1.
         12    1    3    3    0    0 -0.48650554442E+01  0.76569016397E+01  0.75784998080E+01  0.11820768441E+02  0.00000000000E+00 0. -1.
</event>
<event>
 7    1  0.2414091E-009  0.4778728E+02  0.7816164E-02  0.1312668E+00
        -11   -1    0    0    0    0  0.00000000000E+00  0.00000000000E+00  0.45593999997E+02  0.45594000000E+02  0.51100000000E-03 0.  1.
         11   -1    0    0    0    0 -0.00000000000E+00 -0.00000000000E+00 -0.45593999997E+02  0.45594000000E+02  0.51100000000E-03 0. -1.
    9900012    2    1    2    0    0 -0.29625762164E+02  0.28259403737E+02  0.14399411306E+02  0.47787277318E+02  0.20000028603E+02 0.  0.
         12    1    1    2    0    0  0.29625762164E+02 -0.28259403737E+02 -0.14399411306E+02  0.43400722682E+02  0.00000000000E+00 0. -1.
         11    1    3    3    0    0 -0.63894568142E+00  0.63693500736E+01  0.14995928120E+01  0.65746217235E+01  0.51100000000E-03 0. -1.
        -11    1    3    3    0    0 -0.11316236282E+02  0.17317824687E+02  0.47626119002E+01  0.21228441484E+02  0.51100000000E-03 0.  1.
        -12    1    3    3    0    0 -0.17670580201E+02  0.45722289761E+01  0.81372065943E+01  0.19984214110E+02  0.00000000000E+00 0.  1.
</event>
<event>
 7    1  0.2414091E-009  0.4778726E+02  0.7816164E-02  0.1312668E+00
        -11   -1    0    0    0    0  0.00000000000E+00  0.00000000000E+00  0.45593999997E+02  0.45594000000E+02  0.51100000000E-03 0.  1.
         11   -1    0    0    0    0 -0.00000000000E+00 -0.00000000000E+00 -0.45593999997E+02  0.45594000000E+02  0.51100000000E-03 0. -1.
    9900012    2    1    2    0    0 -0.26103511083E+02 -0.15471200098E+02  0.31030192694E+02  0.47787260583E+02  0.19999952302E+02 0.  0.
         12    1    1    2    0    0  0.26103511083E+02  0.15471200098E+02 -0.31030192694E+02  0.43400739417E+02  0.00000000000E+00 0. -1.
         11    1    3    3    0    0 -0.73145625830E+01  0.65632420551E+00  0.17812367957E+02  0.19266915678E+02  0.51100000000E-03 0. -1.
        -11    1    3    3    0    0 -0.76374175190E+01 -0.97970290065E+01  0.71651369732E+01  0.14340540848E+02  0.51100000000E-03 0.  1.
        -12    1    3    3    0    0 -0.11151530981E+02 -0.63304952966E+01  0.60526877631E+01  0.14179804057E+02  0.00000000000E+00 0.  1.
</event>
<event>
 7    1  0.2414091E-009  0.4778727E+02  0.7816164E-02  0.1312668E+00
        -11   -1    0    0    0    0  0.00000000000E+00  0.00000000000E+00  0.45593999997E+02  0.45594000000E+02  0.51100000000E-03 0.  1.
         11   -1    0    0    0    0 -0.00000000000E+00 -0.00000000000E+00 -0.45593999997E+02  0.45594000000E+02  0.51100000000E-03 0. -1.
    9900012    2    1    2    0    0  0.92141197636E+01 -0.41861944595E+02 -0.68044832317E+01  0.47787269587E+02  0.19999993355E+02 0.  0.
         12    1    1    2    0    0 -0.92141197636E+01  0.41861944595E+02  0.68044832317E+01  0.43400730413E+02  0.00000000000E+00 0. -1.
         11    1    3    3    0    0 -0.80396737717E+00 -0.42382406508E+01  0.17080712028E+01  0.46396718475E+01  0.51100000000E-03 0. -1.
        -11    1    3    3    0    0 -0.43896849549E+01 -0.12030114535E+02 -0.10801150323E+01  0.12851444995E+02  0.51100000000E-03 0.  1.
         12    1    3    3    0    0  0.14407772096E+02 -0.25593589410E+02 -0.74324394021E+01  0.30296152744E+02  0.00000000000E+00 0. -1.
</event>
<event>
 7    1 -0.2414091E-009  0.4778727E+02  0.7816164E-02  0.1312668E+00
        -11   -1    0    0    0    0  0.00000000000E+00  0.00000000000E+00  0.45593999997E+02  0.45594000000E+02  0.51100000000E-03 0. -1.
         11   -1    0    0    0    0 -0.00000000000E+00 -0.00000000000E+00 -0.45593999997E+02  0.45594000000E+02  0.51100000000E-03 0.  1.
    9900012    2    1    2    0    0  0.34137844300E+02  0.53042495131E+01 -0.26269676702E+02  0.47787269702E+02  0.19999993880E+02 0.  0.
         12    1    1    2    0    0 -0.34137844300E+02 -0.53042495131E+01  0.26269676702E+02  0.43400730298E+02  0.00000000000E+00 0. -1.
         11    1    3    3    0    0  0.11070590369E+02  0.25017870167E+01 -0.32966413842E+01  0.11818830486E+02  0.51100000000E-03 0. -1.
        -11    1    3    3    0    0  0.17173112607E+02 -0.50063704809E+01 -0.14537321318E+02  0.23050233261E+02  0.51100000000E-03 0.  1.
        -12    1    3    3    0    0  0.58941413249E+01  0.78088329773E+01 -0.84357139996E+01  0.12918205955E+02  0.00000000000E+00 0.  1.
</event>
<event>
 7    1  0.2414091E-009  0.4778727E+02  0.7816164E-02  0.1312668E+00
        -11   -1    0    0    0    0  0.00000000000E+00  0.00000000000E+00  0.45593999997E+02  0.45594000000E+02  0.51100000000E-03 0.  1.
         11   -1    0    0    0    0 -0.00000000000E+00 -0.00000000000E+00 -0.45593999997E+02  0.45594000000E+02  0.51100000000E-03 0. -1.
    9900012    2    1    2    0    0  0.32247754985E+01  0.26967880578E+02  0.33851993982E+02  0.47787271246E+02  0.20000000918E+02 0.  0.
         12    1    1    2    0    0 -0.32247754985E+01 -0.26967880578E+02 -0.33851993982E+02  0.43400728754E+02  0.00000000000E+00 0. -1.
         11    1    3    3    0    0 -0.19787802321E+01  0.44931385419E+01  0.26851101492E+01  0.55958629306E+01  0.51100000000E-03 0.  1.
        -11    1    3    3    0    0  0.57415127964E+00  0.59488382968E+01 -0.67956323177E+00  0.60149923708E+01  0.51100000000E-03 0. -1.
        -12    1    3    3    0    0  0.46294044509E+01  0.16525903739E+02  0.31846447064E+02  0.36176415944E+02  0.00000000000E+00 0.  1.
</event>
<event>
 7    1  0.2414091E-009  0.4778726E+02  0.7816164E-02  0.1312668E+00
        -11   -1    0    0    0    0  0.00000000000E+00  0.00000000000E+00  0.45593999997E+02  0.45594000000E+02  0.51100000000E-03 0.  1.
         11   -1    0    0    0    0 -0.00000000000E+00 -0.00000000000E+00 -0.45593999997E+02  0.45594000000E+02  0.51100000000E-03 0. -1.
    9900012    2    1    2    0    0 -0.12273232422E+01  0.84175462022E+01  0.42558931021E+02  0.47787262494E+02  0.19999961016E+02 0.  0.
         12    1    1    2    0    0  0.12273232422E+01 -0.84175462022E+01 -0.42558931021E+02  0.43400737506E+02  0.00000000000E+00 0. -1.
         11    1    3    3    0    0 -0.74062281287E+00  0.27612140393E+01  0.19157299504E+00  0.28652269710E+01  0.51100000000E-03 0. -1.
        -11    1    3    3    0    0  0.35747147553E+01  0.61199953102E+01  0.97736743778E+01  0.12073012850E+02  0.51100000000E-03 0.  1.
         12    1    3    3    0    0 -0.40614151846E+01 -0.46366314722E+00  0.32593683648E+02  0.32849022673E+02  0.00000000000E+00 0. -1.
</event>
<event>
 7    1  0.2414091E-009  0.4778727E+02  0.7816164E-02  0.1312668E+00
        -11   -1    0    0    0    0  0.00000000000E+00  0.00000000000E+00  0.45593999997E+02  0.45594000000E+02  0.51100000000E-03 0.  1.
         11   -1    0    0    0    0 -0.00000000000E+00 -0.00000000000E+00 -0.45593999997E+02  0.45594000000E+02  0.51100000000E-03 0. -1.
    9900012    2    1    2    0    0 -0.34893225407E+02 -0.24972533811E+02  0.65160337147E+01  0.47787270517E+02  0.19999997596E+02 0.  0.
         12    1    1    2    0    0  0.34893225407E+02  0.24972533811E+02 -0.65160337147E+01  0.43400729483E+02  0.00000000000E+00 0. -1.
         11    1    3    3    0    0 -0.10006284285E+02  0.16001115900E+01  0.17067111187E+01  0.10276134750E+02  0.51100000000E-03 0. -1.
        -11    1    3    3    0    0 -0.70201048200E+01 -0.37827850249E+01  0.29154567455E+01  0.84906550115E+01  0.51100000000E-03 0.  1.
        -12    1    3    3    0    0 -0.17866836302E+02 -0.22789860376E+02  0.18938658504E+01  0.29020480755E+02  0.00000000000E+00 0.  1.
</event>
<event>
 7    1  0.2414091E-009  0.4778727E+02  0.7816164E-02  0.1312668E+00
        -11   -1    0    0    0    0  0.00000000000E+00  0.00000000000E+00  0.45593999997E+02  0.45594000000E+02  0.51100000000E-03 0.  1.
         11   -1    0    0    0    0 -0.00000000000E+00 -0.00000000000E+00 -0.45593999997E+02  0.45594000000E+02  0.51100000000E-03 0. -1.
    9900012    2    1    2    0    0  0.32072337561E+02 -0.28819825844E+02 -0.49402630252E+01  0.47787269625E+02  0.19999993530E+02 0.  0.
         12    1    1    2    0    0 -0.32072337561E+02  0.28819825844E+02  0.49402630252E+01  0.43400730375E+02  0.00000000000E+00 0. -1.
         11    1    3    3    0    0 -0.40088936703E+00 -0.15442087991E+00  0.76575076547E+00  0.87802766966E+00  0.51100000000E-03 0. -1.
        -11    1    3    3    0    0  0.22060532522E+02 -0.28629113034E+02 -0.47291672392E+01  0.36450764482E+02  0.51100000000E-03 0.  1.
        -12    1    3    3    0    0  0.10412694405E+02 -0.36291930180E-01 -0.97684655148E+00  0.10458477474E+02  0.00000000000E+00 0.  1.
</event>
<event>
 7    1  0.2414091E-009  0.4778727E+02  0.7816164E-02  0.1312668E+00
        -11   -1    0    0    0    0  0.00000000000E+00  0.00000000000E+00  0.45593999997E+02  0.45594000000E+02  0.51100000000E-03 0.  1.
         11   -1    0    0    0    0 -0.00000000000E+00 -0.00000000000E+00 -0.45593999997E+02  0.45594000000E+02  0.51100000000E-03 0. -1.
    9900012    2    1    2    0    0 -0.21509499488E+02  0.37490973830E+02  0.39231887429E+01  0.47787273084E+02  0.20000009299E+02 0.  0.
         12    1    1    2    0    0  0.21509499488E+02 -0.37490973830E+02 -0.39231887429E+01  0.43400726916E+02  0.00000000000E+00 0. -1.
         11    1    3    3    0    0 -0.51493380515E+01  0.76928068308E+01  0.43020227896E+01  0.10207955704E+02  0.51100000000E-03 0. -1.
        -11    1    3    3    0    0 -0.15510863798E+02  0.30703874418E+02 -0.31494468502E+01  0.34543216639E+02  0.51100000000E-03 0.  1.
         12    1    3    3    0    0 -0.84929763824E+00 -0.90570741855E+00  0.27706128035E+01  0.30361007416E+01  0.00000000000E+00 0. -1.
</event>
<event>
 7    1  0.2414091E-009  0.4778727E+02  0.7816164E-02  0.1312668E+00
        -11   -1    0    0    0    0  0.00000000000E+00  0.00000000000E+00  0.45593999997E+02  0.45594000000E+02  0.51100000000E-03 0.  1.
         11   -1    0    0    0    0 -0.00000000000E+00 -0.00000000000E+00 -0.45593999997E+02  0.45594000000E+02  0.51100000000E-03 0. -1.
    9900012    2    1    2    0    0 -0.27921574568E+02 -0.21853142046E+02  0.25028961283E+02  0.47787273663E+02  0.20000011940E+02 0.  0.
         12    1    1    2    0    0  0.27921574568E+02  0.21853142046E+02 -0.25028961283E+02  0.43400726337E+02  0.00000000000E+00 0. -1.
         11    1    3    3    0    0 -0.20176433333E+01  0.25099758805E+01  0.27763332084E+01  0.42519277847E+01  0.51100000000E-03 0. -1.
        -11    1    3    3    0    0 -0.10192800896E+02 -0.16946433587E+02  0.14436309440E+02  0.24484318082E+02  0.51100000000E-03 0.  1.
         12    1    3    3    0    0 -0.15711130339E+02 -0.74166843392E+01  0.78163186352E+01  0.19051027797E+02  0.00000000000E+00 0. -1.
</event>
<event>
 7    1  0.2414091E-009  0.4778727E+02  0.7816164E-02  0.1312668E+00
        -11   -1    0    0    0    0  0.00000000000E+00  0.00000000000E+00  0.45593999997E+02  0.45594000000E+02  0.51100000000E-03 0.  1.
         11   -1    0    0    0    0 -0.00000000000E+00 -0.00000000000E+00 -0.45593999997E+02  0.45594000000E+02  0.51100000000E-03 0. -1.
    9900012    2    1    2    0    0  0.41752216303E+02 -0.11753248177E+02  0.14955938966E+01  0.47787271780E+02  0.20000003355E+02 0.  0.
         12    1    1    2    0    0 -0.41752216303E+02  0.11753248177E+02 -0.14955938966E+01  0.43400728220E+02  0.00000000000E+00 0. -1.
         11    1    3    3    0    0  0.47020914777E+01 -0.30564876208E+01 -0.30962023453E+01  0.64061103695E+01  0.51100000000E-03 0. -1.
        -11    1    3    3    0    0  0.64678563916E+00  0.88301693639E+00 -0.28117445348E+01  0.30172766137E+01  0.51100000000E-03 0.  1.
        -12    1    3    3    0    0  0.36403339186E+02 -0.95797774924E+01  0.74035407767E+01  0.38363884797E+02  0.00000000000E+00 0.  1.
</event>
<event>
 7    1  0.2414091E-009  0.4778725E+02  0.7816164E-02  0.1312668E+00
        -11   -1    0    0    0    0  0.00000000000E+00  0.00000000000E+00  0.45593999997E+02  0.45594000000E+02  0.51100000000E-03 0.  1.
         11   -1    0    0    0    0 -0.00000000000E+00 -0.00000000000E+00 -0.45593999997E+02  0.45594000000E+02  0.51100000000E-03 0. -1.
    9900012    2    1    2    0    0 -0.24008780506E+02  0.49939822436E+01  0.35808712224E+02  0.47787248034E+02  0.19999895087E+02 0.  0.
         12    1    1    2    0    0  0.24008780506E+02 -0.49939822436E+01 -0.35808712224E+02  0.43400751966E+02  0.00000000000E+00 0. -1.
         11    1    3    3    0    0 -0.14897165952E+02  0.85272970647E+01  0.31847586670E+02  0.36178849147E+02  0.51100000000E-03 0. -1.
        -11    1    3    3    0    0 -0.25191781990E+01  0.87690978306E+00 -0.15581296205E+00  0.26719856860E+01  0.51100000000E-03 0.  1.
        -12    1    3    3    0    0 -0.65924363553E+01 -0.44102246042E+01  0.41169385158E+01  0.89364132011E+01  0.00000000000E+00 0.  1.
</event>
<event>
 7    1  0.2414091E-009  0.4778727E+02  0.7816164E-02  0.1312668E+00
        -11   -1    0    0    0    0  0.00000000000E+00  0.00000000000E+00  0.45593999997E+02  0.45594000000E+02  0.51100000000E-03 0. -1.
         11   -1    0    0    0    0 -0.00000000000E+00 -0.00000000000E+00 -0.45593999997E+02  0.45594000000E+02  0.51100000000E-03 0.  1.
    9900012    2    1    2    0    0  0.54664496998E+01 -0.36554872763E+02 -0.22748242013E+02  0.47787270631E+02  0.19999998116E+02 0.  0.
         12    1    1    2    0    0 -0.54664496998E+01  0.36554872763E+02  0.22748242013E+02  0.43400729369E+02  0.00000000000E+00 0. -1.
         11    1    3    3    0    0 -0.36063139929E+01 -0.10787049150E+01 -0.92328224631E+00  0.38757651214E+01  0.51100000000E-03 0. -1.
        -11    1    3    3    0    0  0.24989985830E+01 -0.11331428477E+02 -0.15535196713E+01  0.11707249416E+02  0.51100000000E-03 0.  1.
        -12    1    3    3    0    0  0.65737651097E+01 -0.24144739371E+02 -0.20271440096E+02  0.32204256094E+02  0.00000000000E+00 0.  1.
</event>
<event>
 7    1  0.2414091E-009  0.4778727E+02  0.7816164E-02  0.1312668E+00
        -11   -1    0    0    0    0  0.00000000000E+00  0.00000000000E+00  0.45593999997E+02  0.45594000000E+02  0.51100000000E-03 0.  1.
         11   -1    0    0    0    0 -0.00000000000E+00 -0.00000000000E+00 -0.45593999997E+02  0.45594000000E+02  0.51100000000E-03 0. -1.
    9900012    2    1    2    0    0 -0.18394309969E+02 -0.10172069055E+02  0.37971063256E+02  0.47787271056E+02  0.20000000053E+02 0.  0.
         12    1    1    2    0    0  0.18394309969E+02  0.10172069055E+02 -0.37971063256E+02  0.43400728944E+02  0.00000000000E+00 0. -1.
         11    1    3    3    0    0 -0.42680338853E+01 -0.22289819089E+01  0.15853514757E+02  0.16568596923E+02  0.51100000000E-03 0. -1.
        -11    1    3    3    0    0 -0.67660673410E+01  0.18235153765E+01  0.16162875506E+02  0.17616566648E+02  0.51100000000E-03 0.  1.
         12    1    3    3    0    0 -0.73602087431E+01 -0.97666025224E+01  0.59546729931E+01  0.13602107485E+02  0.00000000000E+00 0. -1.
</event>
<event>
 7    1  0.2414091E-009  0.4778727E+02  0.7816164E-02  0.1312668E+00
        -11   -1    0    0    0    0  0.00000000000E+00  0.00000000000E+00  0.45593999997E+02  0.45594000000E+02  0.51100000000E-03 0. -1.
         11   -1    0    0    0    0 -0.00000000000E+00 -0.00000000000E+00 -0.45593999997E+02  0.45594000000E+02  0.51100000000E-03 0.  1.
    9900012    2    1    2    0    0  0.26731248173E+02  0.19859852833E+02 -0.27832534568E+02  0.47787270007E+02  0.19999995270E+02 0.  0.
         12    1    1    2    0    0 -0.26731248173E+02 -0.19859852833E+02  0.27832534568E+02  0.43400729993E+02  0.00000000000E+00 0. -1.
         11    1    3    3    0    0  0.69201239508E+01  0.45291093459E+01 -0.23847055209E+00  0.82739238229E+01  0.51100000000E-03 0. -1.
        -11    1    3    3    0    0  0.18527990537E+02  0.14823872575E+02 -0.17903033615E+02  0.29724606714E+02  0.51100000000E-03 0.  1.
         12    1    3    3    0    0  0.12831336857E+01  0.50687091256E+00 -0.96910304012E+01  0.97887394701E+01  0.00000000000E+00 0. -1.
</event>
<event>
 7    1  0.2414091E-009  0.4778728E+02  0.7816164E-02  0.1312668E+00
        -11   -1    0    0    0    0  0.00000000000E+00  0.00000000000E+00  0.45593999997E+02  0.45594000000E+02  0.51100000000E-03 0.  1.
         11   -1    0    0    0    0 -0.00000000000E+00 -0.00000000000E+00 -0.45593999997E+02  0.45594000000E+02  0.51100000000E-03 0. -1.
    9900012    2    1    2    0    0  0.21914116866E+02 -0.84619104590E+01  0.36493695993E+02  0.47787282335E+02  0.20000051479E+02 0.  0.
         12    1    1    2    0    0 -0.21914116866E+02  0.84619104590E+01 -0.36493695993E+02  0.43400717665E+02  0.00000000000E+00 0. -1.
         11    1    3    3    0    0  0.92145171341E+01 -0.15112506721E+01  0.11036400909E+02  0.14456602294E+02  0.51100000000E-03 0. -1.
        -11    1    3    3    0    0  0.45441582151E+01 -0.43219997710E+01  0.23788270402E+02  0.24601033817E+02  0.51100000000E-03 0.  1.
         12    1    3    3    0    0  0.81554415166E+01 -0.26286600159E+01  0.16690246823E+01  0.87296462242E+01  0.00000000000E+00 0. -1.
</event>
<event>
 7    1  0.2414091E-009  0.4778727E+02  0.7816164E-02  0.1312668E+00
        -11   -1    0    0    0    0  0.00000000000E+00  0.00000000000E+00  0.45593999997E+02  0.45594000000E+02  0.51100000000E-03 0.  1.
         11   -1    0    0    0    0 -0.00000000000E+00 -0.00000000000E+00 -0.45593999997E+02  0.45594000000E+02  0.51100000000E-03 0. -1.
    9900012    2    1    2    0    0  0.23636713213E+02  0.16792166976E+02  0.32294768480E+02  0.47787272421E+02  0.20000006274E+02 0.  0.
         12    1    1    2    0    0 -0.23636713213E+02 -0.16792166976E+02 -0.32294768480E+02  0.43400727579E+02  0.00000000000E+00 0. -1.
         11    1    3    3    0    0  0.53894183965E+01  0.52264983354E+01  0.13315912981E+02  0.15286453293E+02  0.51100000000E-03 0. -1.
        -11    1    3    3    0    0  0.29748246937E+01 -0.36459245731E+01  0.46619444153E+01  0.66239017160E+01  0.51100000000E-03 0.  1.
         12    1    3    3    0    0  0.15272470122E+02  0.15211593214E+02  0.14316911084E+02  0.25876917411E+02  0.00000000000E+00 0. -1.
</event>
<event>
 7    1  0.2414091E-009  0.4778727E+02  0.7816164E-02  0.1312668E+00
        -11   -1    0    0    0    0  0.00000000000E+00  0.00000000000E+00  0.45593999997E+02  0.45594000000E+02  0.51100000000E-03 0.  1.
         11   -1    0    0    0    0 -0.00000000000E+00 -0.00000000000E+00 -0.45593999997E+02  0.45594000000E+02  0.51100000000E-03 0. -1.
    9900012    2    1    2    0    0 -0.32215970152E+02 -0.16028890649E+01  0.29037657273E+02  0.47787268139E+02  0.19999986752E+02 0.  0.
         12    1    1    2    0    0  0.32215970152E+02  0.16028890649E+01 -0.29037657273E+02  0.43400731861E+02  0.00000000000E+00 0. -1.
         11    1    3    3    0    0  0.62603155091E-01 -0.11304016398E+01 -0.36757477150E+00  0.11903102520E+01  0.51100000000E-03 0. -1.
        -11    1    3    3    0    0 -0.31817630080E+02  0.79439692107E+00  0.21107824489E+02  0.38190743712E+02  0.51100000000E-03 0.  1.
        -12    1    3    3    0    0 -0.46094322732E+00 -0.12668843461E+01  0.82974075557E+01  0.84062141747E+01  0.00000000000E+00 0.  1.
</event>
<event>
 7    1  0.2414091E-009  0.4778726E+02  0.7816164E-02  0.1312668E+00
        -11   -1    0    0    0    0  0.00000000000E+00  0.00000000000E+00  0.45593999997E+02  0.45594000000E+02  0.51100000000E-03 0.  1.
         11   -1    0    0    0    0 -0.00000000000E+00 -0.00000000000E+00 -0.45593999997E+02  0.45594000000E+02  0.51100000000E-03 0. -1.
    9900012    2    1    2    0    0 -0.66348318720E+01 -0.39052124025E+01  0.42712436902E+02  0.47787263324E+02  0.19999964801E+02 0.  0.
         12    1    1    2    0    0  0.66348318720E+01  0.39052124025E+01 -0.42712436902E+02  0.43400736676E+02  0.00000000000E+00 0. -1.
         11    1    3    3    0    0  0.32052398748E+01 -0.77300060858E+01  0.24664324544E+02  0.26045257961E+02  0.51100000000E-03 0. -1.
        -11    1    3    3    0    0 -0.18472571002E+01 -0.10050507643E+01  0.68249545827E+01  0.71416028418E+01  0.51100000000E-03 0.  1.
        -12    1    3    3    0    0 -0.79928146466E+01  0.48298444476E+01  0.11223157775E+02  0.14600402522E+02  0.00000000000E+00 0.  1.
</event>
<event>
 7    1  0.2414091E-009  0.4778727E+02  0.7816164E-02  0.1312668E+00
        -11   -1    0    0    0    0  0.00000000000E+00  0.00000000000E+00  0.45593999997E+02  0.45594000000E+02  0.51100000000E-03 0. -1.
         11   -1    0    0    0    0 -0.00000000000E+00 -0.00000000000E+00 -0.45593999997E+02  0.45594000000E+02  0.51100000000E-03 0.  1.
    9900012    2    1    2    0    0 -0.31965226183E+02 -0.26111011571E+02  0.13418744570E+02  0.47787270559E+02  0.19999997785E+02 0.  0.
         12    1    1    2    0    0  0.31965226183E+02  0.26111011571E+02 -0.13418744570E+02  0.43400729441E+02  0.00000000000E+00 0. -1.
         11    1    3    3    0    0 -0.20771804122E+02 -0.12907428799E+02  0.73878884357E+00  0.24466617541E+02  0.51100000000E-03 0.  1.
        -11    1    3    3    0    0 -0.47415995381E+01  0.14674536655E+00  0.31617666542E+01  0.57009708839E+01  0.51100000000E-03 0. -1.
        -12    1    3    3    0    0 -0.64518225234E+01 -0.13350328138E+02  0.95181890724E+01  0.17619682134E+02  0.00000000000E+00 0.  1.
</event>
<event>
 7    1  0.2414091E-009  0.4778727E+02  0.7816164E-02  0.1312668E+00
        -11   -1    0    0    0    0  0.00000000000E+00  0.00000000000E+00  0.45593999997E+02  0.45594000000E+02  0.51100000000E-03 0. -1.
         11   -1    0    0    0    0 -0.00000000000E+00 -0.00000000000E+00 -0.45593999997E+02  0.45594000000E+02  0.51100000000E-03 0.  1.
    9900012    2    1    2    0    0 -0.19625482920E+01  0.37666001731E+01 -0.43192413748E+02  0.47787268693E+02  0.19999989278E+02 0.  0.
         12    1    1    2    0    0  0.19625482920E+01 -0.37666001731E+01  0.43192413748E+02  0.43400731307E+02  0.00000000000E+00 0. -1.
         11    1    3    3    0    0  0.24805424378E+00 -0.44733804456E+00 -0.30876208561E+01  0.31297036674E+01  0.51100000000E-03 0. -1.
        -11    1    3    3    0    0  0.69166357832E+01  0.28491147813E+01 -0.30229352721E+02  0.31141147567E+02  0.51100000000E-03 0.  1.
         12    1    3    3    0    0 -0.91272383190E+01  0.13648234363E+01 -0.98754401700E+01  0.13516417458E+02  0.00000000000E+00 0. -1.
</event>
<event>
 7    1  0.2414091E-009  0.4778727E+02  0.7816164E-02  0.1312668E+00
        -11   -1    0    0    0    0  0.00000000000E+00  0.00000000000E+00  0.45593999997E+02  0.45594000000E+02  0.51100000000E-03 0.  1.
         11   -1    0    0    0    0 -0.00000000000E+00 -0.00000000000E+00 -0.45593999997E+02  0.45594000000E+02  0.51100000000E-03 0. -1.
    9900012    2    1    2    0    0 -0.95829940896E+01  0.17327290137E+02  0.38620647259E+02  0.47787272427E+02  0.20000006303E+02 0.  0.
         12    1    1    2    0    0  0.95829940896E+01 -0.17327290137E+02 -0.38620647259E+02  0.43400727573E+02  0.00000000000E+00 0. -1.
         11    1    3    3    0    0 -0.15582710870E+01 -0.42665680889E+01  0.39319772326E+01  0.60076831854E+01  0.51100000000E-03 0. -1.
        -11    1    3    3    0    0 -0.10802800865E+01  0.14648612050E+01  0.15557212334E+01  0.23943876529E+01  0.51100000000E-03 0.  1.
         12    1    3    3    0    0 -0.69444429161E+01  0.20128997021E+02  0.33132948793E+02  0.39385201589E+02  0.00000000000E+00 0. -1.
</event>
<event>
 7    1  0.2414091E-009  0.4778727E+02  0.7816164E-02  0.1312668E+00
        -11   -1    0    0    0    0  0.00000000000E+00  0.00000000000E+00  0.45593999997E+02  0.45594000000E+02  0.51100000000E-03 0.  1.
         11   -1    0    0    0    0 -0.00000000000E+00 -0.00000000000E+00 -0.45593999997E+02  0.45594000000E+02  0.51100000000E-03 0. -1.
    9900012    2    1    2    0    0  0.31971592671E+01  0.16981051644E+02  0.39812625421E+02  0.47787273218E+02  0.20000009908E+02 0.  0.
         12    1    1    2    0    0 -0.31971592671E+01 -0.16981051644E+02 -0.39812625421E+02  0.43400726782E+02  0.00000000000E+00 0. -1.
         11    1    3    3    0    0  0.17361890221E+01 -0.10756903804E+00  0.11234458523E+02  0.11368332418E+02  0.51100000000E-03 0. -1.
        -11    1    3    3    0    0  0.50039363194E+01  0.11010781392E+02  0.26425713994E+02  0.29061917451E+02  0.51100000000E-03 0.  1.
         12    1    3    3    0    0 -0.35429660744E+01  0.60778392900E+01  0.21524529042E+01  0.73570233481E+01  0.00000000000E+00 0. -1.
</event>
<event>
 7    1  0.2414091E-009  0.4778728E+02  0.7816164E-02  0.1312668E+00
        -11   -1    0    0    0    0  0.00000000000E+00  0.00000000000E+00  0.45593999997E+02  0.45594000000E+02  0.51100000000E-03 0.  1.
         11   -1    0    0    0    0 -0.00000000000E+00 -0.00000000000E+00 -0.45593999997E+02  0.45594000000E+02  0.51100000000E-03 0. -1.
    9900012    2    1    2    0    0  0.40472129930E+02  0.60122789671E+01  0.14473480553E+02  0.47787280665E+02  0.20000043865E+02 0.  0.
         12    1    1    2    0    0 -0.40472129930E+02 -0.60122789671E+01 -0.14473480553E+02  0.43400719335E+02  0.00000000000E+00 0. -1.
         11    1    3    3    0    0  0.68876394735E+01  0.71532680350E+01 -0.98522755696E+00  0.99789525852E+01  0.51100000000E-03 0. -1.
        -11    1    3    3    0    0  0.76355679699E+01  0.82540898738E+00  0.71438006953E+01  0.10488903034E+02  0.51100000000E-03 0.  1.
        -12    1    3    3    0    0  0.25948922487E+02 -0.19663980553E+01  0.83149074145E+01  0.27319425046E+02  0.00000000000E+00 0.  1.
</event>
<event>
 7    1  0.2414091E-009  0.4778727E+02  0.7816164E-02  0.1312668E+00
        -11   -1    0    0    0    0  0.00000000000E+00  0.00000000000E+00  0.45593999997E+02  0.45594000000E+02  0.51100000000E-03 0. -1.
         11   -1    0    0    0    0 -0.00000000000E+00 -0.00000000000E+00 -0.45593999997E+02  0.45594000000E+02  0.51100000000E-03 0.  1.
    9900012    2    1    2    0    0  0.27821301638E+02 -0.30307775464E+02  0.13821625329E+02  0.47787269532E+02  0.19999993104E+02 0.  0.
         12    1    1    2    0    0 -0.27821301638E+02  0.30307775464E+02 -0.13821625329E+02  0.43400730468E+02  0.00000000000E+00 0. -1.
         11    1    3    3    0    0  0.17621469285E+01 -0.39850906404E+01 -0.10378319327E+01  0.44791968691E+01  0.51100000000E-03 0. -1.
        -11    1    3    3    0    0  0.75956950655E+01 -0.18922649864E+02  0.44999424436E+01  0.20880870280E+02  0.51100000000E-03 0.  1.
         12    1    3    3    0    0  0.18463459644E+02 -0.74000349592E+01  0.10359514819E+02  0.22427202383E+02  0.00000000000E+00 0. -1.
</event>
<event>
 7    1  0.2414091E-009  0.4778727E+02  0.7816164E-02  0.1312668E+00
        -11   -1    0    0    0    0  0.00000000000E+00  0.00000000000E+00  0.45593999997E+02  0.45594000000E+02  0.51100000000E-03 0.  1.
         11   -1    0    0    0    0 -0.00000000000E+00 -0.00000000000E+00 -0.45593999997E+02  0.45594000000E+02  0.51100000000E-03 0. -1.
    9900012    2    1    2    0    0 -0.33271897963E+02 -0.22366403905E+02  0.16623722916E+02  0.47787269807E+02  0.19999994360E+02 0.  0.
         12    1    1    2    0    0  0.33271897963E+02  0.22366403905E+02 -0.16623722916E+02  0.43400730193E+02  0.00000000000E+00 0. -1.
         11    1    3    3    0    0 -0.21266721007E+01 -0.42365410482E+01  0.81901831653E+01  0.94630922440E+01  0.51100000000E-03 0. -1.
        -11    1    3    3    0    0 -0.12612159575E+02 -0.61758525049E+01  0.82146230122E+01  0.16269227234E+02  0.51100000000E-03 0.  1.
         12    1    3    3    0    0 -0.18533066287E+02 -0.11954010352E+02  0.21891673853E+00  0.22054950329E+02  0.00000000000E+00 0. -1.
</event>
<event>
 7    1  0.2414091E-009  0.4778731E+02  0.7816164E-02  0.1312668E+00
        -11   -1    0    0    0    0  0.00000000000E+00  0.00000000000E+00  0.45593999997E+02  0.45594000000E+02  0.51100000000E-03 0.  1.
         11   -1    0    0    0    0 -0.00000000000E+00 -0.00000000000E+00 -0.45593999997E+02  0.45594000000E+02  0.51100000000E-03 0. -1.
    9900012    2    1    2    0    0  0.22370863930E+02  0.62312377293E+01  0.36665183324E+02  0.47787314005E+02  0.20000195874E+02 0.  0.
         12    1    1    2    0    0 -0.22370863930E+02 -0.62312377293E+01 -0.36665183324E+02  0.43400685995E+02  0.00000000000E+00 0. -1.
         11    1    3    3    0    0 -0.30731710771E+00  0.28484940761E+01  0.89892107354E+01  0.94347375275E+01  0.51100000000E-03 0.  1.
        -11    1    3    3    0    0  0.21671446412E+02  0.54954189332E+01  0.18917745056E+02  0.29287067063E+02  0.51100000000E-03 0. -1.
         12    1    3    3    0    0  0.10067346255E+01 -0.21126752800E+01  0.87582275324E+01  0.90655094150E+01  0.00000000000E+00 0. -1.
</event>
<event>
 7    1  0.2414091E-009  0.4778728E+02  0.7816164E-02  0.1312668E+00
        -11   -1    0    0    0    0  0.00000000000E+00  0.00000000000E+00  0.45593999997E+02  0.45594000000E+02  0.51100000000E-03 0.  1.
         11   -1    0    0    0    0 -0.00000000000E+00 -0.00000000000E+00 -0.45593999997E+02  0.45594000000E+02  0.51100000000E-03 0. -1.
    9900012    2    1    2    0    0 -0.22857325017E+02  0.13737395820E+02  0.34241050743E+02  0.47787275273E+02  0.20000019278E+02 0.  0.
         12    1    1    2    0    0  0.22857325017E+02 -0.13737395820E+02 -0.34241050743E+02  0.43400724727E+02  0.00000000000E+00 0. -1.
         11    1    3    3    0    0 -0.81491705482E+01  0.64721889328E+00  0.75876204799E+01  0.11153468417E+02  0.51100000000E-03 0. -1.
        -11    1    3    3    0    0 -0.50759612603E+01 -0.27123528115E+00  0.16544389783E+02  0.17307679938E+02  0.51100000000E-03 0.  1.
         12    1    3    3    0    0 -0.96321932087E+01  0.13361412208E+02  0.10109040480E+02  0.19326126917E+02  0.00000000000E+00 0. -1.
</event>
<event>
 7    1  0.2414091E-009  0.4778727E+02  0.7816164E-02  0.1312668E+00
        -11   -1    0    0    0    0  0.00000000000E+00  0.00000000000E+00  0.45593999997E+02  0.45594000000E+02  0.51100000000E-03 0.  1.
         11   -1    0    0    0    0 -0.00000000000E+00 -0.00000000000E+00 -0.45593999997E+02  0.45594000000E+02  0.51100000000E-03 0. -1.
    9900012    2    1    2    0    0 -0.26907137726E+01 -0.97820240147E+01  0.42198288443E+02  0.47787268648E+02  0.19999989071E+02 0.  0.
         12    1    1    2    0    0  0.26907137726E+01  0.97820240147E+01 -0.42198288443E+02  0.43400731352E+02  0.00000000000E+00 0. -1.
         11    1    3    3    0    0  0.16764432584E+00  0.20266848372E+00 -0.13070003564E+01  0.13332026579E+01  0.51100000000E-03 0. -1.
        -11    1    3    3    0    0 -0.40843101249E+01 -0.10419101734E+01  0.36078911146E+01  0.55483370988E+01  0.51100000000E-03 0.  1.
        -12    1    3    3    0    0  0.12259520265E+01 -0.89427823250E+01  0.39897397685E+02  0.40905728891E+02  0.00000000000E+00 0.  1.
</event>
<event>
 7    1  0.2414091E-009  0.4778727E+02  0.7816164E-02  0.1312668E+00
        -11   -1    0    0    0    0  0.00000000000E+00  0.00000000000E+00  0.45593999997E+02  0.45594000000E+02  0.51100000000E-03 0.  1.
         11   -1    0    0    0    0 -0.00000000000E+00 -0.00000000000E+00 -0.45593999997E+02  0.45594000000E+02  0.51100000000E-03 0. -1.
    9900012    2    1    2    0    0 -0.14871307233E+02 -0.38293126672E+02  0.14003724135E+02  0.47787267071E+02  0.19999981882E+02 0.  0.
         12    1    1    2    0    0  0.14871307233E+02  0.38293126672E+02 -0.14003724135E+02  0.43400732929E+02  0.00000000000E+00 0. -1.
         11    1    3    3    0    0 -0.30777842861E+01 -0.24424786346E+02  0.67024225724E+01  0.25514023845E+02  0.51100000000E-03 0. -1.
        -11    1    3    3    0    0 -0.77033758349E+01 -0.14740210903E+02  0.71072509338E+01  0.18086703205E+02  0.51100000000E-03 0.  1.
         12    1    3    3    0    0 -0.40901471119E+01  0.87187057716E+00  0.19405062906E+00  0.41865400209E+01  0.00000000000E+00 0. -1.
</event>
<event>
 7    1  0.2414091E-009  0.4778727E+02  0.7816164E-02  0.1312668E+00
        -11   -1    0    0    0    0  0.00000000000E+00  0.00000000000E+00  0.45593999997E+02  0.45594000000E+02  0.51100000000E-03 0. -1.
         11   -1    0    0    0    0 -0.00000000000E+00 -0.00000000000E+00 -0.45593999997E+02  0.45594000000E+02  0.51100000000E-03 0.  1.
    9900012    2    1    2    0    0 -0.30364088523E+02 -0.30995769370E+02  0.95272777247E+00  0.47787270963E+02  0.19999999631E+02 0.  0.
         12    1    1    2    0    0  0.30364088523E+02  0.30995769370E+02 -0.95272777247E+00  0.43400729037E+02  0.00000000000E+00 0. -1.
         11    1    3    3    0    0 -0.16525199978E+02 -0.55559328960E+01 -0.79408488087E+00  0.17452254746E+02  0.51100000000E-03 0. -1.
        -11    1    3    3    0    0  0.46824368073E+00  0.59900953798E-01 -0.85876078938E+00  0.97995439859E+00  0.51100000000E-03 0.  1.
        -12    1    3    3    0    0 -0.14307132226E+02 -0.25499737428E+02  0.26055734427E+01  0.29355061819E+02  0.00000000000E+00 0.  1.
</event>
<event>
 7    1  0.2414091E-009  0.4778727E+02  0.7816164E-02  0.1312668E+00
        -11   -1    0    0    0    0  0.00000000000E+00  0.00000000000E+00  0.45593999997E+02  0.45594000000E+02  0.51100000000E-03 0.  1.
         11   -1    0    0    0    0 -0.00000000000E+00 -0.00000000000E+00 -0.45593999997E+02  0.45594000000E+02  0.51100000000E-03 0. -1.
    9900012    2    1    2    0    0 -0.27743809094E+02 -0.13885022276E+02  0.30349801663E+02  0.47787271347E+02  0.20000001379E+02 0.  0.
         12    1    1    2    0    0  0.27743809094E+02  0.13885022276E+02 -0.30349801663E+02  0.43400728653E+02  0.00000000000E+00 0. -1.
         11    1    3    3    0    0 -0.19450810902E+01 -0.22208296276E+01  0.13778202270E+02  0.14090929094E+02  0.51100000000E-03 0.  1.
        -11    1    3    3    0    0 -0.25106026764E+01 -0.30638956728E+01  0.47941914151E+01  0.62189110042E+01  0.51100000000E-03 0. -1.
        -12    1    3    3    0    0 -0.23288125328E+02 -0.86002969755E+01  0.11777407978E+02  0.27477431248E+02  0.00000000000E+00 0.  1.
</event>
<event>
 7    1  0.2414091E-009  0.4778728E+02  0.7816164E-02  0.1312668E+00
        -11   -1    0    0    0    0  0.00000000000E+00  0.00000000000E+00  0.45593999997E+02  0.45594000000E+02  0.51100000000E-03 0. -1.
         11   -1    0    0    0    0 -0.00000000000E+00 -0.00000000000E+00 -0.45593999997E+02  0.45594000000E+02  0.51100000000E-03 0.  1.
    9900012    2    1    2    0    0 -0.76953384982E+01  0.42599389151E+02 -0.31138757856E+01  0.47787280961E+02  0.20000045215E+02 0.  0.
         12    1    1    2    0    0  0.76953384982E+01 -0.42599389151E+02  0.31138757856E+01  0.43400719039E+02  0.00000000000E+00 0. -1.
         11    1    3    3    0    0 -0.51031363719E+01  0.10029463435E+02  0.21710023403E+01  0.11460601600E+02  0.51100000000E-03 0. -1.
        -11    1    3    3    0    0 -0.66497772182E+01  0.18440222099E+02  0.23819824024E+01  0.19746776155E+02  0.51100000000E-03 0.  1.
        -12    1    3    3    0    0  0.40575750920E+01  0.14129703618E+02 -0.76668605283E+01  0.16579903206E+02  0.00000000000E+00 0.  1.
</event>
<event>
 7    1  0.2414091E-009  0.4778727E+02  0.7816164E-02  0.1312668E+00
        -11   -1    0    0    0    0  0.00000000000E+00  0.00000000000E+00  0.45593999997E+02  0.45594000000E+02  0.51100000000E-03 0. -1.
         11   -1    0    0    0    0 -0.00000000000E+00 -0.00000000000E+00 -0.45593999997E+02  0.45594000000E+02  0.51100000000E-03 0.  1.
    9900012    2    1    2    0    0  0.99353579424E+01  0.14144542275E+02 -0.39810098017E+02  0.47787270539E+02  0.19999997696E+02 0.  0.
         12    1    1    2    0    0 -0.99353579424E+01 -0.14144542275E+02  0.39810098017E+02  0.43400729461E+02  0.00000000000E+00 0. -1.
         11    1    3    3    0    0  0.62035515651E+01  0.86557599861E+00 -0.65348849175E+01  0.90519608360E+01  0.51100000000E-03 0. -1.
        -11    1    3    3    0    0  0.43458297174E+01  0.13289623471E+02 -0.15212098318E+02  0.20661758479E+02  0.51100000000E-03 0.  1.
        -12    1    3    3    0    0 -0.61402334011E+00 -0.10657195139E-01 -0.18063114782E+02  0.18073551224E+02  0.00000000000E+00 0.  1.
</event>
<event>
 7    1  0.2414091E-009  0.4778724E+02  0.7816164E-02  0.1312668E+00
        -11   -1    0    0    0    0  0.00000000000E+00  0.00000000000E+00  0.45593999997E+02  0.45594000000E+02  0.51100000000E-03 0.  1.
         11   -1    0    0    0    0 -0.00000000000E+00 -0.00000000000E+00 -0.45593999997E+02  0.45594000000E+02  0.51100000000E-03 0. -1.
    9900012    2    1    2    0    0  0.20868312144E+02  0.28220034822E+02  0.25529771530E+02  0.47787239045E+02  0.19999854101E+02 0.  0.
         12    1    1    2    0    0 -0.20868312144E+02 -0.28220034822E+02 -0.25529771530E+02  0.43400760955E+02  0.00000000000E+00 0. -1.
         11    1    3    3    0    0  0.33521694946E+01  0.73745078362E+01 -0.23367670508E+01  0.84309481471E+01  0.51100000000E-03 0. -1.
        -11    1    3    3    0    0  0.90892009124E+00  0.15606490657E+01  0.28739095984E+00  0.18287577924E+01  0.51100000000E-03 0.  1.
        -12    1    3    3    0    0  0.16607222558E+02  0.19284877920E+02  0.27579147621E+02  0.37527533106E+02  0.00000000000E+00 0.  1.
</event>
<event>
 7    1  0.2414091E-009  0.4778727E+02  0.7816164E-02  0.1312668E+00
        -11   -1    0    0    0    0  0.00000000000E+00  0.00000000000E+00  0.45593999997E+02  0.45594000000E+02  0.51100000000E-03 0.  1.
         11   -1    0    0    0    0 -0.00000000000E+00 -0.00000000000E+00 -0.45593999997E+02  0.45594000000E+02  0.51100000000E-03 0. -1.
    9900012    2    1    2    0    0 -0.81067375220E+01  0.34956601689E+02  0.24411888615E+02  0.47787268432E+02  0.19999988087E+02 0.  0.
         12    1    1    2    0    0  0.81067375220E+01 -0.34956601689E+02 -0.24411888615E+02  0.43400731568E+02  0.00000000000E+00 0. -1.
         11    1    3    3    0    0 -0.41953212948E+01  0.20892524384E+02  0.14834520092E+02  0.25964615972E+02  0.51100000000E-03 0.  1.
        -11    1    3    3    0    0 -0.53685824500E+01  0.79372610752E+00  0.59858086604E-01  0.54272702077E+01  0.51100000000E-03 0. -1.
         12    1    3    3    0    0  0.14571662228E+01  0.13270351198E+02  0.95175104359E+01  0.16395382252E+02  0.00000000000E+00 0. -1.
</event>
<event>
 7    1  0.2414091E-009  0.4778727E+02  0.7816164E-02  0.1312668E+00
        -11   -1    0    0    0    0  0.00000000000E+00  0.00000000000E+00  0.45593999997E+02  0.45594000000E+02  0.51100000000E-03 0.  1.
         11   -1    0    0    0    0 -0.00000000000E+00 -0.00000000000E+00 -0.45593999997E+02  0.45594000000E+02  0.51100000000E-03 0. -1.
    9900012    2    1    2    0    0  0.29541005405E+02  0.31081683997E+02  0.66993266715E+01  0.47787273528E+02  0.20000011323E+02 0.  0.
         12    1    1    2    0    0 -0.29541005405E+02 -0.31081683997E+02 -0.66993266715E+01  0.43400726472E+02  0.00000000000E+00 0. -1.
         11    1    3    3    0    0  0.85466984398E+01  0.21010031179E+02 -0.14955677357E+01  0.22731128162E+02  0.51100000000E-03 0. -1.
        -11    1    3    3    0    0  0.37805114764E+01  0.10734912856E+01 -0.10985329096E+00  0.39315033473E+01  0.51100000000E-03 0.  1.
         12    1    3    3    0    0  0.17213795489E+02  0.89981615323E+01  0.83047476982E+01  0.21124642019E+02  0.00000000000E+00 0. -1.
</event>
<event>
 7    1  0.2414091E-009  0.4778726E+02  0.7816164E-02  0.1312668E+00
        -11   -1    0    0    0    0  0.00000000000E+00  0.00000000000E+00  0.45593999997E+02  0.45594000000E+02  0.51100000000E-03 0. -1.
         11   -1    0    0    0    0 -0.00000000000E+00 -0.00000000000E+00 -0.45593999997E+02  0.45594000000E+02  0.51100000000E-03 0.  1.
    9900012    2    1    2    0    0  0.22676280736E+02  0.36125708355E+02 -0.80214563273E+01  0.47787259524E+02  0.19999947476E+02 0.  0.
         12    1    1    2    0    0 -0.22676280736E+02 -0.36125708355E+02  0.80214563273E+01  0.43400740476E+02  0.00000000000E+00 0. -1.
         11    1    3    3    0    0 -0.25966078282E+01  0.68645728183E+01  0.17209499798E+01  0.75383288125E+01  0.51100000000E-03 0. -1.
        -11    1    3    3    0    0  0.33916360857E+01  0.72107809678E+01 -0.24961806589E+01  0.83504176929E+01  0.51100000000E-03 0.  1.
         12    1    3    3    0    0  0.21881252479E+02  0.22050354569E+02 -0.72462256482E+01  0.31898513019E+02  0.00000000000E+00 0. -1.
</event>
<event>
 7    1  0.2414091E-009  0.4778728E+02  0.7816164E-02  0.1312668E+00
        -11   -1    0    0    0    0  0.00000000000E+00  0.00000000000E+00  0.45593999997E+02  0.45594000000E+02  0.51100000000E-03 0.  1.
         11   -1    0    0    0    0 -0.00000000000E+00 -0.00000000000E+00 -0.45593999997E+02  0.45594000000E+02  0.51100000000E-03 0. -1.
    9900012    2    1    2    0    0  0.75938895658E+01  0.39404811913E+01  0.42549128528E+02  0.47787275475E+02  0.20000020201E+02 0.  0.
         12    1    1    2    0    0 -0.75938895658E+01 -0.39404811913E+01 -0.42549128528E+02  0.43400724525E+02  0.00000000000E+00 0. -1.
         11    1    3    3    0    0  0.10125185026E+02  0.32976056424E+01  0.25686332426E+02  0.27806136887E+02  0.51100000000E-03 0.  1.
        -11    1    3    3    0    0 -0.12766895020E+01  0.29851792303E+01  0.17012732471E+02  0.17319766093E+02  0.51100000000E-03 0. -1.
        -12    1    3    3    0    0 -0.12546059579E+01 -0.23423036815E+01 -0.14993636881E+00  0.26613724956E+01  0.00000000000E+00 0.  1.
</event>
<event>
 7    1  0.2414091E-009  0.4778728E+02  0.7816164E-02  0.1312668E+00
        -11   -1    0    0    0    0  0.00000000000E+00  0.00000000000E+00  0.45593999997E+02  0.45594000000E+02  0.51100000000E-03 0. -1.
         11   -1    0    0    0    0 -0.00000000000E+00 -0.00000000000E+00 -0.45593999997E+02  0.45594000000E+02  0.51100000000E-03 0.  1.
    9900012    2    1    2    0    0 -0.15575861301E+02  0.21697487616E+02 -0.34208688816E+02  0.47787276335E+02  0.20000024123E+02 0.  0.
         12    1    1    2    0    0  0.15575861301E+02 -0.21697487616E+02  0.34208688816E+02  0.43400723665E+02  0.00000000000E+00 0. -1.
         11    1    3    3    0    0 -0.55047635677E+01 -0.14573643701E+01 -0.43517797312E+01  0.71668905345E+01  0.51100000000E-03 0. -1.
        -11    1    3    3    0    0  0.13926171790E+01  0.66254693473E+01 -0.40114512181E+01  0.78694324964E+01  0.51100000000E-03 0.  1.
        -12    1    3    3    0    0 -0.11463714913E+02  0.16529382639E+02 -0.25845457866E+02  0.32750953304E+02  0.00000000000E+00 0.  1.
</event>
<event>
 7    1  0.2414091E-009  0.4778727E+02  0.7816164E-02  0.1312668E+00
        -11   -1    0    0    0    0  0.00000000000E+00  0.00000000000E+00  0.45593999997E+02  0.45594000000E+02  0.51100000000E-03 0.  1.
         11   -1    0    0    0    0 -0.00000000000E+00 -0.00000000000E+00 -0.45593999997E+02  0.45594000000E+02  0.51100000000E-03 0. -1.
    9900012    2    1    2    0    0 -0.37381073461E+02  0.22010750141E+02  0.13436557339E+01  0.47787272062E+02  0.20000004639E+02 0.  0.
         12    1    1    2    0    0  0.37381073461E+02 -0.22010750141E+02 -0.13436557339E+01  0.43400727938E+02  0.00000000000E+00 0. -1.
         11    1    3    3    0    0 -0.24275121772E+02  0.23757478593E+02  0.74264843956E+00  0.33974267514E+02  0.51100000000E-03 0. -1.
        -11    1    3    3    0    0 -0.21311525309E+01 -0.14354316773E+00  0.16116379814E+01  0.26757789511E+01  0.51100000000E-03 0.  1.
        -12    1    3    3    0    0 -0.10974799158E+02 -0.16031852844E+01 -0.10106306871E+01  0.11137225597E+02  0.00000000000E+00 0.  1.
</event>
<event>
 7    1  0.2414091E-009  0.4778727E+02  0.7816164E-02  0.1312668E+00
        -11   -1    0    0    0    0  0.00000000000E+00  0.00000000000E+00  0.45593999997E+02  0.45594000000E+02  0.51100000000E-03 0.  1.
         11   -1    0    0    0    0 -0.00000000000E+00 -0.00000000000E+00 -0.45593999997E+02  0.45594000000E+02  0.51100000000E-03 0. -1.
    9900012    2    1    2    0    0 -0.61284493797E+01  0.37650587495E+02  0.20700206789E+02  0.47787271992E+02  0.20000004321E+02 0.  0.
         12    1    1    2    0    0  0.61284493797E+01 -0.37650587495E+02 -0.20700206789E+02  0.43400728008E+02  0.00000000000E+00 0. -1.
         11    1    3    3    0    0 -0.11372685363E+01  0.10277735362E+01  0.26489321285E+01  0.30604803296E+01  0.51100000000E-03 0. -1.
        -11    1    3    3    0    0  0.49561993391E+01  0.25337582577E+02  0.10220191404E+02  0.27767054495E+02  0.51100000000E-03 0.  1.
        -12    1    3    3    0    0 -0.99473801825E+01  0.11285231382E+02  0.78310832563E+01  0.16959737168E+02  0.00000000000E+00 0.  1.
</event>
<event>
 7    1  0.2414091E-009  0.4778727E+02  0.7816164E-02  0.1312668E+00
        -11   -1    0    0    0    0  0.00000000000E+00  0.00000000000E+00  0.45593999997E+02  0.45594000000E+02  0.51100000000E-03 0. -1.
         11   -1    0    0    0    0 -0.00000000000E+00 -0.00000000000E+00 -0.45593999997E+02  0.45594000000E+02  0.51100000000E-03 0.  1.
    9900012    2    1    2    0    0 -0.11276893971E+02  0.28482144799E+02 -0.30744463568E+02  0.47787274775E+02  0.20000017007E+02 0.  0.
         12    1    1    2    0    0  0.11276893971E+02 -0.28482144799E+02  0.30744463568E+02  0.43400725225E+02  0.00000000000E+00 0. -1.
         11    1    3    3    0    0  0.77280367363E+00  0.10163265699E+02 -0.13416507283E+02  0.16849090869E+02  0.51100000000E-03 0. -1.
        -11    1    3    3    0    0 -0.59718813092E+01  0.15099191780E+01 -0.97308454384E+01  0.11516621705E+02  0.51100000000E-03 0.  1.
         12    1    3    3    0    0 -0.60778163355E+01  0.16808959923E+02 -0.75971108470E+01  0.19421562201E+02  0.00000000000E+00 0. -1.
</event>
<event>
 7    1  0.2414091E-009  0.4778727E+02  0.7816164E-02  0.1312668E+00
        -11   -1    0    0    0    0  0.00000000000E+00  0.00000000000E+00  0.45593999997E+02  0.45594000000E+02  0.51100000000E-03 0. -1.
         11   -1    0    0    0    0 -0.00000000000E+00 -0.00000000000E+00 -0.45593999997E+02  0.45594000000E+02  0.51100000000E-03 0.  1.
    9900012    2    1    2    0    0 -0.13630149238E+02 -0.40962840074E+02 -0.44596211952E+01  0.47787268942E+02  0.19999990413E+02 0.  0.
         12    1    1    2    0    0  0.13630149238E+02  0.40962840074E+02  0.44596211952E+01  0.43400731058E+02  0.00000000000E+00 0. -1.
         11    1    3    3    0    0  0.85447435326E+00 -0.21905291563E+01  0.38498286332E+00  0.23825944831E+01  0.51100000000E-03 0. -1.
        -11    1    3    3    0    0 -0.67007615248E+00 -0.13616786615E+02  0.57719646351E+01  0.14804778140E+02  0.51100000000E-03 0.  1.
        -12    1    3    3    0    0 -0.13814547439E+02 -0.25155524303E+02 -0.10616568694E+02  0.30599896319E+02  0.00000000000E+00 0.  1.
</event>
<event>
 7    1  0.2414091E-009  0.4778726E+02  0.7816164E-02  0.1312668E+00
        -11   -1    0    0    0    0  0.00000000000E+00  0.00000000000E+00  0.45593999997E+02  0.45594000000E+02  0.51100000000E-03 0. -1.
         11   -1    0    0    0    0 -0.00000000000E+00 -0.00000000000E+00 -0.45593999997E+02  0.45594000000E+02  0.51100000000E-03 0.  1.
    9900012    2    1    2    0    0  0.25563029727E+02 -0.10640785296E+02 -0.33420489223E+02  0.47787263826E+02  0.19999967087E+02 0.  0.
         12    1    1    2    0    0 -0.25563029727E+02  0.10640785296E+02  0.33420489223E+02  0.43400736174E+02  0.00000000000E+00 0. -1.
         11    1    3    3    0    0 -0.10178352261E+01 -0.46717228438E+00 -0.14306949569E+01  0.18169003307E+01  0.51100000000E-03 0. -1.
        -11    1    3    3    0    0  0.10952300568E+02 -0.83031521240E+01 -0.48088785397E+01  0.14560924971E+02  0.51100000000E-03 0.  1.
        -12    1    3    3    0    0  0.15628564385E+02 -0.18704608872E+01 -0.27180915727E+02  0.31409438524E+02  0.00000000000E+00 0.  1.
</event>
<event>
 7    1  0.2414091E-009  0.4778727E+02  0.7816164E-02  0.1312668E+00
        -11   -1    0    0    0    0  0.00000000000E+00  0.00000000000E+00  0.45593999997E+02  0.45594000000E+02  0.51100000000E-03 0.  1.
         11   -1    0    0    0    0 -0.00000000000E+00 -0.00000000000E+00 -0.45593999997E+02  0.45594000000E+02  0.51100000000E-03 0. -1.
    9900012    2    1    2    0    0  0.27965611209E+02 -0.25853854786E+02  0.20811680487E+02  0.47787271178E+02  0.20000000609E+02 0.  0.
         12    1    1    2    0    0 -0.27965611209E+02  0.25853854786E+02 -0.20811680487E+02  0.43400728822E+02  0.00000000000E+00 0. -1.
         11    1    3    3    0    0  0.68768004009E+01  0.21064053696E+01  0.60526300572E+01  0.94000882020E+01  0.51100000000E-03 0. -1.
        -11    1    3    3    0    0  0.15100091777E+02 -0.15671931353E+02  0.93342572863E+01  0.23680172367E+02  0.51100000000E-03 0.  1.
        -12    1    3    3    0    0  0.59887190313E+01 -0.12288328803E+02  0.54247931439E+01  0.14707010609E+02  0.00000000000E+00 0.  1.
</event>
<event>
 7    1  0.2414091E-009  0.4778726E+02  0.7816164E-02  0.1312668E+00
        -11   -1    0    0    0    0  0.00000000000E+00  0.00000000000E+00  0.45593999997E+02  0.45594000000E+02  0.51100000000E-03 0. -1.
         11   -1    0    0    0    0 -0.00000000000E+00 -0.00000000000E+00 -0.45593999997E+02  0.45594000000E+02  0.51100000000E-03 0.  1.
    9900012    2    1    2    0    0 -0.36034295679E+02  0.24050877679E+02 -0.25901470717E+01  0.47787262171E+02  0.19999959543E+02 0.  0.
         12    1    1    2    0    0  0.36034295679E+02 -0.24050877679E+02  0.25901470717E+01  0.43400737829E+02  0.00000000000E+00 0. -1.
         11    1    3    3    0    0 -0.11214286274E+02  0.78979180204E+01 -0.18184234699E+01  0.13836328627E+02  0.51100000000E-03 0. -1.
        -11    1    3    3    0    0 -0.21901879680E+02  0.58338096393E+01 -0.33756218517E+01  0.22915507666E+02  0.51100000000E-03 0.  1.
         12    1    3    3    0    0 -0.29181297246E+01  0.10319150020E+02  0.26038982499E+01  0.11035425878E+02  0.00000000000E+00 0. -1.
</event>
<event>
 7    1  0.2414091E-009  0.4778727E+02  0.7816164E-02  0.1312668E+00
        -11   -1    0    0    0    0  0.00000000000E+00  0.00000000000E+00  0.45593999997E+02  0.45594000000E+02  0.51100000000E-03 0.  1.
         11   -1    0    0    0    0 -0.00000000000E+00 -0.00000000000E+00 -0.45593999997E+02  0.45594000000E+02  0.51100000000E-03 0. -1.
    9900012    2    1    2    0    0 -0.12878701523E+02  0.37990627130E+01  0.41271408877E+02  0.47787273956E+02  0.20000013276E+02 0.  0.
         12    1    1    2    0    0  0.12878701523E+02 -0.37990627130E+01 -0.41271408877E+02  0.43400726044E+02  0.00000000000E+00 0. -1.
         11    1    3    3    0    0 -0.71265090685E+01  0.41459607547E+01  0.19640057690E+02  0.21300422259E+02  0.51100000000E-03 0. -1.
        -11    1    3    3    0    0 -0.82685420729E+01 -0.17457852290E+00  0.22377218025E+02  0.23856637493E+02  0.51100000000E-03 0.  1.
         12    1    3    3    0    0  0.25163496188E+01 -0.17231951871E+00 -0.74586683773E+00  0.26302142042E+01  0.00000000000E+00 0. -1.
</event>
<event>
 7    1  0.2414091E-009  0.4778727E+02  0.7816164E-02  0.1312668E+00
        -11   -1    0    0    0    0  0.00000000000E+00  0.00000000000E+00  0.45593999997E+02  0.45594000000E+02  0.51100000000E-03 0. -1.
         11   -1    0    0    0    0 -0.00000000000E+00 -0.00000000000E+00 -0.45593999997E+02  0.45594000000E+02  0.51100000000E-03 0.  1.
    9900012    2    1    2    0    0  0.42738786675E+01 -0.55863985024E+01 -0.42826967506E+02  0.47787273822E+02  0.20000012662E+02 0.  0.
         12    1    1    2    0    0 -0.42738786675E+01  0.55863985024E+01  0.42826967506E+02  0.43400726178E+02  0.00000000000E+00 0. -1.
         11    1    3    3    0    0 -0.67314846459E+00  0.24402028151E+00 -0.69665311441E+01  0.70032300544E+01  0.51100000000E-03 0. -1.
        -11    1    3    3    0    0  0.90078959745E+01 -0.12207392933E+01 -0.32570626493E+02  0.33815353091E+02  0.51100000000E-03 0.  1.
         12    1    3    3    0    0 -0.40608688424E+01 -0.46096794906E+01 -0.32898098689E+01  0.69686906758E+01  0.00000000000E+00 0. -1.
</event>
<event>
 7    1  0.2414091E-009  0.4778727E+02  0.7816164E-02  0.1312668E+00
        -11   -1    0    0    0    0  0.00000000000E+00  0.00000000000E+00  0.45593999997E+02  0.45594000000E+02  0.51100000000E-03 0. -1.
         11   -1    0    0    0    0 -0.00000000000E+00 -0.00000000000E+00 -0.45593999997E+02  0.45594000000E+02  0.51100000000E-03 0.  1.
    9900012    2    1    2    0    0  0.22385922690E+02 -0.15972682265E+02 -0.33576288695E+02  0.47787271021E+02  0.19999999893E+02 0.  0.
         12    1    1    2    0    0 -0.22385922690E+02  0.15972682265E+02  0.33576288695E+02  0.43400728979E+02  0.00000000000E+00 0. -1.
         11    1    3    3    0    0 -0.93873889196E+00 -0.50534533010E+00  0.57748871319E+00  0.12124760142E+01  0.51100000000E-03 0. -1.
        -11    1    3    3    0    0  0.37699635690E+01 -0.90251044392E+01 -0.52878027803E+01  0.11118722676E+02  0.51100000000E-03 0.  1.
        -12    1    3    3    0    0  0.19554698013E+02 -0.64422324956E+01 -0.28865974628E+02  0.35456072330E+02  0.00000000000E+00 0.  1.
</event>
<event>
 7    1  0.2414091E-009  0.4778727E+02  0.7816164E-02  0.1312668E+00
        -11   -1    0    0    0    0  0.00000000000E+00  0.00000000000E+00  0.45593999997E+02  0.45594000000E+02  0.51100000000E-03 0.  1.
         11   -1    0    0    0    0 -0.00000000000E+00 -0.00000000000E+00 -0.45593999997E+02  0.45594000000E+02  0.51100000000E-03 0. -1.
    9900012    2    1    2    0    0  0.16116702263E+02  0.20975609164E+02  0.34407838829E+02  0.47787266775E+02  0.19999980532E+02 0.  0.
         12    1    1    2    0    0 -0.16116702263E+02 -0.20975609164E+02 -0.34407838829E+02  0.43400733225E+02  0.00000000000E+00 0. -1.
         11    1    3    3    0    0 -0.15192641569E+01 -0.14346273872E+00  0.24037792352E+01  0.28472618440E+01  0.51100000000E-03 0. -1.
        -11    1    3    3    0    0 -0.96799656692E+00  0.12444581421E+01 -0.12154209743E+01  0.19907138988E+01  0.51100000000E-03 0.  1.
        -12    1    3    3    0    0  0.18603962987E+02  0.19874613761E+02  0.33219480568E+02  0.42949291032E+02  0.00000000000E+00 0.  1.
</event>
<event>
 7    1  0.2414091E-009  0.4778727E+02  0.7816164E-02  0.1312668E+00
        -11   -1    0    0    0    0  0.00000000000E+00  0.00000000000E+00  0.45593999997E+02  0.45594000000E+02  0.51100000000E-03 0. -1.
         11   -1    0    0    0    0 -0.00000000000E+00 -0.00000000000E+00 -0.45593999997E+02  0.45594000000E+02  0.51100000000E-03 0.  1.
    9900012    2    1    2    0    0  0.41879898398E+02 -0.18708358184E+01 -0.11233762315E+02  0.47787270372E+02  0.19999996933E+02 0.  0.
         12    1    1    2    0    0 -0.41879898398E+02  0.18708358184E+01  0.11233762315E+02  0.43400729628E+02  0.00000000000E+00 0. -1.
         11    1    3    3    0    0  0.66178016233E+01 -0.85530077791E+00  0.28533138962E+01  0.72572886257E+01  0.51100000000E-03 0. -1.
        -11    1    3    3    0    0  0.30067827114E+02 -0.42617772653E+01 -0.70036342449E+01  0.31165491585E+02  0.51100000000E-03 0.  1.
        -12    1    3    3    0    0  0.51942696611E+01  0.32462422248E+01 -0.70834419663E+01  0.93644901615E+01  0.00000000000E+00 0.  1.
</event>
<event>
 7    1  0.2414091E-009  0.4778727E+02  0.7816164E-02  0.1312668E+00
        -11   -1    0    0    0    0  0.00000000000E+00  0.00000000000E+00  0.45593999997E+02  0.45594000000E+02  0.51100000000E-03 0.  1.
         11   -1    0    0    0    0 -0.00000000000E+00 -0.00000000000E+00 -0.45593999997E+02  0.45594000000E+02  0.51100000000E-03 0. -1.
    9900012    2    1    2    0    0 -0.33838163155E+02 -0.25320181148E+02  0.98737062645E+01  0.47787274954E+02  0.20000017825E+02 0.  0.
         12    1    1    2    0    0  0.33838163155E+02  0.25320181148E+02 -0.98737062645E+01  0.43400725046E+02  0.00000000000E+00 0. -1.
         11    1    3    3    0    0 -0.49395583850E+01 -0.16903957548E+01  0.67616739516E+01  0.85426523830E+01  0.51100000000E-03 0. -1.
        -11    1    3    3    0    0 -0.16397424790E+02 -0.64072456122E+01  0.35483229932E+01  0.17958812110E+02  0.51100000000E-03 0.  1.
         12    1    3    3    0    0 -0.12501179980E+02 -0.17222539781E+02 -0.43629068037E+00  0.21285810461E+02  0.00000000000E+00 0. -1.
</event>
<event>
 7    1  0.2414091E-009  0.4778727E+02  0.7816164E-02  0.1312668E+00
        -11   -1    0    0    0    0  0.00000000000E+00  0.00000000000E+00  0.45593999997E+02  0.45594000000E+02  0.51100000000E-03 0.  1.
         11   -1    0    0    0    0 -0.00000000000E+00 -0.00000000000E+00 -0.45593999997E+02  0.45594000000E+02  0.51100000000E-03 0. -1.
    9900012    2    1    2    0    0 -0.24605378687E+02  0.28466978478E+02  0.21629369289E+02  0.47787272589E+02  0.20000007042E+02 0.  0.
         12    1    1    2    0    0  0.24605378687E+02 -0.28466978478E+02 -0.21629369289E+02  0.43400727411E+02  0.00000000000E+00 0. -1.
         11    1    3    3    0    0 -0.46602669292E+01  0.19758247530E+01  0.41148527767E+00  0.50785127449E+01  0.51100000000E-03 0. -1.
        -11    1    3    3    0    0 -0.16684906132E+02  0.83973313415E+01  0.10868312890E+02  0.21610680036E+02  0.51100000000E-03 0.  1.
         12    1    3    3    0    0 -0.32602056249E+01  0.18093822383E+02  0.10349571122E+02  0.21098079807E+02  0.00000000000E+00 0. -1.
</event>
<event>
 7    1  0.2414091E-009  0.4778727E+02  0.7816164E-02  0.1312668E+00
        -11   -1    0    0    0    0  0.00000000000E+00  0.00000000000E+00  0.45593999997E+02  0.45594000000E+02  0.51100000000E-03 0.  1.
         11   -1    0    0    0    0 -0.00000000000E+00 -0.00000000000E+00 -0.45593999997E+02  0.45594000000E+02  0.51100000000E-03 0. -1.
    9900012    2    1    2    0    0  0.26512036688E+01  0.39105078040E+02  0.18638324713E+02  0.47787272385E+02  0.20000006113E+02 0.  0.
         12    1    1    2    0    0 -0.26512036688E+01 -0.39105078040E+02 -0.18638324713E+02  0.43400727615E+02  0.00000000000E+00 0. -1.
         11    1    3    3    0    0  0.37583418370E+01  0.95849642496E+00  0.16208891209E+00  0.38820254812E+01  0.51100000000E-03 0. -1.
        -11    1    3    3    0    0  0.12849421892E+01  0.60140653708E+00 -0.80459311688E+00  0.16309925191E+01  0.51100000000E-03 0.  1.
        -12    1    3    3    0    0 -0.23920803574E+01  0.37545175078E+02  0.19280828917E+02  0.42274254385E+02  0.00000000000E+00 0.  1.
</event>
<event>
 7    1  0.2414091E-009  0.4778727E+02  0.7816164E-02  0.1312668E+00
        -11   -1    0    0    0    0  0.00000000000E+00  0.00000000000E+00  0.45593999997E+02  0.45594000000E+02  0.51100000000E-03 0.  1.
         11   -1    0    0    0    0 -0.00000000000E+00 -0.00000000000E+00 -0.45593999997E+02  0.45594000000E+02  0.51100000000E-03 0. -1.
    9900012    2    1    2    0    0  0.15154741813E+02 -0.35595643255E+02  0.19669953742E+02  0.47787273067E+02  0.20000009220E+02 0.  0.
         12    1    1    2    0    0 -0.15154741813E+02  0.35595643255E+02 -0.19669953742E+02  0.43400726933E+02  0.00000000000E+00 0. -1.
         11    1    3    3    0    0  0.80576503875E+01 -0.21614612072E+02  0.82589303245E+01  0.24501573728E+02  0.51100000000E-03 0. -1.
        -11    1    3    3    0    0  0.76610501134E+00 -0.13895115145E+02  0.85919725255E+01  0.16354911615E+02  0.51100000000E-03 0.  1.
         12    1    3    3    0    0  0.63309864145E+01 -0.85916037759E-01  0.28190508917E+01  0.69307877241E+01  0.00000000000E+00 0. -1.
</event>
<event>
 7    1  0.2414091E-009  0.4778727E+02  0.7816164E-02  0.1312668E+00
        -11   -1    0    0    0    0  0.00000000000E+00  0.00000000000E+00  0.45593999997E+02  0.45594000000E+02  0.51100000000E-03 0.  1.
         11   -1    0    0    0    0 -0.00000000000E+00 -0.00000000000E+00 -0.45593999997E+02  0.45594000000E+02  0.51100000000E-03 0. -1.
    9900012    2    1    2    0    0  0.23719114636E+02 -0.58229108625E+01  0.35876464107E+02  0.47787269973E+02  0.19999995117E+02 0.  0.
         12    1    1    2    0    0 -0.23719114636E+02  0.58229108625E+01 -0.35876464107E+02  0.43400730027E+02  0.00000000000E+00 0. -1.
         11    1    3    3    0    0  0.31265835955E+01  0.10323614594E+01  0.30140375485E+00  0.33063786304E+01  0.51100000000E-03 0. -1.
        -11    1    3    3    0    0  0.10254418101E+02  0.42395358995E+01  0.19097370696E+02  0.22087017069E+02  0.51100000000E-03 0.  1.
         12    1    3    3    0    0  0.10338112939E+02 -0.11094808221E+02  0.16477689656E+02  0.22393874274E+02  0.00000000000E+00 0. -1.
</event>
<event>
 7    1  0.2414091E-009  0.4778727E+02  0.7816164E-02  0.1312668E+00
        -11   -1    0    0    0    0  0.00000000000E+00  0.00000000000E+00  0.45593999997E+02  0.45594000000E+02  0.51100000000E-03 0. -1.
         11   -1    0    0    0    0 -0.00000000000E+00 -0.00000000000E+00 -0.45593999997E+02  0.45594000000E+02  0.51100000000E-03 0.  1.
    9900012    2    1    2    0    0 -0.27260601232E+02 -0.31484067248E+02  0.12216252675E+02  0.47787266142E+02  0.19999977646E+02 0.  0.
         12    1    1    2    0    0  0.27260601232E+02  0.31484067248E+02 -0.12216252675E+02  0.43400733858E+02  0.00000000000E+00 0. -1.
         11    1    3    3    0    0 -0.11057886429E+02 -0.64751633757E+01 -0.73721143543E+00  0.12835422626E+02  0.51100000000E-03 0. -1.
        -11    1    3    3    0    0 -0.64659970182E+01 -0.37902724718E+01 -0.12880801035E+01  0.76048953618E+01  0.51100000000E-03 0.  1.
         12    1    3    3    0    0 -0.97367177847E+01 -0.21218631401E+02  0.14241544214E+02  0.27346948154E+02  0.00000000000E+00 0. -1.
</event>
<event>
 7    1  0.2414091E-009  0.4778727E+02  0.7816164E-02  0.1312668E+00
        -11   -1    0    0    0    0  0.00000000000E+00  0.00000000000E+00  0.45593999997E+02  0.45594000000E+02  0.51100000000E-03 0.  1.
         11   -1    0    0    0    0 -0.00000000000E+00 -0.00000000000E+00 -0.45593999997E+02  0.45594000000E+02  0.51100000000E-03 0. -1.
    9900012    2    1    2    0    0  0.25562097413E+02  0.14244218036E+02  0.32051595770E+02  0.47787270017E+02  0.19999995317E+02 0.  0.
         12    1    1    2    0    0 -0.25562097413E+02 -0.14244218036E+02 -0.32051595770E+02  0.43400729983E+02  0.00000000000E+00 0. -1.
         11    1    3    3    0    0  0.25924688962E+01 -0.15059283552E+00 -0.43398710509E+00  0.26328536322E+01  0.51100000000E-03 0. -1.
        -11    1    3    3    0    0  0.13533142332E+02  0.25702306382E+01  0.24352295152E+02  0.27978318504E+02  0.51100000000E-03 0.  1.
        -12    1    3    3    0    0  0.94364861852E+01  0.11824580233E+02  0.81332877234E+01  0.17176097881E+02  0.00000000000E+00 0.  1.
</event>
<event>
 7    1  0.2414091E-009  0.4778728E+02  0.7816164E-02  0.1312668E+00
        -11   -1    0    0    0    0  0.00000000000E+00  0.00000000000E+00  0.45593999997E+02  0.45594000000E+02  0.51100000000E-03 0.  1.
         11   -1    0    0    0    0 -0.00000000000E+00 -0.00000000000E+00 -0.45593999997E+02  0.45594000000E+02  0.51100000000E-03 0. -1.
    9900012    2    1    2    0    0  0.19537809706E+02 -0.35458044966E+02  0.15640448921E+02  0.47787278769E+02  0.20000035219E+02 0.  0.
         12    1    1    2    0    0 -0.19537809706E+02  0.35458044966E+02 -0.15640448921E+02  0.43400721231E+02  0.00000000000E+00 0. -1.
         11    1    3    3    0    0  0.80897884773E+01 -0.16303043092E+02 -0.22583085283E+01  0.18339407007E+02  0.51100000000E-03 0. -1.
        -11    1    3    3    0    0  0.26570161130E+01 -0.43122559788E+00  0.23020564790E+01  0.35419139508E+01  0.51100000000E-03 0.  1.
        -12    1    3    3    0    0  0.87910051153E+01 -0.18723776276E+02  0.15596700970E+02  0.25905957811E+02  0.00000000000E+00 0.  1.
</event>
<event>
 7    1  0.2414091E-009  0.4778727E+02  0.7816164E-02  0.1312668E+00
        -11   -1    0    0    0    0  0.00000000000E+00  0.00000000000E+00  0.45593999997E+02  0.45594000000E+02  0.51100000000E-03 0.  1.
         11   -1    0    0    0    0 -0.00000000000E+00 -0.00000000000E+00 -0.45593999997E+02  0.45594000000E+02  0.51100000000E-03 0. -1.
    9900012    2    1    2    0    0  0.16295646812E+02 -0.11700114525E+02  0.38486134237E+02  0.47787270589E+02  0.19999997923E+02 0.  0.
         12    1    1    2    0    0 -0.16295646812E+02  0.11700114525E+02 -0.38486134237E+02  0.43400729411E+02  0.00000000000E+00 0. -1.
         11    1    3    3    0    0 -0.35759557256E+01 -0.66967850474E+01  0.10273940956E+02  0.12774515739E+02  0.51100000000E-03 0. -1.
        -11    1    3    3    0    0  0.46865851081E+01 -0.23334278211E+01  0.85638747336E+01  0.10037375956E+02  0.51100000000E-03 0.  1.
         12    1    3    3    0    0  0.15185017429E+02 -0.26699016566E+01  0.19648318547E+02  0.24975378894E+02  0.00000000000E+00 0. -1.
</event>
<event>
 7    1  0.2414091E-009  0.4778727E+02  0.7816164E-02  0.1312668E+00
        -11   -1    0    0    0    0  0.00000000000E+00  0.00000000000E+00  0.45593999997E+02  0.45594000000E+02  0.51100000000E-03 0.  1.
         11   -1    0    0    0    0 -0.00000000000E+00 -0.00000000000E+00 -0.45593999997E+02  0.45594000000E+02  0.51100000000E-03 0. -1.
    9900012    2    1    2    0    0 -0.51378077196E+01 -0.12893152407E+02  0.41121683249E+02  0.47787270970E+02  0.19999999658E+02 0.  0.
         12    1    1    2    0    0  0.51378077196E+01  0.12893152407E+02 -0.41121683249E+02  0.43400729030E+02  0.00000000000E+00 0. -1.
         11    1    3    3    0    0  0.57308069753E+01 -0.13171935072E+01  0.40668890157E+01  0.71495967614E+01  0.51100000000E-03 0. -1.
        -11    1    3    3    0    0 -0.19183478449E+01 -0.32723121409E+01  0.14529335432E+02  0.15016313581E+02  0.51100000000E-03 0.  1.
        -12    1    3    3    0    0 -0.89502668501E+01 -0.83036467593E+01  0.22525458801E+02  0.25621360627E+02  0.00000000000E+00 0.  1.
</event>
<event>
 7    1  0.2414091E-009  0.4778727E+02  0.7816164E-02  0.1312668E+00
        -11   -1    0    0    0    0  0.00000000000E+00  0.00000000000E+00  0.45593999997E+02  0.45594000000E+02  0.51100000000E-03 0.  1.
         11   -1    0    0    0    0 -0.00000000000E+00 -0.00000000000E+00 -0.45593999997E+02  0.45594000000E+02  0.51100000000E-03 0. -1.
    9900012    2    1    2    0    0  0.69637483872E+01 -0.23535066351E+02  0.35794278345E+02  0.47787268416E+02  0.19999988015E+02 0.  0.
         12    1    1    2    0    0 -0.69637483872E+01  0.23535066351E+02 -0.35794278345E+02  0.43400731584E+02  0.00000000000E+00 0. -1.
         11    1    3    3    0    0 -0.42828863525E+01 -0.11599906733E+01  0.62565041647E+01  0.76702371863E+01  0.51100000000E-03 0. -1.
        -11    1    3    3    0    0 -0.13930262739E+01 -0.50797653440E+01  0.90728143507E+01  0.10490972245E+02  0.51100000000E-03 0.  1.
        -12    1    3    3    0    0  0.12639661014E+02 -0.17295310334E+02  0.20464959830E+02  0.29626058984E+02  0.00000000000E+00 0.  1.
</event>
<event>
 7    1  0.2414091E-009  0.4778726E+02  0.7816164E-02  0.1312668E+00
        -11   -1    0    0    0    0  0.00000000000E+00  0.00000000000E+00  0.45593999997E+02  0.45594000000E+02  0.51100000000E-03 0. -1.
         11   -1    0    0    0    0 -0.00000000000E+00 -0.00000000000E+00 -0.45593999997E+02  0.45594000000E+02  0.51100000000E-03 0.  1.
    9900012    2    1    2    0    0  0.28067449866E+02  0.30749965225E+02 -0.12258954792E+02  0.47787261804E+02  0.19999957871E+02 0.  0.
         12    1    1    2    0    0 -0.28067449866E+02 -0.30749965225E+02  0.12258954792E+02  0.43400738196E+02  0.00000000000E+00 0. -1.
         11    1    3    3    0    0  0.14703028384E+02  0.15264131685E+02  0.13384756406E+01  0.21235919502E+02  0.51100000000E-03 0. -1.
        -11    1    3    3    0    0  0.56394707522E+01  0.11600469444E+02 -0.37213125922E+01  0.13424704442E+02  0.51100000000E-03 0.  1.
         12    1    3    3    0    0  0.77249507294E+01  0.38853640965E+01 -0.98761178407E+01  0.13126637861E+02  0.00000000000E+00 0. -1.
</event>
<event>
 7    1  0.2414091E-009  0.4778727E+02  0.7816164E-02  0.1312668E+00
        -11   -1    0    0    0    0  0.00000000000E+00  0.00000000000E+00  0.45593999997E+02  0.45594000000E+02  0.51100000000E-03 0. -1.
         11   -1    0    0    0    0 -0.00000000000E+00 -0.00000000000E+00 -0.45593999997E+02  0.45594000000E+02  0.51100000000E-03 0.  1.
    9900012    2    1    2    0    0 -0.77269362537E+01 -0.30681798991E+01 -0.42596994748E+02  0.47787271512E+02  0.20000002132E+02 0.  0.
         12    1    1    2    0    0  0.77269362537E+01  0.30681798991E+01  0.42596994748E+02  0.43400728488E+02  0.00000000000E+00 0. -1.
         11    1    3    3    0    0 -0.58424035783E+01 -0.95242204749E+01 -0.21220817761E+02  0.23982651270E+02  0.51100000000E-03 0. -1.
        -11    1    3    3    0    0 -0.29177715656E+01  0.10080312526E+01 -0.15174925662E+02  0.15485731724E+02  0.51100000000E-03 0.  1.
         12    1    3    3    0    0  0.10332388902E+01  0.54480093231E+01 -0.62012513243E+01  0.83188885181E+01  0.00000000000E+00 0. -1.
</event>
<event>
 7    1  0.2414091E-009  0.4778727E+02  0.7816164E-02  0.1312668E+00
        -11   -1    0    0    0    0  0.00000000000E+00  0.00000000000E+00  0.45593999997E+02  0.45594000000E+02  0.51100000000E-03 0. -1.
         11   -1    0    0    0    0 -0.00000000000E+00 -0.00000000000E+00 -0.45593999997E+02  0.45594000000E+02  0.51100000000E-03 0.  1.
    9900012    2    1    2    0    0  0.26734092014E+02  0.26787839095E+02  0.21244368842E+02  0.47787271818E+02  0.20000003529E+02 0.  0.
         12    1    1    2    0    0 -0.26734092014E+02 -0.26787839095E+02 -0.21244368842E+02  0.43400728182E+02  0.00000000000E+00 0. -1.
         11    1    3    3    0    0  0.16291298570E+02  0.16344106266E+02  0.12309524568E+02  0.26154552454E+02  0.51100000000E-03 0. -1.
        -11    1    3    3    0    0  0.11651557971E+02  0.92442988306E+01  0.26326596497E+01  0.15104527835E+02  0.51100000000E-03 0.  1.
         12    1    3    3    0    0 -0.12087645270E+01  0.11994339982E+01  0.63021846252E+01  0.65281915296E+01  0.00000000000E+00 0. -1.
</event>
<event>
 7    1  0.2414091E-009  0.4778728E+02  0.7816164E-02  0.1312668E+00
        -11   -1    0    0    0    0  0.00000000000E+00  0.00000000000E+00  0.45593999997E+02  0.45594000000E+02  0.51100000000E-03 0.  1.
         11   -1    0    0    0    0 -0.00000000000E+00 -0.00000000000E+00 -0.45593999997E+02  0.45594000000E+02  0.51100000000E-03 0. -1.
    9900012    2    1    2    0    0 -0.12773215121E+02 -0.33543566737E+02  0.24398709331E+02  0.47787275225E+02  0.20000019061E+02 0.  0.
         12    1    1    2    0    0  0.12773215121E+02  0.33543566737E+02 -0.24398709331E+02  0.43400724775E+02  0.00000000000E+00 0. -1.
         11    1    3    3    0    0 -0.92025276901E+01 -0.12878731441E+02  0.13502188162E+02  0.20805223499E+02  0.51100000000E-03 0. -1.
        -11    1    3    3    0    0 -0.45934790234E+01 -0.24704732708E+01 -0.87362513019E+00  0.52883370590E+01  0.51100000000E-03 0.  1.
         12    1    3    3    0    0  0.10227915925E+01 -0.18194362025E+02  0.11770146300E+02  0.21693714667E+02  0.00000000000E+00 0. -1.
</event>
<event>
 7    1  0.2414091E-009  0.4778727E+02  0.7816164E-02  0.1312668E+00
        -11   -1    0    0    0    0  0.00000000000E+00  0.00000000000E+00  0.45593999997E+02  0.45594000000E+02  0.51100000000E-03 0.  1.
         11   -1    0    0    0    0 -0.00000000000E+00 -0.00000000000E+00 -0.45593999997E+02  0.45594000000E+02  0.51100000000E-03 0. -1.
    9900012    2    1    2    0    0  0.11275210402E+02  0.28075849167E+02  0.31116547615E+02  0.47787271763E+02  0.20000003274E+02 0.  0.
         12    1    1    2    0    0 -0.11275210402E+02 -0.28075849167E+02 -0.31116547615E+02  0.43400728237E+02  0.00000000000E+00 0. -1.
         11    1    3    3    0    0  0.26044537549E+00 -0.23226596698E+01  0.30119597462E+01  0.38124115084E+01  0.51100000000E-03 0. -1.
        -11    1    3    3    0    0  0.16862295163E+00  0.10008920118E+02  0.45793987197E+01  0.11008079239E+02  0.51100000000E-03 0.  1.
        -12    1    3    3    0    0  0.10846142075E+02  0.20389588719E+02  0.23525189149E+02  0.32966781016E+02  0.00000000000E+00 0.  1.
</event>
<event>
 7    1  0.2414091E-009  0.4778727E+02  0.7816164E-02  0.1312668E+00
        -11   -1    0    0    0    0  0.00000000000E+00  0.00000000000E+00  0.45593999997E+02  0.45594000000E+02  0.51100000000E-03 0. -1.
         11   -1    0    0    0    0 -0.00000000000E+00 -0.00000000000E+00 -0.45593999997E+02  0.45594000000E+02  0.51100000000E-03 0.  1.
    9900012    2    1    2    0    0  0.26017071675E+01  0.32609856991E+02 -0.28521074810E+02  0.47787270035E+02  0.19999995395E+02 0.  0.
         12    1    1    2    0    0 -0.26017071675E+01 -0.32609856991E+02  0.28521074810E+02  0.43400729965E+02  0.00000000000E+00 0. -1.
         11    1    3    3    0    0 -0.47192175696E+01  0.58361954266E+01 -0.83981602281E+01  0.11263271594E+02  0.51100000000E-03 0. -1.
        -11    1    3    3    0    0  0.69046520869E-01  0.20651549769E+02 -0.16230245976E+02  0.26266179014E+02  0.51100000000E-03 0.  1.
         12    1    3    3    0    0  0.72518782163E+01  0.61221117954E+01 -0.38926686062E+01  0.10257819426E+02  0.00000000000E+00 0. -1.
</event>
<event>
 7    1  0.2414091E-009  0.4778727E+02  0.7816164E-02  0.1312668E+00
        -11   -1    0    0    0    0  0.00000000000E+00  0.00000000000E+00  0.45593999997E+02  0.45594000000E+02  0.51100000000E-03 0.  1.
         11   -1    0    0    0    0 -0.00000000000E+00 -0.00000000000E+00 -0.45593999997E+02  0.45594000000E+02  0.51100000000E-03 0. -1.
    9900012    2    1    2    0    0  0.15348254210E+02  0.38194014169E+02  0.13757606969E+02  0.47787269877E+02  0.19999994678E+02 0.  0.
         12    1    1    2    0    0 -0.15348254210E+02 -0.38194014169E+02 -0.13757606969E+02  0.43400730123E+02  0.00000000000E+00 0. -1.
         11    1    3    3    0    0 -0.12160738310E+01  0.19909469013E+02  0.20840177721E+01  0.20055147027E+02  0.51100000000E-03 0. -1.
        -11    1    3    3    0    0  0.54289953432E+01  0.94185336936E+01  0.41881841703E+01  0.11650049540E+02  0.51100000000E-03 0.  1.
         12    1    3    3    0    0  0.11135332698E+02  0.88660114634E+01  0.74854050265E+01  0.16082073311E+02  0.00000000000E+00 0. -1.
</event>
<event>
 7    1  0.2414091E-009  0.4778727E+02  0.7816164E-02  0.1312668E+00
        -11   -1    0    0    0    0  0.00000000000E+00  0.00000000000E+00  0.45593999997E+02  0.45594000000E+02  0.51100000000E-03 0. -1.
         11   -1    0    0    0    0 -0.00000000000E+00 -0.00000000000E+00 -0.45593999997E+02  0.45594000000E+02  0.51100000000E-03 0.  1.
    9900012    2    1    2    0    0 -0.39577517351E+02  0.17298905969E+02 -0.42416230912E+01  0.47787269662E+02  0.19999993696E+02 0.  0.
         12    1    1    2    0    0  0.39577517351E+02 -0.17298905969E+02  0.42416230912E+01  0.43400730338E+02  0.00000000000E+00 0. -1.
         11    1    3    3    0    0 -0.64979959367E+01 -0.14857840859E+00  0.47919542632E+01  0.80751998525E+01  0.51100000000E-03 0. -1.
        -11    1    3    3    0    0 -0.61381614717E+01  0.76127404560E+01 -0.51167499988E+00  0.97924795160E+01  0.51100000000E-03 0.  1.
         12    1    3    3    0    0 -0.26941359943E+02  0.98347439220E+01 -0.85219023545E+01  0.29919590293E+02  0.00000000000E+00 0. -1.
</event>
<event>
 7    1  0.2414091E-009  0.4778727E+02  0.7816164E-02  0.1312668E+00
        -11   -1    0    0    0    0  0.00000000000E+00  0.00000000000E+00  0.45593999997E+02  0.45594000000E+02  0.51100000000E-03 0.  1.
         11   -1    0    0    0    0 -0.00000000000E+00 -0.00000000000E+00 -0.45593999997E+02  0.45594000000E+02  0.51100000000E-03 0. -1.
    9900012    2    1    2    0    0  0.35641415629E+02  0.24607718514E+02 -0.27879468495E+01  0.47787274589E+02  0.20000016162E+02 0.  0.
         12    1    1    2    0    0 -0.35641415629E+02 -0.24607718514E+02  0.27879468495E+01  0.43400725411E+02  0.00000000000E+00 0. -1.
         11    1    3    3    0    0  0.96051088520E+01 -0.63005833785E+00  0.32694345571E+01  0.10165839471E+02  0.51100000000E-03 0. -1.
        -11    1    3    3    0    0  0.13234502409E+02  0.75376270454E+01 -0.14773264562E+01  0.15301972723E+02  0.51100000000E-03 0.  1.
         12    1    3    3    0    0  0.12801804368E+02  0.17700149807E+02 -0.45800549504E+01  0.22319462395E+02  0.00000000000E+00 0. -1.
</event>
<event>
 7    1  0.2414091E-009  0.4778728E+02  0.7816164E-02  0.1312668E+00
        -11   -1    0    0    0    0  0.00000000000E+00  0.00000000000E+00  0.45593999997E+02  0.45594000000E+02  0.51100000000E-03 0.  1.
         11   -1    0    0    0    0 -0.00000000000E+00 -0.00000000000E+00 -0.45593999997E+02  0.45594000000E+02  0.51100000000E-03 0. -1.
    9900012    2    1    2    0    0 -0.52843428731E+00 -0.43152411798E+02  0.46057456330E+01  0.47787276739E+02  0.20000025962E+02 0.  0.
         12    1    1    2    0    0  0.52843428731E+00  0.43152411798E+02 -0.46057456330E+01  0.43400723261E+02  0.00000000000E+00 0. -1.
         11    1    3    3    0    0 -0.74011590212E+00 -0.15891313756E+02  0.88059631741E+01  0.18183140877E+02  0.51100000000E-03 0. -1.
        -11    1    3    3    0    0 -0.31484955034E+01 -0.21745493809E+02 -0.13490508520E+00  0.21972658568E+02  0.51100000000E-03 0.  1.
         12    1    3    3    0    0  0.33601771182E+01 -0.55156042331E+01 -0.40653124560E+01  0.76314772938E+01  0.00000000000E+00 0. -1.
</event>
<event>
 7    1  0.2414091E-009  0.4778727E+02  0.7816164E-02  0.1312668E+00
        -11   -1    0    0    0    0  0.00000000000E+00  0.00000000000E+00  0.45593999997E+02  0.45594000000E+02  0.51100000000E-03 0. -1.
         11   -1    0    0    0    0 -0.00000000000E+00 -0.00000000000E+00 -0.45593999997E+02  0.45594000000E+02  0.51100000000E-03 0.  1.
    9900012    2    1    2    0    0 -0.40668701729E+01 -0.39982223670E+02 -0.16386141942E+02  0.47787270855E+02  0.19999999136E+02 0.  0.
         12    1    1    2    0    0  0.40668701729E+01  0.39982223670E+02  0.16386141942E+02  0.43400729145E+02  0.00000000000E+00 0. -1.
         11    1    3    3    0    0  0.52049242720E+01 -0.28125101484E+02 -0.83255153892E+01  0.29789709246E+02  0.51100000000E-03 0. -1.
        -11    1    3    3    0    0 -0.13626030453E-01 -0.57168094742E+00  0.75338258952E+00  0.94582787105E+00  0.51100000000E-03 0.  1.
        -12    1    3    3    0    0 -0.92581684144E+01 -0.11285441238E+02 -0.88140091424E+01  0.17051733738E+02  0.00000000000E+00 0.  1.
</event>
<event>
 7    1  0.2414091E-009  0.4778729E+02  0.7816164E-02  0.1312668E+00
        -11   -1    0    0    0    0  0.00000000000E+00  0.00000000000E+00  0.45593999997E+02  0.45594000000E+02  0.51100000000E-03 0. -1.
         11   -1    0    0    0    0 -0.00000000000E+00 -0.00000000000E+00 -0.45593999997E+02  0.45594000000E+02  0.51100000000E-03 0.  1.
    9900012    2    1    2    0    0  0.11495310060E+02  0.18559710799E+02 -0.37510214939E+02  0.47787294440E+02  0.20000106670E+02 0.  0.
         12    1    1    2    0    0 -0.11495310060E+02 -0.18559710799E+02  0.37510214939E+02  0.43400705560E+02  0.00000000000E+00 0. -1.
         11    1    3    3    0    0  0.12174960972E+02  0.53070162232E+01 -0.18441767996E+02  0.22726480214E+02  0.51100000000E-03 0. -1.
        -11    1    3    3    0    0  0.26854045222E+01  0.10452110844E+01 -0.11124407743E+01  0.30889137891E+01  0.51100000000E-03 0.  1.
        -12    1    3    3    0    0 -0.33650554343E+01  0.12207483491E+02 -0.17956006169E+02  0.21971900437E+02  0.00000000000E+00 0.  1.
</event>
<event>
 7    1  0.2414091E-009  0.4778727E+02  0.7816164E-02  0.1312668E+00
        -11   -1    0    0    0    0  0.00000000000E+00  0.00000000000E+00  0.45593999997E+02  0.45594000000E+02  0.51100000000E-03 0. -1.
         11   -1    0    0    0    0 -0.00000000000E+00 -0.00000000000E+00 -0.45593999997E+02  0.45594000000E+02  0.51100000000E-03 0.  1.
    9900012    2    1    2    0    0  0.30367842556E+02 -0.20455078425E+02 -0.23302507517E+02  0.47787274759E+02  0.20000016937E+02 0.  0.
         12    1    1    2    0    0 -0.30367842556E+02  0.20455078425E+02  0.23302507517E+02  0.43400725241E+02  0.00000000000E+00 0. -1.
         11    1    3    3    0    0  0.14972933214E+01  0.26813628129E+01 -0.24867989697E+00  0.30811419599E+01  0.51100000000E-03 0. -1.
        -11    1    3    3    0    0  0.32208909478E+01 -0.25271299179E+01  0.66105171236E+00  0.41469885155E+01  0.51100000000E-03 0.  1.
        -12    1    3    3    0    0  0.25649658287E+02 -0.20609311320E+02 -0.23714879332E+02  0.40559144284E+02  0.00000000000E+00 0.  1.
</event>
<event>
 7    1  0.2414091E-009  0.4778726E+02  0.7816164E-02  0.1312668E+00
        -11   -1    0    0    0    0  0.00000000000E+00  0.00000000000E+00  0.45593999997E+02  0.45594000000E+02  0.51100000000E-03 0. -1.
         11   -1    0    0    0    0 -0.00000000000E+00 -0.00000000000E+00 -0.45593999997E+02  0.45594000000E+02  0.51100000000E-03 0.  1.
    9900012    2    1    2    0    0 -0.37483193534E+02 -0.13343924786E+02 -0.17337073671E+02  0.47787259803E+02  0.19999948744E+02 0.  0.
         12    1    1    2    0    0  0.37483193534E+02  0.13343924786E+02  0.17337073671E+02  0.43400740197E+02  0.00000000000E+00 0. -1.
         11    1    3    3    0    0 -0.81003448017E+01  0.80013764323E+00 -0.10050185155E+01  0.82015772039E+01  0.51100000000E-03 0. -1.
        -11    1    3    3    0    0 -0.16611899051E+02 -0.15945868305E+01 -0.23179773513E+01  0.16848469263E+02  0.51100000000E-03 0.  1.
         12    1    3    3    0    0 -0.12770949681E+02 -0.12549475599E+02 -0.14014077805E+02  0.22737213336E+02  0.00000000000E+00 0. -1.
</event>
<event>
 7    1  0.2414091E-009  0.4778728E+02  0.7816164E-02  0.1312668E+00
        -11   -1    0    0    0    0  0.00000000000E+00  0.00000000000E+00  0.45593999997E+02  0.45594000000E+02  0.51100000000E-03 0. -1.
         11   -1    0    0    0    0 -0.00000000000E+00 -0.00000000000E+00 -0.45593999997E+02  0.45594000000E+02  0.51100000000E-03 0.  1.
    9900012    2    1    2    0    0  0.15359314866E+02  0.37816486494E+02 -0.14752189013E+02  0.47787282442E+02  0.20000051966E+02 0.  0.
         12    1    1    2    0    0 -0.15359314866E+02 -0.37816486494E+02  0.14752189013E+02  0.43400717558E+02  0.00000000000E+00 0. -1.
         11    1    3    3    0    0  0.36142324506E+01  0.17566830454E+02 -0.11602126730E+02  0.21360373436E+02  0.51100000000E-03 0. -1.
        -11    1    3    3    0    0 -0.10589123885E+01  0.20121576181E+01 -0.34613322545E+01  0.41413639014E+01  0.51100000000E-03 0.  1.
        -12    1    3    3    0    0  0.12803994804E+02  0.18237498422E+02  0.31126997192E+00  0.22285545105E+02  0.00000000000E+00 0.  1.
</event>
<event>
 7    1  0.2414091E-009  0.4778727E+02  0.7816164E-02  0.1312668E+00
        -11   -1    0    0    0    0  0.00000000000E+00  0.00000000000E+00  0.45593999997E+02  0.45594000000E+02  0.51100000000E-03 0.  1.
         11   -1    0    0    0    0 -0.00000000000E+00 -0.00000000000E+00 -0.45593999997E+02  0.45594000000E+02  0.51100000000E-03 0. -1.
    9900012    2    1    2    0    0 -0.19166087433E+02 -0.25750703707E+02  0.29209346733E+02  0.47787267455E+02  0.19999983633E+02 0.  0.
         12    1    1    2    0    0  0.19166087433E+02  0.25750703707E+02 -0.29209346733E+02  0.43400732545E+02  0.00000000000E+00 0. -1.
         11    1    3    3    0    0 -0.32687046022E+00 -0.62914099616E+01  0.81850854509E+01  0.10328809598E+02  0.51100000000E-03 0. -1.
        -11    1    3    3    0    0 -0.53864240081E+01 -0.11981584104E+02  0.24966264364E+01  0.13371801115E+02  0.51100000000E-03 0.  1.
        -12    1    3    3    0    0 -0.13452792964E+02 -0.74777096416E+01  0.18527634846E+02  0.24086656742E+02  0.00000000000E+00 0.  1.
</event>
<event>
 7    1  0.2414091E-009  0.4778727E+02  0.7816164E-02  0.1312668E+00
        -11   -1    0    0    0    0  0.00000000000E+00  0.00000000000E+00  0.45593999997E+02  0.45594000000E+02  0.51100000000E-03 0. -1.
         11   -1    0    0    0    0 -0.00000000000E+00 -0.00000000000E+00 -0.45593999997E+02  0.45594000000E+02  0.51100000000E-03 0.  1.
    9900012    2    1    2    0    0 -0.55112961751E+01 -0.35312505743E+02 -0.24622664535E+02  0.47787273553E+02  0.20000011436E+02 0.  0.
         12    1    1    2    0    0  0.55112961751E+01  0.35312505743E+02  0.24622664535E+02  0.43400726447E+02  0.00000000000E+00 0. -1.
         11    1    3    3    0    0  0.32695589979E+01 -0.14990462449E+01 -0.62658247650E+00  0.36509945968E+01  0.51100000000E-03 0. -1.
        -11    1    3    3    0    0 -0.11416641941E+01 -0.12582756635E+02 -0.15569418733E+02  0.20050834437E+02  0.51100000000E-03 0.  1.
         12    1    3    3    0    0 -0.76391909789E+01 -0.21230702863E+02 -0.84266633249E+01  0.24085444519E+02  0.00000000000E+00 0. -1.
</event>
<event>
 7    1  0.2414091E-009  0.4778727E+02  0.7816164E-02  0.1312668E+00
        -11   -1    0    0    0    0  0.00000000000E+00  0.00000000000E+00  0.45593999997E+02  0.45594000000E+02  0.51100000000E-03 0.  1.
         11   -1    0    0    0    0 -0.00000000000E+00 -0.00000000000E+00 -0.45593999997E+02  0.45594000000E+02  0.51100000000E-03 0. -1.
    9900012    2    1    2    0    0  0.21453879411E+02 -0.37669913322E+02 -0.20813831674E+01  0.47787268815E+02  0.19999989837E+02 0.  0.
         12    1    1    2    0    0 -0.21453879411E+02  0.37669913322E+02  0.20813831674E+01  0.43400731185E+02  0.00000000000E+00 0. -1.
         11    1    3    3    0    0  0.39824723411E+01 -0.14382789820E+02 -0.80206239474E+01  0.16942701607E+02  0.51100000000E-03 0. -1.
        -11    1    3    3    0    0  0.59204126110E+01 -0.28890175554E+01  0.29325702581E+01  0.72109414434E+01  0.51100000000E-03 0.  1.
        -12    1    3    3    0    0  0.11550994459E+02 -0.20398105946E+02  0.30066705219E+01  0.23633625765E+02  0.00000000000E+00 0.  1.
</event>
<event>
 7    1  0.2414091E-009  0.4778727E+02  0.7816164E-02  0.1312668E+00
        -11   -1    0    0    0    0  0.00000000000E+00  0.00000000000E+00  0.45593999997E+02  0.45594000000E+02  0.51100000000E-03 0.  1.
         11   -1    0    0    0    0 -0.00000000000E+00 -0.00000000000E+00 -0.45593999997E+02  0.45594000000E+02  0.51100000000E-03 0. -1.
    9900012    2    1    2    0    0 -0.11200023594E+02 -0.20055628116E+02  0.36823287983E+02  0.47787270910E+02  0.19999999389E+02 0.  0.
         12    1    1    2    0    0  0.11200023594E+02  0.20055628116E+02 -0.36823287983E+02  0.43400729090E+02  0.00000000000E+00 0. -1.
         11    1    3    3    0    0  0.24535948829E+01 -0.33962716313E+01  0.15702132294E+01  0.44744115467E+01  0.51100000000E-03 0. -1.
        -11    1    3    3    0    0  0.15903769192E+01 -0.94833211284E+00  0.87222709990E+01  0.89166498295E+01  0.51100000000E-03 0.  1.
        -12    1    3    3    0    0 -0.15243995396E+02 -0.15711024372E+02  0.26530803754E+02  0.34396209534E+02  0.00000000000E+00 0.  1.
</event>
<event>
 7    1  0.2414091E-009  0.4778727E+02  0.7816164E-02  0.1312668E+00
        -11   -1    0    0    0    0  0.00000000000E+00  0.00000000000E+00  0.45593999997E+02  0.45594000000E+02  0.51100000000E-03 0.  1.
         11   -1    0    0    0    0 -0.00000000000E+00 -0.00000000000E+00 -0.45593999997E+02  0.45594000000E+02  0.51100000000E-03 0. -1.
    9900012    2    1    2    0    0  0.27285224516E+02 -0.18365564023E+01 -0.33701141951E+02  0.47787269763E+02  0.19999994157E+02 0.  0.
         12    1    1    2    0    0 -0.27285224516E+02  0.18365564023E+01  0.33701141951E+02  0.43400730237E+02  0.00000000000E+00 0. -1.
         11    1    3    3    0    0  0.22221406207E+01  0.21495190315E+01 -0.46116495007E+01  0.55520854085E+01  0.51100000000E-03 0. -1.
        -11    1    3    3    0    0  0.20795854204E+02  0.63449025342E+00 -0.11984260673E+02  0.24010261017E+02  0.51100000000E-03 0.  1.
         12    1    3    3    0    0  0.42672296913E+01 -0.46205656872E+01 -0.17105231777E+02  0.18224923338E+02  0.00000000000E+00 0. -1.
</event>
<event>
 7    1  0.2414091E-009  0.4778726E+02  0.7816164E-02  0.1312668E+00
        -11   -1    0    0    0    0  0.00000000000E+00  0.00000000000E+00  0.45593999997E+02  0.45594000000E+02  0.51100000000E-03 0. -1.
         11   -1    0    0    0    0 -0.00000000000E+00 -0.00000000000E+00 -0.45593999997E+02  0.45594000000E+02  0.51100000000E-03 0.  1.
    9900012    2    1    2    0    0  0.43044760585E+02  0.21676141355E+01  0.51062989155E+01  0.47787259759E+02  0.19999948546E+02 0.  0.
         12    1    1    2    0    0 -0.43044760585E+02 -0.21676141355E+01 -0.51062989155E+01  0.43400740241E+02  0.00000000000E+00 0. -1.
         11    1    3    3    0    0  0.12407730912E+01 -0.74817834453E+00 -0.36515281992E+00  0.14941972902E+01  0.51100000000E-03 0. -1.
        -11    1    3    3    0    0  0.30446356485E+02  0.64869358900E+01  0.11196775072E+02  0.33082151271E+02  0.51100000000E-03 0.  1.
         12    1    3    3    0    0  0.11357631009E+02 -0.35711434100E+01 -0.57253233362E+01  0.13210911198E+02  0.00000000000E+00 0. -1.
</event>
<event>
 7    1  0.2414091E-009  0.4778727E+02  0.7816164E-02  0.1312668E+00
        -11   -1    0    0    0    0  0.00000000000E+00  0.00000000000E+00  0.45593999997E+02  0.45594000000E+02  0.51100000000E-03 0.  1.
         11   -1    0    0    0    0 -0.00000000000E+00 -0.00000000000E+00 -0.45593999997E+02  0.45594000000E+02  0.51100000000E-03 0. -1.
    9900012    2    1    2    0    0  0.29015268767E+02  0.22666545079E+02  0.22977504004E+02  0.47787265240E+02  0.19999973537E+02 0.  0.
         12    1    1    2    0    0 -0.29015268767E+02 -0.22666545079E+02 -0.22977504004E+02  0.43400734760E+02  0.00000000000E+00 0. -1.
         11    1    3    3    0    0  0.53255447336E+01  0.30073252110E+01  0.47744619363E+00  0.61346056730E+01  0.51100000000E-03 0.  1.
        -11    1    3    3    0    0  0.21855768778E+02  0.12547043579E+02  0.23226436636E+02  0.34272004471E+02  0.51100000000E-03 0. -1.
         12    1    3    3    0    0  0.18339552551E+01  0.71121762894E+01 -0.72637882545E+00  0.73806550961E+01  0.00000000000E+00 0. -1.
</event>
<event>
 7    1  0.2414091E-009  0.4778727E+02  0.7816164E-02  0.1312668E+00
        -11   -1    0    0    0    0  0.00000000000E+00  0.00000000000E+00  0.45593999997E+02  0.45594000000E+02  0.51100000000E-03 0.  1.
         11   -1    0    0    0    0 -0.00000000000E+00 -0.00000000000E+00 -0.45593999997E+02  0.45594000000E+02  0.51100000000E-03 0. -1.
    9900012    2    1    2    0    0 -0.21825939793E+02 -0.33834231344E+02  0.16201738092E+02  0.47787272176E+02  0.20000005158E+02 0.  0.
         12    1    1    2    0    0  0.21825939793E+02  0.33834231344E+02 -0.16201738092E+02  0.43400727824E+02  0.00000000000E+00 0. -1.
         11    1    3    3    0    0 -0.69576785386E+01 -0.42656276943E+01  0.32726414005E+00  0.81677397333E+01  0.51100000000E-03 0. -1.
        -11    1    3    3    0    0 -0.79826292249E+01 -0.44426549829E+01  0.86571639132E+01  0.12585946127E+02  0.51100000000E-03 0.  1.
        -12    1    3    3    0    0 -0.68856320296E+01 -0.25125948667E+02  0.72173100385E+01  0.27033586315E+02  0.00000000000E+00 0.  1.
</event>
<event>
 7    1  0.2414091E-009  0.4778727E+02  0.7816164E-02  0.1312668E+00
        -11   -1    0    0    0    0  0.00000000000E+00  0.00000000000E+00  0.45593999997E+02  0.45594000000E+02  0.51100000000E-03 0. -1.
         11   -1    0    0    0    0 -0.00000000000E+00 -0.00000000000E+00 -0.45593999997E+02  0.45594000000E+02  0.51100000000E-03 0.  1.
    9900012    2    1    2    0    0  0.32867074007E+01 -0.15510137197E+02 -0.40401195786E+02  0.47787269334E+02  0.19999992202E+02 0.  0.
         12    1    1    2    0    0 -0.32867074007E+01  0.15510137197E+02  0.40401195786E+02  0.43400730666E+02  0.00000000000E+00 0. -1.
         11    1    3    3    0    0  0.27965665166E+01 -0.32157337959E+01 -0.88982649091E+00  0.43535640081E+01  0.51100000000E-03 0. -1.
        -11    1    3    3    0    0  0.46819514512E+01 -0.10927155859E+02 -0.35625357320E+02  0.37556483981E+02  0.51100000000E-03 0.  1.
         12    1    3    3    0    0 -0.41918105671E+01 -0.13672475412E+01 -0.38860119752E+01  0.58772213452E+01  0.00000000000E+00 0. -1.
</event>
<event>
 7    1  0.2414091E-009  0.4778727E+02  0.7816164E-02  0.1312668E+00
        -11   -1    0    0    0    0  0.00000000000E+00  0.00000000000E+00  0.45593999997E+02  0.45594000000E+02  0.51100000000E-03 0.  1.
         11   -1    0    0    0    0 -0.00000000000E+00 -0.00000000000E+00 -0.45593999997E+02  0.45594000000E+02  0.51100000000E-03 0. -1.
    9900012    2    1    2    0    0 -0.45090262871E+01 -0.46730263862E+01  0.42912171621E+02  0.47787274581E+02  0.20000016125E+02 0.  0.
         12    1    1    2    0    0  0.45090262871E+01  0.46730263862E+01 -0.42912171621E+02  0.43400725419E+02  0.00000000000E+00 0. -1.
         11    1    3    3    0    0 -0.37600999086E+01 -0.16347063932E+01  0.22075260312E+02  0.22452789012E+02  0.51100000000E-03 0.  1.
        -11    1    3    3    0    0  0.32778644448E+01 -0.16777285617E+01  0.20759283574E+02  0.21083335202E+02  0.51100000000E-03 0. -1.
         12    1    3    3    0    0 -0.40267908233E+01 -0.13605914314E+01  0.77627734266E-01  0.42511503670E+01  0.00000000000E+00 0. -1.
</event>
<event>
 7    1  0.2414091E-009  0.4778725E+02  0.7816164E-02  0.1312668E+00
        -11   -1    0    0    0    0  0.00000000000E+00  0.00000000000E+00  0.45593999997E+02  0.45594000000E+02  0.51100000000E-03 0.  1.
         11   -1    0    0    0    0 -0.00000000000E+00 -0.00000000000E+00 -0.45593999997E+02  0.45594000000E+02  0.51100000000E-03 0. -1.
    9900012    2    1    2    0    0 -0.22562471475E+02 -0.12781317294E+02  0.34802274589E+02  0.47787245313E+02  0.19999882679E+02 0.  0.
         12    1    1    2    0    0  0.22562471475E+02  0.12781317294E+02 -0.34802274589E+02  0.43400754687E+02  0.00000000000E+00 0. -1.
         11    1    3    3    0    0 -0.61512091485E+01 -0.77216974963E+01  0.12549366571E+02  0.15967109564E+02  0.51100000000E-03 0. -1.
        -11    1    3    3    0    0 -0.11093819658E+02 -0.10305454287E+02  0.13237238292E+02  0.20112177916E+02  0.51100000000E-03 0.  1.
         12    1    3    3    0    0 -0.53174426683E+01  0.52458344892E+01  0.90156697263E+01  0.11707957834E+02  0.00000000000E+00 0. -1.
</event>
<event>
 7    1  0.2414091E-009  0.4778726E+02  0.7816164E-02  0.1312668E+00
        -11   -1    0    0    0    0  0.00000000000E+00  0.00000000000E+00  0.45593999997E+02  0.45594000000E+02  0.51100000000E-03 0. -1.
         11   -1    0    0    0    0 -0.00000000000E+00 -0.00000000000E+00 -0.45593999997E+02  0.45594000000E+02  0.51100000000E-03 0.  1.
    9900012    2    1    2    0    0  0.74800295929E+01  0.42732485317E+02 -0.12682163132E+01  0.47787256727E+02  0.19999934720E+02 0.  0.
         12    1    1    2    0    0 -0.74800295929E+01 -0.42732485317E+02  0.12682163132E+01  0.43400743273E+02  0.00000000000E+00 0. -1.
         11    1    3    3    0    0 -0.38933407889E+00 -0.95255675836E-01 -0.63298441270E+00  0.74921572101E+00  0.51100000000E-03 0. -1.
        -11    1    3    3    0    0  0.94014109623E+01  0.40439309533E+02  0.38869618556E+01  0.41699313620E+02  0.51100000000E-03 0.  1.
        -12    1    3    3    0    0 -0.15320472905E+01  0.23884314592E+01 -0.45221937562E+01  0.53387273862E+01  0.00000000000E+00 0.  1.
</event>
<event>
 7    1  0.2414091E-009  0.4778728E+02  0.7816164E-02  0.1312668E+00
        -11   -1    0    0    0    0  0.00000000000E+00  0.00000000000E+00  0.45593999997E+02  0.45594000000E+02  0.51100000000E-03 0. -1.
         11   -1    0    0    0    0 -0.00000000000E+00 -0.00000000000E+00 -0.45593999997E+02  0.45594000000E+02  0.51100000000E-03 0.  1.
    9900012    2    1    2    0    0  0.28612825683E+02  0.31547181820E+02 -0.83489073764E+01  0.47787277325E+02  0.20000028635E+02 0.  0.
         12    1    1    2    0    0 -0.28612825683E+02 -0.31547181820E+02  0.83489073764E+01  0.43400722675E+02  0.00000000000E+00 0. -1.
         11    1    3    3    0    0 -0.19747805532E+00  0.26867202409E+01 -0.37307749172E+01  0.46017545544E+01  0.51100000000E-03 0. -1.
        -11    1    3    3    0    0  0.90794323307E+01  0.17965188191E+02 -0.45920697665E+01  0.20646335829E+02  0.51100000000E-03 0.  1.
         12    1    3    3    0    0  0.19730871408E+02  0.10895273388E+02 -0.26062692719E-01  0.22539186941E+02  0.00000000000E+00 0. -1.
</event>
<event>
 7    1  0.2414091E-009  0.4778727E+02  0.7816164E-02  0.1312668E+00
        -11   -1    0    0    0    0  0.00000000000E+00  0.00000000000E+00  0.45593999997E+02  0.45594000000E+02  0.51100000000E-03 0.  1.
         11   -1    0    0    0    0 -0.00000000000E+00 -0.00000000000E+00 -0.45593999997E+02  0.45594000000E+02  0.51100000000E-03 0. -1.
    9900012    2    1    2    0    0  0.20377744365E+02  0.38102128716E+02  0.40741426812E+01  0.47787270551E+02  0.19999997752E+02 0.  0.
         12    1    1    2    0    0 -0.20377744365E+02 -0.38102128716E+02 -0.40741426812E+01  0.43400729449E+02  0.00000000000E+00 0. -1.
         11    1    3    3    0    0  0.12567587657E+02  0.25401309382E+02  0.72382999817E+01  0.29250021619E+02  0.51100000000E-03 0. -1.
        -11    1    3    3    0    0  0.10311500399E+02  0.10786955752E+02 -0.15635802632E+01  0.15004340651E+02  0.51100000000E-03 0.  1.
         12    1    3    3    0    0 -0.25013436911E+01  0.19138635820E+01 -0.16005770372E+01  0.35329082813E+01  0.00000000000E+00 0. -1.
</event>
<event>
 7    1  0.2414091E-009  0.4778727E+02  0.7816164E-02  0.1312668E+00
        -11   -1    0    0    0    0  0.00000000000E+00  0.00000000000E+00  0.45593999997E+02  0.45594000000E+02  0.51100000000E-03 0.  1.
         11   -1    0    0    0    0 -0.00000000000E+00 -0.00000000000E+00 -0.45593999997E+02  0.45594000000E+02  0.51100000000E-03 0. -1.
    9900012    2    1    2    0    0  0.10662348172E+02  0.19101612580E+02  0.37484210876E+02  0.47787270320E+02  0.19999996699E+02 0.  0.
         12    1    1    2    0    0 -0.10662348172E+02 -0.19101612580E+02 -0.37484210876E+02  0.43400729680E+02  0.00000000000E+00 0. -1.
         11    1    3    3    0    0 -0.52825364526E-01  0.19852700402E+00  0.30024748855E+01  0.30094948396E+01  0.51100000000E-03 0. -1.
        -11    1    3    3    0    0 -0.39940246834E+01  0.11186333331E+02  0.16025811953E+02  0.19947755152E+02  0.51100000000E-03 0.  1.
         12    1    3    3    0    0  0.14709198220E+02  0.77167522455E+01  0.18455924037E+02  0.24830020329E+02  0.00000000000E+00 0. -1.
</event>
<event>
 7    1  0.2414091E-009  0.4778727E+02  0.7816164E-02  0.1312668E+00
        -11   -1    0    0    0    0  0.00000000000E+00  0.00000000000E+00  0.45593999997E+02  0.45594000000E+02  0.51100000000E-03 0. -1.
         11   -1    0    0    0    0 -0.00000000000E+00 -0.00000000000E+00 -0.45593999997E+02  0.45594000000E+02  0.51100000000E-03 0.  1.
    9900012    2    1    2    0    0 -0.20804416120E+02  0.22315689854E+02 -0.30867615877E+02  0.47787268973E+02  0.19999990556E+02 0.  0.
         12    1    1    2    0    0  0.20804416120E+02 -0.22315689854E+02  0.30867615877E+02  0.43400731027E+02  0.00000000000E+00 0. -1.
         11    1    3    3    0    0 -0.63595627266E+01  0.26947471410E+01 -0.12361130923E+01  0.70166712952E+01  0.51100000000E-03 0. -1.
        -11    1    3    3    0    0 -0.13728837870E+02  0.77599318083E+01 -0.20033464600E+02  0.25495827797E+02  0.51100000000E-03 0.  1.
         12    1    3    3    0    0 -0.71601552318E+00  0.11861010905E+02 -0.95980381848E+01  0.15274769881E+02  0.00000000000E+00 0. -1.
</event>
<event>
 7    1  0.2414091E-009  0.4778727E+02  0.7816164E-02  0.1312668E+00
        -11   -1    0    0    0    0  0.00000000000E+00  0.00000000000E+00  0.45593999997E+02  0.45594000000E+02  0.51100000000E-03 0. -1.
         11   -1    0    0    0    0 -0.00000000000E+00 -0.00000000000E+00 -0.45593999997E+02  0.45594000000E+02  0.51100000000E-03 0.  1.
    9900012    2    1    2    0    0 -0.22814095153E+02  0.30334415142E+01 -0.36795901647E+02  0.47787273242E+02  0.20000010020E+02 0.  0.
         12    1    1    2    0    0  0.22814095153E+02 -0.30334415142E+01  0.36795901647E+02  0.43400726758E+02  0.00000000000E+00 0. -1.
         11    1    3    3    0    0 -0.12937544615E+02  0.82575624598E+01 -0.15370934315E+02  0.21721717714E+02  0.51100000000E-03 0. -1.
        -11    1    3    3    0    0 -0.19225418754E+01  0.98873634096E+00 -0.12206261263E+02  0.12396232537E+02  0.51100000000E-03 0.  1.
         12    1    3    3    0    0 -0.79540086624E+01 -0.62128572866E+01 -0.92187060690E+01  0.13669322992E+02  0.00000000000E+00 0. -1.
</event>
<event>
 7    1  0.2414091E-009  0.4778727E+02  0.7816164E-02  0.1312668E+00
        -11   -1    0    0    0    0  0.00000000000E+00  0.00000000000E+00  0.45593999997E+02  0.45594000000E+02  0.51100000000E-03 0. -1.
         11   -1    0    0    0    0 -0.00000000000E+00 -0.00000000000E+00 -0.45593999997E+02  0.45594000000E+02  0.51100000000E-03 0.  1.
    9900012    2    1    2    0    0 -0.30997741296E+02  0.28182205814E+02  0.11336951398E+02  0.47787272391E+02  0.20000006138E+02 0.  0.
         12    1    1    2    0    0  0.30997741296E+02 -0.28182205814E+02 -0.11336951398E+02  0.43400727609E+02  0.00000000000E+00 0. -1.
         11    1    3    3    0    0 -0.16772644012E+01  0.53797580158E+01  0.31163501066E+01  0.64394604143E+01  0.51100000000E-03 0. -1.
        -11    1    3    3    0    0 -0.12816860244E+02  0.50401995304E+01 -0.37982114522E+01  0.14286424616E+02  0.51100000000E-03 0.  1.
        -12    1    3    3    0    0 -0.16503616651E+02  0.17762248268E+02  0.12018812743E+02  0.27061387360E+02  0.00000000000E+00 0.  1.
</event>
<event>
 7    1  0.2414091E-009  0.4778734E+02  0.7816164E-02  0.1312667E+00
        -11   -1    0    0    0    0  0.00000000000E+00  0.00000000000E+00  0.45593999997E+02  0.45594000000E+02  0.51100000000E-03 0.  1.
         11   -1    0    0    0    0 -0.00000000000E+00 -0.00000000000E+00 -0.45593999997E+02  0.45594000000E+02  0.51100000000E-03 0. -1.
    9900012    2    1    2    0    0  0.14222066437E+01 -0.35465537292E+02  0.24975800936E+02  0.47787335955E+02  0.20000295952E+02 0.  0.
         12    1    1    2    0    0 -0.14222066437E+01  0.35465537292E+02 -0.24975800936E+02  0.43400664045E+02  0.00000000000E+00 0. -1.
         11    1    3    3    0    0 -0.41700813594E+00  0.15505302258E+00  0.50554217248E+01  0.50749607193E+01  0.51100000000E-03 0. -1.
        -11    1    3    3    0    0 -0.51841819050E+01 -0.10724796944E+02  0.65330843404E+01  0.13585956086E+02  0.51100000000E-03 0.  1.
        -12    1    3    3    0    0  0.70233966845E+01 -0.24895793371E+02  0.13387294871E+02  0.29126419150E+02  0.00000000000E+00 0.  1.
</event>
<event>
 7    1  0.2414091E-009  0.4778727E+02  0.7816164E-02  0.1312668E+00
        -11   -1    0    0    0    0  0.00000000000E+00  0.00000000000E+00  0.45593999997E+02  0.45594000000E+02  0.51100000000E-03 0.  1.
         11   -1    0    0    0    0 -0.00000000000E+00 -0.00000000000E+00 -0.45593999997E+02  0.45594000000E+02  0.51100000000E-03 0. -1.
    9900012    2    1    2    0    0 -0.73005187970E+01  0.40858176851E+01  0.42586755781E+02  0.47787271333E+02  0.20000001316E+02 0.  0.
         12    1    1    2    0    0  0.73005187970E+01 -0.40858176851E+01 -0.42586755781E+02  0.43400728667E+02  0.00000000000E+00 0. -1.
         11    1    3    3    0    0 -0.12258882618E+01  0.16443449036E+01  0.56975382075E+01  0.60554615084E+01  0.51100000000E-03 0.  1.
        -11    1    3    3    0    0 -0.11330738406E+02 -0.35303474927E+00  0.32251049802E+02  0.34185384011E+02  0.51100000000E-03 0. -1.
         12    1    3    3    0    0  0.52561078708E+01  0.27945075308E+01  0.46381677711E+01  0.75464258137E+01  0.00000000000E+00 0. -1.
</event>
<event>
 7    1  0.2414091E-009  0.4778726E+02  0.7816164E-02  0.1312668E+00
        -11   -1    0    0    0    0  0.00000000000E+00  0.00000000000E+00  0.45593999997E+02  0.45594000000E+02  0.51100000000E-03 0. -1.
         11   -1    0    0    0    0 -0.00000000000E+00 -0.00000000000E+00 -0.45593999997E+02  0.45594000000E+02  0.51100000000E-03 0.  1.
    9900012    2    1    2    0    0  0.40286791115E+02 -0.66437873024E+01 -0.14712524854E+02  0.47787264572E+02  0.19999970491E+02 0.  0.
         12    1    1    2    0    0 -0.40286791115E+02  0.66437873024E+01  0.14712524854E+02  0.43400735428E+02  0.00000000000E+00 0. -1.
         11    1    3    3    0    0 -0.59323762035E+00 -0.15290841376E+01  0.10556403386E+01  0.19504886464E+01  0.51100000000E-03 0. -1.
        -11    1    3    3    0    0  0.51758707312E+01  0.13109053999E+01 -0.64657321578E+01  0.83853326345E+01  0.51100000000E-03 0.  1.
        -12    1    3    3    0    0  0.35704158004E+02 -0.64256085647E+01 -0.93024330352E+01  0.37451443291E+02  0.00000000000E+00 0.  1.
</event>
<event>
 7    1  0.2414091E-009  0.4778728E+02  0.7816164E-02  0.1312668E+00
        -11   -1    0    0    0    0  0.00000000000E+00  0.00000000000E+00  0.45593999997E+02  0.45594000000E+02  0.51100000000E-03 0. -1.
         11   -1    0    0    0    0 -0.00000000000E+00 -0.00000000000E+00 -0.45593999997E+02  0.45594000000E+02  0.51100000000E-03 0.  1.
    9900012    2    1    2    0    0  0.20898536057E+02  0.20979786692E+02 -0.31728883935E+02  0.47787281864E+02  0.20000049329E+02 0.  0.
         12    1    1    2    0    0 -0.20898536057E+02 -0.20979786692E+02  0.31728883935E+02  0.43400718136E+02  0.00000000000E+00 0. -1.
         11    1    3    3    0    0  0.13862010914E+02  0.90631756065E+01 -0.10257452197E+02  0.19481063228E+02  0.51100000000E-03 0. -1.
        -11    1    3    3    0    0  0.81305814303E+01  0.57543698714E+01 -0.60281350728E+01  0.11642918008E+02  0.51100000000E-03 0.  1.
         12    1    3    3    0    0 -0.10940562872E+01  0.61622412145E+01 -0.15443296665E+02  0.16663300628E+02  0.00000000000E+00 0. -1.
</event>
<event>
 7    1  0.2414091E-009  0.4778727E+02  0.7816164E-02  0.1312668E+00
        -11   -1    0    0    0    0  0.00000000000E+00  0.00000000000E+00  0.45593999997E+02  0.45594000000E+02  0.51100000000E-03 0. -1.
         11   -1    0    0    0    0 -0.00000000000E+00 -0.00000000000E+00 -0.45593999997E+02  0.45594000000E+02  0.51100000000E-03 0.  1.
    9900012    2    1    2    0    0 -0.33831779957E+02 -0.11774960820E+02 -0.24502738021E+02  0.47787271805E+02  0.20000003466E+02 0.  0.
         12    1    1    2    0    0  0.33831779957E+02  0.11774960820E+02  0.24502738021E+02  0.43400728195E+02  0.00000000000E+00 0. -1.
         11    1    3    3    0    0 -0.16142503427E+01 -0.33071684481E+01 -0.55018440655E+00  0.37210039580E+01  0.51100000000E-03 0. -1.
        -11    1    3    3    0    0  0.17030898580E+01 -0.14611043607E+01 -0.70868278447E+00  0.23532047440E+01  0.51100000000E-03 0.  1.
        -12    1    3    3    0    0 -0.33920619472E+02 -0.70066880117E+01 -0.23243870830E+02  0.41713063103E+02  0.00000000000E+00 0.  1.
</event>
<event>
 7    1  0.2414091E-009  0.4778728E+02  0.7816164E-02  0.1312668E+00
        -11   -1    0    0    0    0  0.00000000000E+00  0.00000000000E+00  0.45593999997E+02  0.45594000000E+02  0.51100000000E-03 0.  1.
         11   -1    0    0    0    0 -0.00000000000E+00 -0.00000000000E+00 -0.45593999997E+02  0.45594000000E+02  0.51100000000E-03 0. -1.
    9900012    2    1    2    0    0  0.25701457706E+02  0.17569489710E+02  0.30238568485E+02  0.47787275110E+02  0.20000018539E+02 0.  0.
         12    1    1    2    0    0 -0.25701457706E+02 -0.17569489710E+02 -0.30238568485E+02  0.43400724890E+02  0.00000000000E+00 0. -1.
         11    1    3    3    0    0  0.10730638783E+02  0.13881149944E+02  0.91382782807E+01  0.19782342193E+02  0.51100000000E-03 0. -1.
        -11    1    3    3    0    0 -0.94964009433E+00 -0.93378816962E+00  0.22972662132E+00  0.13514996249E+01  0.51100000000E-03 0.  1.
        -12    1    3    3    0    0  0.15920459018E+02  0.46221279361E+01  0.20870563583E+02  0.26653433293E+02  0.00000000000E+00 0.  1.
</event>
<event>
 7    1  0.2414091E-009  0.4778727E+02  0.7816164E-02  0.1312668E+00
        -11   -1    0    0    0    0  0.00000000000E+00  0.00000000000E+00  0.45593999997E+02  0.45594000000E+02  0.51100000000E-03 0.  1.
         11   -1    0    0    0    0 -0.00000000000E+00 -0.00000000000E+00 -0.45593999997E+02  0.45594000000E+02  0.51100000000E-03 0. -1.
    9900012    2    1    2    0    0  0.39371054945E+02 -0.11537482325E+02 -0.14157315321E+02  0.47787273705E+02  0.20000012129E+02 0.  0.
         12    1    1    2    0    0 -0.39371054945E+02  0.11537482325E+02  0.14157315321E+02  0.43400726295E+02  0.00000000000E+00 0. -1.
         11    1    3    3    0    0  0.74693508484E+01  0.15944047585E+01 -0.69411638812E+01  0.10320517667E+02  0.51100000000E-03 0. -1.
        -11    1    3    3    0    0  0.12070576306E+01  0.20352384163E+01  0.38048961188E+00  0.23966551985E+01  0.51100000000E-03 0.  1.
         12    1    3    3    0    0  0.30694646466E+02 -0.15167125500E+02 -0.75966410518E+01  0.35070100839E+02  0.00000000000E+00 0. -1.
</event>
<event>
 7    1  0.2414091E-009  0.4778727E+02  0.7816164E-02  0.1312668E+00
        -11   -1    0    0    0    0  0.00000000000E+00  0.00000000000E+00  0.45593999997E+02  0.45594000000E+02  0.51100000000E-03 0.  1.
         11   -1    0    0    0    0 -0.00000000000E+00 -0.00000000000E+00 -0.45593999997E+02  0.45594000000E+02  0.51100000000E-03 0. -1.
    9900012    2    1    2    0    0 -0.28608662139E+02 -0.10989456892E+02  0.30731088692E+02  0.47787268158E+02  0.19999986841E+02 0.  0.
         12    1    1    2    0    0  0.28608662139E+02  0.10989456892E+02 -0.30731088692E+02  0.43400731842E+02  0.00000000000E+00 0. -1.
         11    1    3    3    0    0 -0.63105137599E+01 -0.58254095295E+00  0.10319358895E+02  0.12109958966E+02  0.51100000000E-03 0.  1.
        -11    1    3    3    0    0 -0.18022423341E+02 -0.13544856852E+02  0.20353626855E+02  0.30373360312E+02  0.51100000000E-03 0. -1.
         12    1    3    3    0    0 -0.42757250379E+01  0.31379409127E+01  0.58102941527E-01  0.53039488802E+01  0.00000000000E+00 0. -1.
</event>
<event>
 7    1  0.2414091E-009  0.4778727E+02  0.7816164E-02  0.1312668E+00
        -11   -1    0    0    0    0  0.00000000000E+00  0.00000000000E+00  0.45593999997E+02  0.45594000000E+02  0.51100000000E-03 0.  1.
         11   -1    0    0    0    0 -0.00000000000E+00 -0.00000000000E+00 -0.45593999997E+02  0.45594000000E+02  0.51100000000E-03 0. -1.
    9900012    2    1    2    0    0  0.25202052544E+02  0.31620601899E+02  0.15767602718E+02  0.47787271753E+02  0.20000003231E+02 0.  0.
         12    1    1    2    0    0 -0.25202052544E+02 -0.31620601899E+02 -0.15767602718E+02  0.43400728247E+02  0.00000000000E+00 0. -1.
         11    1    3    3    0    0  0.95298121579E+00  0.42395713937E+01 -0.24509798712E+01  0.49889318887E+01  0.51100000000E-03 0. -1.
        -11    1    3    3    0    0  0.59314004492E+01  0.15013590567E+02  0.11052050961E+02  0.19563671530E+02  0.51100000000E-03 0.  1.
        -12    1    3    3    0    0  0.18317670879E+02  0.12367439938E+02  0.71665316289E+01  0.23234668335E+02  0.00000000000E+00 0.  1.
</event>
<event>
 7    1  0.2414091E-009  0.4778725E+02  0.7816164E-02  0.1312668E+00
        -11   -1    0    0    0    0  0.00000000000E+00  0.00000000000E+00  0.45593999997E+02  0.45594000000E+02  0.51100000000E-03 0.  1.
         11   -1    0    0    0    0 -0.00000000000E+00 -0.00000000000E+00 -0.45593999997E+02  0.45594000000E+02  0.51100000000E-03 0. -1.
    9900012    2    1    2    0    0  0.32012750685E+02 -0.17616541340E+02  0.23419354651E+02  0.47787252224E+02  0.19999914191E+02 0.  0.
         12    1    1    2    0    0 -0.32012750685E+02  0.17616541340E+02 -0.23419354651E+02  0.43400747776E+02  0.00000000000E+00 0. -1.
         11    1    3    3    0    0  0.18864063981E+01  0.31632854716E+01  0.23389318809E+01  0.43629699377E+01  0.51100000000E-03 0. -1.
        -11    1    3    3    0    0  0.98727727010E+01 -0.42595641476E+01  0.16996084799E+01  0.10885963291E+02  0.51100000000E-03 0.  1.
        -12    1    3    3    0    0  0.20253571586E+02 -0.16520262664E+02  0.19380814290E+02  0.32538318995E+02  0.00000000000E+00 0.  1.
</event>
<event>
 7    1  0.2414091E-009  0.4778727E+02  0.7816164E-02  0.1312668E+00
        -11   -1    0    0    0    0  0.00000000000E+00  0.00000000000E+00  0.45593999997E+02  0.45594000000E+02  0.51100000000E-03 0.  1.
         11   -1    0    0    0    0 -0.00000000000E+00 -0.00000000000E+00 -0.45593999997E+02  0.45594000000E+02  0.51100000000E-03 0. -1.
    9900012    2    1    2    0    0 -0.26713532259E+02 -0.34145497685E+02  0.20236984829E+01  0.47787272201E+02  0.20000005275E+02 0.  0.
         12    1    1    2    0    0  0.26713532259E+02  0.34145497685E+02 -0.20236984829E+01  0.43400727799E+02  0.00000000000E+00 0. -1.
         11    1    3    3    0    0 -0.34410557146E+01 -0.46216361926E+00  0.44822323664E+01  0.56696443353E+01  0.51100000000E-03 0. -1.
        -11    1    3    3    0    0 -0.10110186925E+02 -0.21461667358E+02  0.13295442183E+01  0.23761033932E+02  0.51100000000E-03 0.  1.
        -12    1    3    3    0    0 -0.13162289619E+02 -0.12221666708E+02 -0.37880781018E+01  0.18356593934E+02  0.00000000000E+00 0.  1.
</event>
<event>
 7    1  0.2414091E-009  0.4778727E+02  0.7816164E-02  0.1312668E+00
        -11   -1    0    0    0    0  0.00000000000E+00  0.00000000000E+00  0.45593999997E+02  0.45594000000E+02  0.51100000000E-03 0.  1.
         11   -1    0    0    0    0 -0.00000000000E+00 -0.00000000000E+00 -0.45593999997E+02  0.45594000000E+02  0.51100000000E-03 0. -1.
    9900012    2    1    2    0    0  0.33064502499E+02 -0.67431656276E+00  0.28105289350E+02  0.47787270539E+02  0.19999997695E+02 0.  0.
         12    1    1    2    0    0 -0.33064502499E+02  0.67431656276E+00 -0.28105289350E+02  0.43400729461E+02  0.00000000000E+00 0. -1.
         11    1    3    3    0    0 -0.72251231345E+00 -0.10609641890E+01  0.11155474855E+01  0.17006220941E+01  0.51100000000E-03 0. -1.
        -11    1    3    3    0    0  0.23870283443E+02  0.71962897874E+01  0.21245506084E+02  0.32755893323E+02  0.51100000000E-03 0.  1.
        -12    1    3    3    0    0  0.99167313692E+01 -0.68096421612E+01  0.57442357801E+01  0.13330755122E+02  0.00000000000E+00 0.  1.
</event>
<event>
 7    1  0.2414091E-009  0.4778727E+02  0.7816164E-02  0.1312668E+00
        -11   -1    0    0    0    0  0.00000000000E+00  0.00000000000E+00  0.45593999997E+02  0.45594000000E+02  0.51100000000E-03 0.  1.
         11   -1    0    0    0    0 -0.00000000000E+00 -0.00000000000E+00 -0.45593999997E+02  0.45594000000E+02  0.51100000000E-03 0. -1.
    9900012    2    1    2    0    0 -0.27815634569E+02 -0.12471972147E+02  0.30892776480E+02  0.47787271269E+02  0.20000001025E+02 0.  0.
         12    1    1    2    0    0  0.27815634569E+02  0.12471972147E+02 -0.30892776480E+02  0.43400728731E+02  0.00000000000E+00 0. -1.
         11    1    3    3    0    0 -0.38908580452E+01  0.19414241772E+01  0.64744524212E+00  0.43962586100E+01  0.51100000000E-03 0. -1.
        -11    1    3    3    0    0 -0.13506804380E+02 -0.57884672406E+00  0.10435461871E+02  0.17078281319E+02  0.51100000000E-03 0.  1.
        -12    1    3    3    0    0 -0.10417972143E+02 -0.13834549600E+02  0.19809869368E+02  0.26312731340E+02  0.00000000000E+00 0.  1.
</event>
<event>
 7    1  0.2414091E-009  0.4778725E+02  0.7816164E-02  0.1312668E+00
        -11   -1    0    0    0    0  0.00000000000E+00  0.00000000000E+00  0.45593999997E+02  0.45594000000E+02  0.51100000000E-03 0. -1.
         11   -1    0    0    0    0 -0.00000000000E+00 -0.00000000000E+00 -0.45593999997E+02  0.45594000000E+02  0.51100000000E-03 0.  1.
    9900012    2    1    2    0    0 -0.12870749413E+02  0.39333734153E+02 -0.13070044584E+02  0.47787252330E+02  0.19999914674E+02 0.  0.
         12    1    1    2    0    0  0.12870749413E+02 -0.39333734153E+02  0.13070044584E+02  0.43400747670E+02  0.00000000000E+00 0. -1.
         11    1    3    3    0    0  0.24812709144E+01  0.12992475739E+02 -0.32269917430E+01  0.13615234378E+02  0.51100000000E-03 0. -1.
        -11    1    3    3    0    0 -0.10664061764E+01  0.96179502871E+01  0.85382287225E+00  0.97144842177E+01  0.51100000000E-03 0.  1.
         12    1    3    3    0    0 -0.14285614151E+02  0.16723308126E+02 -0.10696875713E+02  0.24457533735E+02  0.00000000000E+00 0. -1.
</event>
<event>
 7    1  0.2414091E-009  0.4778728E+02  0.7816164E-02  0.1312668E+00
        -11   -1    0    0    0    0  0.00000000000E+00  0.00000000000E+00  0.45593999997E+02  0.45594000000E+02  0.51100000000E-03 0. -1.
         11   -1    0    0    0    0 -0.00000000000E+00 -0.00000000000E+00 -0.45593999997E+02  0.45594000000E+02  0.51100000000E-03 0.  1.
    9900012    2    1    2    0    0 -0.39762111916E+02  0.16850764096E+02 -0.43184125042E+01  0.47787280177E+02  0.20000041638E+02 0.  0.
         12    1    1    2    0    0  0.39762111916E+02 -0.16850764096E+02  0.43184125042E+01  0.43400719823E+02  0.00000000000E+00 0. -1.
         11    1    3    3    0    0 -0.12438626038E+02  0.30629217821E+01  0.51692906680E+01  0.13813850797E+02  0.51100000000E-03 0. -1.
        -11    1    3    3    0    0 -0.24540868095E+02  0.12998565709E+02 -0.43946359820E+01  0.28116360771E+02  0.51100000000E-03 0.  1.
         12    1    3    3    0    0 -0.27826177825E+01  0.78927660432E+00 -0.50930671902E+01  0.58570686085E+01  0.00000000000E+00 0. -1.
</event>
<event>
 7    1  0.2414091E-009  0.4778728E+02  0.7816164E-02  0.1312668E+00
        -11   -1    0    0    0    0  0.00000000000E+00  0.00000000000E+00  0.45593999997E+02  0.45594000000E+02  0.51100000000E-03 0. -1.
         11   -1    0    0    0    0 -0.00000000000E+00 -0.00000000000E+00 -0.45593999997E+02  0.45594000000E+02  0.51100000000E-03 0.  1.
    9900012    2    1    2    0    0 -0.20011208846E+02  0.23141765217E+02 -0.30783645918E+02  0.47787278429E+02  0.20000033670E+02 0.  0.
         12    1    1    2    0    0  0.20011208846E+02 -0.23141765217E+02  0.30783645918E+02  0.43400721571E+02  0.00000000000E+00 0. -1.
         11    1    3    3    0    0 -0.20621099584E+01 -0.11154756520E+01 -0.38400691661E+01  0.44991904686E+01  0.51100000000E-03 0. -1.
        -11    1    3    3    0    0 -0.13805879661E+02  0.65469013316E+01 -0.89738808878E+01  0.17719897537E+02  0.51100000000E-03 0.  1.
         12    1    3    3    0    0 -0.41432192261E+01  0.17710339538E+02 -0.17969695864E+02  0.25568190424E+02  0.00000000000E+00 0. -1.
</event>
<event>
 7    1  0.2414091E-009  0.4778727E+02  0.7816164E-02  0.1312668E+00
        -11   -1    0    0    0    0  0.00000000000E+00  0.00000000000E+00  0.45593999997E+02  0.45594000000E+02  0.51100000000E-03 0. -1.
         11   -1    0    0    0    0 -0.00000000000E+00 -0.00000000000E+00 -0.45593999997E+02  0.45594000000E+02  0.51100000000E-03 0.  1.
    9900012    2    1    2    0    0  0.40351353911E+02 -0.93774054001E+01 -0.12940461464E+02  0.47787273769E+02  0.20000012422E+02 0.  0.
         12    1    1    2    0    0 -0.40351353911E+02  0.93774054001E+01  0.12940461464E+02  0.43400726231E+02  0.00000000000E+00 0. -1.
         11    1    3    3    0    0  0.79369762088E+01 -0.46237037499E-01  0.14098520546E+01  0.80613530055E+01  0.51100000000E-03 0. -1.
        -11    1    3    3    0    0  0.25080890392E+02  0.11819313479E+00 -0.98579135756E+01  0.26948905224E+02  0.51100000000E-03 0.  1.
         12    1    3    3    0    0  0.73334873105E+01 -0.94493614974E+01 -0.44923999432E+01  0.12777015539E+02  0.00000000000E+00 0. -1.
</event>
<event>
 7    1  0.2414091E-009  0.4778728E+02  0.7816164E-02  0.1312668E+00
        -11   -1    0    0    0    0  0.00000000000E+00  0.00000000000E+00  0.45593999997E+02  0.45594000000E+02  0.51100000000E-03 0.  1.
         11   -1    0    0    0    0 -0.00000000000E+00 -0.00000000000E+00 -0.45593999997E+02  0.45594000000E+02  0.51100000000E-03 0. -1.
    9900012    2    1    2    0    0 -0.95197733835E+01 -0.96511907486E+01  0.41229246978E+02  0.47787281405E+02  0.20000047239E+02 0.  0.
         12    1    1    2    0    0  0.95197733835E+01  0.96511907486E+01 -0.41229246978E+02  0.43400718595E+02  0.00000000000E+00 0. -1.
         11    1    3    3    0    0 -0.36111181824E+01  0.59218094370E+00  0.13870452725E+01  0.39134061438E+01  0.51100000000E-03 0. -1.
        -11    1    3    3    0    0 -0.92230556831E+01 -0.77389594411E+01  0.18101474626E+02  0.21739816771E+02  0.51100000000E-03 0.  1.
        -12    1    3    3    0    0  0.33144004819E+01 -0.25044122513E+01  0.21740727080E+02  0.22134058490E+02  0.00000000000E+00 0.  1.
</event>
<event>
 7    1  0.2414091E-009  0.4778727E+02  0.7816164E-02  0.1312668E+00
        -11   -1    0    0    0    0  0.00000000000E+00  0.00000000000E+00  0.45593999997E+02  0.45594000000E+02  0.51100000000E-03 0.  1.
         11   -1    0    0    0    0 -0.00000000000E+00 -0.00000000000E+00 -0.45593999997E+02  0.45594000000E+02  0.51100000000E-03 0. -1.
    9900012    2    1    2    0    0  0.19084454699E+02 -0.49722208144E+01  0.38661144009E+02  0.47787269049E+02  0.19999990902E+02 0.  0.
         12    1    1    2    0    0 -0.19084454699E+02  0.49722208144E+01 -0.38661144009E+02  0.43400730951E+02  0.00000000000E+00 0. -1.
         11    1    3    3    0    0  0.66542081362E+00  0.24078294248E+01  0.68981697653E+01  0.73365641666E+01  0.51100000000E-03 0. -1.
        -11    1    3    3    0    0 -0.26054416473E+01  0.33254027966E+00  0.27910197362E+01  0.38325840688E+01  0.51100000000E-03 0.  1.
        -12    1    3    3    0    0  0.21024475533E+02 -0.77125905188E+01  0.28971954507E+02  0.36618120814E+02  0.00000000000E+00 0.  1.
</event>
<event>
 7    1  0.2414091E-009  0.4778727E+02  0.7816164E-02  0.1312668E+00
        -11   -1    0    0    0    0  0.00000000000E+00  0.00000000000E+00  0.45593999997E+02  0.45594000000E+02  0.51100000000E-03 0.  1.
         11   -1    0    0    0    0 -0.00000000000E+00 -0.00000000000E+00 -0.45593999997E+02  0.45594000000E+02  0.51100000000E-03 0. -1.
    9900012    2    1    2    0    0  0.29828310045E+02 -0.24689414109E+02  0.19604291842E+02  0.47787268350E+02  0.19999987713E+02 0.  0.
         12    1    1    2    0    0 -0.29828310045E+02  0.24689414109E+02 -0.19604291842E+02  0.43400731650E+02  0.00000000000E+00 0. -1.
         11    1    3    3    0    0  0.56663366552E+01 -0.27480355838E+01 -0.35187627122E+01  0.72139283297E+01  0.51100000000E-03 0. -1.
        -11    1    3    3    0    0  0.20448903073E+02 -0.14981734462E+02  0.18946102623E+02  0.31647508737E+02  0.51100000000E-03 0.  1.
         12    1    3    3    0    0  0.37130703164E+01 -0.69596440628E+01  0.41769519311E+01  0.89258312829E+01  0.00000000000E+00 0. -1.
</event>
<event>
 7    1  0.2414091E-009  0.4778728E+02  0.7816164E-02  0.1312668E+00
        -11   -1    0    0    0    0  0.00000000000E+00  0.00000000000E+00  0.45593999997E+02  0.45594000000E+02  0.51100000000E-03 0.  1.
         11   -1    0    0    0    0 -0.00000000000E+00 -0.00000000000E+00 -0.45593999997E+02  0.45594000000E+02  0.51100000000E-03 0. -1.
    9900012    2    1    2    0    0 -0.46257095694E+01  0.33824468246E+02 -0.26797964436E+02  0.47787277206E+02  0.20000028094E+02 0.  0.
         12    1    1    2    0    0  0.46257095694E+01 -0.33824468246E+02  0.26797964436E+02  0.43400722794E+02  0.00000000000E+00 0. -1.
         11    1    3    3    0    0  0.58266946233E+01  0.17288504232E+02 -0.18726372382E+02  0.26144211054E+02  0.51100000000E-03 0. -1.
        -11    1    3    3    0    0 -0.15464809796E+01  0.62191528019E+01 -0.19198480463E+01  0.66899388470E+01  0.51100000000E-03 0.  1.
         12    1    3    3    0    0 -0.89059232131E+01  0.10316811212E+02 -0.61517440076E+01  0.14953127305E+02  0.00000000000E+00 0. -1.
</event>
<event>
 7    1  0.2414091E-009  0.4778727E+02  0.7816164E-02  0.1312668E+00
        -11   -1    0    0    0    0  0.00000000000E+00  0.00000000000E+00  0.45593999997E+02  0.45594000000E+02  0.51100000000E-03 0.  1.
         11   -1    0    0    0    0 -0.00000000000E+00 -0.00000000000E+00 -0.45593999997E+02  0.45594000000E+02  0.51100000000E-03 0. -1.
    9900012    2    1    2    0    0 -0.84379380791E+00  0.15477961957E+02  0.40538179378E+02  0.47787270956E+02  0.19999999595E+02 0.  0.
         12    1    1    2    0    0  0.84379380791E+00 -0.15477961957E+02 -0.40538179378E+02  0.43400729044E+02  0.00000000000E+00 0. -1.
         11    1    3    3    0    0  0.67101534341E+01  0.40831880891E+01  0.91904711371E+01  0.12089803310E+02  0.51100000000E-03 0. -1.
        -11    1    3    3    0    0  0.16880658423E+01  0.63026166202E+01  0.11856389659E+02  0.13533163656E+02  0.51100000000E-03 0.  1.
         12    1    3    3    0    0 -0.92420130843E+01  0.50921572475E+01  0.19491318582E+02  0.22164303990E+02  0.00000000000E+00 0. -1.
</event>
<event>
 7    1  0.2414091E-009  0.4778726E+02  0.7816164E-02  0.1312668E+00
        -11   -1    0    0    0    0  0.00000000000E+00  0.00000000000E+00  0.45593999997E+02  0.45594000000E+02  0.51100000000E-03 0. -1.
         11   -1    0    0    0    0 -0.00000000000E+00 -0.00000000000E+00 -0.45593999997E+02  0.45594000000E+02  0.51100000000E-03 0.  1.
    9900012    2    1    2    0    0 -0.10123207754E+02 -0.39955416117E+02 -0.13590781703E+02  0.47787263144E+02  0.19999963978E+02 0.  0.
         12    1    1    2    0    0  0.10123207754E+02  0.39955416117E+02  0.13590781703E+02  0.43400736856E+02  0.00000000000E+00 0. -1.
         11    1    3    3    0    0 -0.28805950479E+01 -0.19016499499E+01  0.12421333106E+01  0.36683778137E+01  0.51100000000E-03 0. -1.
        -11    1    3    3    0    0 -0.14332230511E-01 -0.10629792612E+01 -0.50759290303E+01  0.51860568936E+01  0.51100000000E-03 0.  1.
         12    1    3    3    0    0 -0.72282804755E+01 -0.36990786906E+02 -0.97569859837E+01  0.38932828437E+02  0.00000000000E+00 0. -1.
</event>
<event>
 7    1  0.2414091E-009  0.4778728E+02  0.7816164E-02  0.1312668E+00
        -11   -1    0    0    0    0  0.00000000000E+00  0.00000000000E+00  0.45593999997E+02  0.45594000000E+02  0.51100000000E-03 0. -1.
         11   -1    0    0    0    0 -0.00000000000E+00 -0.00000000000E+00 -0.45593999997E+02  0.45594000000E+02  0.51100000000E-03 0.  1.
    9900012    2    1    2    0    0 -0.29938917511E+02 -0.13272600887E+02 -0.28480204936E+02  0.47787276628E+02  0.20000025457E+02 0.  0.
         12    1    1    2    0    0  0.29938917511E+02  0.13272600887E+02  0.28480204936E+02  0.43400723372E+02  0.00000000000E+00 0. -1.
         11    1    3    3    0    0  0.77637949693E+00 -0.81717354473E+00  0.69955946338E+00  0.13266203034E+01  0.51100000000E-03 0. -1.
        -11    1    3    3    0    0 -0.16716239079E+02 -0.83774908201E+01 -0.70994454718E+01  0.20000428187E+02  0.51100000000E-03 0.  1.
        -12    1    3    3    0    0 -0.13999057929E+02 -0.40779365221E+01 -0.22080318927E+02  0.26460228138E+02  0.00000000000E+00 0.  1.
</event>
<event>
 7    1  0.2414091E-009  0.4778727E+02  0.7816164E-02  0.1312668E+00
        -11   -1    0    0    0    0  0.00000000000E+00  0.00000000000E+00  0.45593999997E+02  0.45594000000E+02  0.51100000000E-03 0. -1.
         11   -1    0    0    0    0 -0.00000000000E+00 -0.00000000000E+00 -0.45593999997E+02  0.45594000000E+02  0.51100000000E-03 0.  1.
    9900012    2    1    2    0    0 -0.14305122673E+02  0.28695282545E+02 -0.29250088575E+02  0.47787268938E+02  0.19999990397E+02 0.  0.
         12    1    1    2    0    0  0.14305122673E+02 -0.28695282545E+02  0.29250088575E+02  0.43400731062E+02  0.00000000000E+00 0. -1.
         11    1    3    3    0    0 -0.95039825227E+01  0.69986191297E+01 -0.11189792538E+02  0.16264003530E+02  0.51100000000E-03 0. -1.
        -11    1    3    3    0    0 -0.49555249216E+01  0.10415954459E+01 -0.48021072821E+01  0.69787092597E+01  0.51100000000E-03 0.  1.
         12    1    3    3    0    0  0.15438477091E+00  0.20655067969E+02 -0.13258188755E+02  0.24544556149E+02  0.00000000000E+00 0. -1.
</event>
<event>
 7    1  0.2414091E-009  0.4778727E+02  0.7816164E-02  0.1312668E+00
        -11   -1    0    0    0    0  0.00000000000E+00  0.00000000000E+00  0.45593999997E+02  0.45594000000E+02  0.51100000000E-03 0.  1.
         11   -1    0    0    0    0 -0.00000000000E+00 -0.00000000000E+00 -0.45593999997E+02  0.45594000000E+02  0.51100000000E-03 0. -1.
    9900012    2    1    2    0    0  0.19746101517E+02  0.34843538298E+02  0.16722509571E+02  0.47787274054E+02  0.20000013723E+02 0.  0.
         12    1    1    2    0    0 -0.19746101517E+02 -0.34843538298E+02 -0.16722509571E+02  0.43400725946E+02  0.00000000000E+00 0. -1.
         11    1    3    3    0    0  0.58979925929E+01  0.16435061316E+02  0.35224653345E+01  0.17813065974E+02  0.51100000000E-03 0.  1.
        -11    1    3    3    0    0  0.11053163916E+02  0.20573421136E+02  0.11859444459E+02  0.26193215017E+02  0.51100000000E-03 0. -1.
         12    1    3    3    0    0  0.27949450082E+01 -0.21649441532E+01  0.13405997776E+01  0.37809930639E+01  0.00000000000E+00 0. -1.
</event>
<event>
 7    1  0.2414091E-009  0.4778727E+02  0.7816164E-02  0.1312668E+00
        -11   -1    0    0    0    0  0.00000000000E+00  0.00000000000E+00  0.45593999997E+02  0.45594000000E+02  0.51100000000E-03 0. -1.
         11   -1    0    0    0    0 -0.00000000000E+00 -0.00000000000E+00 -0.45593999997E+02  0.45594000000E+02  0.51100000000E-03 0.  1.
    9900012    2    1    2    0    0 -0.18007370418E+02  0.30743228020E+02  0.24783295857E+02  0.47787271757E+02  0.20000003250E+02 0.  0.
         12    1    1    2    0    0  0.18007370418E+02 -0.30743228020E+02 -0.24783295857E+02  0.43400728243E+02  0.00000000000E+00 0. -1.
         11    1    3    3    0    0 -0.68383928631E+01  0.19892171785E+01  0.25148125218E+01  0.75528063801E+01  0.51100000000E-03 0. -1.
        -11    1    3    3    0    0 -0.41279537761E+01  0.11486177304E+02  0.14597087325E+01  0.12292396889E+02  0.51100000000E-03 0.  1.
        -12    1    3    3    0    0 -0.70410237791E+01  0.17267833537E+02  0.20808774602E+02  0.27942068488E+02  0.00000000000E+00 0.  1.
</event>
<event>
 7    1  0.2414091E-009  0.4778727E+02  0.7816164E-02  0.1312668E+00
        -11   -1    0    0    0    0  0.00000000000E+00  0.00000000000E+00  0.45593999997E+02  0.45594000000E+02  0.51100000000E-03 0.  1.
         11   -1    0    0    0    0 -0.00000000000E+00 -0.00000000000E+00 -0.45593999997E+02  0.45594000000E+02  0.51100000000E-03 0. -1.
    9900012    2    1    2    0    0  0.20783091808E+01 -0.36940314292E+02  0.22687378545E+02  0.47787270349E+02  0.19999996829E+02 0.  0.
         12    1    1    2    0    0 -0.20783091808E+01  0.36940314292E+02 -0.22687378545E+02  0.43400729651E+02  0.00000000000E+00 0. -1.
         11    1    3    3    0    0 -0.42374231792E+01 -0.16687780918E+01  0.48494707636E+00  0.45799289784E+01  0.51100000000E-03 0. -1.
        -11    1    3    3    0    0 -0.17145578531E+01 -0.16874269331E+02  0.92773604642E+01  0.19332617296E+02  0.51100000000E-03 0.  1.
        -12    1    3    3    0    0  0.80302902131E+01 -0.18397266869E+02  0.12925071004E+02  0.23874724074E+02  0.00000000000E+00 0.  1.
</event>
<event>
 7    1  0.2414091E-009  0.4778727E+02  0.7816164E-02  0.1312668E+00
        -11   -1    0    0    0    0  0.00000000000E+00  0.00000000000E+00  0.45593999997E+02  0.45594000000E+02  0.51100000000E-03 0. -1.
         11   -1    0    0    0    0 -0.00000000000E+00 -0.00000000000E+00 -0.45593999997E+02  0.45594000000E+02  0.51100000000E-03 0.  1.
    9900012    2    1    2    0    0  0.15617568377E+02 -0.85031060880E+01 -0.39590550671E+02  0.47787274688E+02  0.20000016613E+02 0.  0.
         12    1    1    2    0    0 -0.15617568377E+02  0.85031060880E+01  0.39590550671E+02  0.43400725312E+02  0.00000000000E+00 0. -1.
         11    1    3    3    0    0  0.74868367163E+01 -0.41126003452E+01 -0.77010825427E+01  0.11500994662E+02  0.51100000000E-03 0. -1.
        -11    1    3    3    0    0  0.77693919536E+01 -0.83097172867E+01 -0.29651018861E+02  0.31758428369E+02  0.51100000000E-03 0.  1.
        -12    1    3    3    0    0  0.36133970760E+00  0.39192115439E+01 -0.22384492667E+01  0.45278516572E+01  0.00000000000E+00 0.  1.
</event>
<event>
 7    1  0.2414091E-009  0.4778727E+02  0.7816164E-02  0.1312668E+00
        -11   -1    0    0    0    0  0.00000000000E+00  0.00000000000E+00  0.45593999997E+02  0.45594000000E+02  0.51100000000E-03 0.  1.
         11   -1    0    0    0    0 -0.00000000000E+00 -0.00000000000E+00 -0.45593999997E+02  0.45594000000E+02  0.51100000000E-03 0. -1.
    9900012    2    1    2    0    0 -0.31870538676E+02  0.14328692219E+02  0.25740642568E+02  0.47787270329E+02  0.19999996738E+02 0.  0.
         12    1    1    2    0    0  0.31870538676E+02 -0.14328692219E+02 -0.25740642568E+02  0.43400729671E+02  0.00000000000E+00 0. -1.
         11    1    3    3    0    0 -0.13251358441E+02 -0.13955746852E+01  0.23426226840E+01  0.13529006266E+02  0.51100000000E-03 0. -1.
        -11    1    3    3    0    0 -0.12997033963E+02  0.80069228248E+01  0.16503955581E+02  0.22481420219E+02  0.51100000000E-03 0.  1.
        -12    1    3    3    0    0 -0.56221462708E+01  0.77173440792E+01  0.68940643029E+01  0.11776843845E+02  0.00000000000E+00 0.  1.
</event>
<event>
 7    1  0.2414091E-009  0.4778726E+02  0.7816164E-02  0.1312668E+00
        -11   -1    0    0    0    0  0.00000000000E+00  0.00000000000E+00  0.45593999997E+02  0.45594000000E+02  0.51100000000E-03 0.  1.
         11   -1    0    0    0    0 -0.00000000000E+00 -0.00000000000E+00 -0.45593999997E+02  0.45594000000E+02  0.51100000000E-03 0. -1.
    9900012    2    1    2    0    0  0.22684093770E+01 -0.67822250145E+01  0.42807473086E+02  0.47787262573E+02  0.19999961374E+02 0.  0.
         12    1    1    2    0    0 -0.22684093770E+01  0.67822250145E+01 -0.42807473086E+02  0.43400737427E+02  0.00000000000E+00 0. -1.
         11    1    3    3    0    0  0.82776620981E-01 -0.22903803437E+01  0.11567957527E+02  0.11792808643E+02  0.51100000000E-03 0.  1.
        -11    1    3    3    0    0 -0.52384500663E+01 -0.78917073883E+01  0.13800474138E+02  0.16738383772E+02  0.51100000000E-03 0. -1.
         12    1    3    3    0    0  0.74240828223E+01  0.33998627175E+01  0.17439041421E+02  0.19256070158E+02  0.00000000000E+00 0. -1.
</event>
<event>
 7    1  0.2414091E-009  0.4778726E+02  0.7816164E-02  0.1312668E+00
        -11   -1    0    0    0    0  0.00000000000E+00  0.00000000000E+00  0.45593999997E+02  0.45594000000E+02  0.51100000000E-03 0.  1.
         11   -1    0    0    0    0 -0.00000000000E+00 -0.00000000000E+00 -0.45593999997E+02  0.45594000000E+02  0.51100000000E-03 0. -1.
    9900012    2    1    2    0    0  0.15315768747E+02 -0.24449525970E+02  0.32423331144E+02  0.47787256977E+02  0.19999935861E+02 0.  0.
         12    1    1    2    0    0 -0.15315768747E+02  0.24449525970E+02 -0.32423331144E+02  0.43400743023E+02  0.00000000000E+00 0. -1.
         11    1    3    3    0    0 -0.17276328539E+01 -0.13851653446E+01  0.93877875104E+00  0.24051411838E+01  0.51100000000E-03 0. -1.
        -11    1    3    3    0    0  0.15553592368E+01 -0.10760204140E+02  0.41411153337E+01  0.11634000685E+02  0.51100000000E-03 0.  1.
         12    1    3    3    0    0  0.15488042364E+02 -0.12304156486E+02  0.27343437060E+02  0.33748115108E+02  0.00000000000E+00 0. -1.
</event>
<event>
 7    1  0.2414091E-009  0.4778727E+02  0.7816164E-02  0.1312668E+00
        -11   -1    0    0    0    0  0.00000000000E+00  0.00000000000E+00  0.45593999997E+02  0.45594000000E+02  0.51100000000E-03 0. -1.
         11   -1    0    0    0    0 -0.00000000000E+00 -0.00000000000E+00 -0.45593999997E+02  0.45594000000E+02  0.51100000000E-03 0.  1.
    9900012    2    1    2    0    0 -0.33574536033E+02  0.25339680861E+02 -0.10689919712E+02  0.47787270981E+02  0.19999999710E+02 0.  0.
         12    1    1    2    0    0  0.33574536033E+02 -0.25339680861E+02  0.10689919712E+02  0.43400729019E+02  0.00000000000E+00 0. -1.
         11    1    3    3    0    0 -0.14408732857E+02  0.14196670465E+02 -0.38209401615E+01  0.20585349615E+02  0.51100000000E-03 0. -1.
        -11    1    3    3    0    0 -0.11864344005E+02  0.10179095135E+02  0.19032614831E+01  0.15747985299E+02  0.51100000000E-03 0.  1.
         12    1    3    3    0    0 -0.73014591708E+01  0.96391526151E+00 -0.87722410339E+01  0.11453936066E+02  0.00000000000E+00 0. -1.
</event>
<event>
 7    1  0.2414091E-009  0.4778726E+02  0.7816164E-02  0.1312668E+00
        -11   -1    0    0    0    0  0.00000000000E+00  0.00000000000E+00  0.45593999997E+02  0.45594000000E+02  0.51100000000E-03 0.  1.
         11   -1    0    0    0    0 -0.00000000000E+00 -0.00000000000E+00 -0.45593999997E+02  0.45594000000E+02  0.51100000000E-03 0. -1.
    9900012    2    1    2    0    0  0.26515217652E+02 -0.27237069984E+02 -0.20945383792E+02  0.47787264400E+02  0.19999969705E+02 0.  0.
         12    1    1    2    0    0 -0.26515217652E+02  0.27237069984E+02  0.20945383792E+02  0.43400735600E+02  0.00000000000E+00 0. -1.
         11    1    3    3    0    0  0.15512915998E+02 -0.10657163688E+02 -0.12434048910E+02  0.22557288693E+02  0.51100000000E-03 0. -1.
        -11    1    3    3    0    0  0.83509622997E+01 -0.13550459556E+02 -0.11975424220E+02  0.19918943522E+02  0.51100000000E-03 0.  1.
         12    1    3    3    0    0  0.26513393543E+01 -0.30294467406E+01  0.34640893385E+01  0.53110321851E+01  0.00000000000E+00 0. -1.
</event>
<event>
 7    1  0.2414091E-009  0.4778727E+02  0.7816164E-02  0.1312668E+00
        -11   -1    0    0    0    0  0.00000000000E+00  0.00000000000E+00  0.45593999997E+02  0.45594000000E+02  0.51100000000E-03 0. -1.
         11   -1    0    0    0    0 -0.00000000000E+00 -0.00000000000E+00 -0.45593999997E+02  0.45594000000E+02  0.51100000000E-03 0.  1.
    9900012    2    1    2    0    0  0.16112648232E+02  0.39696977105E+02 -0.69394414872E+01  0.47787271061E+02  0.20000000075E+02 0.  0.
         12    1    1    2    0    0 -0.16112648232E+02 -0.39696977105E+02  0.69394414872E+01  0.43400728939E+02  0.00000000000E+00 0. -1.
         11    1    3    3    0    0  0.61355986736E+01  0.13038061269E+02 -0.69066954475E+01  0.15979332120E+02  0.51100000000E-03 0.  1.
        -11    1    3    3    0    0 -0.26599555631E+01  0.88299747667E+00 -0.12640324621E+01  0.30745449204E+01  0.51100000000E-03 0. -1.
         12    1    3    3    0    0  0.12637005121E+02  0.25775918359E+02  0.12312864223E+01  0.28733394020E+02  0.00000000000E+00 0. -1.
</event>
<event>
 7    1  0.2414091E-009  0.4778727E+02  0.7816164E-02  0.1312668E+00
        -11   -1    0    0    0    0  0.00000000000E+00  0.00000000000E+00  0.45593999997E+02  0.45594000000E+02  0.51100000000E-03 0. -1.
         11   -1    0    0    0    0 -0.00000000000E+00 -0.00000000000E+00 -0.45593999997E+02  0.45594000000E+02  0.51100000000E-03 0.  1.
    9900012    2    1    2    0    0  0.52060972307E+01  0.27903224257E+02 -0.32831844542E+02  0.47787269726E+02  0.19999993987E+02 0.  0.
         12    1    1    2    0    0 -0.52060972307E+01 -0.27903224257E+02  0.32831844542E+02  0.43400730274E+02  0.00000000000E+00 0. -1.
         11    1    3    3    0    0  0.83918676127E+01  0.95291976013E+01 -0.12638428068E+02  0.17915326211E+02  0.51100000000E-03 0. -1.
        -11    1    3    3    0    0  0.14309723686E+01  0.17124284357E+02 -0.16568801532E+02  0.23870776718E+02  0.51100000000E-03 0.  1.
         12    1    3    3    0    0 -0.46167427506E+01  0.12497422984E+01 -0.36246149422E+01  0.60011667963E+01  0.00000000000E+00 0. -1.
</event>
<event>
 7    1  0.2414091E-009  0.4778730E+02  0.7816164E-02  0.1312668E+00
        -11   -1    0    0    0    0  0.00000000000E+00  0.00000000000E+00  0.45593999997E+02  0.45594000000E+02  0.51100000000E-03 0.  1.
         11   -1    0    0    0    0 -0.00000000000E+00 -0.00000000000E+00 -0.45593999997E+02  0.45594000000E+02  0.51100000000E-03 0. -1.
    9900012    2    1    2    0    0  0.27686233154E+01  0.29565270263E+02  0.31652024016E+02  0.47787296030E+02  0.20000113920E+02 0.  0.
         12    1    1    2    0    0 -0.27686233154E+01 -0.29565270263E+02 -0.31652024016E+02  0.43400703970E+02  0.00000000000E+00 0. -1.
         11    1    3    3    0    0  0.43273328305E+01  0.89637908006E+01  0.11333646425E+02  0.15083994713E+02  0.51100000000E-03 0. -1.
        -11    1    3    3    0    0  0.25181463490E+01  0.21263955711E+02  0.17957705983E+02  0.27945949223E+02  0.51100000000E-03 0.  1.
         12    1    3    3    0    0 -0.40768558641E+01 -0.66247624873E+00  0.23606716074E+01  0.47573520949E+01  0.00000000000E+00 0. -1.
</event>
<event>
 7    1  0.2414091E-009  0.4778729E+02  0.7816164E-02  0.1312668E+00
        -11   -1    0    0    0    0  0.00000000000E+00  0.00000000000E+00  0.45593999997E+02  0.45594000000E+02  0.51100000000E-03 0. -1.
         11   -1    0    0    0    0 -0.00000000000E+00 -0.00000000000E+00 -0.45593999997E+02  0.45594000000E+02  0.51100000000E-03 0.  1.
    9900012    2    1    2    0    0  0.42970526466E-01  0.76587170245E+01 -0.42719597060E+02  0.47787288417E+02  0.20000079208E+02 0.  0.
         12    1    1    2    0    0 -0.42970526466E-01 -0.76587170245E+01  0.42719597060E+02  0.43400711583E+02  0.00000000000E+00 0. -1.
         11    1    3    3    0    0  0.32417647857E+01  0.49487096024E+00 -0.53555788145E+01  0.62798217246E+01  0.51100000000E-03 0. -1.
        -11    1    3    3    0    0 -0.56993206456E+01  0.19623693609E+01 -0.34576981617E+02  0.35098444515E+02  0.51100000000E-03 0.  1.
         12    1    3    3    0    0  0.25005263863E+01  0.52014767034E+01 -0.27870366286E+01  0.64090221777E+01  0.00000000000E+00 0. -1.
</event>
<event>
 7    1  0.2414091E-009  0.4778727E+02  0.7816164E-02  0.1312668E+00
        -11   -1    0    0    0    0  0.00000000000E+00  0.00000000000E+00  0.45593999997E+02  0.45594000000E+02  0.51100000000E-03 0.  1.
         11   -1    0    0    0    0 -0.00000000000E+00 -0.00000000000E+00 -0.45593999997E+02  0.45594000000E+02  0.51100000000E-03 0. -1.
    9900012    2    1    2    0    0 -0.21876151700E+01 -0.77840897163E+00  0.43338574977E+02  0.47787266576E+02  0.19999979627E+02 0.  0.
         12    1    1    2    0    0  0.21876151700E+01  0.77840897163E+00 -0.43338574977E+02  0.43400733424E+02  0.00000000000E+00 0. -1.
         11    1    3    3    0    0  0.48807474237E+01  0.45561577787E+01  0.51754131898E+01  0.84477908986E+01  0.51100000000E-03 0. -1.
        -11    1    3    3    0    0 -0.28671373100E+01 -0.24903247009E+00  0.94596638810E+01  0.98877567996E+01  0.51100000000E-03 0.  1.
         12    1    3    3    0    0 -0.42012252837E+01 -0.50855342803E+01  0.28703497907E+02  0.29451718878E+02  0.00000000000E+00 0. -1.
</event>
<event>
 7    1  0.2414091E-009  0.4778734E+02  0.7816164E-02  0.1312667E+00
        -11   -1    0    0    0    0  0.00000000000E+00  0.00000000000E+00  0.45593999997E+02  0.45594000000E+02  0.51100000000E-03 0.  1.
         11   -1    0    0    0    0 -0.00000000000E+00 -0.00000000000E+00 -0.45593999997E+02  0.45594000000E+02  0.51100000000E-03 0. -1.
    9900012    2    1    2    0    0 -0.42457905154E+02  0.36352818390E+01 -0.82297389050E+01  0.47787336565E+02  0.20000298734E+02 0.  0.
         12    1    1    2    0    0  0.42457905154E+02 -0.36352818390E+01  0.82297389050E+01  0.43400663435E+02  0.00000000000E+00 0. -1.
         11    1    3    3    0    0 -0.11475859042E+02  0.95765026580E+00 -0.33468251120E+00  0.11520609682E+02  0.51100000000E-03 0.  1.
        -11    1    3    3    0    0  0.35685258753E+00 -0.34460295615E+01 -0.69581206085E+00  0.35336409259E+01  0.51100000000E-03 0. -1.
        -12    1    3    3    0    0 -0.31338898699E+02  0.61236611347E+01 -0.71992443330E+01  0.32733085958E+02  0.00000000000E+00 0.  1.
</event>
<event>
 7    1  0.2414091E-009  0.4778727E+02  0.7816164E-02  0.1312668E+00
        -11   -1    0    0    0    0  0.00000000000E+00  0.00000000000E+00  0.45593999997E+02  0.45594000000E+02  0.51100000000E-03 0. -1.
         11   -1    0    0    0    0 -0.00000000000E+00 -0.00000000000E+00 -0.45593999997E+02  0.45594000000E+02  0.51100000000E-03 0.  1.
    9900012    2    1    2    0    0  0.17856483722E+02 -0.34192277126E+02 -0.19891149013E+02  0.47787266883E+02  0.19999981027E+02 0.  0.
         12    1    1    2    0    0 -0.17856483722E+02  0.34192277126E+02  0.19891149013E+02  0.43400733117E+02  0.00000000000E+00 0. -1.
         11    1    3    3    0    0  0.38592506542E+00  0.23019049163E+01 -0.72999954149E+00  0.24455273442E+01  0.51100000000E-03 0. -1.
        -11    1    3    3    0    0  0.22473045433E+01 -0.62409810148E+01 -0.44829030875E+00  0.66483972655E+01  0.51100000000E-03 0.  1.
        -12    1    3    3    0    0  0.15223254113E+02 -0.30253201028E+02 -0.18712859163E+02  0.38693342273E+02  0.00000000000E+00 0.  1.
</event>
<event>
 7    1  0.2414091E-009  0.4778727E+02  0.7816164E-02  0.1312668E+00
        -11   -1    0    0    0    0  0.00000000000E+00  0.00000000000E+00  0.45593999997E+02  0.45594000000E+02  0.51100000000E-03 0.  1.
         11   -1    0    0    0    0 -0.00000000000E+00 -0.00000000000E+00 -0.45593999997E+02  0.45594000000E+02  0.51100000000E-03 0. -1.
    9900012    2    1    2    0    0 -0.15647250570E+02 -0.16876871988E+01  0.40446740509E+02  0.47787267791E+02  0.19999985165E+02 0.  0.
         12    1    1    2    0    0  0.15647250570E+02  0.16876871988E+01 -0.40446740509E+02  0.43400732209E+02  0.00000000000E+00 0. -1.
         11    1    3    3    0    0 -0.13972761656E+02 -0.55488036974E+01  0.18409832299E+02  0.23768660381E+02  0.51100000000E-03 0. -1.
        -11    1    3    3    0    0 -0.39507316039E+01  0.84250498466E+00  0.18158491525E+02  0.18602389889E+02  0.51100000000E-03 0.  1.
        -12    1    3    3    0    0  0.22762426892E+01  0.30186115139E+01  0.38784166848E+01  0.54162175208E+01  0.00000000000E+00 0.  1.
</event>
<event>
 7    1  0.2414091E-009  0.4778727E+02  0.7816164E-02  0.1312668E+00
        -11   -1    0    0    0    0  0.00000000000E+00  0.00000000000E+00  0.45593999997E+02  0.45594000000E+02  0.51100000000E-03 0.  1.
         11   -1    0    0    0    0 -0.00000000000E+00 -0.00000000000E+00 -0.45593999997E+02  0.45594000000E+02  0.51100000000E-03 0. -1.
    9900012    2    1    2    0    0  0.32481463285E+02  0.63963828008E+01  0.28065357866E+02  0.47787268644E+02  0.19999989058E+02 0.  0.
         12    1    1    2    0    0 -0.32481463285E+02 -0.63963828008E+01 -0.28065357866E+02  0.43400731356E+02  0.00000000000E+00 0. -1.
         11    1    3    3    0    0  0.38531692069E+01  0.26484966782E+01  0.24429820832E+00  0.46820005838E+01  0.51100000000E-03 0.  1.
        -11    1    3    3    0    0  0.16328509167E+02  0.17922939316E+01  0.51091985747E+01  0.17202803245E+02  0.51100000000E-03 0. -1.
         12    1    3    3    0    0  0.12299784911E+02  0.19555921911E+01  0.22711861083E+02  0.25902464815E+02  0.00000000000E+00 0. -1.
</event>
<event>
 7    1  0.2414091E-009  0.4778730E+02  0.7816164E-02  0.1312668E+00
        -11   -1    0    0    0    0  0.00000000000E+00  0.00000000000E+00  0.45593999997E+02  0.45594000000E+02  0.51100000000E-03 0.  1.
         11   -1    0    0    0    0 -0.00000000000E+00 -0.00000000000E+00 -0.45593999997E+02  0.45594000000E+02  0.51100000000E-03 0. -1.
    9900012    2    1    2    0    0 -0.12524490038E+02  0.38957242991E+02  0.14459971458E+02  0.47787304076E+02  0.20000150603E+02 0.  0.
         12    1    1    2    0    0  0.12524490038E+02 -0.38957242991E+02 -0.14459971458E+02  0.43400695924E+02  0.00000000000E+00 0. -1.
         11    1    3    3    0    0 -0.22762234764E+01  0.41670324729E+01  0.93804857141E+01  0.10513746499E+02  0.51100000000E-03 0. -1.
        -11    1    3    3    0    0 -0.12803957585E+01  0.13530630325E+02  0.40304022297E+01  0.14176089471E+02  0.51100000000E-03 0.  1.
        -12    1    3    3    0    0 -0.89678708026E+01  0.21259580193E+02  0.10490835140E+01  0.23097468107E+02  0.00000000000E+00 0.  1.
</event>
<event>
 7    1  0.2414091E-009  0.4778727E+02  0.7816164E-02  0.1312668E+00
        -11   -1    0    0    0    0  0.00000000000E+00  0.00000000000E+00  0.45593999997E+02  0.45594000000E+02  0.51100000000E-03 0.  1.
         11   -1    0    0    0    0 -0.00000000000E+00 -0.00000000000E+00 -0.45593999997E+02  0.45594000000E+02  0.51100000000E-03 0. -1.
    9900012    2    1    2    0    0 -0.98748012003E+01 -0.39430833743E+02  0.15209229420E+02  0.47787274108E+02  0.20000013966E+02 0.  0.
         12    1    1    2    0    0  0.98748012003E+01  0.39430833743E+02 -0.15209229420E+02  0.43400725892E+02  0.00000000000E+00 0. -1.
         11    1    3    3    0    0  0.99953458061E+00 -0.25625254302E+01 -0.56003456132E+00  0.28069992749E+01  0.51100000000E-03 0. -1.
        -11    1    3    3    0    0 -0.76920604363E+01 -0.25554970265E+02  0.19037564212E+02  0.32781902787E+02  0.51100000000E-03 0.  1.
        -12    1    3    3    0    0 -0.31822753447E+01 -0.11313338048E+02 -0.32683002301E+01  0.12198372045E+02  0.00000000000E+00 0.  1.
</event>
<event>
 7    1  0.2414091E-009  0.4778729E+02  0.7816164E-02  0.1312668E+00
        -11   -1    0    0    0    0  0.00000000000E+00  0.00000000000E+00  0.45593999997E+02  0.45594000000E+02  0.51100000000E-03 0.  1.
         11   -1    0    0    0    0 -0.00000000000E+00 -0.00000000000E+00 -0.45593999997E+02  0.45594000000E+02  0.51100000000E-03 0. -1.
    9900012    2    1    2    0    0 -0.21709168575E+02  0.37389147021E+02  0.37928077407E+01  0.47787289110E+02  0.20000082369E+02 0.  0.
         12    1    1    2    0    0  0.21709168575E+02 -0.37389147021E+02 -0.37928077407E+01  0.43400710890E+02  0.00000000000E+00 0. -1.
         11    1    3    3    0    0 -0.48058501080E+01  0.22851762687E+02 -0.11611319218E+01  0.23380493595E+02  0.51100000000E-03 0. -1.
        -11    1    3    3    0    0 -0.48280706929E+01  0.36328776762E+01 -0.24640939926E+01  0.65253219301E+01  0.51100000000E-03 0.  1.
        -12    1    3    3    0    0 -0.12075247774E+02  0.10904506658E+02  0.74180336551E+01  0.17881473585E+02  0.00000000000E+00 0.  1.
</event>
<event>
 7    1  0.2414091E-009  0.4778726E+02  0.7816164E-02  0.1312668E+00
        -11   -1    0    0    0    0  0.00000000000E+00  0.00000000000E+00  0.45593999997E+02  0.45594000000E+02  0.51100000000E-03 0. -1.
         11   -1    0    0    0    0 -0.00000000000E+00 -0.00000000000E+00 -0.45593999997E+02  0.45594000000E+02  0.51100000000E-03 0.  1.
    9900012    2    1    2    0    0 -0.29501315804E+01  0.33458421662E+02 -0.27485538852E+02  0.47787261499E+02  0.19999956477E+02 0.  0.
         12    1    1    2    0    0  0.29501315804E+01 -0.33458421662E+02  0.27485538852E+02  0.43400738501E+02  0.00000000000E+00 0. -1.
         11    1    3    3    0    0 -0.33392677247E+01  0.15892351865E+02 -0.62951280900E+01  0.17416836529E+02  0.51100000000E-03 0. -1.
        -11    1    3    3    0    0 -0.45426952937E+01  0.11288551575E+02 -0.68661573134E+01  0.13971814260E+02  0.51100000000E-03 0.  1.
        -12    1    3    3    0    0  0.49318314381E+01  0.62775182219E+01 -0.14324253449E+02  0.16398610710E+02  0.00000000000E+00 0.  1.
</event>
<event>
 7    1  0.2414091E-009  0.4778728E+02  0.7816164E-02  0.1312668E+00
        -11   -1    0    0    0    0  0.00000000000E+00  0.00000000000E+00  0.45593999997E+02  0.45594000000E+02  0.51100000000E-03 0.  1.
         11   -1    0    0    0    0 -0.00000000000E+00 -0.00000000000E+00 -0.45593999997E+02  0.45594000000E+02  0.51100000000E-03 0. -1.
    9900012    2    1    2    0    0  0.29556229360E+02  0.70893944218E+01  0.30980512010E+02  0.47787281899E+02  0.20000049492E+02 0.  0.
         12    1    1    2    0    0 -0.29556229360E+02 -0.70893944218E+01 -0.30980512010E+02  0.43400718101E+02  0.00000000000E+00 0. -1.
         11    1    3    3    0    0  0.30836374153E+01  0.52895548786E+01  0.13749017568E+02  0.15050704132E+02  0.51100000000E-03 0. -1.
        -11    1    3    3    0    0 -0.62224337648E+00  0.30859012882E+00  0.34476881810E+00  0.77542277902E+00  0.51100000000E-03 0.  1.
        -12    1    3    3    0    0  0.27094835321E+02  0.14912494144E+01  0.16886725625E+02  0.31961154989E+02  0.00000000000E+00 0.  1.
</event>
<event>
 7    1  0.2414091E-009  0.4778727E+02  0.7816164E-02  0.1312668E+00
        -11   -1    0    0    0    0  0.00000000000E+00  0.00000000000E+00  0.45593999997E+02  0.45594000000E+02  0.51100000000E-03 0.  1.
         11   -1    0    0    0    0 -0.00000000000E+00 -0.00000000000E+00 -0.45593999997E+02  0.45594000000E+02  0.51100000000E-03 0. -1.
    9900012    2    1    2    0    0 -0.15581241211E+02 -0.34635504414E+02  0.21005469783E+02  0.47787274148E+02  0.20000014151E+02 0.  0.
         12    1    1    2    0    0  0.15581241211E+02  0.34635504414E+02 -0.21005469783E+02  0.43400725852E+02  0.00000000000E+00 0. -1.
         11    1    3    3    0    0 -0.35839557764E+01 -0.70730502101E+01  0.69808962956E+01  0.10564359499E+02  0.51100000000E-03 0.  1.
        -11    1    3    3    0    0  0.21599456802E+01  0.71301860114E+00 -0.64497862448E+00  0.23642670226E+01  0.51100000000E-03 0. -1.
         12    1    3    3    0    0 -0.14157231115E+02 -0.28275472805E+02  0.14669552112E+02  0.34858647626E+02  0.00000000000E+00 0. -1.
</event>
<event>
 7    1  0.2414091E-009  0.4778728E+02  0.7816164E-02  0.1312668E+00
        -11   -1    0    0    0    0  0.00000000000E+00  0.00000000000E+00  0.45593999997E+02  0.45594000000E+02  0.51100000000E-03 0. -1.
         11   -1    0    0    0    0 -0.00000000000E+00 -0.00000000000E+00 -0.45593999997E+02  0.45594000000E+02  0.51100000000E-03 0.  1.
    9900012    2    1    2    0    0  0.19170614277E+02 -0.38426927627E+02 -0.62834336331E+01  0.47787277001E+02  0.20000027158E+02 0.  0.
         12    1    1    2    0    0 -0.19170614277E+02  0.38426927627E+02  0.62834336331E+01  0.43400722999E+02  0.00000000000E+00 0. -1.
         11    1    3    3    0    0 -0.14995767598E+01 -0.92997574924E+00 -0.80418510071E-01  0.17663671053E+01  0.51100000000E-03 0. -1.
        -11    1    3    3    0    0  0.55189947709E+01 -0.60061179500E+00 -0.20550455079E+01  0.59197339561E+01  0.51100000000E-03 0.  1.
        -12    1    3    3    0    0  0.15151196266E+02 -0.36896340083E+02 -0.41479696151E+01  0.40101175940E+02  0.00000000000E+00 0.  1.
</event>
<event>
 7    1  0.2414091E-009  0.4778728E+02  0.7816164E-02  0.1312668E+00
        -11   -1    0    0    0    0  0.00000000000E+00  0.00000000000E+00  0.45593999997E+02  0.45594000000E+02  0.51100000000E-03 0.  1.
         11   -1    0    0    0    0 -0.00000000000E+00 -0.00000000000E+00 -0.45593999997E+02  0.45594000000E+02  0.51100000000E-03 0. -1.
    9900012    2    1    2    0    0  0.32905468429E+02  0.18568277814E+02  0.21355829267E+02  0.47787282988E+02  0.20000054453E+02 0.  0.
         12    1    1    2    0    0 -0.32905468429E+02 -0.18568277814E+02 -0.21355829267E+02  0.43400717012E+02  0.00000000000E+00 0. -1.
         11    1    3    3    0    0  0.85416388361E+01 -0.19459167370E+01  0.75373190027E+01  0.11556702123E+02  0.51100000000E-03 0. -1.
        -11    1    3    3    0    0  0.13829013373E+02  0.78378287208E+01  0.11424124068E+02  0.19575080611E+02  0.51100000000E-03 0.  1.
        -12    1    3    3    0    0  0.10534816220E+02  0.12676365830E+02  0.23943861963E+01  0.16655500254E+02  0.00000000000E+00 0.  1.
</event>
<event>
 7    1  0.2414091E-009  0.4778726E+02  0.7816164E-02  0.1312668E+00
        -11   -1    0    0    0    0  0.00000000000E+00  0.00000000000E+00  0.45593999997E+02  0.45594000000E+02  0.51100000000E-03 0.  1.
         11   -1    0    0    0    0 -0.00000000000E+00 -0.00000000000E+00 -0.45593999997E+02  0.45594000000E+02  0.51100000000E-03 0. -1.
    9900012    2    1    2    0    0 -0.36189942195E+02 -0.99893374225E+01  0.21774412918E+02  0.47787264567E+02  0.19999970466E+02 0.  0.
         12    1    1    2    0    0  0.36189942195E+02  0.99893374225E+01 -0.21774412918E+02  0.43400735433E+02  0.00000000000E+00 0. -1.
         11    1    3    3    0    0 -0.13276844311E+00 -0.29318003653E+01  0.23168234436E+00  0.29439357689E+01  0.51100000000E-03 0. -1.
        -11    1    3    3    0    0 -0.10641446923E+02 -0.36467121675E+01  0.14304598388E+02  0.18197814087E+02  0.51100000000E-03 0.  1.
        -12    1    3    3    0    0 -0.25415726829E+02 -0.34108248897E+01  0.72381321861E+01  0.26645514711E+02  0.00000000000E+00 0.  1.
</event>
<event>
 7    1  0.2414091E-009  0.4778728E+02  0.7816164E-02  0.1312668E+00
        -11   -1    0    0    0    0  0.00000000000E+00  0.00000000000E+00  0.45593999997E+02  0.45594000000E+02  0.51100000000E-03 0.  1.
         11   -1    0    0    0    0 -0.00000000000E+00 -0.00000000000E+00 -0.45593999997E+02  0.45594000000E+02  0.51100000000E-03 0. -1.
    9900012    2    1    2    0    0  0.34265927677E+02  0.14381149223E+01  0.26596995499E+02  0.47787284065E+02  0.20000059366E+02 0.  0.
         12    1    1    2    0    0 -0.34265927677E+02 -0.14381149223E+01 -0.26596995499E+02  0.43400715935E+02  0.00000000000E+00 0. -1.
         11    1    3    3    0    0  0.13421332134E+02  0.51196029956E-01  0.18365285435E+02  0.22746834651E+02  0.51100000000E-03 0.  1.
        -11    1    3    3    0    0  0.36719704258E+01  0.31667546586E+01  0.58721061532E+01  0.76153353709E+01  0.51100000000E-03 0. -1.
         12    1    3    3    0    0  0.17172625118E+02 -0.17798357662E+01  0.23596039103E+01  0.17425114043E+02  0.00000000000E+00 0. -1.
</event>
<event>
 7    1  0.2414091E-009  0.4778728E+02  0.7816164E-02  0.1312668E+00
        -11   -1    0    0    0    0  0.00000000000E+00  0.00000000000E+00  0.45593999997E+02  0.45594000000E+02  0.51100000000E-03 0. -1.
         11   -1    0    0    0    0 -0.00000000000E+00 -0.00000000000E+00 -0.45593999997E+02  0.45594000000E+02  0.51100000000E-03 0.  1.
    9900012    2    1    2    0    0 -0.29428289799E+02  0.54718641529E+01 -0.31427009027E+02  0.47787280718E+02  0.20000044108E+02 0.  0.
         12    1    1    2    0    0  0.29428289799E+02 -0.54718641529E+01  0.31427009027E+02  0.43400719282E+02  0.00000000000E+00 0. -1.
         11    1    3    3    0    0 -0.22450428663E+00  0.29370000224E+01  0.81126995566E+00  0.30552463908E+01  0.51100000000E-03 0. -1.
        -11    1    3    3    0    0 -0.64415436947E+01  0.49428325641E+01 -0.86526048105E+01  0.11865607831E+02  0.51100000000E-03 0.  1.
        -12    1    3    3    0    0 -0.22762241818E+02 -0.24079684336E+01 -0.23585674172E+02  0.32866426497E+02  0.00000000000E+00 0.  1.
</event>
<event>
 7    1  0.2414091E-009  0.4778728E+02  0.7816164E-02  0.1312668E+00
        -11   -1    0    0    0    0  0.00000000000E+00  0.00000000000E+00  0.45593999997E+02  0.45594000000E+02  0.51100000000E-03 0. -1.
         11   -1    0    0    0    0 -0.00000000000E+00 -0.00000000000E+00 -0.45593999997E+02  0.45594000000E+02  0.51100000000E-03 0.  1.
    9900012    2    1    2    0    0  0.18023124140E+02  0.34435459828E+01 -0.39331053926E+02  0.47787276323E+02  0.20000024069E+02 0.  0.
         12    1    1    2    0    0 -0.18023124140E+02 -0.34435459828E+01  0.39331053926E+02  0.43400723677E+02  0.00000000000E+00 0. -1.
         11    1    3    3    0    0  0.24946440749E+00  0.75988346967E+00 -0.13947143578E+02  0.13970056178E+02  0.51100000000E-03 0. -1.
        -11    1    3    3    0    0  0.97522612405E+01  0.33638789590E+01 -0.23330158898E+02  0.25509186491E+02  0.51100000000E-03 0.  1.
         12    1    3    3    0    0  0.80213984921E+01 -0.68021644591E+00 -0.20537514504E+01  0.83080336544E+01  0.00000000000E+00 0. -1.
</event>
<event>
 7    1  0.2414091E-009  0.4778728E+02  0.7816164E-02  0.1312668E+00
        -11   -1    0    0    0    0  0.00000000000E+00  0.00000000000E+00  0.45593999997E+02  0.45594000000E+02  0.51100000000E-03 0.  1.
         11   -1    0    0    0    0 -0.00000000000E+00 -0.00000000000E+00 -0.45593999997E+02  0.45594000000E+02  0.51100000000E-03 0. -1.
    9900012    2    1    2    0    0 -0.26721141274E+02  0.28000844072E+02  0.19635584123E+02  0.47787276232E+02  0.20000023652E+02 0.  0.
         12    1    1    2    0    0  0.26721141274E+02 -0.28000844072E+02 -0.19635584123E+02  0.43400723768E+02  0.00000000000E+00 0. -1.
         11    1    3    3    0    0 -0.40441331953E+01  0.51916019697E+01 -0.57733621349E+00  0.66061381818E+01  0.51100000000E-03 0. -1.
        -11    1    3    3    0    0 -0.18698635921E+02  0.87132619542E+01  0.15471441499E+02  0.25786147861E+02  0.51100000000E-03 0.  1.
        -12    1    3    3    0    0 -0.39783721578E+01  0.14095980148E+02  0.47414788380E+01  0.15394990189E+02  0.00000000000E+00 0.  1.
</event>
<event>
 7    1  0.2414091E-009  0.4778727E+02  0.7816164E-02  0.1312668E+00
        -11   -1    0    0    0    0  0.00000000000E+00  0.00000000000E+00  0.45593999997E+02  0.45594000000E+02  0.51100000000E-03 0. -1.
         11   -1    0    0    0    0 -0.00000000000E+00 -0.00000000000E+00 -0.45593999997E+02  0.45594000000E+02  0.51100000000E-03 0.  1.
    9900012    2    1    2    0    0 -0.34389523846E+02 -0.26281780345E+02 -0.32018490060E+01  0.47787272293E+02  0.20000005692E+02 0.  0.
         12    1    1    2    0    0  0.34389523846E+02  0.26281780345E+02  0.32018490060E+01  0.43400727707E+02  0.00000000000E+00 0. -1.
         11    1    3    3    0    0 -0.11884536326E+02 -0.11431135854E+02  0.18312988054E+01  0.16591164099E+02  0.51100000000E-03 0. -1.
        -11    1    3    3    0    0 -0.45195726723E+01 -0.10629105411E+02 -0.53275262639E+01  0.12719550123E+02  0.51100000000E-03 0.  1.
         12    1    3    3    0    0 -0.17985414848E+02 -0.42215390800E+01  0.29437845247E+00  0.18476558071E+02  0.00000000000E+00 0. -1.
</event>
<event>
 7    1  0.2414091E-009  0.4778727E+02  0.7816164E-02  0.1312668E+00
        -11   -1    0    0    0    0  0.00000000000E+00  0.00000000000E+00  0.45593999997E+02  0.45594000000E+02  0.51100000000E-03 0.  1.
         11   -1    0    0    0    0 -0.00000000000E+00 -0.00000000000E+00 -0.45593999997E+02  0.45594000000E+02  0.51100000000E-03 0. -1.
    9900012    2    1    2    0    0 -0.31661470887E+01 -0.54693308919E+01  0.42938157721E+02  0.47787268943E+02  0.19999990418E+02 0.  0.
         12    1    1    2    0    0  0.31661470887E+01  0.54693308919E+01 -0.42938157721E+02  0.43400731057E+02  0.00000000000E+00 0. -1.
         11    1    3    3    0    0 -0.81287878741E+00 -0.73609781819E+00  0.40062471086E+01  0.41536283028E+01  0.51100000000E-03 0. -1.
        -11    1    3    3    0    0 -0.95732689150E+01 -0.18516532620E+01  0.11282099902E+02  0.14911803244E+02  0.51100000000E-03 0.  1.
         12    1    3    3    0    0  0.72200006137E+01 -0.28815798117E+01  0.27649810711E+02  0.28721837396E+02  0.00000000000E+00 0. -1.
</event>
<event>
 7    1  0.2414091E-009  0.4778730E+02  0.7816164E-02  0.1312668E+00
        -11   -1    0    0    0    0  0.00000000000E+00  0.00000000000E+00  0.45593999997E+02  0.45594000000E+02  0.51100000000E-03 0.  1.
         11   -1    0    0    0    0 -0.00000000000E+00 -0.00000000000E+00 -0.45593999997E+02  0.45594000000E+02  0.51100000000E-03 0. -1.
    9900012    2    1    2    0    0 -0.24475436289E+02 -0.15951448677E+02  0.32095567326E+02  0.47787295647E+02  0.20000112171E+02 0.  0.
         12    1    1    2    0    0  0.24475436289E+02  0.15951448677E+02 -0.32095567326E+02  0.43400704353E+02  0.00000000000E+00 0. -1.
         11    1    3    3    0    0 -0.78760964438E+01 -0.32897881887E+01  0.11263568856E+02  0.14132359505E+02  0.51100000000E-03 0.  1.
        -11    1    3    3    0    0 -0.12476580170E+02 -0.12461324790E+02  0.23008496672E+02  0.28988628592E+02  0.51100000000E-03 0. -1.
         12    1    3    3    0    0 -0.41227596745E+01 -0.20033569751E+00 -0.21764982026E+01  0.46663075500E+01  0.00000000000E+00 0. -1.
</event>
<event>
 7    1  0.2414091E-009  0.4778727E+02  0.7816164E-02  0.1312668E+00
        -11   -1    0    0    0    0  0.00000000000E+00  0.00000000000E+00  0.45593999997E+02  0.45594000000E+02  0.51100000000E-03 0.  1.
         11   -1    0    0    0    0 -0.00000000000E+00 -0.00000000000E+00 -0.45593999997E+02  0.45594000000E+02  0.51100000000E-03 0. -1.
    9900012    2    1    2    0    0 -0.15257340985E+01 -0.31339841807E+02  0.29985158260E+02  0.47787271148E+02  0.20000000471E+02 0.  0.
         12    1    1    2    0    0  0.15257340985E+01  0.31339841807E+02 -0.29985158260E+02  0.43400728852E+02  0.00000000000E+00 0. -1.
         11    1    3    3    0    0 -0.37854200392E+01 -0.10053724826E+01  0.60818392227E+00  0.39635926439E+01  0.51100000000E-03 0. -1.
        -11    1    3    3    0    0 -0.38064537261E+01 -0.48947255258E+01  0.39774103221E+01  0.73666288812E+01  0.51100000000E-03 0.  1.
        -12    1    3    3    0    0  0.60661396668E+01 -0.25439743798E+02  0.25399564016E+02  0.36457049623E+02  0.00000000000E+00 0.  1.
</event>
<event>
 7    1  0.2414091E-009  0.4778727E+02  0.7816164E-02  0.1312668E+00
        -11   -1    0    0    0    0  0.00000000000E+00  0.00000000000E+00  0.45593999997E+02  0.45594000000E+02  0.51100000000E-03 0.  1.
         11   -1    0    0    0    0 -0.00000000000E+00 -0.00000000000E+00 -0.45593999997E+02  0.45594000000E+02  0.51100000000E-03 0. -1.
    9900012    2    1    2    0    0 -0.16327577071E+01  0.17137562409E+02  0.39840450030E+02  0.47787269573E+02  0.19999993289E+02 0.  0.
         12    1    1    2    0    0  0.16327577071E+01 -0.17137562409E+02 -0.39840450030E+02  0.43400730427E+02  0.00000000000E+00 0. -1.
         11    1    3    3    0    0 -0.18748874962E+01 -0.60824157272E+00  0.68399955207E+01  0.71183354739E+01  0.51100000000E-03 0. -1.
        -11    1    3    3    0    0 -0.29388074496E+01  0.16390260718E+02  0.33266172808E+02  0.37201014626E+02  0.51100000000E-03 0.  1.
        -12    1    3    3    0    0  0.31809372386E+01  0.13555432630E+01 -0.26571829903E+00  0.34679194726E+01  0.00000000000E+00 0.  1.
</event>
<event>
 7    1  0.2414091E-009  0.4778727E+02  0.7816164E-02  0.1312668E+00
        -11   -1    0    0    0    0  0.00000000000E+00  0.00000000000E+00  0.45593999997E+02  0.45594000000E+02  0.51100000000E-03 0.  1.
         11   -1    0    0    0    0 -0.00000000000E+00 -0.00000000000E+00 -0.45593999997E+02  0.45594000000E+02  0.51100000000E-03 0. -1.
    9900012    2    1    2    0    0 -0.16270276632E+02 -0.15829125126E+02  0.36991082422E+02  0.47787270943E+02  0.19999999539E+02 0.  0.
         12    1    1    2    0    0  0.16270276632E+02  0.15829125126E+02 -0.36991082422E+02  0.43400729057E+02  0.00000000000E+00 0. -1.
         11    1    3    3    0    0 -0.33132988493E+01 -0.49837078141E+01  0.85892186318E+00  0.60459110041E+01  0.51100000000E-03 0. -1.
        -11    1    3    3    0    0 -0.12932193539E+02 -0.94327573782E+01  0.20325561021E+02  0.25871740810E+02  0.51100000000E-03 0.  1.
         12    1    3    3    0    0 -0.24784243537E-01 -0.14126599336E+01  0.15806599538E+02  0.15869619129E+02  0.00000000000E+00 0. -1.
</event>
<event>
 7    1  0.2414091E-009  0.4778727E+02  0.7816164E-02  0.1312668E+00
        -11   -1    0    0    0    0  0.00000000000E+00  0.00000000000E+00  0.45593999997E+02  0.45594000000E+02  0.51100000000E-03 0. -1.
         11   -1    0    0    0    0 -0.00000000000E+00 -0.00000000000E+00 -0.45593999997E+02  0.45594000000E+02  0.51100000000E-03 0.  1.
    9900012    2    1    2    0    0 -0.90577274285E+00  0.59463473137E+01 -0.42981904084E+02  0.47787267872E+02  0.19999985533E+02 0.  0.
         12    1    1    2    0    0  0.90577274285E+00 -0.59463473137E+01  0.42981904084E+02  0.43400732128E+02  0.00000000000E+00 0. -1.
         11    1    3    3    0    0  0.27731724679E+01  0.23238250855E+01 -0.37526277928E+01  0.52127597467E+01  0.51100000000E-03 0. -1.
        -11    1    3    3    0    0  0.31396601614E+01  0.65867379057E+01 -0.29151722604E+02  0.30051048455E+02  0.51100000000E-03 0.  1.
        -12    1    3    3    0    0 -0.68186053721E+01 -0.29642156775E+01 -0.10077553686E+02  0.12523459670E+02  0.00000000000E+00 0.  1.
</event>
<event>
 7    1  0.2414091E-009  0.4778725E+02  0.7816164E-02  0.1312668E+00
        -11   -1    0    0    0    0  0.00000000000E+00  0.00000000000E+00  0.45593999997E+02  0.45594000000E+02  0.51100000000E-03 0.  1.
         11   -1    0    0    0    0 -0.00000000000E+00 -0.00000000000E+00 -0.45593999997E+02  0.45594000000E+02  0.51100000000E-03 0. -1.
    9900012    2    1    2    0    0 -0.37601607030E+02  0.75221455575E+01  0.20326369421E+02  0.47787253245E+02  0.19999918847E+02 0.  0.
         12    1    1    2    0    0  0.37601607030E+02 -0.75221455575E+01 -0.20326369421E+02  0.43400746755E+02  0.00000000000E+00 0. -1.
         11    1    3    3    0    0 -0.52331667058E+01  0.22033139041E+01  0.74228003147E+01  0.93455117946E+01  0.51100000000E-03 0. -1.
        -11    1    3    3    0    0 -0.51195414984E+01  0.69948803660E+01  0.50596386286E+01  0.10036832160E+02  0.51100000000E-03 0.  1.
         12    1    3    3    0    0 -0.27248898826E+02 -0.16760487127E+01  0.78439304779E+01  0.28404909291E+02  0.00000000000E+00 0. -1.
</event>
<event>
 7    1  0.2414091E-009  0.4778729E+02  0.7816164E-02  0.1312668E+00
        -11   -1    0    0    0    0  0.00000000000E+00  0.00000000000E+00  0.45593999997E+02  0.45594000000E+02  0.51100000000E-03 0.  1.
         11   -1    0    0    0    0 -0.00000000000E+00 -0.00000000000E+00 -0.45593999997E+02  0.45594000000E+02  0.51100000000E-03 0. -1.
    9900012    2    1    2    0    0  0.80407924109E+01 -0.26744194499E+02  0.33222207825E+02  0.47787292923E+02  0.20000099755E+02 0.  0.
         12    1    1    2    0    0 -0.80407924109E+01  0.26744194499E+02 -0.33222207825E+02  0.43400707077E+02  0.00000000000E+00 0. -1.
         11    1    3    3    0    0 -0.41553786219E+01 -0.64138444361E+01  0.48355094846E+01  0.90436012837E+01  0.51100000000E-03 0. -1.
        -11    1    3    3    0    0 -0.22766103568E+01 -0.24039296653E+01  0.40504470552E+01  0.52314390144E+01  0.51100000000E-03 0.  1.
         12    1    3    3    0    0  0.14472781390E+02 -0.17926420398E+02  0.24336251285E+02  0.33512252625E+02  0.00000000000E+00 0. -1.
</event>
<event>
 7    1  0.2414091E-009  0.4778727E+02  0.7816164E-02  0.1312668E+00
        -11   -1    0    0    0    0  0.00000000000E+00  0.00000000000E+00  0.45593999997E+02  0.45594000000E+02  0.51100000000E-03 0.  1.
         11   -1    0    0    0    0 -0.00000000000E+00 -0.00000000000E+00 -0.45593999997E+02  0.45594000000E+02  0.51100000000E-03 0. -1.
    9900012    2    1    2    0    0 -0.36380891261E+01  0.23514611687E+02  0.36296703772E+02  0.47787270053E+02  0.19999995477E+02 0.  0.
         12    1    1    2    0    0  0.36380891261E+01 -0.23514611687E+02 -0.36296703772E+02  0.43400729947E+02  0.00000000000E+00 0. -1.
         11    1    3    3    0    0  0.45100972111E+01  0.29831945586E+00  0.75534012518E+01  0.88024906750E+01  0.51100000000E-03 0. -1.
        -11    1    3    3    0    0 -0.27547087988E+01  0.26835842496E+01  0.98186384834E+01  0.10544937502E+02  0.51100000000E-03 0.  1.
        -12    1    3    3    0    0 -0.53934775384E+01  0.20532707982E+02  0.18924664037E+02  0.28439841876E+02  0.00000000000E+00 0.  1.
</event>
<event>
 7    1  0.2414091E-009  0.4778727E+02  0.7816164E-02  0.1312668E+00
        -11   -1    0    0    0    0  0.00000000000E+00  0.00000000000E+00  0.45593999997E+02  0.45594000000E+02  0.51100000000E-03 0.  1.
         11   -1    0    0    0    0 -0.00000000000E+00 -0.00000000000E+00 -0.45593999997E+02  0.45594000000E+02  0.51100000000E-03 0. -1.
    9900012    2    1    2    0    0  0.35692704726E+02 -0.16398764132E+01  0.24636655808E+02  0.47787272187E+02  0.20000005210E+02 0.  0.
         12    1    1    2    0    0 -0.35692704726E+02  0.16398764132E+01 -0.24636655808E+02  0.43400727813E+02  0.00000000000E+00 0. -1.
         11    1    3    3    0    0  0.16999772051E+02  0.29988829124E+01  0.15762832928E+02  0.23376322437E+02  0.51100000000E-03 0. -1.
        -11    1    3    3    0    0  0.14906548589E+02  0.20499369253E+01  0.61795155824E+01  0.16266340871E+02  0.51100000000E-03 0.  1.
        -12    1    3    3    0    0  0.37863840857E+01 -0.66886962508E+01  0.26943072974E+01  0.81446088791E+01  0.00000000000E+00 0.  1.
</event>
<event>
 7    1  0.2414091E-009  0.4778727E+02  0.7816164E-02  0.1312668E+00
        -11   -1    0    0    0    0  0.00000000000E+00  0.00000000000E+00  0.45593999997E+02  0.45594000000E+02  0.51100000000E-03 0.  1.
         11   -1    0    0    0    0 -0.00000000000E+00 -0.00000000000E+00 -0.45593999997E+02  0.45594000000E+02  0.51100000000E-03 0. -1.
    9900012    2    1    2    0    0  0.10672869787E+02  0.22109966756E+02  0.35789138522E+02  0.47787271716E+02  0.20000003061E+02 0.  0.
         12    1    1    2    0    0 -0.10672869787E+02 -0.22109966756E+02 -0.35789138522E+02  0.43400728284E+02  0.00000000000E+00 0. -1.
         11    1    3    3    0    0  0.67824280104E+01  0.91349480965E+01  0.77024570209E+01  0.13739594276E+02  0.51100000000E-03 0. -1.
        -11    1    3    3    0    0  0.75260589012E+01  0.84307414545E+01  0.10148816876E+02  0.15189386041E+02  0.51100000000E-03 0.  1.
        -12    1    3    3    0    0 -0.36356171241E+01  0.45442772048E+01  0.17937864625E+02  0.18858291399E+02  0.00000000000E+00 0.  1.
</event>
<event>
 7    1  0.2414091E-009  0.4778727E+02  0.7816164E-02  0.1312668E+00
        -11   -1    0    0    0    0  0.00000000000E+00  0.00000000000E+00  0.45593999997E+02  0.45594000000E+02  0.51100000000E-03 0. -1.
         11   -1    0    0    0    0 -0.00000000000E+00 -0.00000000000E+00 -0.45593999997E+02  0.45594000000E+02  0.51100000000E-03 0.  1.
    9900012    2    1    2    0    0  0.41808983037E+01  0.35752216734E+02 -0.24247105079E+02  0.47787274007E+02  0.20000013508E+02 0.  0.
         12    1    1    2    0    0 -0.41808983037E+01 -0.35752216734E+02  0.24247105079E+02  0.43400725993E+02  0.00000000000E+00 0. -1.
         11    1    3    3    0    0  0.13333870615E+01  0.92428699113E+01 -0.67630189645E+01  0.11530264135E+02  0.51100000000E-03 0.  1.
        -11    1    3    3    0    0  0.13999341046E+01  0.22916288774E+02 -0.54252976870E+01  0.23591311153E+02  0.51100000000E-03 0. -1.
         12    1    3    3    0    0  0.14475771376E+01  0.35930580487E+01 -0.12058788427E+02  0.12665698719E+02  0.00000000000E+00 0. -1.
</event>
<event>
 7    1  0.2414091E-009  0.4778727E+02  0.7816164E-02  0.1312668E+00
        -11   -1    0    0    0    0  0.00000000000E+00  0.00000000000E+00  0.45593999997E+02  0.45594000000E+02  0.51100000000E-03 0.  1.
         11   -1    0    0    0    0 -0.00000000000E+00 -0.00000000000E+00 -0.45593999997E+02  0.45594000000E+02  0.51100000000E-03 0. -1.
    9900012    2    1    2    0    0 -0.67011638255E+01 -0.15603735674E+02  0.39940470858E+02  0.47787269869E+02  0.19999994638E+02 0.  0.
         12    1    1    2    0    0  0.67011638255E+01  0.15603735674E+02 -0.39940470858E+02  0.43400730131E+02  0.00000000000E+00 0. -1.
         11    1    3    3    0    0 -0.40609973179E+01 -0.79097544348E+01  0.27721301765E+02  0.29112308157E+02  0.51100000000E-03 0. -1.
        -11    1    3    3    0    0 -0.40083063697E+00 -0.50379651880E+01  0.13918439396E+02  0.14807589740E+02  0.51100000000E-03 0.  1.
         12    1    3    3    0    0 -0.22393358706E+01 -0.26560160509E+01 -0.16992703026E+01  0.38673719714E+01  0.00000000000E+00 0. -1.
</event>
<event>
 7    1  0.2414091E-009  0.4778728E+02  0.7816164E-02  0.1312668E+00
        -11   -1    0    0    0    0  0.00000000000E+00  0.00000000000E+00  0.45593999997E+02  0.45594000000E+02  0.51100000000E-03 0.  1.
         11   -1    0    0    0    0 -0.00000000000E+00 -0.00000000000E+00 -0.45593999997E+02  0.45594000000E+02  0.51100000000E-03 0. -1.
    9900012    2    1    2    0    0  0.14775147661E+02  0.16547556684E+02  0.37302759653E+02  0.47787279979E+02  0.20000040734E+02 0.  0.
         12    1    1    2    0    0 -0.14775147661E+02 -0.16547556684E+02 -0.37302759653E+02  0.43400720021E+02  0.00000000000E+00 0. -1.
         11    1    3    3    0    0  0.96039810629E+01  0.31715468318E+01  0.94210243687E+01  0.13822114960E+02  0.51100000000E-03 0. -1.
        -11    1    3    3    0    0  0.74643004311E+01  0.59979539725E+01  0.22768755493E+02  0.24700353434E+02  0.51100000000E-03 0.  1.
         12    1    3    3    0    0 -0.22931338331E+01  0.73780558801E+01  0.51129797913E+01  0.92648115843E+01  0.00000000000E+00 0. -1.
</event>
<event>
 7    1  0.2414091E-009  0.4778727E+02  0.7816164E-02  0.1312668E+00
        -11   -1    0    0    0    0  0.00000000000E+00  0.00000000000E+00  0.45593999997E+02  0.45594000000E+02  0.51100000000E-03 0. -1.
         11   -1    0    0    0    0 -0.00000000000E+00 -0.00000000000E+00 -0.45593999997E+02  0.45594000000E+02  0.51100000000E-03 0.  1.
    9900012    2    1    2    0    0 -0.71241725742E+01  0.12127876438E+01 -0.42794845923E+02  0.47787268136E+02  0.19999986741E+02 0.  0.
         12    1    1    2    0    0  0.71241725742E+01 -0.12127876438E+01  0.42794845923E+02  0.43400731864E+02  0.00000000000E+00 0. -1.
         11    1    3    3    0    0 -0.16128055540E+00  0.34856304702E-01  0.19923503072E+00  0.25869139552E+00  0.51100000000E-03 0. -1.
        -11    1    3    3    0    0 -0.98379185547E+01 -0.10821184006E+01 -0.42730907498E+02  0.43862125776E+02  0.51100000000E-03 0.  1.
        -12    1    3    3    0    0  0.28750265359E+01  0.22600497398E+01 -0.26317345546E+00  0.36664509647E+01  0.00000000000E+00 0.  1.
</event>
<event>
 7    1  0.2414091E-009  0.4778728E+02  0.7816164E-02  0.1312668E+00
        -11   -1    0    0    0    0  0.00000000000E+00  0.00000000000E+00  0.45593999997E+02  0.45594000000E+02  0.51100000000E-03 0.  1.
         11   -1    0    0    0    0 -0.00000000000E+00 -0.00000000000E+00 -0.45593999997E+02  0.45594000000E+02  0.51100000000E-03 0. -1.
    9900012    2    1    2    0    0 -0.30264194094E+02  0.17963473508E+02  0.25397131082E+02  0.47787284662E+02  0.20000062090E+02 0.  0.
         12    1    1    2    0    0  0.30264194094E+02 -0.17963473508E+02 -0.25397131082E+02  0.43400715338E+02  0.00000000000E+00 0. -1.
         11    1    3    3    0    0  0.20293193731E+01 -0.14337504093E+01  0.23869507376E+01  0.34454769538E+01  0.51100000000E-03 0. -1.
        -11    1    3    3    0    0 -0.16268530659E+02  0.73697524235E+01  0.10396913287E+02  0.20665772348E+02  0.51100000000E-03 0.  1.
         12    1    3    3    0    0 -0.16024982808E+02  0.12027471494E+02  0.12613267057E+02  0.23676035360E+02  0.00000000000E+00 0. -1.
</event>
<event>
 7    1  0.2414091E-009  0.4778729E+02  0.7816164E-02  0.1312668E+00
        -11   -1    0    0    0    0  0.00000000000E+00  0.00000000000E+00  0.45593999997E+02  0.45594000000E+02  0.51100000000E-03 0.  1.
         11   -1    0    0    0    0 -0.00000000000E+00 -0.00000000000E+00 -0.45593999997E+02  0.45594000000E+02  0.51100000000E-03 0. -1.
    9900012    2    1    2    0    0  0.19186948962E+02 -0.22681915682E+02  0.31638791230E+02  0.47787292403E+02  0.20000097381E+02 0.  0.
         12    1    1    2    0    0 -0.19186948962E+02  0.22681915682E+02 -0.31638791230E+02  0.43400707597E+02  0.00000000000E+00 0. -1.
         11    1    3    3    0    0  0.95221258919E+00  0.11701796323E+01 -0.64204201543E+00  0.16395875694E+01  0.51100000000E-03 0. -1.
        -11    1    3    3    0    0  0.14161296560E+02 -0.75421904604E+01  0.17755042492E+02  0.23930492920E+02  0.51100000000E-03 0.  1.
        -12    1    3    3    0    0  0.40734398123E+01 -0.16309904853E+02  0.14525790753E+02  0.22217211914E+02  0.00000000000E+00 0.  1.
</event>
<event>
 7    1  0.2414091E-009  0.4778727E+02  0.7816164E-02  0.1312668E+00
        -11   -1    0    0    0    0  0.00000000000E+00  0.00000000000E+00  0.45593999997E+02  0.45594000000E+02  0.51100000000E-03 0. -1.
         11   -1    0    0    0    0 -0.00000000000E+00 -0.00000000000E+00 -0.45593999997E+02  0.45594000000E+02  0.51100000000E-03 0.  1.
    9900012    2    1    2    0    0  0.23873244977E+02  0.36214671920E+02 -0.14795287760E+01  0.47787270819E+02  0.19999998971E+02 0.  0.
         12    1    1    2    0    0 -0.23873244977E+02 -0.36214671920E+02  0.14795287760E+01  0.43400729181E+02  0.00000000000E+00 0. -1.
         11    1    3    3    0    0  0.10230458141E+02  0.21767296393E+02 -0.99227715176E+01  0.26018048752E+02  0.51100000000E-03 0. -1.
        -11    1    3    3    0    0  0.24906469672E+01  0.12671637875E+01  0.13538557495E+01  0.31051492768E+01  0.51100000000E-03 0.  1.
         12    1    3    3    0    0  0.11152139869E+02  0.13180211740E+02  0.70893869921E+01  0.18664072790E+02  0.00000000000E+00 0. -1.
</event>
<event>
 7    1  0.2414091E-009  0.4778727E+02  0.7816164E-02  0.1312668E+00
        -11   -1    0    0    0    0  0.00000000000E+00  0.00000000000E+00  0.45593999997E+02  0.45594000000E+02  0.51100000000E-03 0.  1.
         11   -1    0    0    0    0 -0.00000000000E+00 -0.00000000000E+00 -0.45593999997E+02  0.45594000000E+02  0.51100000000E-03 0. -1.
    9900012    2    1    2    0    0  0.14506161790E+01 -0.36616746341E+02  0.23253672715E+02  0.47787266197E+02  0.19999977900E+02 0.  0.
         12    1    1    2    0    0 -0.14506161790E+01  0.36616746341E+02 -0.23253672715E+02  0.43400733803E+02  0.00000000000E+00 0. -1.
         11    1    3    3    0    0  0.42232507088E+01 -0.59823233643E+01  0.96272210301E+01  0.12095760596E+02  0.51100000000E-03 0. -1.
        -11    1    3    3    0    0 -0.10333907209E+01 -0.86261299476E+01  0.10120392126E+02  0.13337929048E+02  0.51100000000E-03 0.  1.
        -12    1    3    3    0    0 -0.17392438088E+01 -0.22008293029E+02  0.35060595594E+01  0.22353576553E+02  0.00000000000E+00 0.  1.
</event>
<event>
 7    1  0.2414091E-009  0.4778727E+02  0.7816164E-02  0.1312668E+00
        -11   -1    0    0    0    0  0.00000000000E+00  0.00000000000E+00  0.45593999997E+02  0.45594000000E+02  0.51100000000E-03 0. -1.
         11   -1    0    0    0    0 -0.00000000000E+00 -0.00000000000E+00 -0.45593999997E+02  0.45594000000E+02  0.51100000000E-03 0.  1.
    9900012    2    1    2    0    0  0.15130525288E+02 -0.38929978230E+02 -0.11796073983E+02  0.47787270030E+02  0.19999995376E+02 0.  0.
         12    1    1    2    0    0 -0.15130525288E+02  0.38929978230E+02  0.11796073983E+02  0.43400729970E+02  0.00000000000E+00 0. -1.
         11    1    3    3    0    0  0.77214147124E+01 -0.98110526672E+01 -0.48979401360E+01  0.13411443526E+02  0.51100000000E-03 0. -1.
        -11    1    3    3    0    0  0.31613272082E+00 -0.66401042420E+00 -0.49296492203E+01  0.49842041930E+01  0.51100000000E-03 0.  1.
        -12    1    3    3    0    0  0.70929778548E+01 -0.28454915139E+02 -0.19684846271E+01  0.29391622312E+02  0.00000000000E+00 0.  1.
</event>
<event>
 7    1  0.2414091E-009  0.4778727E+02  0.7816164E-02  0.1312668E+00
        -11   -1    0    0    0    0  0.00000000000E+00  0.00000000000E+00  0.45593999997E+02  0.45594000000E+02  0.51100000000E-03 0.  1.
         11   -1    0    0    0    0 -0.00000000000E+00 -0.00000000000E+00 -0.45593999997E+02  0.45594000000E+02  0.51100000000E-03 0. -1.
    9900012    2    1    2    0    0 -0.28510586167E+02  0.30829653192E+02 -0.10968226123E+02  0.47787273925E+02  0.20000013135E+02 0.  0.
         12    1    1    2    0    0  0.28510586167E+02 -0.30829653192E+02  0.10968226123E+02  0.43400726075E+02  0.00000000000E+00 0. -1.
         11    1    3    3    0    0 -0.12923471425E+02  0.19213543808E+02 -0.51666716435E+01  0.23724899904E+02  0.51100000000E-03 0. -1.
        -11    1    3    3    0    0 -0.10264260445E+02  0.13820198994E+02 -0.24255719409E+01  0.17384945850E+02  0.51100000000E-03 0.  1.
         12    1    3    3    0    0 -0.53228542966E+01 -0.22040896098E+01 -0.33759825389E+01  0.66774281706E+01  0.00000000000E+00 0. -1.
</event>
<event>
 7    1  0.2414091E-009  0.4778727E+02  0.7816164E-02  0.1312668E+00
        -11   -1    0    0    0    0  0.00000000000E+00  0.00000000000E+00  0.45593999997E+02  0.45594000000E+02  0.51100000000E-03 0.  1.
         11   -1    0    0    0    0 -0.00000000000E+00 -0.00000000000E+00 -0.45593999997E+02  0.45594000000E+02  0.51100000000E-03 0. -1.
    9900012    2    1    2    0    0  0.23303230182E+02 -0.17405389294E+02  0.32212343256E+02  0.47787272225E+02  0.20000005382E+02 0.  0.
         12    1    1    2    0    0 -0.23303230182E+02  0.17405389294E+02 -0.32212343256E+02  0.43400727775E+02  0.00000000000E+00 0. -1.
         11    1    3    3    0    0  0.62064398890E+01 -0.14994679595E+02  0.20681297597E+02  0.26288331686E+02  0.51100000000E-03 0.  1.
        -11    1    3    3    0    0  0.17280790770E+01  0.12985085451E+01  0.24471426845E+01  0.32651017316E+01  0.51100000000E-03 0. -1.
        -12    1    3    3    0    0  0.15368711216E+02 -0.37092182439E+01  0.90839029739E+01  0.18233838808E+02  0.00000000000E+00 0.  1.
</event>
<event>
 7    1  0.2414091E-009  0.4778727E+02  0.7816164E-02  0.1312668E+00
        -11   -1    0    0    0    0  0.00000000000E+00  0.00000000000E+00  0.45593999997E+02  0.45594000000E+02  0.51100000000E-03 0.  1.
         11   -1    0    0    0    0 -0.00000000000E+00 -0.00000000000E+00 -0.45593999997E+02  0.45594000000E+02  0.51100000000E-03 0. -1.
    9900012    2    1    2    0    0  0.19146373329E+02 -0.33149928110E+02  0.20448028894E+02  0.47787271539E+02  0.20000002254E+02 0.  0.
         12    1    1    2    0    0 -0.19146373329E+02  0.33149928110E+02 -0.20448028894E+02  0.43400728461E+02  0.00000000000E+00 0. -1.
         11    1    3    3    0    0  0.19033380392E+01 -0.44304010972E+00  0.52547894735E+00  0.20236374714E+01  0.51100000000E-03 0. -1.
        -11    1    3    3    0    0  0.10295470146E+02 -0.32595533183E+02  0.17523055478E+02  0.38412536529E+02  0.51100000000E-03 0.  1.
        -12    1    3    3    0    0  0.69475651437E+01 -0.11135481686E+00  0.23994944684E+01  0.73510975388E+01  0.00000000000E+00 0.  1.
</event>
<event>
 7    1  0.2414091E-009  0.4778727E+02  0.7816164E-02  0.1312668E+00
        -11   -1    0    0    0    0  0.00000000000E+00  0.00000000000E+00  0.45593999997E+02  0.45594000000E+02  0.51100000000E-03 0. -1.
         11   -1    0    0    0    0 -0.00000000000E+00 -0.00000000000E+00 -0.45593999997E+02  0.45594000000E+02  0.51100000000E-03 0.  1.
    9900012    2    1    2    0    0  0.15246836889E+02 -0.39427789307E+02 -0.98288634083E+01  0.47787272349E+02  0.20000005947E+02 0.  0.
         12    1    1    2    0    0 -0.15246836889E+02  0.39427789307E+02  0.98288634083E+01  0.43400727651E+02  0.00000000000E+00 0. -1.
         11    1    3    3    0    0  0.14645056426E+02 -0.13342410123E+02 -0.54173620476E+01  0.20538875272E+02  0.51100000000E-03 0.  1.
        -11    1    3    3    0    0 -0.97262403939E-01  0.31840815384E+00 -0.41923291378E+00  0.53535056250E+00  0.51100000000E-03 0. -1.
        -12    1    3    3    0    0  0.69904286637E+00 -0.26403787338E+02 -0.39922684469E+01  0.26713046514E+02  0.00000000000E+00 0.  1.
</event>
<event>
 7    1  0.2414091E-009  0.4778727E+02  0.7816164E-02  0.1312668E+00
        -11   -1    0    0    0    0  0.00000000000E+00  0.00000000000E+00  0.45593999997E+02  0.45594000000E+02  0.51100000000E-03 0. -1.
         11   -1    0    0    0    0 -0.00000000000E+00 -0.00000000000E+00 -0.45593999997E+02  0.45594000000E+02  0.51100000000E-03 0.  1.
    9900012    2    1    2    0    0 -0.27837118979E+02  0.11392575543E+02 -0.31287812945E+02  0.47787271786E+02  0.20000003383E+02 0.  0.
         12    1    1    2    0    0  0.27837118979E+02 -0.11392575543E+02  0.31287812945E+02  0.43400728214E+02  0.00000000000E+00 0. -1.
         11    1    3    3    0    0  0.58466740824E+00 -0.30343980244E+01 -0.36398538832E+01  0.47747192484E+01  0.51100000000E-03 0. -1.
        -11    1    3    3    0    0 -0.94792845518E+01  0.12117877920E+01 -0.55705775432E+01  0.11061491748E+02  0.51100000000E-03 0.  1.
        -12    1    3    3    0    0 -0.18942501836E+02  0.13215185775E+02 -0.22077381519E+02  0.31951060790E+02  0.00000000000E+00 0.  1.
</event>
<event>
 7    1  0.2414091E-009  0.4778728E+02  0.7816164E-02  0.1312668E+00
        -11   -1    0    0    0    0  0.00000000000E+00  0.00000000000E+00  0.45593999997E+02  0.45594000000E+02  0.51100000000E-03 0. -1.
         11   -1    0    0    0    0 -0.00000000000E+00 -0.00000000000E+00 -0.45593999997E+02  0.45594000000E+02  0.51100000000E-03 0.  1.
    9900012    2    1    2    0    0 -0.29724650090E+02  0.16968616966E+02 -0.26685841508E+02  0.47787275102E+02  0.20000018501E+02 0.  0.
         12    1    1    2    0    0  0.29724650090E+02 -0.16968616966E+02  0.26685841508E+02  0.43400724898E+02  0.00000000000E+00 0. -1.
         11    1    3    3    0    0 -0.10123034555E+02  0.80813422265E+01 -0.13143880872E+01  0.13019659638E+02  0.51100000000E-03 0. -1.
        -11    1    3    3    0    0 -0.89071618664E+01  0.39439353311E+01 -0.43471888335E+01  0.10667249384E+02  0.51100000000E-03 0.  1.
        -12    1    3    3    0    0 -0.10694453668E+02  0.49433394080E+01 -0.21024264587E+02  0.24100366080E+02  0.00000000000E+00 0.  1.
</event>
<event>
 7    1  0.2414091E-009  0.4778727E+02  0.7816164E-02  0.1312668E+00
        -11   -1    0    0    0    0  0.00000000000E+00  0.00000000000E+00  0.45593999997E+02  0.45594000000E+02  0.51100000000E-03 0.  1.
         11   -1    0    0    0    0 -0.00000000000E+00 -0.00000000000E+00 -0.45593999997E+02  0.45594000000E+02  0.51100000000E-03 0. -1.
    9900012    2    1    2    0    0  0.35443198536E+02  0.15549877780E+02  0.19636804876E+02  0.47787272735E+02  0.20000007707E+02 0.  0.
         12    1    1    2    0    0 -0.35443198536E+02 -0.15549877780E+02 -0.19636804876E+02  0.43400727265E+02  0.00000000000E+00 0. -1.
         11    1    3    3    0    0  0.25923569856E+02  0.81722040787E+01  0.13135129161E+02  0.30188541070E+02  0.51100000000E-03 0. -1.
        -11    1    3    3    0    0  0.57072011170E+01 -0.18070529401E+01  0.44130082144E+01  0.74372190152E+01  0.51100000000E-03 0.  1.
         12    1    3    3    0    0  0.38124275625E+01  0.91847266418E+01  0.20886675003E+01  0.10161512650E+02  0.00000000000E+00 0. -1.
</event>
<event>
 7    1  0.2414091E-009  0.4778727E+02  0.7816164E-02  0.1312668E+00
        -11   -1    0    0    0    0  0.00000000000E+00  0.00000000000E+00  0.45593999997E+02  0.45594000000E+02  0.51100000000E-03 0. -1.
         11   -1    0    0    0    0 -0.00000000000E+00 -0.00000000000E+00 -0.45593999997E+02  0.45594000000E+02  0.51100000000E-03 0.  1.
    9900012    2    1    2    0    0  0.41753953629E+02 -0.75863599509E+01  0.90927168187E+01  0.47787274198E+02  0.20000014380E+02 0.  0.
         12    1    1    2    0    0 -0.41753953629E+02  0.75863599509E+01 -0.90927168187E+01  0.43400725802E+02  0.00000000000E+00 0. -1.
         11    1    3    3    0    0  0.12770122414E+02  0.15356094238E+01  0.61730463005E+01  0.14266766405E+02  0.51100000000E-03 0. -1.
        -11    1    3    3    0    0  0.28865935794E+02 -0.96468174685E+01 -0.11811628563E+00  0.30435461033E+02  0.51100000000E-03 0.  1.
        -12    1    3    3    0    0  0.11789542110E+00  0.52484809379E+00  0.30377868038E+01  0.30850467610E+01  0.00000000000E+00 0.  1.
</event>
<event>
 7    1  0.2414091E-009  0.4778726E+02  0.7816164E-02  0.1312668E+00
        -11   -1    0    0    0    0  0.00000000000E+00  0.00000000000E+00  0.45593999997E+02  0.45594000000E+02  0.51100000000E-03 0. -1.
         11   -1    0    0    0    0 -0.00000000000E+00 -0.00000000000E+00 -0.45593999997E+02  0.45594000000E+02  0.51100000000E-03 0.  1.
    9900012    2    1    2    0    0 -0.34795468957E+01 -0.20995140390E+02 -0.37824878662E+02  0.47787255624E+02  0.19999929692E+02 0.  0.
         12    1    1    2    0    0  0.34795468957E+01  0.20995140390E+02  0.37824878662E+02  0.43400744376E+02  0.00000000000E+00 0. -1.
         11    1    3    3    0    0 -0.18564541555E+01 -0.48952752089E+01 -0.11917305087E+01  0.53693913313E+01  0.51100000000E-03 0. -1.
        -11    1    3    3    0    0 -0.68932251319E+01 -0.66539799073E+01 -0.10948934629E+02  0.14548923365E+02  0.51100000000E-03 0.  1.
        -12    1    3    3    0    0  0.52701323917E+01 -0.94458852738E+01 -0.25684213525E+02  0.27868940927E+02  0.00000000000E+00 0.  1.
</event>
<event>
 7    1  0.2414091E-009  0.4778727E+02  0.7816164E-02  0.1312668E+00
        -11   -1    0    0    0    0  0.00000000000E+00  0.00000000000E+00  0.45593999997E+02  0.45594000000E+02  0.51100000000E-03 0. -1.
         11   -1    0    0    0    0 -0.00000000000E+00 -0.00000000000E+00 -0.45593999997E+02  0.45594000000E+02  0.51100000000E-03 0.  1.
    9900012    2    1    2    0    0  0.41120657208E+02  0.79055324257E+01 -0.11411285238E+02  0.47787270479E+02  0.19999997422E+02 0.  0.
         12    1    1    2    0    0 -0.41120657208E+02 -0.79055324257E+01  0.11411285238E+02  0.43400729521E+02  0.00000000000E+00 0. -1.
         11    1    3    3    0    0  0.12129245632E+02  0.44658198728E+01 -0.59724313744E+01  0.14238401719E+02  0.51100000000E-03 0. -1.
        -11    1    3    3    0    0  0.29256122977E+02  0.56717358387E+01 -0.72410256152E+01  0.30667927404E+02  0.51100000000E-03 0.  1.
         12    1    3    3    0    0 -0.26471139991E+00 -0.22320232858E+01  0.18021717516E+01  0.28809413559E+01  0.00000000000E+00 0. -1.
</event>
<event>
 7    1  0.2414091E-009  0.4778727E+02  0.7816164E-02  0.1312668E+00
        -11   -1    0    0    0    0  0.00000000000E+00  0.00000000000E+00  0.45593999997E+02  0.45594000000E+02  0.51100000000E-03 0. -1.
         11   -1    0    0    0    0 -0.00000000000E+00 -0.00000000000E+00 -0.45593999997E+02  0.45594000000E+02  0.51100000000E-03 0.  1.
    9900012    2    1    2    0    0 -0.22395654730E+00  0.40209863960E+02  0.16332171417E+02  0.47787272593E+02  0.20000007062E+02 0.  0.
         12    1    1    2    0    0  0.22395654730E+00 -0.40209863960E+02 -0.16332171417E+02  0.43400727407E+02  0.00000000000E+00 0. -1.
         11    1    3    3    0    0 -0.13136281127E+01  0.24308943907E+02  0.11167174126E+02  0.26783505202E+02  0.51100000000E-03 0. -1.
        -11    1    3    3    0    0  0.55509803530E+01  0.14449690866E+02  0.27302213996E+01  0.15718176044E+02  0.51100000000E-03 0.  1.
        -12    1    3    3    0    0 -0.44613087876E+01  0.14512291877E+01  0.24347758913E+01  0.52855913477E+01  0.00000000000E+00 0.  1.
</event>
<event>
 7    1  0.2414091E-009  0.4778727E+02  0.7816164E-02  0.1312668E+00
        -11   -1    0    0    0    0  0.00000000000E+00  0.00000000000E+00  0.45593999997E+02  0.45594000000E+02  0.51100000000E-03 0.  1.
         11   -1    0    0    0    0 -0.00000000000E+00 -0.00000000000E+00 -0.45593999997E+02  0.45594000000E+02  0.51100000000E-03 0. -1.
    9900012    2    1    2    0    0  0.17929508443E+02 -0.38786626043E+02  0.75995942304E+01  0.47787268839E+02  0.19999989945E+02 0.  0.
         12    1    1    2    0    0 -0.17929508443E+02  0.38786626043E+02 -0.75995942304E+01  0.43400731161E+02  0.00000000000E+00 0. -1.
         11    1    3    3    0    0 -0.24561590301E+01 -0.24814466064E+01  0.23443561054E+01  0.42055083226E+01  0.51100000000E-03 0. -1.
        -11    1    3    3    0    0  0.72464387578E+01 -0.40921001253E+01  0.24696213070E+01  0.86807365913E+01  0.51100000000E-03 0.  1.
         12    1    3    3    0    0  0.13139228716E+02 -0.32213079312E+02  0.27856168180E+01  0.34901023925E+02  0.00000000000E+00 0. -1.
</event>
<event>
 7    1  0.2414091E-009  0.4778727E+02  0.7816164E-02  0.1312668E+00
        -11   -1    0    0    0    0  0.00000000000E+00  0.00000000000E+00  0.45593999997E+02  0.45594000000E+02  0.51100000000E-03 0.  1.
         11   -1    0    0    0    0 -0.00000000000E+00 -0.00000000000E+00 -0.45593999997E+02  0.45594000000E+02  0.51100000000E-03 0. -1.
    9900012    2    1    2    0    0 -0.22332609835E+02  0.33706084244E+02  0.15772698695E+02  0.47787267274E+02  0.19999982808E+02 0.  0.
         12    1    1    2    0    0  0.22332609835E+02 -0.33706084244E+02 -0.15772698695E+02  0.43400732726E+02  0.00000000000E+00 0. -1.
         11    1    3    3    0    0 -0.18021704691E+01  0.63070389863E+01 -0.24426321030E+01  0.69995007698E+01  0.51100000000E-03 0. -1.
        -11    1    3    3    0    0 -0.15937988019E+02  0.19440770831E+02  0.66249504565E+01  0.25997172950E+02  0.51100000000E-03 0.  1.
         12    1    3    3    0    0 -0.45924513468E+01  0.79582744265E+01  0.11590380341E+02  0.14790593554E+02  0.00000000000E+00 0. -1.
</event>
<event>
 7    1  0.2414091E-009  0.4778727E+02  0.7816164E-02  0.1312668E+00
        -11   -1    0    0    0    0  0.00000000000E+00  0.00000000000E+00  0.45593999997E+02  0.45594000000E+02  0.51100000000E-03 0.  1.
         11   -1    0    0    0    0 -0.00000000000E+00 -0.00000000000E+00 -0.45593999997E+02  0.45594000000E+02  0.51100000000E-03 0. -1.
    9900012    2    1    2    0    0  0.30327162978E+01  0.10021893088E+01  0.43283040136E+02  0.47787270571E+02  0.19999997840E+02 0.  0.
         12    1    1    2    0    0 -0.30327162978E+01 -0.10021893088E+01 -0.43283040136E+02  0.43400729429E+02  0.00000000000E+00 0. -1.
         11    1    3    3    0    0 -0.15682634248E+01 -0.18827755310E+01 -0.63404875672E+00  0.25310693307E+01  0.51100000000E-03 0. -1.
        -11    1    3    3    0    0  0.18272148065E+01  0.31416043931E+01  0.47045573614E+01  0.59448509098E+01  0.51100000000E-03 0.  1.
        -12    1    3    3    0    0  0.27737649161E+01 -0.25663955328E+00  0.39212531532E+02  0.39311350330E+02  0.00000000000E+00 0.  1.
</event>
<event>
 7    1  0.2414091E-009  0.4778727E+02  0.7816164E-02  0.1312668E+00
        -11   -1    0    0    0    0  0.00000000000E+00  0.00000000000E+00  0.45593999997E+02  0.45594000000E+02  0.51100000000E-03 0.  1.
         11   -1    0    0    0    0 -0.00000000000E+00 -0.00000000000E+00 -0.45593999997E+02  0.45594000000E+02  0.51100000000E-03 0. -1.
    9900012    2    1    2    0    0  0.21219056448E+02 -0.36535774147E+02  0.99253316823E+01  0.47787270074E+02  0.19999995576E+02 0.  0.
         12    1    1    2    0    0 -0.21219056448E+02  0.36535774147E+02 -0.99253316823E+01  0.43400729926E+02  0.00000000000E+00 0. -1.
         11    1    3    3    0    0 -0.63942262001E+00 -0.37080795107E+01 -0.64631574958E+00  0.38179103255E+01  0.51100000000E-03 0. -1.
        -11    1    3    3    0    0 -0.71125062250E+00 -0.10017584105E+02  0.55971826176E+01  0.11497231069E+02  0.51100000000E-03 0.  1.
         12    1    3    3    0    0  0.22569729690E+02 -0.22810110532E+02  0.49744648143E+01  0.32472128679E+02  0.00000000000E+00 0. -1.
</event>
<event>
 7    1  0.2414091E-009  0.4778726E+02  0.7816164E-02  0.1312668E+00
        -11   -1    0    0    0    0  0.00000000000E+00  0.00000000000E+00  0.45593999997E+02  0.45594000000E+02  0.51100000000E-03 0. -1.
         11   -1    0    0    0    0 -0.00000000000E+00 -0.00000000000E+00 -0.45593999997E+02  0.45594000000E+02  0.51100000000E-03 0.  1.
    9900012    2    1    2    0    0 -0.42099163850E+02 -0.10548998426E+02  0.53392006243E-01  0.47787264806E+02  0.19999971556E+02 0.  0.
         12    1    1    2    0    0  0.42099163850E+02  0.10548998426E+02 -0.53392006243E-01  0.43400735194E+02  0.00000000000E+00 0. -1.
         11    1    3    3    0    0 -0.50854700159E+01 -0.15067691992E+01  0.35689009066E+00  0.53159881019E+01  0.51100000000E-03 0. -1.
        -11    1    3    3    0    0 -0.39184477501E+02 -0.80452236900E+01 -0.88915121762E+00  0.40011741919E+02  0.51100000000E-03 0.  1.
         12    1    3    3    0    0  0.21707836664E+01 -0.99700553659E+00  0.58565313321E+00  0.24595347850E+01  0.00000000000E+00 0. -1.
</event>
<event>
 7    1  0.2414091E-009  0.4778723E+02  0.7816164E-02  0.1312668E+00
        -11   -1    0    0    0    0  0.00000000000E+00  0.00000000000E+00  0.45593999997E+02  0.45594000000E+02  0.51100000000E-03 0.  1.
         11   -1    0    0    0    0 -0.00000000000E+00 -0.00000000000E+00 -0.45593999997E+02  0.45594000000E+02  0.51100000000E-03 0. -1.
    9900012    2    1    2    0    0 -0.84847447693E+01 -0.28225650093E+02  0.31858255656E+02  0.47787231914E+02  0.19999821589E+02 0.  0.
         12    1    1    2    0    0  0.84847447693E+01  0.28225650093E+02 -0.31858255656E+02  0.43400768086E+02  0.00000000000E+00 0. -1.
         11    1    3    3    0    0  0.17084626859E+01 -0.72613364638E+01  0.19063780805E+01  0.76993590406E+01  0.51100000000E-03 0. -1.
        -11    1    3    3    0    0 -0.11856740315E+01 -0.51828338643E+01  0.31773817801E+00  0.53262132501E+01  0.51100000000E-03 0.  1.
        -12    1    3    3    0    0 -0.90075334237E+01 -0.15781479765E+02  0.29634139398E+02  0.34761659624E+02  0.00000000000E+00 0.  1.
</event>
<event>
 7    1  0.2414091E-009  0.4778727E+02  0.7816164E-02  0.1312668E+00
        -11   -1    0    0    0    0  0.00000000000E+00  0.00000000000E+00  0.45593999997E+02  0.45594000000E+02  0.51100000000E-03 0. -1.
         11   -1    0    0    0    0 -0.00000000000E+00 -0.00000000000E+00 -0.45593999997E+02  0.45594000000E+02  0.51100000000E-03 0.  1.
    9900012    2    1    2    0    0 -0.45498949403E+01 -0.38296812484E+02 -0.19906678454E+02  0.47787271464E+02  0.20000001911E+02 0.  0.
         12    1    1    2    0    0  0.45498949403E+01  0.38296812484E+02  0.19906678454E+02  0.43400728536E+02  0.00000000000E+00 0. -1.
         11    1    3    3    0    0  0.71720097673E+00 -0.12471930329E+02 -0.11767362815E+02  0.17162000211E+02  0.51100000000E-03 0. -1.
        -11    1    3    3    0    0  0.24711894859E+01 -0.18774170342E+02 -0.39160261479E+01  0.19336791630E+02  0.51100000000E-03 0.  1.
         12    1    3    3    0    0 -0.77382854029E+01 -0.70507118134E+01 -0.42232894919E+01  0.11288479622E+02  0.00000000000E+00 0. -1.
</event>
<event>
 7    1  0.2414091E-009  0.4778728E+02  0.7816164E-02  0.1312668E+00
        -11   -1    0    0    0    0  0.00000000000E+00  0.00000000000E+00  0.45593999997E+02  0.45594000000E+02  0.51100000000E-03 0.  1.
         11   -1    0    0    0    0 -0.00000000000E+00 -0.00000000000E+00 -0.45593999997E+02  0.45594000000E+02  0.51100000000E-03 0. -1.
    9900012    2    1    2    0    0  0.40362467801E+02  0.40080915945E+01  0.15441138833E+02  0.47787281415E+02  0.20000047284E+02 0.  0.
         12    1    1    2    0    0 -0.40362467801E+02 -0.40080915945E+01 -0.15441138833E+02  0.43400718585E+02  0.00000000000E+00 0. -1.
         11    1    3    3    0    0  0.87268416305E+00  0.33839783658E+01  0.16112281760E+01  0.38482390421E+01  0.51100000000E-03 0. -1.
        -11    1    3    3    0    0  0.82106348918E+01 -0.47104642794E+00  0.91331618728E+01  0.12290282996E+02  0.51100000000E-03 0.  1.
        -12    1    3    3    0    0  0.31279148746E+02  0.10951596566E+01  0.46967487847E+01  0.31648759377E+02  0.00000000000E+00 0.  1.
</event>
<event>
 7    1  0.2414091E-009  0.4778727E+02  0.7816164E-02  0.1312668E+00
        -11   -1    0    0    0    0  0.00000000000E+00  0.00000000000E+00  0.45593999997E+02  0.45594000000E+02  0.51100000000E-03 0.  1.
         11   -1    0    0    0    0 -0.00000000000E+00 -0.00000000000E+00 -0.45593999997E+02  0.45594000000E+02  0.51100000000E-03 0. -1.
    9900012    2    1    2    0    0 -0.16761345351E+02  0.32916516692E+02  0.22785601277E+02  0.47787269653E+02  0.19999993654E+02 0.  0.
         12    1    1    2    0    0  0.16761345351E+02 -0.32916516692E+02 -0.22785601277E+02  0.43400730347E+02  0.00000000000E+00 0. -1.
         11    1    3    3    0    0 -0.41556558381E+00 -0.18663680627E+01  0.13292074441E+01  0.23286943102E+01  0.51100000000E-03 0. -1.
        -11    1    3    3    0    0  0.15714925908E+01  0.25803824935E+01  0.49148611474E+00  0.30609674349E+01  0.51100000000E-03 0.  1.
        -12    1    3    3    0    0 -0.17917272358E+02  0.32202502261E+02  0.20964907718E+02  0.42397607908E+02  0.00000000000E+00 0.  1.
</event>
<event>
 7    1  0.2414091E-009  0.4778727E+02  0.7816164E-02  0.1312668E+00
        -11   -1    0    0    0    0  0.00000000000E+00  0.00000000000E+00  0.45593999997E+02  0.45594000000E+02  0.51100000000E-03 0.  1.
         11   -1    0    0    0    0 -0.00000000000E+00 -0.00000000000E+00 -0.45593999997E+02  0.45594000000E+02  0.51100000000E-03 0. -1.
    9900012    2    1    2    0    0 -0.19467018734E+02  0.18104140313E+02  0.34305959442E+02  0.47787267655E+02  0.19999984545E+02 0.  0.
         12    1    1    2    0    0  0.19467018734E+02 -0.18104140313E+02 -0.34305959442E+02  0.43400732345E+02  0.00000000000E+00 0. -1.
         11    1    3    3    0    0 -0.52881700019E+01  0.26394054048E+01  0.15108745602E+02  0.16223606159E+02  0.51100000000E-03 0. -1.
        -11    1    3    3    0    0 -0.49661617996E+01  0.23118853989E+01  0.13424647166E+02  0.14499266495E+02  0.51100000000E-03 0.  1.
         12    1    3    3    0    0 -0.92126869325E+01  0.13152849509E+02  0.57725666739E+01  0.17064395000E+02  0.00000000000E+00 0. -1.
</event>
<event>
 7    1  0.2414091E-009  0.4778728E+02  0.7816164E-02  0.1312668E+00
        -11   -1    0    0    0    0  0.00000000000E+00  0.00000000000E+00  0.45593999997E+02  0.45594000000E+02  0.51100000000E-03 0.  1.
         11   -1    0    0    0    0 -0.00000000000E+00 -0.00000000000E+00 -0.45593999997E+02  0.45594000000E+02  0.51100000000E-03 0. -1.
    9900012    2    1    2    0    0  0.23892601804E+02  0.81064854702E+01  0.35313614475E+02  0.47787275410E+02  0.20000019904E+02 0.  0.
         12    1    1    2    0    0 -0.23892601804E+02 -0.81064854702E+01 -0.35313614475E+02  0.43400724590E+02  0.00000000000E+00 0. -1.
         11    1    3    3    0    0 -0.70223709081E+00  0.21414495607E+01  0.71748384155E+01  0.75204554185E+01  0.51100000000E-03 0. -1.
        -11    1    3    3    0    0  0.41408655056E+01  0.68790286073E+01  0.10665879162E+02  0.13350235215E+02  0.51100000000E-03 0.  1.
        -12    1    3    3    0    0  0.20453973389E+02 -0.91399269779E+00  0.17472896897E+02  0.26916584777E+02  0.00000000000E+00 0.  1.
</event>
<event>
 7    1  0.2414091E-009  0.4778727E+02  0.7816164E-02  0.1312668E+00
        -11   -1    0    0    0    0  0.00000000000E+00  0.00000000000E+00  0.45593999997E+02  0.45594000000E+02  0.51100000000E-03 0.  1.
         11   -1    0    0    0    0 -0.00000000000E+00 -0.00000000000E+00 -0.45593999997E+02  0.45594000000E+02  0.51100000000E-03 0. -1.
    9900012    2    1    2    0    0 -0.14991276571E+02 -0.40341283049E+02  0.56094254734E+01  0.47787272524E+02  0.20000006747E+02 0.  0.
         12    1    1    2    0    0  0.14991276571E+02  0.40341283049E+02 -0.56094254734E+01  0.43400727476E+02  0.00000000000E+00 0. -1.
         11    1    3    3    0    0 -0.72536650524E+01 -0.30776870334E+02  0.55693237655E+01  0.32106833723E+02  0.51100000000E-03 0.  1.
        -11    1    3    3    0    0 -0.40159563334E+01 -0.77440218945E+01  0.43107638635E+01  0.97303887755E+01  0.51100000000E-03 0. -1.
         12    1    3    3    0    0 -0.37216551855E+01 -0.18203908207E+01 -0.42706621557E+01  0.59500500257E+01  0.00000000000E+00 0. -1.
</event>
<event>
 7    1  0.2414091E-009  0.4778727E+02  0.7816164E-02  0.1312668E+00
        -11   -1    0    0    0    0  0.00000000000E+00  0.00000000000E+00  0.45593999997E+02  0.45594000000E+02  0.51100000000E-03 0.  1.
         11   -1    0    0    0    0 -0.00000000000E+00 -0.00000000000E+00 -0.45593999997E+02  0.45594000000E+02  0.51100000000E-03 0. -1.
    9900012    2    1    2    0    0  0.10921229156E+02 -0.19932001272E+02  0.36973846178E+02  0.47787271641E+02  0.20000002718E+02 0.  0.
         12    1    1    2    0    0 -0.10921229156E+02  0.19932001272E+02 -0.36973846178E+02  0.43400728359E+02  0.00000000000E+00 0. -1.
         11    1    3    3    0    0  0.51572900223E+01 -0.51753894818E+01  0.35059649780E+01  0.81039550437E+01  0.51100000000E-03 0. -1.
        -11    1    3    3    0    0 -0.66432745868E+00 -0.13242736740E+02  0.14745512502E+02  0.19830318872E+02  0.51100000000E-03 0.  1.
         12    1    3    3    0    0  0.64282665919E+01 -0.15138750498E+01  0.18722368697E+02  0.19852997725E+02  0.00000000000E+00 0. -1.
</event>
<event>
 7    1  0.2414091E-009  0.4778728E+02  0.7816164E-02  0.1312668E+00
        -11   -1    0    0    0    0  0.00000000000E+00  0.00000000000E+00  0.45593999997E+02  0.45594000000E+02  0.51100000000E-03 0. -1.
         11   -1    0    0    0    0 -0.00000000000E+00 -0.00000000000E+00 -0.45593999997E+02  0.45594000000E+02  0.51100000000E-03 0.  1.
    9900012    2    1    2    0    0  0.46404924774E+01  0.43131169290E+02 -0.13381944537E+01  0.47787277666E+02  0.20000030190E+02 0.  0.
         12    1    1    2    0    0 -0.46404924774E+01 -0.43131169290E+02  0.13381944537E+01  0.43400722334E+02  0.00000000000E+00 0. -1.
         11    1    3    3    0    0  0.27772216790E+01  0.26038016237E+02  0.53827777471E+01  0.26733229254E+02  0.51100000000E-03 0. -1.
        -11    1    3    3    0    0  0.18901457144E+01  0.17908175435E+02 -0.78640541760E+01  0.19649904493E+02  0.51100000000E-03 0.  1.
         12    1    3    3    0    0 -0.26874916056E-01 -0.81502238206E+00  0.11430819751E+01  0.14041439193E+01  0.00000000000E+00 0. -1.
</event>
<event>
 7    1  0.2414091E-009  0.4778727E+02  0.7816164E-02  0.1312668E+00
        -11   -1    0    0    0    0  0.00000000000E+00  0.00000000000E+00  0.45593999997E+02  0.45594000000E+02  0.51100000000E-03 0.  1.
         11   -1    0    0    0    0 -0.00000000000E+00 -0.00000000000E+00 -0.45593999997E+02  0.45594000000E+02  0.51100000000E-03 0. -1.
    9900012    2    1    2    0    0  0.27683148765E+02  0.17072385250E+02  0.28736738351E+02  0.47787271957E+02  0.20000004159E+02 0.  0.
         12    1    1    2    0    0 -0.27683148765E+02 -0.17072385250E+02 -0.28736738351E+02  0.43400728043E+02  0.00000000000E+00 0. -1.
         11    1    3    3    0    0  0.57963866171E+01  0.58211996589E+00  0.83066899718E+01  0.10145839542E+02  0.51100000000E-03 0. -1.
        -11    1    3    3    0    0  0.20397009623E+02  0.15595985620E+02  0.10798868924E+02  0.27854772290E+02  0.51100000000E-03 0.  1.
        -12    1    3    3    0    0  0.14897525242E+01  0.89427966478E+00  0.96311794544E+01  0.97866601241E+01  0.00000000000E+00 0.  1.
</event>
<event>
 7    1  0.2414091E-009  0.4778727E+02  0.7816164E-02  0.1312668E+00
        -11   -1    0    0    0    0  0.00000000000E+00  0.00000000000E+00  0.45593999997E+02  0.45594000000E+02  0.51100000000E-03 0. -1.
         11   -1    0    0    0    0 -0.00000000000E+00 -0.00000000000E+00 -0.45593999997E+02  0.45594000000E+02  0.51100000000E-03 0.  1.
    9900012    2    1    2    0    0  0.27538344852E+02  0.10773156260E+01 -0.33527634320E+02  0.47787270637E+02  0.19999998144E+02 0.  0.
         12    1    1    2    0    0 -0.27538344852E+02 -0.10773156260E+01  0.33527634320E+02  0.43400729363E+02  0.00000000000E+00 0. -1.
         11    1    3    3    0    0  0.76293676543E+00  0.38913081385E+01 -0.13530272671E+01  0.41898728601E+01  0.51100000000E-03 0. -1.
        -11    1    3    3    0    0  0.72241838029E+01 -0.33505508216E+01 -0.30766390542E+01  0.85370211759E+01  0.51100000000E-03 0.  1.
        -12    1    3    3    0    0  0.19551224283E+02  0.53655830918E+00 -0.29097967998E+02  0.35060376601E+02  0.00000000000E+00 0.  1.
</event>
<event>
 7    1  0.2414091E-009  0.4778727E+02  0.7816164E-02  0.1312668E+00
        -11   -1    0    0    0    0  0.00000000000E+00  0.00000000000E+00  0.45593999997E+02  0.45594000000E+02  0.51100000000E-03 0.  1.
         11   -1    0    0    0    0 -0.00000000000E+00 -0.00000000000E+00 -0.45593999997E+02  0.45594000000E+02  0.51100000000E-03 0. -1.
    9900012    2    1    2    0    0  0.39174407560E+02  0.18572446638E+02 -0.20132661498E+01  0.47787271637E+02  0.20000002702E+02 0.  0.
         12    1    1    2    0    0 -0.39174407560E+02 -0.18572446638E+02  0.20132661498E+01  0.43400728363E+02  0.00000000000E+00 0. -1.
         11    1    3    3    0    0  0.15646399455E+02  0.43861796151E+01 -0.38628358255E+01  0.16702391697E+02  0.51100000000E-03 0. -1.
        -11    1    3    3    0    0  0.23779270165E+02  0.10084577998E+02  0.44670075746E+01  0.26212717522E+02  0.51100000000E-03 0.  1.
         12    1    3    3    0    0 -0.25126205869E+00  0.41016890247E+01 -0.26174378989E+01  0.48721624185E+01  0.00000000000E+00 0. -1.
</event>
<event>
 7    1  0.2414091E-009  0.4778727E+02  0.7816164E-02  0.1312668E+00
        -11   -1    0    0    0    0  0.00000000000E+00  0.00000000000E+00  0.45593999997E+02  0.45594000000E+02  0.51100000000E-03 0.  1.
         11   -1    0    0    0    0 -0.00000000000E+00 -0.00000000000E+00 -0.45593999997E+02  0.45594000000E+02  0.51100000000E-03 0. -1.
    9900012    2    1    2    0    0 -0.40761296404E+02  0.10837326075E+02  0.10231947922E+02  0.47787266375E+02  0.19999978708E+02 0.  0.
         12    1    1    2    0    0  0.40761296404E+02 -0.10837326075E+02 -0.10231947922E+02  0.43400733625E+02  0.00000000000E+00 0. -1.
         11    1    3    3    0    0 -0.47351346504E+01 -0.40409585525E+00  0.63375942538E+01  0.79214831190E+01  0.51100000000E-03 0. -1.
        -11    1    3    3    0    0 -0.15443103606E+02  0.10395357786E+02  0.48695237317E+01  0.19242275700E+02  0.51100000000E-03 0.  1.
        -12    1    3    3    0    0 -0.20583058148E+02  0.84606414353E+00 -0.97517006351E+00  0.20623507556E+02  0.00000000000E+00 0.  1.
</event>
<event>
 7    1  0.2414091E-009  0.4778727E+02  0.7816164E-02  0.1312668E+00
        -11   -1    0    0    0    0  0.00000000000E+00  0.00000000000E+00  0.45593999997E+02  0.45594000000E+02  0.51100000000E-03 0.  1.
         11   -1    0    0    0    0 -0.00000000000E+00 -0.00000000000E+00 -0.45593999997E+02  0.45594000000E+02  0.51100000000E-03 0. -1.
    9900012    2    1    2    0    0 -0.12748800482E+02  0.81669612318E+01  0.40674218162E+02  0.47787271981E+02  0.20000004268E+02 0.  0.
         12    1    1    2    0    0  0.12748800482E+02 -0.81669612318E+01 -0.40674218162E+02  0.43400728019E+02  0.00000000000E+00 0. -1.
         11    1    3    3    0    0 -0.31632275164E+01 -0.33181628278E+01  0.12435936267E+02  0.13254007845E+02  0.51100000000E-03 0. -1.
        -11    1    3    3    0    0 -0.64160477895E+01 -0.35355872608E+00  0.15869070634E+02  0.17120691460E+02  0.51100000000E-03 0.  1.
         12    1    3    3    0    0 -0.31695251761E+01  0.11838682786E+02  0.12369211262E+02  0.17412572675E+02  0.00000000000E+00 0. -1.
</event>
<event>
 7    1  0.2414091E-009  0.4778732E+02  0.7816164E-02  0.1312668E+00
        -11   -1    0    0    0    0  0.00000000000E+00  0.00000000000E+00  0.45593999997E+02  0.45594000000E+02  0.51100000000E-03 0.  1.
         11   -1    0    0    0    0 -0.00000000000E+00 -0.00000000000E+00 -0.45593999997E+02  0.45594000000E+02  0.51100000000E-03 0. -1.
    9900012    2    1    2    0    0  0.21131579829E+02  0.15430621117E+02  0.34626166779E+02  0.47787318440E+02  0.20000216093E+02 0.  0.
         12    1    1    2    0    0 -0.21131579829E+02 -0.15430621117E+02 -0.34626166779E+02  0.43400681560E+02  0.00000000000E+00 0. -1.
         11    1    3    3    0    0 -0.12757794331E+01  0.14912716940E+00  0.65761035197E+01  0.67003723656E+01  0.51100000000E-03 0.  1.
        -11    1    3    3    0    0  0.30085684070E+01  0.85670502234E+01  0.56068588675E+01  0.10671583763E+02  0.51100000000E-03 0. -1.
        -12    1    3    3    0    0  0.19398790855E+02  0.67144437241E+01  0.22443204391E+02  0.30415362311E+02  0.00000000000E+00 0.  1.
</event>
<event>
 7    1  0.2414091E-009  0.4778727E+02  0.7816164E-02  0.1312668E+00
        -11   -1    0    0    0    0  0.00000000000E+00  0.00000000000E+00  0.45593999997E+02  0.45594000000E+02  0.51100000000E-03 0. -1.
         11   -1    0    0    0    0 -0.00000000000E+00 -0.00000000000E+00 -0.45593999997E+02  0.45594000000E+02  0.51100000000E-03 0.  1.
    9900012    2    1    2    0    0 -0.11574726491E+02  0.31734493061E+02  0.27250155496E+02  0.47787270539E+02  0.19999997698E+02 0.  0.
         12    1    1    2    0    0  0.11574726491E+02 -0.31734493061E+02 -0.27250155496E+02  0.43400729461E+02  0.00000000000E+00 0. -1.
         11    1    3    3    0    0  0.10272432211E+01  0.30203620882E+01  0.19209153075E+01  0.37239403404E+01  0.51100000000E-03 0. -1.
        -11    1    3    3    0    0 -0.17081472341E+02  0.20371745408E+02  0.18517426702E+02  0.32398762325E+02  0.51100000000E-03 0.  1.
         12    1    3    3    0    0  0.44795026285E+01  0.83423855645E+01  0.68118134866E+01  0.11664567874E+02  0.00000000000E+00 0. -1.
</event>
<event>
 7    1  0.2414091E-009  0.4778726E+02  0.7816164E-02  0.1312668E+00
        -11   -1    0    0    0    0  0.00000000000E+00  0.00000000000E+00  0.45593999997E+02  0.45594000000E+02  0.51100000000E-03 0. -1.
         11   -1    0    0    0    0 -0.00000000000E+00 -0.00000000000E+00 -0.45593999997E+02  0.45594000000E+02  0.51100000000E-03 0.  1.
    9900012    2    1    2    0    0  0.63734501381E+01 -0.41414641749E+02 -0.11306227062E+02  0.47787260510E+02  0.19999951970E+02 0.  0.
         12    1    1    2    0    0 -0.63734501381E+01  0.41414641749E+02  0.11306227062E+02  0.43400739490E+02  0.00000000000E+00 0. -1.
         11    1    3    3    0    0  0.36922344403E+00 -0.11816999068E+02 -0.37714227768E+01  0.12409730978E+02  0.51100000000E-03 0. -1.
        -11    1    3    3    0    0  0.11499405614E+02 -0.24100882016E+02 -0.47603122929E+01  0.27124701230E+02  0.51100000000E-03 0.  1.
         12    1    3    3    0    0 -0.54951789196E+01 -0.54967606647E+01 -0.27744919919E+01  0.82528283017E+01  0.00000000000E+00 0. -1.
</event>
<event>
 7    1  0.2414091E-009  0.4778727E+02  0.7816164E-02  0.1312668E+00
        -11   -1    0    0    0    0  0.00000000000E+00  0.00000000000E+00  0.45593999997E+02  0.45594000000E+02  0.51100000000E-03 0. -1.
         11   -1    0    0    0    0 -0.00000000000E+00 -0.00000000000E+00 -0.45593999997E+02  0.45594000000E+02  0.51100000000E-03 0.  1.
    9900012    2    1    2    0    0  0.42409308968E+02 -0.48243135879E+01 -0.78612865848E+01  0.47787270565E+02  0.19999997815E+02 0.  0.
         12    1    1    2    0    0 -0.42409308968E+02  0.48243135879E+01  0.78612865848E+01  0.43400729435E+02  0.00000000000E+00 0. -1.
         11    1    3    3    0    0  0.96627700618E+01  0.10442125375E+01  0.23769649026E+01  0.10005471878E+02  0.51100000000E-03 0. -1.
        -11    1    3    3    0    0  0.12823678750E+02  0.29218491232E+00  0.28784365138E+01  0.13146007216E+02  0.51100000000E-03 0.  1.
        -12    1    3    3    0    0  0.19922860156E+02 -0.61607110377E+01 -0.13116688001E+02  0.24635791471E+02  0.00000000000E+00 0.  1.
</event>
<event>
 7    1  0.2414091E-009  0.4778727E+02  0.7816164E-02  0.1312668E+00
        -11   -1    0    0    0    0  0.00000000000E+00  0.00000000000E+00  0.45593999997E+02  0.45594000000E+02  0.51100000000E-03 0. -1.
         11   -1    0    0    0    0 -0.00000000000E+00 -0.00000000000E+00 -0.45593999997E+02  0.45594000000E+02  0.51100000000E-03 0.  1.
    9900012    2    1    2    0    0  0.37381340617E+02 -0.76012471877E+01 -0.20699743327E+02  0.47787274672E+02  0.20000016540E+02 0.  0.
         12    1    1    2    0    0 -0.37381340617E+02  0.76012471877E+01  0.20699743327E+02  0.43400725328E+02  0.00000000000E+00 0. -1.
         11    1    3    3    0    0  0.19588712797E+00  0.63530615167E+00  0.64026857652E+00  0.92300042495E+00  0.51100000000E-03 0. -1.
        -11    1    3    3    0    0  0.28274654009E+02  0.10502432432E+01 -0.18113871908E+02  0.33595705469E+02  0.51100000000E-03 0.  1.
        -12    1    3    3    0    0  0.89107994802E+01 -0.92867965826E+01 -0.32261399962E+01  0.13268568778E+02  0.00000000000E+00 0.  1.
</event>
<event>
 7    1  0.2414091E-009  0.4778727E+02  0.7816164E-02  0.1312668E+00
        -11   -1    0    0    0    0  0.00000000000E+00  0.00000000000E+00  0.45593999997E+02  0.45594000000E+02  0.51100000000E-03 0. -1.
         11   -1    0    0    0    0 -0.00000000000E+00 -0.00000000000E+00 -0.45593999997E+02  0.45594000000E+02  0.51100000000E-03 0.  1.
    9900012    2    1    2    0    0  0.31544899225E+02  0.25729890391E+02  0.15050432883E+02  0.47787268939E+02  0.19999990402E+02 0.  0.
         12    1    1    2    0    0 -0.31544899225E+02 -0.25729890391E+02 -0.15050432883E+02  0.43400731061E+02  0.00000000000E+00 0. -1.
         11    1    3    3    0    0  0.83353946013E+01  0.57748835538E+01  0.10079063018E+02  0.14297398183E+02  0.51100000000E-03 0. -1.
        -11    1    3    3    0    0  0.82985332756E+01  0.99921296790E+01  0.80691870575E+01  0.15291176870E+02  0.51100000000E-03 0.  1.
        -12    1    3    3    0    0  0.14910971348E+02  0.99628771586E+01 -0.30978171924E+01  0.18198693886E+02  0.00000000000E+00 0.  1.
</event>
<event>
 7    1  0.2414091E-009  0.4778727E+02  0.7816164E-02  0.1312668E+00
        -11   -1    0    0    0    0  0.00000000000E+00  0.00000000000E+00  0.45593999997E+02  0.45594000000E+02  0.51100000000E-03 0.  1.
         11   -1    0    0    0    0 -0.00000000000E+00 -0.00000000000E+00 -0.45593999997E+02  0.45594000000E+02  0.51100000000E-03 0. -1.
    9900012    2    1    2    0    0 -0.33734443582E+02  0.22059679811E+02  0.16092887553E+02  0.47787272046E+02  0.20000004565E+02 0.  0.
         12    1    1    2    0    0  0.33734443582E+02 -0.22059679811E+02 -0.16092887553E+02  0.43400727954E+02  0.00000000000E+00 0. -1.
         11    1    3    3    0    0  0.17390255466E+01  0.12319759492E+01  0.13079257322E+01  0.25005288587E+01  0.51100000000E-03 0. -1.
        -11    1    3    3    0    0 -0.74395371096E+01 -0.52979800878E+00  0.38074276050E+01  0.83740016458E+01  0.51100000000E-03 0.  1.
        -12    1    3    3    0    0 -0.28033932019E+02  0.21357501871E+02  0.10977534216E+02  0.36912741541E+02  0.00000000000E+00 0.  1.
</event>
<event>
 7    1  0.2414091E-009  0.4778727E+02  0.7816164E-02  0.1312668E+00
        -11   -1    0    0    0    0  0.00000000000E+00  0.00000000000E+00  0.45593999997E+02  0.45594000000E+02  0.51100000000E-03 0. -1.
         11   -1    0    0    0    0 -0.00000000000E+00 -0.00000000000E+00 -0.45593999997E+02  0.45594000000E+02  0.51100000000E-03 0.  1.
    9900012    2    1    2    0    0  0.10534791101E+01  0.18116990642E+02 -0.39424464319E+02  0.47787267806E+02  0.19999985236E+02 0.  0.
         12    1    1    2    0    0 -0.10534791101E+01 -0.18116990642E+02  0.39424464319E+02  0.43400732194E+02  0.00000000000E+00 0. -1.
         11    1    3    3    0    0 -0.72627499783E+00 -0.42579427321E+00 -0.10914238338E+02  0.10946660445E+02  0.51100000000E-03 0.  1.
        -11    1    3    3    0    0 -0.28297961124E+01  0.11577357654E+02 -0.25162177271E+02  0.27842020788E+02  0.51100000000E-03 0. -1.
         12    1    3    3    0    0  0.46095502203E+01  0.69654272607E+01 -0.33480487098E+01  0.89985865735E+01  0.00000000000E+00 0. -1.
</event>
<event>
 7    1  0.2414091E-009  0.4778727E+02  0.7816164E-02  0.1312668E+00
        -11   -1    0    0    0    0  0.00000000000E+00  0.00000000000E+00  0.45593999997E+02  0.45594000000E+02  0.51100000000E-03 0. -1.
         11   -1    0    0    0    0 -0.00000000000E+00 -0.00000000000E+00 -0.45593999997E+02  0.45594000000E+02  0.51100000000E-03 0.  1.
    9900012    2    1    2    0    0 -0.18414759378E+02 -0.17677837413E+02 -0.35100053041E+02  0.47787273946E+02  0.20000013229E+02 0.  0.
         12    1    1    2    0    0  0.18414759378E+02  0.17677837413E+02  0.35100053041E+02  0.43400726054E+02  0.00000000000E+00 0. -1.
         11    1    3    3    0    0 -0.50402031765E+01 -0.57420864062E+01 -0.16948115134E+02  0.18590691520E+02  0.51100000000E-03 0. -1.
        -11    1    3    3    0    0 -0.11640795133E+02 -0.15105030758E+02 -0.16528247116E+02  0.25235946951E+02  0.51100000000E-03 0.  1.
         12    1    3    3    0    0 -0.17337610684E+01  0.31692797505E+01 -0.16236907909E+01  0.39606354747E+01  0.00000000000E+00 0. -1.
</event>
<event>
 7    1  0.2414091E-009  0.4778727E+02  0.7816164E-02  0.1312668E+00
        -11   -1    0    0    0    0  0.00000000000E+00  0.00000000000E+00  0.45593999997E+02  0.45594000000E+02  0.51100000000E-03 0.  1.
         11   -1    0    0    0    0 -0.00000000000E+00 -0.00000000000E+00 -0.45593999997E+02  0.45594000000E+02  0.51100000000E-03 0. -1.
    9900012    2    1    2    0    0 -0.14664807319E+02 -0.85594825069E+01  0.39941231368E+02  0.47787271001E+02  0.19999999801E+02 0.  0.
         12    1    1    2    0    0  0.14664807319E+02  0.85594825069E+01 -0.39941231368E+02  0.43400728999E+02  0.00000000000E+00 0. -1.
         11    1    3    3    0    0 -0.19373162588E+02 -0.63279460818E+01  0.30137166712E+02  0.36381467095E+02  0.51100000000E-03 0. -1.
        -11    1    3    3    0    0  0.62145678666E+00 -0.14029912588E+01  0.37766856677E+01  0.40765117323E+01  0.51100000000E-03 0.  1.
         12    1    3    3    0    0  0.40868984825E+01 -0.82854516630E+00  0.60273789881E+01  0.73292921735E+01  0.00000000000E+00 0. -1.
</event>
<event>
 7    1  0.2414091E-009  0.4778727E+02  0.7816164E-02  0.1312668E+00
        -11   -1    0    0    0    0  0.00000000000E+00  0.00000000000E+00  0.45593999997E+02  0.45594000000E+02  0.51100000000E-03 0.  1.
         11   -1    0    0    0    0 -0.00000000000E+00 -0.00000000000E+00 -0.45593999997E+02  0.45594000000E+02  0.51100000000E-03 0. -1.
    9900012    2    1    2    0    0  0.33571552851E+01  0.17419461284E+02  0.39609532049E+02  0.47787272447E+02  0.20000006393E+02 0.  0.
         12    1    1    2    0    0 -0.33571552851E+01 -0.17419461284E+02 -0.39609532049E+02  0.43400727553E+02  0.00000000000E+00 0. -1.
         11    1    3    3    0    0 -0.18091661021E+01  0.56213909831E+00  0.97291276669E+01  0.99118619729E+01  0.51100000000E-03 0. -1.
        -11    1    3    3    0    0  0.43314537004E+01 -0.10061368786E+01  0.23042297404E+01  0.50083208298E+01  0.51100000000E-03 0.  1.
         12    1    3    3    0    0  0.83486768681E+00  0.17863459064E+02  0.27576174642E+02  0.32867089644E+02  0.00000000000E+00 0. -1.
</event>
<event>
 7    1  0.2414091E-009  0.4778727E+02  0.7816164E-02  0.1312668E+00
        -11   -1    0    0    0    0  0.00000000000E+00  0.00000000000E+00  0.45593999997E+02  0.45594000000E+02  0.51100000000E-03 0.  1.
         11   -1    0    0    0    0 -0.00000000000E+00 -0.00000000000E+00 -0.45593999997E+02  0.45594000000E+02  0.51100000000E-03 0. -1.
    9900012    2    1    2    0    0 -0.15642367158E+02  0.40426484944E+02  0.21538048872E+01  0.47787271772E+02  0.20000003318E+02 0.  0.
         12    1    1    2    0    0  0.15642367158E+02 -0.40426484944E+02 -0.21538048872E+01  0.43400728228E+02  0.00000000000E+00 0. -1.
         11    1    3    3    0    0 -0.36372405372E+01  0.46290223570E+01 -0.63863249514E+01  0.86857649838E+01  0.51100000000E-03 0. -1.
        -11    1    3    3    0    0 -0.39026126532E+01  0.13670872333E+02  0.57641989167E+00  0.14228682160E+02  0.51100000000E-03 0.  1.
         12    1    3    3    0    0 -0.81025139675E+01  0.22126590254E+02  0.79637099469E+01  0.24872824628E+02  0.00000000000E+00 0. -1.
</event>
<event>
 7    1  0.2414091E-009  0.4778727E+02  0.7816164E-02  0.1312668E+00
        -11   -1    0    0    0    0  0.00000000000E+00  0.00000000000E+00  0.45593999997E+02  0.45594000000E+02  0.51100000000E-03 0.  1.
         11   -1    0    0    0    0 -0.00000000000E+00 -0.00000000000E+00 -0.45593999997E+02  0.45594000000E+02  0.51100000000E-03 0. -1.
    9900012    2    1    2    0    0 -0.31827616039E+02 -0.29473560537E+02  0.13911772061E+01  0.47787270888E+02  0.19999999286E+02 0.  0.
         12    1    1    2    0    0  0.31827616039E+02  0.29473560537E+02 -0.13911772061E+01  0.43400729112E+02  0.00000000000E+00 0. -1.
         11    1    3    3    0    0 -0.16748383004E+02 -0.96047402226E+01 -0.82165305826E+01  0.20982629556E+02  0.51100000000E-03 0. -1.
        -11    1    3    3    0    0 -0.20815477756E+01 -0.27209956997E+01  0.20844592974E+01  0.40101907141E+01  0.51100000000E-03 0.  1.
         12    1    3    3    0    0 -0.12997685259E+02 -0.17147824614E+02  0.75232484912E+01  0.22794450618E+02  0.00000000000E+00 0. -1.
</event>
<event>
 7    1  0.2414091E-009  0.4778727E+02  0.7816164E-02  0.1312668E+00
        -11   -1    0    0    0    0  0.00000000000E+00  0.00000000000E+00  0.45593999997E+02  0.45594000000E+02  0.51100000000E-03 0. -1.
         11   -1    0    0    0    0 -0.00000000000E+00 -0.00000000000E+00 -0.45593999997E+02  0.45594000000E+02  0.51100000000E-03 0.  1.
    9900012    2    1    2    0    0 -0.32136229197E+02  0.25795317545E+02 -0.13619386437E+02  0.47787270500E+02  0.19999997516E+02 0.  0.
         12    1    1    2    0    0  0.32136229197E+02 -0.25795317545E+02  0.13619386437E+02  0.43400729500E+02  0.00000000000E+00 0. -1.
         11    1    3    3    0    0 -0.15616822748E+01  0.29370525084E+01 -0.99013231698E+00  0.34706614976E+01  0.51100000000E-03 0. -1.
        -11    1    3    3    0    0 -0.82485506923E+01  0.13767426111E+02  0.19146571042E+01  0.16163122296E+02  0.51100000000E-03 0.  1.
        -12    1    3    3    0    0 -0.22325996230E+02  0.90908389250E+01 -0.14543911224E+02  0.28153486706E+02  0.00000000000E+00 0.  1.
</event>
<event>
 7    1  0.2414091E-009  0.4778727E+02  0.7816164E-02  0.1312668E+00
        -11   -1    0    0    0    0  0.00000000000E+00  0.00000000000E+00  0.45593999997E+02  0.45594000000E+02  0.51100000000E-03 0. -1.
         11   -1    0    0    0    0 -0.00000000000E+00 -0.00000000000E+00 -0.45593999997E+02  0.45594000000E+02  0.51100000000E-03 0.  1.
    9900012    2    1    2    0    0 -0.24396587267E+02 -0.15726920059E+02 -0.32265992542E+02  0.47787265449E+02  0.19999974489E+02 0.  0.
         12    1    1    2    0    0  0.24396587267E+02  0.15726920059E+02  0.32265992542E+02  0.43400734551E+02  0.00000000000E+00 0. -1.
         11    1    3    3    0    0 -0.36372698049E+01 -0.36170543244E+01 -0.70602624784E+01  0.87269765752E+01  0.51100000000E-03 0. -1.
        -11    1    3    3    0    0 -0.64564330713E+01 -0.10305704762E+01  0.15899384682E+01  0.67287077588E+01  0.51100000000E-03 0.  1.
        -12    1    3    3    0    0 -0.14302884391E+02 -0.11079295258E+02 -0.26795668532E+02  0.32331581115E+02  0.00000000000E+00 0.  1.
</event>
<event>
 7    1  0.2414091E-009  0.4778728E+02  0.7816164E-02  0.1312668E+00
        -11   -1    0    0    0    0  0.00000000000E+00  0.00000000000E+00  0.45593999997E+02  0.45594000000E+02  0.51100000000E-03 0.  1.
         11   -1    0    0    0    0 -0.00000000000E+00 -0.00000000000E+00 -0.45593999997E+02  0.45594000000E+02  0.51100000000E-03 0. -1.
    9900012    2    1    2    0    0  0.14771999211E+02 -0.26432327027E+02  0.31092491878E+02  0.47787275076E+02  0.20000018382E+02 0.  0.
         12    1    1    2    0    0 -0.14771999211E+02  0.26432327027E+02 -0.31092491878E+02  0.43400724924E+02  0.00000000000E+00 0. -1.
         11    1    3    3    0    0  0.40288761096E+01 -0.28662700304E+01  0.78175894902E+01  0.92499757996E+01  0.51100000000E-03 0.  1.
        -11    1    3    3    0    0  0.43084950686E+01 -0.61276109392E+01 -0.14246424425E+01  0.76249820937E+01  0.51100000000E-03 0. -1.
         12    1    3    3    0    0  0.64346280329E+01 -0.17438446057E+02  0.24699544830E+02  0.30912317183E+02  0.00000000000E+00 0. -1.
</event>
<event>
 7    1  0.2414091E-009  0.4778727E+02  0.7816164E-02  0.1312668E+00
        -11   -1    0    0    0    0  0.00000000000E+00  0.00000000000E+00  0.45593999997E+02  0.45594000000E+02  0.51100000000E-03 0.  1.
         11   -1    0    0    0    0 -0.00000000000E+00 -0.00000000000E+00 -0.45593999997E+02  0.45594000000E+02  0.51100000000E-03 0. -1.
    9900012    2    1    2    0    0  0.26644159404E+02  0.58088416416E+01  0.33763432562E+02  0.47787271320E+02  0.20000001256E+02 0.  0.
         12    1    1    2    0    0 -0.26644159404E+02 -0.58088416416E+01 -0.33763432562E+02  0.43400728680E+02  0.00000000000E+00 0. -1.
         11    1    3    3    0    0  0.11664835895E+02  0.22867086122E+01  0.12341727865E+02  0.17135217527E+02  0.51100000000E-03 0.  1.
        -11    1    3    3    0    0  0.12128410037E+02  0.87189871260E+01  0.19190382371E+02  0.24318508225E+02  0.51100000000E-03 0. -1.
         12    1    3    3    0    0  0.28509134724E+01 -0.51968540966E+01  0.22313223267E+01  0.63335455674E+01  0.00000000000E+00 0. -1.
</event>
<event>
 7    1  0.2414091E-009  0.4778727E+02  0.7816164E-02  0.1312668E+00
        -11   -1    0    0    0    0  0.00000000000E+00  0.00000000000E+00  0.45593999997E+02  0.45594000000E+02  0.51100000000E-03 0.  1.
         11   -1    0    0    0    0 -0.00000000000E+00 -0.00000000000E+00 -0.45593999997E+02  0.45594000000E+02  0.51100000000E-03 0. -1.
    9900012    2    1    2    0    0  0.56848413724E+01 -0.31507687115E+02  0.29301390782E+02  0.47787271083E+02  0.20000000175E+02 0.  0.
         12    1    1    2    0    0 -0.56848413724E+01  0.31507687115E+02 -0.29301390782E+02  0.43400728917E+02  0.00000000000E+00 0. -1.
         11    1    3    3    0    0 -0.26792899743E+01 -0.15969080150E+02  0.12936702759E+02  0.20725549308E+02  0.51100000000E-03 0. -1.
        -11    1    3    3    0    0 -0.19524255227E+01 -0.34435841718E+01  0.83887981613E+01  0.92758919906E+01  0.51100000000E-03 0.  1.
         12    1    3    3    0    0  0.10316556869E+02 -0.12095022794E+02  0.79758898614E+01  0.17785829784E+02  0.00000000000E+00 0. -1.
</event>
<event>
 7    1  0.2922131E-009  0.4778728E+02  0.7816164E-02  0.1312668E+00
        -11   -1    0    0    0    0  0.00000000000E+00  0.00000000000E+00  0.45593999997E+02  0.45594000000E+02  0.51100000000E-03 0.  1.
         11   -1    0    0    0    0 -0.00000000000E+00 -0.00000000000E+00 -0.45593999997E+02  0.45594000000E+02  0.51100000000E-03 0. -1.
    9900012    2    1    2    0    0  0.40916742249E+02  0.11459715200E+01 -0.14426684139E+02  0.47787282699E+02  0.20000053138E+02 0.  0.
         12    1    1    2    0    0 -0.40916742249E+02 -0.11459715200E+01  0.14426684139E+02  0.43400717301E+02  0.00000000000E+00 0. -1.
         11    1    3    3    0    0  0.14174251183E+01  0.27040439803E+01  0.60280901733E+00  0.31119651004E+01  0.51100000000E-03 0. -1.
        -11    1    3    3    0    0  0.83487069507E+01 -0.61614201125E+01 -0.56732163612E+01  0.11825793406E+02  0.51100000000E-03 0.  1.
        -12    1    3    3    0    0  0.31150610180E+02  0.46033476522E+01 -0.93562767950E+01  0.32849524192E+02  0.00000000000E+00 0.  1.
</event>
<event>
 7    1  0.2414091E-009  0.4778727E+02  0.7816164E-02  0.1312668E+00
        -11   -1    0    0    0    0  0.00000000000E+00  0.00000000000E+00  0.45593999997E+02  0.45594000000E+02  0.51100000000E-03 0.  1.
         11   -1    0    0    0    0 -0.00000000000E+00 -0.00000000000E+00 -0.45593999997E+02  0.45594000000E+02  0.51100000000E-03 0. -1.
    9900012    2    1    2    0    0 -0.32748230009E+02  0.14573916240E+01  0.28443854315E+02  0.47787269507E+02  0.19999992989E+02 0.  0.
         12    1    1    2    0    0  0.32748230009E+02 -0.14573916240E+01 -0.28443854315E+02  0.43400730493E+02  0.00000000000E+00 0. -1.
         11    1    3    3    0    0 -0.10866153734E+02  0.49802877620E+01  0.50174356068E+00  0.11963624452E+02  0.51100000000E-03 0. -1.
        -11    1    3    3    0    0 -0.78200737211E+01 -0.42607188553E+00  0.77022881290E+01  0.10984549738E+02  0.51100000000E-03 0.  1.
         12    1    3    3    0    0 -0.14062002554E+02 -0.30968242525E+01  0.20239822625E+02  0.24839095317E+02  0.00000000000E+00 0. -1.
</event>
<event>
 7    1  0.2414091E-009  0.4778727E+02  0.7816164E-02  0.1312668E+00
        -11   -1    0    0    0    0  0.00000000000E+00  0.00000000000E+00  0.45593999997E+02  0.45594000000E+02  0.51100000000E-03 0. -1.
         11   -1    0    0    0    0 -0.00000000000E+00 -0.00000000000E+00 -0.45593999997E+02  0.45594000000E+02  0.51100000000E-03 0.  1.
    9900012    2    1    2    0    0  0.23066432375E+02  0.76915707535E+01 -0.35950005957E+02  0.47787268538E+02  0.19999988571E+02 0.  0.
         12    1    1    2    0    0 -0.23066432375E+02 -0.76915707535E+01  0.35950005957E+02  0.43400731462E+02  0.00000000000E+00 0. -1.
         11    1    3    3    0    0  0.97800844107E+01 -0.14325219101E+01 -0.13122219359E+02  0.16428475622E+02  0.51100000000E-03 0. -1.
        -11    1    3    3    0    0  0.15562027692E+02  0.95602446746E+01 -0.22559892052E+02  0.29026259038E+02  0.51100000000E-03 0.  1.
         12    1    3    3    0    0 -0.22756797277E+01 -0.43615201099E+00 -0.26789454583E+00  0.23325338770E+01  0.00000000000E+00 0. -1.
</event>
<event>
 7    1  0.2414091E-009  0.4778727E+02  0.7816164E-02  0.1312668E+00
        -11   -1    0    0    0    0  0.00000000000E+00  0.00000000000E+00  0.45593999997E+02  0.45594000000E+02  0.51100000000E-03 0.  1.
         11   -1    0    0    0    0 -0.00000000000E+00 -0.00000000000E+00 -0.45593999997E+02  0.45594000000E+02  0.51100000000E-03 0. -1.
    9900012    2    1    2    0    0 -0.14090466386E+02 -0.21718237018E+02  0.34833893600E+02  0.47787271832E+02  0.20000003593E+02 0.  0.
         12    1    1    2    0    0  0.14090466386E+02  0.21718237018E+02 -0.34833893600E+02  0.43400728168E+02  0.00000000000E+00 0. -1.
         11    1    3    3    0    0 -0.11579664374E+02 -0.20340374105E+01  0.10546462395E+02  0.15794106638E+02  0.51100000000E-03 0. -1.
        -11    1    3    3    0    0  0.66489803664E+00 -0.10031834852E+02  0.82399899992E+01  0.12999124407E+02  0.51100000000E-03 0.  1.
        -12    1    3    3    0    0 -0.31757000495E+01 -0.96523647558E+01  0.16047441206E+02  0.18994040787E+02  0.00000000000E+00 0.  1.
</event>
<event>
 7    1  0.2414091E-009  0.4778727E+02  0.7816164E-02  0.1312668E+00
        -11   -1    0    0    0    0  0.00000000000E+00  0.00000000000E+00  0.45593999997E+02  0.45594000000E+02  0.51100000000E-03 0. -1.
         11   -1    0    0    0    0 -0.00000000000E+00 -0.00000000000E+00 -0.45593999997E+02  0.45594000000E+02  0.51100000000E-03 0.  1.
    9900012    2    1    2    0    0  0.32079347973E+02 -0.27099336273E+02 -0.10961964573E+02  0.47787271203E+02  0.20000000723E+02 0.  0.
         12    1    1    2    0    0 -0.32079347973E+02  0.27099336273E+02  0.10961964573E+02  0.43400728797E+02  0.00000000000E+00 0. -1.
         11    1    3    3    0    0 -0.33936942199E+00 -0.27034102631E+01 -0.21081660606E+01  0.34449910095E+01  0.51100000000E-03 0. -1.
        -11    1    3    3    0    0  0.24229127533E+02 -0.17224196944E+02 -0.13320716750E+02  0.32575528796E+02  0.51100000000E-03 0.  1.
         12    1    3    3    0    0  0.81895898624E+01 -0.71717290654E+01  0.44669182372E+01  0.11766751397E+02  0.00000000000E+00 0. -1.
</event>
<event>
 7    1  0.2414091E-009  0.4778727E+02  0.7816164E-02  0.1312668E+00
        -11   -1    0    0    0    0  0.00000000000E+00  0.00000000000E+00  0.45593999997E+02  0.45594000000E+02  0.51100000000E-03 0.  1.
         11   -1    0    0    0    0 -0.00000000000E+00 -0.00000000000E+00 -0.45593999997E+02  0.45594000000E+02  0.51100000000E-03 0. -1.
    9900012    2    1    2    0    0 -0.10410215446E+02 -0.60157688831E+01  0.41702050615E+02  0.47787273204E+02  0.20000009848E+02 0.  0.
         12    1    1    2    0    0  0.10410215446E+02  0.60157688831E+01 -0.41702050615E+02  0.43400726796E+02  0.00000000000E+00 0. -1.
         11    1    3    3    0    0 -0.12220415836E+02  0.87946916487E+00  0.17711524117E+02  0.21536251206E+02  0.51100000000E-03 0. -1.
        -11    1    3    3    0    0 -0.24698358913E+01 -0.47966364549E+01  0.87229265256E+01  0.10256571457E+02  0.51100000000E-03 0.  1.
        -12    1    3    3    0    0  0.42800362808E+01 -0.20986015930E+01  0.15267599972E+02  0.15994450542E+02  0.00000000000E+00 0.  1.
</event>
<event>
 7    1  0.2414091E-009  0.4778727E+02  0.7816164E-02  0.1312668E+00
        -11   -1    0    0    0    0  0.00000000000E+00  0.00000000000E+00  0.45593999997E+02  0.45594000000E+02  0.51100000000E-03 0.  1.
         11   -1    0    0    0    0 -0.00000000000E+00 -0.00000000000E+00 -0.45593999997E+02  0.45594000000E+02  0.51100000000E-03 0. -1.
    9900012    2    1    2    0    0 -0.97140269683E+01  0.20568416388E+02  0.36962156843E+02  0.47787272919E+02  0.20000008546E+02 0.  0.
         12    1    1    2    0    0  0.97140269683E+01 -0.20568416388E+02 -0.36962156843E+02  0.43400727081E+02  0.00000000000E+00 0. -1.
         11    1    3    3    0    0 -0.33123495560E+01  0.94531631337E+01  0.80781834873E+01  0.12868216719E+02  0.51100000000E-03 0. -1.
        -11    1    3    3    0    0 -0.55485441997E+01 -0.63672425083E-01  0.21885265723E+01  0.59649011503E+01  0.51100000000E-03 0.  1.
         12    1    3    3    0    0 -0.85313321256E+00  0.11178925680E+02  0.26695446784E+02  0.28954155049E+02  0.00000000000E+00 0. -1.
</event>
<event>
 7    1  0.2414091E-009  0.4778727E+02  0.7816164E-02  0.1312668E+00
        -11   -1    0    0    0    0  0.00000000000E+00  0.00000000000E+00  0.45593999997E+02  0.45594000000E+02  0.51100000000E-03 0. -1.
         11   -1    0    0    0    0 -0.00000000000E+00 -0.00000000000E+00 -0.45593999997E+02  0.45594000000E+02  0.51100000000E-03 0.  1.
    9900012    2    1    2    0    0 -0.39469718131E+02  0.17939510119E+02 -0.19846187314E+01  0.47787269774E+02  0.19999994206E+02 0.  0.
         12    1    1    2    0    0  0.39469718131E+02 -0.17939510119E+02  0.19846187314E+01  0.43400730226E+02  0.00000000000E+00 0. -1.
         11    1    3    3    0    0 -0.13875174912E+02  0.45832576145E-01 -0.35725990004E+01  0.14327806648E+02  0.51100000000E-03 0. -1.
        -11    1    3    3    0    0 -0.22195011413E+02  0.91660727527E+01  0.18970174020E+01  0.24088048834E+02  0.51100000000E-03 0.  1.
         12    1    3    3    0    0 -0.33995318064E+01  0.87276047907E+01 -0.30903713303E+00  0.93714142921E+01  0.00000000000E+00 0. -1.
</event>
<event>
 7    1  0.2414091E-009  0.4778727E+02  0.7816164E-02  0.1312668E+00
        -11   -1    0    0    0    0  0.00000000000E+00  0.00000000000E+00  0.45593999997E+02  0.45594000000E+02  0.51100000000E-03 0. -1.
         11   -1    0    0    0    0 -0.00000000000E+00 -0.00000000000E+00 -0.45593999997E+02  0.45594000000E+02  0.51100000000E-03 0.  1.
    9900012    2    1    2    0    0 -0.30733153923E+02 -0.25872238564E+02 -0.16423284747E+02  0.47787265441E+02  0.19999974451E+02 0.  0.
         12    1    1    2    0    0  0.30733153923E+02  0.25872238564E+02  0.16423284747E+02  0.43400734559E+02  0.00000000000E+00 0. -1.
         11    1    3    3    0    0 -0.16896301535E+02 -0.10428884931E+02 -0.11166870212E+02  0.22780378335E+02  0.51100000000E-03 0. -1.
        -11    1    3    3    0    0 -0.30975987382E+01 -0.13033390757E+02 -0.36429034645E+01  0.13882908142E+02  0.51100000000E-03 0.  1.
         12    1    3    3    0    0 -0.10739253650E+02 -0.24099628756E+01 -0.16135110708E+01  0.11123978964E+02  0.00000000000E+00 0. -1.
</event>
<event>
 7    1  0.2414091E-009  0.4778726E+02  0.7816164E-02  0.1312668E+00
        -11   -1    0    0    0    0  0.00000000000E+00  0.00000000000E+00  0.45593999997E+02  0.45594000000E+02  0.51100000000E-03 0.  1.
         11   -1    0    0    0    0 -0.00000000000E+00 -0.00000000000E+00 -0.45593999997E+02  0.45594000000E+02  0.51100000000E-03 0. -1.
    9900012    2    1    2    0    0  0.38452334224E+02  0.10734115198E+02  0.17024131848E+02  0.47787259206E+02  0.19999946022E+02 0.  0.
         12    1    1    2    0    0 -0.38452334224E+02 -0.10734115198E+02 -0.17024131848E+02  0.43400740794E+02  0.00000000000E+00 0. -1.
         11    1    3    3    0    0  0.23474690914E+02  0.14968393846E+02  0.86097457390E+01  0.29141750974E+02  0.51100000000E-03 0. -1.
        -11    1    3    3    0    0  0.56428890081E+01 -0.28401689303E+01  0.51601324769E+00  0.63383772247E+01  0.51100000000E-03 0.  1.
        -12    1    3    3    0    0  0.93347543014E+01 -0.13941097181E+01  0.78983728614E+01  0.12307131007E+02  0.00000000000E+00 0.  1.
</event>
<event>
 7    1  0.2414091E-009  0.4778727E+02  0.7816164E-02  0.1312668E+00
        -11   -1    0    0    0    0  0.00000000000E+00  0.00000000000E+00  0.45593999997E+02  0.45594000000E+02  0.51100000000E-03 0.  1.
         11   -1    0    0    0    0 -0.00000000000E+00 -0.00000000000E+00 -0.45593999997E+02  0.45594000000E+02  0.51100000000E-03 0. -1.
    9900012    2    1    2    0    0  0.91092638319E+00  0.18621081885E+02  0.39192462822E+02  0.47787267063E+02  0.19999981848E+02 0.  0.
         12    1    1    2    0    0 -0.91092638319E+00 -0.18621081885E+02 -0.39192462822E+02  0.43400732937E+02  0.00000000000E+00 0. -1.
         11    1    3    3    0    0  0.95491585747E+00  0.11753564902E+02  0.18375426710E+02  0.21833791683E+02  0.51100000000E-03 0. -1.
        -11    1    3    3    0    0 -0.26574270260E+01  0.10191256931E+02  0.18057529394E+02  0.20904497226E+02  0.51100000000E-03 0.  1.
         12    1    3    3    0    0  0.26134375518E+01 -0.33237399476E+01  0.27595067175E+01  0.50489781541E+01  0.00000000000E+00 0. -1.
</event>
<event>
 7    1  0.2414091E-009  0.4778727E+02  0.7816164E-02  0.1312668E+00
        -11   -1    0    0    0    0  0.00000000000E+00  0.00000000000E+00  0.45593999997E+02  0.45594000000E+02  0.51100000000E-03 0.  1.
         11   -1    0    0    0    0 -0.00000000000E+00 -0.00000000000E+00 -0.45593999997E+02  0.45594000000E+02  0.51100000000E-03 0. -1.
    9900012    2    1    2    0    0 -0.27974488838E+02  0.75680716032E+01  0.32307514819E+02  0.47787271350E+02  0.20000001394E+02 0.  0.
         12    1    1    2    0    0  0.27974488838E+02 -0.75680716032E+01 -0.32307514819E+02  0.43400728650E+02  0.00000000000E+00 0. -1.
         11    1    3    3    0    0 -0.32253578330E+00  0.82376634861E+00  0.82539340033E+01  0.83012075700E+01  0.51100000000E-03 0. -1.
        -11    1    3    3    0    0 -0.81517330051E+01 -0.36718501140E+01  0.46836746480E+01  0.10093069043E+02  0.51100000000E-03 0.  1.
        -12    1    3    3    0    0 -0.19500220049E+02  0.10416155368E+02  0.19369906168E+02  0.29392994737E+02  0.00000000000E+00 0.  1.
</event>
<event>
 7    1  0.2414091E-009  0.4778727E+02  0.7816164E-02  0.1312668E+00
        -11   -1    0    0    0    0  0.00000000000E+00  0.00000000000E+00  0.45593999997E+02  0.45594000000E+02  0.51100000000E-03 0.  1.
         11   -1    0    0    0    0 -0.00000000000E+00 -0.00000000000E+00 -0.45593999997E+02  0.45594000000E+02  0.51100000000E-03 0. -1.
    9900012    2    1    2    0    0 -0.34174628567E+02 -0.30319404690E+01  0.26580544397E+02  0.47787271422E+02  0.20000001720E+02 0.  0.
         12    1    1    2    0    0  0.34174628567E+02  0.30319404690E+01 -0.26580544397E+02  0.43400728578E+02  0.00000000000E+00 0. -1.
         11    1    3    3    0    0 -0.66622521865E+01  0.39010214509E+01  0.84632165663E+01  0.11455549200E+02  0.51100000000E-03 0. -1.
        -11    1    3    3    0    0 -0.22162107332E+02 -0.24849706491E+01  0.19026899003E+02  0.29314790917E+02  0.51100000000E-03 0.  1.
        -12    1    3    3    0    0 -0.53502690477E+01 -0.44479912708E+01 -0.90957117236E+00  0.70169313054E+01  0.00000000000E+00 0.  1.
</event>
<event>
 7    1  0.2414091E-009  0.4778727E+02  0.7816164E-02  0.1312668E+00
        -11   -1    0    0    0    0  0.00000000000E+00  0.00000000000E+00  0.45593999997E+02  0.45594000000E+02  0.51100000000E-03 0.  1.
         11   -1    0    0    0    0 -0.00000000000E+00 -0.00000000000E+00 -0.45593999997E+02  0.45594000000E+02  0.51100000000E-03 0. -1.
    9900012    2    1    2    0    0 -0.12356450682E+02  0.23721730420E+02  0.34179247390E+02  0.47787270516E+02  0.19999997592E+02 0.  0.
         12    1    1    2    0    0  0.12356450682E+02 -0.23721730420E+02 -0.34179247390E+02  0.43400729484E+02  0.00000000000E+00 0. -1.
         11    1    3    3    0    0 -0.11931244647E+02  0.13171920606E+02  0.16419284377E+02  0.24196011882E+02  0.51100000000E-03 0. -1.
        -11    1    3    3    0    0 -0.47208405672E+01  0.37429124173E+01  0.12773152753E+02  0.14122647080E+02  0.51100000000E-03 0.  1.
         12    1    3    3    0    0  0.42956345322E+01  0.68068973966E+01  0.49868102590E+01  0.94686115541E+01  0.00000000000E+00 0. -1.
</event>
<event>
 7    1  0.2414091E-009  0.4778727E+02  0.7816164E-02  0.1312668E+00
        -11   -1    0    0    0    0  0.00000000000E+00  0.00000000000E+00  0.45593999997E+02  0.45594000000E+02  0.51100000000E-03 0. -1.
         11   -1    0    0    0    0 -0.00000000000E+00 -0.00000000000E+00 -0.45593999997E+02  0.45594000000E+02  0.51100000000E-03 0.  1.
    9900012    2    1    2    0    0 -0.24147216916E+02 -0.32049294648E+01 -0.35920237345E+02  0.47787272949E+02  0.20000008683E+02 0.  0.
         12    1    1    2    0    0  0.24147216916E+02  0.32049294648E+01  0.35920237345E+02  0.43400727051E+02  0.00000000000E+00 0. -1.
         11    1    3    3    0    0  0.44530861821E+00 -0.12597447563E+01  0.64493494102E+00  0.14836434732E+01  0.51100000000E-03 0. -1.
        -11    1    3    3    0    0 -0.18415678008E+02 -0.82545941620E+00 -0.35409582321E+02  0.39920635017E+02  0.51100000000E-03 0.  1.
         12    1    3    3    0    0 -0.61768475261E+01 -0.11197252924E+01 -0.11555899646E+01  0.63829944585E+01  0.00000000000E+00 0. -1.
</event>
<event>
 7    1  0.2414091E-009  0.4778727E+02  0.7816164E-02  0.1312668E+00
        -11   -1    0    0    0    0  0.00000000000E+00  0.00000000000E+00  0.45593999997E+02  0.45594000000E+02  0.51100000000E-03 0. -1.
         11   -1    0    0    0    0 -0.00000000000E+00 -0.00000000000E+00 -0.45593999997E+02  0.45594000000E+02  0.51100000000E-03 0.  1.
    9900012    2    1    2    0    0  0.42190444475E+02 -0.57600381341E+01 -0.83911666697E+01  0.47787270485E+02  0.19999997451E+02 0.  0.
         12    1    1    2    0    0 -0.42190444475E+02  0.57600381341E+01  0.83911666697E+01  0.43400729515E+02  0.00000000000E+00 0. -1.
         11    1    3    3    0    0  0.14708477222E+02 -0.48323314847E+01 -0.43573470103E+01  0.16083444998E+02  0.51100000000E-03 0. -1.
        -11    1    3    3    0    0  0.17131791622E+02 -0.52135456650E+01 -0.82729446868E+01  0.19726149057E+02  0.51100000000E-03 0.  1.
         12    1    3    3    0    0  0.10350175631E+02  0.42858390157E+01  0.42391250274E+01  0.11977676430E+02  0.00000000000E+00 0. -1.
</event>
<event>
 7    1  0.2414091E-009  0.4778727E+02  0.7816164E-02  0.1312668E+00
        -11   -1    0    0    0    0  0.00000000000E+00  0.00000000000E+00  0.45593999997E+02  0.45594000000E+02  0.51100000000E-03 0.  1.
         11   -1    0    0    0    0 -0.00000000000E+00 -0.00000000000E+00 -0.45593999997E+02  0.45594000000E+02  0.51100000000E-03 0. -1.
    9900012    2    1    2    0    0 -0.24267145931E+01 -0.40851925554E+02  0.14451788185E+02  0.47787274811E+02  0.20000017174E+02 0.  0.
         12    1    1    2    0    0  0.24267145931E+01  0.40851925554E+02 -0.14451788185E+02  0.43400725189E+02  0.00000000000E+00 0. -1.
         11    1    3    3    0    0  0.23244494441E+01 -0.13322370531E+02  0.12304029432E+02  0.18283264542E+02  0.51100000000E-03 0. -1.
        -11    1    3    3    0    0  0.15226679260E+01 -0.11623619047E+02  0.38059309629E+01  0.12325264627E+02  0.51100000000E-03 0.  1.
        -12    1    3    3    0    0 -0.62738319632E+01 -0.15905935976E+02 -0.16581722100E+01  0.17178745642E+02  0.00000000000E+00 0.  1.
</event>
<event>
 7    1  0.2414091E-009  0.4778727E+02  0.7816164E-02  0.1312668E+00
        -11   -1    0    0    0    0  0.00000000000E+00  0.00000000000E+00  0.45593999997E+02  0.45594000000E+02  0.51100000000E-03 0. -1.
         11   -1    0    0    0    0 -0.00000000000E+00 -0.00000000000E+00 -0.45593999997E+02  0.45594000000E+02  0.51100000000E-03 0.  1.
    9900012    2    1    2    0    0 -0.20367585861E+02 -0.16859040802E+02 -0.34417396025E+02  0.47787274663E+02  0.20000016499E+02 0.  0.
         12    1    1    2    0    0  0.20367585861E+02  0.16859040802E+02  0.34417396025E+02  0.43400725337E+02  0.00000000000E+00 0. -1.
         11    1    3    3    0    0 -0.48826948962E+01 -0.14748585343E+02 -0.99013524087E+01  0.18422764691E+02  0.51100000000E-03 0. -1.
        -11    1    3    3    0    0 -0.20127484080E-01 -0.62536857911E+00 -0.10216922246E+01  0.11980593634E+01  0.51100000000E-03 0.  1.
         12    1    3    3    0    0 -0.15464763481E+02 -0.14850868804E+01 -0.23494351392E+02  0.28166450609E+02  0.00000000000E+00 0. -1.
</event>
<event>
 7    1  0.2414091E-009  0.4778726E+02  0.7816164E-02  0.1312668E+00
        -11   -1    0    0    0    0  0.00000000000E+00  0.00000000000E+00  0.45593999997E+02  0.45594000000E+02  0.51100000000E-03 0.  1.
         11   -1    0    0    0    0 -0.00000000000E+00 -0.00000000000E+00 -0.45593999997E+02  0.45594000000E+02  0.51100000000E-03 0. -1.
    9900012    2    1    2    0    0  0.16885970816E+02 -0.36881643593E+02 -0.15434783030E+02  0.47787260701E+02  0.19999952839E+02 0.  0.
         12    1    1    2    0    0 -0.16885970816E+02  0.36881643593E+02  0.15434783030E+02  0.43400739299E+02  0.00000000000E+00 0. -1.
         11    1    3    3    0    0 -0.28100532542E+01 -0.74911437591E+01  0.79072097992E-01  0.80012428265E+01  0.51100000000E-03 0. -1.
        -11    1    3    3    0    0 -0.83375621412E+00 -0.26017911410E+00  0.97677816619E-01  0.87885369259E+00  0.51100000000E-03 0.  1.
        -12    1    3    3    0    0  0.20529780284E+02 -0.29130320720E+02 -0.15611532945E+02  0.38907164182E+02  0.00000000000E+00 0.  1.
</event>
<event>
 7    1  0.2414091E-009  0.4778728E+02  0.7816164E-02  0.1312668E+00
        -11   -1    0    0    0    0  0.00000000000E+00  0.00000000000E+00  0.45593999997E+02  0.45594000000E+02  0.51100000000E-03 0.  1.
         11   -1    0    0    0    0 -0.00000000000E+00 -0.00000000000E+00 -0.45593999997E+02  0.45594000000E+02  0.51100000000E-03 0. -1.
    9900012    2    1    2    0    0 -0.42863829728E+02 -0.28602312881E+01  0.61752656313E+01  0.47787277338E+02  0.20000028696E+02 0.  0.
         12    1    1    2    0    0  0.42863829728E+02  0.28602312881E+01 -0.61752656313E+01  0.43400722662E+02  0.00000000000E+00 0. -1.
         11    1    3    3    0    0 -0.79007219717E+01  0.10117980166E+01  0.21253261408E+01  0.82439162033E+01  0.51100000000E-03 0. -1.
        -11    1    3    3    0    0 -0.36809557681E+02 -0.23318027683E+01  0.33298801136E+01  0.37033349060E+02  0.51100000000E-03 0.  1.
         12    1    3    3    0    0  0.18464499249E+01 -0.15402265364E+01  0.72005937687E+00  0.25100120746E+01  0.00000000000E+00 0. -1.
</event>
<event>
 7    1  0.2414091E-009  0.4778727E+02  0.7816164E-02  0.1312668E+00
        -11   -1    0    0    0    0  0.00000000000E+00  0.00000000000E+00  0.45593999997E+02  0.45594000000E+02  0.51100000000E-03 0.  1.
         11   -1    0    0    0    0 -0.00000000000E+00 -0.00000000000E+00 -0.45593999997E+02  0.45594000000E+02  0.51100000000E-03 0. -1.
    9900012    2    1    2    0    0 -0.55688904996E+01 -0.37013333712E+01  0.42882525867E+02  0.47787269190E+02  0.19999991543E+02 0.  0.
         12    1    1    2    0    0  0.55688904996E+01  0.37013333712E+01 -0.42882525867E+02  0.43400730810E+02  0.00000000000E+00 0. -1.
         11    1    3    3    0    0 -0.39292625968E+01 -0.34720224957E+01  0.65776179897E+01  0.84118430468E+01  0.51100000000E-03 0. -1.
        -11    1    3    3    0    0 -0.51454902350E+01 -0.61695791936E-01  0.31461578152E+01  0.60314331123E+01  0.51100000000E-03 0.  1.
        -12    1    3    3    0    0  0.35058623321E+01 -0.16761508358E+00  0.33158750062E+02  0.33343993030E+02  0.00000000000E+00 0.  1.
</event>
<event>
 7    1  0.2414091E-009  0.4778727E+02  0.7816164E-02  0.1312668E+00
        -11   -1    0    0    0    0  0.00000000000E+00  0.00000000000E+00  0.45593999997E+02  0.45594000000E+02  0.51100000000E-03 0. -1.
         11   -1    0    0    0    0 -0.00000000000E+00 -0.00000000000E+00 -0.45593999997E+02  0.45594000000E+02  0.51100000000E-03 0.  1.
    9900012    2    1    2    0    0 -0.17852488135E+01  0.37840310010E+02 -0.21178933087E+02  0.47787269803E+02  0.19999994338E+02 0.  0.
         12    1    1    2    0    0  0.17852488135E+01 -0.37840310010E+02  0.21178933087E+02  0.43400730197E+02  0.00000000000E+00 0. -1.
         11    1    3    3    0    0 -0.30103083790E+00  0.22066321899E+01  0.95605144156E+00  0.24236088395E+01  0.51100000000E-03 0. -1.
        -11    1    3    3    0    0 -0.95920300700E+00  0.36797031903E+02 -0.17881813261E+02  0.40923109278E+02  0.51100000000E-03 0.  1.
        -12    1    3    3    0    0 -0.52501496865E+00 -0.11633540824E+01 -0.42531712670E+01  0.44405516848E+01  0.00000000000E+00 0.  1.
</event>
<event>
 7    1  0.2414091E-009  0.4778727E+02  0.7816164E-02  0.1312668E+00
        -11   -1    0    0    0    0  0.00000000000E+00  0.00000000000E+00  0.45593999997E+02  0.45594000000E+02  0.51100000000E-03 0.  1.
         11   -1    0    0    0    0 -0.00000000000E+00 -0.00000000000E+00 -0.45593999997E+02  0.45594000000E+02  0.51100000000E-03 0. -1.
    9900012    2    1    2    0    0 -0.33207327796E+02 -0.26655136258E+02 -0.83905015296E+01  0.47787269313E+02  0.19999992104E+02 0.  0.
         12    1    1    2    0    0  0.33207327796E+02  0.26655136258E+02  0.83905015296E+01  0.43400730687E+02  0.00000000000E+00 0. -1.
         11    1    3    3    0    0 -0.96283226911E+01 -0.58383792882E+01 -0.10343440458E+02  0.15289801547E+02  0.51100000000E-03 0. -1.
        -11    1    3    3    0    0 -0.12339027659E+02 -0.11197543636E+02 -0.29305157560E+01  0.16918170997E+02  0.51100000000E-03 0.  1.
        -12    1    3    3    0    0 -0.11239977446E+02 -0.96192133341E+01  0.48834546848E+01  0.15579296769E+02  0.00000000000E+00 0.  1.
</event>
<event>
 7    1  0.2414091E-009  0.4778727E+02  0.7816164E-02  0.1312668E+00
        -11   -1    0    0    0    0  0.00000000000E+00  0.00000000000E+00  0.45593999997E+02  0.45594000000E+02  0.51100000000E-03 0.  1.
         11   -1    0    0    0    0 -0.00000000000E+00 -0.00000000000E+00 -0.45593999997E+02  0.45594000000E+02  0.51100000000E-03 0. -1.
    9900012    2    1    2    0    0  0.69739577767E+01  0.21760710830E+02  0.36897951270E+02  0.47787269236E+02  0.19999991756E+02 0.  0.
         12    1    1    2    0    0 -0.69739577767E+01 -0.21760710830E+02 -0.36897951270E+02  0.43400730764E+02  0.00000000000E+00 0. -1.
         11    1    3    3    0    0  0.61863254642E+01  0.38635843675E+00  0.11032633052E+02  0.12654599477E+02  0.51100000000E-03 0. -1.
        -11    1    3    3    0    0  0.22358034228E+01  0.25691046106E+00  0.46386439822E+01  0.51557577702E+01  0.51100000000E-03 0.  1.
        -12    1    3    3    0    0 -0.14481711103E+01  0.21117441932E+02  0.21226674235E+02  0.29976911989E+02  0.00000000000E+00 0.  1.
</event>
<event>
 7    1  0.2414091E-009  0.4778727E+02  0.7816164E-02  0.1312668E+00
        -11   -1    0    0    0    0  0.00000000000E+00  0.00000000000E+00  0.45593999997E+02  0.45594000000E+02  0.51100000000E-03 0. -1.
         11   -1    0    0    0    0 -0.00000000000E+00 -0.00000000000E+00 -0.45593999997E+02  0.45594000000E+02  0.51100000000E-03 0.  1.
    9900012    2    1    2    0    0 -0.19371427566E+01  0.43074077045E+02 -0.49491819799E+01  0.47787273766E+02  0.20000012409E+02 0.  0.
         12    1    1    2    0    0  0.19371427566E+01 -0.43074077045E+02  0.49491819799E+01  0.43400726234E+02  0.00000000000E+00 0. -1.
         11    1    3    3    0    0  0.10811070189E+01  0.22120695375E+00  0.66331567662E+00  0.12875219807E+01  0.51100000000E-03 0. -1.
        -11    1    3    3    0    0 -0.78968474725E+01  0.36037263206E+02 -0.94146314728E+00  0.36904347880E+02  0.51100000000E-03 0.  1.
        -12    1    3    3    0    0  0.48785976970E+01  0.68156068860E+01 -0.46710345093E+01  0.95954039051E+01  0.00000000000E+00 0.  1.
</event>
<event>
 7    1  0.2414091E-009  0.4778728E+02  0.7816164E-02  0.1312668E+00
        -11   -1    0    0    0    0  0.00000000000E+00  0.00000000000E+00  0.45593999997E+02  0.45594000000E+02  0.51100000000E-03 0. -1.
         11   -1    0    0    0    0 -0.00000000000E+00 -0.00000000000E+00 -0.45593999997E+02  0.45594000000E+02  0.51100000000E-03 0.  1.
    9900012    2    1    2    0    0 -0.31876000969E+02 -0.27597800267E+02 -0.10291000713E+02  0.47787277506E+02  0.20000029460E+02 0.  0.
         12    1    1    2    0    0  0.31876000969E+02  0.27597800267E+02  0.10291000713E+02  0.43400722494E+02  0.00000000000E+00 0. -1.
         11    1    3    3    0    0 -0.30708199742E+01 -0.47708866615E+01  0.25824004153E+01  0.62337859296E+01  0.51100000000E-03 0. -1.
        -11    1    3    3    0    0 -0.19336228174E+02 -0.13641189315E+02 -0.81070229643E+00  0.23677605546E+02  0.51100000000E-03 0.  1.
         12    1    3    3    0    0 -0.94689528205E+01 -0.91857242906E+01 -0.12062698831E+02  0.17875886030E+02  0.00000000000E+00 0. -1.
</event>
<event>
 7    1  0.2414091E-009  0.4778727E+02  0.7816164E-02  0.1312668E+00
        -11   -1    0    0    0    0  0.00000000000E+00  0.00000000000E+00  0.45593999997E+02  0.45594000000E+02  0.51100000000E-03 0.  1.
         11   -1    0    0    0    0 -0.00000000000E+00 -0.00000000000E+00 -0.45593999997E+02  0.45594000000E+02  0.51100000000E-03 0. -1.
    9900012    2    1    2    0    0 -0.25861758449E+02 -0.18038427929E+02  0.29822942595E+02  0.47787270314E+02  0.19999996672E+02 0.  0.
         12    1    1    2    0    0  0.25861758449E+02  0.18038427929E+02 -0.29822942595E+02  0.43400729686E+02  0.00000000000E+00 0. -1.
         11    1    3    3    0    0 -0.67557676637E+01 -0.45297276115E+01  0.54921131899E+01  0.98143841637E+01  0.51100000000E-03 0. -1.
        -11    1    3    3    0    0 -0.20252021418E+02 -0.15134716900E+02  0.17221763861E+02  0.30590736799E+02  0.51100000000E-03 0.  1.
         12    1    3    3    0    0  0.11460306329E+01  0.16260165826E+01  0.71090655442E+01  0.73821493517E+01  0.00000000000E+00 0. -1.
</event>
<event>
 7    1  0.2414091E-009  0.4778724E+02  0.7816164E-02  0.1312668E+00
        -11   -1    0    0    0    0  0.00000000000E+00  0.00000000000E+00  0.45593999997E+02  0.45594000000E+02  0.51100000000E-03 0. -1.
         11   -1    0    0    0    0 -0.00000000000E+00 -0.00000000000E+00 -0.45593999997E+02  0.45594000000E+02  0.51100000000E-03 0.  1.
    9900012    2    1    2    0    0 -0.20126738959E+02 -0.11824102126E+02 -0.36588671636E+02  0.47787240740E+02  0.19999861830E+02 0.  0.
         12    1    1    2    0    0  0.20126738959E+02  0.11824102126E+02  0.36588671636E+02  0.43400759260E+02  0.00000000000E+00 0. -1.
         11    1    3    3    0    0 -0.23908266393E+01  0.22540785361E+01 -0.89634745144E+01  0.95467689664E+01  0.51100000000E-03 0. -1.
        -11    1    3    3    0    0 -0.23409388950E+01 -0.17991714298E+01  0.13181751312E+01  0.32333571844E+01  0.51100000000E-03 0.  1.
        -12    1    3    3    0    0 -0.15394973425E+02 -0.12279009232E+02 -0.28943372253E+02  0.35007114589E+02  0.00000000000E+00 0.  1.
</event>
<event>
 7    1  0.2414091E-009  0.4778727E+02  0.7816164E-02  0.1312668E+00
        -11   -1    0    0    0    0  0.00000000000E+00  0.00000000000E+00  0.45593999997E+02  0.45594000000E+02  0.51100000000E-03 0.  1.
         11   -1    0    0    0    0 -0.00000000000E+00 -0.00000000000E+00 -0.45593999997E+02  0.45594000000E+02  0.51100000000E-03 0. -1.
    9900012    2    1    2    0    0  0.14390790703E+02  0.31697522201E+02  0.25919020188E+02  0.47787269842E+02  0.19999994517E+02 0.  0.
         12    1    1    2    0    0 -0.14390790703E+02 -0.31697522201E+02 -0.25919020188E+02  0.43400730158E+02  0.00000000000E+00 0. -1.
         11    1    3    3    0    0  0.30653381302E+01  0.22567501329E+01  0.52688981982E+01  0.65000390383E+01  0.51100000000E-03 0. -1.
        -11    1    3    3    0    0 -0.10507849424E+01  0.38735765967E+01 -0.24261406925E+01  0.46898724468E+01  0.51100000000E-03 0.  1.
        -12    1    3    3    0    0  0.12376237515E+02  0.25567195472E+02  0.23076262682E+02  0.36597358357E+02  0.00000000000E+00 0.  1.
</event>
<event>
 7    1  0.2414091E-009  0.4778727E+02  0.7816164E-02  0.1312668E+00
        -11   -1    0    0    0    0  0.00000000000E+00  0.00000000000E+00  0.45593999997E+02  0.45594000000E+02  0.51100000000E-03 0.  1.
         11   -1    0    0    0    0 -0.00000000000E+00 -0.00000000000E+00 -0.45593999997E+02  0.45594000000E+02  0.51100000000E-03 0. -1.
    9900012    2    1    2    0    0 -0.26659477425E+01  0.34175623956E+02  0.26618464456E+02  0.47787271894E+02  0.20000003874E+02 0.  0.
         12    1    1    2    0    0  0.26659477425E+01 -0.34175623956E+02 -0.26618464456E+02  0.43400728106E+02  0.00000000000E+00 0. -1.
         11    1    3    3    0    0 -0.47735731561E+00  0.37459415690E+01  0.94893140829E+01  0.10213081331E+02  0.51100000000E-03 0. -1.
        -11    1    3    3    0    0 -0.45130661457E+01  0.48595804664E+01  0.78426406361E+01  0.10270847129E+02  0.51100000000E-03 0.  1.
         12    1    3    3    0    0  0.23244757188E+01  0.25570101920E+02  0.92865097371E+01  0.27303343434E+02  0.00000000000E+00 0. -1.
</event>
<event>
 7    1  0.2414091E-009  0.4778727E+02  0.7816164E-02  0.1312668E+00
        -11   -1    0    0    0    0  0.00000000000E+00  0.00000000000E+00  0.45593999997E+02  0.45594000000E+02  0.51100000000E-03 0.  1.
         11   -1    0    0    0    0 -0.00000000000E+00 -0.00000000000E+00 -0.45593999997E+02  0.45594000000E+02  0.51100000000E-03 0. -1.
    9900012    2    1    2    0    0  0.12890989266E+01 -0.43340556208E+02  0.18861718582E+01  0.47787271518E+02  0.20000002159E+02 0.  0.
         12    1    1    2    0    0 -0.12890989266E+01  0.43340556208E+02 -0.18861718582E+01  0.43400728482E+02  0.00000000000E+00 0. -1.
         11    1    3    3    0    0  0.59950760156E+00  0.30008278355E+00 -0.12084986566E+00  0.68122242510E+00  0.51100000000E-03 0. -1.
        -11    1    3    3    0    0 -0.57230711069E+01 -0.30228479903E+02  0.67580540557E+01  0.31498981491E+02  0.51100000000E-03 0.  1.
        -12    1    3    3    0    0  0.64126624319E+01 -0.13412159089E+02 -0.47510323318E+01  0.15607067602E+02  0.00000000000E+00 0.  1.
</event>
<event>
 7    1  0.2414091E-009  0.4778727E+02  0.7816164E-02  0.1312668E+00
        -11   -1    0    0    0    0  0.00000000000E+00  0.00000000000E+00  0.45593999997E+02  0.45594000000E+02  0.51100000000E-03 0.  1.
         11   -1    0    0    0    0 -0.00000000000E+00 -0.00000000000E+00 -0.45593999997E+02  0.45594000000E+02  0.51100000000E-03 0. -1.
    9900012    2    1    2    0    0 -0.14073035556E+02  0.19214205048E+02  0.36282053115E+02  0.47787269780E+02  0.19999994235E+02 0.  0.
         12    1    1    2    0    0  0.14073035556E+02 -0.19214205048E+02 -0.36282053115E+02  0.43400730220E+02  0.00000000000E+00 0. -1.
         11    1    3    3    0    0 -0.13186024544E+02  0.10495497232E+02  0.18664086789E+02  0.25147064269E+02  0.51100000000E-03 0. -1.
        -11    1    3    3    0    0 -0.58392549578E+01  0.57711901034E+01  0.12364829568E+02  0.14842255360E+02  0.51100000000E-03 0.  1.
         12    1    3    3    0    0  0.49522439451E+01  0.29475177125E+01  0.52531367583E+01  0.77979501511E+01  0.00000000000E+00 0. -1.
</event>
