<event>
 7    1  0.5849044E-013  0.5052887E+02  0.7816164E-02  0.1300439E+00
        -11   -1    0    0    0    0  0.00000000000E+00  0.00000000000E+00  0.45593999997E+02  0.45594000000E+02  0.51100000000E-03 0.  1.
         11   -1    0    0    0    0 -0.00000000000E+00 -0.00000000000E+00 -0.45593999997E+02  0.45594000000E+02  0.51100000000E-03 0. -1.
    9900012    2    1    2    0    0  0.16338607119E+01  0.23751089036E+02  0.32960302189E+02  0.50528865090E+02  0.30000015927E+02 0.  0.
         12    1    1    2    0    0 -0.16338607119E+01 -0.23751089036E+02 -0.32960302189E+02  0.40659134910E+02  0.00000000000E+00 0. -1.
         11    1    3    3    0    0 -0.11764268480E+02  0.11953255373E+02  0.52752475694E+01  0.17581426679E+02  0.51100000000E-03 0. -1.
        -11    1    3    3    0    0  0.80395227700E+01  0.71155783484E+01  0.16097253069E+02  0.19349081069E+02  0.51100000000E-03 0.  1.
         12    1    3    3    0    0  0.53586064218E+01  0.46822553150E+01  0.11587801551E+02  0.13598357342E+02  0.00000000000E+00 0. -1.
</event>
<event>
 7    1  0.5849044E-013  0.5052886E+02  0.7816164E-02  0.1300439E+00
        -11   -1    0    0    0    0  0.00000000000E+00  0.00000000000E+00  0.45593999997E+02  0.45594000000E+02  0.51100000000E-03 0.  1.
         11   -1    0    0    0    0 -0.00000000000E+00 -0.00000000000E+00 -0.45593999997E+02  0.45594000000E+02  0.51100000000E-03 0. -1.
    9900012    2    1    2    0    0 -0.12661286301E+02 -0.38634312504E+02 -0.49749130509E+00  0.50528858702E+02  0.29999996511E+02 0.  0.
         12    1    1    2    0    0  0.12661286301E+02  0.38634312504E+02  0.49749130509E+00  0.40659141298E+02  0.00000000000E+00 0. -1.
         11    1    3    3    0    0 -0.73953999635E+01 -0.36854785191E+01 -0.29058721621E+00  0.82679582562E+01  0.51100000000E-03 0. -1.
        -11    1    3    3    0    0  0.81510098778E+01 -0.59251026308E+01  0.17431762243E+01  0.10226654723E+02  0.51100000000E-03 0.  1.
        -12    1    3    3    0    0 -0.13416896216E+02 -0.29023731355E+02 -0.19500803132E+01  0.32034245723E+02  0.00000000000E+00 0.  1.
</event>
<event>
 7    1  0.5849044E-013  0.5052885E+02  0.7816164E-02  0.1300439E+00
        -11   -1    0    0    0    0  0.00000000000E+00  0.00000000000E+00  0.45593999997E+02  0.45594000000E+02  0.51100000000E-03 0.  1.
         11   -1    0    0    0    0 -0.00000000000E+00 -0.00000000000E+00 -0.45593999997E+02  0.45594000000E+02  0.51100000000E-03 0. -1.
    9900012    2    1    2    0    0  0.95641727330E+01 -0.83226975240E+01  0.38631925676E+02  0.50528851269E+02  0.29999973916E+02 0.  0.
         12    1    1    2    0    0 -0.95641727330E+01  0.83226975240E+01 -0.38631925676E+02  0.40659148731E+02  0.00000000000E+00 0. -1.
         11    1    3    3    0    0  0.58139682557E+00 -0.33532601551E+01 -0.33408591999E+01  0.47690372604E+01  0.51100000000E-03 0. -1.
        -11    1    3    3    0    0  0.11179105836E+02 -0.57157825913E-01  0.17988100051E+02  0.21178938076E+02  0.51100000000E-03 0.  1.
         12    1    3    3    0    0 -0.21963299287E+01 -0.49122795430E+01  0.23984684825E+02  0.24580875932E+02  0.00000000000E+00 0. -1.
</event>
<event>
 7    1  0.5849044E-013  0.5052888E+02  0.7816164E-02  0.1300439E+00
        -11   -1    0    0    0    0  0.00000000000E+00  0.00000000000E+00  0.45593999997E+02  0.45594000000E+02  0.51100000000E-03 0.  1.
         11   -1    0    0    0    0 -0.00000000000E+00 -0.00000000000E+00 -0.45593999997E+02  0.45594000000E+02  0.51100000000E-03 0. -1.
    9900012    2    1    2    0    0 -0.38060055891E+02 -0.45385233795E+01 -0.13564598014E+02  0.50528875954E+02  0.30000048951E+02 0.  0.
         12    1    1    2    0    0  0.38060055891E+02  0.45385233795E+01  0.13564598014E+02  0.40659124046E+02  0.00000000000E+00 0. -1.
         11    1    3    3    0    0 -0.17565526660E+02 -0.26005063498E+01  0.66948743839E+01  0.18977136333E+02  0.51100000000E-03 0.  1.
        -11    1    3    3    0    0 -0.19018412132E+02 -0.20246911891E+01 -0.22076494526E+02  0.29209090798E+02  0.51100000000E-03 0. -1.
         12    1    3    3    0    0 -0.14761170988E+01  0.86674159412E-01  0.18170221275E+01  0.23426488237E+01  0.00000000000E+00 0. -1.
</event>
<event>
 7    1  0.5849044E-013  0.5052886E+02  0.7816164E-02  0.1300439E+00
        -11   -1    0    0    0    0  0.00000000000E+00  0.00000000000E+00  0.45593999997E+02  0.45594000000E+02  0.51100000000E-03 0.  1.
         11   -1    0    0    0    0 -0.00000000000E+00 -0.00000000000E+00 -0.45593999997E+02  0.45594000000E+02  0.51100000000E-03 0. -1.
    9900012    2    1    2    0    0 -0.27837674997E+02  0.29446548019E+01  0.29488280815E+02  0.50528857774E+02  0.29999993690E+02 0.  0.
         12    1    1    2    0    0  0.27837674997E+02 -0.29446548019E+01 -0.29488280815E+02  0.40659142226E+02  0.00000000000E+00 0. -1.
         11    1    3    3    0    0 -0.33069824886E+00  0.10000183698E+02  0.13142270459E+02  0.16517636284E+02  0.51100000000E-03 0.  1.
        -11    1    3    3    0    0 -0.21222231896E+02 -0.75774463209E+01  0.16109362497E+02  0.27700403963E+02  0.51100000000E-03 0. -1.
         12    1    3    3    0    0 -0.62847448521E+01  0.52191742513E+00  0.23664785865E+00  0.63108175274E+01  0.00000000000E+00 0. -1.
</event>
<event>
 7    1  0.5849044E-013  0.5052886E+02  0.7816164E-02  0.1300439E+00
        -11   -1    0    0    0    0  0.00000000000E+00  0.00000000000E+00  0.45593999997E+02  0.45594000000E+02  0.51100000000E-03 0.  1.
         11   -1    0    0    0    0 -0.00000000000E+00 -0.00000000000E+00 -0.45593999997E+02  0.45594000000E+02  0.51100000000E-03 0. -1.
    9900012    2    1    2    0    0 -0.26033161168E+02 -0.63177080644E+01  0.30586381828E+02  0.50528859959E+02  0.30000000331E+02 0.  0.
         12    1    1    2    0    0  0.26033161168E+02  0.63177080644E+01 -0.30586381828E+02  0.40659140041E+02  0.00000000000E+00 0. -1.
         11    1    3    3    0    0  0.75361297162E+00 -0.64582246120E+01  0.21163765576E+01  0.68378101498E+01  0.51100000000E-03 0. -1.
        -11    1    3    3    0    0 -0.25021015948E+02  0.70545657293E+01  0.22755798683E+02  0.34549160781E+02  0.51100000000E-03 0.  1.
        -12    1    3    3    0    0 -0.17657581907E+01 -0.69140491818E+01  0.57142065871E+01  0.91418890278E+01  0.00000000000E+00 0.  1.
</event>
<event>
 7    1  0.5849044E-013  0.5052886E+02  0.7816164E-02  0.1300439E+00
        -11   -1    0    0    0    0  0.00000000000E+00  0.00000000000E+00  0.45593999997E+02  0.45594000000E+02  0.51100000000E-03 0.  1.
         11   -1    0    0    0    0 -0.00000000000E+00 -0.00000000000E+00 -0.45593999997E+02  0.45594000000E+02  0.51100000000E-03 0. -1.
    9900012    2    1    2    0    0 -0.37006986437E+01 -0.20839345653E+02  0.34715882377E+02  0.50528856048E+02  0.29999988444E+02 0.  0.
         12    1    1    2    0    0  0.37006986437E+01  0.20839345653E+02 -0.34715882377E+02  0.40659143952E+02  0.00000000000E+00 0. -1.
         11    1    3    3    0    0  0.22841754770E+00  0.17199580453E+01  0.64138768163E+01  0.66444146717E+01  0.51100000000E-03 0. -1.
        -11    1    3    3    0    0 -0.14673778864E+01 -0.25213765347E+02  0.30538262840E+02  0.39629189474E+02  0.51100000000E-03 0.  1.
        -12    1    3    3    0    0 -0.24617383050E+01  0.26544616489E+01 -0.22362572796E+01  0.42552519019E+01  0.00000000000E+00 0.  1.
</event>
<event>
 7    1  0.5849044E-013  0.5052887E+02  0.7816164E-02  0.1300439E+00
        -11   -1    0    0    0    0  0.00000000000E+00  0.00000000000E+00  0.45593999997E+02  0.45594000000E+02  0.51100000000E-03 0.  1.
         11   -1    0    0    0    0 -0.00000000000E+00 -0.00000000000E+00 -0.45593999997E+02  0.45594000000E+02  0.51100000000E-03 0. -1.
    9900012    2    1    2    0    0 -0.32220462625E+02  0.48408975223E+01  0.24322264250E+02  0.50528867706E+02  0.30000023880E+02 0.  0.
         12    1    1    2    0    0  0.32220462625E+02 -0.48408975223E+01 -0.24322264250E+02  0.40659132294E+02  0.00000000000E+00 0. -1.
         11    1    3    3    0    0 -0.16591556830E+01  0.25078033131E+01 -0.60006914641E+01  0.67119425911E+01  0.51100000000E-03 0. -1.
        -11    1    3    3    0    0 -0.22522476142E+02  0.50064880181E+01  0.23571936724E+02  0.32984284971E+02  0.51100000000E-03 0.  1.
        -12    1    3    3    0    0 -0.80388308000E+01 -0.26733938089E+01  0.67510189900E+01  0.10832640144E+02  0.00000000000E+00 0.  1.
</event>
<event>
 7    1  0.5849044E-013  0.5052886E+02  0.7816164E-02  0.1300439E+00
        -11   -1    0    0    0    0  0.00000000000E+00  0.00000000000E+00  0.45593999997E+02  0.45594000000E+02  0.51100000000E-03 0. -1.
         11   -1    0    0    0    0 -0.00000000000E+00 -0.00000000000E+00 -0.45593999997E+02  0.45594000000E+02  0.51100000000E-03 0.  1.
    9900012    2    1    2    0    0 -0.16060223883E+01  0.80182338052E+01 -0.39828314849E+02  0.50528855334E+02  0.29999986272E+02 0.  0.
         12    1    1    2    0    0  0.16060223883E+01 -0.80182338052E+01  0.39828314849E+02  0.40659144666E+02  0.00000000000E+00 0. -1.
         11    1    3    3    0    0  0.72083942269E+01  0.11582395801E+02 -0.13429774180E+02  0.19143449913E+02  0.51100000000E-03 0. -1.
        -11    1    3    3    0    0 -0.36134909891E+01 -0.26433001180E+01 -0.25665376337E+02  0.26052944084E+02  0.51100000000E-03 0.  1.
         12    1    3    3    0    0 -0.52009256260E+01 -0.92086187751E+00 -0.73316433237E+00  0.53324613363E+01  0.00000000000E+00 0. -1.
</event>
<event>
 7    1  0.5849044E-013  0.5052887E+02  0.7816164E-02  0.1300439E+00
        -11   -1    0    0    0    0  0.00000000000E+00  0.00000000000E+00  0.45593999997E+02  0.45594000000E+02  0.51100000000E-03 0. -1.
         11   -1    0    0    0    0 -0.00000000000E+00 -0.00000000000E+00 -0.45593999997E+02  0.45594000000E+02  0.51100000000E-03 0.  1.
    9900012    2    1    2    0    0  0.14909544370E+02  0.42182276633E+00 -0.37824497970E+02  0.50528867023E+02  0.30000021804E+02 0.  0.
         12    1    1    2    0    0 -0.14909544370E+02 -0.42182276633E+00  0.37824497970E+02  0.40659132977E+02  0.00000000000E+00 0. -1.
         11    1    3    3    0    0  0.23682781330E+01  0.94159106431E+01 -0.37015463206E+01  0.10390840196E+02  0.51100000000E-03 0. -1.
        -11    1    3    3    0    0  0.13114785785E+02 -0.72205088517E+01 -0.15971598741E+02  0.21891215610E+02  0.51100000000E-03 0.  1.
        -12    1    3    3    0    0 -0.57351954754E+00 -0.17735790250E+01 -0.18151352908E+02  0.18246811217E+02  0.00000000000E+00 0.  1.
</event>
<event>
 7    1  0.5849044E-013  0.5052886E+02  0.7816164E-02  0.1300439E+00
        -11   -1    0    0    0    0  0.00000000000E+00  0.00000000000E+00  0.45593999997E+02  0.45594000000E+02  0.51100000000E-03 0.  1.
         11   -1    0    0    0    0 -0.00000000000E+00 -0.00000000000E+00 -0.45593999997E+02  0.45594000000E+02  0.51100000000E-03 0. -1.
    9900012    2    1    2    0    0  0.16863743400E+01 -0.77740865572E+01  0.39873364325E+02  0.50528862493E+02  0.30000008035E+02 0.  0.
         12    1    1    2    0    0 -0.16863743400E+01  0.77740865572E+01 -0.39873364325E+02  0.40659137507E+02  0.00000000000E+00 0. -1.
         11    1    3    3    0    0 -0.68541912575E+01  0.15064652742E+01  0.38910769097E+01  0.80243289561E+01  0.51100000000E-03 0. -1.
        -11    1    3    3    0    0  0.11514410583E+02 -0.99185729208E+01  0.15176357180E+02  0.21477466270E+02  0.51100000000E-03 0.  1.
        -12    1    3    3    0    0 -0.29738449856E+01  0.63802108941E+00  0.20805930235E+02  0.21027067268E+02  0.00000000000E+00 0.  1.
</event>
<event>
 7    1  0.5849044E-013  0.5052885E+02  0.7816164E-02  0.1300439E+00
        -11   -1    0    0    0    0  0.00000000000E+00  0.00000000000E+00  0.45593999997E+02  0.45594000000E+02  0.51100000000E-03 0.  1.
         11   -1    0    0    0    0 -0.00000000000E+00 -0.00000000000E+00 -0.45593999997E+02  0.45594000000E+02  0.51100000000E-03 0. -1.
    9900012    2    1    2    0    0  0.29693450019E+02 -0.24861315623E+02 -0.12384696964E+02  0.50528847187E+02  0.29999961510E+02 0.  0.
         12    1    1    2    0    0 -0.29693450019E+02  0.24861315623E+02  0.12384696964E+02  0.40659152813E+02  0.00000000000E+00 0. -1.
         11    1    3    3    0    0  0.10894116683E+02 -0.86890849445E+01 -0.20185018424E+01  0.14080352461E+02  0.51100000000E-03 0.  1.
        -11    1    3    3    0    0 -0.48216340821E+01 -0.75904278169E+01  0.63445216629E+00  0.90147257018E+01  0.51100000000E-03 0. -1.
        -12    1    3    3    0    0  0.23620967419E+02 -0.85818028618E+01 -0.11000647287E+02  0.27433769025E+02  0.00000000000E+00 0.  1.
</event>
<event>
 7    1  0.5849044E-013  0.5052883E+02  0.7816164E-02  0.1300439E+00
        -11   -1    0    0    0    0  0.00000000000E+00  0.00000000000E+00  0.45593999997E+02  0.45594000000E+02  0.51100000000E-03 0.  1.
         11   -1    0    0    0    0 -0.00000000000E+00 -0.00000000000E+00 -0.45593999997E+02  0.45594000000E+02  0.51100000000E-03 0. -1.
    9900012    2    1    2    0    0 -0.66612330534E+01 -0.34320517692E+02  0.20758085276E+02  0.50528830496E+02  0.29999910776E+02 0.  0.
         12    1    1    2    0    0  0.66612330534E+01  0.34320517692E+02 -0.20758085276E+02  0.40659169504E+02  0.00000000000E+00 0. -1.
         11    1    3    3    0    0  0.83106782999E+01 -0.54243051649E+01 -0.18278093814E+01  0.10091151952E+02  0.51100000000E-03 0. -1.
        -11    1    3    3    0    0 -0.44080660672E+01 -0.16198760184E+02  0.89833176345E+01  0.19040243537E+02  0.51100000000E-03 0.  1.
        -12    1    3    3    0    0 -0.10563845286E+02 -0.12697452343E+02  0.13602577023E+02  0.21397435007E+02  0.00000000000E+00 0.  1.
</event>
<event>
 7    1  0.5849044E-013  0.5052885E+02  0.7816164E-02  0.1300439E+00
        -11   -1    0    0    0    0  0.00000000000E+00  0.00000000000E+00  0.45593999997E+02  0.45594000000E+02  0.51100000000E-03 0. -1.
         11   -1    0    0    0    0 -0.00000000000E+00 -0.00000000000E+00 -0.45593999997E+02  0.45594000000E+02  0.51100000000E-03 0.  1.
    9900012    2    1    2    0    0 -0.35932073943E+02 -0.15024181550E+02  0.11675884622E+02  0.50528852802E+02  0.29999978578E+02 0.  0.
         12    1    1    2    0    0  0.35932073943E+02  0.15024181550E+02 -0.11675884622E+02  0.40659147198E+02  0.00000000000E+00 0. -1.
         11    1    3    3    0    0  0.11716024710E+01 -0.81951186336E+01 -0.22424419200E+00  0.82814797885E+01  0.51100000000E-03 0. -1.
        -11    1    3    3    0    0 -0.22594241510E+02 -0.10576163295E+02  0.10912606127E+02  0.27229395002E+02  0.51100000000E-03 0.  1.
        -12    1    3    3    0    0 -0.14509434905E+02  0.37471003788E+01  0.98752268688E+00  0.15017978012E+02  0.00000000000E+00 0.  1.
</event>
<event>
 7    1  0.5849044E-013  0.5052886E+02  0.7816164E-02  0.1300439E+00
        -11   -1    0    0    0    0  0.00000000000E+00  0.00000000000E+00  0.45593999997E+02  0.45594000000E+02  0.51100000000E-03 0.  1.
         11   -1    0    0    0    0 -0.00000000000E+00 -0.00000000000E+00 -0.45593999997E+02  0.45594000000E+02  0.51100000000E-03 0. -1.
    9900012    2    1    2    0    0  0.17828006835E+02 -0.36228687669E+02  0.47759474577E+01  0.50528864347E+02  0.30000013669E+02 0.  0.
         12    1    1    2    0    0 -0.17828006835E+02  0.36228687669E+02 -0.47759474577E+01  0.40659135653E+02  0.00000000000E+00 0. -1.
         11    1    3    3    0    0  0.55024091159E+01  0.12700585310E+01  0.76072982415E+01  0.94742040060E+01  0.51100000000E-03 0. -1.
        -11    1    3    3    0    0 -0.27613052467E+00 -0.54942496105E+01 -0.37305629219E+01  0.66468132834E+01  0.51100000000E-03 0.  1.
         12    1    3    3    0    0  0.12601728244E+02 -0.32004496589E+02  0.89921213806E+00  0.34407847058E+02  0.00000000000E+00 0. -1.
</event>
<event>
 7    1  0.5849044E-013  0.5052887E+02  0.7816164E-02  0.1300439E+00
        -11   -1    0    0    0    0  0.00000000000E+00  0.00000000000E+00  0.45593999997E+02  0.45594000000E+02  0.51100000000E-03 0.  1.
         11   -1    0    0    0    0 -0.00000000000E+00 -0.00000000000E+00 -0.45593999997E+02  0.45594000000E+02  0.51100000000E-03 0. -1.
    9900012    2    1    2    0    0 -0.29174624896E+02 -0.23971364003E+02 -0.15079121242E+02  0.50528869077E+02  0.30000028047E+02 0.  0.
         12    1    1    2    0    0  0.29174624896E+02  0.23971364003E+02  0.15079121242E+02  0.40659130923E+02  0.00000000000E+00 0. -1.
         11    1    3    3    0    0 -0.16378825442E+01 -0.23578807346E+01  0.69877813747E+01  0.75545581995E+01  0.51100000000E-03 0. -1.
        -11    1    3    3    0    0 -0.17912672659E+02 -0.20425488211E+02 -0.16733466450E+02  0.31907261088E+02  0.51100000000E-03 0.  1.
        -12    1    3    3    0    0 -0.96240696930E+01 -0.11879950570E+01 -0.53334361660E+01  0.11067049790E+02  0.00000000000E+00 0.  1.
</event>
<event>
 7    1  0.5849044E-013  0.5052885E+02  0.7816164E-02  0.1300439E+00
        -11   -1    0    0    0    0  0.00000000000E+00  0.00000000000E+00  0.45593999997E+02  0.45594000000E+02  0.51100000000E-03 0. -1.
         11   -1    0    0    0    0 -0.00000000000E+00 -0.00000000000E+00 -0.45593999997E+02  0.45594000000E+02  0.51100000000E-03 0.  1.
    9900012    2    1    2    0    0  0.34109594688E+02  0.50398422416E+01 -0.21547665659E+02  0.50528851523E+02  0.29999974688E+02 0.  0.
         12    1    1    2    0    0 -0.34109594688E+02 -0.50398422416E+01  0.21547665659E+02  0.40659148477E+02  0.00000000000E+00 0. -1.
         11    1    3    3    0    0  0.24905676564E+02  0.70750025968E+01 -0.25430871845E+02  0.36291564170E+02  0.51100000000E-03 0.  1.
        -11    1    3    3    0    0  0.50024434214E+01 -0.45849252492E+01 -0.14984754466E+01  0.69492020154E+01  0.51100000000E-03 0. -1.
         12    1    3    3    0    0  0.42014747017E+01  0.25497648939E+01  0.53816816327E+01  0.72880853370E+01  0.00000000000E+00 0. -1.
</event>
<event>
 7    1  0.5849044E-013  0.5052888E+02  0.7816164E-02  0.1300439E+00
        -11   -1    0    0    0    0  0.00000000000E+00  0.00000000000E+00  0.45593999997E+02  0.45594000000E+02  0.51100000000E-03 0.  1.
         11   -1    0    0    0    0 -0.00000000000E+00 -0.00000000000E+00 -0.45593999997E+02  0.45594000000E+02  0.51100000000E-03 0. -1.
    9900012    2    1    2    0    0 -0.14882837274E+02  0.14873052692E+02  0.34791625555E+02  0.50528883550E+02  0.30000072039E+02 0.  0.
         12    1    1    2    0    0  0.14882837274E+02 -0.14873052692E+02 -0.34791625555E+02  0.40659116450E+02  0.00000000000E+00 0. -1.
         11    1    3    3    0    0  0.37080470150E+01 -0.36920652925E+01  0.28524756082E+00  0.52404508605E+01  0.51100000000E-03 0. -1.
        -11    1    3    3    0    0 -0.68611100300E+01  0.13283174417E+02  0.11246924230E+02  0.18708577133E+02  0.51100000000E-03 0.  1.
         12    1    3    3    0    0 -0.11729774259E+02  0.52819435675E+01  0.23259453764E+02  0.26579855557E+02  0.00000000000E+00 0. -1.
</event>
<event>
 7    1  0.5849044E-013  0.5052886E+02  0.7816164E-02  0.1300439E+00
        -11   -1    0    0    0    0  0.00000000000E+00  0.00000000000E+00  0.45593999997E+02  0.45594000000E+02  0.51100000000E-03 0. -1.
         11   -1    0    0    0    0 -0.00000000000E+00 -0.00000000000E+00 -0.45593999997E+02  0.45594000000E+02  0.51100000000E-03 0.  1.
    9900012    2    1    2    0    0 -0.31571633812E+02 -0.25719581232E+01  0.25490835473E+02  0.50528859290E+02  0.29999998299E+02 0.  0.
         12    1    1    2    0    0  0.31571633812E+02  0.25719581232E+01 -0.25490835473E+02  0.40659140710E+02  0.00000000000E+00 0. -1.
         11    1    3    3    0    0 -0.12002043027E+02  0.14360938888E+01  0.20250507645E+02  0.23583775411E+02  0.51100000000E-03 0. -1.
        -11    1    3    3    0    0 -0.61838140506E+01 -0.96517060068E+01 -0.11272562217E+00  0.11463319431E+02  0.51100000000E-03 0.  1.
        -12    1    3    3    0    0 -0.13385776735E+02  0.56436539948E+01  0.53530534498E+01  0.15481764448E+02  0.00000000000E+00 0.  1.
</event>
<event>
 7    1  0.5849044E-013  0.5052885E+02  0.7816164E-02  0.1300439E+00
        -11   -1    0    0    0    0  0.00000000000E+00  0.00000000000E+00  0.45593999997E+02  0.45594000000E+02  0.51100000000E-03 0. -1.
         11   -1    0    0    0    0 -0.00000000000E+00 -0.00000000000E+00 -0.45593999997E+02  0.45594000000E+02  0.51100000000E-03 0.  1.
    9900012    2    1    2    0    0 -0.67977818290E+01 -0.39480773499E+02 -0.69444212303E+01  0.50528852196E+02  0.29999976736E+02 0.  0.
         12    1    1    2    0    0  0.67977818290E+01  0.39480773499E+02  0.69444212303E+01  0.40659147804E+02  0.00000000000E+00 0. -1.
         11    1    3    3    0    0 -0.80007586098E+01 -0.10035562031E+02  0.57103870691E+01  0.14047532323E+02  0.51100000000E-03 0. -1.
        -11    1    3    3    0    0  0.88928647120E+01 -0.19044127356E+02 -0.56177990679E+01  0.21755953120E+02  0.51100000000E-03 0.  1.
        -12    1    3    3    0    0 -0.76898879313E+01 -0.10401084112E+02 -0.70370092315E+01  0.14725366754E+02  0.00000000000E+00 0.  1.
</event>
<event>
 7    1  0.5849044E-013  0.5052878E+02  0.7816164E-02  0.1300439E+00
        -11   -1    0    0    0    0  0.00000000000E+00  0.00000000000E+00  0.45593999997E+02  0.45594000000E+02  0.51100000000E-03 0. -1.
         11   -1    0    0    0    0 -0.00000000000E+00 -0.00000000000E+00 -0.45593999997E+02  0.45594000000E+02  0.51100000000E-03 0.  1.
    9900012    2    1    2    0    0 -0.34358262829E+02 -0.44260914148E+01 -0.21285951894E+02  0.50528778932E+02  0.29999754039E+02 0.  0.
         12    1    1    2    0    0  0.34358262829E+02  0.44260914148E+01  0.21285951894E+02  0.40659221068E+02  0.00000000000E+00 0. -1.
         11    1    3    3    0    0 -0.42047142482E+01  0.58300152614E+01 -0.68705712043E+01  0.99435129000E+01  0.51100000000E-03 0. -1.
        -11    1    3    3    0    0 -0.28767348865E+02 -0.12416252080E+02 -0.18031761724E+02  0.36150630804E+02  0.51100000000E-03 0.  1.
        -12    1    3    3    0    0 -0.13861997160E+01  0.21601454034E+01  0.36163810338E+01  0.44346352272E+01  0.00000000000E+00 0.  1.
</event>
<event>
 7    1  0.5849044E-013  0.5052886E+02  0.7816164E-02  0.1300439E+00
        -11   -1    0    0    0    0  0.00000000000E+00  0.00000000000E+00  0.45593999997E+02  0.45594000000E+02  0.51100000000E-03 0.  1.
         11   -1    0    0    0    0 -0.00000000000E+00 -0.00000000000E+00 -0.45593999997E+02  0.45594000000E+02  0.51100000000E-03 0. -1.
    9900012    2    1    2    0    0  0.26873910168E+02  0.22206670754E+02  0.20924199504E+02  0.50528863283E+02  0.30000010434E+02 0.  0.
         12    1    1    2    0    0 -0.26873910168E+02 -0.22206670754E+02 -0.20924199504E+02  0.40659136717E+02  0.00000000000E+00 0. -1.
         11    1    3    3    0    0  0.23266973451E+01  0.32265389409E+01 -0.63991822714E+01  0.75348263468E+01  0.51100000000E-03 0. -1.
        -11    1    3    3    0    0  0.25510581187E+02  0.17279257888E+02  0.27086690590E+02  0.41025008386E+02  0.51100000000E-03 0.  1.
        -12    1    3    3    0    0 -0.96336836377E+00  0.17008739250E+01  0.23669118541E+00  0.19690285499E+01  0.00000000000E+00 0.  1.
</event>
<event>
 7    1  0.5849044E-013  0.5052887E+02  0.7816164E-02  0.1300439E+00
        -11   -1    0    0    0    0  0.00000000000E+00  0.00000000000E+00  0.45593999997E+02  0.45594000000E+02  0.51100000000E-03 0. -1.
         11   -1    0    0    0    0 -0.00000000000E+00 -0.00000000000E+00 -0.45593999997E+02  0.45594000000E+02  0.51100000000E-03 0.  1.
    9900012    2    1    2    0    0  0.39066041969E+02 -0.83843873024E+01  0.75307094619E+01  0.50528866087E+02  0.30000018957E+02 0.  0.
         12    1    1    2    0    0 -0.39066041969E+02  0.83843873024E+01 -0.75307094619E+01  0.40659133913E+02  0.00000000000E+00 0. -1.
         11    1    3    3    0    0  0.31098495590E+02 -0.12794881071E+02  0.13707499805E+02  0.36314197785E+02  0.51100000000E-03 0.  1.
        -11    1    3    3    0    0  0.74643663128E+01  0.10704098074E+01 -0.74544159869E+01  0.10603341906E+02  0.51100000000E-03 0. -1.
         12    1    3    3    0    0  0.50318006627E+00  0.33400839616E+01  0.12776256435E+01  0.36113263954E+01  0.00000000000E+00 0. -1.
</event>
<event>
 7    1  0.5849044E-013  0.5052897E+02  0.7816164E-02  0.1300438E+00
        -11   -1    0    0    0    0  0.00000000000E+00  0.00000000000E+00  0.45593999997E+02  0.45594000000E+02  0.51100000000E-03 0.  1.
         11   -1    0    0    0    0 -0.00000000000E+00 -0.00000000000E+00 -0.45593999997E+02  0.45594000000E+02  0.51100000000E-03 0. -1.
    9900012    2    1    2    0    0  0.23366448816E+02 -0.33247563489E+02 -0.13285537468E+01  0.50528973164E+02  0.30000344427E+02 0.  0.
         12    1    1    2    0    0 -0.23366448816E+02  0.33247563489E+02  0.13285537468E+01  0.40659026836E+02  0.00000000000E+00 0. -1.
         11    1    3    3    0    0  0.10149877058E+02 -0.16264833311E+01 -0.43798930025E+01  0.11173581131E+02  0.51100000000E-03 0. -1.
        -11    1    3    3    0    0  0.11758547701E+02 -0.29571582540E+02  0.88529252226E+01  0.33032048426E+02  0.51100000000E-03 0.  1.
        -12    1    3    3    0    0  0.14580240572E+01 -0.20494976175E+01 -0.58015859670E+01  0.63233436067E+01  0.00000000000E+00 0.  1.
</event>
<event>
 7    1  0.5849044E-013  0.5052886E+02  0.7816164E-02  0.1300439E+00
        -11   -1    0    0    0    0  0.00000000000E+00  0.00000000000E+00  0.45593999997E+02  0.45594000000E+02  0.51100000000E-03 0.  1.
         11   -1    0    0    0    0 -0.00000000000E+00 -0.00000000000E+00 -0.45593999997E+02  0.45594000000E+02  0.51100000000E-03 0. -1.
    9900012    2    1    2    0    0  0.31272710955E+02 -0.25962332737E+02 -0.10679359146E+01  0.50528860084E+02  0.30000000710E+02 0.  0.
         12    1    1    2    0    0 -0.31272710955E+02  0.25962332737E+02  0.10679359146E+01  0.40659139916E+02  0.00000000000E+00 0. -1.
         11    1    3    3    0    0  0.77538738616E+01 -0.18003320815E+02 -0.89335728677E+01  0.21541839398E+02  0.51100000000E-03 0. -1.
        -11    1    3    3    0    0  0.22271956253E+01  0.49301856098E+00  0.55037020897E+01  0.59577012856E+01  0.51100000000E-03 0.  1.
        -12    1    3    3    0    0  0.21291641469E+02 -0.84520304826E+01  0.23619348634E+01  0.23029319399E+02  0.00000000000E+00 0.  1.
</event>
<event>
 7    1  0.5849044E-013  0.5052887E+02  0.7816164E-02  0.1300439E+00
        -11   -1    0    0    0    0  0.00000000000E+00  0.00000000000E+00  0.45593999997E+02  0.45594000000E+02  0.51100000000E-03 0. -1.
         11   -1    0    0    0    0 -0.00000000000E+00 -0.00000000000E+00 -0.45593999997E+02  0.45594000000E+02  0.51100000000E-03 0.  1.
    9900012    2    1    2    0    0 -0.79467250642E+01 -0.31604778355E+02 -0.24313632923E+02  0.50528865724E+02  0.30000017855E+02 0.  0.
         12    1    1    2    0    0  0.79467250642E+01  0.31604778355E+02  0.24313632923E+02  0.40659134276E+02  0.00000000000E+00 0. -1.
         11    1    3    3    0    0 -0.63777529373E+01 -0.42106893656E+01 -0.13045234522E+01  0.77528974688E+01  0.51100000000E-03 0. -1.
        -11    1    3    3    0    0  0.38978153250E+01 -0.16672581767E+02 -0.25276129603E+02  0.30529504992E+02  0.51100000000E-03 0.  1.
        -12    1    3    3    0    0 -0.54667874520E+01 -0.10721507223E+02  0.22670201325E+01  0.12246463263E+02  0.00000000000E+00 0.  1.
</event>
<event>
 7    1  0.5849044E-013  0.5052885E+02  0.7816164E-02  0.1300439E+00
        -11   -1    0    0    0    0  0.00000000000E+00  0.00000000000E+00  0.45593999997E+02  0.45594000000E+02  0.51100000000E-03 0. -1.
         11   -1    0    0    0    0 -0.00000000000E+00 -0.00000000000E+00 -0.45593999997E+02  0.45594000000E+02  0.51100000000E-03 0.  1.
    9900012    2    1    2    0    0  0.18017548259E+02 -0.34974775661E+02 -0.10261556298E+02  0.50528849548E+02  0.29999968686E+02 0.  0.
         12    1    1    2    0    0 -0.18017548259E+02  0.34974775661E+02  0.10261556298E+02  0.40659150452E+02  0.00000000000E+00 0. -1.
         11    1    3    3    0    0 -0.17933297160E+01 -0.16971188981E+02  0.25335326673E+01  0.17252712104E+02  0.51100000000E-03 0. -1.
        -11    1    3    3    0    0  0.11554207490E+02 -0.89833793406E+01 -0.14879724666E+02  0.20871200768E+02  0.51100000000E-03 0.  1.
        -12    1    3    3    0    0  0.82566704847E+01 -0.90202073399E+01  0.20846356997E+01  0.12404936677E+02  0.00000000000E+00 0.  1.
</event>
<event>
 7    1  0.5849044E-013  0.5052886E+02  0.7816164E-02  0.1300439E+00
        -11   -1    0    0    0    0  0.00000000000E+00  0.00000000000E+00  0.45593999997E+02  0.45594000000E+02  0.51100000000E-03 0.  1.
         11   -1    0    0    0    0 -0.00000000000E+00 -0.00000000000E+00 -0.45593999997E+02  0.45594000000E+02  0.51100000000E-03 0. -1.
    9900012    2    1    2    0    0  0.34667631081E+02  0.19439746925E+02  0.85684087768E+01  0.50528855466E+02  0.29999986675E+02 0.  0.
         12    1    1    2    0    0 -0.34667631081E+02 -0.19439746925E+02 -0.85684087768E+01  0.40659144534E+02  0.00000000000E+00 0. -1.
         11    1    3    3    0    0  0.93251510631E+01 -0.41189888717E+00 -0.15141778391E+01  0.94562591881E+01  0.51100000000E-03 0. -1.
        -11    1    3    3    0    0 -0.19617106943E+01  0.10063197396E+02  0.57209503329E+01  0.11740763333E+02  0.51100000000E-03 0.  1.
        -12    1    3    3    0    0  0.27304190712E+02  0.97884484156E+01  0.43616362829E+01  0.29331832945E+02  0.00000000000E+00 0.  1.
</event>
<event>
 7    1  0.5849044E-013  0.5052886E+02  0.7816164E-02  0.1300439E+00
        -11   -1    0    0    0    0  0.00000000000E+00  0.00000000000E+00  0.45593999997E+02  0.45594000000E+02  0.51100000000E-03 0.  1.
         11   -1    0    0    0    0 -0.00000000000E+00 -0.00000000000E+00 -0.45593999997E+02  0.45594000000E+02  0.51100000000E-03 0. -1.
    9900012    2    1    2    0    0  0.12106277915E+02  0.24078408811E+02  0.30443942436E+02  0.50528863673E+02  0.30000011621E+02 0.  0.
         12    1    1    2    0    0 -0.12106277915E+02 -0.24078408811E+02 -0.30443942436E+02  0.40659136327E+02  0.00000000000E+00 0. -1.
         11    1    3    3    0    0  0.27539553360E+01  0.10136632274E+02 -0.32526803298E+01  0.10996159031E+02  0.51100000000E-03 0. -1.
        -11    1    3    3    0    0  0.83697994525E+01  0.88196000440E+01  0.31693350991E+02  0.33945653405E+02  0.51100000000E-03 0.  1.
        -12    1    3    3    0    0  0.98252312659E+00  0.51221764926E+01  0.20032717747E+01  0.55870512365E+01  0.00000000000E+00 0.  1.
</event>
<event>
 7    1  0.5849044E-013  0.5052886E+02  0.7816164E-02  0.1300439E+00
        -11   -1    0    0    0    0  0.00000000000E+00  0.00000000000E+00  0.45593999997E+02  0.45594000000E+02  0.51100000000E-03 0. -1.
         11   -1    0    0    0    0 -0.00000000000E+00 -0.00000000000E+00 -0.45593999997E+02  0.45594000000E+02  0.51100000000E-03 0.  1.
    9900012    2    1    2    0    0  0.16690693282E+02  0.47095305987E+00 -0.37072422708E+02  0.50528861243E+02  0.30000004234E+02 0.  0.
         12    1    1    2    0    0 -0.16690693282E+02 -0.47095305987E+00  0.37072422708E+02  0.40659138757E+02  0.00000000000E+00 0. -1.
         11    1    3    3    0    0 -0.63492807377E+01 -0.44322012409E+01 -0.11666421994E+02  0.14002256108E+02  0.51100000000E-03 0. -1.
        -11    1    3    3    0    0  0.19823421507E+02 -0.51933267988E+00 -0.20645657063E+02  0.28626576856E+02  0.51100000000E-03 0.  1.
         12    1    3    3    0    0  0.32165525129E+01  0.54224869807E+01 -0.47603436513E+01  0.79000282785E+01  0.00000000000E+00 0. -1.
</event>
<event>
 7    1  0.5849044E-013  0.5052886E+02  0.7816164E-02  0.1300439E+00
        -11   -1    0    0    0    0  0.00000000000E+00  0.00000000000E+00  0.45593999997E+02  0.45594000000E+02  0.51100000000E-03 0.  1.
         11   -1    0    0    0    0 -0.00000000000E+00 -0.00000000000E+00 -0.45593999997E+02  0.45594000000E+02  0.51100000000E-03 0. -1.
    9900012    2    1    2    0    0  0.41910025966E+01  0.10894061134E+02  0.38947665214E+02  0.50528859621E+02  0.29999999303E+02 0.  0.
         12    1    1    2    0    0 -0.41910025966E+01 -0.10894061134E+02 -0.38947665214E+02  0.40659140379E+02  0.00000000000E+00 0. -1.
         11    1    3    3    0    0  0.79544361525E+01 -0.26407533946E+01  0.11043700809E+01  0.84537723255E+01  0.51100000000E-03 0. -1.
        -11    1    3    3    0    0 -0.74620818150E+01  0.12400343748E+02  0.31056731382E+02  0.34263271217E+02  0.51100000000E-03 0.  1.
        -12    1    3    3    0    0  0.36986482590E+01  0.11344707806E+01  0.67865637506E+01  0.78118160780E+01  0.00000000000E+00 0.  1.
</event>
<event>
 7    1  0.5849044E-013  0.5052886E+02  0.7816164E-02  0.1300439E+00
        -11   -1    0    0    0    0  0.00000000000E+00  0.00000000000E+00  0.45593999997E+02  0.45594000000E+02  0.51100000000E-03 0.  1.
         11   -1    0    0    0    0 -0.00000000000E+00 -0.00000000000E+00 -0.45593999997E+02  0.45594000000E+02  0.51100000000E-03 0. -1.
    9900012    2    1    2    0    0 -0.17478401873E+02  0.88517075117E+01  0.35627499304E+02  0.50528856322E+02  0.29999989278E+02 0.  0.
         12    1    1    2    0    0  0.17478401873E+02 -0.88517075117E+01 -0.35627499304E+02  0.40659143678E+02  0.00000000000E+00 0. -1.
         11    1    3    3    0    0 -0.13127334146E+02  0.42886953366E+01  0.45569743333E+01  0.14542552211E+02  0.51100000000E-03 0. -1.
        -11    1    3    3    0    0  0.29305207370E+00  0.50743543350E+01  0.30895532059E+02  0.31310842418E+02  0.51100000000E-03 0.  1.
        -12    1    3    3    0    0 -0.46441198012E+01 -0.51134215983E+00  0.17499291198E+00  0.46754616939E+01  0.00000000000E+00 0.  1.
</event>
<event>
 7    1  0.5849044E-013  0.5052886E+02  0.7816164E-02  0.1300439E+00
        -11   -1    0    0    0    0  0.00000000000E+00  0.00000000000E+00  0.45593999997E+02  0.45594000000E+02  0.51100000000E-03 0.  1.
         11   -1    0    0    0    0 -0.00000000000E+00 -0.00000000000E+00 -0.45593999997E+02  0.45594000000E+02  0.51100000000E-03 0. -1.
    9900012    2    1    2    0    0  0.57429016875E+01 -0.15702014533E+02  0.37062537736E+02  0.50528857318E+02  0.29999992305E+02 0.  0.
         12    1    1    2    0    0 -0.57429016875E+01  0.15702014533E+02 -0.37062537736E+02  0.40659142682E+02  0.00000000000E+00 0. -1.
         11    1    3    3    0    0 -0.78676266205E+01 -0.39021129184E+01  0.14058162562E+02  0.16575824828E+02  0.51100000000E-03 0. -1.
        -11    1    3    3    0    0  0.11410483421E+02 -0.10540730471E+01  0.42407973155E+01  0.12218615471E+02  0.51100000000E-03 0.  1.
        -12    1    3    3    0    0  0.22000448870E+01 -0.10745828568E+02  0.18763577858E+02  0.21734417019E+02  0.00000000000E+00 0.  1.
</event>
<event>
 7    1  0.5849044E-013  0.5052885E+02  0.7816164E-02  0.1300439E+00
        -11   -1    0    0    0    0  0.00000000000E+00  0.00000000000E+00  0.45593999997E+02  0.45594000000E+02  0.51100000000E-03 0.  1.
         11   -1    0    0    0    0 -0.00000000000E+00 -0.00000000000E+00 -0.45593999997E+02  0.45594000000E+02  0.51100000000E-03 0. -1.
    9900012    2    1    2    0    0 -0.21298313837E+02  0.11858680161E+01  0.34614183609E+02  0.50528853893E+02  0.29999981894E+02 0.  0.
         12    1    1    2    0    0  0.21298313837E+02 -0.11858680161E+01 -0.34614183609E+02  0.40659146107E+02  0.00000000000E+00 0. -1.
         11    1    3    3    0    0 -0.20620866487E+02 -0.55460454824E+01  0.17880953654E+02  0.27851521664E+02  0.51100000000E-03 0.  1.
        -11    1    3    3    0    0 -0.65534814321E+00  0.10905959036E+02  0.10344389903E+02  0.15045790987E+02  0.51100000000E-03 0. -1.
        -12    1    3    3    0    0 -0.22099206431E-01 -0.41740455380E+01  0.63888400512E+01  0.76315412420E+01  0.00000000000E+00 0.  1.
</event>
<event>
 7    1  0.5849044E-013  0.5052885E+02  0.7816164E-02  0.1300439E+00
        -11   -1    0    0    0    0  0.00000000000E+00  0.00000000000E+00  0.45593999997E+02  0.45594000000E+02  0.51100000000E-03 0.  1.
         11   -1    0    0    0    0 -0.00000000000E+00 -0.00000000000E+00 -0.45593999997E+02  0.45594000000E+02  0.51100000000E-03 0. -1.
    9900012    2    1    2    0    0  0.27104001024E+02  0.24908288568E+02  0.17266054370E+02  0.50528851651E+02  0.29999975080E+02 0.  0.
         12    1    1    2    0    0 -0.27104001024E+02 -0.24908288568E+02 -0.17266054370E+02  0.40659148349E+02  0.00000000000E+00 0. -1.
         11    1    3    3    0    0  0.38396353926E+00  0.41213562944E+01 -0.42248198163E+01  0.59145674775E+01  0.51100000000E-03 0. -1.
        -11    1    3    3    0    0  0.85761136715E+01  0.57735845845E+00  0.14021705669E+02  0.16446619672E+02  0.51100000000E-03 0.  1.
        -12    1    3    3    0    0  0.18143923813E+02  0.20209573816E+02  0.74691685170E+01  0.28167664502E+02  0.00000000000E+00 0.  1.
</event>
<event>
 7    1  0.5849044E-013  0.5052886E+02  0.7816164E-02  0.1300439E+00
        -11   -1    0    0    0    0  0.00000000000E+00  0.00000000000E+00  0.45593999997E+02  0.45594000000E+02  0.51100000000E-03 0. -1.
         11   -1    0    0    0    0 -0.00000000000E+00 -0.00000000000E+00 -0.45593999997E+02  0.45594000000E+02  0.51100000000E-03 0.  1.
    9900012    2    1    2    0    0  0.49662031076E+00 -0.21881641352E+02 -0.34265327108E+02  0.50528862014E+02  0.30000006577E+02 0.  0.
         12    1    1    2    0    0 -0.49662031076E+00  0.21881641352E+02  0.34265327108E+02  0.40659137986E+02  0.00000000000E+00 0. -1.
         11    1    3    3    0    0  0.72767643737E+01 -0.45509906644E+01 -0.20404175914E+02  0.22135790267E+02  0.51100000000E-03 0. -1.
        -11    1    3    3    0    0 -0.91509489774E+01 -0.58211892099E+01 -0.87710641444E+00  0.10880966268E+02  0.51100000000E-03 0.  1.
        -12    1    3    3    0    0  0.23708049145E+01 -0.11509461477E+02 -0.12984044779E+02  0.17512105478E+02  0.00000000000E+00 0.  1.
</event>
<event>
 7    1  0.5849044E-013  0.5052887E+02  0.7816164E-02  0.1300439E+00
        -11   -1    0    0    0    0  0.00000000000E+00  0.00000000000E+00  0.45593999997E+02  0.45594000000E+02  0.51100000000E-03 0. -1.
         11   -1    0    0    0    0 -0.00000000000E+00 -0.00000000000E+00 -0.45593999997E+02  0.45594000000E+02  0.51100000000E-03 0.  1.
    9900012    2    1    2    0    0 -0.12974233917E+02  0.32202954726E+02 -0.21161371722E+02  0.50528871972E+02  0.30000036846E+02 0.  0.
         12    1    1    2    0    0  0.12974233917E+02 -0.32202954726E+02  0.21161371722E+02  0.40659128028E+02  0.00000000000E+00 0. -1.
         11    1    3    3    0    0  0.26790076153E+01  0.25703478980E+02 -0.59108207857E+01  0.26510068203E+02  0.51100000000E-03 0. -1.
        -11    1    3    3    0    0 -0.11532103024E+02  0.41347255348E+01 -0.60490347046E+01  0.13662949042E+02  0.51100000000E-03 0.  1.
         12    1    3    3    0    0 -0.41211385078E+01  0.23647502112E+01 -0.92015162321E+01  0.10355854727E+02  0.00000000000E+00 0. -1.
</event>
<event>
 7    1  0.5849044E-013  0.5052886E+02  0.7816164E-02  0.1300439E+00
        -11   -1    0    0    0    0  0.00000000000E+00  0.00000000000E+00  0.45593999997E+02  0.45594000000E+02  0.51100000000E-03 0.  1.
         11   -1    0    0    0    0 -0.00000000000E+00 -0.00000000000E+00 -0.45593999997E+02  0.45594000000E+02  0.51100000000E-03 0. -1.
    9900012    2    1    2    0    0  0.26100083344E+02 -0.10444236994E+01  0.31158636710E+02  0.50528858186E+02  0.29999994942E+02 0.  0.
         12    1    1    2    0    0 -0.26100083344E+02  0.10444236994E+01 -0.31158636710E+02  0.40659141814E+02  0.00000000000E+00 0. -1.
         11    1    3    3    0    0  0.21849228192E+02 -0.35764066441E+01  0.31990141458E+02  0.38904352043E+02  0.51100000000E-03 0.  1.
        -11    1    3    3    0    0  0.20261661857E+01 -0.28191726789E+01 -0.37715713422E+01  0.51261910476E+01  0.51100000000E-03 0. -1.
        -12    1    3    3    0    0  0.22246889662E+01  0.53511556237E+01  0.29400665934E+01  0.64983150954E+01  0.00000000000E+00 0.  1.
</event>
<event>
 7    1  0.5849044E-013  0.5052886E+02  0.7816164E-02  0.1300439E+00
        -11   -1    0    0    0    0  0.00000000000E+00  0.00000000000E+00  0.45593999997E+02  0.45594000000E+02  0.51100000000E-03 0. -1.
         11   -1    0    0    0    0 -0.00000000000E+00 -0.00000000000E+00 -0.45593999997E+02  0.45594000000E+02  0.51100000000E-03 0.  1.
    9900012    2    1    2    0    0 -0.71718690192E+01  0.31122673948E+02 -0.25161665942E+02  0.50528856233E+02  0.29999989005E+02 0.  0.
         12    1    1    2    0    0  0.71718690192E+01 -0.31122673948E+02  0.25161665942E+02  0.40659143767E+02  0.00000000000E+00 0. -1.
         11    1    3    3    0    0  0.15237827203E+01  0.13681432914E+02  0.37470866865E+01  0.14266891016E+02  0.51100000000E-03 0. -1.
        -11    1    3    3    0    0  0.17154343132E+00  0.10767029930E+02 -0.15090126475E+02  0.18538346150E+02  0.51100000000E-03 0.  1.
         12    1    3    3    0    0 -0.88671951709E+01  0.66742111036E+01 -0.13818626154E+02  0.17723619067E+02  0.00000000000E+00 0. -1.
</event>
<event>
 7    1  0.5849044E-013  0.5052886E+02  0.7816164E-02  0.1300439E+00
        -11   -1    0    0    0    0  0.00000000000E+00  0.00000000000E+00  0.45593999997E+02  0.45594000000E+02  0.51100000000E-03 0.  1.
         11   -1    0    0    0    0 -0.00000000000E+00 -0.00000000000E+00 -0.45593999997E+02  0.45594000000E+02  0.51100000000E-03 0. -1.
    9900012    2    1    2    0    0  0.19978495152E+02 -0.28770259321E+02  0.20646975119E+02  0.50528859927E+02  0.30000000235E+02 0.  0.
         12    1    1    2    0    0 -0.19978495152E+02  0.28770259321E+02 -0.20646975119E+02  0.40659140073E+02  0.00000000000E+00 0. -1.
         11    1    3    3    0    0  0.21893600951E+02 -0.15635159981E+02  0.40530097073E+01  0.27206890271E+02  0.51100000000E-03 0. -1.
        -11    1    3    3    0    0 -0.41940936051E+00 -0.13300602598E+02  0.10236740104E+02  0.16789067333E+02  0.51100000000E-03 0.  1.
        -12    1    3    3    0    0 -0.14956964391E+01  0.16550325900E+00  0.63572253073E+01  0.65329023239E+01  0.00000000000E+00 0.  1.
</event>
<event>
 7    1  0.5849044E-013  0.5052886E+02  0.7816164E-02  0.1300439E+00
        -11   -1    0    0    0    0  0.00000000000E+00  0.00000000000E+00  0.45593999997E+02  0.45594000000E+02  0.51100000000E-03 0.  1.
         11   -1    0    0    0    0 -0.00000000000E+00 -0.00000000000E+00 -0.45593999997E+02  0.45594000000E+02  0.51100000000E-03 0. -1.
    9900012    2    1    2    0    0 -0.67686342139E+01 -0.31436425979E+02  0.24881764445E+02  0.50528862167E+02  0.30000007042E+02 0.  0.
         12    1    1    2    0    0  0.67686342139E+01  0.31436425979E+02 -0.24881764445E+02  0.40659137833E+02  0.00000000000E+00 0. -1.
         11    1    3    3    0    0 -0.13011379668E+02 -0.12498370380E+02  0.19827669475E+01  0.18150389198E+02  0.51100000000E-03 0. -1.
        -11    1    3    3    0    0  0.50930344882E+01 -0.12020141269E+02  0.21611653054E+02  0.25248491924E+02  0.51100000000E-03 0.  1.
        -12    1    3    3    0    0  0.11497109661E+01 -0.69179143297E+01  0.12873444434E+01  0.71299810444E+01  0.00000000000E+00 0.  1.
</event>
<event>
 7    1  0.5849044E-013  0.5052886E+02  0.7816164E-02  0.1300439E+00
        -11   -1    0    0    0    0  0.00000000000E+00  0.00000000000E+00  0.45593999997E+02  0.45594000000E+02  0.51100000000E-03 0. -1.
         11   -1    0    0    0    0 -0.00000000000E+00 -0.00000000000E+00 -0.45593999997E+02  0.45594000000E+02  0.51100000000E-03 0.  1.
    9900012    2    1    2    0    0 -0.14417614485E+02  0.12968689046E+02 -0.35736694731E+02  0.50528857691E+02  0.29999993437E+02 0.  0.
         12    1    1    2    0    0  0.14417614485E+02 -0.12968689046E+02  0.35736694731E+02  0.40659142309E+02  0.00000000000E+00 0. -1.
         11    1    3    3    0    0 -0.28289140590E+01 -0.56707301347E+01 -0.49169057439E+01  0.80209661120E+01  0.51100000000E-03 0. -1.
        -11    1    3    3    0    0  0.74860738540E+00  0.96919499428E+01 -0.23839297477E+02  0.25745026922E+02  0.51100000000E-03 0.  1.
        -12    1    3    3    0    0 -0.12337307812E+02  0.89474692374E+01 -0.69804915100E+01  0.16762864657E+02  0.00000000000E+00 0.  1.
</event>
<event>
 7    1  0.5849044E-013  0.5052886E+02  0.7816164E-02  0.1300439E+00
        -11   -1    0    0    0    0  0.00000000000E+00  0.00000000000E+00  0.45593999997E+02  0.45594000000E+02  0.51100000000E-03 0. -1.
         11   -1    0    0    0    0 -0.00000000000E+00 -0.00000000000E+00 -0.45593999997E+02  0.45594000000E+02  0.51100000000E-03 0.  1.
    9900012    2    1    2    0    0 -0.96161975474E+01  0.39289516094E+02 -0.41265890632E+01  0.50528855057E+02  0.29999985433E+02 0.  0.
         12    1    1    2    0    0  0.96161975474E+01 -0.39289516094E+02  0.41265890632E+01  0.40659144943E+02  0.00000000000E+00 0. -1.
         11    1    3    3    0    0 -0.90989816520E+01  0.13293394146E+02  0.52964800439E+01  0.16957549828E+02  0.51100000000E-03 0. -1.
        -11    1    3    3    0    0 -0.23495976252E+01  0.27902974491E+02 -0.11436865358E+02  0.30247288869E+02  0.51100000000E-03 0.  1.
        -12    1    3    3    0    0  0.18323817298E+01 -0.19068525436E+01  0.20137962510E+01  0.33240163609E+01  0.00000000000E+00 0.  1.
</event>
<event>
 7    1  0.5849044E-013  0.5052885E+02  0.7816164E-02  0.1300439E+00
        -11   -1    0    0    0    0  0.00000000000E+00  0.00000000000E+00  0.45593999997E+02  0.45594000000E+02  0.51100000000E-03 0.  1.
         11   -1    0    0    0    0 -0.00000000000E+00 -0.00000000000E+00 -0.45593999997E+02  0.45594000000E+02  0.51100000000E-03 0. -1.
    9900012    2    1    2    0    0 -0.39461905966E+02  0.61434180981E+01  0.76277834971E+01  0.50528847408E+02  0.29999962182E+02 0.  0.
         12    1    1    2    0    0  0.39461905966E+02 -0.61434180981E+01 -0.76277834971E+01  0.40659152592E+02  0.00000000000E+00 0. -1.
         11    1    3    3    0    0 -0.24244673106E+02 -0.52164856631E+01  0.41502930544E+01  0.25144399563E+02  0.51100000000E-03 0. -1.
        -11    1    3    3    0    0 -0.56171711303E+01  0.93278875157E+01  0.89980202505E+01  0.14125383736E+02  0.51100000000E-03 0.  1.
         12    1    3    3    0    0 -0.96000617301E+01  0.20320162454E+01 -0.55205298078E+01  0.11259064109E+02  0.00000000000E+00 0. -1.
</event>
<event>
 7    1  0.5849044E-013  0.5052884E+02  0.7816164E-02  0.1300439E+00
        -11   -1    0    0    0    0  0.00000000000E+00  0.00000000000E+00  0.45593999997E+02  0.45594000000E+02  0.51100000000E-03 0. -1.
         11   -1    0    0    0    0 -0.00000000000E+00 -0.00000000000E+00 -0.45593999997E+02  0.45594000000E+02  0.51100000000E-03 0.  1.
    9900012    2    1    2    0    0  0.20849130056E+02  0.30958740737E+02 -0.16125670664E+02  0.50528842281E+02  0.29999946596E+02 0.  0.
         12    1    1    2    0    0 -0.20849130056E+02 -0.30958740737E+02  0.16125670664E+02  0.40659157719E+02  0.00000000000E+00 0. -1.
         11    1    3    3    0    0  0.97017718734E+01  0.16188615013E+02 -0.24056135230E+01  0.19025840591E+02  0.51100000000E-03 0. -1.
        -11    1    3    3    0    0 -0.39126595961E+01  0.39117873488E+01 -0.11554495399E+02  0.12810829386E+02  0.51100000000E-03 0.  1.
        -12    1    3    3    0    0  0.15060017779E+02  0.10858338375E+02 -0.21655617425E+01  0.18692172304E+02  0.00000000000E+00 0.  1.
</event>
<event>
 7    1  0.5849044E-013  0.5052886E+02  0.7816164E-02  0.1300439E+00
        -11   -1    0    0    0    0  0.00000000000E+00  0.00000000000E+00  0.45593999997E+02  0.45594000000E+02  0.51100000000E-03 0.  1.
         11   -1    0    0    0    0 -0.00000000000E+00 -0.00000000000E+00 -0.45593999997E+02  0.45594000000E+02  0.51100000000E-03 0. -1.
    9900012    2    1    2    0    0  0.25701086350E+02  0.29941090146E+02  0.98056486925E+01  0.50528862467E+02  0.30000007954E+02 0.  0.
         12    1    1    2    0    0 -0.25701086350E+02 -0.29941090146E+02 -0.98056486925E+01  0.40659137533E+02  0.00000000000E+00 0. -1.
         11    1    3    3    0    0  0.12373093972E+02  0.10442901543E+00  0.76114137379E+01  0.14527146286E+02  0.51100000000E-03 0. -1.
        -11    1    3    3    0    0  0.95333735824E+01  0.16095683307E+02  0.83351021913E+01  0.20479994184E+02  0.51100000000E-03 0.  1.
         12    1    3    3    0    0  0.37946187956E+01  0.13740977823E+02 -0.61408672367E+01  0.15521721997E+02  0.00000000000E+00 0. -1.
</event>
<event>
 7    1  0.5849044E-013  0.5052886E+02  0.7816164E-02  0.1300439E+00
        -11   -1    0    0    0    0  0.00000000000E+00  0.00000000000E+00  0.45593999997E+02  0.45594000000E+02  0.51100000000E-03 0.  1.
         11   -1    0    0    0    0 -0.00000000000E+00 -0.00000000000E+00 -0.45593999997E+02  0.45594000000E+02  0.51100000000E-03 0. -1.
    9900012    2    1    2    0    0  0.18524596652E+02 -0.20191289583E+02  0.30038591563E+02  0.50528857864E+02  0.29999993965E+02 0.  0.
         12    1    1    2    0    0 -0.18524596652E+02  0.20191289583E+02 -0.30038591563E+02  0.40659142136E+02  0.00000000000E+00 0. -1.
         11    1    3    3    0    0 -0.52026135715E+01 -0.11943810968E+02  0.13196110066E+02  0.18543438989E+02  0.51100000000E-03 0. -1.
        -11    1    3    3    0    0  0.81773588739E+01 -0.82346202852E+01  0.80255311564E+01  0.14109830616E+02  0.51100000000E-03 0.  1.
         12    1    3    3    0    0  0.15549851349E+02 -0.12858329402E-01  0.88169503405E+01  0.17875588260E+02  0.00000000000E+00 0. -1.
</event>
<event>
 7    1  0.5849044E-013  0.5052886E+02  0.7816164E-02  0.1300439E+00
        -11   -1    0    0    0    0  0.00000000000E+00  0.00000000000E+00  0.45593999997E+02  0.45594000000E+02  0.51100000000E-03 0.  1.
         11   -1    0    0    0    0 -0.00000000000E+00 -0.00000000000E+00 -0.45593999997E+02  0.45594000000E+02  0.51100000000E-03 0. -1.
    9900012    2    1    2    0    0 -0.33517775210E+02  0.22853578870E+02 -0.27273170890E+01  0.50528861043E+02  0.30000003627E+02 0.  0.
         12    1    1    2    0    0  0.33517775210E+02 -0.22853578870E+02  0.27273170890E+01  0.40659138957E+02  0.00000000000E+00 0. -1.
         11    1    3    3    0    0 -0.27550140966E+02  0.42746429029E+01  0.25675437331E+01  0.27997769916E+02  0.51100000000E-03 0.  1.
        -11    1    3    3    0    0 -0.17252939611E+01  0.43686956782E+00 -0.33563673705E+01  0.37990388861E+01  0.51100000000E-03 0. -1.
         12    1    3    3    0    0 -0.42423402830E+01  0.18142066399E+02 -0.19384934517E+01  0.18732052241E+02  0.00000000000E+00 0. -1.
</event>
<event>
 7    1  0.5849044E-013  0.5052883E+02  0.7816164E-02  0.1300439E+00
        -11   -1    0    0    0    0  0.00000000000E+00  0.00000000000E+00  0.45593999997E+02  0.45594000000E+02  0.51100000000E-03 0. -1.
         11   -1    0    0    0    0 -0.00000000000E+00 -0.00000000000E+00 -0.45593999997E+02  0.45594000000E+02  0.51100000000E-03 0.  1.
    9900012    2    1    2    0    0  0.90619823950E+01 -0.39370056106E+02 -0.45876928764E+01  0.50528834137E+02  0.29999921844E+02 0.  0.
         12    1    1    2    0    0 -0.90619823950E+01  0.39370056106E+02  0.45876928764E+01  0.40659165863E+02  0.00000000000E+00 0. -1.
         11    1    3    3    0    0  0.47367322627E+01 -0.10300494492E+02  0.11667617134E+02  0.16268684924E+02  0.51100000000E-03 0. -1.
        -11    1    3    3    0    0  0.55216261768E+01 -0.24906931372E+02 -0.15535386636E+02  0.29869580248E+02  0.51100000000E-03 0.  1.
        -12    1    3    3    0    0 -0.11963760445E+01 -0.41626302421E+01 -0.71992337488E+00  0.43905689652E+01  0.00000000000E+00 0.  1.
</event>
<event>
 7    1  0.5849044E-013  0.5052886E+02  0.7816164E-02  0.1300439E+00
        -11   -1    0    0    0    0  0.00000000000E+00  0.00000000000E+00  0.45593999997E+02  0.45594000000E+02  0.51100000000E-03 0.  1.
         11   -1    0    0    0    0 -0.00000000000E+00 -0.00000000000E+00 -0.45593999997E+02  0.45594000000E+02  0.51100000000E-03 0. -1.
    9900012    2    1    2    0    0 -0.33466478356E+02  0.76161401878E+01  0.21798042365E+02  0.50528863070E+02  0.30000009788E+02 0.  0.
         12    1    1    2    0    0  0.33466478356E+02 -0.76161401878E+01 -0.21798042365E+02  0.40659136930E+02  0.00000000000E+00 0. -1.
         11    1    3    3    0    0 -0.31529324471E+02  0.10000810007E+02  0.98987387875E+01  0.34526794410E+02  0.51100000000E-03 0. -1.
        -11    1    3    3    0    0 -0.50823180985E+01 -0.10539914726E+01  0.11432037151E+02  0.12555171403E+02  0.51100000000E-03 0.  1.
         12    1    3    3    0    0  0.31451642133E+01 -0.13306783466E+01  0.46726642715E+00  0.34468972576E+01  0.00000000000E+00 0. -1.
</event>
<event>
 7    1  0.5849044E-013  0.5052885E+02  0.7816164E-02  0.1300439E+00
        -11   -1    0    0    0    0  0.00000000000E+00  0.00000000000E+00  0.45593999997E+02  0.45594000000E+02  0.51100000000E-03 0. -1.
         11   -1    0    0    0    0 -0.00000000000E+00 -0.00000000000E+00 -0.45593999997E+02  0.45594000000E+02  0.51100000000E-03 0.  1.
    9900012    2    1    2    0    0 -0.64692572708E+01  0.29285400397E+02 -0.27453245399E+02  0.50528847906E+02  0.29999963696E+02 0.  0.
         12    1    1    2    0    0  0.64692572708E+01 -0.29285400397E+02  0.27453245399E+02  0.40659152094E+02  0.00000000000E+00 0. -1.
         11    1    3    3    0    0 -0.36927263604E+01  0.11374581207E+02  0.43628089107E+00  0.11966940581E+02  0.51100000000E-03 0. -1.
        -11    1    3    3    0    0 -0.53587845503E+01  0.21527948725E+02 -0.23388767916E+02  0.32236681173E+02  0.51100000000E-03 0.  1.
        -12    1    3    3    0    0  0.25822536399E+01 -0.36171295346E+01 -0.45007583749E+01  0.63252261524E+01  0.00000000000E+00 0.  1.
</event>
<event>
 7    1  0.5849044E-013  0.5052888E+02  0.7816164E-02  0.1300439E+00
        -11   -1    0    0    0    0  0.00000000000E+00  0.00000000000E+00  0.45593999997E+02  0.45594000000E+02  0.51100000000E-03 0.  1.
         11   -1    0    0    0    0 -0.00000000000E+00 -0.00000000000E+00 -0.45593999997E+02  0.45594000000E+02  0.51100000000E-03 0. -1.
    9900012    2    1    2    0    0 -0.82185241052E+01  0.19195151400E+02  0.34887901608E+02  0.50528884732E+02  0.30000075632E+02 0.  0.
         12    1    1    2    0    0  0.82185241052E+01 -0.19195151400E+02 -0.34887901608E+02  0.40659115268E+02  0.00000000000E+00 0. -1.
         11    1    3    3    0    0 -0.80390035550E+01 -0.51113894733E+01  0.75003446860E+01  0.12124646435E+02  0.51100000000E-03 0. -1.
        -11    1    3    3    0    0  0.36568301750E+01  0.12730869103E+02  0.20476653001E+02  0.24387307220E+02  0.51100000000E-03 0.  1.
         12    1    3    3    0    0 -0.38363507252E+01  0.11575671770E+02  0.69109039215E+01  0.14016931077E+02  0.00000000000E+00 0. -1.
</event>
<event>
 7    1  0.5849044E-013  0.5052889E+02  0.7816164E-02  0.1300439E+00
        -11   -1    0    0    0    0  0.00000000000E+00  0.00000000000E+00  0.45593999997E+02  0.45594000000E+02  0.51100000000E-03 0. -1.
         11   -1    0    0    0    0 -0.00000000000E+00 -0.00000000000E+00 -0.45593999997E+02  0.45594000000E+02  0.51100000000E-03 0.  1.
    9900012    2    1    2    0    0 -0.33031751824E+02  0.23120258729E+02 -0.52460037514E+01  0.50528886045E+02  0.30000079622E+02 0.  0.
         12    1    1    2    0    0  0.33031751824E+02 -0.23120258729E+02  0.52460037514E+01  0.40659113955E+02  0.00000000000E+00 0. -1.
         11    1    3    3    0    0 -0.63300173330E+01 -0.35998852742E+01  0.32388835373E+01  0.79698594877E+01  0.51100000000E-03 0. -1.
        -11    1    3    3    0    0 -0.21727069703E+02  0.23255404535E+02  0.36977587161E+00  0.31827914359E+02  0.51100000000E-03 0.  1.
        -12    1    3    3    0    0 -0.49746647882E+01  0.34647394682E+01 -0.88546631604E+01  0.10731112199E+02  0.00000000000E+00 0.  1.
</event>
<event>
 7    1  0.5849044E-013  0.5052886E+02  0.7816164E-02  0.1300439E+00
        -11   -1    0    0    0    0  0.00000000000E+00  0.00000000000E+00  0.45593999997E+02  0.45594000000E+02  0.51100000000E-03 0.  1.
         11   -1    0    0    0    0 -0.00000000000E+00 -0.00000000000E+00 -0.45593999997E+02  0.45594000000E+02  0.51100000000E-03 0. -1.
    9900012    2    1    2    0    0  0.15017393070E+02  0.37649658029E+02 -0.31854243495E+01  0.50528858683E+02  0.29999996453E+02 0.  0.
         12    1    1    2    0    0 -0.15017393070E+02 -0.37649658029E+02  0.31854243495E+01  0.40659141317E+02  0.00000000000E+00 0. -1.
         11    1    3    3    0    0  0.40840425862E+01  0.20865755840E+01 -0.35911815664E+01  0.58249280525E+01  0.51100000000E-03 0. -1.
        -11    1    3    3    0    0  0.64936832769E+01  0.34686764979E+02 -0.70458157221E+01  0.35985873710E+02  0.51100000000E-03 0.  1.
        -12    1    3    3    0    0  0.44396672065E+01  0.87631746623E+00  0.74515729390E+01  0.87180569206E+01  0.00000000000E+00 0.  1.
</event>
<event>
 7    1  0.5849044E-013  0.5052886E+02  0.7816164E-02  0.1300439E+00
        -11   -1    0    0    0    0  0.00000000000E+00  0.00000000000E+00  0.45593999997E+02  0.45594000000E+02  0.51100000000E-03 0. -1.
         11   -1    0    0    0    0 -0.00000000000E+00 -0.00000000000E+00 -0.45593999997E+02  0.45594000000E+02  0.51100000000E-03 0.  1.
    9900012    2    1    2    0    0  0.15412949310E+02 -0.10150795845E+01 -0.37610855805E+02  0.50528857518E+02  0.29999992911E+02 0.  0.
         12    1    1    2    0    0 -0.15412949310E+02  0.10150795845E+01  0.37610855805E+02  0.40659142482E+02  0.00000000000E+00 0. -1.
         11    1    3    3    0    0  0.20034036160E+02 -0.56228852365E+01 -0.19121167407E+02  0.28259484894E+02  0.51100000000E-03 0. -1.
        -11    1    3    3    0    0 -0.66972737413E+01  0.66611426979E+01 -0.14902363418E+02  0.17643829894E+02  0.51100000000E-03 0.  1.
         12    1    3    3    0    0  0.20761868919E+01 -0.20533370459E+01 -0.35873249799E+01  0.46255427298E+01  0.00000000000E+00 0. -1.
</event>
<event>
 7    1  0.5849044E-013  0.5052886E+02  0.7816164E-02  0.1300439E+00
        -11   -1    0    0    0    0  0.00000000000E+00  0.00000000000E+00  0.45593999997E+02  0.45594000000E+02  0.51100000000E-03 0. -1.
         11   -1    0    0    0    0 -0.00000000000E+00 -0.00000000000E+00 -0.45593999997E+02  0.45594000000E+02  0.51100000000E-03 0.  1.
    9900012    2    1    2    0    0 -0.13368259611E+02  0.30336231272E+02 -0.23540781934E+02  0.50528859491E+02  0.29999998910E+02 0.  0.
         12    1    1    2    0    0  0.13368259611E+02 -0.30336231272E+02  0.23540781934E+02  0.40659140509E+02  0.00000000000E+00 0. -1.
         11    1    3    3    0    0 -0.22901346720E+00 -0.23999286375E+00 -0.12302639167E+02  0.12307110728E+02  0.51100000000E-03 0. -1.
        -11    1    3    3    0    0 -0.71651090716E+01  0.14846544893E+02 -0.13417402783E+02  0.21255243611E+02  0.51100000000E-03 0.  1.
         12    1    3    3    0    0 -0.59741370724E+01  0.15729679243E+02  0.21792600160E+01  0.16966505152E+02  0.00000000000E+00 0. -1.
</event>
<event>
 7    1  0.5849044E-013  0.5052887E+02  0.7816164E-02  0.1300439E+00
        -11   -1    0    0    0    0  0.00000000000E+00  0.00000000000E+00  0.45593999997E+02  0.45594000000E+02  0.51100000000E-03 0.  1.
         11   -1    0    0    0    0 -0.00000000000E+00 -0.00000000000E+00 -0.45593999997E+02  0.45594000000E+02  0.51100000000E-03 0. -1.
    9900012    2    1    2    0    0  0.14166393202E+02  0.11337502201E+01  0.38094523084E+02  0.50528870952E+02  0.30000033747E+02 0.  0.
         12    1    1    2    0    0 -0.14166393202E+02 -0.11337502201E+01 -0.38094523084E+02  0.40659129048E+02  0.00000000000E+00 0. -1.
         11    1    3    3    0    0  0.16075341531E+01  0.76418358729E+01  0.42406770381E+01  0.88862344986E+01  0.51100000000E-03 0. -1.
        -11    1    3    3    0    0  0.13889348230E+02  0.13501790082E+01  0.29324156985E+02  0.32475269988E+02  0.51100000000E-03 0.  1.
        -12    1    3    3    0    0 -0.13304891809E+01 -0.78582646610E+01  0.45296890605E+01  0.91673664663E+01  0.00000000000E+00 0.  1.
</event>
<event>
 7    1  0.5849044E-013  0.5052886E+02  0.7816164E-02  0.1300439E+00
        -11   -1    0    0    0    0  0.00000000000E+00  0.00000000000E+00  0.45593999997E+02  0.45594000000E+02  0.51100000000E-03 0.  1.
         11   -1    0    0    0    0 -0.00000000000E+00 -0.00000000000E+00 -0.45593999997E+02  0.45594000000E+02  0.51100000000E-03 0. -1.
    9900012    2    1    2    0    0  0.22694182105E+02  0.31989611496E+02 -0.10714670249E+02  0.50528864450E+02  0.30000013983E+02 0.  0.
         12    1    1    2    0    0 -0.22694182105E+02 -0.31989611496E+02  0.10714670249E+02  0.40659135550E+02  0.00000000000E+00 0. -1.
         11    1    3    3    0    0  0.24129061680E+02  0.28729340546E+02 -0.16854169435E+02  0.41129668773E+02  0.51100000000E-03 0. -1.
        -11    1    3    3    0    0  0.16478091666E+01  0.15070839881E+01  0.53052130580E+01  0.57560284093E+01  0.51100000000E-03 0.  1.
         12    1    3    3    0    0 -0.30826887414E+01  0.17531869617E+01  0.83428612727E+00  0.36431672678E+01  0.00000000000E+00 0. -1.
</event>
<event>
 7    1  0.5849044E-013  0.5052886E+02  0.7816164E-02  0.1300439E+00
        -11   -1    0    0    0    0  0.00000000000E+00  0.00000000000E+00  0.45593999997E+02  0.45594000000E+02  0.51100000000E-03 0. -1.
         11   -1    0    0    0    0 -0.00000000000E+00 -0.00000000000E+00 -0.45593999997E+02  0.45594000000E+02  0.51100000000E-03 0.  1.
    9900012    2    1    2    0    0 -0.19149584621E+02 -0.34186382326E+02 -0.10851289688E+02  0.50528858154E+02  0.29999994846E+02 0.  0.
         12    1    1    2    0    0  0.19149584621E+02  0.34186382326E+02  0.10851289688E+02  0.40659141846E+02  0.00000000000E+00 0. -1.
         11    1    3    3    0    0 -0.33442063149E+00  0.25293416329E+01  0.53776155277E+01  0.59521555154E+01  0.51100000000E-03 0. -1.
        -11    1    3    3    0    0 -0.11416726285E+02 -0.17393823411E+02 -0.74169475193E+01  0.22088409691E+02  0.51100000000E-03 0.  1.
         12    1    3    3    0    0 -0.73984377045E+01 -0.19321900549E+02 -0.88119576962E+01  0.22488292948E+02  0.00000000000E+00 0. -1.
</event>
<event>
 7    1  0.5849044E-013  0.5052885E+02  0.7816164E-02  0.1300439E+00
        -11   -1    0    0    0    0  0.00000000000E+00  0.00000000000E+00  0.45593999997E+02  0.45594000000E+02  0.51100000000E-03 0.  1.
         11   -1    0    0    0    0 -0.00000000000E+00 -0.00000000000E+00 -0.45593999997E+02  0.45594000000E+02  0.51100000000E-03 0. -1.
    9900012    2    1    2    0    0 -0.17734269522E+02  0.13060074043E+02  0.34177433024E+02  0.50528846324E+02  0.29999958886E+02 0.  0.
         12    1    1    2    0    0  0.17734269522E+02 -0.13060074043E+02 -0.34177433024E+02  0.40659153676E+02  0.00000000000E+00 0. -1.
         11    1    3    3    0    0 -0.20726044225E+02  0.10521864646E+01  0.28752819745E+02  0.35459845588E+02  0.51100000000E-03 0. -1.
        -11    1    3    3    0    0  0.20692203145E+01  0.11992268809E+02  0.30855850192E+01  0.12554561684E+02  0.51100000000E-03 0.  1.
         12    1    3    3    0    0  0.92255438771E+00  0.15618769243E-01  0.23390282605E+01  0.25144390523E+01  0.00000000000E+00 0. -1.
</event>
<event>
 7    1  0.5849044E-013  0.5052886E+02  0.7816164E-02  0.1300439E+00
        -11   -1    0    0    0    0  0.00000000000E+00  0.00000000000E+00  0.45593999997E+02  0.45594000000E+02  0.51100000000E-03 0.  1.
         11   -1    0    0    0    0 -0.00000000000E+00 -0.00000000000E+00 -0.45593999997E+02  0.45594000000E+02  0.51100000000E-03 0. -1.
    9900012    2    1    2    0    0 -0.18106314201E+02  0.13767677409E+02  0.33701310112E+02  0.50528857628E+02  0.29999993246E+02 0.  0.
         12    1    1    2    0    0  0.18106314201E+02 -0.13767677409E+02 -0.33701310112E+02  0.40659142372E+02  0.00000000000E+00 0. -1.
         11    1    3    3    0    0 -0.87155150920E+01 -0.88465747970E+01  0.86630641820E+01  0.15141689808E+02  0.51100000000E-03 0. -1.
        -11    1    3    3    0    0 -0.41376600737E+01  0.12720591470E+02  0.16837815669E+02  0.21504551030E+02  0.51100000000E-03 0.  1.
         12    1    3    3    0    0 -0.52531390355E+01  0.98936607356E+01  0.82004302609E+01  0.13882616790E+02  0.00000000000E+00 0. -1.
</event>
<event>
 7    1  0.5849044E-013  0.5052890E+02  0.7816164E-02  0.1300439E+00
        -11   -1    0    0    0    0  0.00000000000E+00  0.00000000000E+00  0.45593999997E+02  0.45594000000E+02  0.51100000000E-03 0.  1.
         11   -1    0    0    0    0 -0.00000000000E+00 -0.00000000000E+00 -0.45593999997E+02  0.45594000000E+02  0.51100000000E-03 0. -1.
    9900012    2    1    2    0    0  0.38894846053E+02 -0.11715198167E+02  0.17628319330E+01  0.50528899002E+02  0.30000119006E+02 0.  0.
         12    1    1    2    0    0 -0.38894846053E+02  0.11715198167E+02 -0.17628319330E+01  0.40659100998E+02  0.00000000000E+00 0. -1.
         11    1    3    3    0    0 -0.18444661023E+01 -0.12214900905E+01 -0.20479735634E+01  0.30146789582E+01  0.51100000000E-03 0. -1.
        -11    1    3    3    0    0  0.35861243073E+02 -0.11227604762E+02  0.10671981887E+02  0.39063781962E+02  0.51100000000E-03 0.  1.
        -12    1    3    3    0    0  0.48780690815E+01  0.73389668600E+00 -0.68611763910E+01  0.84504380820E+01  0.00000000000E+00 0.  1.
</event>
<event>
 7    1  0.5849044E-013  0.5052887E+02  0.7816164E-02  0.1300439E+00
        -11   -1    0    0    0    0  0.00000000000E+00  0.00000000000E+00  0.45593999997E+02  0.45594000000E+02  0.51100000000E-03 0.  1.
         11   -1    0    0    0    0 -0.00000000000E+00 -0.00000000000E+00 -0.45593999997E+02  0.45594000000E+02  0.51100000000E-03 0. -1.
    9900012    2    1    2    0    0 -0.18969029240E+02 -0.51773568359E+01  0.35588426737E+02  0.50528865581E+02  0.30000017419E+02 0.  0.
         12    1    1    2    0    0  0.18969029240E+02  0.51773568359E+01 -0.35588426737E+02  0.40659134419E+02  0.00000000000E+00 0. -1.
         11    1    3    3    0    0 -0.14603620824E+02  0.20620934737E+01  0.56758367660E+01  0.15802945736E+02  0.51100000000E-03 0. -1.
        -11    1    3    3    0    0 -0.21159237286E+01 -0.93388129613E+01  0.76621296967E+01  0.12263718543E+02  0.51100000000E-03 0.  1.
         12    1    3    3    0    0 -0.22494846871E+01  0.20993626516E+01  0.22250460275E+02  0.22462201302E+02  0.00000000000E+00 0. -1.
</event>
<event>
 7    1  0.5849044E-013  0.5052886E+02  0.7816164E-02  0.1300439E+00
        -11   -1    0    0    0    0  0.00000000000E+00  0.00000000000E+00  0.45593999997E+02  0.45594000000E+02  0.51100000000E-03 0. -1.
         11   -1    0    0    0    0 -0.00000000000E+00 -0.00000000000E+00 -0.45593999997E+02  0.45594000000E+02  0.51100000000E-03 0.  1.
    9900012    2    1    2    0    0  0.17826566712E+01 -0.18499238061E+02 -0.36163046500E+02  0.50528860735E+02  0.30000002690E+02 0.  0.
         12    1    1    2    0    0 -0.17826566712E+01  0.18499238061E+02  0.36163046500E+02  0.40659139265E+02  0.00000000000E+00 0. -1.
         11    1    3    3    0    0  0.27167732923E+01 -0.14628446884E+02 -0.23343890260E+01  0.15060600511E+02  0.51100000000E-03 0. -1.
        -11    1    3    3    0    0 -0.43822927352E+01 -0.51182304115E+01 -0.17983703757E+02  0.19204540433E+02  0.51100000000E-03 0.  1.
         12    1    3    3    0    0  0.34481761140E+01  0.12474392345E+01 -0.15844953716E+02  0.16263719791E+02  0.00000000000E+00 0. -1.
</event>
<event>
 7    1  0.5849044E-013  0.5052886E+02  0.7816164E-02  0.1300439E+00
        -11   -1    0    0    0    0  0.00000000000E+00  0.00000000000E+00  0.45593999997E+02  0.45594000000E+02  0.51100000000E-03 0.  1.
         11   -1    0    0    0    0 -0.00000000000E+00 -0.00000000000E+00 -0.45593999997E+02  0.45594000000E+02  0.51100000000E-03 0. -1.
    9900012    2    1    2    0    0  0.39496263232E+01  0.11354278522E+02  0.38841299530E+02  0.50528859109E+02  0.29999997747E+02 0.  0.
         12    1    1    2    0    0 -0.39496263232E+01 -0.11354278522E+02 -0.38841299530E+02  0.40659140891E+02  0.00000000000E+00 0. -1.
         11    1    3    3    0    0  0.68384832099E+01  0.15346144948E+02  0.15293393843E+02  0.22719086973E+02  0.51100000000E-03 0. -1.
        -11    1    3    3    0    0 -0.77872142502E+00 -0.33452372204E+01 -0.66333739918E+00  0.34981474933E+01  0.51100000000E-03 0.  1.
         12    1    3    3    0    0 -0.21101354618E+01 -0.64662920642E+00  0.24211243086E+02  0.24311624642E+02  0.00000000000E+00 0. -1.
</event>
<event>
 7    1  0.5849044E-013  0.5052886E+02  0.7816164E-02  0.1300439E+00
        -11   -1    0    0    0    0  0.00000000000E+00  0.00000000000E+00  0.45593999997E+02  0.45594000000E+02  0.51100000000E-03 0.  1.
         11   -1    0    0    0    0 -0.00000000000E+00 -0.00000000000E+00 -0.45593999997E+02  0.45594000000E+02  0.51100000000E-03 0. -1.
    9900012    2    1    2    0    0  0.10482926491E+02  0.37565220512E+02  0.11494687990E+02  0.50528863365E+02  0.30000010683E+02 0.  0.
         12    1    1    2    0    0 -0.10482926491E+02 -0.37565220512E+02 -0.11494687990E+02  0.40659136635E+02  0.00000000000E+00 0. -1.
         11    1    3    3    0    0 -0.28299774045E+01 -0.38591230879E+01  0.10733514533E+01  0.49044558027E+01  0.51100000000E-03 0. -1.
        -11    1    3    3    0    0  0.90273840908E+01  0.37195454892E+02  0.78210398278E+01  0.39066151492E+02  0.51100000000E-03 0.  1.
         12    1    3    3    0    0  0.42855198050E+01  0.42288887077E+01  0.26002967093E+01  0.65582560699E+01  0.00000000000E+00 0. -1.
</event>
<event>
 7    1  0.5849044E-013  0.5052886E+02  0.7816164E-02  0.1300439E+00
        -11   -1    0    0    0    0  0.00000000000E+00  0.00000000000E+00  0.45593999997E+02  0.45594000000E+02  0.51100000000E-03 0.  1.
         11   -1    0    0    0    0 -0.00000000000E+00 -0.00000000000E+00 -0.45593999997E+02  0.45594000000E+02  0.51100000000E-03 0. -1.
    9900012    2    1    2    0    0  0.74161246230E+01 -0.19381701313E+02  0.34964501878E+02  0.50528860292E+02  0.30000001344E+02 0.  0.
         12    1    1    2    0    0 -0.74161246230E+01  0.19381701313E+02 -0.34964501878E+02  0.40659139708E+02  0.00000000000E+00 0. -1.
         11    1    3    3    0    0  0.10122825107E+02 -0.20479200358E+02  0.21333666785E+02  0.31256912422E+02  0.51100000000E-03 0. -1.
        -11    1    3    3    0    0 -0.34716996676E+01  0.55609542046E+01  0.21001277462E+01  0.68838540847E+01  0.51100000000E-03 0.  1.
        -12    1    3    3    0    0  0.76499918385E+00 -0.44634551602E+01  0.11530707347E+02  0.12388093785E+02  0.00000000000E+00 0.  1.
</event>
<event>
 7    1  0.5849044E-013  0.5052884E+02  0.7816164E-02  0.1300439E+00
        -11   -1    0    0    0    0  0.00000000000E+00  0.00000000000E+00  0.45593999997E+02  0.45594000000E+02  0.51100000000E-03 0.  1.
         11   -1    0    0    0    0 -0.00000000000E+00 -0.00000000000E+00 -0.45593999997E+02  0.45594000000E+02  0.51100000000E-03 0. -1.
    9900012    2    1    2    0    0  0.39367385654E+02 -0.72434388062E+01 -0.71350501200E+01  0.50528838681E+02  0.29999935655E+02 0.  0.
         12    1    1    2    0    0 -0.39367385654E+02  0.72434388062E+01  0.71350501200E+01  0.40659161319E+02  0.00000000000E+00 0. -1.
         11    1    3    3    0    0  0.33529890075E+02 -0.34565909272E+00 -0.74535330010E+01  0.34350082432E+02  0.51100000000E-03 0.  1.
        -11    1    3    3    0    0 -0.97922467919E+00 -0.82032018053E+01 -0.25833986937E+01  0.86559430394E+01  0.51100000000E-03 0. -1.
        -12    1    3    3    0    0  0.68167202578E+01  0.13054220918E+01  0.29018815747E+01  0.75228132094E+01  0.00000000000E+00 0.  1.
</event>
<event>
 7    1  0.5849044E-013  0.5052887E+02  0.7816164E-02  0.1300439E+00
        -11   -1    0    0    0    0  0.00000000000E+00  0.00000000000E+00  0.45593999997E+02  0.45594000000E+02  0.51100000000E-03 0. -1.
         11   -1    0    0    0    0 -0.00000000000E+00 -0.00000000000E+00 -0.45593999997E+02  0.45594000000E+02  0.51100000000E-03 0.  1.
    9900012    2    1    2    0    0 -0.99204330662E+01 -0.30387066329E+02 -0.25127204875E+02  0.50528865514E+02  0.30000017216E+02 0.  0.
         12    1    1    2    0    0  0.99204330662E+01  0.30387066329E+02  0.25127204875E+02  0.40659134486E+02  0.00000000000E+00 0. -1.
         11    1    3    3    0    0 -0.54389630655E+01  0.21423844011E+01 -0.78122581917E+01  0.97572285237E+01  0.51100000000E-03 0. -1.
        -11    1    3    3    0    0  0.26504801744E+01 -0.22968074974E+02 -0.17244357120E+02  0.28843116439E+02  0.51100000000E-03 0.  1.
        -12    1    3    3    0    0 -0.71319501752E+01 -0.95613757565E+01 -0.70589563753E-01  0.11928520551E+02  0.00000000000E+00 0.  1.
</event>
<event>
 7    1  0.5849044E-013  0.5052886E+02  0.7816164E-02  0.1300439E+00
        -11   -1    0    0    0    0  0.00000000000E+00  0.00000000000E+00  0.45593999997E+02  0.45594000000E+02  0.51100000000E-03 0. -1.
         11   -1    0    0    0    0 -0.00000000000E+00 -0.00000000000E+00 -0.45593999997E+02  0.45594000000E+02  0.51100000000E-03 0.  1.
    9900012    2    1    2    0    0 -0.16921655262E+01 -0.17896155277E+02 -0.36469576197E+02  0.50528858521E+02  0.29999995959E+02 0.  0.
         12    1    1    2    0    0  0.16921655262E+01  0.17896155277E+02  0.36469576197E+02  0.40659141479E+02  0.00000000000E+00 0. -1.
         11    1    3    3    0    0 -0.15276561851E+01  0.72172443486E+01 -0.62433736115E+01  0.96644743117E+01  0.51100000000E-03 0. -1.
        -11    1    3    3    0    0 -0.46643644103E+01 -0.18813444106E+02 -0.18374846778E+02  0.26708368892E+02  0.51100000000E-03 0.  1.
         12    1    3    3    0    0  0.44998550692E+01 -0.62999555204E+01 -0.11851355807E+02  0.14156015317E+02  0.00000000000E+00 0. -1.
</event>
<event>
 7    1  0.5849044E-013  0.5052887E+02  0.7816164E-02  0.1300439E+00
        -11   -1    0    0    0    0  0.00000000000E+00  0.00000000000E+00  0.45593999997E+02  0.45594000000E+02  0.51100000000E-03 0.  1.
         11   -1    0    0    0    0 -0.00000000000E+00 -0.00000000000E+00 -0.45593999997E+02  0.45594000000E+02  0.51100000000E-03 0. -1.
    9900012    2    1    2    0    0 -0.13369549289E+02  0.21820494674E+02  0.31595667032E+02  0.50528868047E+02  0.30000024915E+02 0.  0.
         12    1    1    2    0    0  0.13369549289E+02 -0.21820494674E+02 -0.31595667032E+02  0.40659131953E+02  0.00000000000E+00 0. -1.
         11    1    3    3    0    0 -0.16836459429E+01  0.11255655341E+02  0.42176561775E+01  0.12137259358E+02  0.51100000000E-03 0. -1.
        -11    1    3    3    0    0 -0.13631250830E+02 -0.65893273985E+00  0.21772309829E+02  0.25695888136E+02  0.51100000000E-03 0.  1.
        -12    1    3    3    0    0  0.19453474842E+01  0.11223772073E+02  0.56057010249E+01  0.12695720553E+02  0.00000000000E+00 0.  1.
</event>
<event>
 7    1  0.5849044E-013  0.5052886E+02  0.7816164E-02  0.1300439E+00
        -11   -1    0    0    0    0  0.00000000000E+00  0.00000000000E+00  0.45593999997E+02  0.45594000000E+02  0.51100000000E-03 0.  1.
         11   -1    0    0    0    0 -0.00000000000E+00 -0.00000000000E+00 -0.45593999997E+02  0.45594000000E+02  0.51100000000E-03 0. -1.
    9900012    2    1    2    0    0  0.51001172021E+00  0.17417296777E+02  0.36736126919E+02  0.50528863757E+02  0.30000011876E+02 0.  0.
         12    1    1    2    0    0 -0.51001172021E+00 -0.17417296777E+02 -0.36736126919E+02  0.40659136243E+02  0.00000000000E+00 0. -1.
         11    1    3    3    0    0 -0.12413257333E+01 -0.25223948478E-01 -0.35215708443E+01  0.37340309716E+01  0.51100000000E-03 0. -1.
        -11    1    3    3    0    0  0.63545785826E+01  0.70747939198E+01  0.30105038369E+02  0.31571295720E+02  0.51100000000E-03 0.  1.
        -12    1    3    3    0    0 -0.46032411291E+01  0.10367726805E+02  0.10152659395E+02  0.15223537066E+02  0.00000000000E+00 0.  1.
</event>
<event>
 7    1  0.5849044E-013  0.5052886E+02  0.7816164E-02  0.1300439E+00
        -11   -1    0    0    0    0  0.00000000000E+00  0.00000000000E+00  0.45593999997E+02  0.45594000000E+02  0.51100000000E-03 0.  1.
         11   -1    0    0    0    0 -0.00000000000E+00 -0.00000000000E+00 -0.45593999997E+02  0.45594000000E+02  0.51100000000E-03 0. -1.
    9900012    2    1    2    0    0  0.34777840492E+02  0.21062729906E+02  0.16925200285E+00  0.50528862938E+02  0.30000009388E+02 0.  0.
         12    1    1    2    0    0 -0.34777840492E+02 -0.21062729906E+02 -0.16925200285E+00  0.40659137062E+02  0.00000000000E+00 0. -1.
         11    1    3    3    0    0  0.84157078049E+01  0.88605599646E+01 -0.12124361629E+02  0.17214348838E+02  0.51100000000E-03 0. -1.
        -11    1    3    3    0    0  0.16267392899E+02  0.30183018355E+01  0.30299471383E+01  0.16820190178E+02  0.51100000000E-03 0.  1.
         12    1    3    3    0    0  0.10094739788E+02  0.91838681054E+01  0.92636664935E+01  0.16494323923E+02  0.00000000000E+00 0. -1.
</event>
<event>
 7    1  0.5849044E-013  0.5052886E+02  0.7816164E-02  0.1300439E+00
        -11   -1    0    0    0    0  0.00000000000E+00  0.00000000000E+00  0.45593999997E+02  0.45594000000E+02  0.51100000000E-03 0. -1.
         11   -1    0    0    0    0 -0.00000000000E+00 -0.00000000000E+00 -0.45593999997E+02  0.45594000000E+02  0.51100000000E-03 0.  1.
    9900012    2    1    2    0    0  0.81102805067E+01  0.14836797819E+02 -0.36976457495E+02  0.50528860458E+02  0.30000001847E+02 0.  0.
         12    1    1    2    0    0 -0.81102805067E+01 -0.14836797819E+02  0.36976457495E+02  0.40659139542E+02  0.00000000000E+00 0. -1.
         11    1    3    3    0    0 -0.27628554563E+01 -0.56085813600E+01 -0.26641855609E+01  0.67961342032E+01  0.51100000000E-03 0. -1.
        -11    1    3    3    0    0  0.86407278919E+01  0.10637705785E+02 -0.29613100303E+02  0.32630640090E+02  0.51100000000E-03 0.  1.
         12    1    3    3    0    0  0.22324080711E+01  0.98076733934E+01 -0.46991716319E+01  0.11102086165E+02  0.00000000000E+00 0. -1.
</event>
<event>
 7    1  0.5849044E-013  0.5052889E+02  0.7816164E-02  0.1300439E+00
        -11   -1    0    0    0    0  0.00000000000E+00  0.00000000000E+00  0.45593999997E+02  0.45594000000E+02  0.51100000000E-03 0.  1.
         11   -1    0    0    0    0 -0.00000000000E+00 -0.00000000000E+00 -0.45593999997E+02  0.45594000000E+02  0.51100000000E-03 0. -1.
    9900012    2    1    2    0    0  0.51039326480E+01 -0.39850026000E+02 -0.62520555754E+01  0.50528894014E+02  0.30000103845E+02 0.  0.
         12    1    1    2    0    0 -0.51039326480E+01  0.39850026000E+02  0.62520555754E+01  0.40659105986E+02  0.00000000000E+00 0. -1.
         11    1    3    3    0    0  0.87373454812E+01 -0.64710578669E+01  0.44994676166E+01  0.11766945443E+02  0.51100000000E-03 0. -1.
        -11    1    3    3    0    0  0.48509787501E+01 -0.24419279436E+02 -0.74919385160E+01  0.25999275875E+02  0.51100000000E-03 0.  1.
         12    1    3    3    0    0 -0.84843915832E+01 -0.89596886966E+01 -0.32595846760E+01  0.12762672696E+02  0.00000000000E+00 0. -1.
</event>
<event>
 7    1  0.5849044E-013  0.5052887E+02  0.7816164E-02  0.1300439E+00
        -11   -1    0    0    0    0  0.00000000000E+00  0.00000000000E+00  0.45593999997E+02  0.45594000000E+02  0.51100000000E-03 0.  1.
         11   -1    0    0    0    0 -0.00000000000E+00 -0.00000000000E+00 -0.45593999997E+02  0.45594000000E+02  0.51100000000E-03 0. -1.
    9900012    2    1    2    0    0 -0.26256687014E+02  0.18307779641E+02  0.25071429865E+02  0.50528868137E+02  0.30000025190E+02 0.  0.
         12    1    1    2    0    0  0.26256687014E+02 -0.18307779641E+02 -0.25071429865E+02  0.40659131863E+02  0.00000000000E+00 0. -1.
         11    1    3    3    0    0 -0.62093209417E+01 -0.39326495610E+01  0.70511440036E+01  0.10185285030E+02  0.51100000000E-03 0. -1.
        -11    1    3    3    0    0 -0.19955649469E+01  0.10165492114E+02 -0.22886982070E+01  0.10609318975E+02  0.51100000000E-03 0.  1.
        -12    1    3    3    0    0 -0.18051801126E+02  0.12074937088E+02  0.20308984069E+02  0.29734264132E+02  0.00000000000E+00 0.  1.
</event>
<event>
 7    1  0.5849044E-013  0.5052881E+02  0.7816164E-02  0.1300439E+00
        -11   -1    0    0    0    0  0.00000000000E+00  0.00000000000E+00  0.45593999997E+02  0.45594000000E+02  0.51100000000E-03 0.  1.
         11   -1    0    0    0    0 -0.00000000000E+00 -0.00000000000E+00 -0.45593999997E+02  0.45594000000E+02  0.51100000000E-03 0. -1.
    9900012    2    1    2    0    0  0.10181613459E+02 -0.36256422295E+02  0.15328939879E+02  0.50528809058E+02  0.29999845613E+02 0.  0.
         12    1    1    2    0    0 -0.10181613459E+02  0.36256422295E+02 -0.15328939879E+02  0.40659190942E+02  0.00000000000E+00 0. -1.
         11    1    3    3    0    0 -0.10325082587E-01 -0.33029718490E+01  0.10120032586E+02  0.10645411661E+02  0.51100000000E-03 0. -1.
        -11    1    3    3    0    0  0.71521257631E+01 -0.32178340051E+02  0.97398655401E+01  0.34372422847E+02  0.51100000000E-03 0.  1.
        -12    1    3    3    0    0  0.30398127788E+01 -0.77511039428E+00 -0.45309582468E+01  0.55109745497E+01  0.00000000000E+00 0.  1.
</event>
<event>
 7    1  0.5849044E-013  0.5052885E+02  0.7816164E-02  0.1300439E+00
        -11   -1    0    0    0    0  0.00000000000E+00  0.00000000000E+00  0.45593999997E+02  0.45594000000E+02  0.51100000000E-03 0.  1.
         11   -1    0    0    0    0 -0.00000000000E+00 -0.00000000000E+00 -0.45593999997E+02  0.45594000000E+02  0.51100000000E-03 0. -1.
    9900012    2    1    2    0    0  0.16574938937E+01  0.22779699807E+02  0.33637842890E+02  0.50528849940E+02  0.29999969879E+02 0.  0.
         12    1    1    2    0    0 -0.16574938937E+01 -0.22779699807E+02 -0.33637842890E+02  0.40659150060E+02  0.00000000000E+00 0. -1.
         11    1    3    3    0    0 -0.22104671796E+01  0.50724072865E+00 -0.72839714952E+00  0.23820203562E+01  0.51100000000E-03 0. -1.
        -11    1    3    3    0    0  0.10860569215E+02  0.23231204087E+01  0.19017225119E+02  0.22022799631E+02  0.51100000000E-03 0.  1.
        -12    1    3    3    0    0 -0.69926081414E+01  0.19949338670E+02  0.15349014921E+02  0.26124029953E+02  0.00000000000E+00 0.  1.
</event>
<event>
 7    1  0.5849044E-013  0.5052886E+02  0.7816164E-02  0.1300439E+00
        -11   -1    0    0    0    0  0.00000000000E+00  0.00000000000E+00  0.45593999997E+02  0.45594000000E+02  0.51100000000E-03 0.  1.
         11   -1    0    0    0    0 -0.00000000000E+00 -0.00000000000E+00 -0.45593999997E+02  0.45594000000E+02  0.51100000000E-03 0. -1.
    9900012    2    1    2    0    0 -0.18332847543E+02 -0.23863453987E+02  0.27342422927E+02  0.50528858018E+02  0.29999994431E+02 0.  0.
         12    1    1    2    0    0  0.18332847543E+02  0.23863453987E+02 -0.27342422927E+02  0.40659141982E+02  0.00000000000E+00 0. -1.
         11    1    3    3    0    0 -0.20353957649E+02 -0.15918265586E+02  0.59673741528E+01  0.26519508400E+02  0.51100000000E-03 0. -1.
        -11    1    3    3    0    0  0.43144498276E+01 -0.26483380935E+01  0.11614651519E+02  0.12669976407E+02  0.51100000000E-03 0.  1.
         12    1    3    3    0    0 -0.22933397219E+01 -0.52968503078E+01  0.97603972547E+01  0.11339373212E+02  0.00000000000E+00 0. -1.
</event>
<event>
 7    1  0.5849044E-013  0.5052886E+02  0.7816164E-02  0.1300439E+00
        -11   -1    0    0    0    0  0.00000000000E+00  0.00000000000E+00  0.45593999997E+02  0.45594000000E+02  0.51100000000E-03 0.  1.
         11   -1    0    0    0    0 -0.00000000000E+00 -0.00000000000E+00 -0.45593999997E+02  0.45594000000E+02  0.51100000000E-03 0. -1.
    9900012    2    1    2    0    0  0.24232848979E+02 -0.16853330382E+02 -0.27962478220E+02  0.50528857082E+02  0.29999991587E+02 0.  0.
         12    1    1    2    0    0 -0.24232848979E+02  0.16853330382E+02  0.27962478220E+02  0.40659142918E+02  0.00000000000E+00 0. -1.
         11    1    3    3    0    0  0.19845095151E+02  0.50607270108E-01 -0.11655807707E+02  0.23014956359E+02  0.51100000000E-03 0. -1.
        -11    1    3    3    0    0 -0.43995855275E+01 -0.98237018817E+01 -0.65802940674E+01  0.12615932060E+02  0.51100000000E-03 0.  1.
         12    1    3    3    0    0  0.87873393557E+01 -0.70802357708E+01 -0.97263764457E+01  0.14897968663E+02  0.00000000000E+00 0. -1.
</event>
<event>
 7    1  0.5849044E-013  0.5052887E+02  0.7816164E-02  0.1300439E+00
        -11   -1    0    0    0    0  0.00000000000E+00  0.00000000000E+00  0.45593999997E+02  0.45594000000E+02  0.51100000000E-03 0.  1.
         11   -1    0    0    0    0 -0.00000000000E+00 -0.00000000000E+00 -0.45593999997E+02  0.45594000000E+02  0.51100000000E-03 0. -1.
    9900012    2    1    2    0    0 -0.16657774589E+02  0.15402199845E+02  0.33741008317E+02  0.50528869949E+02  0.30000030696E+02 0.  0.
         12    1    1    2    0    0  0.16657774589E+02 -0.15402199845E+02 -0.33741008317E+02  0.40659130051E+02  0.00000000000E+00 0. -1.
         11    1    3    3    0    0 -0.34155991629E+00  0.64660249882E+01  0.30234763427E+02  0.30920334119E+02  0.51100000000E-03 0. -1.
        -11    1    3    3    0    0 -0.84586666593E+01  0.33515049133E+01  0.40372010563E+01  0.99539248272E+01  0.51100000000E-03 0.  1.
         12    1    3    3    0    0 -0.78575480130E+01  0.55846699431E+01 -0.53095616629E+00  0.96546110020E+01  0.00000000000E+00 0. -1.
</event>
<event>
 7    1  0.5849044E-013  0.5052885E+02  0.7816164E-02  0.1300439E+00
        -11   -1    0    0    0    0  0.00000000000E+00  0.00000000000E+00  0.45593999997E+02  0.45594000000E+02  0.51100000000E-03 0.  1.
         11   -1    0    0    0    0 -0.00000000000E+00 -0.00000000000E+00 -0.45593999997E+02  0.45594000000E+02  0.51100000000E-03 0. -1.
    9900012    2    1    2    0    0 -0.23744527507E+02 -0.96616724399E+01  0.31559724083E+02  0.50528847463E+02  0.29999962347E+02 0.  0.
         12    1    1    2    0    0  0.23744527507E+02  0.96616724399E+01 -0.31559724083E+02  0.40659152537E+02  0.00000000000E+00 0. -1.
         11    1    3    3    0    0 -0.11548783936E+02 -0.39132310742E+01 -0.28149949587E+01  0.12514471013E+02  0.51100000000E-03 0. -1.
        -11    1    3    3    0    0 -0.21849168753E+01 -0.23244599999E+00  0.17473400769E+02  0.17611008705E+02  0.51100000000E-03 0.  1.
        -12    1    3    3    0    0 -0.10010826695E+02 -0.55159953658E+01  0.16901318272E+02  0.20403367745E+02  0.00000000000E+00 0.  1.
</event>
<event>
 7    1  0.5849044E-013  0.5052889E+02  0.7816164E-02  0.1300439E+00
        -11   -1    0    0    0    0  0.00000000000E+00  0.00000000000E+00  0.45593999997E+02  0.45594000000E+02  0.51100000000E-03 0. -1.
         11   -1    0    0    0    0 -0.00000000000E+00 -0.00000000000E+00 -0.45593999997E+02  0.45594000000E+02  0.51100000000E-03 0.  1.
    9900012    2    1    2    0    0  0.87605480076E+01 -0.10004225010E+02 -0.38423055548E+02  0.50528893798E+02  0.30000103189E+02 0.  0.
         12    1    1    2    0    0 -0.87605480076E+01  0.10004225010E+02  0.38423055548E+02  0.40659106202E+02  0.00000000000E+00 0. -1.
         11    1    3    3    0    0  0.75374246441E+01 -0.37235943150E+00 -0.10981384004E+02  0.13324496866E+02  0.51100000000E-03 0. -1.
        -11    1    3    3    0    0 -0.64064432516E+01  0.52283707837E+01 -0.72379062193E+01  0.10989343151E+02  0.51100000000E-03 0.  1.
        -12    1    3    3    0    0  0.76295666151E+01 -0.14860236362E+02 -0.20203765325E+02  0.26215053782E+02  0.00000000000E+00 0.  1.
</event>
<event>
 7    1  0.5849044E-013  0.5052888E+02  0.7816164E-02  0.1300439E+00
        -11   -1    0    0    0    0  0.00000000000E+00  0.00000000000E+00  0.45593999997E+02  0.45594000000E+02  0.51100000000E-03 0.  1.
         11   -1    0    0    0    0 -0.00000000000E+00 -0.00000000000E+00 -0.45593999997E+02  0.45594000000E+02  0.51100000000E-03 0. -1.
    9900012    2    1    2    0    0 -0.39571804270E+02  0.18240190653E+01 -0.91602210103E+01  0.50528875714E+02  0.30000048221E+02 0.  0.
         12    1    1    2    0    0  0.39571804270E+02 -0.18240190653E+01  0.91602210103E+01  0.40659124286E+02  0.00000000000E+00 0. -1.
         11    1    3    3    0    0 -0.47768580057E+00 -0.72147006520E+01 -0.37220585010E+01  0.81322696074E+01  0.51100000000E-03 0. -1.
        -11    1    3    3    0    0 -0.22649569351E+02 -0.51920962158E+00 -0.15494701713E+00  0.22656049507E+02  0.51100000000E-03 0.  1.
         12    1    3    3    0    0 -0.16444549118E+02  0.95579293388E+01 -0.52832154922E+01  0.19740556600E+02  0.00000000000E+00 0. -1.
</event>
<event>
 7    1  0.5849044E-013  0.5052886E+02  0.7816164E-02  0.1300439E+00
        -11   -1    0    0    0    0  0.00000000000E+00  0.00000000000E+00  0.45593999997E+02  0.45594000000E+02  0.51100000000E-03 0. -1.
         11   -1    0    0    0    0 -0.00000000000E+00 -0.00000000000E+00 -0.45593999997E+02  0.45594000000E+02  0.51100000000E-03 0.  1.
    9900012    2    1    2    0    0 -0.70942374899E+01 -0.40022155500E+02 -0.10317976163E+01  0.50528859050E+02  0.29999997569E+02 0.  0.
         12    1    1    2    0    0  0.70942374899E+01  0.40022155500E+02  0.10317976163E+01  0.40659140950E+02  0.00000000000E+00 0. -1.
         11    1    3    3    0    0  0.59619967442E+01 -0.66426924424E+01  0.62800049097E+01  0.10913717515E+02  0.51100000000E-03 0. -1.
        -11    1    3    3    0    0 -0.14942318468E+02 -0.33767117554E+02 -0.63672271589E+01  0.37470424218E+02  0.51100000000E-03 0.  1.
        -12    1    3    3    0    0  0.18860842343E+01  0.38765449639E+00 -0.94457536715E+00  0.21447173174E+01  0.00000000000E+00 0.  1.
</event>
<event>
 7    1  0.5849044E-013  0.5052886E+02  0.7816164E-02  0.1300439E+00
        -11   -1    0    0    0    0  0.00000000000E+00  0.00000000000E+00  0.45593999997E+02  0.45594000000E+02  0.51100000000E-03 0.  1.
         11   -1    0    0    0    0 -0.00000000000E+00 -0.00000000000E+00 -0.45593999997E+02  0.45594000000E+02  0.51100000000E-03 0. -1.
    9900012    2    1    2    0    0  0.26969921247E+02 -0.68372087836E+01  0.29648636493E+02  0.50528859307E+02  0.29999998349E+02 0.  0.
         12    1    1    2    0    0 -0.26969921247E+02  0.68372087836E+01 -0.29648636493E+02  0.40659140693E+02  0.00000000000E+00 0. -1.
         11    1    3    3    0    0  0.18502169862E+02  0.71123841887E+00  0.67348943136E+01  0.19702663560E+02  0.51100000000E-03 0. -1.
        -11    1    3    3    0    0 -0.14892772402E+01 -0.71839125401E+01  0.19133955916E+01  0.75820596827E+01  0.51100000000E-03 0.  1.
        -12    1    3    3    0    0  0.99570286254E+01 -0.36453466240E+00  0.21000346587E+02  0.23244136064E+02  0.00000000000E+00 0.  1.
</event>
<event>
 7    1  0.5849044E-013  0.5052886E+02  0.7816164E-02  0.1300439E+00
        -11   -1    0    0    0    0  0.00000000000E+00  0.00000000000E+00  0.45593999997E+02  0.45594000000E+02  0.51100000000E-03 0. -1.
         11   -1    0    0    0    0 -0.00000000000E+00 -0.00000000000E+00 -0.45593999997E+02  0.45594000000E+02  0.51100000000E-03 0.  1.
    9900012    2    1    2    0    0 -0.34827275553E+02 -0.20279862076E+02  0.53808750264E+01  0.50528859031E+02  0.29999997510E+02 0.  0.
         12    1    1    2    0    0  0.34827275553E+02  0.20279862076E+02 -0.53808750264E+01  0.40659140969E+02  0.00000000000E+00 0. -1.
         11    1    3    3    0    0 -0.18546368848E+02  0.26981671701E+01 -0.94175510936E+00  0.18765255300E+02  0.51100000000E-03 0. -1.
        -11    1    3    3    0    0 -0.93998211861E+01 -0.19476879243E+02 -0.24437161427E+00  0.21627879719E+02  0.51100000000E-03 0.  1.
         12    1    3    3    0    0 -0.68810855194E+01 -0.35011500032E+01  0.65670017501E+01  0.10135724012E+02  0.00000000000E+00 0. -1.
</event>
<event>
 7    1  0.5849044E-013  0.5052871E+02  0.7816164E-02  0.1300439E+00
        -11   -1    0    0    0    0  0.00000000000E+00  0.00000000000E+00  0.45593999997E+02  0.45594000000E+02  0.51100000000E-03 0.  1.
         11   -1    0    0    0    0 -0.00000000000E+00 -0.00000000000E+00 -0.45593999997E+02  0.45594000000E+02  0.51100000000E-03 0. -1.
    9900012    2    1    2    0    0  0.27506292805E+02 -0.29939347903E+02  0.46561587403E+00  0.50528714531E+02  0.29999558285E+02 0.  0.
         12    1    1    2    0    0 -0.27506292805E+02  0.29939347903E+02 -0.46561587403E+00  0.40659285469E+02  0.00000000000E+00 0. -1.
         11    1    3    3    0    0  0.12670790960E+02 -0.43598987983E+01 -0.40282845260E+01  0.13992309944E+02  0.51100000000E-03 0.  1.
        -11    1    3    3    0    0  0.73520016547E+00 -0.50980127273E+01  0.98361983901E+01  0.11103200083E+02  0.51100000000E-03 0. -1.
        -12    1    3    3    0    0  0.14100301679E+02 -0.20481436377E+02 -0.53422979901E+01  0.25433204504E+02  0.00000000000E+00 0.  1.
</event>
<event>
 7    1  0.5849044E-013  0.5052886E+02  0.7816164E-02  0.1300439E+00
        -11   -1    0    0    0    0  0.00000000000E+00  0.00000000000E+00  0.45593999997E+02  0.45594000000E+02  0.51100000000E-03 0.  1.
         11   -1    0    0    0    0 -0.00000000000E+00 -0.00000000000E+00 -0.45593999997E+02  0.45594000000E+02  0.51100000000E-03 0. -1.
    9900012    2    1    2    0    0  0.27392406868E+02 -0.30017855532E+02 -0.13228754240E+01  0.50528860755E+02  0.30000002750E+02 0.  0.
         12    1    1    2    0    0 -0.27392406868E+02  0.30017855532E+02  0.13228754240E+01  0.40659139245E+02  0.00000000000E+00 0. -1.
         11    1    3    3    0    0  0.87098753334E-01 -0.15962222856E+02 -0.41615296970E+01  0.16496013894E+02  0.51100000000E-03 0. -1.
        -11    1    3    3    0    0  0.16026955971E+02 -0.88865470573E+01 -0.54420242178E+01  0.19116737801E+02  0.51100000000E-03 0.  1.
         12    1    3    3    0    0  0.11278352143E+02 -0.51690856188E+01  0.82806784908E+01  0.14916109059E+02  0.00000000000E+00 0. -1.
</event>
<event>
 7    1  0.5849044E-013  0.5052886E+02  0.7816164E-02  0.1300439E+00
        -11   -1    0    0    0    0  0.00000000000E+00  0.00000000000E+00  0.45593999997E+02  0.45594000000E+02  0.51100000000E-03 0.  1.
         11   -1    0    0    0    0 -0.00000000000E+00 -0.00000000000E+00 -0.45593999997E+02  0.45594000000E+02  0.51100000000E-03 0. -1.
    9900012    2    1    2    0    0  0.11270470851E+02  0.45051635494E+01  0.38805229780E+02  0.50528857484E+02  0.29999992809E+02 0.  0.
         12    1    1    2    0    0 -0.11270470851E+02 -0.45051635494E+01 -0.38805229780E+02  0.40659142516E+02  0.00000000000E+00 0. -1.
         11    1    3    3    0    0  0.31612842492E+01  0.12919648344E+02  0.44642084433E+01  0.14029974651E+02  0.51100000000E-03 0. -1.
        -11    1    3    3    0    0  0.53622327410E+01 -0.74592296282E+01  0.28960801056E+02  0.30382916988E+02  0.51100000000E-03 0.  1.
        -12    1    3    3    0    0  0.27469538613E+01 -0.95525516603E+00  0.53802202812E+01  0.61159658454E+01  0.00000000000E+00 0.  1.
</event>
<event>
 7    1  0.5849044E-013  0.5052886E+02  0.7816164E-02  0.1300439E+00
        -11   -1    0    0    0    0  0.00000000000E+00  0.00000000000E+00  0.45593999997E+02  0.45594000000E+02  0.51100000000E-03 0.  1.
         11   -1    0    0    0    0 -0.00000000000E+00 -0.00000000000E+00 -0.45593999997E+02  0.45594000000E+02  0.51100000000E-03 0. -1.
    9900012    2    1    2    0    0  0.43338829079E+01  0.19158507288E+02  0.35599640914E+02  0.50528863563E+02  0.30000011287E+02 0.  0.
         12    1    1    2    0    0 -0.43338829079E+01 -0.19158507288E+02 -0.35599640914E+02  0.40659136437E+02  0.00000000000E+00 0. -1.
         11    1    3    3    0    0  0.62811106736E+01  0.30906878841E+01  0.37242895843E+01  0.79293780374E+01  0.51100000000E-03 0. -1.
        -11    1    3    3    0    0 -0.83073251212E+01  0.16752393639E+02  0.13280923229E+02  0.22935502292E+02  0.51100000000E-03 0.  1.
        -12    1    3    3    0    0  0.63600973554E+01 -0.68457423444E+00  0.18594428101E+02  0.19663983234E+02  0.00000000000E+00 0.  1.
</event>
<event>
 7    1  0.5849044E-013  0.5052886E+02  0.7816164E-02  0.1300439E+00
        -11   -1    0    0    0    0  0.00000000000E+00  0.00000000000E+00  0.45593999997E+02  0.45594000000E+02  0.51100000000E-03 0. -1.
         11   -1    0    0    0    0 -0.00000000000E+00 -0.00000000000E+00 -0.45593999997E+02  0.45594000000E+02  0.51100000000E-03 0.  1.
    9900012    2    1    2    0    0  0.38162177783E+02 -0.24231133095E+01  0.13818193724E+02  0.50528858727E+02  0.29999996587E+02 0.  0.
         12    1    1    2    0    0 -0.38162177783E+02  0.24231133095E+01 -0.13818193724E+02  0.40659141273E+02  0.00000000000E+00 0. -1.
         11    1    3    3    0    0  0.20896767038E+02 -0.81398445836E+01  0.10569268308E+02  0.24791961909E+02  0.51100000000E-03 0. -1.
        -11    1    3    3    0    0  0.99492362003E+01  0.10829452869E+02 -0.27793523603E+01  0.14966267077E+02  0.51100000000E-03 0.  1.
         12    1    3    3    0    0  0.73161745445E+01 -0.51127215947E+01  0.60282777768E+01  0.10770629741E+02  0.00000000000E+00 0. -1.
</event>
<event>
 7    1  0.5849044E-013  0.5052886E+02  0.7816164E-02  0.1300439E+00
        -11   -1    0    0    0    0  0.00000000000E+00  0.00000000000E+00  0.45593999997E+02  0.45594000000E+02  0.51100000000E-03 0. -1.
         11   -1    0    0    0    0 -0.00000000000E+00 -0.00000000000E+00 -0.45593999997E+02  0.45594000000E+02  0.51100000000E-03 0.  1.
    9900012    2    1    2    0    0 -0.92318938523E+01 -0.38057194369E+02 -0.10935632076E+02  0.50528856425E+02  0.29999989588E+02 0.  0.
         12    1    1    2    0    0  0.92318938523E+01  0.38057194369E+02  0.10935632076E+02  0.40659143575E+02  0.00000000000E+00 0. -1.
         11    1    3    3    0    0  0.19265515782E+00 -0.75531002981E+01  0.26613031609E+01  0.80105539695E+01  0.51100000000E-03 0. -1.
        -11    1    3    3    0    0 -0.89951005490E+01 -0.49423379771E+01 -0.13492828474E+02  0.16952727186E+02  0.51100000000E-03 0.  1.
        -12    1    3    3    0    0 -0.42944846107E+00 -0.25561756094E+02 -0.10410676311E+00  0.25565575269E+02  0.00000000000E+00 0.  1.
</event>
<event>
 7    1  0.5849044E-013  0.5052885E+02  0.7816164E-02  0.1300439E+00
        -11   -1    0    0    0    0  0.00000000000E+00  0.00000000000E+00  0.45593999997E+02  0.45594000000E+02  0.51100000000E-03 0. -1.
         11   -1    0    0    0    0 -0.00000000000E+00 -0.00000000000E+00 -0.45593999997E+02  0.45594000000E+02  0.51100000000E-03 0.  1.
    9900012    2    1    2    0    0  0.14351361142E+02 -0.37985547571E+02 -0.20743181068E+01  0.50528853593E+02  0.29999980983E+02 0.  0.
         12    1    1    2    0    0 -0.14351361142E+02  0.37985547571E+02  0.20743181068E+01  0.40659146407E+02  0.00000000000E+00 0. -1.
         11    1    3    3    0    0  0.26770923538E+01 -0.11315872499E+02 -0.10874517294E+02  0.15920770098E+02  0.51100000000E-03 0.  1.
        -11    1    3    3    0    0  0.73840756752E+01 -0.26868846454E+02  0.10781752843E+02  0.29878180634E+02  0.51100000000E-03 0. -1.
        -12    1    3    3    0    0  0.42901931133E+01  0.19917138156E+00 -0.19815536562E+01  0.47299028617E+01  0.00000000000E+00 0.  1.
</event>
<event>
 7    1  0.5849044E-013  0.5052884E+02  0.7816164E-02  0.1300439E+00
        -11   -1    0    0    0    0  0.00000000000E+00  0.00000000000E+00  0.45593999997E+02  0.45594000000E+02  0.51100000000E-03 0.  1.
         11   -1    0    0    0    0 -0.00000000000E+00 -0.00000000000E+00 -0.45593999997E+02  0.45594000000E+02  0.51100000000E-03 0. -1.
    9900012    2    1    2    0    0 -0.20632073540E+02  0.34639602507E+02 -0.52519058777E+01  0.50528843150E+02  0.29999949238E+02 0.  0.
         12    1    1    2    0    0  0.20632073540E+02 -0.34639602507E+02  0.52519058777E+01  0.40659156850E+02  0.00000000000E+00 0. -1.
         11    1    3    3    0    0  0.71412046415E+01  0.92730825678E+01 -0.75191501589E+00  0.11728266730E+02  0.51100000000E-03 0. -1.
        -11    1    3    3    0    0 -0.23374009594E+01  0.58126726621E+01  0.67998275933E+00  0.63018238261E+01  0.51100000000E-03 0.  1.
         12    1    3    3    0    0 -0.25435877222E+02  0.19553847277E+02 -0.51799736211E+01  0.32498752593E+02  0.00000000000E+00 0. -1.
</event>
<event>
 7    1  0.5849044E-013  0.5052885E+02  0.7816164E-02  0.1300439E+00
        -11   -1    0    0    0    0  0.00000000000E+00  0.00000000000E+00  0.45593999997E+02  0.45594000000E+02  0.51100000000E-03 0.  1.
         11   -1    0    0    0    0 -0.00000000000E+00 -0.00000000000E+00 -0.45593999997E+02  0.45594000000E+02  0.51100000000E-03 0. -1.
    9900012    2    1    2    0    0  0.11304225446E+02  0.28690677536E+02  0.26499539672E+02  0.50528854741E+02  0.29999984469E+02 0.  0.
         12    1    1    2    0    0 -0.11304225446E+02 -0.28690677536E+02 -0.26499539672E+02  0.40659145259E+02  0.00000000000E+00 0. -1.
         11    1    3    3    0    0 -0.57392251080E+01  0.16942645012E+02  0.19828186984E+02  0.26704848327E+02  0.51100000000E-03 0. -1.
        -11    1    3    3    0    0  0.11834750429E+02  0.92742120794E+01  0.90912368667E+01  0.17570512669E+02  0.51100000000E-03 0.  1.
         12    1    3    3    0    0  0.52087001250E+01  0.24738204443E+01 -0.24198841781E+01  0.62534937450E+01  0.00000000000E+00 0. -1.
</event>
<event>
 7    1  0.5849044E-013  0.5052888E+02  0.7816164E-02  0.1300439E+00
        -11   -1    0    0    0    0  0.00000000000E+00  0.00000000000E+00  0.45593999997E+02  0.45594000000E+02  0.51100000000E-03 0.  1.
         11   -1    0    0    0    0 -0.00000000000E+00 -0.00000000000E+00 -0.45593999997E+02  0.45594000000E+02  0.51100000000E-03 0. -1.
    9900012    2    1    2    0    0 -0.12920697286E+02 -0.30323817402E+02  0.23805170018E+02  0.50528875074E+02  0.30000046274E+02 0.  0.
         12    1    1    2    0    0  0.12920697286E+02  0.30323817402E+02 -0.23805170018E+02  0.40659124926E+02  0.00000000000E+00 0. -1.
         11    1    3    3    0    0 -0.18372989979E+02 -0.10275115318E+02  0.83660854029E+01  0.22652508488E+02  0.51100000000E-03 0. -1.
        -11    1    3    3    0    0  0.52122396472E+01 -0.17037949207E+02  0.16867681796E+02  0.24535236798E+02  0.51100000000E-03 0.  1.
        -12    1    3    3    0    0  0.24005304595E+00 -0.30107528774E+01 -0.14285971810E+01  0.33411297878E+01  0.00000000000E+00 0.  1.
</event>
<event>
 7    1  0.5849044E-013  0.5052886E+02  0.7816164E-02  0.1300439E+00
        -11   -1    0    0    0    0  0.00000000000E+00  0.00000000000E+00  0.45593999997E+02  0.45594000000E+02  0.51100000000E-03 0.  1.
         11   -1    0    0    0    0 -0.00000000000E+00 -0.00000000000E+00 -0.45593999997E+02  0.45594000000E+02  0.51100000000E-03 0. -1.
    9900012    2    1    2    0    0 -0.12940618448E+02 -0.62554867264E+01  0.38033864296E+02  0.50528861381E+02  0.30000004653E+02 0.  0.
         12    1    1    2    0    0  0.12940618448E+02  0.62554867264E+01 -0.38033864296E+02  0.40659138619E+02  0.00000000000E+00 0. -1.
         11    1    3    3    0    0  0.50161479214E+01  0.62163157182E+01  0.70002499612E+01  0.10621102620E+02  0.51100000000E-03 0. -1.
        -11    1    3    3    0    0 -0.13414820871E+02 -0.52134310207E+01  0.26651404520E+02  0.30289183633E+02  0.51100000000E-03 0.  1.
         12    1    3    3    0    0 -0.45419454979E+01 -0.72583714239E+01  0.43822098142E+01  0.96185751277E+01  0.00000000000E+00 0. -1.
</event>
<event>
 7    1  0.5849044E-013  0.5052886E+02  0.7816164E-02  0.1300439E+00
        -11   -1    0    0    0    0  0.00000000000E+00  0.00000000000E+00  0.45593999997E+02  0.45594000000E+02  0.51100000000E-03 0.  1.
         11   -1    0    0    0    0 -0.00000000000E+00 -0.00000000000E+00 -0.45593999997E+02  0.45594000000E+02  0.51100000000E-03 0. -1.
    9900012    2    1    2    0    0  0.87769620303E+01 -0.32655832646E+02  0.22577134800E+02  0.50528862231E+02  0.30000007238E+02 0.  0.
         12    1    1    2    0    0 -0.87769620303E+01  0.32655832646E+02 -0.22577134800E+02  0.40659137769E+02  0.00000000000E+00 0. -1.
         11    1    3    3    0    0 -0.75611080738E+00 -0.36361182676E+01 -0.42034463114E+01  0.56091016004E+01  0.51100000000E-03 0. -1.
        -11    1    3    3    0    0  0.14343511610E+02 -0.21531000625E+02  0.24722289235E+02  0.35784240924E+02  0.51100000000E-03 0.  1.
        -12    1    3    3    0    0 -0.48104387722E+01 -0.74887137538E+01  0.20582918763E+01  0.91355197069E+01  0.00000000000E+00 0.  1.
</event>
<event>
 7    1  0.5849044E-013  0.5052873E+02  0.7816164E-02  0.1300439E+00
        -11   -1    0    0    0    0  0.00000000000E+00  0.00000000000E+00  0.45593999997E+02  0.45594000000E+02  0.51100000000E-03 0. -1.
         11   -1    0    0    0    0 -0.00000000000E+00 -0.00000000000E+00 -0.45593999997E+02  0.45594000000E+02  0.51100000000E-03 0.  1.
    9900012    2    1    2    0    0 -0.35403665826E+02  0.19966557131E+02  0.10456487394E+01  0.50528728746E+02  0.29999601494E+02 0.  0.
         12    1    1    2    0    0  0.35403665826E+02 -0.19966557131E+02 -0.10456487394E+01  0.40659271254E+02  0.00000000000E+00 0. -1.
         11    1    3    3    0    0 -0.16698561648E+00 -0.13050998092E+01 -0.76373266022E+01  0.77498340368E+01  0.51100000000E-03 0. -1.
        -11    1    3    3    0    0 -0.20827247786E+02  0.15504250684E+02  0.82803349964E+01  0.27252889527E+02  0.51100000000E-03 0.  1.
         12    1    3    3    0    0 -0.14409432424E+02  0.57674062556E+01  0.40264034524E+00  0.15526005183E+02  0.00000000000E+00 0. -1.
</event>
<event>
 7    1  0.5849044E-013  0.5052887E+02  0.7816164E-02  0.1300439E+00
        -11   -1    0    0    0    0  0.00000000000E+00  0.00000000000E+00  0.45593999997E+02  0.45594000000E+02  0.51100000000E-03 0. -1.
         11   -1    0    0    0    0 -0.00000000000E+00 -0.00000000000E+00 -0.45593999997E+02  0.45594000000E+02  0.51100000000E-03 0.  1.
    9900012    2    1    2    0    0 -0.35410088635E+02  0.71511211378E+01 -0.18658835589E+02  0.50528867493E+02  0.30000023233E+02 0.  0.
         12    1    1    2    0    0  0.35410088635E+02 -0.71511211378E+01  0.18658835589E+02  0.40659132507E+02  0.00000000000E+00 0. -1.
         11    1    3    3    0    0  0.35385721056E+01 -0.30047134681E+01 -0.47608377275E+00  0.46665245732E+01  0.51100000000E-03 0. -1.
        -11    1    3    3    0    0 -0.23881660172E+02  0.12237340736E+02 -0.10427322295E+02  0.28789151626E+02  0.51100000000E-03 0.  1.
        -12    1    3    3    0    0 -0.15067000568E+02 -0.20815061300E+01 -0.77554295209E+01  0.17073191294E+02  0.00000000000E+00 0.  1.
</event>
<event>
 7    1  0.5849044E-013  0.5052889E+02  0.7816164E-02  0.1300439E+00
        -11   -1    0    0    0    0  0.00000000000E+00  0.00000000000E+00  0.45593999997E+02  0.45594000000E+02  0.51100000000E-03 0. -1.
         11   -1    0    0    0    0 -0.00000000000E+00 -0.00000000000E+00 -0.45593999997E+02  0.45594000000E+02  0.51100000000E-03 0.  1.
    9900012    2    1    2    0    0  0.28515032550E+01 -0.37230573618E+02  0.16090890840E+02  0.50528887236E+02  0.30000083241E+02 0.  0.
         12    1    1    2    0    0 -0.28515032550E+01  0.37230573618E+02 -0.16090890840E+02  0.40659112764E+02  0.00000000000E+00 0. -1.
         11    1    3    3    0    0  0.31448920158E+01  0.12290322426E+01  0.90725290958E+01  0.96804778033E+01  0.51100000000E-03 0. -1.
        -11    1    3    3    0    0 -0.36067692531E+00 -0.24665615818E+02 -0.13659852472E+01  0.24706043946E+02  0.51100000000E-03 0.  1.
        -12    1    3    3    0    0  0.67288164490E-01 -0.13793990043E+02  0.83843469916E+01  0.16142365486E+02  0.00000000000E+00 0.  1.
</event>
<event>
 7    1  0.5849044E-013  0.5052887E+02  0.7816164E-02  0.1300439E+00
        -11   -1    0    0    0    0  0.00000000000E+00  0.00000000000E+00  0.45593999997E+02  0.45594000000E+02  0.51100000000E-03 0. -1.
         11   -1    0    0    0    0 -0.00000000000E+00 -0.00000000000E+00 -0.45593999997E+02  0.45594000000E+02  0.51100000000E-03 0.  1.
    9900012    2    1    2    0    0 -0.25496655866E+02  0.92540701076E+01 -0.30289402105E+02  0.50528866293E+02  0.30000019584E+02 0.  0.
         12    1    1    2    0    0  0.25496655866E+02 -0.92540701076E+01  0.30289402105E+02  0.40659133707E+02  0.00000000000E+00 0. -1.
         11    1    3    3    0    0 -0.34920987742E+01 -0.48438337700E+01 -0.62868939121E+01  0.86707851296E+01  0.51100000000E-03 0. -1.
        -11    1    3    3    0    0 -0.19288517339E+02  0.12585871900E+02 -0.28341964639E+02  0.36520104497E+02  0.51100000000E-03 0.  1.
        -12    1    3    3    0    0 -0.27160397529E+01  0.15120319779E+01  0.43394564460E+01  0.53379766662E+01  0.00000000000E+00 0.  1.
</event>
<event>
 7    1  0.5849044E-013  0.5052887E+02  0.7816164E-02  0.1300439E+00
        -11   -1    0    0    0    0  0.00000000000E+00  0.00000000000E+00  0.45593999997E+02  0.45594000000E+02  0.51100000000E-03 0. -1.
         11   -1    0    0    0    0 -0.00000000000E+00 -0.00000000000E+00 -0.45593999997E+02  0.45594000000E+02  0.51100000000E-03 0.  1.
    9900012    2    1    2    0    0 -0.28237738643E+01  0.80750337566E+01 -0.39749027911E+02  0.50528867092E+02  0.30000022012E+02 0.  0.
         12    1    1    2    0    0  0.28237738643E+01 -0.80750337566E+01  0.39749027911E+02  0.40659132908E+02  0.00000000000E+00 0. -1.
         11    1    3    3    0    0 -0.13368300491E+01  0.14153313492E+02 -0.14133385574E+02  0.20046345937E+02  0.51100000000E-03 0. -1.
        -11    1    3    3    0    0 -0.71262102933E+01 -0.61020997237E+01 -0.92602583583E+01  0.13182218300E+02  0.51100000000E-03 0.  1.
         12    1    3    3    0    0  0.56392664780E+01  0.23819988831E-01 -0.16355383978E+02  0.17300302855E+02  0.00000000000E+00 0. -1.
</event>
<event>
 7    1  0.5849044E-013  0.5052886E+02  0.7816164E-02  0.1300439E+00
        -11   -1    0    0    0    0  0.00000000000E+00  0.00000000000E+00  0.45593999997E+02  0.45594000000E+02  0.51100000000E-03 0.  1.
         11   -1    0    0    0    0 -0.00000000000E+00 -0.00000000000E+00 -0.45593999997E+02  0.45594000000E+02  0.51100000000E-03 0. -1.
    9900012    2    1    2    0    0  0.37534671268E+00  0.40640903999E+02 -0.11581791266E+01  0.50528863980E+02  0.30000012554E+02 0.  0.
         12    1    1    2    0    0 -0.37534671268E+00 -0.40640903999E+02  0.11581791266E+01  0.40659136020E+02  0.00000000000E+00 0. -1.
         11    1    3    3    0    0 -0.15260317586E+01  0.76942309995E+01 -0.44551168393E+01  0.90209772151E+01  0.51100000000E-03 0. -1.
        -11    1    3    3    0    0 -0.82633575946E+01  0.52490019678E+01  0.66194467480E+01  0.11817452175E+02  0.51100000000E-03 0.  1.
        -12    1    3    3    0    0  0.10164736066E+02  0.27697671032E+02 -0.33225090352E+01  0.29690434590E+02  0.00000000000E+00 0.  1.
</event>
<event>
 7    1  0.5849044E-013  0.5052885E+02  0.7816164E-02  0.1300439E+00
        -11   -1    0    0    0    0  0.00000000000E+00  0.00000000000E+00  0.45593999997E+02  0.45594000000E+02  0.51100000000E-03 0. -1.
         11   -1    0    0    0    0 -0.00000000000E+00 -0.00000000000E+00 -0.45593999997E+02  0.45594000000E+02  0.51100000000E-03 0.  1.
    9900012    2    1    2    0    0  0.86277111920E+01 -0.10109005507E+02 -0.38425731530E+02  0.50528852980E+02  0.29999979118E+02 0.  0.
         12    1    1    2    0    0 -0.86277111920E+01  0.10109005507E+02  0.38425731530E+02  0.40659147020E+02  0.00000000000E+00 0. -1.
         11    1    3    3    0    0 -0.62008090042E+01 -0.10330574719E+02 -0.12411648078E+02  0.17297971401E+02  0.51100000000E-03 0. -1.
        -11    1    3    3    0    0  0.33036820765E+01  0.63815761075E+01 -0.12590966666E+02  0.14497284943E+02  0.51100000000E-03 0.  1.
         12    1    3    3    0    0  0.11524838120E+02 -0.61600068956E+01 -0.13423116787E+02  0.18733596636E+02  0.00000000000E+00 0. -1.
</event>
<event>
 7    1  0.5849044E-013  0.5052886E+02  0.7816164E-02  0.1300439E+00
        -11   -1    0    0    0    0  0.00000000000E+00  0.00000000000E+00  0.45593999997E+02  0.45594000000E+02  0.51100000000E-03 0.  1.
         11   -1    0    0    0    0 -0.00000000000E+00 -0.00000000000E+00 -0.45593999997E+02  0.45594000000E+02  0.51100000000E-03 0. -1.
    9900012    2    1    2    0    0 -0.28994510927E+02  0.72162278992E+01  0.27575531035E+02  0.50528861779E+02  0.30000005864E+02 0.  0.
         12    1    1    2    0    0  0.28994510927E+02 -0.72162278992E+01 -0.27575531035E+02  0.40659138221E+02  0.00000000000E+00 0. -1.
         11    1    3    3    0    0 -0.17559297905E+02  0.45358222403E+01  0.68337438050E+01  0.19380471639E+02  0.51100000000E-03 0. -1.
        -11    1    3    3    0    0 -0.71200953829E+01 -0.64560456178E+01  0.18426223752E+02  0.20782252171E+02  0.51100000000E-03 0.  1.
        -12    1    3    3    0    0 -0.43151176393E+01  0.91364512767E+01  0.23155634783E+01  0.10366137969E+02  0.00000000000E+00 0.  1.
</event>
<event>
 7    1  0.5849044E-013  0.5052886E+02  0.7816164E-02  0.1300439E+00
        -11   -1    0    0    0    0  0.00000000000E+00  0.00000000000E+00  0.45593999997E+02  0.45594000000E+02  0.51100000000E-03 0. -1.
         11   -1    0    0    0    0 -0.00000000000E+00 -0.00000000000E+00 -0.45593999997E+02  0.45594000000E+02  0.51100000000E-03 0.  1.
    9900012    2    1    2    0    0  0.33024072920E+02  0.18795069278E+02 -0.14467940076E+02  0.50528864354E+02  0.30000013691E+02 0.  0.
         12    1    1    2    0    0 -0.33024072920E+02 -0.18795069278E+02  0.14467940076E+02  0.40659135646E+02  0.00000000000E+00 0. -1.
         11    1    3    3    0    0  0.30275039132E+02  0.13728367439E+02 -0.17222883267E+02  0.37438933949E+02  0.51100000000E-03 0.  1.
        -11    1    3    3    0    0 -0.10592275039E+01 -0.20415723903E+01  0.43024622952E+01  0.48786435403E+01  0.51100000000E-03 0. -1.
        -12    1    3    3    0    0  0.38082612921E+01  0.71082742300E+01 -0.15475191044E+01  0.82112868648E+01  0.00000000000E+00 0.  1.
</event>
<event>
 7    1  0.5849044E-013  0.5052886E+02  0.7816164E-02  0.1300439E+00
        -11   -1    0    0    0    0  0.00000000000E+00  0.00000000000E+00  0.45593999997E+02  0.45594000000E+02  0.51100000000E-03 0.  1.
         11   -1    0    0    0    0 -0.00000000000E+00 -0.00000000000E+00 -0.45593999997E+02  0.45594000000E+02  0.51100000000E-03 0. -1.
    9900012    2    1    2    0    0 -0.15178776051E+02  0.68277024737E+01  0.37096537900E+02  0.50528857269E+02  0.29999992155E+02 0.  0.
         12    1    1    2    0    0  0.15178776051E+02 -0.68277024737E+01 -0.37096537900E+02  0.40659142731E+02  0.00000000000E+00 0. -1.
         11    1    3    3    0    0 -0.14112848154E+02  0.33259087143E+01  0.29642827486E+02  0.32998960187E+02  0.51100000000E-03 0.  1.
        -11    1    3    3    0    0  0.40647056731E+00  0.86258598332E+01  0.34268765348E+00  0.86422283743E+01  0.51100000000E-03 0. -1.
         12    1    3    3    0    0 -0.14723984643E+01 -0.51240660738E+01  0.71110227600E+01  0.88876687078E+01  0.00000000000E+00 0. -1.
</event>
<event>
 7    1  0.5849044E-013  0.5052888E+02  0.7816164E-02  0.1300439E+00
        -11   -1    0    0    0    0  0.00000000000E+00  0.00000000000E+00  0.45593999997E+02  0.45594000000E+02  0.51100000000E-03 0.  1.
         11   -1    0    0    0    0 -0.00000000000E+00 -0.00000000000E+00 -0.45593999997E+02  0.45594000000E+02  0.51100000000E-03 0. -1.
    9900012    2    1    2    0    0 -0.14279824248E+02  0.20801733410E+01  0.38012151271E+02  0.50528878687E+02  0.30000057257E+02 0.  0.
         12    1    1    2    0    0  0.14279824248E+02 -0.20801733410E+01 -0.38012151271E+02  0.40659121313E+02  0.00000000000E+00 0. -1.
         11    1    3    3    0    0 -0.10782112036E+02  0.62904881298E+01  0.79641843725E+01  0.14807174404E+02  0.51100000000E-03 0. -1.
        -11    1    3    3    0    0 -0.14361197319E+01 -0.11522675222E+02  0.19974410768E+02  0.23104362574E+02  0.51100000000E-03 0.  1.
        -12    1    3    3    0    0 -0.20615924806E+01  0.73123604337E+01  0.10073556131E+02  0.12617341708E+02  0.00000000000E+00 0.  1.
</event>
<event>
 7    1  0.5849044E-013  0.5052886E+02  0.7816164E-02  0.1300439E+00
        -11   -1    0    0    0    0  0.00000000000E+00  0.00000000000E+00  0.45593999997E+02  0.45594000000E+02  0.51100000000E-03 0.  1.
         11   -1    0    0    0    0 -0.00000000000E+00 -0.00000000000E+00 -0.45593999997E+02  0.45594000000E+02  0.51100000000E-03 0. -1.
    9900012    2    1    2    0    0  0.14444880125E+00  0.27259743914E+02  0.30167051431E+02  0.50528862088E+02  0.30000006801E+02 0.  0.
         12    1    1    2    0    0 -0.14444880125E+00 -0.27259743914E+02 -0.30167051431E+02  0.40659137912E+02  0.00000000000E+00 0. -1.
         11    1    3    3    0    0 -0.70492809308E+01  0.16243507498E+02  0.28298129924E+02  0.33381552614E+02  0.51100000000E-03 0.  1.
        -11    1    3    3    0    0  0.31641090453E+00  0.92707143859E+01 -0.13176415294E+01  0.93692283859E+01  0.51100000000E-03 0. -1.
        -12    1    3    3    0    0  0.68773188275E+01  0.17455220301E+01  0.31865630365E+01  0.77780810872E+01  0.00000000000E+00 0.  1.
</event>
<event>
 7    1  0.5849044E-013  0.5052887E+02  0.7816164E-02  0.1300439E+00
        -11   -1    0    0    0    0  0.00000000000E+00  0.00000000000E+00  0.45593999997E+02  0.45594000000E+02  0.51100000000E-03 0.  1.
         11   -1    0    0    0    0 -0.00000000000E+00 -0.00000000000E+00 -0.45593999997E+02  0.45594000000E+02  0.51100000000E-03 0. -1.
    9900012    2    1    2    0    0 -0.77450939119E+01  0.29965417218E+02  0.26367638429E+02  0.50528867384E+02  0.30000022901E+02 0.  0.
         12    1    1    2    0    0  0.77450939119E+01 -0.29965417218E+02 -0.26367638429E+02  0.40659132616E+02  0.00000000000E+00 0. -1.
         11    1    3    3    0    0 -0.44325580644E+01  0.78307968737E+01  0.27695226648E+01  0.94148397078E+01  0.51100000000E-03 0. -1.
        -11    1    3    3    0    0  0.98790828403E+01  0.39994920821E+01  0.41748922580E+01  0.11446481569E+02  0.51100000000E-03 0.  1.
        -12    1    3    3    0    0 -0.13191618688E+02  0.18135128262E+02  0.19423223506E+02  0.29667546108E+02  0.00000000000E+00 0.  1.
</event>
<event>
 7    1  0.5849044E-013  0.5052886E+02  0.7816164E-02  0.1300439E+00
        -11   -1    0    0    0    0  0.00000000000E+00  0.00000000000E+00  0.45593999997E+02  0.45594000000E+02  0.51100000000E-03 0.  1.
         11   -1    0    0    0    0 -0.00000000000E+00 -0.00000000000E+00 -0.45593999997E+02  0.45594000000E+02  0.51100000000E-03 0. -1.
    9900012    2    1    2    0    0 -0.18770274260E+02  0.18529708997E+02  0.30943371273E+02  0.50528861580E+02  0.30000005258E+02 0.  0.
         12    1    1    2    0    0  0.18770274260E+02 -0.18529708997E+02 -0.30943371273E+02  0.40659138420E+02  0.00000000000E+00 0. -1.
         11    1    3    3    0    0  0.22955242145E+01  0.15810115031E+02  0.91484971094E+01  0.18409893219E+02  0.51100000000E-03 0. -1.
        -11    1    3    3    0    0 -0.43409041466E+01 -0.27831979030E+01  0.89334879375E+01  0.10314884700E+02  0.51100000000E-03 0.  1.
         12    1    3    3    0    0 -0.16724894328E+02  0.55027918690E+01  0.12861386226E+02  0.21804083661E+02  0.00000000000E+00 0. -1.
</event>
<event>
 7    1  0.5849044E-013  0.5052884E+02  0.7816164E-02  0.1300439E+00
        -11   -1    0    0    0    0  0.00000000000E+00  0.00000000000E+00  0.45593999997E+02  0.45594000000E+02  0.51100000000E-03 0. -1.
         11   -1    0    0    0    0 -0.00000000000E+00 -0.00000000000E+00 -0.45593999997E+02  0.45594000000E+02  0.51100000000E-03 0.  1.
    9900012    2    1    2    0    0  0.26673649416E+01  0.15528143310E+02 -0.37482381089E+02  0.50528844051E+02  0.29999951977E+02 0.  0.
         12    1    1    2    0    0 -0.26673649416E+01 -0.15528143310E+02  0.37482381089E+02  0.40659155949E+02  0.00000000000E+00 0. -1.
         11    1    3    3    0    0  0.93283534954E+01  0.54659104715E+01 -0.11330087687E+01  0.10870973524E+02  0.51100000000E-03 0. -1.
        -11    1    3    3    0    0 -0.32401700917E+01  0.93212095235E+01 -0.14559750824E+02  0.17588916781E+02  0.51100000000E-03 0.  1.
         12    1    3    3    0    0 -0.34208184621E+01  0.74102331546E+00 -0.21789621496E+02  0.22068953746E+02  0.00000000000E+00 0. -1.
</event>
<event>
 7    1  0.5849044E-013  0.5052886E+02  0.7816164E-02  0.1300439E+00
        -11   -1    0    0    0    0  0.00000000000E+00  0.00000000000E+00  0.45593999997E+02  0.45594000000E+02  0.51100000000E-03 0. -1.
         11   -1    0    0    0    0 -0.00000000000E+00 -0.00000000000E+00 -0.45593999997E+02  0.45594000000E+02  0.51100000000E-03 0.  1.
    9900012    2    1    2    0    0  0.21059833966E+02 -0.17842635391E+02 -0.29854469088E+02  0.50528861188E+02  0.30000004068E+02 0.  0.
         12    1    1    2    0    0 -0.21059833966E+02  0.17842635391E+02  0.29854469088E+02  0.40659138812E+02  0.00000000000E+00 0. -1.
         11    1    3    3    0    0  0.15465457944E+02 -0.17496955790E+02 -0.14497584831E+02  0.27486429698E+02  0.51100000000E-03 0. -1.
        -11    1    3    3    0    0  0.10008693078E+02  0.41610481530E+01 -0.90284140447E+01  0.14106754385E+02  0.51100000000E-03 0.  1.
        -12    1    3    3    0    0 -0.44143170552E+01 -0.45067277534E+01 -0.63284702121E+01  0.89356771055E+01  0.00000000000E+00 0.  1.
</event>
<event>
 7    1  0.5849044E-013  0.5052887E+02  0.7816164E-02  0.1300439E+00
        -11   -1    0    0    0    0  0.00000000000E+00  0.00000000000E+00  0.45593999997E+02  0.45594000000E+02  0.51100000000E-03 0.  1.
         11   -1    0    0    0    0 -0.00000000000E+00 -0.00000000000E+00 -0.45593999997E+02  0.45594000000E+02  0.51100000000E-03 0. -1.
    9900012    2    1    2    0    0  0.17590716972E+02 -0.13296919642E+02  0.34160256712E+02  0.50528873913E+02  0.30000042745E+02 0.  0.
         12    1    1    2    0    0 -0.17590716972E+02  0.13296919642E+02 -0.34160256712E+02  0.40659126087E+02  0.00000000000E+00 0. -1.
         11    1    3    3    0    0  0.86397649504E+01 -0.25305641947E+01 -0.33724489921E+01  0.96136728677E+01  0.51100000000E-03 0. -1.
        -11    1    3    3    0    0  0.79431126209E+01 -0.60732698530E+01  0.16105460951E+02  0.18956885755E+02  0.51100000000E-03 0.  1.
         12    1    3    3    0    0  0.10078394004E+01 -0.46930855938E+01  0.21427244754E+02  0.21958315290E+02  0.00000000000E+00 0. -1.
</event>
<event>
 7    1  0.5849044E-013  0.5052886E+02  0.7816164E-02  0.1300439E+00
        -11   -1    0    0    0    0  0.00000000000E+00  0.00000000000E+00  0.45593999997E+02  0.45594000000E+02  0.51100000000E-03 0.  1.
         11   -1    0    0    0    0 -0.00000000000E+00 -0.00000000000E+00 -0.45593999997E+02  0.45594000000E+02  0.51100000000E-03 0. -1.
    9900012    2    1    2    0    0  0.70714823127E+01 -0.34668625338E+02  0.20031136955E+02  0.50528857208E+02  0.29999991969E+02 0.  0.
         12    1    1    2    0    0 -0.70714823127E+01  0.34668625338E+02 -0.20031136955E+02  0.40659142792E+02  0.00000000000E+00 0. -1.
         11    1    3    3    0    0  0.11230098385E+02 -0.10111367707E+02  0.31413376467E+00  0.15114679848E+02  0.51100000000E-03 0. -1.
        -11    1    3    3    0    0 -0.99563032810E+01 -0.12116419076E+02  0.10974114091E+02  0.19140709668E+02  0.51100000000E-03 0.  1.
        -12    1    3    3    0    0  0.57976872089E+01 -0.12440838555E+02  0.87428890993E+01  0.16273467692E+02  0.00000000000E+00 0.  1.
</event>
<event>
 7    1  0.5849044E-013  0.5052886E+02  0.7816164E-02  0.1300439E+00
        -11   -1    0    0    0    0  0.00000000000E+00  0.00000000000E+00  0.45593999997E+02  0.45594000000E+02  0.51100000000E-03 0.  1.
         11   -1    0    0    0    0 -0.00000000000E+00 -0.00000000000E+00 -0.45593999997E+02  0.45594000000E+02  0.51100000000E-03 0. -1.
    9900012    2    1    2    0    0  0.24930157970E+01  0.35501678677E+02  0.19661679562E+02  0.50528856381E+02  0.29999989454E+02 0.  0.
         12    1    1    2    0    0 -0.24930157970E+01 -0.35501678677E+02 -0.19661679562E+02  0.40659143619E+02  0.00000000000E+00 0. -1.
         11    1    3    3    0    0 -0.13799897713E+01 -0.44033554022E+01  0.24407838905E+00  0.46209831300E+01  0.51100000000E-03 0. -1.
        -11    1    3    3    0    0 -0.39149183370E+01  0.15081077394E+02  0.74483260366E+01  0.17269714588E+02  0.51100000000E-03 0.  1.
         12    1    3    3    0    0  0.77879239054E+01  0.24823956685E+02  0.11969275136E+02  0.28638158662E+02  0.00000000000E+00 0. -1.
</event>
<event>
 7    1  0.5849044E-013  0.5052886E+02  0.7816164E-02  0.1300439E+00
        -11   -1    0    0    0    0  0.00000000000E+00  0.00000000000E+00  0.45593999997E+02  0.45594000000E+02  0.51100000000E-03 0.  1.
         11   -1    0    0    0    0 -0.00000000000E+00 -0.00000000000E+00 -0.45593999997E+02  0.45594000000E+02  0.51100000000E-03 0. -1.
    9900012    2    1    2    0    0  0.10131990423E+02 -0.16806598092E+02  0.35609646882E+02  0.50528856865E+02  0.29999990928E+02 0.  0.
         12    1    1    2    0    0 -0.10131990423E+02  0.16806598092E+02 -0.35609646882E+02  0.40659143135E+02  0.00000000000E+00 0. -1.
         11    1    3    3    0    0  0.10712858431E+02 -0.77775808820E+00  0.22832770669E+02  0.25233027169E+02  0.51100000000E-03 0. -1.
        -11    1    3    3    0    0  0.61948020669E+01 -0.12040627895E+02  0.56088039232E+01  0.14656431164E+02  0.51100000000E-03 0.  1.
         12    1    3    3    0    0 -0.67756700746E+01 -0.39882121088E+01  0.71680722897E+01  0.10639398533E+02  0.00000000000E+00 0. -1.
</event>
<event>
 7    1  0.5849044E-013  0.5052885E+02  0.7816164E-02  0.1300439E+00
        -11   -1    0    0    0    0  0.00000000000E+00  0.00000000000E+00  0.45593999997E+02  0.45594000000E+02  0.51100000000E-03 0. -1.
         11   -1    0    0    0    0 -0.00000000000E+00 -0.00000000000E+00 -0.45593999997E+02  0.45594000000E+02  0.51100000000E-03 0.  1.
    9900012    2    1    2    0    0 -0.26151242071E+02 -0.12295571174E+01 -0.31108950886E+02  0.50528854684E+02  0.29999984297E+02 0.  0.
         12    1    1    2    0    0  0.26151242071E+02  0.12295571174E+01  0.31108950886E+02  0.40659145316E+02  0.00000000000E+00 0. -1.
         11    1    3    3    0    0 -0.58717690902E+01  0.10130983636E+02 -0.22249409842E+02  0.25142608064E+02  0.51100000000E-03 0. -1.
        -11    1    3    3    0    0 -0.14249714002E+02 -0.54868378948E+01 -0.68289359967E+01  0.16727047149E+02  0.51100000000E-03 0.  1.
         12    1    3    3    0    0 -0.60297589789E+01 -0.58737028587E+01 -0.20306050480E+01  0.86591994709E+01  0.00000000000E+00 0. -1.
</event>
<event>
 7    1  0.5849044E-013  0.5052886E+02  0.7816164E-02  0.1300439E+00
        -11   -1    0    0    0    0  0.00000000000E+00  0.00000000000E+00  0.45593999997E+02  0.45594000000E+02  0.51100000000E-03 0.  1.
         11   -1    0    0    0    0 -0.00000000000E+00 -0.00000000000E+00 -0.45593999997E+02  0.45594000000E+02  0.51100000000E-03 0. -1.
    9900012    2    1    2    0    0  0.28112964720E+02  0.26832515866E+02  0.11951678783E+02  0.50528864264E+02  0.30000013417E+02 0.  0.
         12    1    1    2    0    0 -0.28112964720E+02 -0.26832515866E+02 -0.11951678783E+02  0.40659135736E+02  0.00000000000E+00 0. -1.
         11    1    3    3    0    0  0.19604519917E+01 -0.19303854876E+01 -0.55439948851E+01  0.61891550061E+01  0.51100000000E-03 0. -1.
        -11    1    3    3    0    0  0.21760869109E+02  0.17170309540E+02  0.15575080083E+02  0.31795252380E+02  0.51100000000E-03 0.  1.
         12    1    3    3    0    0  0.43916436200E+01  0.11592591814E+02  0.19205935856E+01  0.12544456878E+02  0.00000000000E+00 0. -1.
</event>
<event>
 7    1  0.5849044E-013  0.5052886E+02  0.7816164E-02  0.1300439E+00
        -11   -1    0    0    0    0  0.00000000000E+00  0.00000000000E+00  0.45593999997E+02  0.45594000000E+02  0.51100000000E-03 0.  1.
         11   -1    0    0    0    0 -0.00000000000E+00 -0.00000000000E+00 -0.45593999997E+02  0.45594000000E+02  0.51100000000E-03 0. -1.
    9900012    2    1    2    0    0 -0.22524440112E+02 -0.25160207944E+02  0.22644627169E+02  0.50528860735E+02  0.30000002690E+02 0.  0.
         12    1    1    2    0    0  0.22524440112E+02  0.25160207944E+02 -0.22644627169E+02  0.40659139265E+02  0.00000000000E+00 0. -1.
         11    1    3    3    0    0 -0.12219239833E+01  0.96315557278E+00  0.17515333129E+01  0.23427838324E+01  0.51100000000E-03 0. -1.
        -11    1    3    3    0    0 -0.22233373816E+02 -0.26112765418E+02  0.25973439057E+02  0.43021145566E+02  0.51100000000E-03 0.  1.
        -12    1    3    3    0    0  0.93085768764E+00 -0.10598098340E-01 -0.50803452011E+01  0.51649313371E+01  0.00000000000E+00 0.  1.
</event>
<event>
 7    1  0.5849044E-013  0.5052887E+02  0.7816164E-02  0.1300439E+00
        -11   -1    0    0    0    0  0.00000000000E+00  0.00000000000E+00  0.45593999997E+02  0.45594000000E+02  0.51100000000E-03 0.  1.
         11   -1    0    0    0    0 -0.00000000000E+00 -0.00000000000E+00 -0.45593999997E+02  0.45594000000E+02  0.51100000000E-03 0. -1.
    9900012    2    1    2    0    0  0.24286868579E+02  0.95308806903E+01  0.31184529394E+02  0.50528873772E+02  0.30000042317E+02 0.  0.
         12    1    1    2    0    0 -0.24286868579E+02 -0.95308806903E+01 -0.31184529394E+02  0.40659126228E+02  0.00000000000E+00 0. -1.
         11    1    3    3    0    0  0.24318294005E+02  0.12122850532E+02  0.16846622453E+02  0.31971105966E+02  0.51100000000E-03 0. -1.
        -11    1    3    3    0    0  0.38058597593E+01  0.29464225060E+01  0.42168123734E+01  0.63990218740E+01  0.51100000000E-03 0.  1.
         12    1    3    3    0    0 -0.38372851855E+01 -0.55383923482E+01  0.10121094567E+02  0.12158745932E+02  0.00000000000E+00 0. -1.
</event>
<event>
 7    1  0.5849044E-013  0.5052886E+02  0.7816164E-02  0.1300439E+00
        -11   -1    0    0    0    0  0.00000000000E+00  0.00000000000E+00  0.45593999997E+02  0.45594000000E+02  0.51100000000E-03 0.  1.
         11   -1    0    0    0    0 -0.00000000000E+00 -0.00000000000E+00 -0.45593999997E+02  0.45594000000E+02  0.51100000000E-03 0. -1.
    9900012    2    1    2    0    0  0.29198808002E+02 -0.23873236501E+02  0.15187623945E+02  0.50528859197E+02  0.29999998015E+02 0.  0.
         12    1    1    2    0    0 -0.29198808002E+02  0.23873236501E+02 -0.15187623945E+02  0.40659140803E+02  0.00000000000E+00 0. -1.
         11    1    3    3    0    0 -0.29776915466E+01 -0.91822542472E+01 -0.18290634020E+01  0.98247602107E+01  0.51100000000E-03 0. -1.
        -11    1    3    3    0    0  0.24798935640E+02 -0.90598191077E+01  0.75809557906E+01  0.27468862774E+02  0.51100000000E-03 0.  1.
         12    1    3    3    0    0  0.73775639078E+01 -0.56311631462E+01  0.94357315559E+01  0.13235236212E+02  0.00000000000E+00 0. -1.
</event>
<event>
 7    1  0.5849044E-013  0.5052886E+02  0.7816164E-02  0.1300439E+00
        -11   -1    0    0    0    0  0.00000000000E+00  0.00000000000E+00  0.45593999997E+02  0.45594000000E+02  0.51100000000E-03 0.  1.
         11   -1    0    0    0    0 -0.00000000000E+00 -0.00000000000E+00 -0.45593999997E+02  0.45594000000E+02  0.51100000000E-03 0. -1.
    9900012    2    1    2    0    0  0.18794960950E+02  0.73801711472E+01  0.35290907108E+02  0.50528860710E+02  0.30000002615E+02 0.  0.
         12    1    1    2    0    0 -0.18794960950E+02 -0.73801711472E+01 -0.35290907108E+02  0.40659139290E+02  0.00000000000E+00 0. -1.
         11    1    3    3    0    0 -0.76225472919E+01  0.44411953378E+01  0.79337296992E+01  0.11864717040E+02  0.51100000000E-03 0. -1.
        -11    1    3    3    0    0  0.59763973861E+01  0.10275638568E+01  0.28690967961E+01  0.67085713742E+01  0.51100000000E-03 0.  1.
         12    1    3    3    0    0  0.20441110856E+02  0.19114119526E+01  0.24488080613E+02  0.31955572296E+02  0.00000000000E+00 0. -1.
</event>
<event>
 7    1  0.5849044E-013  0.5052882E+02  0.7816164E-02  0.1300439E+00
        -11   -1    0    0    0    0  0.00000000000E+00  0.00000000000E+00  0.45593999997E+02  0.45594000000E+02  0.51100000000E-03 0.  1.
         11   -1    0    0    0    0 -0.00000000000E+00 -0.00000000000E+00 -0.45593999997E+02  0.45594000000E+02  0.51100000000E-03 0. -1.
    9900012    2    1    2    0    0  0.31435704043E+01  0.40443202246E+02  0.27630492534E+01  0.50528817962E+02  0.29999872678E+02 0.  0.
         12    1    1    2    0    0 -0.31435704043E+01 -0.40443202246E+02 -0.27630492534E+01  0.40659182038E+02  0.00000000000E+00 0. -1.
         11    1    3    3    0    0  0.36143963627E+01 -0.11376375979E+01 -0.38695708141E+01  0.54158710211E+01  0.51100000000E-03 0. -1.
        -11    1    3    3    0    0 -0.52302749974E+00  0.27313041767E+02 -0.36011614921E+01  0.27554385726E+02  0.51100000000E-03 0.  1.
         12    1    3    3    0    0  0.52201541423E-01  0.14267798077E+02  0.10233781560E+02  0.17558561216E+02  0.00000000000E+00 0. -1.
</event>
<event>
 7    1  0.5849044E-013  0.5052886E+02  0.7816164E-02  0.1300439E+00
        -11   -1    0    0    0    0  0.00000000000E+00  0.00000000000E+00  0.45593999997E+02  0.45594000000E+02  0.51100000000E-03 0.  1.
         11   -1    0    0    0    0 -0.00000000000E+00 -0.00000000000E+00 -0.45593999997E+02  0.45594000000E+02  0.51100000000E-03 0. -1.
    9900012    2    1    2    0    0 -0.29082242882E+02 -0.13795251988E+02  0.24841093161E+02  0.50528859110E+02  0.29999997750E+02 0.  0.
         12    1    1    2    0    0  0.29082242882E+02  0.13795251988E+02 -0.24841093161E+02  0.40659140890E+02  0.00000000000E+00 0. -1.
         11    1    3    3    0    0  0.38904450280E+01  0.51472002173E+00 -0.87570901305E+00  0.40208662939E+01  0.51100000000E-03 0. -1.
        -11    1    3    3    0    0 -0.28977046451E+02 -0.16689215538E+02  0.25111283676E+02  0.41818365636E+02  0.51100000000E-03 0.  1.
        -12    1    3    3    0    0 -0.39956414591E+01  0.23792435286E+01  0.60551849856E+00  0.46896271803E+01  0.00000000000E+00 0.  1.
</event>
<event>
 7    1  0.5849044E-013  0.5052886E+02  0.7816164E-02  0.1300439E+00
        -11   -1    0    0    0    0  0.00000000000E+00  0.00000000000E+00  0.45593999997E+02  0.45594000000E+02  0.51100000000E-03 0.  1.
         11   -1    0    0    0    0 -0.00000000000E+00 -0.00000000000E+00 -0.45593999997E+02  0.45594000000E+02  0.51100000000E-03 0. -1.
    9900012    2    1    2    0    0  0.41412577435E+01  0.16500020346E+02  0.36929184357E+02  0.50528863950E+02  0.30000012461E+02 0.  0.
         12    1    1    2    0    0 -0.41412577435E+01 -0.16500020346E+02 -0.36929184357E+02  0.40659136050E+02  0.00000000000E+00 0. -1.
         11    1    3    3    0    0 -0.86171173050E+01  0.11782478257E+02  0.10171690491E+02  0.17791705714E+02  0.51100000000E-03 0. -1.
        -11    1    3    3    0    0  0.11709803851E+02  0.53960891352E+01  0.11051397649E+02  0.16981480337E+02  0.51100000000E-03 0.  1.
         12    1    3    3    0    0  0.10485711978E+01 -0.67854704665E+00  0.15706096217E+02  0.15755677898E+02  0.00000000000E+00 0. -1.
</event>
<event>
 7    1  0.5849044E-013  0.5052885E+02  0.7816164E-02  0.1300439E+00
        -11   -1    0    0    0    0  0.00000000000E+00  0.00000000000E+00  0.45593999997E+02  0.45594000000E+02  0.51100000000E-03 0.  1.
         11   -1    0    0    0    0 -0.00000000000E+00 -0.00000000000E+00 -0.45593999997E+02  0.45594000000E+02  0.51100000000E-03 0. -1.
    9900012    2    1    2    0    0 -0.32762156304E+02 -0.19307444609E+02  0.14388556558E+02  0.50528845276E+02  0.29999955702E+02 0.  0.
         12    1    1    2    0    0  0.32762156304E+02  0.19307444609E+02 -0.14388556558E+02  0.40659154724E+02  0.00000000000E+00 0. -1.
         11    1    3    3    0    0  0.50757101156E+01 -0.12555373177E+01  0.28497869315E+00  0.52364511122E+01  0.51100000000E-03 0. -1.
        -11    1    3    3    0    0 -0.25451427185E+02 -0.69012170181E+01  0.89386709252E+01  0.27844241420E+02  0.51100000000E-03 0.  1.
         12    1    3    3    0    0 -0.12386439234E+02 -0.11150690273E+02  0.51649069392E+01  0.17448152744E+02  0.00000000000E+00 0. -1.
</event>
<event>
 7    1  0.5849044E-013  0.5052886E+02  0.7816164E-02  0.1300439E+00
        -11   -1    0    0    0    0  0.00000000000E+00  0.00000000000E+00  0.45593999997E+02  0.45594000000E+02  0.51100000000E-03 0. -1.
         11   -1    0    0    0    0 -0.00000000000E+00 -0.00000000000E+00 -0.45593999997E+02  0.45594000000E+02  0.51100000000E-03 0.  1.
    9900012    2    1    2    0    0  0.39844608792E+02 -0.31208982415E+01 -0.74721320656E+01  0.50528860643E+02  0.30000002410E+02 0.  0.
         12    1    1    2    0    0 -0.39844608792E+02  0.31208982415E+01  0.74721320656E+01  0.40659139357E+02  0.00000000000E+00 0. -1.
         11    1    3    3    0    0  0.21054555873E+01  0.25271130953E+01 -0.91470977781E+01  0.97205268299E+01  0.51100000000E-03 0. -1.
        -11    1    3    3    0    0  0.20976775111E+02 -0.36231566759E+01 -0.62085877434E+01  0.22174285116E+02  0.51100000000E-03 0.  1.
         12    1    3    3    0    0  0.16762378094E+02 -0.20248546609E+01  0.78835534559E+01  0.18634048697E+02  0.00000000000E+00 0. -1.
</event>
<event>
 7    1  0.5849044E-013  0.5052888E+02  0.7816164E-02  0.1300439E+00
        -11   -1    0    0    0    0  0.00000000000E+00  0.00000000000E+00  0.45593999997E+02  0.45594000000E+02  0.51100000000E-03 0.  1.
         11   -1    0    0    0    0 -0.00000000000E+00 -0.00000000000E+00 -0.45593999997E+02  0.45594000000E+02  0.51100000000E-03 0. -1.
    9900012    2    1    2    0    0  0.38066951115E+02  0.63114620676E+01  0.12815503087E+02  0.50528875071E+02  0.30000046265E+02 0.  0.
         12    1    1    2    0    0 -0.38066951115E+02 -0.63114620676E+01 -0.12815503087E+02  0.40659124929E+02  0.00000000000E+00 0. -1.
         11    1    3    3    0    0  0.18493206552E+02  0.10892642054E+02  0.15533799877E+02  0.26494287656E+02  0.51100000000E-03 0. -1.
        -11    1    3    3    0    0  0.12462206853E+02 -0.81680682590E+01  0.15798087623E+01  0.14983982605E+02  0.51100000000E-03 0.  1.
        -12    1    3    3    0    0  0.71115377103E+01  0.35868882724E+01 -0.42981055526E+01  0.90506048099E+01  0.00000000000E+00 0.  1.
</event>
<event>
 7    1  0.5849044E-013  0.5052887E+02  0.7816164E-02  0.1300439E+00
        -11   -1    0    0    0    0  0.00000000000E+00  0.00000000000E+00  0.45593999997E+02  0.45594000000E+02  0.51100000000E-03 0.  1.
         11   -1    0    0    0    0 -0.00000000000E+00 -0.00000000000E+00 -0.45593999997E+02  0.45594000000E+02  0.51100000000E-03 0. -1.
    9900012    2    1    2    0    0 -0.32629878633E+02  0.15202628373E+02  0.18903340311E+02  0.50528866168E+02  0.30000019205E+02 0.  0.
         12    1    1    2    0    0  0.32629878633E+02 -0.15202628373E+02 -0.18903340311E+02  0.40659133832E+02  0.00000000000E+00 0. -1.
         11    1    3    3    0    0 -0.95709958936E+00 -0.66234155218E+01  0.30112002409E+01  0.73384603256E+01  0.51100000000E-03 0. -1.
        -11    1    3    3    0    0 -0.23703131496E+02  0.16595335015E+02  0.17054086979E+02  0.33586983639E+02  0.51100000000E-03 0.  1.
        -12    1    3    3    0    0 -0.79696475473E+01  0.52307088796E+01 -0.11619469091E+01  0.96034222041E+01  0.00000000000E+00 0.  1.
</event>
<event>
 7    1  0.5849044E-013  0.5052886E+02  0.7816164E-02  0.1300439E+00
        -11   -1    0    0    0    0  0.00000000000E+00  0.00000000000E+00  0.45593999997E+02  0.45594000000E+02  0.51100000000E-03 0.  1.
         11   -1    0    0    0    0 -0.00000000000E+00 -0.00000000000E+00 -0.45593999997E+02  0.45594000000E+02  0.51100000000E-03 0. -1.
    9900012    2    1    2    0    0  0.23382952247E+01 -0.29906082907E+02  0.27446747794E+02  0.50528863464E+02  0.30000010985E+02 0.  0.
         12    1    1    2    0    0 -0.23382952247E+01  0.29906082907E+02 -0.27446747794E+02  0.40659136536E+02  0.00000000000E+00 0. -1.
         11    1    3    3    0    0  0.20480543440E+01 -0.52295091676E+01 -0.63035762386E+01  0.84425923973E+01  0.51100000000E-03 0. -1.
        -11    1    3    3    0    0  0.25200853812E+01 -0.15148873245E+02  0.20775828541E+02  0.25835522885E+02  0.51100000000E-03 0.  1.
         12    1    3    3    0    0 -0.22298445005E+01 -0.95277004948E+01  0.12974495491E+02  0.16250748182E+02  0.00000000000E+00 0. -1.
</event>
<event>
 7    1  0.5849044E-013  0.5052886E+02  0.7816164E-02  0.1300439E+00
        -11   -1    0    0    0    0  0.00000000000E+00  0.00000000000E+00  0.45593999997E+02  0.45594000000E+02  0.51100000000E-03 0.  1.
         11   -1    0    0    0    0 -0.00000000000E+00 -0.00000000000E+00 -0.45593999997E+02  0.45594000000E+02  0.51100000000E-03 0. -1.
    9900012    2    1    2    0    0  0.12849988159E+02  0.37700019936E+02 -0.81701838659E+01  0.50528860766E+02  0.30000002785E+02 0.  0.
         12    1    1    2    0    0 -0.12849988159E+02 -0.37700019936E+02  0.81701838659E+01  0.40659139234E+02  0.00000000000E+00 0. -1.
         11    1    3    3    0    0  0.31209682349E+01  0.17332638984E+02 -0.84108884888E+01  0.19516758499E+02  0.51100000000E-03 0. -1.
        -11    1    3    3    0    0  0.13681693055E+02  0.20011786094E+02  0.50650033081E+01  0.24765188598E+02  0.51100000000E-03 0.  1.
        -12    1    3    3    0    0 -0.39526731309E+01  0.35559485719E+00 -0.48242986851E+01  0.62469136688E+01  0.00000000000E+00 0.  1.
</event>
<event>
 7    1  0.5849044E-013  0.5052887E+02  0.7816164E-02  0.1300439E+00
        -11   -1    0    0    0    0  0.00000000000E+00  0.00000000000E+00  0.45593999997E+02  0.45594000000E+02  0.51100000000E-03 0. -1.
         11   -1    0    0    0    0 -0.00000000000E+00 -0.00000000000E+00 -0.45593999997E+02  0.45594000000E+02  0.51100000000E-03 0.  1.
    9900012    2    1    2    0    0 -0.79891547309E+01 -0.39864428518E+02  0.40727202909E+00  0.50528866649E+02  0.30000020666E+02 0.  0.
         12    1    1    2    0    0  0.79891547309E+01  0.39864428518E+02 -0.40727202909E+00  0.40659133351E+02  0.00000000000E+00 0. -1.
         11    1    3    3    0    0 -0.14353127766E+02 -0.21504517077E+02  0.57249239386E+01  0.26480772001E+02  0.51100000000E-03 0. -1.
        -11    1    3    3    0    0 -0.13566948388E+01  0.23059502422E+00 -0.35892939327E+01  0.38440637543E+01  0.51100000000E-03 0.  1.
         12    1    3    3    0    0  0.77206678743E+01 -0.18590506465E+02 -0.17283579768E+01  0.20204030894E+02  0.00000000000E+00 0. -1.
</event>
<event>
 7    1  0.5849044E-013  0.5052887E+02  0.7816164E-02  0.1300439E+00
        -11   -1    0    0    0    0  0.00000000000E+00  0.00000000000E+00  0.45593999997E+02  0.45594000000E+02  0.51100000000E-03 0.  1.
         11   -1    0    0    0    0 -0.00000000000E+00 -0.00000000000E+00 -0.45593999997E+02  0.45594000000E+02  0.51100000000E-03 0. -1.
    9900012    2    1    2    0    0  0.21927965666E+02 -0.33626383401E+02 -0.64494712825E+01  0.50528867954E+02  0.30000024634E+02 0.  0.
         12    1    1    2    0    0 -0.21927965666E+02  0.33626383401E+02  0.64494712825E+01  0.40659132046E+02  0.00000000000E+00 0. -1.
         11    1    3    3    0    0 -0.34316092239E+01 -0.14758959173E+02 -0.56098642810E+00  0.15163031483E+02  0.51100000000E-03 0. -1.
        -11    1    3    3    0    0  0.19665763042E+02 -0.95372036566E+01  0.19085163660E+01  0.21939528814E+02  0.51100000000E-03 0.  1.
         12    1    3    3    0    0  0.56938118481E+01 -0.93302205717E+01 -0.77970012204E+01  0.13426307657E+02  0.00000000000E+00 0. -1.
</event>
<event>
 7    1  0.5849044E-013  0.5052886E+02  0.7816164E-02  0.1300439E+00
        -11   -1    0    0    0    0  0.00000000000E+00  0.00000000000E+00  0.45593999997E+02  0.45594000000E+02  0.51100000000E-03 0.  1.
         11   -1    0    0    0    0 -0.00000000000E+00 -0.00000000000E+00 -0.45593999997E+02  0.45594000000E+02  0.51100000000E-03 0. -1.
    9900012    2    1    2    0    0  0.19621266262E+02 -0.26232871155E+02  0.24083355206E+02  0.50528860600E+02  0.30000002280E+02 0.  0.
         12    1    1    2    0    0 -0.19621266262E+02  0.26232871155E+02 -0.24083355206E+02  0.40659139400E+02  0.00000000000E+00 0. -1.
         11    1    3    3    0    0  0.83273786601E+01 -0.28426585325E+02  0.16604978243E+02  0.33957934144E+02  0.51100000000E-03 0. -1.
        -11    1    3    3    0    0  0.94961747457E+00  0.16341812308E+01  0.57699246810E+01  0.60716021550E+01  0.51100000000E-03 0.  1.
         12    1    3    3    0    0  0.10344270128E+02  0.55953293958E+00  0.17084522824E+01  0.10499324301E+02  0.00000000000E+00 0. -1.
</event>
<event>
 7    1  0.5849044E-013  0.5052886E+02  0.7816164E-02  0.1300439E+00
        -11   -1    0    0    0    0  0.00000000000E+00  0.00000000000E+00  0.45593999997E+02  0.45594000000E+02  0.51100000000E-03 0. -1.
         11   -1    0    0    0    0 -0.00000000000E+00 -0.00000000000E+00 -0.45593999997E+02  0.45594000000E+02  0.51100000000E-03 0.  1.
    9900012    2    1    2    0    0 -0.38298559146E+02  0.78294903436E+01 -0.11184142569E+02  0.50528860847E+02  0.30000003030E+02 0.  0.
         12    1    1    2    0    0  0.38298559146E+02 -0.78294903436E+01  0.11184142569E+02  0.40659139153E+02  0.00000000000E+00 0. -1.
         11    1    3    3    0    0 -0.18289233743E+00  0.76591639890E+01 -0.39993625801E+01  0.86424038280E+01  0.51100000000E-03 0. -1.
        -11    1    3    3    0    0 -0.28713537346E+02  0.40833397504E+01  0.69384292331E+00  0.29010727476E+02  0.51100000000E-03 0.  1.
        -12    1    3    3    0    0 -0.94021294629E+01 -0.39130133959E+01 -0.78786229121E+01  0.12875729543E+02  0.00000000000E+00 0.  1.
</event>
<event>
 7    1  0.5849044E-013  0.5052885E+02  0.7816164E-02  0.1300439E+00
        -11   -1    0    0    0    0  0.00000000000E+00  0.00000000000E+00  0.45593999997E+02  0.45594000000E+02  0.51100000000E-03 0.  1.
         11   -1    0    0    0    0 -0.00000000000E+00 -0.00000000000E+00 -0.45593999997E+02  0.45594000000E+02  0.51100000000E-03 0. -1.
    9900012    2    1    2    0    0  0.29559317350E+02  0.25621826922E+02  0.11087624114E+02  0.50528847703E+02  0.29999963078E+02 0.  0.
         12    1    1    2    0    0 -0.29559317350E+02 -0.25621826922E+02 -0.11087624114E+02  0.40659152297E+02  0.00000000000E+00 0. -1.
         11    1    3    3    0    0  0.74515375009E+01 -0.36370383443E+01  0.10402309249E+02  0.13302687586E+02  0.51100000000E-03 0. -1.
        -11    1    3    3    0    0  0.15667211349E+02  0.15556845209E+02  0.29037690026E+00  0.22080789463E+02  0.51100000000E-03 0.  1.
         12    1    3    3    0    0  0.64405685010E+01  0.13702020057E+02  0.39493796503E+00  0.15145370654E+02  0.00000000000E+00 0. -1.
</event>
<event>
 7    1  0.5849044E-013  0.5052886E+02  0.7816164E-02  0.1300439E+00
        -11   -1    0    0    0    0  0.00000000000E+00  0.00000000000E+00  0.45593999997E+02  0.45594000000E+02  0.51100000000E-03 0.  1.
         11   -1    0    0    0    0 -0.00000000000E+00 -0.00000000000E+00 -0.45593999997E+02  0.45594000000E+02  0.51100000000E-03 0. -1.
    9900012    2    1    2    0    0 -0.29448562129E+02 -0.54233159098E+01  0.27505192117E+02  0.50528858834E+02  0.29999996913E+02 0.  0.
         12    1    1    2    0    0  0.29448562129E+02  0.54233159098E+01 -0.27505192117E+02  0.40659141166E+02  0.00000000000E+00 0. -1.
         11    1    3    3    0    0 -0.33714472999E+01 -0.21999654213E+00 -0.27296261573E+01  0.43434910607E+01  0.51100000000E-03 0. -1.
        -11    1    3    3    0    0 -0.31966827061E+01 -0.71861184075E+01  0.19112840298E+02  0.20667843202E+02  0.51100000000E-03 0.  1.
        -12    1    3    3    0    0 -0.22880432123E+02  0.19827990398E+01  0.11121977976E+02  0.25517524572E+02  0.00000000000E+00 0.  1.
</event>
<event>
 7    1  0.5849044E-013  0.5052886E+02  0.7816164E-02  0.1300439E+00
        -11   -1    0    0    0    0  0.00000000000E+00  0.00000000000E+00  0.45593999997E+02  0.45594000000E+02  0.51100000000E-03 0. -1.
         11   -1    0    0    0    0 -0.00000000000E+00 -0.00000000000E+00 -0.45593999997E+02  0.45594000000E+02  0.51100000000E-03 0.  1.
    9900012    2    1    2    0    0  0.27714121910E+02 -0.23093484625E+02 -0.18755900438E+02  0.50528863430E+02  0.30000010881E+02 0.  0.
         12    1    1    2    0    0 -0.27714121910E+02  0.23093484625E+02  0.18755900438E+02  0.40659136570E+02  0.00000000000E+00 0. -1.
         11    1    3    3    0    0  0.20077542683E+02 -0.14962038372E+01 -0.10602305472E+02  0.22754235380E+02  0.51100000000E-03 0. -1.
        -11    1    3    3    0    0  0.58035578147E+01 -0.72183603063E+01  0.27211733981E+01  0.96535378874E+01  0.51100000000E-03 0.  1.
        -12    1    3    3    0    0  0.18330214125E+01 -0.14378920481E+02 -0.10874768364E+02  0.18121090163E+02  0.00000000000E+00 0.  1.
</event>
<event>
 7    1  0.5849044E-013  0.5052886E+02  0.7816164E-02  0.1300439E+00
        -11   -1    0    0    0    0  0.00000000000E+00  0.00000000000E+00  0.45593999997E+02  0.45594000000E+02  0.51100000000E-03 0.  1.
         11   -1    0    0    0    0 -0.00000000000E+00 -0.00000000000E+00 -0.45593999997E+02  0.45594000000E+02  0.51100000000E-03 0. -1.
    9900012    2    1    2    0    0 -0.13193247446E+02  0.25655980946E+02  0.28650909736E+02  0.50528858774E+02  0.29999996731E+02 0.  0.
         12    1    1    2    0    0  0.13193247446E+02 -0.25655980946E+02 -0.28650909736E+02  0.40659141226E+02  0.00000000000E+00 0. -1.
         11    1    3    3    0    0 -0.57300166192E+01  0.92703098661E+01 -0.20273381933E+01  0.11085207976E+02  0.51100000000E-03 0. -1.
        -11    1    3    3    0    0 -0.32281038737E+01  0.19109058019E+02  0.26874083342E+02  0.33132961062E+02  0.51100000000E-03 0.  1.
        -12    1    3    3    0    0 -0.42351269536E+01 -0.27233869394E+01  0.38041645875E+01  0.63106897359E+01  0.00000000000E+00 0.  1.
</event>
<event>
 7    1  0.5849044E-013  0.5052886E+02  0.7816164E-02  0.1300439E+00
        -11   -1    0    0    0    0  0.00000000000E+00  0.00000000000E+00  0.45593999997E+02  0.45594000000E+02  0.51100000000E-03 0.  1.
         11   -1    0    0    0    0 -0.00000000000E+00 -0.00000000000E+00 -0.45593999997E+02  0.45594000000E+02  0.51100000000E-03 0. -1.
    9900012    2    1    2    0    0  0.32985405647E+02  0.19239657660E+01  0.23694444570E+02  0.50528864084E+02  0.30000012869E+02 0.  0.
         12    1    1    2    0    0 -0.32985405647E+02 -0.19239657660E+01 -0.23694444570E+02  0.40659135916E+02  0.00000000000E+00 0. -1.
         11    1    3    3    0    0  0.63214154141E+01  0.77211914550E+01  0.84517418645E+01  0.13077042140E+02  0.51100000000E-03 0. -1.
        -11    1    3    3    0    0  0.47599265001E+01 -0.96677360725E+01  0.97687376079E+01  0.14544767298E+02  0.51100000000E-03 0.  1.
        -12    1    3    3    0    0  0.21904063733E+02  0.38705103835E+01  0.54739650978E+01  0.22907054645E+02  0.00000000000E+00 0.  1.
</event>
<event>
 7    1  0.5849044E-013  0.5052886E+02  0.7816164E-02  0.1300439E+00
        -11   -1    0    0    0    0  0.00000000000E+00  0.00000000000E+00  0.45593999997E+02  0.45594000000E+02  0.51100000000E-03 0. -1.
         11   -1    0    0    0    0 -0.00000000000E+00 -0.00000000000E+00 -0.45593999997E+02  0.45594000000E+02  0.51100000000E-03 0.  1.
    9900012    2    1    2    0    0 -0.28368924752E+02  0.14450249664E+02  0.25289522467E+02  0.50528861377E+02  0.30000004643E+02 0.  0.
         12    1    1    2    0    0  0.28368924752E+02 -0.14450249664E+02 -0.25289522467E+02  0.40659138623E+02  0.00000000000E+00 0. -1.
         11    1    3    3    0    0 -0.70267719654E+01 -0.66970070032E+01  0.95269748694E+01  0.13601054278E+02  0.51100000000E-03 0. -1.
        -11    1    3    3    0    0 -0.21928877673E+02  0.13825507631E+02  0.10917087612E+02  0.28128333393E+02  0.51100000000E-03 0.  1.
         12    1    3    3    0    0  0.58672488691E+00  0.73217490356E+01  0.48454599854E+01  0.87994737060E+01  0.00000000000E+00 0. -1.
</event>
<event>
 7    1  0.5849044E-013  0.5052887E+02  0.7816164E-02  0.1300439E+00
        -11   -1    0    0    0    0  0.00000000000E+00  0.00000000000E+00  0.45593999997E+02  0.45594000000E+02  0.51100000000E-03 0. -1.
         11   -1    0    0    0    0 -0.00000000000E+00 -0.00000000000E+00 -0.45593999997E+02  0.45594000000E+02  0.51100000000E-03 0.  1.
    9900012    2    1    2    0    0  0.38780411208E+02  0.90181280035E+01 -0.82412474751E+01  0.50528867126E+02  0.30000022116E+02 0.  0.
         12    1    1    2    0    0 -0.38780411208E+02 -0.90181280035E+01  0.82412474751E+01  0.40659132874E+02  0.00000000000E+00 0. -1.
         11    1    3    3    0    0  0.14758165055E+02  0.10289698558E+02 -0.10117245897E+02  0.20640736348E+02  0.51100000000E-03 0. -1.
        -11    1    3    3    0    0  0.25335707536E+01 -0.16756095218E+01  0.71409835971E+01  0.77601736468E+01  0.51100000000E-03 0.  1.
        -12    1    3    3    0    0  0.21488675399E+02  0.40403896749E+00 -0.52649851751E+01  0.22127957131E+02  0.00000000000E+00 0.  1.
</event>
<event>
 7    1  0.5849044E-013  0.5052886E+02  0.7816164E-02  0.1300439E+00
        -11   -1    0    0    0    0  0.00000000000E+00  0.00000000000E+00  0.45593999997E+02  0.45594000000E+02  0.51100000000E-03 0.  1.
         11   -1    0    0    0    0 -0.00000000000E+00 -0.00000000000E+00 -0.45593999997E+02  0.45594000000E+02  0.51100000000E-03 0. -1.
    9900012    2    1    2    0    0 -0.36892529994E+02  0.15973801849E+02 -0.60781976099E+01  0.50528860793E+02  0.30000002866E+02 0.  0.
         12    1    1    2    0    0  0.36892529994E+02 -0.15973801849E+02  0.60781976099E+01  0.40659139207E+02  0.00000000000E+00 0. -1.
         11    1    3    3    0    0 -0.24220526175E+01  0.52360837664E+01  0.33342156489E+01  0.66633254719E+01  0.51100000000E-03 0. -1.
        -11    1    3    3    0    0 -0.36556735034E+02  0.10521783990E+02 -0.42305866062E+01  0.38275327274E+02  0.51100000000E-03 0.  1.
        -12    1    3    3    0    0  0.20862576575E+01  0.21593409309E+00 -0.51818266526E+01  0.55902080466E+01  0.00000000000E+00 0.  1.
</event>
<event>
 7    1  0.5849044E-013  0.5052886E+02  0.7816164E-02  0.1300439E+00
        -11   -1    0    0    0    0  0.00000000000E+00  0.00000000000E+00  0.45593999997E+02  0.45594000000E+02  0.51100000000E-03 0.  1.
         11   -1    0    0    0    0 -0.00000000000E+00 -0.00000000000E+00 -0.45593999997E+02  0.45594000000E+02  0.51100000000E-03 0. -1.
    9900012    2    1    2    0    0  0.15568047876E+02  0.80598407587E+01  0.36685695703E+02  0.50528863057E+02  0.30000009749E+02 0.  0.
         12    1    1    2    0    0 -0.15568047876E+02 -0.80598407587E+01 -0.36685695703E+02  0.40659136943E+02  0.00000000000E+00 0. -1.
         11    1    3    3    0    0 -0.16905600811E+01 -0.32506177897E+01 -0.16136089392E+01  0.40035288774E+01  0.51100000000E-03 0. -1.
        -11    1    3    3    0    0  0.18321026978E+02  0.46274206413E+01  0.32588273421E+02  0.37670527155E+02  0.51100000000E-03 0.  1.
        -12    1    3    3    0    0 -0.10624190206E+01  0.66830379071E+01  0.57110312209E+01  0.88548070249E+01  0.00000000000E+00 0.  1.
</event>
<event>
 7    1  0.5849044E-013  0.5052886E+02  0.7816164E-02  0.1300439E+00
        -11   -1    0    0    0    0  0.00000000000E+00  0.00000000000E+00  0.45593999997E+02  0.45594000000E+02  0.51100000000E-03 0.  1.
         11   -1    0    0    0    0 -0.00000000000E+00 -0.00000000000E+00 -0.45593999997E+02  0.45594000000E+02  0.51100000000E-03 0. -1.
    9900012    2    1    2    0    0  0.38021319123E+02 -0.12892597775E+02  0.64285259091E+01  0.50528859200E+02  0.29999998024E+02 0.  0.
         12    1    1    2    0    0 -0.38021319123E+02  0.12892597775E+02 -0.64285259091E+01  0.40659140800E+02  0.00000000000E+00 0. -1.
         11    1    3    3    0    0  0.15377508983E+02 -0.17472268365E+02 -0.90196798741E+00  0.23292949381E+02  0.51100000000E-03 0. -1.
        -11    1    3    3    0    0  0.22934064178E+02  0.15751059972E+01  0.52796663588E+01  0.23586588048E+02  0.51100000000E-03 0.  1.
         12    1    3    3    0    0 -0.29025403740E+00  0.30045645933E+01  0.20508275377E+01  0.36493217714E+01  0.00000000000E+00 0. -1.
</event>
<event>
 7    1  0.5849044E-013  0.5052886E+02  0.7816164E-02  0.1300439E+00
        -11   -1    0    0    0    0  0.00000000000E+00  0.00000000000E+00  0.45593999997E+02  0.45594000000E+02  0.51100000000E-03 0.  1.
         11   -1    0    0    0    0 -0.00000000000E+00 -0.00000000000E+00 -0.45593999997E+02  0.45594000000E+02  0.51100000000E-03 0. -1.
    9900012    2    1    2    0    0 -0.27321536025E+02 -0.12098283323E+02  0.27574101965E+02  0.50528857249E+02  0.29999992093E+02 0.  0.
         12    1    1    2    0    0  0.27321536025E+02  0.12098283323E+02 -0.27574101965E+02  0.40659142751E+02  0.00000000000E+00 0. -1.
         11    1    3    3    0    0  0.12013376116E+01 -0.34963571779E+01 -0.21077070497E+01  0.42556027589E+01  0.51100000000E-03 0. -1.
        -11    1    3    3    0    0 -0.23884180028E+02  0.19453447246E+01  0.20644730572E+02  0.31629785367E+02  0.51100000000E-03 0.  1.
        -12    1    3    3    0    0 -0.46386936085E+01 -0.10547270869E+02  0.90370784421E+01  0.14643469123E+02  0.00000000000E+00 0.  1.
</event>
<event>
 7    1  0.5849044E-013  0.5052885E+02  0.7816164E-02  0.1300439E+00
        -11   -1    0    0    0    0  0.00000000000E+00  0.00000000000E+00  0.45593999997E+02  0.45594000000E+02  0.51100000000E-03 0.  1.
         11   -1    0    0    0    0 -0.00000000000E+00 -0.00000000000E+00 -0.45593999997E+02  0.45594000000E+02  0.51100000000E-03 0. -1.
    9900012    2    1    2    0    0  0.37297588198E+02 -0.15651648189E+02 -0.41330737110E+01  0.50528850050E+02  0.29999970211E+02 0.  0.
         12    1    1    2    0    0 -0.37297588198E+02  0.15651648189E+02  0.41330737110E+01  0.40659149950E+02  0.00000000000E+00 0. -1.
         11    1    3    3    0    0  0.23258012161E+02 -0.17883608383E+02 -0.13531096720E+02  0.32308654525E+02  0.51100000000E-03 0. -1.
        -11    1    3    3    0    0  0.79316376934E+01  0.42792698740E+01  0.67285872037E+01  0.11247084652E+02  0.51100000000E-03 0.  1.
         12    1    3    3    0    0  0.61079383428E+01 -0.20473096791E+01  0.26694358054E+01  0.69731108725E+01  0.00000000000E+00 0. -1.
</event>
<event>
 7    1  0.5849044E-013  0.5052886E+02  0.7816164E-02  0.1300439E+00
        -11   -1    0    0    0    0  0.00000000000E+00  0.00000000000E+00  0.45593999997E+02  0.45594000000E+02  0.51100000000E-03 0. -1.
         11   -1    0    0    0    0 -0.00000000000E+00 -0.00000000000E+00 -0.45593999997E+02  0.45594000000E+02  0.51100000000E-03 0.  1.
    9900012    2    1    2    0    0  0.92687286324E+01  0.35853873499E+02 -0.16785584883E+02  0.50528862832E+02  0.30000009066E+02 0.  0.
         12    1    1    2    0    0 -0.92687286324E+01 -0.35853873499E+02  0.16785584883E+02  0.40659137168E+02  0.00000000000E+00 0. -1.
         11    1    3    3    0    0 -0.28660026183E+01  0.42000383018E+01  0.27418310819E+01  0.57768443537E+01  0.51100000000E-03 0. -1.
        -11    1    3    3    0    0  0.16495256691E+02  0.16173166612E+02 -0.16494573350E+02  0.28385485055E+02  0.51100000000E-03 0.  1.
        -12    1    3    3    0    0 -0.43605254407E+01  0.15480668585E+02 -0.30328426150E+01  0.16366533423E+02  0.00000000000E+00 0.  1.
</event>
<event>
 7    1  0.5849044E-013  0.5052879E+02  0.7816164E-02  0.1300439E+00
        -11   -1    0    0    0    0  0.00000000000E+00  0.00000000000E+00  0.45593999997E+02  0.45594000000E+02  0.51100000000E-03 0.  1.
         11   -1    0    0    0    0 -0.00000000000E+00 -0.00000000000E+00 -0.45593999997E+02  0.45594000000E+02  0.51100000000E-03 0. -1.
    9900012    2    1    2    0    0  0.11691556625E+01 -0.24512627595E+02  0.32418132172E+02  0.50528792800E+02  0.29999796194E+02 0.  0.
         12    1    1    2    0    0 -0.11691556625E+01  0.24512627595E+02 -0.32418132172E+02  0.40659207200E+02  0.00000000000E+00 0. -1.
         11    1    3    3    0    0  0.84370899693E+01 -0.14415967413E+02  0.96573157676E+01  0.19294256962E+02  0.51100000000E-03 0. -1.
        -11    1    3    3    0    0 -0.11427783538E+02 -0.12209802564E+02  0.17672140262E+02  0.24330599190E+02  0.51100000000E-03 0.  1.
        -12    1    3    3    0    0  0.41598492313E+01  0.21131423821E+01  0.50886761427E+01  0.69039366480E+01  0.00000000000E+00 0.  1.
</event>
<event>
 7    1  0.5849044E-013  0.5052885E+02  0.7816164E-02  0.1300439E+00
        -11   -1    0    0    0    0  0.00000000000E+00  0.00000000000E+00  0.45593999997E+02  0.45594000000E+02  0.51100000000E-03 0.  1.
         11   -1    0    0    0    0 -0.00000000000E+00 -0.00000000000E+00 -0.45593999997E+02  0.45594000000E+02  0.51100000000E-03 0. -1.
    9900012    2    1    2    0    0 -0.36603782082E+02  0.12701266666E+02  0.12329135335E+02  0.50528848315E+02  0.29999964940E+02 0.  0.
         12    1    1    2    0    0  0.36603782082E+02 -0.12701266666E+02 -0.12329135335E+02  0.40659151685E+02  0.00000000000E+00 0. -1.
         11    1    3    3    0    0 -0.92729317019E+01  0.14085191346E+02 -0.32387677710E+01  0.17171764457E+02  0.51100000000E-03 0. -1.
        -11    1    3    3    0    0 -0.23880149965E+02  0.13049830803E+01  0.91849642240E+01  0.25618901445E+02  0.51100000000E-03 0.  1.
         12    1    3    3    0    0 -0.34507004147E+01 -0.26889077612E+01  0.63829388816E+01  0.77381824136E+01  0.00000000000E+00 0. -1.
</event>
<event>
 7    1  0.5849044E-013  0.5052883E+02  0.7816164E-02  0.1300439E+00
        -11   -1    0    0    0    0  0.00000000000E+00  0.00000000000E+00  0.45593999997E+02  0.45594000000E+02  0.51100000000E-03 0. -1.
         11   -1    0    0    0    0 -0.00000000000E+00 -0.00000000000E+00 -0.45593999997E+02  0.45594000000E+02  0.51100000000E-03 0.  1.
    9900012    2    1    2    0    0  0.73457722732E+01 -0.39683794468E+02 -0.49400259213E+01  0.50528834124E+02  0.29999921803E+02 0.  0.
         12    1    1    2    0    0 -0.73457722732E+01  0.39683794468E+02  0.49400259213E+01  0.40659165876E+02  0.00000000000E+00 0. -1.
         11    1    3    3    0    0 -0.27840372747E+01 -0.13889602366E+02 -0.95047785837E+01  0.17059095334E+02  0.51100000000E-03 0.  1.
        -11    1    3    3    0    0  0.88718021260E+01 -0.28841626046E+01  0.48692865632E+01  0.10523175319E+02  0.51100000000E-03 0. -1.
        -12    1    3    3    0    0  0.12580074219E+01 -0.22910029497E+02 -0.30453390084E+00  0.22946563471E+02  0.00000000000E+00 0.  1.
</event>
<event>
 7    1  0.5849044E-013  0.5052886E+02  0.7816164E-02  0.1300439E+00
        -11   -1    0    0    0    0  0.00000000000E+00  0.00000000000E+00  0.45593999997E+02  0.45594000000E+02  0.51100000000E-03 0. -1.
         11   -1    0    0    0    0 -0.00000000000E+00 -0.00000000000E+00 -0.45593999997E+02  0.45594000000E+02  0.51100000000E-03 0.  1.
    9900012    2    1    2    0    0 -0.10330305063E+02 -0.16770710316E+02 -0.35569560995E+02  0.50528860848E+02  0.30000003034E+02 0.  0.
         12    1    1    2    0    0  0.10330305063E+02  0.16770710316E+02  0.35569560995E+02  0.40659139152E+02  0.00000000000E+00 0. -1.
         11    1    3    3    0    0  0.56121447855E+01 -0.17397917324E+01 -0.17473593209E+01  0.61299518125E+01  0.51100000000E-03 0. -1.
        -11    1    3    3    0    0 -0.20191379497E+02 -0.12428910226E+02 -0.26713959215E+02  0.35718415875E+02  0.51100000000E-03 0.  1.
        -12    1    3    3    0    0  0.42489296488E+01 -0.26020083574E+01 -0.71082424593E+01  0.86804931607E+01  0.00000000000E+00 0.  1.
</event>
<event>
 7    1  0.5849044E-013  0.5052886E+02  0.7816164E-02  0.1300439E+00
        -11   -1    0    0    0    0  0.00000000000E+00  0.00000000000E+00  0.45593999997E+02  0.45594000000E+02  0.51100000000E-03 0.  1.
         11   -1    0    0    0    0 -0.00000000000E+00 -0.00000000000E+00 -0.45593999997E+02  0.45594000000E+02  0.51100000000E-03 0. -1.
    9900012    2    1    2    0    0  0.10101104902E+02  0.31067817859E+02  0.24205865011E+02  0.50528861695E+02  0.30000005609E+02 0.  0.
         12    1    1    2    0    0 -0.10101104902E+02 -0.31067817859E+02 -0.24205865011E+02  0.40659138305E+02  0.00000000000E+00 0. -1.
         11    1    3    3    0    0 -0.19312650001E+01  0.18106721288E+01  0.55443871017E+01  0.61439845909E+01  0.51100000000E-03 0. -1.
        -11    1    3    3    0    0  0.12787726970E+02  0.16012792931E+02 -0.11697481545E+01  0.20525686578E+02  0.51100000000E-03 0.  1.
        -12    1    3    3    0    0 -0.75535706837E+00  0.13244352799E+02  0.19831226063E+02  0.23859190526E+02  0.00000000000E+00 0.  1.
</event>
<event>
 7    1  0.5849044E-013  0.5052885E+02  0.7816164E-02  0.1300439E+00
        -11   -1    0    0    0    0  0.00000000000E+00  0.00000000000E+00  0.45593999997E+02  0.45594000000E+02  0.51100000000E-03 0.  1.
         11   -1    0    0    0    0 -0.00000000000E+00 -0.00000000000E+00 -0.45593999997E+02  0.45594000000E+02  0.51100000000E-03 0. -1.
    9900012    2    1    2    0    0 -0.35735677128E+02  0.11611975850E+02  0.15533505552E+02  0.50528850997E+02  0.29999973091E+02 0.  0.
         12    1    1    2    0    0  0.35735677128E+02 -0.11611975850E+02 -0.15533505552E+02  0.40659149003E+02  0.00000000000E+00 0. -1.
         11    1    3    3    0    0 -0.23239953493E+02  0.30648979549E+01  0.14490912441E+02  0.27558584533E+02  0.51100000000E-03 0.  1.
        -11    1    3    3    0    0 -0.49337330947E+01  0.12777058603E+02  0.31476363393E+01  0.14053560530E+02  0.51100000000E-03 0. -1.
         12    1    3    3    0    0 -0.75619905403E+01 -0.42299807077E+01 -0.21050432287E+01  0.89167059340E+01  0.00000000000E+00 0. -1.
</event>
<event>
 7    1  0.5849044E-013  0.5052885E+02  0.7816164E-02  0.1300439E+00
        -11   -1    0    0    0    0  0.00000000000E+00  0.00000000000E+00  0.45593999997E+02  0.45594000000E+02  0.51100000000E-03 0.  1.
         11   -1    0    0    0    0 -0.00000000000E+00 -0.00000000000E+00 -0.45593999997E+02  0.45594000000E+02  0.51100000000E-03 0. -1.
    9900012    2    1    2    0    0  0.21479283555E+02 -0.25520017234E+02  0.23249413526E+02  0.50528854277E+02  0.29999983059E+02 0.  0.
         12    1    1    2    0    0 -0.21479283555E+02  0.25520017234E+02 -0.23249413526E+02  0.40659145723E+02  0.00000000000E+00 0. -1.
         11    1    3    3    0    0  0.30581702139E+01 -0.17664792219E+02  0.15880492856E+02  0.23949683564E+02  0.51100000000E-03 0. -1.
        -11    1    3    3    0    0  0.21673813004E+01  0.45804882900E+01  0.12640027404E+01  0.52226542930E+01  0.51100000000E-03 0.  1.
        -12    1    3    3    0    0  0.16253732041E+02 -0.12435713306E+02  0.61049179292E+01  0.21356516420E+02  0.00000000000E+00 0.  1.
</event>
<event>
 7    1  0.5849044E-013  0.5052885E+02  0.7816164E-02  0.1300439E+00
        -11   -1    0    0    0    0  0.00000000000E+00  0.00000000000E+00  0.45593999997E+02  0.45594000000E+02  0.51100000000E-03 0. -1.
         11   -1    0    0    0    0 -0.00000000000E+00 -0.00000000000E+00 -0.45593999997E+02  0.45594000000E+02  0.51100000000E-03 0.  1.
    9900012    2    1    2    0    0  0.88671559207E+01 -0.39534621601E+02  0.33990909352E+01  0.50528848773E+02  0.29999966332E+02 0.  0.
         12    1    1    2    0    0 -0.88671559207E+01  0.39534621601E+02 -0.33990909352E+01  0.40659151227E+02  0.00000000000E+00 0. -1.
         11    1    3    3    0    0 -0.18450829527E+01  0.16752553206E+01  0.58086927477E+01  0.63207375511E+01  0.51100000000E-03 0.  1.
        -11    1    3    3    0    0  0.13261688939E+02 -0.35108886001E+02 -0.20191956027E+01  0.37584350745E+02  0.51100000000E-03 0. -1.
        -12    1    3    3    0    0 -0.25494500660E+01 -0.61009909210E+01 -0.39040620980E+00  0.66237604777E+01  0.00000000000E+00 0.  1.
</event>
<event>
 7    1  0.5849044E-013  0.5052886E+02  0.7816164E-02  0.1300439E+00
        -11   -1    0    0    0    0  0.00000000000E+00  0.00000000000E+00  0.45593999997E+02  0.45594000000E+02  0.51100000000E-03 0. -1.
         11   -1    0    0    0    0 -0.00000000000E+00 -0.00000000000E+00 -0.45593999997E+02  0.45594000000E+02  0.51100000000E-03 0.  1.
    9900012    2    1    2    0    0 -0.81254230671E+01 -0.92890294495E+01 -0.38740896046E+02  0.50528860873E+02  0.30000003109E+02 0.  0.
         12    1    1    2    0    0  0.81254230671E+01  0.92890294495E+01  0.38740896046E+02  0.40659139127E+02  0.00000000000E+00 0. -1.
         11    1    3    3    0    0  0.44108800836E+01  0.34272725515E+01 -0.31492794254E+01  0.64124894865E+01  0.51100000000E-03 0. -1.
        -11    1    3    3    0    0 -0.90708950267E+01 -0.15072194434E+02 -0.35833971383E+02  0.39918989053E+02  0.51100000000E-03 0.  1.
        -12    1    3    3    0    0 -0.34654081239E+01  0.23558924332E+01  0.24235476254E+00  0.41973823334E+01  0.00000000000E+00 0.  1.
</event>
<event>
 7    1  0.5849044E-013  0.5052886E+02  0.7816164E-02  0.1300439E+00
        -11   -1    0    0    0    0  0.00000000000E+00  0.00000000000E+00  0.45593999997E+02  0.45594000000E+02  0.51100000000E-03 0. -1.
         11   -1    0    0    0    0 -0.00000000000E+00 -0.00000000000E+00 -0.45593999997E+02  0.45594000000E+02  0.51100000000E-03 0.  1.
    9900012    2    1    2    0    0 -0.12736045914E+02 -0.34095682630E+02 -0.18123008784E+02  0.50528857278E+02  0.29999992182E+02 0.  0.
         12    1    1    2    0    0  0.12736045914E+02  0.34095682630E+02  0.18123008784E+02  0.40659142722E+02  0.00000000000E+00 0. -1.
         11    1    3    3    0    0 -0.23622687187E+01 -0.14892109410E+01 -0.12449555510E+02  0.12758898675E+02  0.51100000000E-03 0. -1.
        -11    1    3    3    0    0 -0.37660149488E+01 -0.29304602682E+02 -0.67452829149E+01  0.30305798931E+02  0.51100000000E-03 0.  1.
        -12    1    3    3    0    0 -0.66077622460E+01 -0.33018690070E+01  0.10718296416E+01  0.74641596727E+01  0.00000000000E+00 0.  1.
</event>
<event>
 7    1  0.5849044E-013  0.5052885E+02  0.7816164E-02  0.1300439E+00
        -11   -1    0    0    0    0  0.00000000000E+00  0.00000000000E+00  0.45593999997E+02  0.45594000000E+02  0.51100000000E-03 0. -1.
         11   -1    0    0    0    0 -0.00000000000E+00 -0.00000000000E+00 -0.45593999997E+02  0.45594000000E+02  0.51100000000E-03 0.  1.
    9900012    2    1    2    0    0  0.22077364044E+02 -0.34115938225E+02 -0.13635363983E+01  0.50528850038E+02  0.29999970175E+02 0.  0.
         12    1    1    2    0    0 -0.22077364044E+02  0.34115938225E+02  0.13635363983E+01  0.40659149962E+02  0.00000000000E+00 0. -1.
         11    1    3    3    0    0 -0.11799146151E+01  0.68801052400E+00 -0.50735835062E+01  0.52542180042E+01  0.51100000000E-03 0. -1.
        -11    1    3    3    0    0  0.25184141645E+02 -0.26662347463E+02  0.19678588284E+01  0.36728656813E+02  0.51100000000E-03 0.  1.
         12    1    3    3    0    0 -0.19268629860E+01 -0.81416012863E+01  0.17421882795E+01  0.85459752207E+01  0.00000000000E+00 0. -1.
</event>
<event>
 7    1  0.5849044E-013  0.5052887E+02  0.7816164E-02  0.1300439E+00
        -11   -1    0    0    0    0  0.00000000000E+00  0.00000000000E+00  0.45593999997E+02  0.45594000000E+02  0.51100000000E-03 0.  1.
         11   -1    0    0    0    0 -0.00000000000E+00 -0.00000000000E+00 -0.45593999997E+02  0.45594000000E+02  0.51100000000E-03 0. -1.
    9900012    2    1    2    0    0  0.57961165096E+01 -0.23740102443E+02  0.32495811886E+02  0.50528865470E+02  0.30000017083E+02 0.  0.
         12    1    1    2    0    0 -0.57961165096E+01  0.23740102443E+02 -0.32495811886E+02  0.40659134530E+02  0.00000000000E+00 0. -1.
         11    1    3    3    0    0  0.15012210908E+01  0.56976083760E+01  0.36981329984E+01  0.69564785563E+01  0.51100000000E-03 0. -1.
        -11    1    3    3    0    0  0.90827386543E+01 -0.15720598735E+02  0.16647654223E+02  0.24632859303E+02  0.51100000000E-03 0.  1.
        -12    1    3    3    0    0 -0.47878432355E+01 -0.13717112084E+02  0.12150024664E+02  0.18939527611E+02  0.00000000000E+00 0.  1.
</event>
<event>
 7    1  0.5849044E-013  0.5052885E+02  0.7816164E-02  0.1300439E+00
        -11   -1    0    0    0    0  0.00000000000E+00  0.00000000000E+00  0.45593999997E+02  0.45594000000E+02  0.51100000000E-03 0. -1.
         11   -1    0    0    0    0 -0.00000000000E+00 -0.00000000000E+00 -0.45593999997E+02  0.45594000000E+02  0.51100000000E-03 0.  1.
    9900012    2    1    2    0    0 -0.29707426091E+02  0.13715733231E+02 -0.24135322412E+02  0.50528852309E+02  0.29999977079E+02 0.  0.
         12    1    1    2    0    0  0.29707426091E+02 -0.13715733231E+02  0.24135322412E+02  0.40659147691E+02  0.00000000000E+00 0. -1.
         11    1    3    3    0    0 -0.12140684725E+02  0.16723213345E+02 -0.18927610606E+00  0.20666347425E+02  0.51100000000E-03 0. -1.
        -11    1    3    3    0    0 -0.11887332955E+02 -0.24340860880E+01 -0.16362278728E+02  0.20370508715E+02  0.51100000000E-03 0.  1.
         12    1    3    3    0    0 -0.56794084108E+01 -0.57339402586E+00 -0.75837675775E+01  0.94919961691E+01  0.00000000000E+00 0. -1.
</event>
<event>
 7    1  0.5849044E-013  0.5052886E+02  0.7816164E-02  0.1300439E+00
        -11   -1    0    0    0    0  0.00000000000E+00  0.00000000000E+00  0.45593999997E+02  0.45594000000E+02  0.51100000000E-03 0.  1.
         11   -1    0    0    0    0 -0.00000000000E+00 -0.00000000000E+00 -0.45593999997E+02  0.45594000000E+02  0.51100000000E-03 0. -1.
    9900012    2    1    2    0    0 -0.38949596783E+02 -0.67830920462E+01  0.94912589149E+01  0.50528862982E+02  0.30000009519E+02 0.  0.
         12    1    1    2    0    0  0.38949596783E+02  0.67830920462E+01 -0.94912589149E+01  0.40659137018E+02  0.00000000000E+00 0. -1.
         11    1    3    3    0    0 -0.35773856684E+01 -0.12299885509E+02  0.44482964407E+01  0.13559948865E+02  0.51100000000E-03 0. -1.
        -11    1    3    3    0    0 -0.23864393664E+02  0.28906017661E-01  0.36886715063E+01  0.24147803591E+02  0.51100000000E-03 0.  1.
         12    1    3    3    0    0 -0.11507817451E+02  0.54878874449E+01  0.13542909679E+01  0.12821110526E+02  0.00000000000E+00 0. -1.
</event>
<event>
 7    1  0.5849044E-013  0.5052884E+02  0.7816164E-02  0.1300439E+00
        -11   -1    0    0    0    0  0.00000000000E+00  0.00000000000E+00  0.45593999997E+02  0.45594000000E+02  0.51100000000E-03 0.  1.
         11   -1    0    0    0    0 -0.00000000000E+00 -0.00000000000E+00 -0.45593999997E+02  0.45594000000E+02  0.51100000000E-03 0. -1.
    9900012    2    1    2    0    0 -0.17171166391E+02 -0.20089261848E+01  0.36800576776E+02  0.50528841244E+02  0.29999943446E+02 0.  0.
         12    1    1    2    0    0  0.17171166391E+02  0.20089261848E+01 -0.36800576776E+02  0.40659158756E+02  0.00000000000E+00 0. -1.
         11    1    3    3    0    0 -0.14477467637E+02 -0.38780607080E+01  0.44850010433E+01  0.15644540858E+02  0.51100000000E-03 0. -1.
        -11    1    3    3    0    0  0.31409192247E+01  0.16615265518E+01  0.26160584167E+02  0.26400799387E+02  0.51100000000E-03 0.  1.
        -12    1    3    3    0    0 -0.58346179787E+01  0.20760797143E+00  0.61549915663E+01  0.84835009995E+01  0.00000000000E+00 0.  1.
</event>
<event>
 7    1  0.5849044E-013  0.5052886E+02  0.7816164E-02  0.1300439E+00
        -11   -1    0    0    0    0  0.00000000000E+00  0.00000000000E+00  0.45593999997E+02  0.45594000000E+02  0.51100000000E-03 0.  1.
         11   -1    0    0    0    0 -0.00000000000E+00 -0.00000000000E+00 -0.45593999997E+02  0.45594000000E+02  0.51100000000E-03 0. -1.
    9900012    2    1    2    0    0  0.16652600685E+02 -0.15319208323E+02  0.33781333363E+02  0.50528859122E+02  0.29999997786E+02 0.  0.
         12    1    1    2    0    0 -0.16652600685E+02  0.15319208323E+02 -0.33781333363E+02  0.40659140878E+02  0.00000000000E+00 0. -1.
         11    1    3    3    0    0  0.11068878739E+02  0.47295226437E+01  0.20337717068E+02  0.23632841488E+02  0.51100000000E-03 0. -1.
        -11    1    3    3    0    0  0.38711959926E+01 -0.68101208518E+01 -0.16231938401E+00  0.78351931867E+01  0.51100000000E-03 0.  1.
        -12    1    3    3    0    0  0.17125259528E+01 -0.13238610115E+02  0.13605935679E+02  0.19060824447E+02  0.00000000000E+00 0.  1.
</event>
<event>
 7    1  0.5849044E-013  0.5052886E+02  0.7816164E-02  0.1300439E+00
        -11   -1    0    0    0    0  0.00000000000E+00  0.00000000000E+00  0.45593999997E+02  0.45594000000E+02  0.51100000000E-03 0.  1.
         11   -1    0    0    0    0 -0.00000000000E+00 -0.00000000000E+00 -0.45593999997E+02  0.45594000000E+02  0.51100000000E-03 0. -1.
    9900012    2    1    2    0    0 -0.31017342627E+02 -0.43700073839E+01  0.25922827341E+02  0.50528862214E+02  0.30000007185E+02 0.  0.
         12    1    1    2    0    0  0.31017342627E+02  0.43700073839E+01 -0.25922827341E+02  0.40659137786E+02  0.00000000000E+00 0. -1.
         11    1    3    3    0    0 -0.80677479452E+00 -0.92851346716E+01  0.44290989200E+01  0.10318988756E+02  0.51100000000E-03 0. -1.
        -11    1    3    3    0    0 -0.93493714763E+01  0.61648305721E+01  0.14178855404E+02  0.18068088549E+02  0.51100000000E-03 0.  1.
        -12    1    3    3    0    0 -0.20861196356E+02 -0.12497032844E+01  0.73148730173E+01  0.22141784909E+02  0.00000000000E+00 0.  1.
</event>
<event>
 7    1  0.5849044E-013  0.5052889E+02  0.7816164E-02  0.1300439E+00
        -11   -1    0    0    0    0  0.00000000000E+00  0.00000000000E+00  0.45593999997E+02  0.45594000000E+02  0.51100000000E-03 0.  1.
         11   -1    0    0    0    0 -0.00000000000E+00 -0.00000000000E+00 -0.45593999997E+02  0.45594000000E+02  0.51100000000E-03 0. -1.
    9900012    2    1    2    0    0 -0.24787972297E+02  0.18393359624E+02  0.26465151647E+02  0.50528886623E+02  0.30000081381E+02 0.  0.
         12    1    1    2    0    0  0.24787972297E+02 -0.18393359624E+02 -0.26465151647E+02  0.40659113377E+02  0.00000000000E+00 0. -1.
         11    1    3    3    0    0 -0.25312669913E+01  0.77077520223E+01 -0.69288758718E+00  0.81422875955E+01  0.51100000000E-03 0.  1.
        -11    1    3    3    0    0 -0.79432760149E+01 -0.59429664728E+01  0.12680750782E+02  0.16100184005E+02  0.51100000000E-03 0. -1.
        -12    1    3    3    0    0 -0.14313429291E+02  0.16628574075E+02  0.14477288453E+02  0.26286415023E+02  0.00000000000E+00 0.  1.
</event>
<event>
 7    1  0.5849044E-013  0.5052885E+02  0.7816164E-02  0.1300439E+00
        -11   -1    0    0    0    0  0.00000000000E+00  0.00000000000E+00  0.45593999997E+02  0.45594000000E+02  0.51100000000E-03 0.  1.
         11   -1    0    0    0    0 -0.00000000000E+00 -0.00000000000E+00 -0.45593999997E+02  0.45594000000E+02  0.51100000000E-03 0. -1.
    9900012    2    1    2    0    0 -0.94022819939E+01  0.10219850292E+02  0.38214109568E+02  0.50528850762E+02  0.29999972377E+02 0.  0.
         12    1    1    2    0    0  0.94022819939E+01 -0.10219850292E+02 -0.38214109568E+02  0.40659149238E+02  0.00000000000E+00 0. -1.
         11    1    3    3    0    0 -0.83664918333E+01 -0.28767124530E+01  0.19331166433E+01  0.90559704257E+01  0.51100000000E-03 0. -1.
        -11    1    3    3    0    0 -0.41257708160E+01  0.15438856356E+02  0.31459589333E+02  0.35285776620E+02  0.51100000000E-03 0.  1.
        -12    1    3    3    0    0  0.30899806554E+01 -0.23422936108E+01  0.48214035908E+01  0.61871037162E+01  0.00000000000E+00 0.  1.
</event>
<event>
 7    1  0.5849044E-013  0.5052884E+02  0.7816164E-02  0.1300439E+00
        -11   -1    0    0    0    0  0.00000000000E+00  0.00000000000E+00  0.45593999997E+02  0.45594000000E+02  0.51100000000E-03 0.  1.
         11   -1    0    0    0    0 -0.00000000000E+00 -0.00000000000E+00 -0.45593999997E+02  0.45594000000E+02  0.51100000000E-03 0. -1.
    9900012    2    1    2    0    0 -0.24433935246E+02  0.17393712709E+02  0.27451937525E+02  0.50528839811E+02  0.29999939089E+02 0.  0.
         12    1    1    2    0    0  0.24433935246E+02 -0.17393712709E+02 -0.27451937525E+02  0.40659160189E+02  0.00000000000E+00 0. -1.
         11    1    3    3    0    0  0.13216733548E+01  0.81333918449E+01  0.65503391745E+01  0.10526434673E+02  0.51100000000E-03 0. -1.
        -11    1    3    3    0    0 -0.24186587099E+02 -0.52908981190E+00  0.14710363048E+02  0.28313701856E+02  0.51100000000E-03 0.  1.
        -12    1    3    3    0    0 -0.15690215018E+01  0.97894106758E+01  0.61912353026E+01  0.11688703282E+02  0.00000000000E+00 0.  1.
</event>
<event>
 7    1  0.5849044E-013  0.5052890E+02  0.7816164E-02  0.1300439E+00
        -11   -1    0    0    0    0  0.00000000000E+00  0.00000000000E+00  0.45593999997E+02  0.45594000000E+02  0.51100000000E-03 0.  1.
         11   -1    0    0    0    0 -0.00000000000E+00 -0.00000000000E+00 -0.45593999997E+02  0.45594000000E+02  0.51100000000E-03 0. -1.
    9900012    2    1    2    0    0 -0.26472928140E+02 -0.18993199690E+02  0.24322933006E+02  0.50528897344E+02  0.30000113966E+02 0.  0.
         12    1    1    2    0    0  0.26472928140E+02  0.18993199690E+02 -0.24322933006E+02  0.40659102656E+02  0.00000000000E+00 0. -1.
         11    1    3    3    0    0 -0.74788862290E-01 -0.46649432252E+01 -0.44572702668E+01  0.64524837978E+01  0.51100000000E-03 0. -1.
        -11    1    3    3    0    0 -0.10583768992E+02  0.17182757326E+01  0.74954835611E+01  0.13082465809E+02  0.51100000000E-03 0.  1.
         12    1    3    3    0    0 -0.15814370286E+02 -0.16046532197E+02  0.21284719712E+02  0.30993947737E+02  0.00000000000E+00 0. -1.
</event>
<event>
 7    1  0.5849044E-013  0.5052886E+02  0.7816164E-02  0.1300439E+00
        -11   -1    0    0    0    0  0.00000000000E+00  0.00000000000E+00  0.45593999997E+02  0.45594000000E+02  0.51100000000E-03 0.  1.
         11   -1    0    0    0    0 -0.00000000000E+00 -0.00000000000E+00 -0.45593999997E+02  0.45594000000E+02  0.51100000000E-03 0. -1.
    9900012    2    1    2    0    0 -0.22247431733E+02  0.87664389122E+01  0.32884143750E+02  0.50528861051E+02  0.30000003651E+02 0.  0.
         12    1    1    2    0    0  0.22247431733E+02 -0.87664389122E+01 -0.32884143750E+02  0.40659138949E+02  0.00000000000E+00 0. -1.
         11    1    3    3    0    0 -0.42283206700E+00 -0.12043839987E+01  0.61921321400E+00  0.14187152775E+01  0.51100000000E-03 0. -1.
        -11    1    3    3    0    0  0.38506591892E+01  0.66185096854E+01  0.17969333746E+02  0.19532772516E+02  0.51100000000E-03 0.  1.
        -12    1    3    3    0    0 -0.25675258855E+02  0.33523132255E+01  0.14295596790E+02  0.29577373257E+02  0.00000000000E+00 0.  1.
</event>
<event>
 7    1  0.5849044E-013  0.5052886E+02  0.7816164E-02  0.1300439E+00
        -11   -1    0    0    0    0  0.00000000000E+00  0.00000000000E+00  0.45593999997E+02  0.45594000000E+02  0.51100000000E-03 0. -1.
         11   -1    0    0    0    0 -0.00000000000E+00 -0.00000000000E+00 -0.45593999997E+02  0.45594000000E+02  0.51100000000E-03 0.  1.
    9900012    2    1    2    0    0 -0.15419481626E+02  0.77972078951E+01 -0.36805009041E+02  0.50528861358E+02  0.30000004584E+02 0.  0.
         12    1    1    2    0    0  0.15419481626E+02 -0.77972078951E+01  0.36805009041E+02  0.40659138642E+02  0.00000000000E+00 0. -1.
         11    1    3    3    0    0  0.75396013899E+01  0.53371220947E+01 -0.11489935397E+02  0.14742763549E+02  0.51100000000E-03 0. -1.
        -11    1    3    3    0    0 -0.58984360580E+01 -0.82017721364E+00 -0.13559104734E+02  0.14809239010E+02  0.51100000000E-03 0.  1.
         12    1    3    3    0    0 -0.17060646958E+02  0.32802630141E+01 -0.11755968910E+02  0.20976858799E+02  0.00000000000E+00 0. -1.
</event>
<event>
 7    1  0.5849044E-013  0.5052885E+02  0.7816164E-02  0.1300439E+00
        -11   -1    0    0    0    0  0.00000000000E+00  0.00000000000E+00  0.45593999997E+02  0.45594000000E+02  0.51100000000E-03 0.  1.
         11   -1    0    0    0    0 -0.00000000000E+00 -0.00000000000E+00 -0.45593999997E+02  0.45594000000E+02  0.51100000000E-03 0. -1.
    9900012    2    1    2    0    0 -0.37300309533E+02  0.53293414854E+01  0.15279128950E+02  0.50528846622E+02  0.29999959792E+02 0.  0.
         12    1    1    2    0    0  0.37300309533E+02 -0.53293414854E+01 -0.15279128950E+02  0.40659153378E+02  0.00000000000E+00 0. -1.
         11    1    3    3    0    0 -0.23694885339E+02 -0.54455603440E+01 -0.31461745269E+01  0.24515304058E+02  0.51100000000E-03 0. -1.
        -11    1    3    3    0    0 -0.12091294716E+02  0.68365759339E+01  0.12165506475E+02  0.18464499085E+02  0.51100000000E-03 0.  1.
         12    1    3    3    0    0 -0.15141294792E+01  0.39383258954E+01  0.62597970014E+01  0.75490434782E+01  0.00000000000E+00 0. -1.
</event>
<event>
 7    1  0.5849044E-013  0.5052886E+02  0.7816164E-02  0.1300439E+00
        -11   -1    0    0    0    0  0.00000000000E+00  0.00000000000E+00  0.45593999997E+02  0.45594000000E+02  0.51100000000E-03 0.  1.
         11   -1    0    0    0    0 -0.00000000000E+00 -0.00000000000E+00 -0.45593999997E+02  0.45594000000E+02  0.51100000000E-03 0. -1.
    9900012    2    1    2    0    0 -0.74005974334E+01  0.77781331088E+01  0.39216035077E+02  0.50528860755E+02  0.30000002750E+02 0.  0.
         12    1    1    2    0    0  0.74005974334E+01 -0.77781331088E+01 -0.39216035077E+02  0.40659139245E+02  0.00000000000E+00 0. -1.
         11    1    3    3    0    0 -0.42364666975E+01  0.26331088636E+01 -0.20172300101E+01  0.53805324589E+01  0.51100000000E-03 0. -1.
        -11    1    3    3    0    0 -0.10051059589E+02  0.36886018044E+01  0.30387384443E+02  0.32218359916E+02  0.51100000000E-03 0.  1.
         12    1    3    3    0    0  0.68869288535E+01  0.14564224407E+01  0.10845880644E+02  0.12929968380E+02  0.00000000000E+00 0. -1.
</event>
<event>
 7    1  0.5849044E-013  0.5052886E+02  0.7816164E-02  0.1300439E+00
        -11   -1    0    0    0    0  0.00000000000E+00  0.00000000000E+00  0.45593999997E+02  0.45594000000E+02  0.51100000000E-03 0.  1.
         11   -1    0    0    0    0 -0.00000000000E+00 -0.00000000000E+00 -0.45593999997E+02  0.45594000000E+02  0.51100000000E-03 0. -1.
    9900012    2    1    2    0    0  0.12824204039E+02  0.28267188323E+02  0.26261592561E+02  0.50528863404E+02  0.30000010802E+02 0.  0.
         12    1    1    2    0    0 -0.12824204039E+02 -0.28267188323E+02 -0.26261592561E+02  0.40659136596E+02  0.00000000000E+00 0. -1.
         11    1    3    3    0    0 -0.26021437229E+01  0.55382878380E+01 -0.33495984679E+01  0.69759296361E+01  0.51100000000E-03 0. -1.
        -11    1    3    3    0    0  0.12209984664E+02  0.53645613012E+01  0.18061529075E+02  0.22451749959E+02  0.51100000000E-03 0.  1.
        -12    1    3    3    0    0  0.32163630975E+01  0.17364339184E+02  0.11549661954E+02  0.21101183809E+02  0.00000000000E+00 0.  1.
</event>
<event>
 7    1  0.5849044E-013  0.5052876E+02  0.7816164E-02  0.1300439E+00
        -11   -1    0    0    0    0  0.00000000000E+00  0.00000000000E+00  0.45593999997E+02  0.45594000000E+02  0.51100000000E-03 0.  1.
         11   -1    0    0    0    0 -0.00000000000E+00 -0.00000000000E+00 -0.45593999997E+02  0.45594000000E+02  0.51100000000E-03 0. -1.
    9900012    2    1    2    0    0  0.31750151606E+02  0.25102447214E+02  0.38689254537E+01  0.50528762829E+02  0.29999705095E+02 0.  0.
         12    1    1    2    0    0 -0.31750151606E+02 -0.25102447214E+02 -0.38689254537E+01  0.40659237171E+02  0.00000000000E+00 0. -1.
         11    1    3    3    0    0  0.20617802071E+01 -0.64075853004E+01  0.15333978138E+01  0.69035785011E+01  0.51100000000E-03 0. -1.
        -11    1    3    3    0    0  0.13323902282E+02  0.15604529964E+02  0.33077400844E+01  0.20783860858E+02  0.51100000000E-03 0.  1.
         12    1    3    3    0    0  0.16364469116E+02  0.15905502550E+02 -0.97221244447E+00  0.22841323470E+02  0.00000000000E+00 0. -1.
</event>
<event>
 7    1  0.5849044E-013  0.5052886E+02  0.7816164E-02  0.1300439E+00
        -11   -1    0    0    0    0  0.00000000000E+00  0.00000000000E+00  0.45593999997E+02  0.45594000000E+02  0.51100000000E-03 0. -1.
         11   -1    0    0    0    0 -0.00000000000E+00 -0.00000000000E+00 -0.45593999997E+02  0.45594000000E+02  0.51100000000E-03 0.  1.
    9900012    2    1    2    0    0  0.11800307685E+02 -0.29029636710E+02 -0.25907495501E+02  0.50528863362E+02  0.30000010675E+02 0.  0.
         12    1    1    2    0    0 -0.11800307685E+02  0.29029636710E+02  0.25907495501E+02  0.40659136638E+02  0.00000000000E+00 0. -1.
         11    1    3    3    0    0  0.49232549599E+00 -0.13618043232E+02 -0.20182514638E+02  0.24352153565E+02  0.51100000000E-03 0. -1.
        -11    1    3    3    0    0  0.37251109007E+01 -0.89358893754E+01  0.55223265915E+01  0.11145522033E+02  0.51100000000E-03 0.  1.
        -12    1    3    3    0    0  0.75828712888E+01 -0.64757041029E+01 -0.11247307455E+02  0.15031187764E+02  0.00000000000E+00 0.  1.
</event>
<event>
 7    1  0.5849044E-013  0.5052888E+02  0.7816164E-02  0.1300439E+00
        -11   -1    0    0    0    0  0.00000000000E+00  0.00000000000E+00  0.45593999997E+02  0.45594000000E+02  0.51100000000E-03 0. -1.
         11   -1    0    0    0    0 -0.00000000000E+00 -0.00000000000E+00 -0.45593999997E+02  0.45594000000E+02  0.51100000000E-03 0.  1.
    9900012    2    1    2    0    0  0.19392595515E+02  0.31793164505E+02 -0.16318266200E+02  0.50528881935E+02  0.30000067130E+02 0.  0.
         12    1    1    2    0    0 -0.19392595515E+02 -0.31793164505E+02  0.16318266200E+02  0.40659118065E+02  0.00000000000E+00 0. -1.
         11    1    3    3    0    0  0.12170215133E+02  0.26342910172E+01 -0.49601911838E+00  0.12461928453E+02  0.51100000000E-03 0. -1.
        -11    1    3    3    0    0 -0.50783175883E+01  0.82685196860E+01 -0.80523179391E+01  0.12609423134E+02  0.51100000000E-03 0.  1.
        -12    1    3    3    0    0  0.12300697971E+02  0.20890353802E+02 -0.77699291422E+01  0.25457530348E+02  0.00000000000E+00 0.  1.
</event>
<event>
 7    1  0.5849044E-013  0.5052886E+02  0.7816164E-02  0.1300439E+00
        -11   -1    0    0    0    0  0.00000000000E+00  0.00000000000E+00  0.45593999997E+02  0.45594000000E+02  0.51100000000E-03 0.  1.
         11   -1    0    0    0    0 -0.00000000000E+00 -0.00000000000E+00 -0.45593999997E+02  0.45594000000E+02  0.51100000000E-03 0. -1.
    9900012    2    1    2    0    0 -0.12835257493E+02 -0.31494603410E+02  0.22282547700E+02  0.50528858213E+02  0.29999995024E+02 0.  0.
         12    1    1    2    0    0  0.12835257493E+02  0.31494603410E+02 -0.22282547700E+02  0.40659141787E+02  0.00000000000E+00 0. -1.
         11    1    3    3    0    0  0.69698414320E+01 -0.64979596295E+01  0.13214626796E+02  0.16291977490E+02  0.51100000000E-03 0. -1.
        -11    1    3    3    0    0 -0.19085435896E+01 -0.57012732465E+01  0.45379506917E+01  0.75325992862E+01  0.51100000000E-03 0.  1.
         12    1    3    3    0    0 -0.17896555335E+02 -0.19295370534E+02  0.45299702121E+01  0.26704281436E+02  0.00000000000E+00 0. -1.
</event>
<event>
 7    1  0.5849044E-013  0.5052885E+02  0.7816164E-02  0.1300439E+00
        -11   -1    0    0    0    0  0.00000000000E+00  0.00000000000E+00  0.45593999997E+02  0.45594000000E+02  0.51100000000E-03 0.  1.
         11   -1    0    0    0    0 -0.00000000000E+00 -0.00000000000E+00 -0.45593999997E+02  0.45594000000E+02  0.51100000000E-03 0. -1.
    9900012    2    1    2    0    0  0.26304131932E+02  0.96944422352E+01  0.29449561117E+02  0.50528853219E+02  0.29999979845E+02 0.  0.
         12    1    1    2    0    0 -0.26304131932E+02 -0.96944422352E+01 -0.29449561117E+02  0.40659146781E+02  0.00000000000E+00 0. -1.
         11    1    3    3    0    0 -0.21769283408E+01  0.10883254670E+02  0.48834103019E+01  0.12125672998E+02  0.51100000000E-03 0. -1.
        -11    1    3    3    0    0  0.15183465354E+02  0.30519524889E+01  0.11567150607E+02  0.19330054516E+02  0.51100000000E-03 0.  1.
         12    1    3    3    0    0  0.13297594919E+02 -0.42407649236E+01  0.12999000208E+02  0.19073125705E+02  0.00000000000E+00 0. -1.
</event>
<event>
 7    1  0.5849044E-013  0.5052888E+02  0.7816164E-02  0.1300439E+00
        -11   -1    0    0    0    0  0.00000000000E+00  0.00000000000E+00  0.45593999997E+02  0.45594000000E+02  0.51100000000E-03 0.  1.
         11   -1    0    0    0    0 -0.00000000000E+00 -0.00000000000E+00 -0.45593999997E+02  0.45594000000E+02  0.51100000000E-03 0. -1.
    9900012    2    1    2    0    0  0.11463863482E+02  0.39008210510E+02 -0.32169001566E+00  0.50528878789E+02  0.30000057568E+02 0.  0.
         12    1    1    2    0    0 -0.11463863482E+02 -0.39008210510E+02  0.32169001566E+00  0.40659121211E+02  0.00000000000E+00 0. -1.
         11    1    3    3    0    0  0.52019723683E+01  0.58725866970E+01 -0.70896970132E+01  0.10574100200E+02  0.51100000000E-03 0. -1.
        -11    1    3    3    0    0 -0.64502807628E+01  0.20282544709E+02  0.42311638855E+01  0.21700011288E+02  0.51100000000E-03 0.  1.
        -12    1    3    3    0    0  0.12712171877E+02  0.12853079104E+02  0.25368431121E+01  0.18254767302E+02  0.00000000000E+00 0.  1.
</event>
<event>
 7    1  0.5849044E-013  0.5052886E+02  0.7816164E-02  0.1300439E+00
        -11   -1    0    0    0    0  0.00000000000E+00  0.00000000000E+00  0.45593999997E+02  0.45594000000E+02  0.51100000000E-03 0. -1.
         11   -1    0    0    0    0 -0.00000000000E+00 -0.00000000000E+00 -0.45593999997E+02  0.45594000000E+02  0.51100000000E-03 0.  1.
    9900012    2    1    2    0    0 -0.40632974666E+02 -0.11926837719E+01  0.83946020534E+00  0.50528858122E+02  0.29999994748E+02 0.  0.
         12    1    1    2    0    0  0.40632974666E+02  0.11926837719E+01 -0.83946020534E+00  0.40659141878E+02  0.00000000000E+00 0. -1.
         11    1    3    3    0    0 -0.14411645002E+02  0.87783688086E+01 -0.47955665204E+01  0.17542882578E+02  0.51100000000E-03 0. -1.
        -11    1    3    3    0    0 -0.27060409418E+01 -0.51694359316E+01 -0.40524609118E+01  0.71040949552E+01  0.51100000000E-03 0.  1.
         12    1    3    3    0    0 -0.23515288722E+02 -0.48016166489E+01  0.96874876375E+01  0.25881880589E+02  0.00000000000E+00 0. -1.
</event>
<event>
 7    1  0.5849044E-013  0.5052886E+02  0.7816164E-02  0.1300439E+00
        -11   -1    0    0    0    0  0.00000000000E+00  0.00000000000E+00  0.45593999997E+02  0.45594000000E+02  0.51100000000E-03 0. -1.
         11   -1    0    0    0    0 -0.00000000000E+00 -0.00000000000E+00 -0.45593999997E+02  0.45594000000E+02  0.51100000000E-03 0.  1.
    9900012    2    1    2    0    0 -0.78722262721E+01  0.31322682622E+02 -0.24699870714E+02  0.50528855809E+02  0.29999987716E+02 0.  0.
         12    1    1    2    0    0  0.78722262721E+01 -0.31322682622E+02  0.24699870714E+02  0.40659144191E+02  0.00000000000E+00 0. -1.
         11    1    3    3    0    0 -0.14664246853E+01  0.24306748723E+02 -0.66953912517E+01  0.25254637181E+02  0.51100000000E-03 0.  1.
        -11    1    3    3    0    0 -0.65829779445E+00  0.13285236709E+01 -0.17070353032E+02  0.17134622377E+02  0.51100000000E-03 0. -1.
         12    1    3    3    0    0 -0.57475037924E+01  0.56874102275E+01 -0.93412643043E+00  0.81395962509E+01  0.00000000000E+00 0. -1.
</event>
<event>
 7    1  0.5849044E-013  0.5052887E+02  0.7816164E-02  0.1300439E+00
        -11   -1    0    0    0    0  0.00000000000E+00  0.00000000000E+00  0.45593999997E+02  0.45594000000E+02  0.51100000000E-03 0.  1.
         11   -1    0    0    0    0 -0.00000000000E+00 -0.00000000000E+00 -0.45593999997E+02  0.45594000000E+02  0.51100000000E-03 0. -1.
    9900012    2    1    2    0    0 -0.27024914533E+02  0.12577464906E+02  0.27651874059E+02  0.50528871038E+02  0.30000034007E+02 0.  0.
         12    1    1    2    0    0  0.27024914533E+02 -0.12577464906E+02 -0.27651874059E+02  0.40659128962E+02  0.00000000000E+00 0. -1.
         11    1    3    3    0    0  0.20157955583E+01 -0.56267409267E+01 -0.41337293953E+00  0.59912037720E+01  0.51100000000E-03 0. -1.
        -11    1    3    3    0    0 -0.18741322705E+02  0.14176945978E+02  0.19855339941E+02  0.30764549378E+02  0.51100000000E-03 0.  1.
         12    1    3    3    0    0 -0.10299387386E+02  0.40272598548E+01  0.82099070573E+01  0.13773117888E+02  0.00000000000E+00 0. -1.
</event>
<event>
 7    1  0.5849044E-013  0.5052885E+02  0.7816164E-02  0.1300439E+00
        -11   -1    0    0    0    0  0.00000000000E+00  0.00000000000E+00  0.45593999997E+02  0.45594000000E+02  0.51100000000E-03 0.  1.
         11   -1    0    0    0    0 -0.00000000000E+00 -0.00000000000E+00 -0.45593999997E+02  0.45594000000E+02  0.51100000000E-03 0. -1.
    9900012    2    1    2    0    0 -0.25987639828E+02 -0.12778706027E+02  0.28539692776E+02  0.50528845861E+02  0.29999957478E+02 0.  0.
         12    1    1    2    0    0  0.25987639828E+02  0.12778706027E+02 -0.28539692776E+02  0.40659154139E+02  0.00000000000E+00 0. -1.
         11    1    3    3    0    0 -0.57503370414E+01  0.24995352768E+01 -0.35202727985E+01  0.71907143961E+01  0.51100000000E-03 0. -1.
        -11    1    3    3    0    0 -0.16385725014E+02 -0.76614324879E+01  0.29177083157E+02  0.34329167100E+02  0.51100000000E-03 0.  1.
         12    1    3    3    0    0 -0.38515777723E+01 -0.76168088163E+01  0.28828824183E+01  0.90089643643E+01  0.00000000000E+00 0. -1.
</event>
<event>
 7    1  0.5849044E-013  0.5052887E+02  0.7816164E-02  0.1300439E+00
        -11   -1    0    0    0    0  0.00000000000E+00  0.00000000000E+00  0.45593999997E+02  0.45594000000E+02  0.51100000000E-03 0.  1.
         11   -1    0    0    0    0 -0.00000000000E+00 -0.00000000000E+00 -0.45593999997E+02  0.45594000000E+02  0.51100000000E-03 0. -1.
    9900012    2    1    2    0    0 -0.29268551434E+02 -0.25907157235E+02  0.11195365671E+02  0.50528866813E+02  0.30000021164E+02 0.  0.
         12    1    1    2    0    0  0.29268551434E+02  0.25907157235E+02 -0.11195365671E+02  0.40659133187E+02  0.00000000000E+00 0. -1.
         11    1    3    3    0    0  0.31873532757E+01 -0.43281267213E+01 -0.10896060467E+01  0.54844455889E+01  0.51100000000E-03 0. -1.
        -11    1    3    3    0    0 -0.18571433694E+02 -0.23817257792E+01  0.10041803809E+02  0.21246378306E+02  0.51100000000E-03 0.  1.
        -12    1    3    3    0    0 -0.13884471016E+02 -0.19197304734E+02  0.22431679088E+01  0.23798042918E+02  0.00000000000E+00 0.  1.
</event>
<event>
 7    1  0.5849044E-013  0.5052885E+02  0.7816164E-02  0.1300439E+00
        -11   -1    0    0    0    0  0.00000000000E+00  0.00000000000E+00  0.45593999997E+02  0.45594000000E+02  0.51100000000E-03 0.  1.
         11   -1    0    0    0    0 -0.00000000000E+00 -0.00000000000E+00 -0.45593999997E+02  0.45594000000E+02  0.51100000000E-03 0. -1.
    9900012    2    1    2    0    0 -0.22941013317E+02 -0.30304854099E+02 -0.14439249043E+02  0.50528853589E+02  0.29999980969E+02 0.  0.
         12    1    1    2    0    0  0.22941013317E+02  0.30304854099E+02  0.14439249043E+02  0.40659146411E+02  0.00000000000E+00 0. -1.
         11    1    3    3    0    0  0.16357444815E+01 -0.50899250613E+01 -0.12419436789E+02  0.13521294596E+02  0.51100000000E-03 0. -1.
        -11    1    3    3    0    0 -0.76836553948E+01 -0.11935755662E+02  0.38969825697E+01  0.14720302200E+02  0.51100000000E-03 0.  1.
         12    1    3    3    0    0 -0.16893102404E+02 -0.13279173375E+02 -0.59167948240E+01  0.22287256793E+02  0.00000000000E+00 0. -1.
</event>
<event>
 7    1  0.5849044E-013  0.5052882E+02  0.7816164E-02  0.1300439E+00
        -11   -1    0    0    0    0  0.00000000000E+00  0.00000000000E+00  0.45593999997E+02  0.45594000000E+02  0.51100000000E-03 0.  1.
         11   -1    0    0    0    0 -0.00000000000E+00 -0.00000000000E+00 -0.45593999997E+02  0.45594000000E+02  0.51100000000E-03 0. -1.
    9900012    2    1    2    0    0 -0.20269481252E+02  0.25161178352E+02  0.24682621679E+02  0.50528824169E+02  0.29999891545E+02 0.  0.
         12    1    1    2    0    0  0.20269481252E+02 -0.25161178352E+02 -0.24682621679E+02  0.40659175831E+02  0.00000000000E+00 0. -1.
         11    1    3    3    0    0  0.19407580965E+01  0.10439750188E+02  0.45663469625E+01  0.11558825668E+02  0.51100000000E-03 0. -1.
        -11    1    3    3    0    0 -0.16557427656E+02  0.13829797495E+02  0.23832501549E+02  0.32146536978E+02  0.51100000000E-03 0.  1.
        -12    1    3    3    0    0 -0.56528116924E+01  0.89163066854E+00 -0.37162268330E+01  0.68234615228E+01  0.00000000000E+00 0.  1.
</event>
<event>
 7    1  0.5849044E-013  0.5052885E+02  0.7816164E-02  0.1300439E+00
        -11   -1    0    0    0    0  0.00000000000E+00  0.00000000000E+00  0.45593999997E+02  0.45594000000E+02  0.51100000000E-03 0.  1.
         11   -1    0    0    0    0 -0.00000000000E+00 -0.00000000000E+00 -0.45593999997E+02  0.45594000000E+02  0.51100000000E-03 0. -1.
    9900012    2    1    2    0    0  0.15713482769E+01 -0.32364020322E+02 -0.24561505115E+02  0.50528849980E+02  0.29999969999E+02 0.  0.
         12    1    1    2    0    0 -0.15713482769E+01  0.32364020322E+02  0.24561505115E+02  0.40659150020E+02  0.00000000000E+00 0. -1.
         11    1    3    3    0    0  0.44327480113E+01 -0.19019131477E+02  0.23486213673E+01  0.19669586667E+02  0.51100000000E-03 0. -1.
        -11    1    3    3    0    0 -0.44911546777E+01 -0.60173328361E+01 -0.11783431944E+02  0.13972402565E+02  0.51100000000E-03 0.  1.
         12    1    3    3    0    0  0.16297549433E+01 -0.73275560092E+01 -0.15126694538E+02  0.16886860747E+02  0.00000000000E+00 0. -1.
</event>
<event>
 7    1  0.5849044E-013  0.5052886E+02  0.7816164E-02  0.1300439E+00
        -11   -1    0    0    0    0  0.00000000000E+00  0.00000000000E+00  0.45593999997E+02  0.45594000000E+02  0.51100000000E-03 0.  1.
         11   -1    0    0    0    0 -0.00000000000E+00 -0.00000000000E+00 -0.45593999997E+02  0.45594000000E+02  0.51100000000E-03 0. -1.
    9900012    2    1    2    0    0  0.66552153613E+01 -0.12743144807E+02  0.38032698666E+02  0.50528858360E+02  0.29999995472E+02 0.  0.
         12    1    1    2    0    0 -0.66552153613E+01  0.12743144807E+02 -0.38032698666E+02  0.40659141640E+02  0.00000000000E+00 0. -1.
         11    1    3    3    0    0 -0.67898470621E+00  0.60470290070E+01  0.58009994496E+01  0.84070907524E+01  0.51100000000E-03 0. -1.
        -11    1    3    3    0    0  0.24486250380E+01 -0.20648006244E+02  0.29849584493E+02  0.36377652771E+02  0.51100000000E-03 0.  1.
         12    1    3    3    0    0  0.48855750295E+01  0.18578324302E+01  0.23821147226E+01  0.57441148369E+01  0.00000000000E+00 0. -1.
</event>
<event>
 7    1  0.5849044E-013  0.5052886E+02  0.7816164E-02  0.1300439E+00
        -11   -1    0    0    0    0  0.00000000000E+00  0.00000000000E+00  0.45593999997E+02  0.45594000000E+02  0.51100000000E-03 0.  1.
         11   -1    0    0    0    0 -0.00000000000E+00 -0.00000000000E+00 -0.45593999997E+02  0.45594000000E+02  0.51100000000E-03 0. -1.
    9900012    2    1    2    0    0 -0.46814830209E+01  0.23038239835E+01  0.40322972823E+02  0.50528855574E+02  0.29999987002E+02 0.  0.
         12    1    1    2    0    0  0.46814830209E+01 -0.23038239835E+01 -0.40322972823E+02  0.40659144426E+02  0.00000000000E+00 0. -1.
         11    1    3    3    0    0 -0.37905821104E+01  0.66542463568E+01 -0.89516598795E+00  0.77103067202E+01  0.51100000000E-03 0.  1.
        -11    1    3    3    0    0 -0.35385119487E+01 -0.15474476876E+00  0.43107812038E+01  0.55792336036E+01  0.51100000000E-03 0. -1.
         12    1    3    3    0    0  0.26476110382E+01 -0.41956776045E+01  0.36907357607E+02  0.37239315250E+02  0.00000000000E+00 0. -1.
</event>
<event>
 7    1  0.5849044E-013  0.5052887E+02  0.7816164E-02  0.1300439E+00
        -11   -1    0    0    0    0  0.00000000000E+00  0.00000000000E+00  0.45593999997E+02  0.45594000000E+02  0.51100000000E-03 0. -1.
         11   -1    0    0    0    0 -0.00000000000E+00 -0.00000000000E+00 -0.45593999997E+02  0.45594000000E+02  0.51100000000E-03 0.  1.
    9900012    2    1    2    0    0 -0.32528943165E+02  0.39055443572E+01 -0.24078614174E+02  0.50528867192E+02  0.30000022318E+02 0.  0.
         12    1    1    2    0    0  0.32528943165E+02 -0.39055443572E+01  0.24078614174E+02  0.40659132808E+02  0.00000000000E+00 0. -1.
         11    1    3    3    0    0 -0.13758947891E+01  0.73181345807E+01 -0.12768264490E+02  0.14780959325E+02  0.51100000000E-03 0. -1.
        -11    1    3    3    0    0 -0.22884686862E+02 -0.81486904525E+01 -0.92859700088E+01  0.26006523953E+02  0.51100000000E-03 0.  1.
         12    1    3    3    0    0 -0.82683615137E+01  0.47361002290E+01 -0.20243796749E+01  0.97413839144E+01  0.00000000000E+00 0. -1.
</event>
<event>
 7    1  0.5849044E-013  0.5052885E+02  0.7816164E-02  0.1300439E+00
        -11   -1    0    0    0    0  0.00000000000E+00  0.00000000000E+00  0.45593999997E+02  0.45594000000E+02  0.51100000000E-03 0. -1.
         11   -1    0    0    0    0 -0.00000000000E+00 -0.00000000000E+00 -0.45593999997E+02  0.45594000000E+02  0.51100000000E-03 0.  1.
    9900012    2    1    2    0    0 -0.22302989262E+02  0.28549916440E+02  0.18456573102E+02  0.50528854049E+02  0.29999982369E+02 0.  0.
         12    1    1    2    0    0  0.22302989262E+02 -0.28549916440E+02 -0.18456573102E+02  0.40659145951E+02  0.00000000000E+00 0. -1.
         11    1    3    3    0    0  0.23053833897E+01  0.98102502107E+00 -0.23924031584E+01  0.34642164769E+01  0.51100000000E-03 0. -1.
        -11    1    3    3    0    0 -0.17939300428E+02  0.19059735832E+02  0.32021597311E+01  0.26369411390E+02  0.51100000000E-03 0.  1.
        -12    1    3    3    0    0 -0.66690722232E+01  0.85091555866E+01  0.17646816530E+02  0.20695226182E+02  0.00000000000E+00 0.  1.
</event>
<event>
 7    1  0.5849044E-013  0.5052886E+02  0.7816164E-02  0.1300439E+00
        -11   -1    0    0    0    0  0.00000000000E+00  0.00000000000E+00  0.45593999997E+02  0.45594000000E+02  0.51100000000E-03 0.  1.
         11   -1    0    0    0    0 -0.00000000000E+00 -0.00000000000E+00 -0.45593999997E+02  0.45594000000E+02  0.51100000000E-03 0. -1.
    9900012    2    1    2    0    0  0.10513023491E+02  0.25148969913E+02  0.30169048300E+02  0.50528858027E+02  0.29999994459E+02 0.  0.
         12    1    1    2    0    0 -0.10513023491E+02 -0.25148969913E+02 -0.30169048300E+02  0.40659141973E+02  0.00000000000E+00 0. -1.
         11    1    3    3    0    0 -0.23710711174E+01  0.10077787510E+01  0.35074068628E+01  0.43519535173E+01  0.51100000000E-03 0. -1.
        -11    1    3    3    0    0  0.73196709996E+01  0.17379553938E+02  0.80231343096E+00  0.18875120813E+02  0.51100000000E-03 0.  1.
        -12    1    3    3    0    0  0.55644236088E+01  0.67616372248E+01  0.25859328007E+02  0.27301783696E+02  0.00000000000E+00 0.  1.
</event>
<event>
 7    1  0.5849044E-013  0.5052885E+02  0.7816164E-02  0.1300439E+00
        -11   -1    0    0    0    0  0.00000000000E+00  0.00000000000E+00  0.45593999997E+02  0.45594000000E+02  0.51100000000E-03 0.  1.
         11   -1    0    0    0    0 -0.00000000000E+00 -0.00000000000E+00 -0.45593999997E+02  0.45594000000E+02  0.51100000000E-03 0. -1.
    9900012    2    1    2    0    0  0.51552743012E+01  0.35935788525E+02  0.18308705862E+02  0.50528850225E+02  0.29999970745E+02 0.  0.
         12    1    1    2    0    0 -0.51552743012E+01 -0.35935788525E+02 -0.18308705862E+02  0.40659149775E+02  0.00000000000E+00 0. -1.
         11    1    3    3    0    0 -0.83049332481E-01 -0.29848353634E+01  0.13875515703E+01  0.32926340458E+01  0.51100000000E-03 0. -1.
        -11    1    3    3    0    0  0.12461416515E+02  0.24933958658E+02  0.74035198605E+01  0.28840965700E+02  0.51100000000E-03 0.  1.
        -12    1    3    3    0    0 -0.72230928811E+01  0.13986665231E+02  0.95176344313E+01  0.18395250480E+02  0.00000000000E+00 0.  1.
</event>
<event>
 7    1  0.5849044E-013  0.5052887E+02  0.7816164E-02  0.1300439E+00
        -11   -1    0    0    0    0  0.00000000000E+00  0.00000000000E+00  0.45593999997E+02  0.45594000000E+02  0.51100000000E-03 0.  1.
         11   -1    0    0    0    0 -0.00000000000E+00 -0.00000000000E+00 -0.45593999997E+02  0.45594000000E+02  0.51100000000E-03 0. -1.
    9900012    2    1    2    0    0  0.17328463681E+02 -0.33147959259E+02  0.15940565370E+02  0.50528874568E+02  0.30000044737E+02 0.  0.
         12    1    1    2    0    0 -0.17328463681E+02  0.33147959259E+02 -0.15940565370E+02  0.40659125432E+02  0.00000000000E+00 0. -1.
         11    1    3    3    0    0 -0.32562142481E+01 -0.18732875670E+02  0.85447507139E+00  0.19032963248E+02  0.51100000000E-03 0. -1.
        -11    1    3    3    0    0  0.51021882977E+01 -0.77347750968E+01  0.10535359389E+02  0.14030426541E+02  0.51100000000E-03 0.  1.
         12    1    3    3    0    0  0.15482489631E+02 -0.66803084927E+01  0.45507309094E+01  0.17465484779E+02  0.00000000000E+00 0. -1.
</event>
<event>
 7    1  0.5849044E-013  0.5052885E+02  0.7816164E-02  0.1300439E+00
        -11   -1    0    0    0    0  0.00000000000E+00  0.00000000000E+00  0.45593999997E+02  0.45594000000E+02  0.51100000000E-03 0.  1.
         11   -1    0    0    0    0 -0.00000000000E+00 -0.00000000000E+00 -0.45593999997E+02  0.45594000000E+02  0.51100000000E-03 0. -1.
    9900012    2    1    2    0    0 -0.30266395705E+02 -0.16484693922E+02  0.21572349736E+02  0.50528854463E+02  0.29999983625E+02 0.  0.
         12    1    1    2    0    0  0.30266395705E+02  0.16484693922E+02 -0.21572349736E+02  0.40659145537E+02  0.00000000000E+00 0. -1.
         11    1    3    3    0    0  0.60887280243E+00 -0.16497390047E+00 -0.21848456045E+01  0.22740916987E+01  0.51100000000E-03 0. -1.
        -11    1    3    3    0    0 -0.28474761318E+02 -0.14793798671E+02  0.91419688172E+01  0.33365312906E+02  0.51100000000E-03 0.  1.
        -12    1    3    3    0    0 -0.24005071900E+01 -0.15259213508E+01  0.14615226523E+02  0.14889449858E+02  0.00000000000E+00 0.  1.
</event>
<event>
 7    1  0.5849044E-013  0.5052886E+02  0.7816164E-02  0.1300439E+00
        -11   -1    0    0    0    0  0.00000000000E+00  0.00000000000E+00  0.45593999997E+02  0.45594000000E+02  0.51100000000E-03 0.  1.
         11   -1    0    0    0    0 -0.00000000000E+00 -0.00000000000E+00 -0.45593999997E+02  0.45594000000E+02  0.51100000000E-03 0. -1.
    9900012    2    1    2    0    0 -0.12602352807E+02  0.24145563824E+02  0.30188382718E+02  0.50528855890E+02  0.29999987963E+02 0.  0.
         12    1    1    2    0    0  0.12602352807E+02 -0.24145563824E+02 -0.30188382718E+02  0.40659144110E+02  0.00000000000E+00 0. -1.
         11    1    3    3    0    0  0.32437941781E+01  0.20084195030E+02  0.14690377857E+02  0.25093909470E+02  0.51100000000E-03 0.  1.
        -11    1    3    3    0    0 -0.10728670768E+01 -0.31352114245E+01  0.47778049267E+01  0.58144659788E+01  0.51100000000E-03 0. -1.
         12    1    3    3    0    0 -0.14773279908E+02  0.71965802189E+01  0.10720199934E+02  0.19620480441E+02  0.00000000000E+00 0. -1.
</event>
<event>
 7    1  0.5849044E-013  0.5052884E+02  0.7816164E-02  0.1300439E+00
        -11   -1    0    0    0    0  0.00000000000E+00  0.00000000000E+00  0.45593999997E+02  0.45594000000E+02  0.51100000000E-03 0.  1.
         11   -1    0    0    0    0 -0.00000000000E+00 -0.00000000000E+00 -0.45593999997E+02  0.45594000000E+02  0.51100000000E-03 0. -1.
    9900012    2    1    2    0    0 -0.14129163641E+01 -0.30656076422E+01  0.40518797307E+02  0.50528840908E+02  0.29999942425E+02 0.  0.
         12    1    1    2    0    0  0.14129163641E+01  0.30656076422E+01 -0.40518797307E+02  0.40659159092E+02  0.00000000000E+00 0. -1.
         11    1    3    3    0    0 -0.34917845687E+01  0.10951729607E+02  0.14087451079E+02  0.18182112612E+02  0.51100000000E-03 0. -1.
        -11    1    3    3    0    0  0.11063124102E+01 -0.91670920054E+01  0.53052200087E+01  0.10649171920E+02  0.51100000000E-03 0.  1.
         12    1    3    3    0    0  0.97255579450E+00 -0.48502452439E+01  0.21126126219E+02  0.21697556377E+02  0.00000000000E+00 0. -1.
</event>
<event>
 7    1  0.5849044E-013  0.5052885E+02  0.7816164E-02  0.1300439E+00
        -11   -1    0    0    0    0  0.00000000000E+00  0.00000000000E+00  0.45593999997E+02  0.45594000000E+02  0.51100000000E-03 0. -1.
         11   -1    0    0    0    0 -0.00000000000E+00 -0.00000000000E+00 -0.45593999997E+02  0.45594000000E+02  0.51100000000E-03 0.  1.
    9900012    2    1    2    0    0 -0.39171836239E+02 -0.65705815420E+01  0.86925710854E+01  0.50528854802E+02  0.29999984657E+02 0.  0.
         12    1    1    2    0    0  0.39171836239E+02  0.65705815420E+01 -0.86925710854E+01  0.40659145198E+02  0.00000000000E+00 0. -1.
         11    1    3    3    0    0 -0.11113842619E+02 -0.67463717024E+01 -0.84381979702E+01  0.15499490771E+02  0.51100000000E-03 0. -1.
        -11    1    3    3    0    0 -0.12774957661E+02  0.45949460802E+01  0.33544235930E+01  0.13984463902E+02  0.51100000000E-03 0.  1.
         12    1    3    3    0    0 -0.15283035959E+02 -0.44191559198E+01  0.13776345463E+02  0.21044900130E+02  0.00000000000E+00 0. -1.
</event>
<event>
 7    1  0.5849044E-013  0.5052887E+02  0.7816164E-02  0.1300439E+00
        -11   -1    0    0    0    0  0.00000000000E+00  0.00000000000E+00  0.45593999997E+02  0.45594000000E+02  0.51100000000E-03 0.  1.
         11   -1    0    0    0    0 -0.00000000000E+00 -0.00000000000E+00 -0.45593999997E+02  0.45594000000E+02  0.51100000000E-03 0. -1.
    9900012    2    1    2    0    0  0.37744700248E+02 -0.15116247007E+02 -0.43396998342E-01  0.50528865680E+02  0.30000017721E+02 0.  0.
         12    1    1    2    0    0 -0.37744700248E+02  0.15116247007E+02  0.43396998342E-01  0.40659134320E+02  0.00000000000E+00 0. -1.
         11    1    3    3    0    0  0.25982772413E+02 -0.36194362963E+01 -0.28747358148E+01  0.26390696990E+02  0.51100000000E-03 0. -1.
        -11    1    3    3    0    0  0.27041033499E+01 -0.74320562465E+01  0.93614998769E+01  0.12255011839E+02  0.51100000000E-03 0.  1.
        -12    1    3    3    0    0  0.90578244846E+01 -0.40647544642E+01 -0.65301610605E+01  0.11883156850E+02  0.00000000000E+00 0.  1.
</event>
<event>
 7    1  0.5849044E-013  0.5052885E+02  0.7816164E-02  0.1300439E+00
        -11   -1    0    0    0    0  0.00000000000E+00  0.00000000000E+00  0.45593999997E+02  0.45594000000E+02  0.51100000000E-03 0.  1.
         11   -1    0    0    0    0 -0.00000000000E+00 -0.00000000000E+00 -0.45593999997E+02  0.45594000000E+02  0.51100000000E-03 0. -1.
    9900012    2    1    2    0    0 -0.32977070073E+02  0.21380833265E+02  0.10418219890E+02  0.50528849894E+02  0.29999969738E+02 0.  0.
         12    1    1    2    0    0  0.32977070073E+02 -0.21380833265E+02 -0.10418219890E+02  0.40659150106E+02  0.00000000000E+00 0. -1.
         11    1    3    3    0    0 -0.20822677496E+01  0.13326344490E+01  0.12649630301E+02  0.12888944897E+02  0.51100000000E-03 0. -1.
        -11    1    3    3    0    0 -0.28581701083E+02  0.15755511499E+02 -0.26601488597E+01  0.32744864813E+02  0.51100000000E-03 0.  1.
         12    1    3    3    0    0 -0.23131012405E+01  0.42926873167E+01  0.42873844828E+00  0.48950401842E+01  0.00000000000E+00 0. -1.
</event>
<event>
 7    1  0.5849044E-013  0.5052886E+02  0.7816164E-02  0.1300439E+00
        -11   -1    0    0    0    0  0.00000000000E+00  0.00000000000E+00  0.45593999997E+02  0.45594000000E+02  0.51100000000E-03 0.  1.
         11   -1    0    0    0    0 -0.00000000000E+00 -0.00000000000E+00 -0.45593999997E+02  0.45594000000E+02  0.51100000000E-03 0. -1.
    9900012    2    1    2    0    0  0.32476214329E+02  0.24406447985E+02  0.16693074679E+01  0.50528858496E+02  0.29999995884E+02 0.  0.
         12    1    1    2    0    0 -0.32476214329E+02 -0.24406447985E+02 -0.16693074679E+01  0.40659141504E+02  0.00000000000E+00 0. -1.
         11    1    3    3    0    0  0.94059904454E+01 -0.27455410164E+01  0.97173554161E+01  0.13799914792E+02  0.51100000000E-03 0. -1.
        -11    1    3    3    0    0  0.14655053979E+02  0.19368913161E+02 -0.66436969006E+01  0.25180629717E+02  0.51100000000E-03 0.  1.
         12    1    3    3    0    0  0.84151699046E+01  0.77830758408E+01 -0.14043510476E+01  0.11548313987E+02  0.00000000000E+00 0. -1.
</event>
<event>
 7    1  0.5849044E-013  0.5052894E+02  0.7816164E-02  0.1300439E+00
        -11   -1    0    0    0    0  0.00000000000E+00  0.00000000000E+00  0.45593999997E+02  0.45594000000E+02  0.51100000000E-03 0. -1.
         11   -1    0    0    0    0 -0.00000000000E+00 -0.00000000000E+00 -0.45593999997E+02  0.45594000000E+02  0.51100000000E-03 0.  1.
    9900012    2    1    2    0    0  0.45660142527E+01  0.26359510865E+02 -0.30618408641E+02  0.50528938932E+02  0.30000240377E+02 0.  0.
         12    1    1    2    0    0 -0.45660142527E+01 -0.26359510865E+02  0.30618408641E+02  0.40659061068E+02  0.00000000000E+00 0. -1.
         11    1    3    3    0    0  0.10383092714E+02  0.15322367473E+02 -0.16641497580E+02  0.24890218988E+02  0.51100000000E-03 0. -1.
        -11    1    3    3    0    0 -0.10944331191E+02  0.65353921734E+01 -0.36465709117E+01  0.13258477128E+02  0.51100000000E-03 0.  1.
        -12    1    3    3    0    0  0.51272527295E+01  0.45017512190E+01 -0.10330340150E+02  0.12380242817E+02  0.00000000000E+00 0.  1.
</event>
<event>
 7    1  0.5849044E-013  0.5052886E+02  0.7816164E-02  0.1300439E+00
        -11   -1    0    0    0    0  0.00000000000E+00  0.00000000000E+00  0.45593999997E+02  0.45594000000E+02  0.51100000000E-03 0.  1.
         11   -1    0    0    0    0 -0.00000000000E+00 -0.00000000000E+00 -0.45593999997E+02  0.45594000000E+02  0.51100000000E-03 0. -1.
    9900012    2    1    2    0    0 -0.33157856478E+02  0.82132398303E+01  0.22051411862E+02  0.50528861792E+02  0.30000005902E+02 0.  0.
         12    1    1    2    0    0  0.33157856478E+02 -0.82132398303E+01 -0.22051411862E+02  0.40659138208E+02  0.00000000000E+00 0. -1.
         11    1    3    3    0    0  0.22737937863E+01 -0.24267684927E+00  0.83448193760E+01  0.86524586630E+01  0.51100000000E-03 0. -1.
        -11    1    3    3    0    0 -0.21388384272E+02  0.30299088789E+01  0.15679655564E+02  0.26692600631E+02  0.51100000000E-03 0.  1.
         12    1    3    3    0    0 -0.14043265992E+02  0.54260078007E+01 -0.19730630776E+01  0.15183802497E+02  0.00000000000E+00 0. -1.
</event>
<event>
 7    1  0.5849044E-013  0.5052884E+02  0.7816164E-02  0.1300439E+00
        -11   -1    0    0    0    0  0.00000000000E+00  0.00000000000E+00  0.45593999997E+02  0.45594000000E+02  0.51100000000E-03 0. -1.
         11   -1    0    0    0    0 -0.00000000000E+00 -0.00000000000E+00 -0.45593999997E+02  0.45594000000E+02  0.51100000000E-03 0.  1.
    9900012    2    1    2    0    0  0.31917796785E+02 -0.22287683166E+02  0.11733744298E+02  0.50528839559E+02  0.29999938325E+02 0.  0.
         12    1    1    2    0    0 -0.31917796785E+02  0.22287683166E+02 -0.11733744298E+02  0.40659160441E+02  0.00000000000E+00 0. -1.
         11    1    3    3    0    0 -0.29823974196E+01  0.35667995142E+01 -0.31832505141E+00  0.46602665420E+01  0.51100000000E-03 0. -1.
        -11    1    3    3    0    0  0.20310799611E+02 -0.20089505590E+02  0.75692645417E+01  0.29553520631E+02  0.51100000000E-03 0.  1.
         12    1    3    3    0    0  0.14589394593E+02 -0.57649770894E+01  0.44828048082E+01  0.16315052387E+02  0.00000000000E+00 0. -1.
</event>
<event>
 7    1  0.5849044E-013  0.5052887E+02  0.7816164E-02  0.1300439E+00
        -11   -1    0    0    0    0  0.00000000000E+00  0.00000000000E+00  0.45593999997E+02  0.45594000000E+02  0.51100000000E-03 0. -1.
         11   -1    0    0    0    0 -0.00000000000E+00 -0.00000000000E+00 -0.45593999997E+02  0.45594000000E+02  0.51100000000E-03 0.  1.
    9900012    2    1    2    0    0 -0.28323222546E+02  0.19877038344E+02 -0.21350959778E+02  0.50528867297E+02  0.30000022634E+02 0.  0.
         12    1    1    2    0    0  0.28323222546E+02 -0.19877038344E+02  0.21350959778E+02  0.40659132703E+02  0.00000000000E+00 0. -1.
         11    1    3    3    0    0 -0.10938866211E+02 -0.28934588993E+01  0.29293740655E+01  0.11688119227E+02  0.51100000000E-03 0. -1.
        -11    1    3    3    0    0 -0.13078680949E+02  0.19685588331E+02 -0.23769222458E+02  0.33519400648E+02  0.51100000000E-03 0.  1.
        -12    1    3    3    0    0 -0.43056753863E+01  0.30849089129E+01 -0.51111138581E+00  0.53213474216E+01  0.00000000000E+00 0.  1.
</event>
<event>
 7    1  0.5849044E-013  0.5052888E+02  0.7816164E-02  0.1300439E+00
        -11   -1    0    0    0    0  0.00000000000E+00  0.00000000000E+00  0.45593999997E+02  0.45594000000E+02  0.51100000000E-03 0.  1.
         11   -1    0    0    0    0 -0.00000000000E+00 -0.00000000000E+00 -0.45593999997E+02  0.45594000000E+02  0.51100000000E-03 0. -1.
    9900012    2    1    2    0    0 -0.14557640276E+02  0.10463683226E+02  0.36493151304E+02  0.50528884796E+02  0.30000075827E+02 0.  0.
         12    1    1    2    0    0  0.14557640276E+02 -0.10463683226E+02 -0.36493151304E+02  0.40659115204E+02  0.00000000000E+00 0. -1.
         11    1    3    3    0    0  0.80189577777E+01  0.25103777500E+01  0.58230049214E+01  0.10223163251E+02  0.51100000000E-03 0. -1.
        -11    1    3    3    0    0 -0.19127529414E+02  0.43145788097E+01  0.17757335510E+02  0.26453750895E+02  0.51100000000E-03 0.  1.
        -12    1    3    3    0    0 -0.34490686399E+01  0.36387266667E+01  0.12912810873E+02  0.13851970650E+02  0.00000000000E+00 0.  1.
</event>
<event>
 7    1  0.5849044E-013  0.5052886E+02  0.7816164E-02  0.1300439E+00
        -11   -1    0    0    0    0  0.00000000000E+00  0.00000000000E+00  0.45593999997E+02  0.45594000000E+02  0.51100000000E-03 0.  1.
         11   -1    0    0    0    0 -0.00000000000E+00 -0.00000000000E+00 -0.45593999997E+02  0.45594000000E+02  0.51100000000E-03 0. -1.
    9900012    2    1    2    0    0  0.27327059280E+02  0.29386436288E+02  0.65448622131E+01  0.50528855543E+02  0.29999986909E+02 0.  0.
         12    1    1    2    0    0 -0.27327059280E+02 -0.29386436288E+02 -0.65448622131E+01  0.40659144457E+02  0.00000000000E+00 0. -1.
         11    1    3    3    0    0  0.17441956886E+02  0.12875288794E+02 -0.76266476460E+01  0.22981746585E+02  0.51100000000E-03 0. -1.
        -11    1    3    3    0    0  0.12823199856E+02  0.95628843268E+01  0.10683044535E+02  0.19235660945E+02  0.51100000000E-03 0.  1.
         12    1    3    3    0    0 -0.29380974627E+01  0.69482631675E+01  0.34884653238E+01  0.83114480123E+01  0.00000000000E+00 0. -1.
</event>
<event>
 7    1  0.5849044E-013  0.5052886E+02  0.7816164E-02  0.1300439E+00
        -11   -1    0    0    0    0  0.00000000000E+00  0.00000000000E+00  0.45593999997E+02  0.45594000000E+02  0.51100000000E-03 0. -1.
         11   -1    0    0    0    0 -0.00000000000E+00 -0.00000000000E+00 -0.45593999997E+02  0.45594000000E+02  0.51100000000E-03 0.  1.
    9900012    2    1    2    0    0 -0.87316788439E+01 -0.35517088688E+02 -0.17761178557E+02  0.50528864889E+02  0.30000015316E+02 0.  0.
         12    1    1    2    0    0  0.87316788439E+01  0.35517088688E+02  0.17761178557E+02  0.40659135111E+02  0.00000000000E+00 0. -1.
         11    1    3    3    0    0 -0.32215395576E+01  0.39025011145E+01 -0.40074424522E+01  0.64550311648E+01  0.51100000000E-03 0. -1.
        -11    1    3    3    0    0 -0.52276277996E+01 -0.39885765734E+02 -0.14825126490E+02  0.42871747996E+02  0.51100000000E-03 0.  1.
        -12    1    3    3    0    0 -0.28251148669E+00  0.46617593147E+00  0.10713903850E+01  0.12020857275E+01  0.00000000000E+00 0.  1.
</event>
<event>
 7    1  0.5849044E-013  0.5052886E+02  0.7816164E-02  0.1300439E+00
        -11   -1    0    0    0    0  0.00000000000E+00  0.00000000000E+00  0.45593999997E+02  0.45594000000E+02  0.51100000000E-03 0.  1.
         11   -1    0    0    0    0 -0.00000000000E+00 -0.00000000000E+00 -0.45593999997E+02  0.45594000000E+02  0.51100000000E-03 0. -1.
    9900012    2    1    2    0    0  0.25656107443E+02 -0.28329147193E+02  0.13870445385E+02  0.50528859761E+02  0.29999999729E+02 0.  0.
         12    1    1    2    0    0 -0.25656107443E+02  0.28329147193E+02 -0.13870445385E+02  0.40659140239E+02  0.00000000000E+00 0. -1.
         11    1    3    3    0    0  0.86526892348E+01 -0.35312863001E+01 -0.68067758866E+01  0.11561626709E+02  0.51100000000E-03 0. -1.
        -11    1    3    3    0    0  0.13052385721E+02 -0.24505808554E+02  0.21250676087E+02  0.34964133913E+02  0.51100000000E-03 0.  1.
        -12    1    3    3    0    0  0.39510324877E+01 -0.29205233884E+00 -0.57345481573E+00  0.40030991386E+01  0.00000000000E+00 0.  1.
</event>
<event>
 7    1  0.5849044E-013  0.5052884E+02  0.7816164E-02  0.1300439E+00
        -11   -1    0    0    0    0  0.00000000000E+00  0.00000000000E+00  0.45593999997E+02  0.45594000000E+02  0.51100000000E-03 0. -1.
         11   -1    0    0    0    0 -0.00000000000E+00 -0.00000000000E+00 -0.45593999997E+02  0.45594000000E+02  0.51100000000E-03 0.  1.
    9900012    2    1    2    0    0  0.21305894267E+02  0.29741408666E+02 -0.17739063786E+02  0.50528844771E+02  0.29999954165E+02 0.  0.
         12    1    1    2    0    0 -0.21305894267E+02 -0.29741408666E+02  0.17739063786E+02  0.40659155229E+02  0.00000000000E+00 0. -1.
         11    1    3    3    0    0 -0.28700186983E+01 -0.27352682891E+01  0.20833989828E+01  0.44787555777E+01  0.51100000000E-03 0. -1.
        -11    1    3    3    0    0  0.70354829584E+01  0.17247579510E+02 -0.93749242597E+01  0.20853446347E+02  0.51100000000E-03 0.  1.
         12    1    3    3    0    0  0.17140430007E+02  0.15229097445E+02 -0.10447538509E+02  0.25196642846E+02  0.00000000000E+00 0. -1.
</event>
<event>
 7    1  0.5849044E-013  0.5052886E+02  0.7816164E-02  0.1300439E+00
        -11   -1    0    0    0    0  0.00000000000E+00  0.00000000000E+00  0.45593999997E+02  0.45594000000E+02  0.51100000000E-03 0. -1.
         11   -1    0    0    0    0 -0.00000000000E+00 -0.00000000000E+00 -0.45593999997E+02  0.45594000000E+02  0.51100000000E-03 0.  1.
    9900012    2    1    2    0    0  0.30384728982E+02 -0.26335340194E+02 -0.60319142636E+01  0.50528857263E+02  0.29999992136E+02 0.  0.
         12    1    1    2    0    0 -0.30384728982E+02  0.26335340194E+02  0.60319142636E+01  0.40659142737E+02  0.00000000000E+00 0. -1.
         11    1    3    3    0    0  0.13315860437E+02  0.19337221415E+01  0.11703298179E+01  0.13506335278E+02  0.51100000000E-03 0. -1.
        -11    1    3    3    0    0  0.17756254473E+02 -0.25271816024E+02 -0.10396254695E+02  0.32588822777E+02  0.51100000000E-03 0.  1.
         12    1    3    3    0    0 -0.68738592768E+00 -0.29972463109E+01  0.31940106136E+01  0.44336992074E+01  0.00000000000E+00 0. -1.
</event>
<event>
 7    1  0.5849044E-013  0.5052888E+02  0.7816164E-02  0.1300439E+00
        -11   -1    0    0    0    0  0.00000000000E+00  0.00000000000E+00  0.45593999997E+02  0.45594000000E+02  0.51100000000E-03 0.  1.
         11   -1    0    0    0    0 -0.00000000000E+00 -0.00000000000E+00 -0.45593999997E+02  0.45594000000E+02  0.51100000000E-03 0. -1.
    9900012    2    1    2    0    0 -0.13754113407E+01  0.17524551099E+01  0.40598041515E+02  0.50528882571E+02  0.30000069062E+02 0.  0.
         12    1    1    2    0    0  0.13754113407E+01 -0.17524551099E+01 -0.40598041515E+02  0.40659117429E+02  0.00000000000E+00 0. -1.
         11    1    3    3    0    0 -0.11240298061E+02 -0.28318896972E+01  0.17376759891E+02  0.20888170918E+02  0.51100000000E-03 0. -1.
        -11    1    3    3    0    0  0.66499827850E+01  0.91319841669E+01  0.20580542085E+02  0.23477097747E+02  0.51100000000E-03 0.  1.
         12    1    3    3    0    0  0.32149039351E+01 -0.45476393598E+01  0.26407395392E+01  0.61636139052E+01  0.00000000000E+00 0. -1.
</event>
<event>
 7    1  0.5849044E-013  0.5052885E+02  0.7816164E-02  0.1300439E+00
        -11   -1    0    0    0    0  0.00000000000E+00  0.00000000000E+00  0.45593999997E+02  0.45594000000E+02  0.51100000000E-03 0.  1.
         11   -1    0    0    0    0 -0.00000000000E+00 -0.00000000000E+00 -0.45593999997E+02  0.45594000000E+02  0.51100000000E-03 0. -1.
    9900012    2    1    2    0    0  0.11814919895E+02  0.89226922912E+00  0.38894445291E+02  0.50528851571E+02  0.29999974834E+02 0.  0.
         12    1    1    2    0    0 -0.11814919895E+02 -0.89226922912E+00 -0.38894445291E+02  0.40659148429E+02  0.00000000000E+00 0. -1.
         11    1    3    3    0    0  0.86705696806E+01  0.12466223772E+02  0.11948658698E+02  0.19322421138E+02  0.51100000000E-03 0. -1.
        -11    1    3    3    0    0  0.25089339379E+01 -0.13261215546E+02  0.20745676516E+02  0.24749498614E+02  0.51100000000E-03 0.  1.
        -12    1    3    3    0    0  0.63541627640E+00  0.16872610028E+01  0.62001100774E+01  0.64569318184E+01  0.00000000000E+00 0.  1.
</event>
<event>
 7    1  0.5849044E-013  0.5052887E+02  0.7816164E-02  0.1300439E+00
        -11   -1    0    0    0    0  0.00000000000E+00  0.00000000000E+00  0.45593999997E+02  0.45594000000E+02  0.51100000000E-03 0.  1.
         11   -1    0    0    0    0 -0.00000000000E+00 -0.00000000000E+00 -0.45593999997E+02  0.45594000000E+02  0.51100000000E-03 0. -1.
    9900012    2    1    2    0    0  0.32554691348E+02  0.78562177610E+00  0.24346244190E+02  0.50528871425E+02  0.30000035183E+02 0.  0.
         12    1    1    2    0    0 -0.32554691348E+02 -0.78562177610E+00 -0.24346244190E+02  0.40659128575E+02  0.00000000000E+00 0. -1.
         11    1    3    3    0    0  0.64851838656E+01 -0.44630860844E+01 -0.12582681811E+01  0.79724517085E+01  0.51100000000E-03 0. -1.
        -11    1    3    3    0    0  0.12314665701E+02  0.33278491524E+01  0.25673423905E+02  0.28667930979E+02  0.51100000000E-03 0.  1.
        -12    1    3    3    0    0  0.13754841782E+02  0.19208587081E+01 -0.68911534721E-01  0.13888488738E+02  0.00000000000E+00 0.  1.
</event>
<event>
 7    1  0.5849044E-013  0.5052885E+02  0.7816164E-02  0.1300439E+00
        -11   -1    0    0    0    0  0.00000000000E+00  0.00000000000E+00  0.45593999997E+02  0.45594000000E+02  0.51100000000E-03 0.  1.
         11   -1    0    0    0    0 -0.00000000000E+00 -0.00000000000E+00 -0.45593999997E+02  0.45594000000E+02  0.51100000000E-03 0. -1.
    9900012    2    1    2    0    0 -0.27107708232E+02 -0.18065923634E+02  0.24330249106E+02  0.50528850182E+02  0.29999970614E+02 0.  0.
         12    1    1    2    0    0  0.27107708232E+02  0.18065923634E+02 -0.24330249106E+02  0.40659149818E+02  0.00000000000E+00 0. -1.
         11    1    3    3    0    0 -0.16102748949E+02 -0.22097001171E+02  0.10376911923E+02  0.29244765101E+02  0.51100000000E-03 0. -1.
        -11    1    3    3    0    0 -0.12767675808E+02  0.23111079080E+01  0.91206843832E+01  0.15860064602E+02  0.51100000000E-03 0.  1.
         12    1    3    3    0    0  0.17627165252E+01  0.17199696292E+01  0.48326528000E+01  0.54240204792E+01  0.00000000000E+00 0. -1.
</event>
<event>
 7    1  0.5849044E-013  0.5052886E+02  0.7816164E-02  0.1300439E+00
        -11   -1    0    0    0    0  0.00000000000E+00  0.00000000000E+00  0.45593999997E+02  0.45594000000E+02  0.51100000000E-03 0.  1.
         11   -1    0    0    0    0 -0.00000000000E+00 -0.00000000000E+00 -0.45593999997E+02  0.45594000000E+02  0.51100000000E-03 0. -1.
    9900012    2    1    2    0    0  0.12854569726E+02  0.10364224827E+02  0.37155197081E+02  0.50528858479E+02  0.29999995834E+02 0.  0.
         12    1    1    2    0    0 -0.12854569726E+02 -0.10364224827E+02 -0.37155197081E+02  0.40659141521E+02  0.00000000000E+00 0. -1.
         11    1    3    3    0    0  0.11212040767E+01  0.38869138647E+01 -0.14435858558E+01  0.42952460182E+01  0.51100000000E-03 0. -1.
        -11    1    3    3    0    0  0.13828740197E+02  0.61930955655E+01  0.40591937652E+02  0.43327749662E+02  0.51100000000E-03 0.  1.
        -12    1    3    3    0    0 -0.20953745479E+01  0.28421539684E+00 -0.19931547157E+01  0.29058627993E+01  0.00000000000E+00 0.  1.
</event>
<event>
 7    1  0.5849044E-013  0.5052886E+02  0.7816164E-02  0.1300439E+00
        -11   -1    0    0    0    0  0.00000000000E+00  0.00000000000E+00  0.45593999997E+02  0.45594000000E+02  0.51100000000E-03 0.  1.
         11   -1    0    0    0    0 -0.00000000000E+00 -0.00000000000E+00 -0.45593999997E+02  0.45594000000E+02  0.51100000000E-03 0. -1.
    9900012    2    1    2    0    0 -0.24399316904E+02 -0.71209815684E+01  0.31735324068E+02  0.50528857884E+02  0.29999994025E+02 0.  0.
         12    1    1    2    0    0  0.24399316904E+02  0.71209815684E+01 -0.31735324068E+02  0.40659142116E+02  0.00000000000E+00 0. -1.
         11    1    3    3    0    0 -0.21175006284E+02  0.23910511300E+00  0.69442640270E+01  0.22285889382E+02  0.51100000000E-03 0. -1.
        -11    1    3    3    0    0  0.31469885398E+01 -0.59984900510E+01  0.15282574773E+02  0.16716534082E+02  0.51100000000E-03 0.  1.
        -12    1    3    3    0    0 -0.63712991596E+01 -0.13615966304E+01  0.95084852683E+01  0.11526434421E+02  0.00000000000E+00 0.  1.
</event>
<event>
 7    1  0.5849044E-013  0.5052888E+02  0.7816164E-02  0.1300439E+00
        -11   -1    0    0    0    0  0.00000000000E+00  0.00000000000E+00  0.45593999997E+02  0.45594000000E+02  0.51100000000E-03 0. -1.
         11   -1    0    0    0    0 -0.00000000000E+00 -0.00000000000E+00 -0.45593999997E+02  0.45594000000E+02  0.51100000000E-03 0.  1.
    9900012    2    1    2    0    0 -0.35081030129E+02 -0.17631220799E+02 -0.10565286719E+02  0.50528881647E+02  0.30000066255E+02 0.  0.
         12    1    1    2    0    0  0.35081030129E+02  0.17631220799E+02  0.10565286719E+02  0.40659118353E+02  0.00000000000E+00 0. -1.
         11    1    3    3    0    0 -0.48094450765E+01 -0.13764957810E+01  0.31727190606E+01  0.59238204798E+01  0.51100000000E-03 0. -1.
        -11    1    3    3    0    0 -0.23016492843E+02 -0.22978191440E+02 -0.11139386963E+02  0.34377931392E+02  0.51100000000E-03 0.  1.
        -12    1    3    3    0    0 -0.72550922096E+01  0.67234664215E+01 -0.25986188162E+01  0.10227129775E+02  0.00000000000E+00 0.  1.
</event>
<event>
 7    1  0.5849044E-013  0.5052886E+02  0.7816164E-02  0.1300439E+00
        -11   -1    0    0    0    0  0.00000000000E+00  0.00000000000E+00  0.45593999997E+02  0.45594000000E+02  0.51100000000E-03 0.  1.
         11   -1    0    0    0    0 -0.00000000000E+00 -0.00000000000E+00 -0.45593999997E+02  0.45594000000E+02  0.51100000000E-03 0. -1.
    9900012    2    1    2    0    0  0.88096879533E+01  0.26318244846E+01  0.39605914796E+02  0.50528860944E+02  0.30000003324E+02 0.  0.
         12    1    1    2    0    0 -0.88096879533E+01 -0.26318244846E+01 -0.39605914796E+02  0.40659139056E+02  0.00000000000E+00 0. -1.
         11    1    3    3    0    0 -0.92430289577E+01  0.39269781536E+01  0.75082663642E+01  0.12539091107E+02  0.51100000000E-03 0. -1.
        -11    1    3    3    0    0  0.65120093046E+01  0.28165935024E+01  0.17795378274E+02  0.19157634309E+02  0.51100000000E-03 0.  1.
         12    1    3    3    0    0  0.11540707606E+02 -0.41117471714E+01  0.14302270158E+02  0.18832135528E+02  0.00000000000E+00 0. -1.
</event>
<event>
 7    1  0.5849044E-013  0.5052885E+02  0.7816164E-02  0.1300439E+00
        -11   -1    0    0    0    0  0.00000000000E+00  0.00000000000E+00  0.45593999997E+02  0.45594000000E+02  0.51100000000E-03 0.  1.
         11   -1    0    0    0    0 -0.00000000000E+00 -0.00000000000E+00 -0.45593999997E+02  0.45594000000E+02  0.51100000000E-03 0. -1.
    9900012    2    1    2    0    0  0.77162450972E+01 -0.36876980627E+02  0.15287708254E+02  0.50528853892E+02  0.29999981890E+02 0.  0.
         12    1    1    2    0    0 -0.77162450972E+01  0.36876980627E+02 -0.15287708254E+02  0.40659146108E+02  0.00000000000E+00 0. -1.
         11    1    3    3    0    0  0.12465359396E+02 -0.19707097423E+02  0.97422075450E+01  0.25271831786E+02  0.51100000000E-03 0. -1.
        -11    1    3    3    0    0 -0.78509183022E+01 -0.14807977738E+01  0.46391758710E+01  0.92385947664E+01  0.51100000000E-03 0.  1.
        -12    1    3    3    0    0  0.31018040037E+01 -0.15689085431E+02  0.90632483781E+00  0.16018427340E+02  0.00000000000E+00 0.  1.
</event>
<event>
 7    1  0.5849044E-013  0.5052877E+02  0.7816164E-02  0.1300439E+00
        -11   -1    0    0    0    0  0.00000000000E+00  0.00000000000E+00  0.45593999997E+02  0.45594000000E+02  0.51100000000E-03 0. -1.
         11   -1    0    0    0    0 -0.00000000000E+00 -0.00000000000E+00 -0.45593999997E+02  0.45594000000E+02  0.51100000000E-03 0.  1.
    9900012    2    1    2    0    0  0.50775927479E+00  0.20675425425E+02  0.35006315290E+02  0.50528768008E+02  0.29999720837E+02 0.  0.
         12    1    1    2    0    0 -0.50775927479E+00 -0.20675425425E+02 -0.35006315290E+02  0.40659231992E+02  0.00000000000E+00 0. -1.
         11    1    3    3    0    0  0.80030382239E+01  0.83883241573E+01  0.28466987725E+02  0.30737306216E+02  0.51100000000E-03 0. -1.
        -11    1    3    3    0    0 -0.67930233862E-01  0.10907491657E+02  0.53320846618E+01  0.12141215585E+02  0.51100000000E-03 0.  1.
         12    1    3    3    0    0 -0.74273487152E+01  0.13796096109E+01  0.12072429023E+01  0.76502462078E+01  0.00000000000E+00 0. -1.
</event>
<event>
 7    1  0.5849044E-013  0.5052886E+02  0.7816164E-02  0.1300439E+00
        -11   -1    0    0    0    0  0.00000000000E+00  0.00000000000E+00  0.45593999997E+02  0.45594000000E+02  0.51100000000E-03 0.  1.
         11   -1    0    0    0    0 -0.00000000000E+00 -0.00000000000E+00 -0.45593999997E+02  0.45594000000E+02  0.51100000000E-03 0. -1.
    9900012    2    1    2    0    0 -0.23850604429E+01  0.40402226472E+01  0.40387544675E+02  0.50528859856E+02  0.30000000018E+02 0.  0.
         12    1    1    2    0    0  0.23850604429E+01 -0.40402226472E+01 -0.40387544675E+02  0.40659140144E+02  0.00000000000E+00 0. -1.
         11    1    3    3    0    0 -0.66190326893E+01  0.39060802501E+01 -0.16803402798E+01  0.78671850353E+01  0.51100000000E-03 0. -1.
        -11    1    3    3    0    0  0.24159919398E+01 -0.27620923479E+01  0.22481920002E+02  0.22779440257E+02  0.51100000000E-03 0.  1.
         12    1    3    3    0    0  0.18179803066E+01  0.28962347450E+01  0.19585964953E+02  0.19882234563E+02  0.00000000000E+00 0. -1.
</event>
<event>
 7    1  0.5849044E-013  0.5052886E+02  0.7816164E-02  0.1300439E+00
        -11   -1    0    0    0    0  0.00000000000E+00  0.00000000000E+00  0.45593999997E+02  0.45594000000E+02  0.51100000000E-03 0.  1.
         11   -1    0    0    0    0 -0.00000000000E+00 -0.00000000000E+00 -0.45593999997E+02  0.45594000000E+02  0.51100000000E-03 0. -1.
    9900012    2    1    2    0    0  0.38123181801E+02  0.11014550223E+02  0.88582564140E+01  0.50528855716E+02  0.29999987433E+02 0.  0.
         12    1    1    2    0    0 -0.38123181801E+02 -0.11014550223E+02 -0.88582564140E+01  0.40659144284E+02  0.00000000000E+00 0. -1.
         11    1    3    3    0    0  0.99325335718E+01 -0.23924081796E+01  0.11478363054E+02  0.15366576024E+02  0.51100000000E-03 0.  1.
        -11    1    3    3    0    0  0.14844382285E+02 -0.27225994174E+00 -0.55046055152E+01  0.15834471669E+02  0.51100000000E-03 0. -1.
         12    1    3    3    0    0  0.13346265944E+02  0.13679218345E+02  0.28844988751E+01  0.19327808022E+02  0.00000000000E+00 0. -1.
</event>
<event>
 7    1  0.5849044E-013  0.5052885E+02  0.7816164E-02  0.1300439E+00
        -11   -1    0    0    0    0  0.00000000000E+00  0.00000000000E+00  0.45593999997E+02  0.45594000000E+02  0.51100000000E-03 0.  1.
         11   -1    0    0    0    0 -0.00000000000E+00 -0.00000000000E+00 -0.45593999997E+02  0.45594000000E+02  0.51100000000E-03 0. -1.
    9900012    2    1    2    0    0  0.37527877077E+02  0.76198084344E+01 -0.13666136660E+02  0.50528851833E+02  0.29999975630E+02 0.  0.
         12    1    1    2    0    0 -0.37527877077E+02 -0.76198084344E+01  0.13666136660E+02  0.40659148167E+02  0.00000000000E+00 0. -1.
         11    1    3    3    0    0  0.68895191540E+01 -0.12874283726E+01 -0.10316141283E+02  0.12471796872E+02  0.51100000000E-03 0. -1.
        -11    1    3    3    0    0  0.31405604204E+02  0.10798446183E+02 -0.69398791880E+01  0.33927574903E+02  0.51100000000E-03 0.  1.
        -12    1    3    3    0    0 -0.76724628137E+00 -0.18912093764E+01  0.35898838112E+01  0.41294800568E+01  0.00000000000E+00 0.  1.
</event>
<event>
 7    1  0.5849044E-013  0.5052886E+02  0.7816164E-02  0.1300439E+00
        -11   -1    0    0    0    0  0.00000000000E+00  0.00000000000E+00  0.45593999997E+02  0.45594000000E+02  0.51100000000E-03 0.  1.
         11   -1    0    0    0    0 -0.00000000000E+00 -0.00000000000E+00 -0.45593999997E+02  0.45594000000E+02  0.51100000000E-03 0. -1.
    9900012    2    1    2    0    0 -0.30268568421E+02  0.74395207548E+01  0.26108100283E+02  0.50528860760E+02  0.30000002767E+02 0.  0.
         12    1    1    2    0    0  0.30268568421E+02 -0.74395207548E+01 -0.26108100283E+02  0.40659139240E+02  0.00000000000E+00 0. -1.
         11    1    3    3    0    0 -0.23630403048E+02  0.11079153330E+02  0.92019655820E+01  0.27673448603E+02  0.51100000000E-03 0. -1.
        -11    1    3    3    0    0 -0.11323636432E+01  0.67107788042E+00  0.15705439837E+02  0.15760502329E+02  0.51100000000E-03 0.  1.
         12    1    3    3    0    0 -0.55058017296E+01 -0.43107104553E+01  0.12006948641E+01  0.70949098283E+01  0.00000000000E+00 0. -1.
</event>
<event>
 7    1  0.5849044E-013  0.5052886E+02  0.7816164E-02  0.1300439E+00
        -11   -1    0    0    0    0  0.00000000000E+00  0.00000000000E+00  0.45593999997E+02  0.45594000000E+02  0.51100000000E-03 0.  1.
         11   -1    0    0    0    0 -0.00000000000E+00 -0.00000000000E+00 -0.45593999997E+02  0.45594000000E+02  0.51100000000E-03 0. -1.
    9900012    2    1    2    0    0 -0.39525115600E+02 -0.70290693469E+01  0.64438370940E+01  0.50528860615E+02  0.30000002324E+02 0.  0.
         12    1    1    2    0    0  0.39525115600E+02  0.70290693469E+01 -0.64438370940E+01  0.40659139385E+02  0.00000000000E+00 0. -1.
         11    1    3    3    0    0 -0.21668321910E+02  0.56692596382E+01  0.95314994925E+01  0.24341449465E+02  0.51100000000E-03 0. -1.
        -11    1    3    3    0    0 -0.19904444608E+02 -0.11743113255E+02 -0.10330086523E+01  0.23133411577E+02  0.51100000000E-03 0.  1.
        -12    1    3    3    0    0  0.20476509176E+01 -0.95521573012E+00 -0.20546537461E+01  0.30539995724E+01  0.00000000000E+00 0.  1.
</event>
<event>
 7    1  0.5849044E-013  0.5052887E+02  0.7816164E-02  0.1300439E+00
        -11   -1    0    0    0    0  0.00000000000E+00  0.00000000000E+00  0.45593999997E+02  0.45594000000E+02  0.51100000000E-03 0.  1.
         11   -1    0    0    0    0 -0.00000000000E+00 -0.00000000000E+00 -0.45593999997E+02  0.45594000000E+02  0.51100000000E-03 0. -1.
    9900012    2    1    2    0    0  0.46187389604E+01 -0.35769729679E+02  0.18771222456E+02  0.50528866913E+02  0.30000021469E+02 0.  0.
         12    1    1    2    0    0 -0.46187389604E+01  0.35769729679E+02 -0.18771222456E+02  0.40659133087E+02  0.00000000000E+00 0. -1.
         11    1    3    3    0    0 -0.33944413646E+01 -0.86201529046E+01  0.15696733674E+02  0.18226813122E+02  0.51100000000E-03 0. -1.
        -11    1    3    3    0    0  0.86026232222E+01 -0.27591861781E+02  0.58005296712E+01  0.29478163233E+02  0.51100000000E-03 0.  1.
         12    1    3    3    0    0 -0.58944289718E+00  0.44228500705E+00 -0.27260408891E+01  0.28238905584E+01  0.00000000000E+00 0. -1.
</event>
<event>
 7    1  0.5849044E-013  0.5052885E+02  0.7816164E-02  0.1300439E+00
        -11   -1    0    0    0    0  0.00000000000E+00  0.00000000000E+00  0.45593999997E+02  0.45594000000E+02  0.51100000000E-03 0.  1.
         11   -1    0    0    0    0 -0.00000000000E+00 -0.00000000000E+00 -0.45593999997E+02  0.45594000000E+02  0.51100000000E-03 0. -1.
    9900012    2    1    2    0    0 -0.39018288930E+02 -0.11395029509E+02  0.94480967229E+00  0.50528853011E+02  0.29999979213E+02 0.  0.
         12    1    1    2    0    0  0.39018288930E+02  0.11395029509E+02 -0.94480967229E+00  0.40659146989E+02  0.00000000000E+00 0. -1.
         11    1    3    3    0    0 -0.21488381264E+02  0.47943241527E+01  0.86619565237E+01  0.23659365260E+02  0.51100000000E-03 0. -1.
        -11    1    3    3    0    0 -0.53573029935E+01 -0.97720325496E+01 -0.10702024932E+00  0.11144719337E+02  0.51100000000E-03 0.  1.
         12    1    3    3    0    0 -0.12172604673E+02 -0.64173211118E+01 -0.76101266021E+01  0.15724768414E+02  0.00000000000E+00 0. -1.
</event>
<event>
 7    1  0.5849044E-013  0.5052889E+02  0.7816164E-02  0.1300439E+00
        -11   -1    0    0    0    0  0.00000000000E+00  0.00000000000E+00  0.45593999997E+02  0.45594000000E+02  0.51100000000E-03 0.  1.
         11   -1    0    0    0    0 -0.00000000000E+00 -0.00000000000E+00 -0.45593999997E+02  0.45594000000E+02  0.51100000000E-03 0. -1.
    9900012    2    1    2    0    0 -0.43305178476E+01  0.35365289908E+02 -0.19588417821E+02  0.50528889977E+02  0.30000091575E+02 0.  0.
         12    1    1    2    0    0  0.43305178476E+01 -0.35365289908E+02  0.19588417821E+02  0.40659110023E+02  0.00000000000E+00 0. -1.
         11    1    3    3    0    0  0.14081803925E+01  0.22029066795E+01 -0.13085753192E+02  0.13344388586E+02  0.51100000000E-03 0. -1.
        -11    1    3    3    0    0 -0.56752612327E+01  0.34654036803E+02 -0.63284489595E+01  0.35681369415E+02  0.51100000000E-03 0.  1.
        -12    1    3    3    0    0 -0.63437007434E-01 -0.14916535749E+01 -0.17421566984E+00  0.15031319772E+01  0.00000000000E+00 0.  1.
</event>
<event>
 7    1  0.5849044E-013  0.5052887E+02  0.7816164E-02  0.1300439E+00
        -11   -1    0    0    0    0  0.00000000000E+00  0.00000000000E+00  0.45593999997E+02  0.45594000000E+02  0.51100000000E-03 0.  1.
         11   -1    0    0    0    0 -0.00000000000E+00 -0.00000000000E+00 -0.45593999997E+02  0.45594000000E+02  0.51100000000E-03 0. -1.
    9900012    2    1    2    0    0  0.14001946196E+02 -0.27365951818E+01  0.38073896235E+02  0.50528867877E+02  0.30000024398E+02 0.  0.
         12    1    1    2    0    0 -0.14001946196E+02  0.27365951818E+01 -0.38073896235E+02  0.40659132123E+02  0.00000000000E+00 0. -1.
         11    1    3    3    0    0  0.13081462653E+02  0.21729277024E+01  0.35594255231E+01  0.13730105253E+02  0.51100000000E-03 0. -1.
        -11    1    3    3    0    0 -0.32647216596E+01 -0.21435221762E+01  0.29313927255E+02  0.29572950921E+02  0.51100000000E-03 0.  1.
        -12    1    3    3    0    0  0.41852052030E+01 -0.27660007079E+01  0.52005434575E+01  0.72258117025E+01  0.00000000000E+00 0.  1.
</event>
<event>
 7    1  0.5849044E-013  0.5052887E+02  0.7816164E-02  0.1300439E+00
        -11   -1    0    0    0    0  0.00000000000E+00  0.00000000000E+00  0.45593999997E+02  0.45594000000E+02  0.51100000000E-03 0.  1.
         11   -1    0    0    0    0 -0.00000000000E+00 -0.00000000000E+00 -0.45593999997E+02  0.45594000000E+02  0.51100000000E-03 0. -1.
    9900012    2    1    2    0    0  0.40524187144E+02  0.32614616990E+01  0.56408665280E+00  0.50528867325E+02  0.30000022722E+02 0.  0.
         12    1    1    2    0    0 -0.40524187144E+02 -0.32614616990E+01 -0.56408665280E+00  0.40659132675E+02  0.00000000000E+00 0. -1.
         11    1    3    3    0    0  0.16339173679E+02 -0.59809611518E+01 -0.11582460704E+02  0.20902006818E+02  0.51100000000E-03 0. -1.
        -11    1    3    3    0    0  0.21973687764E+02  0.56105451802E+01  0.93088234130E+01  0.24514798893E+02  0.51100000000E-03 0.  1.
         12    1    3    3    0    0  0.22113257014E+01  0.36318776706E+01  0.28377239435E+01  0.51120616146E+01  0.00000000000E+00 0. -1.
</event>
<event>
 7    1  0.5849044E-013  0.5052886E+02  0.7816164E-02  0.1300439E+00
        -11   -1    0    0    0    0  0.00000000000E+00  0.00000000000E+00  0.45593999997E+02  0.45594000000E+02  0.51100000000E-03 0. -1.
         11   -1    0    0    0    0 -0.00000000000E+00 -0.00000000000E+00 -0.45593999997E+02  0.45594000000E+02  0.51100000000E-03 0.  1.
    9900012    2    1    2    0    0  0.30885421599E+02  0.58834994878E+01 -0.25780626518E+02  0.50528861577E+02  0.30000005251E+02 0.  0.
         12    1    1    2    0    0 -0.30885421599E+02 -0.58834994878E+01  0.25780626518E+02  0.40659138423E+02  0.00000000000E+00 0. -1.
         11    1    3    3    0    0  0.26991987093E+01 -0.39593796354E+01 -0.54083922292E+01  0.72258610238E+01  0.51100000000E-03 0. -1.
        -11    1    3    3    0    0 -0.59167706879E+00  0.90617861409E+01 -0.25035769380E+01  0.94198698273E+01  0.51100000000E-03 0.  1.
        -12    1    3    3    0    0  0.28777899959E+02  0.78109298238E+00 -0.17868657351E+02  0.33883130726E+02  0.00000000000E+00 0.  1.
</event>
<event>
 7    1  0.5849044E-013  0.5052885E+02  0.7816164E-02  0.1300439E+00
        -11   -1    0    0    0    0  0.00000000000E+00  0.00000000000E+00  0.45593999997E+02  0.45594000000E+02  0.51100000000E-03 0. -1.
         11   -1    0    0    0    0 -0.00000000000E+00 -0.00000000000E+00 -0.45593999997E+02  0.45594000000E+02  0.51100000000E-03 0.  1.
    9900012    2    1    2    0    0 -0.36265245580E+02  0.16147970802E+02 -0.87887024914E+01  0.50528852327E+02  0.29999977134E+02 0.  0.
         12    1    1    2    0    0  0.36265245580E+02 -0.16147970802E+02  0.87887024914E+01  0.40659147673E+02  0.00000000000E+00 0. -1.
         11    1    3    3    0    0 -0.11557908176E+01  0.11525113234E+01 -0.89031561554E+01  0.90515371376E+01  0.51100000000E-03 0. -1.
        -11    1    3    3    0    0 -0.32361876493E+02  0.18293842345E+02  0.37520752810E+00  0.37176558459E+02  0.51100000000E-03 0.  1.
        -12    1    3    3    0    0 -0.27475782687E+01 -0.32983828666E+01 -0.26075386405E+00  0.43007567305E+01  0.00000000000E+00 0.  1.
</event>
<event>
 7    1  0.5849044E-013  0.5052886E+02  0.7816164E-02  0.1300439E+00
        -11   -1    0    0    0    0  0.00000000000E+00  0.00000000000E+00  0.45593999997E+02  0.45594000000E+02  0.51100000000E-03 0.  1.
         11   -1    0    0    0    0 -0.00000000000E+00 -0.00000000000E+00 -0.45593999997E+02  0.45594000000E+02  0.51100000000E-03 0. -1.
    9900012    2    1    2    0    0  0.31705021895E+02 -0.13677624189E+02  0.21468114106E+02  0.50528859083E+02  0.29999997670E+02 0.  0.
         12    1    1    2    0    0 -0.31705021895E+02  0.13677624189E+02 -0.21468114106E+02  0.40659140917E+02  0.00000000000E+00 0. -1.
         11    1    3    3    0    0  0.11039019348E+02 -0.17096343858E+02  0.83252896048E+01  0.21987618533E+02  0.51100000000E-03 0. -1.
        -11    1    3    3    0    0  0.20554369605E+02 -0.46320667882E+00  0.13570199261E+02  0.24634264319E+02  0.51100000000E-03 0.  1.
        -12    1    3    3    0    0  0.11163294199E+00  0.38819263484E+01 -0.42737475966E+00  0.39069762314E+01  0.00000000000E+00 0.  1.
</event>
<event>
 7    1  0.5849044E-013  0.5052886E+02  0.7816164E-02  0.1300439E+00
        -11   -1    0    0    0    0  0.00000000000E+00  0.00000000000E+00  0.45593999997E+02  0.45594000000E+02  0.51100000000E-03 0.  1.
         11   -1    0    0    0    0 -0.00000000000E+00 -0.00000000000E+00 -0.45593999997E+02  0.45594000000E+02  0.51100000000E-03 0. -1.
    9900012    2    1    2    0    0  0.32842031960E+02  0.23181788800E+02 -0.60968104967E+01  0.50528862116E+02  0.30000006888E+02 0.  0.
         12    1    1    2    0    0 -0.32842031960E+02 -0.23181788800E+02  0.60968104967E+01  0.40659137884E+02  0.00000000000E+00 0. -1.
         11    1    3    3    0    0  0.17070130460E+02  0.23547264327E+02 -0.12271272661E+02  0.31566551034E+02  0.51100000000E-03 0. -1.
        -11    1    3    3    0    0  0.77801993912E+00  0.17807625713E+01  0.28591036177E+01  0.34570079721E+01  0.51100000000E-03 0.  1.
         12    1    3    3    0    0  0.14993881561E+02 -0.21462380982E+01  0.33153585469E+01  0.15505303110E+02  0.00000000000E+00 0. -1.
</event>
<event>
 7    1  0.5849044E-013  0.5052886E+02  0.7816164E-02  0.1300439E+00
        -11   -1    0    0    0    0  0.00000000000E+00  0.00000000000E+00  0.45593999997E+02  0.45594000000E+02  0.51100000000E-03 0.  1.
         11   -1    0    0    0    0 -0.00000000000E+00 -0.00000000000E+00 -0.45593999997E+02  0.45594000000E+02  0.51100000000E-03 0. -1.
    9900012    2    1    2    0    0  0.26936982486E+02  0.46681505153E+01  0.30096065303E+02  0.50528858330E+02  0.29999995379E+02 0.  0.
         12    1    1    2    0    0 -0.26936982486E+02 -0.46681505153E+01 -0.30096065303E+02  0.40659141670E+02  0.00000000000E+00 0. -1.
         11    1    3    3    0    0  0.36303113033E+00  0.13648058749E+01 -0.79917514750E+00  0.16227038717E+01  0.51100000000E-03 0. -1.
        -11    1    3    3    0    0  0.89649425379E+01 -0.24889677830E+01  0.28782514873E+02  0.30248939122E+02  0.51100000000E-03 0.  1.
        -12    1    3    3    0    0  0.17609008817E+02  0.57923124234E+01  0.21127255774E+01  0.18657215336E+02  0.00000000000E+00 0.  1.
</event>
<event>
 7    1  0.5849044E-013  0.5052886E+02  0.7816164E-02  0.1300439E+00
        -11   -1    0    0    0    0  0.00000000000E+00  0.00000000000E+00  0.45593999997E+02  0.45594000000E+02  0.51100000000E-03 0.  1.
         11   -1    0    0    0    0 -0.00000000000E+00 -0.00000000000E+00 -0.45593999997E+02  0.45594000000E+02  0.51100000000E-03 0. -1.
    9900012    2    1    2    0    0  0.10909149954E+02 -0.13675350769E+02  0.36703420064E+02  0.50528858153E+02  0.29999994841E+02 0.  0.
         12    1    1    2    0    0 -0.10909149954E+02  0.13675350769E+02 -0.36703420064E+02  0.40659141847E+02  0.00000000000E+00 0. -1.
         11    1    3    3    0    0  0.40138096599E+01  0.33450866357E+01 -0.87145591844E+00  0.52971415183E+01  0.51100000000E-03 0. -1.
        -11    1    3    3    0    0  0.12717996299E+02 -0.12072349211E+02  0.26519932649E+02  0.31793016109E+02  0.51100000000E-03 0.  1.
        -12    1    3    3    0    0 -0.58226560044E+01 -0.49480881937E+01  0.11054943333E+02  0.13438700526E+02  0.00000000000E+00 0.  1.
</event>
<event>
 7    1  0.5849044E-013  0.5052882E+02  0.7816164E-02  0.1300439E+00
        -11   -1    0    0    0    0  0.00000000000E+00  0.00000000000E+00  0.45593999997E+02  0.45594000000E+02  0.51100000000E-03 0.  1.
         11   -1    0    0    0    0 -0.00000000000E+00 -0.00000000000E+00 -0.45593999997E+02  0.45594000000E+02  0.51100000000E-03 0. -1.
    9900012    2    1    2    0    0 -0.61808871714E+01  0.36992675952E+02  0.15700569458E+02  0.50528815040E+02  0.29999863794E+02 0.  0.
         12    1    1    2    0    0  0.61808871714E+01 -0.36992675952E+02 -0.15700569458E+02  0.40659184960E+02  0.00000000000E+00 0. -1.
         11    1    3    3    0    0 -0.11475624116E+02  0.61945064985E+01 -0.12541958772E+01  0.13100949094E+02  0.51100000000E-03 0. -1.
        -11    1    3    3    0    0 -0.12436074742E+01 -0.21350144777E-01  0.24419928025E+01  0.27405007731E+01  0.51100000000E-03 0.  1.
         12    1    3    3    0    0  0.65383444186E+01  0.30819519599E+02  0.14512772532E+02  0.34687365172E+02  0.00000000000E+00 0. -1.
</event>
<event>
 7    1  0.5849044E-013  0.5052885E+02  0.7816164E-02  0.1300439E+00
        -11   -1    0    0    0    0  0.00000000000E+00  0.00000000000E+00  0.45593999997E+02  0.45594000000E+02  0.51100000000E-03 0. -1.
         11   -1    0    0    0    0 -0.00000000000E+00 -0.00000000000E+00 -0.45593999997E+02  0.45594000000E+02  0.51100000000E-03 0.  1.
    9900012    2    1    2    0    0  0.23691882853E+01 -0.38330370485E+02 -0.13354250380E+02  0.50528851487E+02  0.29999974578E+02 0.  0.
         12    1    1    2    0    0 -0.23691882853E+01  0.38330370485E+02  0.13354250380E+02  0.40659148513E+02  0.00000000000E+00 0. -1.
         11    1    3    3    0    0  0.12267265679E+02 -0.70906382693E+01 -0.20016552580E+01  0.14309772268E+02  0.51100000000E-03 0. -1.
        -11    1    3    3    0    0 -0.13806653668E+01 -0.20023364595E+02 -0.87570578085E+01  0.21898114720E+02  0.51100000000E-03 0.  1.
         12    1    3    3    0    0 -0.85174120274E+01 -0.11216367620E+02 -0.25955373138E+01  0.14320964499E+02  0.00000000000E+00 0. -1.
</event>
<event>
 7    1  0.5849044E-013  0.5052886E+02  0.7816164E-02  0.1300439E+00
        -11   -1    0    0    0    0  0.00000000000E+00  0.00000000000E+00  0.45593999997E+02  0.45594000000E+02  0.51100000000E-03 0.  1.
         11   -1    0    0    0    0 -0.00000000000E+00 -0.00000000000E+00 -0.45593999997E+02  0.45594000000E+02  0.51100000000E-03 0. -1.
    9900012    2    1    2    0    0  0.11079301239E+02 -0.38462194415E+02  0.71466070851E+01  0.50528864397E+02  0.30000013820E+02 0.  0.
         12    1    1    2    0    0 -0.11079301239E+02  0.38462194415E+02 -0.71466070851E+01  0.40659135603E+02  0.00000000000E+00 0. -1.
         11    1    3    3    0    0  0.12084603967E+02 -0.19686994158E+02  0.88807377708E+01  0.24748391778E+02  0.51100000000E-03 0. -1.
        -11    1    3    3    0    0 -0.84592289880E+01 -0.14866307985E+02  0.35561434361E+00  0.17108247426E+02  0.51100000000E-03 0.  1.
        -12    1    3    3    0    0  0.74539262608E+01 -0.39088922724E+01 -0.20897450293E+01  0.86722251923E+01  0.00000000000E+00 0.  1.
</event>
<event>
 7    1  0.5849044E-013  0.5052886E+02  0.7816164E-02  0.1300439E+00
        -11   -1    0    0    0    0  0.00000000000E+00  0.00000000000E+00  0.45593999997E+02  0.45594000000E+02  0.51100000000E-03 0.  1.
         11   -1    0    0    0    0 -0.00000000000E+00 -0.00000000000E+00 -0.45593999997E+02  0.45594000000E+02  0.51100000000E-03 0. -1.
    9900012    2    1    2    0    0  0.23177241962E+02 -0.18894206386E+02  0.27549768329E+02  0.50528864312E+02  0.30000013562E+02 0.  0.
         12    1    1    2    0    0 -0.23177241962E+02  0.18894206386E+02 -0.27549768329E+02  0.40659135688E+02  0.00000000000E+00 0. -1.
         11    1    3    3    0    0  0.24757044406E+02 -0.23519620355E+02  0.21321246350E+02  0.40257661824E+02  0.51100000000E-03 0.  1.
        -11    1    3    3    0    0  0.22482433519E+01  0.27380116831E+01  0.43443247552E+01  0.56057527582E+01  0.51100000000E-03 0. -1.
         12    1    3    3    0    0 -0.38280457956E+01  0.18874022859E+01  0.18841972242E+01  0.46654497299E+01  0.00000000000E+00 0. -1.
</event>
<event>
 7    1  0.5849044E-013  0.5052889E+02  0.7816164E-02  0.1300439E+00
        -11   -1    0    0    0    0  0.00000000000E+00  0.00000000000E+00  0.45593999997E+02  0.45594000000E+02  0.51100000000E-03 0. -1.
         11   -1    0    0    0    0 -0.00000000000E+00 -0.00000000000E+00 -0.45593999997E+02  0.45594000000E+02  0.51100000000E-03 0.  1.
    9900012    2    1    2    0    0 -0.38015158895E+02 -0.11708310055E+02  0.84217629008E+01  0.50528893756E+02  0.30000103062E+02 0.  0.
         12    1    1    2    0    0  0.38015158895E+02  0.11708310055E+02 -0.84217629008E+01  0.40659106244E+02  0.00000000000E+00 0. -1.
         11    1    3    3    0    0  0.83832692696E+00 -0.27661516812E+01 -0.53284872132E+01  0.60619438633E+01  0.51100000000E-03 0. -1.
        -11    1    3    3    0    0 -0.39129524740E+02 -0.10543308656E+02  0.12475755665E+02  0.42401952118E+02  0.51100000000E-03 0.  1.
        -12    1    3    3    0    0  0.27603891769E+00  0.16011502816E+01  0.12744944493E+01  0.20649977748E+01  0.00000000000E+00 0.  1.
</event>
<event>
 7    1  0.5849044E-013  0.5052886E+02  0.7816164E-02  0.1300439E+00
        -11   -1    0    0    0    0  0.00000000000E+00  0.00000000000E+00  0.45593999997E+02  0.45594000000E+02  0.51100000000E-03 0.  1.
         11   -1    0    0    0    0 -0.00000000000E+00 -0.00000000000E+00 -0.45593999997E+02  0.45594000000E+02  0.51100000000E-03 0. -1.
    9900012    2    1    2    0    0  0.32105282185E+01  0.72414168145E+01  0.39880071495E+02  0.50528859436E+02  0.29999998742E+02 0.  0.
         12    1    1    2    0    0 -0.32105282185E+01 -0.72414168145E+01 -0.39880071495E+02  0.40659140564E+02  0.00000000000E+00 0. -1.
         11    1    3    3    0    0  0.78590189272E+01  0.34880547863E+01  0.10439886758E+02  0.13524863787E+02  0.51100000000E-03 0. -1.
        -11    1    3    3    0    0 -0.10484345457E+02  0.89333315202E+01  0.23332059038E+02  0.27094480821E+02  0.51100000000E-03 0.  1.
        -12    1    3    3    0    0  0.58358547480E+01 -0.51799694920E+01  0.61081256990E+01  0.99095148283E+01  0.00000000000E+00 0.  1.
</event>
<event>
 7    1  0.5849044E-013  0.5052886E+02  0.7816164E-02  0.1300439E+00
        -11   -1    0    0    0    0  0.00000000000E+00  0.00000000000E+00  0.45593999997E+02  0.45594000000E+02  0.51100000000E-03 0. -1.
         11   -1    0    0    0    0 -0.00000000000E+00 -0.00000000000E+00 -0.45593999997E+02  0.45594000000E+02  0.51100000000E-03 0.  1.
    9900012    2    1    2    0    0  0.19927245991E+02 -0.28812457418E+02 -0.20637656330E+02  0.50528859649E+02  0.29999999390E+02 0.  0.
         12    1    1    2    0    0 -0.19927245991E+02  0.28812457418E+02  0.20637656330E+02  0.40659140351E+02  0.00000000000E+00 0. -1.
         11    1    3    3    0    0  0.88186615441E+01  0.10588666335E+01 -0.19978808537E+01  0.91039287203E+01  0.51100000000E-03 0. -1.
        -11    1    3    3    0    0  0.90192307557E+01 -0.31193454970E+02 -0.12479052089E+02  0.34786562027E+02  0.51100000000E-03 0.  1.
        -12    1    3    3    0    0  0.20893536909E+01  0.13221309184E+01 -0.61607233881E+01  0.66383689017E+01  0.00000000000E+00 0.  1.
</event>
<event>
 7    1  0.5849044E-013  0.5052883E+02  0.7816164E-02  0.1300439E+00
        -11   -1    0    0    0    0  0.00000000000E+00  0.00000000000E+00  0.45593999997E+02  0.45594000000E+02  0.51100000000E-03 0.  1.
         11   -1    0    0    0    0 -0.00000000000E+00 -0.00000000000E+00 -0.45593999997E+02  0.45594000000E+02  0.51100000000E-03 0. -1.
    9900012    2    1    2    0    0  0.20589441978E+02  0.24682372535E+02  0.24900270261E+02  0.50528830137E+02  0.29999909683E+02 0.  0.
         12    1    1    2    0    0 -0.20589441978E+02 -0.24682372535E+02 -0.24900270261E+02  0.40659169863E+02  0.00000000000E+00 0. -1.
         11    1    3    3    0    0  0.25592573231E+01  0.22971062068E+01 -0.20981762316E+01  0.40285032867E+01  0.51100000000E-03 0. -1.
        -11    1    3    3    0    0  0.18730649511E+02  0.98219065011E+01  0.26503325030E+02  0.33907717652E+02  0.51100000000E-03 0.  1.
        -12    1    3    3    0    0 -0.70046485630E+00  0.12563359827E+02  0.49512146238E+00  0.12592609198E+02  0.00000000000E+00 0.  1.
</event>
<event>
 7    1  0.5849044E-013  0.5052886E+02  0.7816164E-02  0.1300439E+00
        -11   -1    0    0    0    0  0.00000000000E+00  0.00000000000E+00  0.45593999997E+02  0.45594000000E+02  0.51100000000E-03 0. -1.
         11   -1    0    0    0    0 -0.00000000000E+00 -0.00000000000E+00 -0.45593999997E+02  0.45594000000E+02  0.51100000000E-03 0.  1.
    9900012    2    1    2    0    0 -0.17013133742E+02 -0.11119155261E+02 -0.35214811748E+02  0.50528864497E+02  0.30000014124E+02 0.  0.
         12    1    1    2    0    0  0.17013133742E+02  0.11119155261E+02  0.35214811748E+02  0.40659135503E+02  0.00000000000E+00 0. -1.
         11    1    3    3    0    0  0.10520310181E+01 -0.11644218525E+02 -0.13039416288E+02  0.17513451165E+02  0.51100000000E-03 0. -1.
        -11    1    3    3    0    0 -0.30821921802E+01  0.45863648498E+01 -0.14860576780E+02  0.15854696265E+02  0.51100000000E-03 0.  1.
         12    1    3    3    0    0 -0.14982972580E+02 -0.40613015866E+01 -0.73148186793E+01  0.17160717066E+02  0.00000000000E+00 0. -1.
</event>
<event>
 7    1  0.5849044E-013  0.5052886E+02  0.7816164E-02  0.1300439E+00
        -11   -1    0    0    0    0  0.00000000000E+00  0.00000000000E+00  0.45593999997E+02  0.45594000000E+02  0.51100000000E-03 0. -1.
         11   -1    0    0    0    0 -0.00000000000E+00 -0.00000000000E+00 -0.45593999997E+02  0.45594000000E+02  0.51100000000E-03 0.  1.
    9900012    2    1    2    0    0  0.14879381777E+02  0.27323948367E+02 -0.26175777885E+02  0.50528861982E+02  0.30000006481E+02 0.  0.
         12    1    1    2    0    0 -0.14879381777E+02 -0.27323948367E+02  0.26175777885E+02  0.40659138018E+02  0.00000000000E+00 0. -1.
         11    1    3    3    0    0  0.78150579769E+01 -0.29017996522E+01 -0.80586279428E+01  0.11594699521E+02  0.51100000000E-03 0. -1.
        -11    1    3    3    0    0  0.25054739223E+01  0.18967396984E+02 -0.18727694050E+02  0.26772487233E+02  0.51100000000E-03 0.  1.
         12    1    3    3    0    0  0.45588498780E+01  0.11258351035E+02  0.61054410787E+00  0.12161675228E+02  0.00000000000E+00 0. -1.
</event>
<event>
 7    1  0.5849044E-013  0.5052886E+02  0.7816164E-02  0.1300439E+00
        -11   -1    0    0    0    0  0.00000000000E+00  0.00000000000E+00  0.45593999997E+02  0.45594000000E+02  0.51100000000E-03 0. -1.
         11   -1    0    0    0    0 -0.00000000000E+00 -0.00000000000E+00 -0.45593999997E+02  0.45594000000E+02  0.51100000000E-03 0.  1.
    9900012    2    1    2    0    0  0.21514005092E+02 -0.16967655639E+02 -0.30040177005E+02  0.50528856041E+02  0.29999988422E+02 0.  0.
         12    1    1    2    0    0 -0.21514005092E+02  0.16967655639E+02  0.30040177005E+02  0.40659143959E+02  0.00000000000E+00 0. -1.
         11    1    3    3    0    0  0.13141382640E+02  0.88288468666E+00 -0.15995528464E+02  0.20720336729E+02  0.51100000000E-03 0. -1.
        -11    1    3    3    0    0  0.84553854247E+01 -0.20471422303E+02 -0.85899151046E+01  0.23756247927E+02  0.51100000000E-03 0.  1.
         12    1    3    3    0    0 -0.82762972975E-01  0.26208819775E+01 -0.54547334365E+01  0.60522713846E+01  0.00000000000E+00 0. -1.
</event>
<event>
 7    1  0.5849044E-013  0.5052885E+02  0.7816164E-02  0.1300439E+00
        -11   -1    0    0    0    0  0.00000000000E+00  0.00000000000E+00  0.45593999997E+02  0.45594000000E+02  0.51100000000E-03 0. -1.
         11   -1    0    0    0    0 -0.00000000000E+00 -0.00000000000E+00 -0.45593999997E+02  0.45594000000E+02  0.51100000000E-03 0.  1.
    9900012    2    1    2    0    0  0.16155948320E+02 -0.35315150873E+02  0.12041251883E+02  0.50528852269E+02  0.29999976957E+02 0.  0.
         12    1    1    2    0    0 -0.16155948320E+02  0.35315150873E+02 -0.12041251883E+02  0.40659147731E+02  0.00000000000E+00 0. -1.
         11    1    3    3    0    0  0.48281539112E+01 -0.24743112280E+02 -0.38176674591E+01  0.25497201035E+02  0.51100000000E-03 0. -1.
        -11    1    3    3    0    0  0.87361049067E+00 -0.58423858377E+01  0.11170757767E+02  0.12636553997E+02  0.51100000000E-03 0.  1.
        -12    1    3    3    0    0  0.10454183918E+02 -0.47296527550E+01  0.46881615754E+01  0.12395097238E+02  0.00000000000E+00 0.  1.
</event>
<event>
 7    1  0.5849044E-013  0.5052887E+02  0.7816164E-02  0.1300439E+00
        -11   -1    0    0    0    0  0.00000000000E+00  0.00000000000E+00  0.45593999997E+02  0.45594000000E+02  0.51100000000E-03 0.  1.
         11   -1    0    0    0    0 -0.00000000000E+00 -0.00000000000E+00 -0.45593999997E+02  0.45594000000E+02  0.51100000000E-03 0. -1.
    9900012    2    1    2    0    0 -0.27811322053E+02 -0.15357344421E+02  0.25374148575E+02  0.50528867226E+02  0.30000022420E+02 0.  0.
         12    1    1    2    0    0  0.27811322053E+02  0.15357344421E+02 -0.25374148575E+02  0.40659132774E+02  0.00000000000E+00 0. -1.
         11    1    3    3    0    0 -0.21700469965E+02 -0.81342117652E+01  0.36649569089E+01  0.23462900655E+02  0.51100000000E-03 0. -1.
        -11    1    3    3    0    0 -0.10132185060E+02 -0.63194965487E+01  0.17395329191E+02  0.21099637169E+02  0.51100000000E-03 0.  1.
         12    1    3    3    0    0  0.40213329717E+01 -0.90363610712E+00  0.43138624753E+01  0.59663294025E+01  0.00000000000E+00 0. -1.
</event>
<event>
 7    1  0.5849044E-013  0.5052886E+02  0.7816164E-02  0.1300439E+00
        -11   -1    0    0    0    0  0.00000000000E+00  0.00000000000E+00  0.45593999997E+02  0.45594000000E+02  0.51100000000E-03 0.  1.
         11   -1    0    0    0    0 -0.00000000000E+00 -0.00000000000E+00 -0.45593999997E+02  0.45594000000E+02  0.51100000000E-03 0. -1.
    9900012    2    1    2    0    0 -0.18366534050E+02  0.16136411363E+02  0.32487722561E+02  0.50528862505E+02  0.30000008069E+02 0.  0.
         12    1    1    2    0    0  0.18366534050E+02 -0.16136411363E+02 -0.32487722561E+02  0.40659137495E+02  0.00000000000E+00 0. -1.
         11    1    3    3    0    0  0.39136381736E+01  0.22312738978E+01  0.18195402030E+02  0.18744807341E+02  0.51100000000E-03 0. -1.
        -11    1    3    3    0    0 -0.82809954405E+01  0.11495607211E+02  0.65929368580E+01  0.15626601912E+02  0.51100000000E-03 0.  1.
         12    1    3    3    0    0 -0.13999176783E+02  0.24095302549E+01  0.76993836728E+01  0.16157453252E+02  0.00000000000E+00 0. -1.
</event>
<event>
 7    1  0.5849044E-013  0.5052886E+02  0.7816164E-02  0.1300439E+00
        -11   -1    0    0    0    0  0.00000000000E+00  0.00000000000E+00  0.45593999997E+02  0.45594000000E+02  0.51100000000E-03 0. -1.
         11   -1    0    0    0    0 -0.00000000000E+00 -0.00000000000E+00 -0.45593999997E+02  0.45594000000E+02  0.51100000000E-03 0.  1.
    9900012    2    1    2    0    0  0.30350248869E+02  0.26807796558E+02  0.36565688601E+01  0.50528855167E+02  0.29999985766E+02 0.  0.
         12    1    1    2    0    0 -0.30350248869E+02 -0.26807796558E+02 -0.36565688601E+01  0.40659144833E+02  0.00000000000E+00 0. -1.
         11    1    3    3    0    0 -0.38991555957E+01  0.50383702608E+01 -0.24758989472E-01  0.63709655872E+01  0.51100000000E-03 0. -1.
        -11    1    3    3    0    0  0.27250788708E+02  0.10491804352E+02 -0.28975385875E+01  0.29344150591E+02  0.51100000000E-03 0.  1.
         12    1    3    3    0    0  0.69986157567E+01  0.11277621945E+02  0.65788664370E+01  0.14813738989E+02  0.00000000000E+00 0. -1.
</event>
<event>
 7    1  0.5849044E-013  0.5052886E+02  0.7816164E-02  0.1300439E+00
        -11   -1    0    0    0    0  0.00000000000E+00  0.00000000000E+00  0.45593999997E+02  0.45594000000E+02  0.51100000000E-03 0. -1.
         11   -1    0    0    0    0 -0.00000000000E+00 -0.00000000000E+00 -0.45593999997E+02  0.45594000000E+02  0.51100000000E-03 0.  1.
    9900012    2    1    2    0    0  0.17567563304E+02  0.36394108326E+02 -0.44738073621E+01  0.50528863836E+02  0.30000012116E+02 0.  0.
         12    1    1    2    0    0 -0.17567563304E+02 -0.36394108326E+02  0.44738073621E+01  0.40659136164E+02  0.00000000000E+00 0. -1.
         11    1    3    3    0    0  0.13824817783E+02  0.12193033465E+02  0.10188387557E+02  0.21061787509E+02  0.51100000000E-03 0. -1.
        -11    1    3    3    0    0 -0.18269103233E+01  0.76596541193E+01 -0.27728260914E+01  0.83484410132E+01  0.51100000000E-03 0.  1.
         12    1    3    3    0    0  0.55696558449E+01  0.16541420742E+02 -0.11889368828E+02  0.21118635314E+02  0.00000000000E+00 0. -1.
</event>
<event>
 7    1  0.5849044E-013  0.5052883E+02  0.7816164E-02  0.1300439E+00
        -11   -1    0    0    0    0  0.00000000000E+00  0.00000000000E+00  0.45593999997E+02  0.45594000000E+02  0.51100000000E-03 0.  1.
         11   -1    0    0    0    0 -0.00000000000E+00 -0.00000000000E+00 -0.45593999997E+02  0.45594000000E+02  0.51100000000E-03 0. -1.
    9900012    2    1    2    0    0 -0.37013770856E+00 -0.79864769064E+01  0.39865360585E+02  0.50528833876E+02  0.29999921050E+02 0.  0.
         12    1    1    2    0    0  0.37013770856E+00  0.79864769064E+01 -0.39865360585E+02  0.40659166124E+02  0.00000000000E+00 0. -1.
         11    1    3    3    0    0  0.11340934215E+02 -0.87546401189E+01  0.27525322646E+02  0.31030692862E+02  0.51100000000E-03 0. -1.
        -11    1    3    3    0    0  0.44744717892E-01 -0.27218573442E+01  0.32148637490E+01  0.42125833734E+01  0.51100000000E-03 0.  1.
         12    1    3    3    0    0 -0.11755816641E+02  0.34900205566E+01  0.91251741900E+01  0.15285557641E+02  0.00000000000E+00 0. -1.
</event>
<event>
 7    1  0.5849044E-013  0.5052888E+02  0.7816164E-02  0.1300439E+00
        -11   -1    0    0    0    0  0.00000000000E+00  0.00000000000E+00  0.45593999997E+02  0.45594000000E+02  0.51100000000E-03 0. -1.
         11   -1    0    0    0    0 -0.00000000000E+00 -0.00000000000E+00 -0.45593999997E+02  0.45594000000E+02  0.51100000000E-03 0.  1.
    9900012    2    1    2    0    0  0.23925208510E+02 -0.29655710062E+02 -0.14187581265E+02  0.50528877977E+02  0.30000055100E+02 0.  0.
         12    1    1    2    0    0 -0.23925208510E+02  0.29655710062E+02  0.14187581265E+02  0.40659122023E+02  0.00000000000E+00 0. -1.
         11    1    3    3    0    0  0.95419712418E+01 -0.20784505081E+02  0.49335087630E+01  0.23396247041E+02  0.51100000000E-03 0. -1.
        -11    1    3    3    0    0  0.43429210878E+01 -0.75907218813E+01 -0.11576756909E+02  0.14508663724E+02  0.51100000000E-03 0.  1.
         12    1    3    3    0    0  0.10040316180E+02 -0.12804830992E+01 -0.75443331184E+01  0.12623967212E+02  0.00000000000E+00 0. -1.
</event>
<event>
 7    1  0.5849044E-013  0.5052886E+02  0.7816164E-02  0.1300439E+00
        -11   -1    0    0    0    0  0.00000000000E+00  0.00000000000E+00  0.45593999997E+02  0.45594000000E+02  0.51100000000E-03 0. -1.
         11   -1    0    0    0    0 -0.00000000000E+00 -0.00000000000E+00 -0.45593999997E+02  0.45594000000E+02  0.51100000000E-03 0.  1.
    9900012    2    1    2    0    0  0.33023412711E+02  0.33433627582E+01 -0.23482797024E+02  0.50528860588E+02  0.30000002244E+02 0.  0.
         12    1    1    2    0    0 -0.33023412711E+02 -0.33433627582E+01  0.23482797024E+02  0.40659139412E+02  0.00000000000E+00 0. -1.
         11    1    3    3    0    0  0.15701902281E+02 -0.64681615533E+01 -0.24837056602E+02  0.30087642480E+02  0.51100000000E-03 0. -1.
        -11    1    3    3    0    0  0.10556541866E+02  0.83560716132E+01  0.12410251183E+01  0.13520527082E+02  0.51100000000E-03 0.  1.
        -12    1    3    3    0    0  0.67649685645E+01  0.14554526983E+01  0.11323445931E+00  0.69206910261E+01  0.00000000000E+00 0.  1.
</event>
<event>
 7    1  0.5849044E-013  0.5052882E+02  0.7816164E-02  0.1300439E+00
        -11   -1    0    0    0    0  0.00000000000E+00  0.00000000000E+00  0.45593999997E+02  0.45594000000E+02  0.51100000000E-03 0. -1.
         11   -1    0    0    0    0 -0.00000000000E+00 -0.00000000000E+00 -0.45593999997E+02  0.45594000000E+02  0.51100000000E-03 0.  1.
    9900012    2    1    2    0    0 -0.35493520816E+02  0.19012960863E+02 -0.56468110977E+01  0.50528816828E+02  0.29999869229E+02 0.  0.
         12    1    1    2    0    0  0.35493520816E+02 -0.19012960863E+02  0.56468110977E+01  0.40659183172E+02  0.00000000000E+00 0. -1.
         11    1    3    3    0    0 -0.83480669762E+01 -0.69806329646E+00  0.52200374712E+01  0.98704764863E+01  0.51100000000E-03 0. -1.
        -11    1    3    3    0    0 -0.29103544418E+02  0.12495829333E+02 -0.94154095507E+01  0.33042578376E+02  0.51100000000E-03 0.  1.
        -12    1    3    3    0    0  0.19580905787E+01  0.72151948263E+01 -0.14514390181E+01  0.76157619657E+01  0.00000000000E+00 0.  1.
</event>
<event>
 7    1  0.5849044E-013  0.5052888E+02  0.7816164E-02  0.1300439E+00
        -11   -1    0    0    0    0  0.00000000000E+00  0.00000000000E+00  0.45593999997E+02  0.45594000000E+02  0.51100000000E-03 0.  1.
         11   -1    0    0    0    0 -0.00000000000E+00 -0.00000000000E+00 -0.45593999997E+02  0.45594000000E+02  0.51100000000E-03 0. -1.
    9900012    2    1    2    0    0 -0.30062400608E+02 -0.19997890239E+02  0.18694942980E+02  0.50528875103E+02  0.30000046364E+02 0.  0.
         12    1    1    2    0    0  0.30062400608E+02  0.19997890239E+02 -0.18694942980E+02  0.40659124897E+02  0.00000000000E+00 0. -1.
         11    1    3    3    0    0 -0.10310454930E+02 -0.15399528689E+02  0.20028889655E+02  0.27287495044E+02  0.51100000000E-03 0. -1.
        -11    1    3    3    0    0 -0.21196974599E+02 -0.45577670804E+01 -0.17066508786E+01  0.21748508693E+02  0.51100000000E-03 0.  1.
         12    1    3    3    0    0  0.14450289205E+01 -0.40594470298E-01  0.37270420308E+00  0.14928713659E+01  0.00000000000E+00 0. -1.
</event>
<event>
 7    1  0.5849044E-013  0.5052886E+02  0.7816164E-02  0.1300439E+00
        -11   -1    0    0    0    0  0.00000000000E+00  0.00000000000E+00  0.45593999997E+02  0.45594000000E+02  0.51100000000E-03 0.  1.
         11   -1    0    0    0    0 -0.00000000000E+00 -0.00000000000E+00 -0.45593999997E+02  0.45594000000E+02  0.51100000000E-03 0. -1.
    9900012    2    1    2    0    0 -0.27256948390E+02 -0.29335840635E+02  0.70450643424E+01  0.50528859418E+02  0.29999998687E+02 0.  0.
         12    1    1    2    0    0  0.27256948390E+02  0.29335840635E+02 -0.70450643424E+01  0.40659140582E+02  0.00000000000E+00 0. -1.
         11    1    3    3    0    0  0.42674039356E+01 -0.26515379247E+01  0.44769958858E+01  0.67294042930E+01  0.51100000000E-03 0. -1.
        -11    1    3    3    0    0 -0.16810104605E+02 -0.84727489474E+01  0.67842698143E+01  0.20009832801E+02  0.51100000000E-03 0.  1.
        -12    1    3    3    0    0 -0.14714247720E+02 -0.18211553763E+02 -0.42162013576E+01  0.23789622324E+02  0.00000000000E+00 0.  1.
</event>
<event>
 7    1  0.5849044E-013  0.5052886E+02  0.7816164E-02  0.1300439E+00
        -11   -1    0    0    0    0  0.00000000000E+00  0.00000000000E+00  0.45593999997E+02  0.45594000000E+02  0.51100000000E-03 0.  1.
         11   -1    0    0    0    0 -0.00000000000E+00 -0.00000000000E+00 -0.45593999997E+02  0.45594000000E+02  0.51100000000E-03 0. -1.
    9900012    2    1    2    0    0  0.56557607444E+01  0.37047035228E+02  0.15770078724E+02  0.50528857956E+02  0.29999994244E+02 0.  0.
         12    1    1    2    0    0 -0.56557607444E+01 -0.37047035228E+02 -0.15770078724E+02  0.40659142044E+02  0.00000000000E+00 0. -1.
         11    1    3    3    0    0 -0.92133312036E+01  0.43451669816E+01 -0.39467055930E+00  0.10194199972E+02  0.51100000000E-03 0. -1.
        -11    1    3    3    0    0  0.42576259310E+01  0.99345977226E+01  0.68721666509E+00  0.10830322132E+02  0.51100000000E-03 0.  1.
         12    1    3    3    0    0  0.10611466017E+02  0.22767270524E+02  0.15477532618E+02  0.29504335852E+02  0.00000000000E+00 0. -1.
</event>
<event>
 7    1  0.5849044E-013  0.5052885E+02  0.7816164E-02  0.1300439E+00
        -11   -1    0    0    0    0  0.00000000000E+00  0.00000000000E+00  0.45593999997E+02  0.45594000000E+02  0.51100000000E-03 0.  1.
         11   -1    0    0    0    0 -0.00000000000E+00 -0.00000000000E+00 -0.45593999997E+02  0.45594000000E+02  0.51100000000E-03 0. -1.
    9900012    2    1    2    0    0  0.36515187568E+02  0.16645634508E+02  0.65368728623E+01  0.50528846318E+02  0.29999958868E+02 0.  0.
         12    1    1    2    0    0 -0.36515187568E+02 -0.16645634508E+02 -0.65368728623E+01  0.40659153682E+02  0.00000000000E+00 0. -1.
         11    1    3    3    0    0 -0.19221740576E+01 -0.39590423432E+01  0.75043738337E+00  0.44645185530E+01  0.51100000000E-03 0. -1.
        -11    1    3    3    0    0  0.12849937841E+02  0.89657341958E+01 -0.42188604238E+01  0.16226647088E+02  0.51100000000E-03 0.  1.
         12    1    3    3    0    0  0.25587423784E+02  0.11638942656E+02  0.10005295903E+02  0.29837680677E+02  0.00000000000E+00 0. -1.
</event>
<event>
 7    1  0.5849044E-013  0.5052884E+02  0.7816164E-02  0.1300439E+00
        -11   -1    0    0    0    0  0.00000000000E+00  0.00000000000E+00  0.45593999997E+02  0.45594000000E+02  0.51100000000E-03 0. -1.
         11   -1    0    0    0    0 -0.00000000000E+00 -0.00000000000E+00 -0.45593999997E+02  0.45594000000E+02  0.51100000000E-03 0.  1.
    9900012    2    1    2    0    0 -0.22253677494E+02  0.34015648042E+02 -0.93651996334E+00  0.50528836907E+02  0.29999930263E+02 0.  0.
         12    1    1    2    0    0  0.22253677494E+02 -0.34015648042E+02  0.93651996334E+00  0.40659163093E+02  0.00000000000E+00 0. -1.
         11    1    3    3    0    0 -0.17530091249E+02  0.21750007028E+02  0.80672010208E+01  0.29076565091E+02  0.51100000000E-03 0.  1.
        -11    1    3    3    0    0  0.46681922480E+01  0.15362622689E+01 -0.40134169390E+01  0.63450481803E+01  0.51100000000E-03 0. -1.
         12    1    3    3    0    0 -0.93917784928E+01  0.10729378745E+02 -0.49903040452E+01  0.15107223636E+02  0.00000000000E+00 0. -1.
</event>
<event>
 7    1  0.5849044E-013  0.5052886E+02  0.7816164E-02  0.1300439E+00
        -11   -1    0    0    0    0  0.00000000000E+00  0.00000000000E+00  0.45593999997E+02  0.45594000000E+02  0.51100000000E-03 0.  1.
         11   -1    0    0    0    0 -0.00000000000E+00 -0.00000000000E+00 -0.45593999997E+02  0.45594000000E+02  0.51100000000E-03 0. -1.
    9900012    2    1    2    0    0 -0.39430014744E+02  0.69131444183E+01  0.71167701753E+01  0.50528855319E+02  0.29999986228E+02 0.  0.
         12    1    1    2    0    0  0.39430014744E+02 -0.69131444183E+01 -0.71167701753E+01  0.40659144681E+02  0.00000000000E+00 0. -1.
         11    1    3    3    0    0 -0.14123235464E+01  0.10468347563E+01  0.84318121310E+01  0.86131281704E+01  0.51100000000E-03 0. -1.
        -11    1    3    3    0    0 -0.10558206550E+02  0.77629022505E+01 -0.52374775675E+01  0.14112744185E+02  0.51100000000E-03 0.  1.
         12    1    3    3    0    0 -0.27459484648E+02 -0.18965925885E+01  0.39224356119E+01  0.27802982964E+02  0.00000000000E+00 0. -1.
</event>
<event>
 7    1  0.5849044E-013  0.5052886E+02  0.7816164E-02  0.1300439E+00
        -11   -1    0    0    0    0  0.00000000000E+00  0.00000000000E+00  0.45593999997E+02  0.45594000000E+02  0.51100000000E-03 0.  1.
         11   -1    0    0    0    0 -0.00000000000E+00 -0.00000000000E+00 -0.45593999997E+02  0.45594000000E+02  0.51100000000E-03 0. -1.
    9900012    2    1    2    0    0  0.64392527661E+01  0.30449438098E+02  0.26163585789E+02  0.50528862306E+02  0.30000007465E+02 0.  0.
         12    1    1    2    0    0 -0.64392527661E+01 -0.30449438098E+02 -0.26163585789E+02  0.40659137694E+02  0.00000000000E+00 0. -1.
         11    1    3    3    0    0 -0.83505318361E+01  0.12370303369E+02  0.94730951844E+01  0.17677537160E+02  0.51100000000E-03 0. -1.
        -11    1    3    3    0    0  0.15278330825E+02  0.19376591175E+02  0.18304582818E+02  0.30723564747E+02  0.51100000000E-03 0.  1.
        -12    1    3    3    0    0 -0.48854622299E+00 -0.12974564463E+01 -0.16140922136E+01  0.21277603991E+01  0.00000000000E+00 0.  1.
</event>
<event>
 7    1  0.5849044E-013  0.5052887E+02  0.7816164E-02  0.1300439E+00
        -11   -1    0    0    0    0  0.00000000000E+00  0.00000000000E+00  0.45593999997E+02  0.45594000000E+02  0.51100000000E-03 0.  1.
         11   -1    0    0    0    0 -0.00000000000E+00 -0.00000000000E+00 -0.45593999997E+02  0.45594000000E+02  0.51100000000E-03 0. -1.
    9900012    2    1    2    0    0  0.36182024637E+02  0.16615187367E+02  0.82438967362E+01  0.50528865830E+02  0.30000018176E+02 0.  0.
         12    1    1    2    0    0 -0.36182024637E+02 -0.16615187367E+02 -0.82438967362E+01  0.40659134170E+02  0.00000000000E+00 0. -1.
         11    1    3    3    0    0  0.22788703852E+02  0.15433294710E+02 -0.64625508940E+01  0.28271472780E+02  0.51100000000E-03 0. -1.
        -11    1    3    3    0    0  0.13646775300E+02 -0.21078387721E+00  0.89304881211E+01  0.16310503495E+02  0.51100000000E-03 0.  1.
         12    1    3    3    0    0 -0.25345451429E+00  0.13926765351E+01  0.57759595090E+01  0.59468895544E+01  0.00000000000E+00 0. -1.
</event>
<event>
 7    1  0.5849044E-013  0.5052885E+02  0.7816164E-02  0.1300439E+00
        -11   -1    0    0    0    0  0.00000000000E+00  0.00000000000E+00  0.45593999997E+02  0.45594000000E+02  0.51100000000E-03 0.  1.
         11   -1    0    0    0    0 -0.00000000000E+00 -0.00000000000E+00 -0.45593999997E+02  0.45594000000E+02  0.51100000000E-03 0. -1.
    9900012    2    1    2    0    0 -0.76980855160E+01 -0.24809467202E+02  0.31279324546E+02  0.50528851860E+02  0.29999975713E+02 0.  0.
         12    1    1    2    0    0  0.76980855160E+01  0.24809467202E+02 -0.31279324546E+02  0.40659148140E+02  0.00000000000E+00 0. -1.
         11    1    3    3    0    0 -0.13524436874E+01 -0.69050813472E+01  0.76945771074E+00  0.70782284344E+01  0.51100000000E-03 0. -1.
        -11    1    3    3    0    0 -0.53193534135E+01 -0.15858841724E+02  0.34787026564E+02  0.38599683924E+02  0.51100000000E-03 0.  1.
        -12    1    3    3    0    0 -0.10262884151E+01 -0.20455441308E+01 -0.42771597290E+01  0.48509395017E+01  0.00000000000E+00 0.  1.
</event>
<event>
 7    1  0.5849044E-013  0.5052886E+02  0.7816164E-02  0.1300439E+00
        -11   -1    0    0    0    0  0.00000000000E+00  0.00000000000E+00  0.45593999997E+02  0.45594000000E+02  0.51100000000E-03 0.  1.
         11   -1    0    0    0    0 -0.00000000000E+00 -0.00000000000E+00 -0.45593999997E+02  0.45594000000E+02  0.51100000000E-03 0. -1.
    9900012    2    1    2    0    0  0.89284231582E+01 -0.21892512279E+02  0.33078197806E+02  0.50528855837E+02  0.29999987802E+02 0.  0.
         12    1    1    2    0    0 -0.89284231582E+01  0.21892512279E+02 -0.33078197806E+02  0.40659144163E+02  0.00000000000E+00 0. -1.
         11    1    3    3    0    0 -0.73734454841E+01  0.21456502951E+01  0.67228049160E+01  0.10206253950E+02  0.51100000000E-03 0. -1.
        -11    1    3    3    0    0  0.58443647660E+01 -0.11958034641E+02  0.17715953822E+02  0.22158659979E+02  0.51100000000E-03 0.  1.
         12    1    3    3    0    0  0.10457503876E+02 -0.12080127934E+02  0.86394390673E+01  0.18163941908E+02  0.00000000000E+00 0. -1.
</event>
<event>
 7    1  0.5849044E-013  0.5052891E+02  0.7816164E-02  0.1300439E+00
        -11   -1    0    0    0    0  0.00000000000E+00  0.00000000000E+00  0.45593999997E+02  0.45594000000E+02  0.51100000000E-03 0.  1.
         11   -1    0    0    0    0 -0.00000000000E+00 -0.00000000000E+00 -0.45593999997E+02  0.45594000000E+02  0.51100000000E-03 0. -1.
    9900012    2    1    2    0    0  0.11983974588E+02 -0.33528843061E+02  0.19630658863E+02  0.50528908381E+02  0.30000147513E+02 0.  0.
         12    1    1    2    0    0 -0.11983974588E+02  0.33528843061E+02 -0.19630658863E+02  0.40659091619E+02  0.00000000000E+00 0. -1.
         11    1    3    3    0    0  0.65978706721E+01 -0.33651981069E+02  0.92204724819E+01  0.35510629962E+02  0.51100000000E-03 0. -1.
        -11    1    3    3    0    0  0.38810812320E+01 -0.39601865722E+01  0.87531312062E+01  0.10361620307E+02  0.51100000000E-03 0.  1.
         12    1    3    3    0    0  0.15050226842E+01  0.40833245806E+01  0.16570551752E+01  0.46566581112E+01  0.00000000000E+00 0. -1.
</event>
<event>
 7    1  0.5849044E-013  0.5052886E+02  0.7816164E-02  0.1300439E+00
        -11   -1    0    0    0    0  0.00000000000E+00  0.00000000000E+00  0.45593999997E+02  0.45594000000E+02  0.51100000000E-03 0.  1.
         11   -1    0    0    0    0 -0.00000000000E+00 -0.00000000000E+00 -0.45593999997E+02  0.45594000000E+02  0.51100000000E-03 0. -1.
    9900012    2    1    2    0    0  0.30634605762E+02 -0.23193677159E+02  0.13294358385E+02  0.50528859635E+02  0.29999999346E+02 0.  0.
         12    1    1    2    0    0 -0.30634605762E+02  0.23193677159E+02 -0.13294358385E+02  0.40659140365E+02  0.00000000000E+00 0. -1.
         11    1    3    3    0    0  0.27461560456E+02 -0.11722670220E+02  0.51319538398E+01  0.30296786138E+02  0.51100000000E-03 0.  1.
        -11    1    3    3    0    0 -0.33067756608E+01 -0.55665052530E+01 -0.20326975120E+01  0.67862069994E+01  0.51100000000E-03 0. -1.
        -12    1    3    3    0    0  0.64798209668E+01 -0.59045016855E+01  0.10195102058E+02  0.13445866498E+02  0.00000000000E+00 0.  1.
</event>
<event>
 7    1  0.5849044E-013  0.5052886E+02  0.7816164E-02  0.1300439E+00
        -11   -1    0    0    0    0  0.00000000000E+00  0.00000000000E+00  0.45593999997E+02  0.45594000000E+02  0.51100000000E-03 0.  1.
         11   -1    0    0    0    0 -0.00000000000E+00 -0.00000000000E+00 -0.45593999997E+02  0.45594000000E+02  0.51100000000E-03 0. -1.
    9900012    2    1    2    0    0 -0.17741010747E+02 -0.35625970029E+02  0.83194005041E+01  0.50528860467E+02  0.30000001876E+02 0.  0.
         12    1    1    2    0    0  0.17741010747E+02  0.35625970029E+02 -0.83194005041E+01  0.40659139533E+02  0.00000000000E+00 0. -1.
         11    1    3    3    0    0 -0.91137852949E+01 -0.12963057354E+02 -0.10420675261E+02  0.18965558561E+02  0.51100000000E-03 0. -1.
        -11    1    3    3    0    0 -0.22360463257E+01 -0.14974690283E+02  0.90450507625E+01  0.17636728603E+02  0.51100000000E-03 0.  1.
         12    1    3    3    0    0 -0.63911791267E+01 -0.76882223910E+01  0.96950250028E+01  0.13926573303E+02  0.00000000000E+00 0. -1.
</event>
<event>
 7    1  0.5849044E-013  0.5052886E+02  0.7816164E-02  0.1300439E+00
        -11   -1    0    0    0    0  0.00000000000E+00  0.00000000000E+00  0.45593999997E+02  0.45594000000E+02  0.51100000000E-03 0.  1.
         11   -1    0    0    0    0 -0.00000000000E+00 -0.00000000000E+00 -0.45593999997E+02  0.45594000000E+02  0.51100000000E-03 0. -1.
    9900012    2    1    2    0    0  0.86245774963E+01  0.20394700144E+02  0.34100422747E+02  0.50528856348E+02  0.29999989356E+02 0.  0.
         12    1    1    2    0    0 -0.86245774963E+01 -0.20394700144E+02 -0.34100422747E+02  0.40659143652E+02  0.00000000000E+00 0. -1.
         11    1    3    3    0    0 -0.26249140993E+01  0.19384105670E+01  0.28133293044E+01  0.43084140459E+01  0.51100000000E-03 0. -1.
        -11    1    3    3    0    0  0.19852761568E+02  0.11791771019E+02  0.20103890461E+02  0.30616081029E+02  0.51100000000E-03 0.  1.
        -12    1    3    3    0    0 -0.86032699720E+01  0.66645185579E+01  0.11183202982E+02  0.15604361274E+02  0.00000000000E+00 0.  1.
</event>
<event>
 7    1  0.5849044E-013  0.5052885E+02  0.7816164E-02  0.1300439E+00
        -11   -1    0    0    0    0  0.00000000000E+00  0.00000000000E+00  0.45593999997E+02  0.45594000000E+02  0.51100000000E-03 0.  1.
         11   -1    0    0    0    0 -0.00000000000E+00 -0.00000000000E+00 -0.45593999997E+02  0.45594000000E+02  0.51100000000E-03 0. -1.
    9900012    2    1    2    0    0 -0.31182934996E+02 -0.51847163472E+00  0.26086820006E+02  0.50528850650E+02  0.29999972036E+02 0.  0.
         12    1    1    2    0    0  0.31182934996E+02  0.51847163472E+00 -0.26086820006E+02  0.40659149350E+02  0.00000000000E+00 0. -1.
         11    1    3    3    0    0 -0.25311202725E+01 -0.22650032425E+01  0.10358627847E+02  0.10901283441E+02  0.51100000000E-03 0. -1.
        -11    1    3    3    0    0 -0.27690626061E+02  0.73004572959E+01  0.74107239572E+01  0.29580166974E+02  0.51100000000E-03 0.  1.
        -12    1    3    3    0    0 -0.96118866265E+00 -0.55539256882E+01  0.83174682018E+01  0.10047400235E+02  0.00000000000E+00 0.  1.
</event>
<event>
 7    1  0.5849044E-013  0.5052886E+02  0.7816164E-02  0.1300439E+00
        -11   -1    0    0    0    0  0.00000000000E+00  0.00000000000E+00  0.45593999997E+02  0.45594000000E+02  0.51100000000E-03 0.  1.
         11   -1    0    0    0    0 -0.00000000000E+00 -0.00000000000E+00 -0.45593999997E+02  0.45594000000E+02  0.51100000000E-03 0. -1.
    9900012    2    1    2    0    0  0.98115119269E+01 -0.37307787091E+02  0.12846361512E+02  0.50528858985E+02  0.29999997372E+02 0.  0.
         12    1    1    2    0    0 -0.98115119269E+01  0.37307787091E+02 -0.12846361512E+02  0.40659141015E+02  0.00000000000E+00 0. -1.
         11    1    3    3    0    0  0.78911187961E+01 -0.29781553274E+02 -0.70589487306E+00  0.30817348346E+02  0.51100000000E-03 0. -1.
        -11    1    3    3    0    0  0.80939909633E+00 -0.95813931933E+01  0.14323127418E+02  0.17251382603E+02  0.51100000000E-03 0.  1.
         12    1    3    3    0    0  0.11109940345E+01  0.20551593760E+01 -0.77087103265E+00  0.24601280362E+01  0.00000000000E+00 0. -1.
</event>
<event>
 7    1  0.5849044E-013  0.5052884E+02  0.7816164E-02  0.1300439E+00
        -11   -1    0    0    0    0  0.00000000000E+00  0.00000000000E+00  0.45593999997E+02  0.45594000000E+02  0.51100000000E-03 0.  1.
         11   -1    0    0    0    0 -0.00000000000E+00 -0.00000000000E+00 -0.45593999997E+02  0.45594000000E+02  0.51100000000E-03 0. -1.
    9900012    2    1    2    0    0 -0.21955352289E+02  0.24065335076E+02  0.24330829367E+02  0.50528842309E+02  0.29999946683E+02 0.  0.
         12    1    1    2    0    0  0.21955352289E+02 -0.24065335076E+02 -0.24330829367E+02  0.40659157691E+02  0.00000000000E+00 0. -1.
         11    1    3    3    0    0 -0.13183075821E+01 -0.21161286768E+01  0.39575787925E+01  0.46774315193E+01  0.51100000000E-03 0. -1.
        -11    1    3    3    0    0 -0.59476211657E+01  0.20929108200E+02  0.20999378914E+02  0.30238645516E+02  0.51100000000E-03 0.  1.
        -12    1    3    3    0    0 -0.14689423541E+02  0.52523555520E+01 -0.62612833916E+00  0.15612765274E+02  0.00000000000E+00 0.  1.
</event>
<event>
 7    1  0.5849044E-013  0.5052886E+02  0.7816164E-02  0.1300439E+00
        -11   -1    0    0    0    0  0.00000000000E+00  0.00000000000E+00  0.45593999997E+02  0.45594000000E+02  0.51100000000E-03 0.  1.
         11   -1    0    0    0    0 -0.00000000000E+00 -0.00000000000E+00 -0.45593999997E+02  0.45594000000E+02  0.51100000000E-03 0. -1.
    9900012    2    1    2    0    0 -0.21880584277E+02 -0.29461102816E+02  0.17505680786E+02  0.50528863177E+02  0.30000010112E+02 0.  0.
         12    1    1    2    0    0  0.21880584277E+02  0.29461102816E+02 -0.17505680786E+02  0.40659136823E+02  0.00000000000E+00 0. -1.
         11    1    3    3    0    0 -0.19868810874E+01  0.13970515253E+01 -0.42073339582E+01  0.48580972322E+01  0.51100000000E-03 0. -1.
        -11    1    3    3    0    0 -0.75007507946E+01 -0.18915701602E+02  0.19735166680E+02  0.28346813467E+02  0.51100000000E-03 0.  1.
         12    1    3    3    0    0 -0.12392952395E+02 -0.11942452739E+02  0.19778480645E+01  0.17323952478E+02  0.00000000000E+00 0. -1.
</event>
<event>
 7    1  0.5849044E-013  0.5052889E+02  0.7816164E-02  0.1300439E+00
        -11   -1    0    0    0    0  0.00000000000E+00  0.00000000000E+00  0.45593999997E+02  0.45594000000E+02  0.51100000000E-03 0.  1.
         11   -1    0    0    0    0 -0.00000000000E+00 -0.00000000000E+00 -0.45593999997E+02  0.45594000000E+02  0.51100000000E-03 0. -1.
    9900012    2    1    2    0    0  0.19502061108E+02 -0.29932621183E+02  0.19413166747E+02  0.50528889809E+02  0.30000091065E+02 0.  0.
         12    1    1    2    0    0 -0.19502061108E+02  0.29932621183E+02 -0.19413166747E+02  0.40659110191E+02  0.00000000000E+00 0. -1.
         11    1    3    3    0    0  0.54167374095E+00 -0.16717872663E+01  0.13555051913E+02  0.13668493543E+02  0.51100000000E-03 0. -1.
        -11    1    3    3    0    0  0.11041977377E+02 -0.17705856872E+02 -0.28359863376E+01  0.21058619393E+02  0.51100000000E-03 0.  1.
         12    1    3    3    0    0  0.79184099894E+01 -0.10554977045E+02  0.86941011711E+01  0.15801776874E+02  0.00000000000E+00 0. -1.
</event>
<event>
 7    1  0.5849044E-013  0.5052884E+02  0.7816164E-02  0.1300439E+00
        -11   -1    0    0    0    0  0.00000000000E+00  0.00000000000E+00  0.45593999997E+02  0.45594000000E+02  0.51100000000E-03 0.  1.
         11   -1    0    0    0    0 -0.00000000000E+00 -0.00000000000E+00 -0.45593999997E+02  0.45594000000E+02  0.51100000000E-03 0. -1.
    9900012    2    1    2    0    0 -0.16365893031E+02  0.35061535196E+02  0.12490542841E+02  0.50528839095E+02  0.29999936914E+02 0.  0.
         12    1    1    2    0    0  0.16365893031E+02 -0.35061535196E+02 -0.12490542841E+02  0.40659160905E+02  0.00000000000E+00 0. -1.
         11    1    3    3    0    0 -0.49095375019E+01  0.23630633304E+02 -0.50026732888E+01  0.24648268279E+02  0.51100000000E-03 0. -1.
        -11    1    3    3    0    0 -0.88427868172E+01  0.17511177983E+01  0.90361949013E+01  0.12763781211E+02  0.51100000000E-03 0.  1.
        -12    1    3    3    0    0 -0.26135687119E+01  0.96797840934E+01  0.84570212285E+01  0.13116789606E+02  0.00000000000E+00 0.  1.
</event>
<event>
 7    1  0.5849044E-013  0.5052886E+02  0.7816164E-02  0.1300439E+00
        -11   -1    0    0    0    0  0.00000000000E+00  0.00000000000E+00  0.45593999997E+02  0.45594000000E+02  0.51100000000E-03 0.  1.
         11   -1    0    0    0    0 -0.00000000000E+00 -0.00000000000E+00 -0.45593999997E+02  0.45594000000E+02  0.51100000000E-03 0. -1.
    9900012    2    1    2    0    0 -0.27263113022E+02  0.15841761590E+02  0.25669572326E+02  0.50528859757E+02  0.29999999718E+02 0.  0.
         12    1    1    2    0    0  0.27263113022E+02 -0.15841761590E+02 -0.25669572326E+02  0.40659140243E+02  0.00000000000E+00 0. -1.
         11    1    3    3    0    0  0.35987246058E-01  0.41984762717E+01 -0.30842807016E+01  0.52097299156E+01  0.51100000000E-03 0. -1.
        -11    1    3    3    0    0 -0.29529690075E+02  0.12600483117E+02  0.24366548207E+02  0.40305129233E+02  0.51100000000E-03 0.  1.
        -12    1    3    3    0    0  0.22305898072E+01 -0.95719779889E+00  0.43873048202E+01  0.50140006082E+01  0.00000000000E+00 0.  1.
</event>
<event>
 7    1  0.5849044E-013  0.5052887E+02  0.7816164E-02  0.1300439E+00
        -11   -1    0    0    0    0  0.00000000000E+00  0.00000000000E+00  0.45593999997E+02  0.45594000000E+02  0.51100000000E-03 0. -1.
         11   -1    0    0    0    0 -0.00000000000E+00 -0.00000000000E+00 -0.45593999997E+02  0.45594000000E+02  0.51100000000E-03 0.  1.
    9900012    2    1    2    0    0  0.51645699329E+01 -0.39930500453E+02  0.56610505613E+01  0.50528866432E+02  0.30000020008E+02 0.  0.
         12    1    1    2    0    0 -0.51645699329E+01  0.39930500453E+02 -0.56610505613E+01  0.40659133568E+02  0.00000000000E+00 0. -1.
         11    1    3    3    0    0  0.55131687952E+01  0.12546639996E+01  0.42389295171E+00  0.56699997718E+01  0.51100000000E-03 0. -1.
        -11    1    3    3    0    0 -0.71776868178E+01 -0.33447816892E+02  0.46273854904E+01  0.34520839208E+02  0.51100000000E-03 0.  1.
        -12    1    3    3    0    0  0.68290879555E+01 -0.77373475609E+01  0.60977211914E+00  0.10338027453E+02  0.00000000000E+00 0.  1.
</event>
<event>
 7    1  0.5849044E-013  0.5052885E+02  0.7816164E-02  0.1300439E+00
        -11   -1    0    0    0    0  0.00000000000E+00  0.00000000000E+00  0.45593999997E+02  0.45594000000E+02  0.51100000000E-03 0.  1.
         11   -1    0    0    0    0 -0.00000000000E+00 -0.00000000000E+00 -0.45593999997E+02  0.45594000000E+02  0.51100000000E-03 0. -1.
    9900012    2    1    2    0    0 -0.16643952873E+02  0.22612392524E+02  0.29407901603E+02  0.50528854170E+02  0.29999982735E+02 0.  0.
         12    1    1    2    0    0  0.16643952873E+02 -0.22612392524E+02 -0.29407901603E+02  0.40659145830E+02  0.00000000000E+00 0. -1.
         11    1    3    3    0    0  0.32341243186E+01 -0.49516141267E+01  0.55651751551E+01  0.81209123463E+01  0.51100000000E-03 0. -1.
        -11    1    3    3    0    0 -0.18693260733E+02  0.22761074346E+02  0.23044069478E+02  0.37396973682E+02  0.51100000000E-03 0.  1.
        -12    1    3    3    0    0 -0.11848164591E+01  0.48029323043E+01  0.79865697045E+00  0.50109681417E+01  0.00000000000E+00 0.  1.
</event>
<event>
 7    1  0.5849044E-013  0.5052886E+02  0.7816164E-02  0.1300439E+00
        -11   -1    0    0    0    0  0.00000000000E+00  0.00000000000E+00  0.45593999997E+02  0.45594000000E+02  0.51100000000E-03 0.  1.
         11   -1    0    0    0    0 -0.00000000000E+00 -0.00000000000E+00 -0.45593999997E+02  0.45594000000E+02  0.51100000000E-03 0. -1.
    9900012    2    1    2    0    0  0.17804006097E+02 -0.22043142645E+02  0.29159613665E+02  0.50528857856E+02  0.29999993940E+02 0.  0.
         12    1    1    2    0    0 -0.17804006097E+02  0.22043142645E+02 -0.29159613665E+02  0.40659142144E+02  0.00000000000E+00 0. -1.
         11    1    3    3    0    0 -0.44758457005E+01 -0.83904199566E+01  0.18574970820E+02  0.20867723475E+02  0.51100000000E-03 0. -1.
        -11    1    3    3    0    0  0.12534207292E+02 -0.11054999470E+02  0.28573313628E+01  0.16955344541E+02  0.51100000000E-03 0.  1.
         12    1    3    3    0    0  0.97456445049E+01 -0.25977232188E+01  0.77273114818E+01  0.12705789841E+02  0.00000000000E+00 0. -1.
</event>
<event>
 7    1  0.5849044E-013  0.5052886E+02  0.7816164E-02  0.1300439E+00
        -11   -1    0    0    0    0  0.00000000000E+00  0.00000000000E+00  0.45593999997E+02  0.45594000000E+02  0.51100000000E-03 0.  1.
         11   -1    0    0    0    0 -0.00000000000E+00 -0.00000000000E+00 -0.45593999997E+02  0.45594000000E+02  0.51100000000E-03 0. -1.
    9900012    2    1    2    0    0 -0.25957673730E+02 -0.98239959149E+01  0.29712857468E+02  0.50528860558E+02  0.30000002153E+02 0.  0.
         12    1    1    2    0    0  0.25957673730E+02  0.98239959149E+01 -0.29712857468E+02  0.40659139442E+02  0.00000000000E+00 0. -1.
         11    1    3    3    0    0 -0.47656087489E+01  0.24014834199E+01  0.11311802007E+02  0.12507398381E+02  0.51100000000E-03 0. -1.
        -11    1    3    3    0    0  0.13710786749E+01 -0.75274818375E+01 -0.12267835761E+01  0.77490539907E+01  0.51100000000E-03 0.  1.
        -12    1    3    3    0    0 -0.22563143656E+02 -0.46979974973E+01  0.19627839037E+02  0.30272408187E+02  0.00000000000E+00 0.  1.
</event>
<event>
 7    1  0.5849044E-013  0.5052886E+02  0.7816164E-02  0.1300439E+00
        -11   -1    0    0    0    0  0.00000000000E+00  0.00000000000E+00  0.45593999997E+02  0.45594000000E+02  0.51100000000E-03 0.  1.
         11   -1    0    0    0    0 -0.00000000000E+00 -0.00000000000E+00 -0.45593999997E+02  0.45594000000E+02  0.51100000000E-03 0. -1.
    9900012    2    1    2    0    0 -0.38060060108E+02  0.19465162524E+01  0.14170691932E+02  0.50528860673E+02  0.30000002503E+02 0.  0.
         12    1    1    2    0    0  0.38060060108E+02 -0.19465162524E+01 -0.14170691932E+02  0.40659139327E+02  0.00000000000E+00 0. -1.
         11    1    3    3    0    0 -0.10479867519E+01  0.14662101187E+01 -0.46388992543E+01  0.49766891501E+01  0.51100000000E-03 0. -1.
        -11    1    3    3    0    0 -0.33364701883E+02  0.25901833005E+01  0.86670874107E+01  0.34569217314E+02  0.51100000000E-03 0.  1.
         12    1    3    3    0    0 -0.36473714731E+01 -0.21098771668E+01  0.10142503775E+02  0.10982954209E+02  0.00000000000E+00 0. -1.
</event>
<event>
 7    1  0.5849044E-013  0.5052891E+02  0.7816164E-02  0.1300439E+00
        -11   -1    0    0    0    0  0.00000000000E+00  0.00000000000E+00  0.45593999997E+02  0.45594000000E+02  0.51100000000E-03 0. -1.
         11   -1    0    0    0    0 -0.00000000000E+00 -0.00000000000E+00 -0.45593999997E+02  0.45594000000E+02  0.51100000000E-03 0.  1.
    9900012    2    1    2    0    0  0.13857977234E+02  0.94065407086E+01 -0.37049091157E+02  0.50528908806E+02  0.30000148807E+02 0.  0.
         12    1    1    2    0    0 -0.13857977234E+02 -0.94065407086E+01  0.37049091157E+02  0.40659091194E+02  0.00000000000E+00 0. -1.
         11    1    3    3    0    0  0.20382575038E+02  0.76290882515E+01 -0.16801784114E+02  0.27494586784E+02  0.51100000000E-03 0. -1.
        -11    1    3    3    0    0 -0.24605082297E+01  0.90853479302E-01 -0.17858711601E+02  0.18027643645E+02  0.51100000000E-03 0.  1.
         12    1    3    3    0    0 -0.40640895748E+01  0.16865989778E+01 -0.23885954425E+01  0.50066783771E+01  0.00000000000E+00 0. -1.
</event>
<event>
 7    1  0.5849044E-013  0.5052886E+02  0.7816164E-02  0.1300439E+00
        -11   -1    0    0    0    0  0.00000000000E+00  0.00000000000E+00  0.45593999997E+02  0.45594000000E+02  0.51100000000E-03 0.  1.
         11   -1    0    0    0    0 -0.00000000000E+00 -0.00000000000E+00 -0.45593999997E+02  0.45594000000E+02  0.51100000000E-03 0. -1.
    9900012    2    1    2    0    0 -0.12823576105E+02  0.37724190713E+02 -0.80998201065E+01  0.50528858902E+02  0.29999997119E+02 0.  0.
         12    1    1    2    0    0  0.12823576105E+02 -0.37724190713E+02  0.80998201065E+01  0.40659141098E+02  0.00000000000E+00 0. -1.
         11    1    3    3    0    0 -0.52678101245E+01 -0.37726263042E+01  0.22238481917E+01  0.68504039136E+01  0.51100000000E-03 0. -1.
        -11    1    3    3    0    0 -0.44560241719E+01  0.33350827499E+02 -0.92586868333E+01  0.34897809794E+02  0.51100000000E-03 0.  1.
         12    1    3    3    0    0 -0.30997418088E+01  0.81459895178E+01 -0.10649814649E+01  0.87806451942E+01  0.00000000000E+00 0. -1.
</event>
<event>
 7    1  0.5849044E-013  0.5052887E+02  0.7816164E-02  0.1300439E+00
        -11   -1    0    0    0    0  0.00000000000E+00  0.00000000000E+00  0.45593999997E+02  0.45594000000E+02  0.51100000000E-03 0. -1.
         11   -1    0    0    0    0 -0.00000000000E+00 -0.00000000000E+00 -0.45593999997E+02  0.45594000000E+02  0.51100000000E-03 0.  1.
    9900012    2    1    2    0    0 -0.30510476895E+02  0.23315928991E+02 -0.13365754338E+02  0.50528866535E+02  0.30000020320E+02 0.  0.
         12    1    1    2    0    0  0.30510476895E+02 -0.23315928991E+02  0.13365754338E+02  0.40659133465E+02  0.00000000000E+00 0. -1.
         11    1    3    3    0    0 -0.26140664886E+01  0.16223437004E+02 -0.12229391811E+02  0.20483927264E+02  0.51100000000E-03 0. -1.
        -11    1    3    3    0    0 -0.23553761827E+02  0.49958572649E+01 -0.40423573694E+01  0.24414727919E+02  0.51100000000E-03 0.  1.
        -12    1    3    3    0    0 -0.43426485801E+01  0.20966347216E+01  0.29059948420E+01  0.56302113520E+01  0.00000000000E+00 0.  1.
</event>
<event>
 7    1  0.5849044E-013  0.5052886E+02  0.7816164E-02  0.1300439E+00
        -11   -1    0    0    0    0  0.00000000000E+00  0.00000000000E+00  0.45593999997E+02  0.45594000000E+02  0.51100000000E-03 0.  1.
         11   -1    0    0    0    0 -0.00000000000E+00 -0.00000000000E+00 -0.45593999997E+02  0.45594000000E+02  0.51100000000E-03 0. -1.
    9900012    2    1    2    0    0  0.39077118518E+02  0.10131023983E+02  0.48484062034E+01  0.50528857347E+02  0.29999992391E+02 0.  0.
         12    1    1    2    0    0 -0.39077118518E+02 -0.10131023983E+02 -0.48484062034E+01  0.40659142653E+02  0.00000000000E+00 0. -1.
         11    1    3    3    0    0 -0.43444162161E+01 -0.60346245718E+00  0.21929387488E+01  0.49037842339E+01  0.51100000000E-03 0. -1.
        -11    1    3    3    0    0  0.15646366313E+02  0.64507100775E+01 -0.23271921542E+01  0.17083215824E+02  0.51100000000E-03 0.  1.
         12    1    3    3    0    0  0.27775168421E+02  0.42837763626E+01  0.49826596088E+01  0.28541857289E+02  0.00000000000E+00 0. -1.
</event>
<event>
 7    1  0.5849044E-013  0.5052887E+02  0.7816164E-02  0.1300439E+00
        -11   -1    0    0    0    0  0.00000000000E+00  0.00000000000E+00  0.45593999997E+02  0.45594000000E+02  0.51100000000E-03 0.  1.
         11   -1    0    0    0    0 -0.00000000000E+00 -0.00000000000E+00 -0.45593999997E+02  0.45594000000E+02  0.51100000000E-03 0. -1.
    9900012    2    1    2    0    0  0.19510445893E+02 -0.23339780650E+02  0.26977071245E+02  0.50528865323E+02  0.30000016636E+02 0.  0.
         12    1    1    2    0    0 -0.19510445893E+02  0.23339780650E+02 -0.26977071245E+02  0.40659134677E+02  0.00000000000E+00 0. -1.
         11    1    3    3    0    0 -0.17299472482E+01  0.21717219324E+01  0.33692543320E+01  0.43658869257E+01  0.51100000000E-03 0. -1.
        -11    1    3    3    0    0  0.20466273147E+02 -0.95466217101E+01  0.19042347285E+02  0.29540096699E+02  0.51100000000E-03 0.  1.
        -12    1    3    3    0    0  0.77411999374E+00 -0.15964880872E+02  0.45654696280E+01  0.16622881698E+02  0.00000000000E+00 0.  1.
</event>
<event>
 7    1  0.5849044E-013  0.5052886E+02  0.7816164E-02  0.1300439E+00
        -11   -1    0    0    0    0  0.00000000000E+00  0.00000000000E+00  0.45593999997E+02  0.45594000000E+02  0.51100000000E-03 0.  1.
         11   -1    0    0    0    0 -0.00000000000E+00 -0.00000000000E+00 -0.45593999997E+02  0.45594000000E+02  0.51100000000E-03 0. -1.
    9900012    2    1    2    0    0  0.25696404910E+01  0.37782350711E+02  0.14800565673E+02  0.50528858079E+02  0.29999994616E+02 0.  0.
         12    1    1    2    0    0 -0.25696404910E+01 -0.37782350711E+02 -0.14800565673E+02  0.40659141921E+02  0.00000000000E+00 0. -1.
         11    1    3    3    0    0  0.67512692278E+01  0.45727394207E+01  0.77529341384E+01  0.11251558559E+02  0.51100000000E-03 0. -1.
        -11    1    3    3    0    0 -0.10775832815E+01  0.21810066025E+02 -0.50016656838E+01  0.22402161181E+02  0.51100000000E-03 0.  1.
         12    1    3    3    0    0 -0.31040454552E+01  0.11399545266E+02  0.12049297219E+02  0.16875138338E+02  0.00000000000E+00 0. -1.
</event>
<event>
 7    1  0.5849044E-013  0.5052885E+02  0.7816164E-02  0.1300439E+00
        -11   -1    0    0    0    0  0.00000000000E+00  0.00000000000E+00  0.45593999997E+02  0.45594000000E+02  0.51100000000E-03 0.  1.
         11   -1    0    0    0    0 -0.00000000000E+00 -0.00000000000E+00 -0.45593999997E+02  0.45594000000E+02  0.51100000000E-03 0. -1.
    9900012    2    1    2    0    0 -0.21070263053E+02 -0.92671911521E+01  0.33516109136E+02  0.50528851109E+02  0.29999973430E+02 0.  0.
         12    1    1    2    0    0  0.21070263053E+02  0.92671911521E+01 -0.33516109136E+02  0.40659148891E+02  0.00000000000E+00 0. -1.
         11    1    3    3    0    0  0.15295625459E+01 -0.20817869045E+01 -0.34783299634E+01  0.43326871446E+01  0.51100000000E-03 0. -1.
        -11    1    3    3    0    0 -0.12863024568E+02  0.24067822089E+01  0.24005575666E+02  0.27340769282E+02  0.51100000000E-03 0.  1.
        -12    1    3    3    0    0 -0.97368010309E+01 -0.95921864565E+01  0.12988863434E+02  0.18855394682E+02  0.00000000000E+00 0.  1.
</event>
<event>
 7    1  0.5849044E-013  0.5052886E+02  0.7816164E-02  0.1300439E+00
        -11   -1    0    0    0    0  0.00000000000E+00  0.00000000000E+00  0.45593999997E+02  0.45594000000E+02  0.51100000000E-03 0.  1.
         11   -1    0    0    0    0 -0.00000000000E+00 -0.00000000000E+00 -0.45593999997E+02  0.45594000000E+02  0.51100000000E-03 0. -1.
    9900012    2    1    2    0    0  0.35687785884E+02  0.14320130775E+02  0.13209130662E+02  0.50528864009E+02  0.30000012642E+02 0.  0.
         12    1    1    2    0    0 -0.35687785884E+02 -0.14320130775E+02 -0.13209130662E+02  0.40659135991E+02  0.00000000000E+00 0. -1.
         11    1    3    3    0    0  0.17643841201E+02  0.13198670089E+02  0.74648922228E+01  0.23264450147E+02  0.51100000000E-03 0. -1.
        -11    1    3    3    0    0  0.17728586541E+02 -0.65165176538E+01  0.52481498806E+01  0.19603848104E+02  0.51100000000E-03 0.  1.
         12    1    3    3    0    0  0.31535814121E+00  0.76379783397E+01  0.49608855818E+00  0.76605657580E+01  0.00000000000E+00 0. -1.
</event>
<event>
 7    1  0.5849044E-013  0.5052886E+02  0.7816164E-02  0.1300439E+00
        -11   -1    0    0    0    0  0.00000000000E+00  0.00000000000E+00  0.45593999997E+02  0.45594000000E+02  0.51100000000E-03 0.  1.
         11   -1    0    0    0    0 -0.00000000000E+00 -0.00000000000E+00 -0.45593999997E+02  0.45594000000E+02  0.51100000000E-03 0. -1.
    9900012    2    1    2    0    0  0.96436829245E+01  0.54714427715E+01  0.39118130379E+02  0.50528862887E+02  0.30000009233E+02 0.  0.
         12    1    1    2    0    0 -0.96436829245E+01 -0.54714427715E+01 -0.39118130379E+02  0.40659137113E+02  0.00000000000E+00 0. -1.
         11    1    3    3    0    0 -0.30784482183E+01  0.26910034198E+01 -0.33615789349E+01  0.52932557122E+01  0.51100000000E-03 0. -1.
        -11    1    3    3    0    0  0.11774278953E+02 -0.84024601537E+00  0.32044896368E+02  0.34149890801E+02  0.51100000000E-03 0.  1.
         12    1    3    3    0    0  0.94785218959E+00  0.36206853670E+01  0.10434812947E+02  0.11085716374E+02  0.00000000000E+00 0. -1.
</event>
<event>
 7    1  0.5849044E-013  0.5052886E+02  0.7816164E-02  0.1300439E+00
        -11   -1    0    0    0    0  0.00000000000E+00  0.00000000000E+00  0.45593999997E+02  0.45594000000E+02  0.51100000000E-03 0. -1.
         11   -1    0    0    0    0 -0.00000000000E+00 -0.00000000000E+00 -0.45593999997E+02  0.45594000000E+02  0.51100000000E-03 0.  1.
    9900012    2    1    2    0    0 -0.11033701717E+02 -0.16015454030E+02 -0.35706138965E+02  0.50528859562E+02  0.29999999124E+02 0.  0.
         12    1    1    2    0    0  0.11033701717E+02  0.16015454030E+02  0.35706138965E+02  0.40659140438E+02  0.00000000000E+00 0. -1.
         11    1    3    3    0    0  0.40475332415E+01  0.38739890200E+01  0.23299148277E+00  0.56075486231E+01  0.51100000000E-03 0. -1.
        -11    1    3    3    0    0 -0.78284718222E+01 -0.11142594078E+02 -0.27762555768E+02  0.30922514078E+02  0.51100000000E-03 0.  1.
         12    1    3    3    0    0 -0.72527631365E+01 -0.87468489724E+01 -0.81765746798E+01  0.13998796861E+02  0.00000000000E+00 0. -1.
</event>
<event>
 7    1  0.5849044E-013  0.5052886E+02  0.7816164E-02  0.1300439E+00
        -11   -1    0    0    0    0  0.00000000000E+00  0.00000000000E+00  0.45593999997E+02  0.45594000000E+02  0.51100000000E-03 0.  1.
         11   -1    0    0    0    0 -0.00000000000E+00 -0.00000000000E+00 -0.45593999997E+02  0.45594000000E+02  0.51100000000E-03 0. -1.
    9900012    2    1    2    0    0  0.10069217927E+01 -0.15830090462E+02  0.37437418818E+02  0.50528856092E+02  0.29999988578E+02 0.  0.
         12    1    1    2    0    0 -0.10069217927E+01  0.15830090462E+02 -0.37437418818E+02  0.40659143908E+02  0.00000000000E+00 0. -1.
         11    1    3    3    0    0  0.13404249736E+01  0.28256815601E+01  0.90066540955E+00  0.32545988739E+01  0.51100000000E-03 0. -1.
        -11    1    3    3    0    0 -0.98222316827E+01 -0.17269028715E+02  0.28616927617E+02  0.34837108584E+02  0.51100000000E-03 0.  1.
        -12    1    3    3    0    0  0.94887285018E+01 -0.13867433070E+01  0.79198257921E+01  0.12437148635E+02  0.00000000000E+00 0.  1.
</event>
<event>
 7    1  0.5849044E-013  0.5052887E+02  0.7816164E-02  0.1300439E+00
        -11   -1    0    0    0    0  0.00000000000E+00  0.00000000000E+00  0.45593999997E+02  0.45594000000E+02  0.51100000000E-03 0.  1.
         11   -1    0    0    0    0 -0.00000000000E+00 -0.00000000000E+00 -0.45593999997E+02  0.45594000000E+02  0.51100000000E-03 0. -1.
    9900012    2    1    2    0    0  0.14754711583E+02  0.13973048672E+02  0.35216723425E+02  0.50528865579E+02  0.30000017413E+02 0.  0.
         12    1    1    2    0    0 -0.14754711583E+02 -0.13973048672E+02 -0.35216723425E+02  0.40659134421E+02  0.00000000000E+00 0. -1.
         11    1    3    3    0    0  0.60352001672E+01 -0.33763988482E+01  0.18156478948E+02  0.19428881550E+02  0.51100000000E-03 0. -1.
        -11    1    3    3    0    0  0.12937877911E+01  0.17562762160E+02  0.78866973943E+01  0.19295711896E+02  0.51100000000E-03 0.  1.
        -12    1    3    3    0    0  0.74257236249E+01 -0.21331463952E+00  0.91735470823E+01  0.11804272132E+02  0.00000000000E+00 0.  1.
</event>
<event>
 7    1  0.5849044E-013  0.5052886E+02  0.7816164E-02  0.1300439E+00
        -11   -1    0    0    0    0  0.00000000000E+00  0.00000000000E+00  0.45593999997E+02  0.45594000000E+02  0.51100000000E-03 0.  1.
         11   -1    0    0    0    0 -0.00000000000E+00 -0.00000000000E+00 -0.45593999997E+02  0.45594000000E+02  0.51100000000E-03 0. -1.
    9900012    2    1    2    0    0  0.29751973543E+02 -0.13327623530E+01  0.27680494521E+02  0.50528856353E+02  0.29999989371E+02 0.  0.
         12    1    1    2    0    0 -0.29751973543E+02  0.13327623530E+01 -0.27680494521E+02  0.40659143647E+02  0.00000000000E+00 0. -1.
         11    1    3    3    0    0  0.29827716262E+01  0.21923363323E+01 -0.83306025319E+00  0.37943714650E+01  0.51100000000E-03 0. -1.
        -11    1    3    3    0    0  0.29052564498E+02 -0.89459791212E+01  0.27006295248E+02  0.40662292479E+02  0.51100000000E-03 0.  1.
        -12    1    3    3    0    0 -0.22833625810E+01  0.54208804360E+01  0.15072595261E+01  0.60721924094E+01  0.00000000000E+00 0.  1.
</event>
<event>
 7    1  0.5849044E-013  0.5052886E+02  0.7816164E-02  0.1300439E+00
        -11   -1    0    0    0    0  0.00000000000E+00  0.00000000000E+00  0.45593999997E+02  0.45594000000E+02  0.51100000000E-03 0.  1.
         11   -1    0    0    0    0 -0.00000000000E+00 -0.00000000000E+00 -0.45593999997E+02  0.45594000000E+02  0.51100000000E-03 0. -1.
    9900012    2    1    2    0    0  0.26249991171E+02 -0.16560651119E+02  0.26264960716E+02  0.50528863716E+02  0.30000011751E+02 0.  0.
         12    1    1    2    0    0 -0.26249991171E+02  0.16560651119E+02 -0.26264960716E+02  0.40659136284E+02  0.00000000000E+00 0. -1.
         11    1    3    3    0    0  0.51808013090E+01 -0.45195040374E+01 -0.27718509092E+01  0.74128116576E+01  0.51100000000E-03 0. -1.
        -11    1    3    3    0    0  0.89428917934E+01 -0.15206384103E+00  0.23673841116E+02  0.25307097630E+02  0.51100000000E-03 0.  1.
        -12    1    3    3    0    0  0.12126298069E+02 -0.11889083240E+02  0.53629705095E+01  0.17808954428E+02  0.00000000000E+00 0.  1.
</event>
<event>
 7    1  0.5849044E-013  0.5052886E+02  0.7816164E-02  0.1300439E+00
        -11   -1    0    0    0    0  0.00000000000E+00  0.00000000000E+00  0.45593999997E+02  0.45594000000E+02  0.51100000000E-03 0.  1.
         11   -1    0    0    0    0 -0.00000000000E+00 -0.00000000000E+00 -0.45593999997E+02  0.45594000000E+02  0.51100000000E-03 0. -1.
    9900012    2    1    2    0    0  0.20688650876E+02  0.29896251849E+02  0.18203273423E+02  0.50528864335E+02  0.30000013633E+02 0.  0.
         12    1    1    2    0    0 -0.20688650876E+02 -0.29896251849E+02 -0.18203273423E+02  0.40659135665E+02  0.00000000000E+00 0. -1.
         11    1    3    3    0    0 -0.67785140527E+00  0.81831272182E+01  0.20854711078E+01  0.84718500695E+01  0.51100000000E-03 0. -1.
        -11    1    3    3    0    0  0.91891448759E+01  0.10775838346E+02  0.20680668323E+02  0.25064898127E+02  0.51100000000E-03 0.  1.
        -12    1    3    3    0    0  0.12177357405E+02  0.10937286285E+02 -0.45628660070E+01  0.16992116138E+02  0.00000000000E+00 0.  1.
</event>
<event>
 7    1  0.5849044E-013  0.5052886E+02  0.7816164E-02  0.1300439E+00
        -11   -1    0    0    0    0  0.00000000000E+00  0.00000000000E+00  0.45593999997E+02  0.45594000000E+02  0.51100000000E-03 0. -1.
         11   -1    0    0    0    0 -0.00000000000E+00 -0.00000000000E+00 -0.45593999997E+02  0.45594000000E+02  0.51100000000E-03 0.  1.
    9900012    2    1    2    0    0  0.15521820884E+02  0.83711289694E+01 -0.36635546829E+02  0.50528855700E+02  0.29999987385E+02 0.  0.
         12    1    1    2    0    0 -0.15521820884E+02 -0.83711289694E+01  0.36635546829E+02  0.40659144300E+02  0.00000000000E+00 0. -1.
         11    1    3    3    0    0  0.43795189511E+01  0.41179135423E+01 -0.33349235808E+02  0.33886707238E+02  0.51100000000E-03 0. -1.
        -11    1    3    3    0    0  0.73752334946E+01 -0.31353495175E+01 -0.13720519108E+01  0.81306218953E+01  0.51100000000E-03 0.  1.
         12    1    3    3    0    0  0.37670684378E+01  0.73885649446E+01 -0.19142591104E+01  0.85115265668E+01  0.00000000000E+00 0. -1.
</event>
<event>
 7    1  0.5849044E-013  0.5052892E+02  0.7816164E-02  0.1300439E+00
        -11   -1    0    0    0    0  0.00000000000E+00  0.00000000000E+00  0.45593999997E+02  0.45594000000E+02  0.51100000000E-03 0.  1.
         11   -1    0    0    0    0 -0.00000000000E+00 -0.00000000000E+00 -0.45593999997E+02  0.45594000000E+02  0.51100000000E-03 0. -1.
    9900012    2    1    2    0    0  0.15124264582E+02 -0.12333000707E+02  0.35669516785E+02  0.50528920900E+02  0.30000185569E+02 0.  0.
         12    1    1    2    0    0 -0.15124264582E+02  0.12333000707E+02 -0.35669516785E+02  0.40659079100E+02  0.00000000000E+00 0. -1.
         11    1    3    3    0    0  0.69969294856E+01  0.80141298448E+01  0.33312278175E+01  0.11148110980E+02  0.51100000000E-03 0. -1.
        -11    1    3    3    0    0  0.75487090838E+01 -0.13995606694E+02  0.25304031925E+02  0.29885682985E+02  0.51100000000E-03 0.  1.
         12    1    3    3    0    0  0.57862601217E+00 -0.63515238581E+01  0.70342570424E+01  0.94951269354E+01  0.00000000000E+00 0. -1.
</event>
<event>
 7    1  0.5849044E-013  0.5052886E+02  0.7816164E-02  0.1300439E+00
        -11   -1    0    0    0    0  0.00000000000E+00  0.00000000000E+00  0.45593999997E+02  0.45594000000E+02  0.51100000000E-03 0.  1.
         11   -1    0    0    0    0 -0.00000000000E+00 -0.00000000000E+00 -0.45593999997E+02  0.45594000000E+02  0.51100000000E-03 0. -1.
    9900012    2    1    2    0    0  0.12740588122E+02  0.37428867500E+02 -0.94827886730E+01  0.50528856022E+02  0.29999988364E+02 0.  0.
         12    1    1    2    0    0 -0.12740588122E+02 -0.37428867500E+02  0.94827886730E+01  0.40659143978E+02  0.00000000000E+00 0. -1.
         11    1    3    3    0    0  0.18902498863E+02  0.16565150001E+02 -0.11453009029E+02  0.27620283740E+02  0.51100000000E-03 0. -1.
        -11    1    3    3    0    0 -0.60718837971E+01  0.15795049533E+02  0.40973729043E+01  0.17410911164E+02  0.51100000000E-03 0.  1.
         12    1    3    3    0    0 -0.90026943368E-01  0.50686679661E+01 -0.21271525480E+01  0.54976611175E+01  0.00000000000E+00 0. -1.
</event>
<event>
 7    1  0.5849044E-013  0.5052886E+02  0.7816164E-02  0.1300439E+00
        -11   -1    0    0    0    0  0.00000000000E+00  0.00000000000E+00  0.45593999997E+02  0.45594000000E+02  0.51100000000E-03 0.  1.
         11   -1    0    0    0    0 -0.00000000000E+00 -0.00000000000E+00 -0.45593999997E+02  0.45594000000E+02  0.51100000000E-03 0. -1.
    9900012    2    1    2    0    0 -0.82644729685E+01 -0.40633592110E+01  0.39602438524E+02  0.50528861561E+02  0.30000005200E+02 0.  0.
         12    1    1    2    0    0  0.82644729685E+01  0.40633592110E+01 -0.39602438524E+02  0.40659138439E+02  0.00000000000E+00 0. -1.
         11    1    3    3    0    0 -0.80295931927E+01 -0.60386723921E+01  0.72018832572E+01  0.12361515029E+02  0.51100000000E-03 0. -1.
        -11    1    3    3    0    0 -0.49813724977E+01  0.42179632333E+01  0.32262213715E+02  0.32915888563E+02  0.51100000000E-03 0.  1.
        -12    1    3    3    0    0  0.47464927219E+01 -0.22426500523E+01  0.13834155184E+00  0.52514579691E+01  0.00000000000E+00 0.  1.
</event>
<event>
 7    1  0.5849044E-013  0.5052886E+02  0.7816164E-02  0.1300439E+00
        -11   -1    0    0    0    0  0.00000000000E+00  0.00000000000E+00  0.45593999997E+02  0.45594000000E+02  0.51100000000E-03 0. -1.
         11   -1    0    0    0    0 -0.00000000000E+00 -0.00000000000E+00 -0.45593999997E+02  0.45594000000E+02  0.51100000000E-03 0.  1.
    9900012    2    1    2    0    0 -0.35413604754E+02 -0.16127332144E+02 -0.11787760001E+02  0.50528861672E+02  0.30000005537E+02 0.  0.
         12    1    1    2    0    0  0.35413604754E+02  0.16127332144E+02  0.11787760001E+02  0.40659138328E+02  0.00000000000E+00 0. -1.
         11    1    3    3    0    0 -0.34685055450E+02 -0.14437443884E+02 -0.53681840780E+01  0.37951419710E+02  0.51100000000E-03 0.  1.
        -11    1    3    3    0    0  0.43152348199E+01 -0.24509624930E+01 -0.86758551423E+00  0.50379731617E+01  0.51100000000E-03 0. -1.
        -12    1    3    3    0    0 -0.50437841239E+01  0.76107423293E+00 -0.55519904089E+01  0.75394687994E+01  0.00000000000E+00 0.  1.
</event>
<event>
 7    1  0.5849044E-013  0.5052892E+02  0.7816164E-02  0.1300439E+00
        -11   -1    0    0    0    0  0.00000000000E+00  0.00000000000E+00  0.45593999997E+02  0.45594000000E+02  0.51100000000E-03 0.  1.
         11   -1    0    0    0    0 -0.00000000000E+00 -0.00000000000E+00 -0.45593999997E+02  0.45594000000E+02  0.51100000000E-03 0. -1.
    9900012    2    1    2    0    0  0.16581521526E+02  0.30552631686E+02  0.21089102622E+02  0.50528924648E+02  0.30000196960E+02 0.  0.
         12    1    1    2    0    0 -0.16581521526E+02 -0.30552631686E+02 -0.21089102622E+02  0.40659075352E+02  0.00000000000E+00 0. -1.
         11    1    3    3    0    0  0.76587686097E+01  0.39798484814E+01  0.15320715503E+02  0.17584659631E+02  0.51100000000E-03 0. -1.
        -11    1    3    3    0    0  0.12138879519E+02  0.26215972855E+02  0.37545087998E+01  0.29132901766E+02  0.51100000000E-03 0.  1.
         12    1    3    3    0    0 -0.32161266025E+01  0.35681034951E+00  0.20138783198E+01  0.38113632517E+01  0.00000000000E+00 0. -1.
</event>
<event>
 7    1  0.5849044E-013  0.5052887E+02  0.7816164E-02  0.1300439E+00
        -11   -1    0    0    0    0  0.00000000000E+00  0.00000000000E+00  0.45593999997E+02  0.45594000000E+02  0.51100000000E-03 0. -1.
         11   -1    0    0    0    0 -0.00000000000E+00 -0.00000000000E+00 -0.45593999997E+02  0.45594000000E+02  0.51100000000E-03 0.  1.
    9900012    2    1    2    0    0 -0.12712023702E+02  0.75474399826E+01 -0.37876186811E+02  0.50528869116E+02  0.30000028166E+02 0.  0.
         12    1    1    2    0    0  0.12712023702E+02 -0.75474399826E+01  0.37876186811E+02  0.40659130884E+02  0.00000000000E+00 0. -1.
         11    1    3    3    0    0  0.86246187389E+00 -0.45662001155E+01 -0.24521883591E+02  0.24958301206E+02  0.51100000000E-03 0. -1.
        -11    1    3    3    0    0 -0.59367257931E+01  0.51155859694E+01  0.96631907991E+00  0.78960563433E+01  0.51100000000E-03 0.  1.
        -12    1    3    3    0    0 -0.76377597829E+01  0.69980541288E+01 -0.14320622299E+02  0.17674511567E+02  0.00000000000E+00 0.  1.
</event>
<event>
 7    1  0.5849044E-013  0.5052886E+02  0.7816164E-02  0.1300439E+00
        -11   -1    0    0    0    0  0.00000000000E+00  0.00000000000E+00  0.45593999997E+02  0.45594000000E+02  0.51100000000E-03 0. -1.
         11   -1    0    0    0    0 -0.00000000000E+00 -0.00000000000E+00 -0.45593999997E+02  0.45594000000E+02  0.51100000000E-03 0.  1.
    9900012    2    1    2    0    0  0.24511051202E+02  0.35295674713E+01  0.32247732278E+02  0.50528859396E+02  0.29999998621E+02 0.  0.
         12    1    1    2    0    0 -0.24511051202E+02 -0.35295674713E+01 -0.32247732278E+02  0.40659140604E+02  0.00000000000E+00 0. -1.
         11    1    3    3    0    0 -0.75199447568E+00  0.70178324813E+01 -0.14775506134E+01  0.72110071767E+01  0.51100000000E-03 0. -1.
        -11    1    3    3    0    0  0.20756634199E+02 -0.65074441895E+01  0.27413108982E+02  0.34995188776E+02  0.51100000000E-03 0.  1.
         12    1    3    3    0    0  0.45064114788E+01  0.30191791796E+01  0.63121739086E+01  0.83226634431E+01  0.00000000000E+00 0. -1.
</event>
<event>
 7    1  0.5849044E-013  0.5052889E+02  0.7816164E-02  0.1300439E+00
        -11   -1    0    0    0    0  0.00000000000E+00  0.00000000000E+00  0.45593999997E+02  0.45594000000E+02  0.51100000000E-03 0.  1.
         11   -1    0    0    0    0 -0.00000000000E+00 -0.00000000000E+00 -0.45593999997E+02  0.45594000000E+02  0.51100000000E-03 0. -1.
    9900012    2    1    2    0    0 -0.34158673658E+02  0.22052707512E+02  0.16310977383E+00  0.50528886636E+02  0.30000081419E+02 0.  0.
         12    1    1    2    0    0  0.34158673658E+02 -0.22052707512E+02 -0.16310977383E+00  0.40659113364E+02  0.00000000000E+00 0. -1.
         11    1    3    3    0    0 -0.93641160470E+01 -0.58429543987E+01 -0.17791135943E+01  0.11179983492E+02  0.51100000000E-03 0. -1.
        -11    1    3    3    0    0  0.49429841632E-01  0.56525764106E+01  0.20188148545E+01  0.60024725793E+01  0.51100000000E-03 0.  1.
         12    1    3    3    0    0 -0.24843987453E+02  0.22243085500E+02 -0.76591486421E-01  0.33346430565E+02  0.00000000000E+00 0. -1.
</event>
<event>
 7    1  0.5849044E-013  0.5052887E+02  0.7816164E-02  0.1300439E+00
        -11   -1    0    0    0    0  0.00000000000E+00  0.00000000000E+00  0.45593999997E+02  0.45594000000E+02  0.51100000000E-03 0. -1.
         11   -1    0    0    0    0 -0.00000000000E+00 -0.00000000000E+00 -0.45593999997E+02  0.45594000000E+02  0.51100000000E-03 0.  1.
    9900012    2    1    2    0    0 -0.18144722006E+02  0.32764540191E+02 -0.15824637318E+02  0.50528866009E+02  0.30000018722E+02 0.  0.
         12    1    1    2    0    0  0.18144722006E+02 -0.32764540191E+02  0.15824637318E+02  0.40659133991E+02  0.00000000000E+00 0. -1.
         11    1    3    3    0    0 -0.12508725300E+02  0.25924051070E+02 -0.29322109665E+00  0.28785597291E+02  0.51100000000E-03 0. -1.
        -11    1    3    3    0    0 -0.85988354145E+01  0.78273050312E+01 -0.14186972828E+02  0.18343305941E+02  0.51100000000E-03 0.  1.
        -12    1    3    3    0    0  0.29628387082E+01 -0.98681591075E+00 -0.13444433929E+01  0.33999627777E+01  0.00000000000E+00 0.  1.
</event>
<event>
 7    1  0.5849044E-013  0.5052886E+02  0.7816164E-02  0.1300439E+00
        -11   -1    0    0    0    0  0.00000000000E+00  0.00000000000E+00  0.45593999997E+02  0.45594000000E+02  0.51100000000E-03 0.  1.
         11   -1    0    0    0    0 -0.00000000000E+00 -0.00000000000E+00 -0.45593999997E+02  0.45594000000E+02  0.51100000000E-03 0. -1.
    9900012    2    1    2    0    0 -0.27660144297E+02  0.27823538928E+02  0.10673932526E+02  0.50528859127E+02  0.29999997802E+02 0.  0.
         12    1    1    2    0    0  0.27660144297E+02 -0.27823538928E+02 -0.10673932526E+02  0.40659140873E+02  0.00000000000E+00 0. -1.
         11    1    3    3    0    0 -0.73336822631E+01  0.23316065003E+02  0.12921874696E+02  0.27647723752E+02  0.51100000000E-03 0. -1.
        -11    1    3    3    0    0 -0.11293685209E+02 -0.15091153402E+01  0.12877454660E+01  0.11466605572E+02  0.51100000000E-03 0.  1.
        -12    1    3    3    0    0 -0.90327768247E+01  0.60165892649E+01 -0.35356876356E+01  0.11414529802E+02  0.00000000000E+00 0.  1.
</event>
<event>
 7    1  0.5849044E-013  0.5052886E+02  0.7816164E-02  0.1300439E+00
        -11   -1    0    0    0    0  0.00000000000E+00  0.00000000000E+00  0.45593999997E+02  0.45594000000E+02  0.51100000000E-03 0.  1.
         11   -1    0    0    0    0 -0.00000000000E+00 -0.00000000000E+00 -0.45593999997E+02  0.45594000000E+02  0.51100000000E-03 0. -1.
    9900012    2    1    2    0    0 -0.16594750236E+02  0.32606610521E+02  0.17736647154E+02  0.50528862806E+02  0.30000008987E+02 0.  0.
         12    1    1    2    0    0  0.16594750236E+02 -0.32606610521E+02 -0.17736647154E+02  0.40659137194E+02  0.00000000000E+00 0. -1.
         11    1    3    3    0    0  0.29507211941E+01  0.80962178971E+01 -0.44875180979E+01  0.97156224064E+01  0.51100000000E-03 0. -1.
        -11    1    3    3    0    0 -0.16081479920E+02  0.10222678640E+02  0.91477660048E+01  0.21137615243E+02  0.51100000000E-03 0.  1.
         12    1    3    3    0    0 -0.34639915100E+01  0.14287713984E+02  0.13076399247E+02  0.19675625158E+02  0.00000000000E+00 0. -1.
</event>
<event>
 7    1  0.5849044E-013  0.5052886E+02  0.7816164E-02  0.1300439E+00
        -11   -1    0    0    0    0  0.00000000000E+00  0.00000000000E+00  0.45593999997E+02  0.45594000000E+02  0.51100000000E-03 0.  1.
         11   -1    0    0    0    0 -0.00000000000E+00 -0.00000000000E+00 -0.45593999997E+02  0.45594000000E+02  0.51100000000E-03 0. -1.
    9900012    2    1    2    0    0 -0.34624988341E+02 -0.17490386812E+02  0.12180408769E+02  0.50528858270E+02  0.29999995198E+02 0.  0.
         12    1    1    2    0    0  0.34624988341E+02  0.17490386812E+02 -0.12180408769E+02  0.40659141730E+02  0.00000000000E+00 0. -1.
         11    1    3    3    0    0 -0.40380554321E+00 -0.96913497746E+01  0.36430244827E+01  0.10361319753E+02  0.51100000000E-03 0. -1.
        -11    1    3    3    0    0 -0.34590210367E+02 -0.55095754683E+01  0.11069661099E+02  0.36733846411E+02  0.51100000000E-03 0.  1.
        -12    1    3    3    0    0  0.36902756896E+00 -0.22894615692E+01 -0.25322768132E+01  0.34336921065E+01  0.00000000000E+00 0.  1.
</event>
<event>
 7    1  0.5849044E-013  0.5052888E+02  0.7816164E-02  0.1300439E+00
        -11   -1    0    0    0    0  0.00000000000E+00  0.00000000000E+00  0.45593999997E+02  0.45594000000E+02  0.51100000000E-03 0.  1.
         11   -1    0    0    0    0 -0.00000000000E+00 -0.00000000000E+00 -0.45593999997E+02  0.45594000000E+02  0.51100000000E-03 0. -1.
    9900012    2    1    2    0    0  0.31367415671E+02  0.25335829802E+02  0.52292616995E+01  0.50528877831E+02  0.30000054655E+02 0.  0.
         12    1    1    2    0    0 -0.31367415671E+02 -0.25335829802E+02 -0.52292616995E+01  0.40659122169E+02  0.00000000000E+00 0. -1.
         11    1    3    3    0    0  0.14346763706E+02  0.10090915413E+01  0.11707750312E+02  0.18545061666E+02  0.51100000000E-03 0. -1.
        -11    1    3    3    0    0  0.64794729555E+01  0.69416070590E+01  0.24064633510E+01  0.97959453073E+01  0.51100000000E-03 0.  1.
         12    1    3    3    0    0  0.10541179009E+02  0.17385131202E+02 -0.88849519630E+01  0.22187870858E+02  0.00000000000E+00 0. -1.
</event>
<event>
 7    1  0.5849044E-013  0.5052886E+02  0.7816164E-02  0.1300439E+00
        -11   -1    0    0    0    0  0.00000000000E+00  0.00000000000E+00  0.45593999997E+02  0.45594000000E+02  0.51100000000E-03 0.  1.
         11   -1    0    0    0    0 -0.00000000000E+00 -0.00000000000E+00 -0.45593999997E+02  0.45594000000E+02  0.51100000000E-03 0. -1.
    9900012    2    1    2    0    0  0.10030448217E+02  0.38127907602E+02 -0.99407371634E+01  0.50528862222E+02  0.30000007209E+02 0.  0.
         12    1    1    2    0    0 -0.10030448217E+02 -0.38127907602E+02  0.99407371634E+01  0.40659137778E+02  0.00000000000E+00 0. -1.
         11    1    3    3    0    0  0.11384755277E+02  0.28633650669E+02 -0.19514640851E+02  0.36473549473E+02  0.51100000000E-03 0. -1.
        -11    1    3    3    0    0 -0.69683173584E+00  0.89388820373E+01  0.71023773527E+01  0.11438223239E+02  0.51100000000E-03 0.  1.
         12    1    3    3    0    0 -0.65747532436E+00  0.55537489597E+00  0.24715263351E+01  0.26170895098E+01  0.00000000000E+00 0. -1.
</event>
<event>
 7    1  0.5849044E-013  0.5052888E+02  0.7816164E-02  0.1300439E+00
        -11   -1    0    0    0    0  0.00000000000E+00  0.00000000000E+00  0.45593999997E+02  0.45594000000E+02  0.51100000000E-03 0.  1.
         11   -1    0    0    0    0 -0.00000000000E+00 -0.00000000000E+00 -0.45593999997E+02  0.45594000000E+02  0.51100000000E-03 0. -1.
    9900012    2    1    2    0    0 -0.26399410763E+02 -0.25841097274E+02  0.16984500125E+02  0.50528875053E+02  0.30000046211E+02 0.  0.
         12    1    1    2    0    0  0.26399410763E+02  0.25841097274E+02 -0.16984500125E+02  0.40659124947E+02  0.00000000000E+00 0. -1.
         11    1    3    3    0    0 -0.80279320527E+01 -0.24506423910E+02  0.14753979976E+02  0.29710140210E+02  0.51100000000E-03 0. -1.
        -11    1    3    3    0    0 -0.12119720013E+02 -0.33530973009E+01  0.52019176347E+01  0.13608483459E+02  0.51100000000E-03 0.  1.
         12    1    3    3    0    0 -0.62517586975E+01  0.20184239372E+01 -0.29713974861E+01  0.72102513842E+01  0.00000000000E+00 0. -1.
</event>
<event>
 7    1  0.5849044E-013  0.5052884E+02  0.7816164E-02  0.1300439E+00
        -11   -1    0    0    0    0  0.00000000000E+00  0.00000000000E+00  0.45593999997E+02  0.45594000000E+02  0.51100000000E-03 0. -1.
         11   -1    0    0    0    0 -0.00000000000E+00 -0.00000000000E+00 -0.45593999997E+02  0.45594000000E+02  0.51100000000E-03 0.  1.
    9900012    2    1    2    0    0 -0.17198190153E+02  0.36358695089E+02 -0.59526861711E+01  0.50528844503E+02  0.29999953350E+02 0.  0.
         12    1    1    2    0    0  0.17198190153E+02 -0.36358695089E+02  0.59526861711E+01  0.40659155497E+02  0.00000000000E+00 0. -1.
         11    1    3    3    0    0  0.59130029380E+01  0.52802310449E+01  0.54182586386E+01  0.96021857183E+01  0.51100000000E-03 0. -1.
        -11    1    3    3    0    0 -0.45181357611E+01  0.89198081159E+01 -0.54974816553E+01  0.11410470297E+02  0.51100000000E-03 0.  1.
         12    1    3    3    0    0 -0.18593057330E+02  0.22158655928E+02 -0.58734631544E+01  0.29516188488E+02  0.00000000000E+00 0. -1.
</event>
<event>
 7    1  0.5849044E-013  0.5052885E+02  0.7816164E-02  0.1300439E+00
        -11   -1    0    0    0    0  0.00000000000E+00  0.00000000000E+00  0.45593999997E+02  0.45594000000E+02  0.51100000000E-03 0.  1.
         11   -1    0    0    0    0 -0.00000000000E+00 -0.00000000000E+00 -0.45593999997E+02  0.45594000000E+02  0.51100000000E-03 0. -1.
    9900012    2    1    2    0    0 -0.20282718523E+02  0.26295944158E+01  0.35140615369E+02  0.50528852370E+02  0.29999977263E+02 0.  0.
         12    1    1    2    0    0  0.20282718523E+02 -0.26295944158E+01 -0.35140615369E+02  0.40659147630E+02  0.00000000000E+00 0. -1.
         11    1    3    3    0    0  0.63673188484E+01  0.40648255425E+01  0.11694231134E+02  0.13921946635E+02  0.51100000000E-03 0. -1.
        -11    1    3    3    0    0 -0.10159322875E+02 -0.27901457708E+01  0.14106599261E+02  0.17606615168E+02  0.51100000000E-03 0.  1.
         12    1    3    3    0    0 -0.16490714496E+02  0.13549146441E+01  0.93397849742E+01  0.19000290567E+02  0.00000000000E+00 0. -1.
</event>
<event>
 7    1  0.5849044E-013  0.5052888E+02  0.7816164E-02  0.1300439E+00
        -11   -1    0    0    0    0  0.00000000000E+00  0.00000000000E+00  0.45593999997E+02  0.45594000000E+02  0.51100000000E-03 0.  1.
         11   -1    0    0    0    0 -0.00000000000E+00 -0.00000000000E+00 -0.45593999997E+02  0.45594000000E+02  0.51100000000E-03 0. -1.
    9900012    2    1    2    0    0  0.14473354535E+02 -0.22188809748E+02  0.30843843304E+02  0.50528881228E+02  0.30000064981E+02 0.  0.
         12    1    1    2    0    0 -0.14473354535E+02  0.22188809748E+02 -0.30843843304E+02  0.40659118772E+02  0.00000000000E+00 0. -1.
         11    1    3    3    0    0  0.20712555530E+01 -0.58179779195E+01 -0.43417323286E+01  0.75491460783E+01  0.51100000000E-03 0. -1.
        -11    1    3    3    0    0  0.98270000085E+01 -0.20538571640E+01  0.16260083667E+02  0.19109646243E+02  0.51100000000E-03 0.  1.
        -12    1    3    3    0    0  0.25750989733E+01 -0.14316974665E+02  0.18925491965E+02  0.23870088906E+02  0.00000000000E+00 0.  1.
</event>
<event>
 7    1  0.5849044E-013  0.5052886E+02  0.7816164E-02  0.1300439E+00
        -11   -1    0    0    0    0  0.00000000000E+00  0.00000000000E+00  0.45593999997E+02  0.45594000000E+02  0.51100000000E-03 0.  1.
         11   -1    0    0    0    0 -0.00000000000E+00 -0.00000000000E+00 -0.45593999997E+02  0.45594000000E+02  0.51100000000E-03 0. -1.
    9900012    2    1    2    0    0  0.24520155529E+02 -0.15644470750E+02  0.28410876479E+02  0.50528863333E+02  0.30000010587E+02 0.  0.
         12    1    1    2    0    0 -0.24520155529E+02  0.15644470750E+02 -0.28410876479E+02  0.40659136667E+02  0.00000000000E+00 0. -1.
         11    1    3    3    0    0  0.88991589915E+01 -0.35140630677E+01  0.27189032088E+02  0.28823378291E+02  0.51100000000E-03 0.  1.
        -11    1    3    3    0    0  0.39339241867E+01 -0.24910959850E+01 -0.35135894385E+01  0.58332349273E+01  0.51100000000E-03 0. -1.
        -12    1    3    3    0    0  0.11687072351E+02 -0.96393116976E+01  0.47354338297E+01  0.15872250114E+02  0.00000000000E+00 0.  1.
</event>
<event>
 7    1  0.5849044E-013  0.5052886E+02  0.7816164E-02  0.1300439E+00
        -11   -1    0    0    0    0  0.00000000000E+00  0.00000000000E+00  0.45593999997E+02  0.45594000000E+02  0.51100000000E-03 0.  1.
         11   -1    0    0    0    0 -0.00000000000E+00 -0.00000000000E+00 -0.45593999997E+02  0.45594000000E+02  0.51100000000E-03 0. -1.
    9900012    2    1    2    0    0 -0.79398358292E+01  0.39702962343E+02  0.37147916949E+01  0.50528857250E+02  0.29999992098E+02 0.  0.
         12    1    1    2    0    0  0.79398358292E+01 -0.39702962343E+02 -0.37147916949E+01  0.40659142750E+02  0.00000000000E+00 0. -1.
         11    1    3    3    0    0  0.25065358385E+01 -0.32033597669E+01 -0.24224128738E+01  0.47341651954E+01  0.51100000000E-03 0. -1.
        -11    1    3    3    0    0 -0.62458589808E+01  0.93646790776E+01  0.39158970544E+01  0.11918146611E+02  0.51100000000E-03 0.  1.
         12    1    3    3    0    0 -0.42005126868E+01  0.33541643032E+02  0.22213075143E+01  0.33876545444E+02  0.00000000000E+00 0. -1.
</event>
<event>
 7    1  0.5849044E-013  0.5052886E+02  0.7816164E-02  0.1300439E+00
        -11   -1    0    0    0    0  0.00000000000E+00  0.00000000000E+00  0.45593999997E+02  0.45594000000E+02  0.51100000000E-03 0. -1.
         11   -1    0    0    0    0 -0.00000000000E+00 -0.00000000000E+00 -0.45593999997E+02  0.45594000000E+02  0.51100000000E-03 0.  1.
    9900012    2    1    2    0    0 -0.20229196333E+02  0.20015456696E+02 -0.29040090228E+02  0.50528859189E+02  0.29999997990E+02 0.  0.
         12    1    1    2    0    0  0.20229196333E+02 -0.20015456696E+02  0.29040090228E+02  0.40659140811E+02  0.00000000000E+00 0. -1.
         11    1    3    3    0    0 -0.26608513417E+01 -0.76137277584E+00 -0.10390572429E+02  0.10752851438E+02  0.51100000000E-03 0. -1.
        -11    1    3    3    0    0 -0.24267291800E+01  0.14291859842E+02  0.51482632944E+00  0.14505561646E+02  0.51100000000E-03 0.  1.
        -12    1    3    3    0    0 -0.15141615812E+02  0.64849696300E+01 -0.19164344128E+02  0.25270446105E+02  0.00000000000E+00 0.  1.
</event>
<event>
 7    1  0.5849044E-013  0.5052886E+02  0.7816164E-02  0.1300439E+00
        -11   -1    0    0    0    0  0.00000000000E+00  0.00000000000E+00  0.45593999997E+02  0.45594000000E+02  0.51100000000E-03 0.  1.
         11   -1    0    0    0    0 -0.00000000000E+00 -0.00000000000E+00 -0.45593999997E+02  0.45594000000E+02  0.51100000000E-03 0. -1.
    9900012    2    1    2    0    0  0.20060600274E+02  0.13968927358E+02  0.32490110356E+02  0.50528857291E+02  0.29999992223E+02 0.  0.
         12    1    1    2    0    0 -0.20060600274E+02 -0.13968927358E+02 -0.32490110356E+02  0.40659142709E+02  0.00000000000E+00 0. -1.
         11    1    3    3    0    0 -0.36502175852E+01 -0.60402932231E+01  0.72461767154E+01  0.10115152391E+02  0.51100000000E-03 0. -1.
        -11    1    3    3    0    0  0.20460772591E+01  0.17794054545E+01  0.47199966679E+01  0.54434441971E+01  0.51100000000E-03 0.  1.
         12    1    3    3    0    0  0.21664740600E+02  0.18229815126E+02  0.20523936972E+02  0.34970260703E+02  0.00000000000E+00 0. -1.
</event>
<event>
 7    1  0.5849044E-013  0.5052888E+02  0.7816164E-02  0.1300439E+00
        -11   -1    0    0    0    0  0.00000000000E+00  0.00000000000E+00  0.45593999997E+02  0.45594000000E+02  0.51100000000E-03 0.  1.
         11   -1    0    0    0    0 -0.00000000000E+00 -0.00000000000E+00 -0.45593999997E+02  0.45594000000E+02  0.51100000000E-03 0. -1.
    9900012    2    1    2    0    0 -0.20492327965E+02  0.91546022965E+01  0.33903125742E+02  0.50528878223E+02  0.30000055846E+02 0.  0.
         12    1    1    2    0    0  0.20492327965E+02 -0.91546022965E+01 -0.33903125742E+02  0.40659121777E+02  0.00000000000E+00 0. -1.
         11    1    3    3    0    0  0.19756184928E+01  0.45630070542E+01  0.48644987348E+01  0.69561088266E+01  0.51100000000E-03 0. -1.
        -11    1    3    3    0    0 -0.15079918445E+02  0.38606490278E+01  0.21935902725E+01  0.15720063288E+02  0.51100000000E-03 0.  1.
        -12    1    3    3    0    0 -0.73880280125E+01  0.73094621454E+00  0.26845036734E+02  0.27852706108E+02  0.00000000000E+00 0.  1.
</event>
<event>
 7    1  0.5849044E-013  0.5052886E+02  0.7816164E-02  0.1300439E+00
        -11   -1    0    0    0    0  0.00000000000E+00  0.00000000000E+00  0.45593999997E+02  0.45594000000E+02  0.51100000000E-03 0.  1.
         11   -1    0    0    0    0 -0.00000000000E+00 -0.00000000000E+00 -0.45593999997E+02  0.45594000000E+02  0.51100000000E-03 0. -1.
    9900012    2    1    2    0    0 -0.17140560309E+02 -0.33706208096E+02  0.14941833310E+02  0.50528860135E+02  0.30000000867E+02 0.  0.
         12    1    1    2    0    0  0.17140560309E+02  0.33706208096E+02 -0.14941833310E+02  0.40659139865E+02  0.00000000000E+00 0. -1.
         11    1    3    3    0    0  0.50837962255E+01 -0.24519783275E+01 -0.43636881629E+01  0.71343504557E+01  0.51100000000E-03 0. -1.
        -11    1    3    3    0    0 -0.95995006707E+01 -0.93142506912E+01  0.47437511616E+01  0.14191858737E+02  0.51100000000E-03 0.  1.
         12    1    3    3    0    0 -0.12624855864E+02 -0.21939979077E+02  0.14561770311E+02  0.29202650943E+02  0.00000000000E+00 0. -1.
</event>
<event>
 7    1  0.5849044E-013  0.5052886E+02  0.7816164E-02  0.1300439E+00
        -11   -1    0    0    0    0  0.00000000000E+00  0.00000000000E+00  0.45593999997E+02  0.45594000000E+02  0.51100000000E-03 0. -1.
         11   -1    0    0    0    0 -0.00000000000E+00 -0.00000000000E+00 -0.45593999997E+02  0.45594000000E+02  0.51100000000E-03 0.  1.
    9900012    2    1    2    0    0  0.84625209829E+01 -0.22292471487E+02 -0.32933218312E+02  0.50528863084E+02  0.30000009831E+02 0.  0.
         12    1    1    2    0    0 -0.84625209829E+01  0.22292471487E+02  0.32933218312E+02  0.40659136916E+02  0.00000000000E+00 0. -1.
         11    1    3    3    0    0  0.18402788389E+00 -0.28873240316E+01  0.47853590825E+01  0.55919735456E+01  0.51100000000E-03 0. -1.
        -11    1    3    3    0    0  0.79020414762E+01 -0.19369878807E+02 -0.26735628463E+02  0.33947434278E+02  0.51100000000E-03 0.  1.
         12    1    3    3    0    0  0.37645162284E+00 -0.35268648057E-01 -0.10982948931E+02  0.10989455260E+02  0.00000000000E+00 0. -1.
</event>
<event>
 7    1  0.5849044E-013  0.5052887E+02  0.7816164E-02  0.1300439E+00
        -11   -1    0    0    0    0  0.00000000000E+00  0.00000000000E+00  0.45593999997E+02  0.45594000000E+02  0.51100000000E-03 0. -1.
         11   -1    0    0    0    0 -0.00000000000E+00 -0.00000000000E+00 -0.45593999997E+02  0.45594000000E+02  0.51100000000E-03 0.  1.
    9900012    2    1    2    0    0  0.38817890228E+02 -0.80569144718E+01  0.90234552316E+01  0.50528865517E+02  0.30000017226E+02 0.  0.
         12    1    1    2    0    0 -0.38817890228E+02  0.80569144718E+01 -0.90234552316E+01  0.40659134483E+02  0.00000000000E+00 0. -1.
         11    1    3    3    0    0  0.13316918062E+01  0.10183204312E+01  0.10935533414E+02  0.11063284814E+02  0.51100000000E-03 0. -1.
        -11    1    3    3    0    0  0.69005184333E+01 -0.20777528030E+01 -0.35771458662E+01  0.80455070796E+01  0.51100000000E-03 0.  1.
         12    1    3    3    0    0  0.30585679989E+02 -0.69974821000E+01  0.16650676839E+01  0.31420073624E+02  0.00000000000E+00 0. -1.
</event>
<event>
 7    1  0.5849044E-013  0.5052886E+02  0.7816164E-02  0.1300439E+00
        -11   -1    0    0    0    0  0.00000000000E+00  0.00000000000E+00  0.45593999997E+02  0.45594000000E+02  0.51100000000E-03 0.  1.
         11   -1    0    0    0    0 -0.00000000000E+00 -0.00000000000E+00 -0.45593999997E+02  0.45594000000E+02  0.51100000000E-03 0. -1.
    9900012    2    1    2    0    0  0.22188340388E+02  0.28625815517E+02  0.18477182911E+02  0.50528855254E+02  0.29999986029E+02 0.  0.
         12    1    1    2    0    0 -0.22188340388E+02 -0.28625815517E+02 -0.18477182911E+02  0.40659144746E+02  0.00000000000E+00 0. -1.
         11    1    3    3    0    0 -0.18170764755E+01  0.18119817557E+02  0.10569671546E+02  0.21055818960E+02  0.51100000000E-03 0. -1.
        -11    1    3    3    0    0  0.20446156065E+02  0.55407429646E+01  0.94134419887E+01  0.23180984033E+02  0.51100000000E-03 0.  1.
        -12    1    3    3    0    0  0.35592607992E+01  0.49652549949E+01 -0.15059306239E+01  0.62920522602E+01  0.00000000000E+00 0.  1.
</event>
<event>
 7    1  0.5849044E-013  0.5052884E+02  0.7816164E-02  0.1300439E+00
        -11   -1    0    0    0    0  0.00000000000E+00  0.00000000000E+00  0.45593999997E+02  0.45594000000E+02  0.51100000000E-03 0.  1.
         11   -1    0    0    0    0 -0.00000000000E+00 -0.00000000000E+00 -0.45593999997E+02  0.45594000000E+02  0.51100000000E-03 0. -1.
    9900012    2    1    2    0    0  0.46926537211E+01 -0.35627701763E+02  0.19021395867E+02  0.50528835811E+02  0.29999926931E+02 0.  0.
         12    1    1    2    0    0 -0.46926537211E+01  0.35627701763E+02 -0.19021395867E+02  0.40659164189E+02  0.00000000000E+00 0. -1.
         11    1    3    3    0    0 -0.23282990865E+00  0.26576034175E+01 -0.44875045713E+01  0.52206094692E+01  0.51100000000E-03 0. -1.
        -11    1    3    3    0    0  0.37643884434E+00 -0.11623727984E+02  0.81923838146E+01  0.14225607589E+02  0.51100000000E-03 0.  1.
         12    1    3    3    0    0  0.45490447854E+01 -0.26661577196E+02  0.15316516624E+02  0.31082618753E+02  0.00000000000E+00 0. -1.
</event>
<event>
 7    1  0.5849044E-013  0.5052885E+02  0.7816164E-02  0.1300439E+00
        -11   -1    0    0    0    0  0.00000000000E+00  0.00000000000E+00  0.45593999997E+02  0.45594000000E+02  0.51100000000E-03 0.  1.
         11   -1    0    0    0    0 -0.00000000000E+00 -0.00000000000E+00 -0.45593999997E+02  0.45594000000E+02  0.51100000000E-03 0. -1.
    9900012    2    1    2    0    0  0.35167166499E+02 -0.15568060285E+02 -0.13193636847E+02  0.50528853995E+02  0.29999982202E+02 0.  0.
         12    1    1    2    0    0 -0.35167166499E+02  0.15568060285E+02  0.13193636847E+02  0.40659146005E+02  0.00000000000E+00 0. -1.
         11    1    3    3    0    0 -0.86729257389E+00  0.28113624435E+01  0.14997574938E+01  0.33023064665E+01  0.51100000000E-03 0. -1.
        -11    1    3    3    0    0  0.28968727281E+02 -0.22515051421E+02 -0.12313160484E+02  0.38700498991E+02  0.51100000000E-03 0.  1.
        -12    1    3    3    0    0  0.70657317928E+01  0.41356286925E+01 -0.23802338568E+01  0.85260485375E+01  0.00000000000E+00 0.  1.
</event>
<event>
 7    1  0.5849044E-013  0.5052883E+02  0.7816164E-02  0.1300439E+00
        -11   -1    0    0    0    0  0.00000000000E+00  0.00000000000E+00  0.45593999997E+02  0.45594000000E+02  0.51100000000E-03 0.  1.
         11   -1    0    0    0    0 -0.00000000000E+00 -0.00000000000E+00 -0.45593999997E+02  0.45594000000E+02  0.51100000000E-03 0. -1.
    9900012    2    1    2    0    0  0.17398414784E+02  0.36742295381E+02 -0.68327080944E+00  0.50528831712E+02  0.29999914472E+02 0.  0.
         12    1    1    2    0    0 -0.17398414784E+02 -0.36742295381E+02  0.68327080944E+00  0.40659168288E+02  0.00000000000E+00 0. -1.
         11    1    3    3    0    0 -0.20424161843E+00 -0.41168982230E+01  0.33330644500E+01  0.53009324186E+01  0.51100000000E-03 0. -1.
        -11    1    3    3    0    0  0.95087019894E+01  0.21016881328E+02  0.14458216538E+01  0.23113094012E+02  0.51100000000E-03 0.  1.
         12    1    3    3    0    0  0.80939544132E+01  0.19842312276E+02 -0.54621569132E+01  0.22114805282E+02  0.00000000000E+00 0. -1.
</event>
<event>
 7    1  0.5849044E-013  0.5052886E+02  0.7816164E-02  0.1300439E+00
        -11   -1    0    0    0    0  0.00000000000E+00  0.00000000000E+00  0.45593999997E+02  0.45594000000E+02  0.51100000000E-03 0.  1.
         11   -1    0    0    0    0 -0.00000000000E+00 -0.00000000000E+00 -0.45593999997E+02  0.45594000000E+02  0.51100000000E-03 0. -1.
    9900012    2    1    2    0    0  0.25074030587E+02 -0.25192993645E+02  0.19742632809E+02  0.50528862172E+02  0.30000007058E+02 0.  0.
         12    1    1    2    0    0 -0.25074030587E+02  0.25192993645E+02 -0.19742632809E+02  0.40659137828E+02  0.00000000000E+00 0. -1.
         11    1    3    3    0    0  0.30582645741E+02 -0.19805524080E+02  0.17055966072E+02  0.40230125323E+02  0.51100000000E-03 0. -1.
        -11    1    3    3    0    0 -0.48985656983E+01 -0.66134089204E+01  0.32085189894E+01  0.88333299392E+01  0.51100000000E-03 0.  1.
         12    1    3    3    0    0 -0.61004945519E+00  0.12259393549E+01 -0.52185225195E+00  0.14654069102E+01  0.00000000000E+00 0. -1.
</event>
<event>
 7    1  0.5849044E-013  0.5052886E+02  0.7816164E-02  0.1300439E+00
        -11   -1    0    0    0    0  0.00000000000E+00  0.00000000000E+00  0.45593999997E+02  0.45594000000E+02  0.51100000000E-03 0. -1.
         11   -1    0    0    0    0 -0.00000000000E+00 -0.00000000000E+00 -0.45593999997E+02  0.45594000000E+02  0.51100000000E-03 0.  1.
    9900012    2    1    2    0    0  0.11229364189E+02  0.15187525918E+02 -0.36005636692E+02  0.50528862808E+02  0.30000008991E+02 0.  0.
         12    1    1    2    0    0 -0.11229364189E+02 -0.15187525918E+02  0.36005636692E+02  0.40659137192E+02  0.00000000000E+00 0. -1.
         11    1    3    3    0    0  0.10416812016E+01  0.16678205187E+02 -0.62581602765E+01  0.17844108223E+02  0.51100000000E-03 0. -1.
        -11    1    3    3    0    0  0.89576438513E+01  0.13061331150E+01 -0.27325462382E+02  0.28785869132E+02  0.51100000000E-03 0.  1.
        -12    1    3    3    0    0  0.12300391364E+01 -0.27968123841E+01 -0.24220140340E+01  0.38988854523E+01  0.00000000000E+00 0.  1.
</event>
<event>
 7    1  0.5849044E-013  0.5052885E+02  0.7816164E-02  0.1300439E+00
        -11   -1    0    0    0    0  0.00000000000E+00  0.00000000000E+00  0.45593999997E+02  0.45594000000E+02  0.51100000000E-03 0.  1.
         11   -1    0    0    0    0 -0.00000000000E+00 -0.00000000000E+00 -0.45593999997E+02  0.45594000000E+02  0.51100000000E-03 0. -1.
    9900012    2    1    2    0    0 -0.39070558889E+02 -0.91202050145E+01 -0.65939078404E+01  0.50528851804E+02  0.29999975543E+02 0.  0.
         12    1    1    2    0    0  0.39070558889E+02  0.91202050145E+01  0.65939078404E+01  0.40659148196E+02  0.00000000000E+00 0. -1.
         11    1    3    3    0    0 -0.18247319416E+02 -0.16484890902E+02 -0.45506223945E+01  0.25008487726E+02  0.51100000000E-03 0. -1.
        -11    1    3    3    0    0 -0.15566675643E+02  0.53391034621E-01 -0.44671352421E+01  0.16195046733E+02  0.51100000000E-03 0.  1.
         12    1    3    3    0    0 -0.52565638309E+01  0.73112948528E+01  0.24238497962E+01  0.93253173441E+01  0.00000000000E+00 0. -1.
</event>
<event>
 7    1  0.5849044E-013  0.5052886E+02  0.7816164E-02  0.1300439E+00
        -11   -1    0    0    0    0  0.00000000000E+00  0.00000000000E+00  0.45593999997E+02  0.45594000000E+02  0.51100000000E-03 0.  1.
         11   -1    0    0    0    0 -0.00000000000E+00 -0.00000000000E+00 -0.45593999997E+02  0.45594000000E+02  0.51100000000E-03 0. -1.
    9900012    2    1    2    0    0  0.13482109982E+02 -0.70813765744E+01  0.37699502077E+02  0.50528860306E+02  0.30000001387E+02 0.  0.
         12    1    1    2    0    0 -0.13482109982E+02  0.70813765744E+01 -0.37699502077E+02  0.40659139694E+02  0.00000000000E+00 0. -1.
         11    1    3    3    0    0 -0.87664878732E+01  0.71172067475E+00  0.68006165901E+01  0.11117834421E+02  0.51100000000E-03 0. -1.
        -11    1    3    3    0    0  0.37313803344E+01 -0.22725877731E+01  0.10192163863E+02  0.11089096395E+02  0.51100000000E-03 0.  1.
         12    1    3    3    0    0  0.18517217521E+02 -0.55205094761E+01  0.20706721624E+02  0.28321929490E+02  0.00000000000E+00 0. -1.
</event>
<event>
 7    1  0.5849044E-013  0.5052886E+02  0.7816164E-02  0.1300439E+00
        -11   -1    0    0    0    0  0.00000000000E+00  0.00000000000E+00  0.45593999997E+02  0.45594000000E+02  0.51100000000E-03 0.  1.
         11   -1    0    0    0    0 -0.00000000000E+00 -0.00000000000E+00 -0.45593999997E+02  0.45594000000E+02  0.51100000000E-03 0. -1.
    9900012    2    1    2    0    0 -0.39788982189E+02 -0.33412197462E+01  0.76706609890E+01  0.50528857202E+02  0.29999991953E+02 0.  0.
         12    1    1    2    0    0  0.39788982189E+02  0.33412197462E+01 -0.76706609890E+01  0.40659142798E+02  0.00000000000E+00 0. -1.
         11    1    3    3    0    0 -0.51113374135E+01  0.91152195377E+01  0.26680843840E+01  0.10785716106E+02  0.51100000000E-03 0. -1.
        -11    1    3    3    0    0 -0.29223816602E+02 -0.49012301880E+01  0.11330892127E+01  0.29653623818E+02  0.51100000000E-03 0.  1.
        -12    1    3    3    0    0 -0.54538281738E+01 -0.75552090959E+01  0.38694873924E+01  0.10089517278E+02  0.00000000000E+00 0.  1.
</event>
<event>
 7    1  0.5849044E-013  0.5052885E+02  0.7816164E-02  0.1300439E+00
        -11   -1    0    0    0    0  0.00000000000E+00  0.00000000000E+00  0.45593999997E+02  0.45594000000E+02  0.51100000000E-03 0. -1.
         11   -1    0    0    0    0 -0.00000000000E+00 -0.00000000000E+00 -0.45593999997E+02  0.45594000000E+02  0.51100000000E-03 0.  1.
    9900012    2    1    2    0    0 -0.20141088549E+02 -0.28335704868E+02 -0.21085317720E+02  0.50528852915E+02  0.29999978920E+02 0.  0.
         12    1    1    2    0    0  0.20141088549E+02  0.28335704868E+02  0.21085317720E+02  0.40659147085E+02  0.00000000000E+00 0. -1.
         11    1    3    3    0    0 -0.43659936292E+01 -0.23446218616E+02 -0.34924694104E+01  0.24103618206E+02  0.51100000000E-03 0. -1.
        -11    1    3    3    0    0 -0.61702024941E+01 -0.59527033603E+01 -0.13362078241E+02  0.15876120788E+02  0.51100000000E-03 0.  1.
         12    1    3    3    0    0 -0.96048924257E+01  0.10632171084E+01 -0.42307700695E+01  0.10549113921E+02  0.00000000000E+00 0. -1.
</event>
<event>
 7    1  0.5849044E-013  0.5052885E+02  0.7816164E-02  0.1300439E+00
        -11   -1    0    0    0    0  0.00000000000E+00  0.00000000000E+00  0.45593999997E+02  0.45594000000E+02  0.51100000000E-03 0.  1.
         11   -1    0    0    0    0 -0.00000000000E+00 -0.00000000000E+00 -0.45593999997E+02  0.45594000000E+02  0.51100000000E-03 0. -1.
    9900012    2    1    2    0    0 -0.11887867275E+02 -0.21814883645E+02  0.32186263348E+02  0.50528854841E+02  0.29999984773E+02 0.  0.
         12    1    1    2    0    0  0.11887867275E+02  0.21814883645E+02 -0.32186263348E+02  0.40659145159E+02  0.00000000000E+00 0. -1.
         11    1    3    3    0    0 -0.46656418513E+01  0.67746514464E+01  0.11400939558E+02  0.14058646420E+02  0.51100000000E-03 0.  1.
        -11    1    3    3    0    0 -0.42138213027E+01 -0.18245279896E+02  0.16205846456E+02  0.24764409706E+02  0.51100000000E-03 0. -1.
        -12    1    3    3    0    0 -0.30084041206E+01 -0.10344255195E+02  0.45794773347E+01  0.11705798715E+02  0.00000000000E+00 0.  1.
</event>
<event>
 7    1  0.5849044E-013  0.5052886E+02  0.7816164E-02  0.1300439E+00
        -11   -1    0    0    0    0  0.00000000000E+00  0.00000000000E+00  0.45593999997E+02  0.45594000000E+02  0.51100000000E-03 0. -1.
         11   -1    0    0    0    0 -0.00000000000E+00 -0.00000000000E+00 -0.45593999997E+02  0.45594000000E+02  0.51100000000E-03 0.  1.
    9900012    2    1    2    0    0 -0.34340766981E+02  0.16302643539E+02 -0.14425709454E+02  0.50528861342E+02  0.30000004534E+02 0.  0.
         12    1    1    2    0    0  0.34340766981E+02 -0.16302643539E+02  0.14425709454E+02  0.40659138658E+02  0.00000000000E+00 0. -1.
         11    1    3    3    0    0 -0.15667302066E+01 -0.18908522134E+01 -0.10500399234E+02  0.10783707617E+02  0.51100000000E-03 0. -1.
        -11    1    3    3    0    0 -0.26116533631E+02  0.15740811190E+02 -0.80504325123E+01  0.31538166239E+02  0.51100000000E-03 0.  1.
        -12    1    3    3    0    0 -0.66575031432E+01  0.24526845625E+01  0.41251222922E+01  0.82069874857E+01  0.00000000000E+00 0.  1.
</event>
<event>
 7    1  0.5849044E-013  0.5052884E+02  0.7816164E-02  0.1300439E+00
        -11   -1    0    0    0    0  0.00000000000E+00  0.00000000000E+00  0.45593999997E+02  0.45594000000E+02  0.51100000000E-03 0. -1.
         11   -1    0    0    0    0 -0.00000000000E+00 -0.00000000000E+00 -0.45593999997E+02  0.45594000000E+02  0.51100000000E-03 0.  1.
    9900012    2    1    2    0    0  0.33973350980E+02 -0.14951259930E+02 -0.16596340445E+02  0.50528840312E+02  0.29999940614E+02 0.  0.
         12    1    1    2    0    0 -0.33973350980E+02  0.14951259930E+02  0.16596340445E+02  0.40659159688E+02  0.00000000000E+00 0. -1.
         11    1    3    3    0    0  0.12429852965E+02 -0.36562637610E+01  0.59135181479E+01  0.14242162987E+02  0.51100000000E-03 0. -1.
        -11    1    3    3    0    0  0.62159372488E+01 -0.84292472217E+01 -0.16566066605E+02  0.19599098133E+02  0.51100000000E-03 0.  1.
         12    1    3    3    0    0  0.15327560767E+02 -0.28657489473E+01 -0.59437919880E+01  0.16687579192E+02  0.00000000000E+00 0. -1.
</event>
<event>
 7    1  0.5849044E-013  0.5052886E+02  0.7816164E-02  0.1300439E+00
        -11   -1    0    0    0    0  0.00000000000E+00  0.00000000000E+00  0.45593999997E+02  0.45594000000E+02  0.51100000000E-03 0.  1.
         11   -1    0    0    0    0 -0.00000000000E+00 -0.00000000000E+00 -0.45593999997E+02  0.45594000000E+02  0.51100000000E-03 0. -1.
    9900012    2    1    2    0    0  0.47740726501E+01 -0.31088653297E+00  0.40376695605E+02  0.50528856280E+02  0.29999989148E+02 0.  0.
         12    1    1    2    0    0 -0.47740726501E+01  0.31088653297E+00 -0.40376695605E+02  0.40659143720E+02  0.00000000000E+00 0. -1.
         11    1    3    3    0    0  0.92356020852E+00 -0.99266432119E+01  0.42450798527E+01  0.10835677742E+02  0.51100000000E-03 0. -1.
        -11    1    3    3    0    0  0.68519066479E+01  0.49029763529E+01  0.30938171178E+02  0.32064906641E+02  0.51100000000E-03 0.  1.
         12    1    3    3    0    0 -0.30013942063E+01  0.47127803260E+01  0.51934445743E+01  0.76282718966E+01  0.00000000000E+00 0. -1.
</event>
<event>
 7    1  0.5849044E-013  0.5052886E+02  0.7816164E-02  0.1300439E+00
        -11   -1    0    0    0    0  0.00000000000E+00  0.00000000000E+00  0.45593999997E+02  0.45594000000E+02  0.51100000000E-03 0.  1.
         11   -1    0    0    0    0 -0.00000000000E+00 -0.00000000000E+00 -0.45593999997E+02  0.45594000000E+02  0.51100000000E-03 0. -1.
    9900012    2    1    2    0    0 -0.34763239517E+02 -0.86467244401E+00  0.21069770134E+02  0.50528859654E+02  0.29999999404E+02 0.  0.
         12    1    1    2    0    0  0.34763239517E+02  0.86467244401E+00 -0.21069770134E+02  0.40659140346E+02  0.00000000000E+00 0. -1.
         11    1    3    3    0    0 -0.48921702857E+01  0.54907573245E+01 -0.27826032876E+01  0.78628638178E+01  0.51100000000E-03 0. -1.
        -11    1    3    3    0    0 -0.16778348838E+02 -0.12059828784E+02  0.17318956757E+02  0.26961059390E+02  0.51100000000E-03 0.  1.
        -12    1    3    3    0    0 -0.13092720394E+02  0.57043990159E+01  0.65334166646E+01  0.15704936446E+02  0.00000000000E+00 0.  1.
</event>
<event>
 7    1  0.5849044E-013  0.5052886E+02  0.7816164E-02  0.1300439E+00
        -11   -1    0    0    0    0  0.00000000000E+00  0.00000000000E+00  0.45593999997E+02  0.45594000000E+02  0.51100000000E-03 0.  1.
         11   -1    0    0    0    0 -0.00000000000E+00 -0.00000000000E+00 -0.45593999997E+02  0.45594000000E+02  0.51100000000E-03 0. -1.
    9900012    2    1    2    0    0  0.17616123341E+02  0.10536717615E+02  0.35097226618E+02  0.50528861594E+02  0.30000005300E+02 0.  0.
         12    1    1    2    0    0 -0.17616123341E+02 -0.10536717615E+02 -0.35097226618E+02  0.40659138406E+02  0.00000000000E+00 0. -1.
         11    1    3    3    0    0  0.38818636066E+01  0.11147326582E+02  0.67406737613E+01  0.13592955455E+02  0.51100000000E-03 0. -1.
        -11    1    3    3    0    0 -0.69048404679E+00 -0.75547305947E+01  0.77986082409E+01  0.10879752448E+02  0.51100000000E-03 0.  1.
        -12    1    3    3    0    0  0.14424743781E+02  0.69441216280E+01  0.20557944616E+02  0.26056153691E+02  0.00000000000E+00 0.  1.
</event>
<event>
 7    1  0.5849044E-013  0.5052885E+02  0.7816164E-02  0.1300439E+00
        -11   -1    0    0    0    0  0.00000000000E+00  0.00000000000E+00  0.45593999997E+02  0.45594000000E+02  0.51100000000E-03 0.  1.
         11   -1    0    0    0    0 -0.00000000000E+00 -0.00000000000E+00 -0.45593999997E+02  0.45594000000E+02  0.51100000000E-03 0. -1.
    9900012    2    1    2    0    0  0.55927482143E+01  0.38051728479E+02 -0.13189141612E+02  0.50528851838E+02  0.29999975646E+02 0.  0.
         12    1    1    2    0    0 -0.55927482143E+01 -0.38051728479E+02  0.13189141612E+02  0.40659148162E+02  0.00000000000E+00 0. -1.
         11    1    3    3    0    0 -0.16095554520E+01  0.34215463315E+01 -0.63387341329E+01  0.73808670711E+01  0.51100000000E-03 0. -1.
        -11    1    3    3    0    0  0.12777197263E+02  0.33995232709E+02 -0.32081358299E+01  0.36458534702E+02  0.51100000000E-03 0.  1.
        -12    1    3    3    0    0 -0.55748935966E+01  0.63494943783E+00 -0.36422716492E+01  0.66894500648E+01  0.00000000000E+00 0.  1.
</event>
<event>
 7    1  0.5849044E-013  0.5052888E+02  0.7816164E-02  0.1300439E+00
        -11   -1    0    0    0    0  0.00000000000E+00  0.00000000000E+00  0.45593999997E+02  0.45594000000E+02  0.51100000000E-03 0.  1.
         11   -1    0    0    0    0 -0.00000000000E+00 -0.00000000000E+00 -0.45593999997E+02  0.45594000000E+02  0.51100000000E-03 0. -1.
    9900012    2    1    2    0    0  0.36288615758E+02  0.17392888729E+02 -0.58127426963E+01  0.50528878150E+02  0.30000055625E+02 0.  0.
         12    1    1    2    0    0 -0.36288615758E+02 -0.17392888729E+02  0.58127426963E+01  0.40659121850E+02  0.00000000000E+00 0. -1.
         11    1    3    3    0    0  0.15104318913E+02 -0.52033718547E+01 -0.58683659235E+01  0.17019202313E+02  0.51100000000E-03 0. -1.
        -11    1    3    3    0    0  0.14896353747E+02  0.91507823321E+01  0.44305944908E+01  0.18035197256E+02  0.51100000000E-03 0.  1.
         12    1    3    3    0    0  0.62879430976E+01  0.13445478252E+02 -0.43749712636E+01  0.15474478582E+02  0.00000000000E+00 0. -1.
</event>
<event>
 7    1  0.5849044E-013  0.5052886E+02  0.7816164E-02  0.1300439E+00
        -11   -1    0    0    0    0  0.00000000000E+00  0.00000000000E+00  0.45593999997E+02  0.45594000000E+02  0.51100000000E-03 0.  1.
         11   -1    0    0    0    0 -0.00000000000E+00 -0.00000000000E+00 -0.45593999997E+02  0.45594000000E+02  0.51100000000E-03 0. -1.
    9900012    2    1    2    0    0 -0.25802320100E+02  0.14276136401E+01  0.31390564674E+02  0.50528863834E+02  0.30000012110E+02 0.  0.
         12    1    1    2    0    0  0.25802320100E+02 -0.14276136401E+01 -0.31390564674E+02  0.40659136166E+02  0.00000000000E+00 0. -1.
         11    1    3    3    0    0 -0.88792404031E+01  0.10203825255E+02  0.10107122856E+02  0.16885286278E+02  0.51100000000E-03 0. -1.
        -11    1    3    3    0    0 -0.11043416551E+02 -0.10139558196E+02  0.42658444753E+01  0.15587338416E+02  0.51100000000E-03 0.  1.
         12    1    3    3    0    0 -0.58796631456E+01  0.13633465811E+01  0.17017597342E+02  0.18056239141E+02  0.00000000000E+00 0. -1.
</event>
<event>
 7    1  0.5849044E-013  0.5052885E+02  0.7816164E-02  0.1300439E+00
        -11   -1    0    0    0    0  0.00000000000E+00  0.00000000000E+00  0.45593999997E+02  0.45594000000E+02  0.51100000000E-03 0.  1.
         11   -1    0    0    0    0 -0.00000000000E+00 -0.00000000000E+00 -0.45593999997E+02  0.45594000000E+02  0.51100000000E-03 0. -1.
    9900012    2    1    2    0    0 -0.30288095650E+02  0.14180241028E+02  0.23123975660E+02  0.50528853132E+02  0.29999979581E+02 0.  0.
         12    1    1    2    0    0  0.30288095650E+02 -0.14180241028E+02 -0.23123975660E+02  0.40659146868E+02  0.00000000000E+00 0. -1.
         11    1    3    3    0    0 -0.21813570884E+01  0.39757127713E+01  0.10732759853E+01  0.46601000406E+01  0.51100000000E-03 0. -1.
        -11    1    3    3    0    0 -0.10321394332E+02  0.14385815631E+02  0.21141112110E+02  0.27575886093E+02  0.51100000000E-03 0.  1.
        -12    1    3    3    0    0 -0.17785344230E+02 -0.41812873745E+01  0.90958756447E+00  0.18292866999E+02  0.00000000000E+00 0.  1.
</event>
<event>
 7    1  0.5849044E-013  0.5052893E+02  0.7816164E-02  0.1300439E+00
        -11   -1    0    0    0    0  0.00000000000E+00  0.00000000000E+00  0.45593999997E+02  0.45594000000E+02  0.51100000000E-03 0. -1.
         11   -1    0    0    0    0 -0.00000000000E+00 -0.00000000000E+00 -0.45593999997E+02  0.45594000000E+02  0.51100000000E-03 0.  1.
    9900012    2    1    2    0    0  0.83159410189E+01 -0.39736255636E+02 -0.22438771191E+01  0.50528931251E+02  0.30000217031E+02 0.  0.
         12    1    1    2    0    0 -0.83159410189E+01  0.39736255636E+02  0.22438771191E+01  0.40659068749E+02  0.00000000000E+00 0. -1.
         11    1    3    3    0    0 -0.42246021506E+01 -0.59016069608E+01 -0.22361488892E+01  0.75945105284E+01  0.51100000000E-03 0. -1.
        -11    1    3    3    0    0  0.16395314255E+02 -0.33062746258E+02 -0.42524923577E+01  0.37148825165E+02  0.51100000000E-03 0.  1.
        -12    1    3    3    0    0 -0.38547710853E+01 -0.77190241706E+00  0.42447641278E+01  0.57855955581E+01  0.00000000000E+00 0.  1.
</event>
<event>
 7    1  0.5849044E-013  0.5052886E+02  0.7816164E-02  0.1300439E+00
        -11   -1    0    0    0    0  0.00000000000E+00  0.00000000000E+00  0.45593999997E+02  0.45594000000E+02  0.51100000000E-03 0.  1.
         11   -1    0    0    0    0 -0.00000000000E+00 -0.00000000000E+00 -0.45593999997E+02  0.45594000000E+02  0.51100000000E-03 0. -1.
    9900012    2    1    2    0    0  0.11490897103E+01  0.23210552721E+02  0.33363386325E+02  0.50528859431E+02  0.29999998726E+02 0.  0.
         12    1    1    2    0    0 -0.11490897103E+01 -0.23210552721E+02 -0.33363386325E+02  0.40659140569E+02  0.00000000000E+00 0. -1.
         11    1    3    3    0    0  0.45909004590E+01 -0.41428481407E+01  0.43572285696E+01  0.75647206696E+01  0.51100000000E-03 0. -1.
        -11    1    3    3    0    0 -0.60541793747E+01  0.17986913113E+02  0.96232779008E+01  0.21278853565E+02  0.51100000000E-03 0.  1.
        -12    1    3    3    0    0  0.26123686260E+01  0.93664877490E+01  0.19382879854E+02  0.21685285196E+02  0.00000000000E+00 0.  1.
</event>
<event>
 7    1  0.5849044E-013  0.5052885E+02  0.7816164E-02  0.1300439E+00
        -11   -1    0    0    0    0  0.00000000000E+00  0.00000000000E+00  0.45593999997E+02  0.45594000000E+02  0.51100000000E-03 0.  1.
         11   -1    0    0    0    0 -0.00000000000E+00 -0.00000000000E+00 -0.45593999997E+02  0.45594000000E+02  0.51100000000E-03 0. -1.
    9900012    2    1    2    0    0 -0.10224099024E+02  0.14916802229E+02  0.36415970468E+02  0.50528854722E+02  0.29999984413E+02 0.  0.
         12    1    1    2    0    0  0.10224099024E+02 -0.14916802229E+02 -0.36415970468E+02  0.40659145278E+02  0.00000000000E+00 0. -1.
         11    1    3    3    0    0 -0.28175094978E+01 -0.20151321471E+01  0.98572117974E+01  0.10448145387E+02  0.51100000000E-03 0. -1.
        -11    1    3    3    0    0 -0.15313557488E+02  0.13674829672E+02  0.13860254532E+02  0.24771206378E+02  0.51100000000E-03 0.  1.
        -12    1    3    3    0    0  0.79069679622E+01  0.32571047044E+01  0.12698504139E+02  0.15309502957E+02  0.00000000000E+00 0.  1.
</event>
<event>
 7    1  0.5849044E-013  0.5052888E+02  0.7816164E-02  0.1300439E+00
        -11   -1    0    0    0    0  0.00000000000E+00  0.00000000000E+00  0.45593999997E+02  0.45594000000E+02  0.51100000000E-03 0.  1.
         11   -1    0    0    0    0 -0.00000000000E+00 -0.00000000000E+00 -0.45593999997E+02  0.45594000000E+02  0.51100000000E-03 0. -1.
    9900012    2    1    2    0    0  0.27558908822E+02  0.21175405448E+02  0.21101490469E+02  0.50528878620E+02  0.30000057054E+02 0.  0.
         12    1    1    2    0    0 -0.27558908822E+02 -0.21175405448E+02 -0.21101490469E+02  0.40659121380E+02  0.00000000000E+00 0. -1.
         11    1    3    3    0    0  0.65085552967E+01  0.18725375332E+01 -0.80924466489E+00  0.68207452710E+01  0.51100000000E-03 0. -1.
        -11    1    3    3    0    0  0.14708542583E+02  0.21876493271E+02  0.24879444686E+02  0.36247882019E+02  0.51100000000E-03 0.  1.
        -12    1    3    3    0    0  0.63418109423E+01 -0.25736253564E+01 -0.29687095515E+01  0.74602513298E+01  0.00000000000E+00 0.  1.
</event>
<event>
 7    1  0.5849044E-013  0.5052885E+02  0.7816164E-02  0.1300439E+00
        -11   -1    0    0    0    0  0.00000000000E+00  0.00000000000E+00  0.45593999997E+02  0.45594000000E+02  0.51100000000E-03 0.  1.
         11   -1    0    0    0    0 -0.00000000000E+00 -0.00000000000E+00 -0.45593999997E+02  0.45594000000E+02  0.51100000000E-03 0. -1.
    9900012    2    1    2    0    0 -0.16318895345E+01  0.37324788826E+02  0.16042544175E+02  0.50528854067E+02  0.29999982423E+02 0.  0.
         12    1    1    2    0    0  0.16318895345E+01 -0.37324788826E+02 -0.16042544175E+02  0.40659145933E+02  0.00000000000E+00 0. -1.
         11    1    3    3    0    0 -0.16349202833E+01  0.14828132656E+02 -0.18290296611E+00  0.14919113115E+02  0.51100000000E-03 0. -1.
        -11    1    3    3    0    0 -0.47153623549E+01 -0.11780859168E+00  0.10936884812E+02  0.11910666255E+02  0.51100000000E-03 0.  1.
        -12    1    3    3    0    0  0.47183931037E+01  0.22614464762E+02  0.52885623295E+01  0.23699074697E+02  0.00000000000E+00 0.  1.
</event>
<event>
 7    1  0.5849044E-013  0.5052887E+02  0.7816164E-02  0.1300439E+00
        -11   -1    0    0    0    0  0.00000000000E+00  0.00000000000E+00  0.45593999997E+02  0.45594000000E+02  0.51100000000E-03 0.  1.
         11   -1    0    0    0    0 -0.00000000000E+00 -0.00000000000E+00 -0.45593999997E+02  0.45594000000E+02  0.51100000000E-03 0. -1.
    9900012    2    1    2    0    0 -0.33648796638E+02 -0.52171451256E+01  0.22219459491E+02  0.50528874351E+02  0.30000044078E+02 0.  0.
         12    1    1    2    0    0  0.33648796638E+02  0.52171451256E+01 -0.22219459491E+02  0.40659125649E+02  0.00000000000E+00 0. -1.
         11    1    3    3    0    0 -0.70800641678E+01  0.10708999310E+02  0.66017061343E+01  0.14435806142E+02  0.51100000000E-03 0. -1.
        -11    1    3    3    0    0 -0.21355579631E+02 -0.11585080549E+02  0.16327345262E+02  0.29272121144E+02  0.51100000000E-03 0.  1.
         12    1    3    3    0    0 -0.52131528394E+01 -0.43410638860E+01 -0.70959190506E+00  0.68209470648E+01  0.00000000000E+00 0. -1.
</event>
<event>
 7    1  0.5849044E-013  0.5052887E+02  0.7816164E-02  0.1300439E+00
        -11   -1    0    0    0    0  0.00000000000E+00  0.00000000000E+00  0.45593999997E+02  0.45594000000E+02  0.51100000000E-03 0. -1.
         11   -1    0    0    0    0 -0.00000000000E+00 -0.00000000000E+00 -0.45593999997E+02  0.45594000000E+02  0.51100000000E-03 0.  1.
    9900012    2    1    2    0    0  0.27027307066E+02  0.26547529282E+02 -0.14762059776E+02  0.50528867605E+02  0.30000023574E+02 0.  0.
         12    1    1    2    0    0 -0.27027307066E+02 -0.26547529282E+02  0.14762059776E+02  0.40659132395E+02  0.00000000000E+00 0. -1.
         11    1    3    3    0    0 -0.41170327823E+01  0.24015007324E+01 -0.90775779618E+01  0.10252784335E+02  0.51100000000E-03 0. -1.
        -11    1    3    3    0    0  0.90825616273E+01  0.45406337231E+01  0.31058340941E+00  0.10159071938E+02  0.51100000000E-03 0.  1.
         12    1    3    3    0    0  0.22061778221E+02  0.19605394827E+02 -0.59950652234E+01  0.30117011333E+02  0.00000000000E+00 0. -1.
</event>
<event>
 7    1  0.5849044E-013  0.5052892E+02  0.7816164E-02  0.1300439E+00
        -11   -1    0    0    0    0  0.00000000000E+00  0.00000000000E+00  0.45593999997E+02  0.45594000000E+02  0.51100000000E-03 0.  1.
         11   -1    0    0    0    0 -0.00000000000E+00 -0.00000000000E+00 -0.45593999997E+02  0.45594000000E+02  0.51100000000E-03 0. -1.
    9900012    2    1    2    0    0  0.93892719101E+01  0.17342815238E+02  0.35556003049E+02  0.50528917125E+02  0.30000174094E+02 0.  0.
         12    1    1    2    0    0 -0.93892719101E+01 -0.17342815238E+02 -0.35556003049E+02  0.40659082875E+02  0.00000000000E+00 0. -1.
         11    1    3    3    0    0 -0.45080961861E+01 -0.70463471282E+00 -0.26186739795E+01  0.52608834784E+01  0.51100000000E-03 0. -1.
        -11    1    3    3    0    0  0.13506330838E+02  0.18990828057E+02  0.36409664200E+02  0.43228881207E+02  0.51100000000E-03 0.  1.
        -12    1    3    3    0    0  0.39103725780E+00 -0.94337810589E+00  0.17650128288E+01  0.20391524400E+01  0.00000000000E+00 0.  1.
</event>
<event>
 7    1  0.5849044E-013  0.5052886E+02  0.7816164E-02  0.1300439E+00
        -11   -1    0    0    0    0  0.00000000000E+00  0.00000000000E+00  0.45593999997E+02  0.45594000000E+02  0.51100000000E-03 0.  1.
         11   -1    0    0    0    0 -0.00000000000E+00 -0.00000000000E+00 -0.45593999997E+02  0.45594000000E+02  0.51100000000E-03 0. -1.
    9900012    2    1    2    0    0 -0.10005648659E+02  0.39138759116E+02  0.46054466960E+01  0.50528860689E+02  0.30000002551E+02 0.  0.
         12    1    1    2    0    0  0.10005648659E+02 -0.39138759116E+02 -0.46054466960E+01  0.40659139311E+02  0.00000000000E+00 0. -1.
         11    1    3    3    0    0 -0.97283349179E+01  0.13748210365E+02 -0.95451297792E+01  0.19358803973E+02  0.51100000000E-03 0. -1.
        -11    1    3    3    0    0 -0.45306820747E+01  0.16010287418E+02  0.12333101344E+02  0.20711392331E+02  0.51100000000E-03 0.  1.
        -12    1    3    3    0    0  0.42533683340E+01  0.93802613328E+01  0.18174751313E+01  0.10458664385E+02  0.00000000000E+00 0.  1.
</event>
<event>
 7    1  0.5849044E-013  0.5052886E+02  0.7816164E-02  0.1300439E+00
        -11   -1    0    0    0    0  0.00000000000E+00  0.00000000000E+00  0.45593999997E+02  0.45594000000E+02  0.51100000000E-03 0. -1.
         11   -1    0    0    0    0 -0.00000000000E+00 -0.00000000000E+00 -0.45593999997E+02  0.45594000000E+02  0.51100000000E-03 0.  1.
    9900012    2    1    2    0    0 -0.10837978772E+02 -0.29873616470E+02 -0.25362793353E+02  0.50528855499E+02  0.29999986776E+02 0.  0.
         12    1    1    2    0    0  0.10837978772E+02  0.29873616470E+02  0.25362793353E+02  0.40659144501E+02  0.00000000000E+00 0. -1.
         11    1    3    3    0    0  0.13788420838E+01 -0.19775686806E+02 -0.27165069426E+02  0.33629153889E+02  0.51100000000E-03 0. -1.
        -11    1    3    3    0    0 -0.62244889857E+01 -0.33249732761E+01 -0.16027649242E+01  0.72366128875E+01  0.51100000000E-03 0.  1.
         12    1    3    3    0    0 -0.59923318698E+01 -0.67729563879E+01  0.34050409971E+01  0.96630887227E+01  0.00000000000E+00 0. -1.
</event>
<event>
 7    1  0.5849044E-013  0.5052886E+02  0.7816164E-02  0.1300439E+00
        -11   -1    0    0    0    0  0.00000000000E+00  0.00000000000E+00  0.45593999997E+02  0.45594000000E+02  0.51100000000E-03 0.  1.
         11   -1    0    0    0    0 -0.00000000000E+00 -0.00000000000E+00 -0.45593999997E+02  0.45594000000E+02  0.51100000000E-03 0. -1.
    9900012    2    1    2    0    0 -0.37613333060E+02  0.15330837081E+02 -0.18353740000E+01  0.50528856044E+02  0.29999988432E+02 0.  0.
         12    1    1    2    0    0  0.37613333060E+02 -0.15330837081E+02  0.18353740000E+01  0.40659143956E+02  0.00000000000E+00 0. -1.
         11    1    3    3    0    0 -0.36246931480E+02  0.89806490952E+01 -0.83710005262E+01  0.38269645281E+02  0.51100000000E-03 0. -1.
        -11    1    3    3    0    0 -0.38751121824E+01  0.63765097163E+01  0.32843758318E+01  0.81525146706E+01  0.51100000000E-03 0.  1.
         12    1    3    3    0    0  0.25087106020E+01 -0.26321730913E-01  0.32512506944E+01  0.41066960925E+01  0.00000000000E+00 0. -1.
</event>
<event>
 7    1  0.5849044E-013  0.5052886E+02  0.7816164E-02  0.1300439E+00
        -11   -1    0    0    0    0  0.00000000000E+00  0.00000000000E+00  0.45593999997E+02  0.45594000000E+02  0.51100000000E-03 0.  1.
         11   -1    0    0    0    0 -0.00000000000E+00 -0.00000000000E+00 -0.45593999997E+02  0.45594000000E+02  0.51100000000E-03 0. -1.
    9900012    2    1    2    0    0 -0.10579610434E+02 -0.27264452801E+02  0.28246897235E+02  0.50528859000E+02  0.29999997417E+02 0.  0.
         12    1    1    2    0    0  0.10579610434E+02  0.27264452801E+02 -0.28246897235E+02  0.40659141000E+02  0.00000000000E+00 0. -1.
         11    1    3    3    0    0 -0.14984273795E+02 -0.27655616991E+01  0.13194844811E+02  0.20156406488E+02  0.51100000000E-03 0. -1.
        -11    1    3    3    0    0  0.19254326557E+01 -0.23439439961E+02  0.14472888072E+02  0.27614835252E+02  0.51100000000E-03 0.  1.
        -12    1    3    3    0    0  0.24792307053E+01 -0.10594511409E+01  0.57916435219E+00  0.27576172608E+01  0.00000000000E+00 0.  1.
</event>
<event>
 7    1  0.5849044E-013  0.5052886E+02  0.7816164E-02  0.1300439E+00
        -11   -1    0    0    0    0  0.00000000000E+00  0.00000000000E+00  0.45593999997E+02  0.45594000000E+02  0.51100000000E-03 0. -1.
         11   -1    0    0    0    0 -0.00000000000E+00 -0.00000000000E+00 -0.45593999997E+02  0.45594000000E+02  0.51100000000E-03 0.  1.
    9900012    2    1    2    0    0 -0.17599988328E+02  0.80339658737E+01 -0.35761168774E+02  0.50528863402E+02  0.30000010798E+02 0.  0.
         12    1    1    2    0    0  0.17599988328E+02 -0.80339658737E+01  0.35761168774E+02  0.40659136598E+02  0.00000000000E+00 0. -1.
         11    1    3    3    0    0 -0.52243905255E+01 -0.72753016171E+01 -0.51196024009E+01  0.10316714544E+02  0.51100000000E-03 0. -1.
        -11    1    3    3    0    0 -0.67997080466E+00  0.13073889929E+02 -0.21613661212E+02  0.25269335358E+02  0.51100000000E-03 0.  1.
        -12    1    3    3    0    0 -0.11695626998E+02  0.22353775617E+01 -0.90279051607E+01  0.14942813500E+02  0.00000000000E+00 0.  1.
</event>
<event>
 7    1  0.5849044E-013  0.5052884E+02  0.7816164E-02  0.1300439E+00
        -11   -1    0    0    0    0  0.00000000000E+00  0.00000000000E+00  0.45593999997E+02  0.45594000000E+02  0.51100000000E-03 0.  1.
         11   -1    0    0    0    0 -0.00000000000E+00 -0.00000000000E+00 -0.45593999997E+02  0.45594000000E+02  0.51100000000E-03 0. -1.
    9900012    2    1    2    0    0 -0.27636441642E+02 -0.20596345109E+02 -0.21568151332E+02  0.50528837559E+02  0.29999932244E+02 0.  0.
         12    1    1    2    0    0  0.27636441642E+02  0.20596345109E+02  0.21568151332E+02  0.40659162441E+02  0.00000000000E+00 0. -1.
         11    1    3    3    0    0 -0.47719497806E+01 -0.19312243125E+02 -0.17058026769E+02  0.26205162025E+02  0.51100000000E-03 0. -1.
        -11    1    3    3    0    0 -0.20383645001E+02 -0.32673258250E+01 -0.32107673699E+01  0.20892042240E+02  0.51100000000E-03 0.  1.
         12    1    3    3    0    0 -0.24808468603E+01  0.19832238408E+01 -0.12993571932E+01  0.34316332937E+01  0.00000000000E+00 0. -1.
</event>
<event>
 7    1  0.5849044E-013  0.5052888E+02  0.7816164E-02  0.1300439E+00
        -11   -1    0    0    0    0  0.00000000000E+00  0.00000000000E+00  0.45593999997E+02  0.45594000000E+02  0.51100000000E-03 0.  1.
         11   -1    0    0    0    0 -0.00000000000E+00 -0.00000000000E+00 -0.45593999997E+02  0.45594000000E+02  0.51100000000E-03 0. -1.
    9900012    2    1    2    0    0  0.17124815877E+02 -0.35723752798E+02  0.91497531757E+01  0.50528882744E+02  0.30000069590E+02 0.  0.
         12    1    1    2    0    0 -0.17124815877E+02  0.35723752798E+02 -0.91497531757E+01  0.40659117256E+02  0.00000000000E+00 0. -1.
         11    1    3    3    0    0 -0.52924371015E+01  0.13902454445E+01  0.29603675365E+01  0.62214507216E+01  0.51100000000E-03 0. -1.
        -11    1    3    3    0    0  0.89641555187E+01 -0.95272903201E+01  0.49094759612E+00  0.13090698026E+02  0.51100000000E-03 0.  1.
         12    1    3    3    0    0  0.13453097460E+02 -0.27586707923E+02  0.56984380431E+01  0.31216733997E+02  0.00000000000E+00 0. -1.
</event>
<event>
 7    1  0.5849044E-013  0.5052886E+02  0.7816164E-02  0.1300439E+00
        -11   -1    0    0    0    0  0.00000000000E+00  0.00000000000E+00  0.45593999997E+02  0.45594000000E+02  0.51100000000E-03 0.  1.
         11   -1    0    0    0    0 -0.00000000000E+00 -0.00000000000E+00 -0.45593999997E+02  0.45594000000E+02  0.51100000000E-03 0. -1.
    9900012    2    1    2    0    0  0.23780557359E+02  0.27773961443E+02  0.17783641164E+02  0.50528859139E+02  0.29999997838E+02 0.  0.
         12    1    1    2    0    0 -0.23780557359E+02 -0.27773961443E+02 -0.17783641164E+02  0.40659140861E+02  0.00000000000E+00 0. -1.
         11    1    3    3    0    0  0.17643473356E+01 -0.41296545424E+01 -0.91481439744E-01  0.44916964807E+01  0.51100000000E-03 0. -1.
        -11    1    3    3    0    0  0.17834342640E+02  0.30288403842E+02  0.20648841957E+02  0.40765498392E+02  0.51100000000E-03 0.  1.
        -12    1    3    3    0    0  0.41818673836E+01  0.16152121433E+01 -0.27737193539E+01  0.52716642663E+01  0.00000000000E+00 0.  1.
</event>
<event>
 7    1  0.5849044E-013  0.5052886E+02  0.7816164E-02  0.1300439E+00
        -11   -1    0    0    0    0  0.00000000000E+00  0.00000000000E+00  0.45593999997E+02  0.45594000000E+02  0.51100000000E-03 0.  1.
         11   -1    0    0    0    0 -0.00000000000E+00 -0.00000000000E+00 -0.45593999997E+02  0.45594000000E+02  0.51100000000E-03 0. -1.
    9900012    2    1    2    0    0  0.25253915612E+02  0.31129484543E+02 -0.68088782393E+01  0.50528857307E+02  0.29999992271E+02 0.  0.
         12    1    1    2    0    0 -0.25253915612E+02 -0.31129484543E+02  0.68088782393E+01  0.40659142693E+02  0.00000000000E+00 0. -1.
         11    1    3    3    0    0  0.13354290500E+02  0.12550566877E+02  0.60452549282E+01  0.19297640039E+02  0.51100000000E-03 0. -1.
        -11    1    3    3    0    0  0.10425325178E+02  0.18995267744E+02 -0.16527045134E+02  0.27251620555E+02  0.51100000000E-03 0.  1.
         12    1    3    3    0    0  0.14742999347E+01 -0.41635007803E+00  0.36729119666E+01  0.39795967132E+01  0.00000000000E+00 0. -1.
</event>
<event>
 7    1  0.5849044E-013  0.5052886E+02  0.7816164E-02  0.1300439E+00
        -11   -1    0    0    0    0  0.00000000000E+00  0.00000000000E+00  0.45593999997E+02  0.45594000000E+02  0.51100000000E-03 0.  1.
         11   -1    0    0    0    0 -0.00000000000E+00 -0.00000000000E+00 -0.45593999997E+02  0.45594000000E+02  0.51100000000E-03 0. -1.
    9900012    2    1    2    0    0  0.34307926024E+01  0.69276323159E+01  0.39917455164E+02  0.50528860140E+02  0.30000000881E+02 0.  0.
         12    1    1    2    0    0 -0.34307926024E+01 -0.69276323159E+01 -0.39917455164E+02  0.40659139860E+02  0.00000000000E+00 0. -1.
         11    1    3    3    0    0  0.10944388191E+02  0.10904230377E+02  0.15919560341E+02  0.22183648814E+02  0.51100000000E-03 0. -1.
        -11    1    3    3    0    0 -0.58440014032E+01  0.20968599437E+01  0.19862360046E+02  0.20810154273E+02  0.51100000000E-03 0.  1.
         12    1    3    3    0    0 -0.16695941858E+01 -0.60734580051E+01  0.41355347774E+01  0.75350570522E+01  0.00000000000E+00 0. -1.
</event>
<event>
 7    1  0.5849044E-013  0.5052886E+02  0.7816164E-02  0.1300439E+00
        -11   -1    0    0    0    0  0.00000000000E+00  0.00000000000E+00  0.45593999997E+02  0.45594000000E+02  0.51100000000E-03 0.  1.
         11   -1    0    0    0    0 -0.00000000000E+00 -0.00000000000E+00 -0.45593999997E+02  0.45594000000E+02  0.51100000000E-03 0. -1.
    9900012    2    1    2    0    0  0.18537627652E+02 -0.77881293018E+01  0.35339307627E+02  0.50528864981E+02  0.30000015595E+02 0.  0.
         12    1    1    2    0    0 -0.18537627652E+02  0.77881293018E+01 -0.35339307627E+02  0.40659135019E+02  0.00000000000E+00 0. -1.
         11    1    3    3    0    0  0.15034236967E+01  0.43618735228E+01  0.13227488991E+02  0.14009021690E+02  0.51100000000E-03 0. -1.
        -11    1    3    3    0    0  0.21529432666E+02 -0.11729416794E+02  0.19284738519E+02  0.31192897096E+02  0.51100000000E-03 0.  1.
        -12    1    3    3    0    0 -0.44952287109E+01 -0.42058603084E+00  0.28270801170E+01  0.53269461946E+01  0.00000000000E+00 0.  1.
</event>
<event>
 7    1  0.5849044E-013  0.5052886E+02  0.7816164E-02  0.1300439E+00
        -11   -1    0    0    0    0  0.00000000000E+00  0.00000000000E+00  0.45593999997E+02  0.45594000000E+02  0.51100000000E-03 0. -1.
         11   -1    0    0    0    0 -0.00000000000E+00 -0.00000000000E+00 -0.45593999997E+02  0.45594000000E+02  0.51100000000E-03 0.  1.
    9900012    2    1    2    0    0  0.36444394785E+02  0.74602802097E+01 -0.16410845974E+02  0.50528861327E+02  0.30000004490E+02 0.  0.
         12    1    1    2    0    0 -0.36444394785E+02 -0.74602802097E+01  0.16410845974E+02  0.40659138673E+02  0.00000000000E+00 0. -1.
         11    1    3    3    0    0  0.12517703269E+02 -0.95696078744E+01 -0.93052348975E-01  0.15756869899E+02  0.51100000000E-03 0. -1.
        -11    1    3    3    0    0  0.19811184764E+02  0.10157614025E+02 -0.14465883927E+02  0.26550366523E+02  0.51100000000E-03 0.  1.
         12    1    3    3    0    0  0.41155067519E+01  0.68722740586E+01 -0.18519096981E+01  0.82216249058E+01  0.00000000000E+00 0. -1.
</event>
<event>
 7    1  0.5849044E-013  0.5052882E+02  0.7816164E-02  0.1300439E+00
        -11   -1    0    0    0    0  0.00000000000E+00  0.00000000000E+00  0.45593999997E+02  0.45594000000E+02  0.51100000000E-03 0.  1.
         11   -1    0    0    0    0 -0.00000000000E+00 -0.00000000000E+00 -0.45593999997E+02  0.45594000000E+02  0.51100000000E-03 0. -1.
    9900012    2    1    2    0    0 -0.68031418964E+01  0.23358228913E+02  0.32577282202E+02  0.50528820061E+02  0.29999879058E+02 0.  0.
         12    1    1    2    0    0  0.68031418964E+01 -0.23358228913E+02 -0.32577282202E+02  0.40659179939E+02  0.00000000000E+00 0. -1.
         11    1    3    3    0    0 -0.11526256722E+02  0.21120098109E+01  0.44296276035E+01  0.12527441097E+02  0.51100000000E-03 0. -1.
        -11    1    3    3    0    0 -0.18680448189E+01  0.10726779401E+02  0.55561787176E+01  0.12223931853E+02  0.51100000000E-03 0.  1.
         12    1    3    3    0    0  0.65911596446E+01  0.10519439702E+02  0.22591475881E+02  0.25777447111E+02  0.00000000000E+00 0. -1.
</event>
<event>
 7    1  0.5849044E-013  0.5052886E+02  0.7816164E-02  0.1300439E+00
        -11   -1    0    0    0    0  0.00000000000E+00  0.00000000000E+00  0.45593999997E+02  0.45594000000E+02  0.51100000000E-03 0. -1.
         11   -1    0    0    0    0 -0.00000000000E+00 -0.00000000000E+00 -0.45593999997E+02  0.45594000000E+02  0.51100000000E-03 0.  1.
    9900012    2    1    2    0    0 -0.51355959648E+01 -0.37723778820E+02 -0.14272638300E+02  0.50528855414E+02  0.29999986517E+02 0.  0.
         12    1    1    2    0    0  0.51355959648E+01  0.37723778820E+02  0.14272638300E+02  0.40659144586E+02  0.00000000000E+00 0. -1.
         11    1    3    3    0    0  0.92885889529E+01 -0.16331543889E+02  0.15234773649E+01  0.18849885785E+02  0.51100000000E-03 0. -1.
        -11    1    3    3    0    0 -0.13633538415E+02 -0.19817499015E+02 -0.10774358685E+02  0.26357037813E+02  0.51100000000E-03 0.  1.
         12    1    3    3    0    0 -0.79064650304E+00 -0.15747359155E+01 -0.50217569805E+01  0.53219318172E+01  0.00000000000E+00 0. -1.
</event>
<event>
 7    1  0.5849044E-013  0.5052886E+02  0.7816164E-02  0.1300439E+00
        -11   -1    0    0    0    0  0.00000000000E+00  0.00000000000E+00  0.45593999997E+02  0.45594000000E+02  0.51100000000E-03 0.  1.
         11   -1    0    0    0    0 -0.00000000000E+00 -0.00000000000E+00 -0.45593999997E+02  0.45594000000E+02  0.51100000000E-03 0. -1.
    9900012    2    1    2    0    0 -0.20239777494E+02  0.28757264820E+02  0.20409226260E+02  0.50528863395E+02  0.30000010774E+02 0.  0.
         12    1    1    2    0    0  0.20239777494E+02 -0.28757264820E+02 -0.20409226260E+02  0.40659136605E+02  0.00000000000E+00 0. -1.
         11    1    3    3    0    0  0.31303022804E+00 -0.49821008721E+01  0.67757773939E+01  0.84160843970E+01  0.51100000000E-03 0. -1.
        -11    1    3    3    0    0 -0.85383515506E+01  0.18025142262E+02  0.52197244573E+01  0.20616855348E+02  0.51100000000E-03 0.  1.
        -12    1    3    3    0    0 -0.12014456172E+02  0.15714223430E+02  0.84137244087E+01  0.21495923650E+02  0.00000000000E+00 0.  1.
</event>
<event>
 7    1  0.5849044E-013  0.5052887E+02  0.7816164E-02  0.1300439E+00
        -11   -1    0    0    0    0  0.00000000000E+00  0.00000000000E+00  0.45593999997E+02  0.45594000000E+02  0.51100000000E-03 0.  1.
         11   -1    0    0    0    0 -0.00000000000E+00 -0.00000000000E+00 -0.45593999997E+02  0.45594000000E+02  0.51100000000E-03 0. -1.
    9900012    2    1    2    0    0 -0.18383974251E+02  0.24383775164E+01  0.36183542856E+02  0.50528868581E+02  0.30000026538E+02 0.  0.
         12    1    1    2    0    0  0.18383974251E+02 -0.24383775164E+01 -0.36183542856E+02  0.40659131419E+02  0.00000000000E+00 0. -1.
         11    1    3    3    0    0 -0.15167299804E+01 -0.50090757146E+01 -0.23367749205E+01  0.57316513012E+01  0.51100000000E-03 0. -1.
        -11    1    3    3    0    0 -0.16751922803E+02  0.21608817085E+01  0.33443237589E+02  0.37466604704E+02  0.51100000000E-03 0.  1.
         12    1    3    3    0    0 -0.11532146749E+00  0.52865715225E+01  0.50770801870E+01  0.73306125753E+01  0.00000000000E+00 0. -1.
</event>
<event>
 7    1  0.5849044E-013  0.5052886E+02  0.7816164E-02  0.1300439E+00
        -11   -1    0    0    0    0  0.00000000000E+00  0.00000000000E+00  0.45593999997E+02  0.45594000000E+02  0.51100000000E-03 0. -1.
         11   -1    0    0    0    0 -0.00000000000E+00 -0.00000000000E+00 -0.45593999997E+02  0.45594000000E+02  0.51100000000E-03 0.  1.
    9900012    2    1    2    0    0 -0.21112394373E+02  0.14922055347E+02 -0.31380965003E+02  0.50528857160E+02  0.29999991823E+02 0.  0.
         12    1    1    2    0    0  0.21112394373E+02 -0.14922055347E+02  0.31380965003E+02  0.40659142840E+02  0.00000000000E+00 0. -1.
         11    1    3    3    0    0 -0.25018557805E+02  0.15787117142E+02 -0.15712547548E+02  0.33496946921E+02  0.51100000000E-03 0. -1.
        -11    1    3    3    0    0  0.18531638452E+01  0.56583225554E+00 -0.10558741965E+01  0.22066383842E+01  0.51100000000E-03 0.  1.
         12    1    3    3    0    0  0.20529995861E+01 -0.14308940509E+01 -0.14612543259E+02  0.14825271855E+02  0.00000000000E+00 0. -1.
</event>
<event>
 7    1  0.5849044E-013  0.5052888E+02  0.7816164E-02  0.1300439E+00
        -11   -1    0    0    0    0  0.00000000000E+00  0.00000000000E+00  0.45593999997E+02  0.45594000000E+02  0.51100000000E-03 0. -1.
         11   -1    0    0    0    0 -0.00000000000E+00 -0.00000000000E+00 -0.45593999997E+02  0.45594000000E+02  0.51100000000E-03 0.  1.
    9900012    2    1    2    0    0 -0.25890199352E+01 -0.25765186196E+02 -0.31346703640E+02  0.50528884503E+02  0.30000074934E+02 0.  0.
         12    1    1    2    0    0  0.25890199352E+01  0.25765186196E+02  0.31346703640E+02  0.40659115497E+02  0.00000000000E+00 0. -1.
         11    1    3    3    0    0  0.28011551468E+00 -0.50342134381E+00  0.55278064196E+00  0.79841370868E+00  0.51100000000E-03 0. -1.
        -11    1    3    3    0    0  0.58770054633E+01 -0.17819069801E+02 -0.33238099881E+02  0.38168438870E+02  0.51100000000E-03 0.  1.
        -12    1    3    3    0    0 -0.87461409132E+01 -0.74426950505E+01  0.13386155991E+01  0.11562031924E+02  0.00000000000E+00 0.  1.
</event>
<event>
 7    1  0.5849044E-013  0.5052890E+02  0.7816164E-02  0.1300439E+00
        -11   -1    0    0    0    0  0.00000000000E+00  0.00000000000E+00  0.45593999997E+02  0.45594000000E+02  0.51100000000E-03 0. -1.
         11   -1    0    0    0    0 -0.00000000000E+00 -0.00000000000E+00 -0.45593999997E+02  0.45594000000E+02  0.51100000000E-03 0.  1.
    9900012    2    1    2    0    0  0.32196934062E+02 -0.18431494391E+02 -0.16637306664E+02  0.50528898663E+02  0.30000117977E+02 0.  0.
         12    1    1    2    0    0 -0.32196934062E+02  0.18431494391E+02  0.16637306664E+02  0.40659101337E+02  0.00000000000E+00 0. -1.
         11    1    3    3    0    0  0.23404838736E+02 -0.13555888347E+01 -0.39449642973E+01  0.23773658551E+02  0.51100000000E-03 0. -1.
        -11    1    3    3    0    0  0.15501228390E+01 -0.16002704294E+02 -0.10109756756E+02  0.18992014308E+02  0.51100000000E-03 0.  1.
        -12    1    3    3    0    0  0.72419724867E+01 -0.10732012618E+01 -0.25825856115E+01  0.77632258042E+01  0.00000000000E+00 0.  1.
</event>
<event>
 7    1  0.5849044E-013  0.5052887E+02  0.7816164E-02  0.1300439E+00
        -11   -1    0    0    0    0  0.00000000000E+00  0.00000000000E+00  0.45593999997E+02  0.45594000000E+02  0.51100000000E-03 0.  1.
         11   -1    0    0    0    0 -0.00000000000E+00 -0.00000000000E+00 -0.45593999997E+02  0.45594000000E+02  0.51100000000E-03 0. -1.
    9900012    2    1    2    0    0 -0.14088843726E+02  0.22904346460E+02  0.30496893704E+02  0.50528866588E+02  0.30000020479E+02 0.  0.
         12    1    1    2    0    0  0.14088843726E+02 -0.22904346460E+02 -0.30496893704E+02  0.40659133412E+02  0.00000000000E+00 0. -1.
         11    1    3    3    0    0  0.43286583337E+00 -0.13696191933E+01  0.17486325332E+02  0.17545221669E+02  0.51100000000E-03 0. -1.
        -11    1    3    3    0    0 -0.63058345029E+01  0.95203966659E+01 -0.38958204420E+00  0.11425991243E+02  0.51100000000E-03 0.  1.
         12    1    3    3    0    0 -0.82158750564E+01  0.14753568987E+02  0.13400150416E+02  0.21557653675E+02  0.00000000000E+00 0. -1.
</event>
<event>
 7    1  0.5849044E-013  0.5052885E+02  0.7816164E-02  0.1300439E+00
        -11   -1    0    0    0    0  0.00000000000E+00  0.00000000000E+00  0.45593999997E+02  0.45594000000E+02  0.51100000000E-03 0.  1.
         11   -1    0    0    0    0 -0.00000000000E+00 -0.00000000000E+00 -0.45593999997E+02  0.45594000000E+02  0.51100000000E-03 0. -1.
    9900012    2    1    2    0    0 -0.20449986592E+02  0.29586011740E+02  0.18963979786E+02  0.50528848858E+02  0.29999966588E+02 0.  0.
         12    1    1    2    0    0  0.20449986592E+02 -0.29586011740E+02 -0.18963979786E+02  0.40659151142E+02  0.00000000000E+00 0. -1.
         11    1    3    3    0    0 -0.35726248082E+01  0.39295533328E+01 -0.25771066038E+01  0.59030937756E+01  0.51100000000E-03 0. -1.
        -11    1    3    3    0    0 -0.30235106272E+01  0.15832122635E+02  0.22427796907E+02  0.27618902911E+02  0.51100000000E-03 0.  1.
        -12    1    3    3    0    0 -0.13853851156E+02  0.98243357721E+01 -0.88671051776E+00  0.17006852171E+02  0.00000000000E+00 0.  1.
</event>
<event>
 7    1  0.5849044E-013  0.5052886E+02  0.7816164E-02  0.1300439E+00
        -11   -1    0    0    0    0  0.00000000000E+00  0.00000000000E+00  0.45593999997E+02  0.45594000000E+02  0.51100000000E-03 0. -1.
         11   -1    0    0    0    0 -0.00000000000E+00 -0.00000000000E+00 -0.45593999997E+02  0.45594000000E+02  0.51100000000E-03 0.  1.
    9900012    2    1    2    0    0  0.10136726454E+02 -0.36968202170E+02  0.13555979276E+02  0.50528858728E+02  0.29999996588E+02 0.  0.
         12    1    1    2    0    0 -0.10136726454E+02  0.36968202170E+02 -0.13555979276E+02  0.40659141272E+02  0.00000000000E+00 0. -1.
         11    1    3    3    0    0  0.81925291827E+00  0.14380529877E+01 -0.58132906507E+01  0.60442965008E+01  0.51100000000E-03 0. -1.
        -11    1    3    3    0    0  0.99349908472E+01 -0.29692820203E+02  0.15203266659E+02  0.34806708148E+02  0.51100000000E-03 0.  1.
         12    1    3    3    0    0 -0.61751731201E+00 -0.87134349542E+01  0.41660032681E+01  0.96778540784E+01  0.00000000000E+00 0. -1.
</event>
<event>
 7    1  0.5849044E-013  0.5052885E+02  0.7816164E-02  0.1300439E+00
        -11   -1    0    0    0    0  0.00000000000E+00  0.00000000000E+00  0.45593999997E+02  0.45594000000E+02  0.51100000000E-03 0.  1.
         11   -1    0    0    0    0 -0.00000000000E+00 -0.00000000000E+00 -0.45593999997E+02  0.45594000000E+02  0.51100000000E-03 0. -1.
    9900012    2    1    2    0    0  0.22007816594E+02  0.23803968016E+01  0.34105075273E+02  0.50528850481E+02  0.29999971524E+02 0.  0.
         12    1    1    2    0    0 -0.22007816594E+02 -0.23803968016E+01 -0.34105075273E+02  0.40659149519E+02  0.00000000000E+00 0. -1.
         11    1    3    3    0    0  0.40368313907E+01  0.68601470624E+01  0.17157085271E+01  0.81425598805E+01  0.51100000000E-03 0. -1.
        -11    1    3    3    0    0  0.11516544181E+01 -0.62982855560E+01  0.21094854366E+02  0.22045126214E+02  0.51100000000E-03 0.  1.
        -12    1    3    3    0    0  0.16819330786E+02  0.18185352951E+01  0.11294512380E+02  0.20341164387E+02  0.00000000000E+00 0.  1.
</event>
<event>
 7    1  0.5849044E-013  0.5052887E+02  0.7816164E-02  0.1300439E+00
        -11   -1    0    0    0    0  0.00000000000E+00  0.00000000000E+00  0.45593999997E+02  0.45594000000E+02  0.51100000000E-03 0.  1.
         11   -1    0    0    0    0 -0.00000000000E+00 -0.00000000000E+00 -0.45593999997E+02  0.45594000000E+02  0.51100000000E-03 0. -1.
    9900012    2    1    2    0    0 -0.21897989115E+02 -0.11796352900E+02  0.32163473828E+02  0.50528869196E+02  0.30000028409E+02 0.  0.
         12    1    1    2    0    0  0.21897989115E+02  0.11796352900E+02 -0.32163473828E+02  0.40659130804E+02  0.00000000000E+00 0. -1.
         11    1    3    3    0    0  0.12512886199E+01 -0.38204272322E+00 -0.10673069814E+01  0.16884384225E+01  0.51100000000E-03 0. -1.
        -11    1    3    3    0    0 -0.16807333137E+02  0.15511733368E+00  0.31271171368E+02  0.35502065680E+02  0.51100000000E-03 0.  1.
        -12    1    3    3    0    0 -0.63419445983E+01 -0.11569427511E+02  0.19596094417E+01  0.13338365094E+02  0.00000000000E+00 0.  1.
</event>
<event>
 7    1  0.5849044E-013  0.5052886E+02  0.7816164E-02  0.1300439E+00
        -11   -1    0    0    0    0  0.00000000000E+00  0.00000000000E+00  0.45593999997E+02  0.45594000000E+02  0.51100000000E-03 0. -1.
         11   -1    0    0    0    0 -0.00000000000E+00 -0.00000000000E+00 -0.45593999997E+02  0.45594000000E+02  0.51100000000E-03 0.  1.
    9900012    2    1    2    0    0  0.39181163313E+00 -0.18901859429E+02 -0.35996275797E+02  0.50528859854E+02  0.30000000011E+02 0.  0.
         12    1    1    2    0    0 -0.39181163313E+00  0.18901859429E+02  0.35996275797E+02  0.40659140146E+02  0.00000000000E+00 0. -1.
         11    1    3    3    0    0 -0.82237730013E+01 -0.18350160271E+02 -0.13899543359E+02  0.24444961244E+02  0.51100000000E-03 0. -1.
        -11    1    3    3    0    0  0.20177677992E+01  0.46644254125E+01 -0.55699412804E+01  0.75400595122E+01  0.51100000000E-03 0.  1.
         12    1    3    3    0    0  0.65978168352E+01 -0.52161245698E+01 -0.16526791157E+02  0.18543839097E+02  0.00000000000E+00 0. -1.
</event>
<event>
 7    1  0.5849044E-013  0.5052886E+02  0.7816164E-02  0.1300439E+00
        -11   -1    0    0    0    0  0.00000000000E+00  0.00000000000E+00  0.45593999997E+02  0.45594000000E+02  0.51100000000E-03 0.  1.
         11   -1    0    0    0    0 -0.00000000000E+00 -0.00000000000E+00 -0.45593999997E+02  0.45594000000E+02  0.51100000000E-03 0. -1.
    9900012    2    1    2    0    0  0.24753599851E+02  0.22664127346E+02  0.22951296405E+02  0.50528863504E+02  0.30000011106E+02 0.  0.
         12    1    1    2    0    0 -0.24753599851E+02 -0.22664127346E+02 -0.22951296405E+02  0.40659136496E+02  0.00000000000E+00 0. -1.
         11    1    3    3    0    0  0.12158408730E+02  0.24156311366E+00  0.68509227413E+01  0.13957807788E+02  0.51100000000E-03 0. -1.
        -11    1    3    3    0    0  0.71111100469E+01  0.21708838806E+02  0.19537883626E+02  0.30059448851E+02  0.51100000000E-03 0.  1.
        -12    1    3    3    0    0  0.54840810747E+01  0.71372542651E+00 -0.34375099624E+01  0.65116068647E+01  0.00000000000E+00 0.  1.
</event>
<event>
 7    1  0.5849044E-013  0.5052886E+02  0.7816164E-02  0.1300439E+00
        -11   -1    0    0    0    0  0.00000000000E+00  0.00000000000E+00  0.45593999997E+02  0.45594000000E+02  0.51100000000E-03 0. -1.
         11   -1    0    0    0    0 -0.00000000000E+00 -0.00000000000E+00 -0.45593999997E+02  0.45594000000E+02  0.51100000000E-03 0.  1.
    9900012    2    1    2    0    0 -0.13090306130E+02  0.10300620325E+02 -0.37090518921E+02  0.50528862189E+02  0.30000007111E+02 0.  0.
         12    1    1    2    0    0  0.13090306130E+02 -0.10300620325E+02  0.37090518921E+02  0.40659137811E+02  0.00000000000E+00 0. -1.
         11    1    3    3    0    0  0.18233186958E+01 -0.32019953199E+01  0.16495406662E+01  0.40371090852E+01  0.51100000000E-03 0. -1.
        -11    1    3    3    0    0 -0.67064937754E+01  0.52791131423E+01 -0.31872723158E+02  0.32995705419E+02  0.51100000000E-03 0.  1.
         12    1    3    3    0    0 -0.82071310506E+01  0.82235025024E+01 -0.68673364298E+01  0.13496047686E+02  0.00000000000E+00 0. -1.
</event>
<event>
 7    1  0.5849044E-013  0.5052882E+02  0.7816164E-02  0.1300439E+00
        -11   -1    0    0    0    0  0.00000000000E+00  0.00000000000E+00  0.45593999997E+02  0.45594000000E+02  0.51100000000E-03 0.  1.
         11   -1    0    0    0    0 -0.00000000000E+00 -0.00000000000E+00 -0.45593999997E+02  0.45594000000E+02  0.51100000000E-03 0. -1.
    9900012    2    1    2    0    0  0.22165816629E+02 -0.32364489288E+02  0.10695093884E+02  0.50528823583E+02  0.29999889764E+02 0.  0.
         12    1    1    2    0    0 -0.22165816629E+02  0.32364489288E+02 -0.10695093884E+02  0.40659176417E+02  0.00000000000E+00 0. -1.
         11    1    3    3    0    0  0.26417969319E+01 -0.65913565520E+01 -0.83015606494E+01  0.10924329806E+02  0.51100000000E-03 0. -1.
        -11    1    3    3    0    0  0.71285431354E+01 -0.14849267684E+02  0.32677309599E+01  0.16792705079E+02  0.51100000000E-03 0.  1.
         12    1    3    3    0    0  0.12395476561E+02 -0.10923865052E+02  0.15728923573E+02  0.22811788699E+02  0.00000000000E+00 0. -1.
</event>
<event>
 7    1  0.5849044E-013  0.5052884E+02  0.7816164E-02  0.1300439E+00
        -11   -1    0    0    0    0  0.00000000000E+00  0.00000000000E+00  0.45593999997E+02  0.45594000000E+02  0.51100000000E-03 0.  1.
         11   -1    0    0    0    0 -0.00000000000E+00 -0.00000000000E+00 -0.45593999997E+02  0.45594000000E+02  0.51100000000E-03 0. -1.
    9900012    2    1    2    0    0  0.24569231611E+01 -0.22247198803E+02  0.33943971716E+02  0.50528836926E+02  0.29999930321E+02 0.  0.
         12    1    1    2    0    0 -0.24569231611E+01  0.22247198803E+02 -0.33943971716E+02  0.40659163074E+02  0.00000000000E+00 0. -1.
         11    1    3    3    0    0 -0.96957316820E+01 -0.15157363861E+02  0.16937883152E+02  0.24711227772E+02  0.51100000000E-03 0. -1.
        -11    1    3    3    0    0  0.56868390535E+01 -0.10284211390E+02  0.77231033004E+01  0.14062413277E+02  0.51100000000E-03 0.  1.
         12    1    3    3    0    0  0.64658157896E+01  0.31943764475E+01  0.92829852635E+01  0.11755195877E+02  0.00000000000E+00 0. -1.
</event>
<event>
 7    1  0.5849044E-013  0.5052886E+02  0.7816164E-02  0.1300439E+00
        -11   -1    0    0    0    0  0.00000000000E+00  0.00000000000E+00  0.45593999997E+02  0.45594000000E+02  0.51100000000E-03 0.  1.
         11   -1    0    0    0    0 -0.00000000000E+00 -0.00000000000E+00 -0.45593999997E+02  0.45594000000E+02  0.51100000000E-03 0. -1.
    9900012    2    1    2    0    0  0.78605619286E+01 -0.24426877686E+00  0.39891326012E+02  0.50528855984E+02  0.29999988250E+02 0.  0.
         12    1    1    2    0    0 -0.78605619286E+01  0.24426877686E+00 -0.39891326012E+02  0.40659144016E+02  0.00000000000E+00 0. -1.
         11    1    3    3    0    0  0.15519776888E+02 -0.10594988712E+01  0.19760078173E+02  0.25148493040E+02  0.51100000000E-03 0. -1.
        -11    1    3    3    0    0 -0.78948852061E+01 -0.51888177498E+01  0.12242614454E+02  0.15463979145E+02  0.51100000000E-03 0.  1.
         12    1    3    3    0    0  0.23567024686E+00  0.60040478442E+01  0.78886333847E+01  0.99163837995E+01  0.00000000000E+00 0. -1.
</event>
<event>
 7    1  0.5849044E-013  0.5052886E+02  0.7816164E-02  0.1300439E+00
        -11   -1    0    0    0    0  0.00000000000E+00  0.00000000000E+00  0.45593999997E+02  0.45594000000E+02  0.51100000000E-03 0. -1.
         11   -1    0    0    0    0 -0.00000000000E+00 -0.00000000000E+00 -0.45593999997E+02  0.45594000000E+02  0.51100000000E-03 0.  1.
    9900012    2    1    2    0    0 -0.48904261741E+01  0.38087078251E+02 -0.13365026152E+02  0.50528859307E+02  0.29999998351E+02 0.  0.
         12    1    1    2    0    0  0.48904261741E+01 -0.38087078251E+02  0.13365026152E+02  0.40659140693E+02  0.00000000000E+00 0. -1.
         11    1    3    3    0    0 -0.81937804316E+01  0.19117362186E+02  0.12639746144E+01  0.20837687175E+02  0.51100000000E-03 0. -1.
        -11    1    3    3    0    0  0.67497012365E+01  0.26715784968E+01 -0.10081569104E+02  0.12423116932E+02  0.51100000000E-03 0.  1.
        -12    1    3    3    0    0 -0.34463469789E+01  0.16298137568E+02 -0.45474316616E+01  0.17268055201E+02  0.00000000000E+00 0.  1.
</event>
<event>
 7    1  0.5849044E-013  0.5052886E+02  0.7816164E-02  0.1300439E+00
        -11   -1    0    0    0    0  0.00000000000E+00  0.00000000000E+00  0.45593999997E+02  0.45594000000E+02  0.51100000000E-03 0.  1.
         11   -1    0    0    0    0 -0.00000000000E+00 -0.00000000000E+00 -0.45593999997E+02  0.45594000000E+02  0.51100000000E-03 0. -1.
    9900012    2    1    2    0    0  0.19068920727E+02 -0.23634740661E+02  0.27035913940E+02  0.50528863925E+02  0.30000012388E+02 0.  0.
         12    1    1    2    0    0 -0.19068920727E+02  0.23634740661E+02 -0.27035913940E+02  0.40659136075E+02  0.00000000000E+00 0. -1.
         11    1    3    3    0    0  0.72469658040E+01 -0.88389718462E+01  0.21124701069E+02  0.24018720452E+02  0.51100000000E-03 0.  1.
        -11    1    3    3    0    0  0.66796792292E+01 -0.17401163752E+02  0.56456256645E+00  0.18647716903E+02  0.51100000000E-03 0. -1.
        -12    1    3    3    0    0  0.51422756937E+01  0.26053949379E+01  0.53466503043E+01  0.78624265700E+01  0.00000000000E+00 0.  1.
</event>
<event>
 7    1  0.5849044E-013  0.5052886E+02  0.7816164E-02  0.1300439E+00
        -11   -1    0    0    0    0  0.00000000000E+00  0.00000000000E+00  0.45593999997E+02  0.45594000000E+02  0.51100000000E-03 0.  1.
         11   -1    0    0    0    0 -0.00000000000E+00 -0.00000000000E+00 -0.45593999997E+02  0.45594000000E+02  0.51100000000E-03 0. -1.
    9900012    2    1    2    0    0 -0.22449182172E+02 -0.11930730709E+02  0.31731021818E+02  0.50528857596E+02  0.29999993148E+02 0.  0.
         12    1    1    2    0    0  0.22449182172E+02  0.11930730709E+02 -0.31731021818E+02  0.40659142404E+02  0.00000000000E+00 0. -1.
         11    1    3    3    0    0  0.31377996423E+01 -0.53969298562E+01  0.15703149151E+02  0.16898565974E+02  0.51100000000E-03 0. -1.
        -11    1    3    3    0    0 -0.10780926491E+02  0.36629517823E+01  0.43290642157E+01  0.12181395200E+02  0.51100000000E-03 0.  1.
         12    1    3    3    0    0 -0.14806055323E+02 -0.10196752635E+02  0.11698808451E+02  0.21448896422E+02  0.00000000000E+00 0. -1.
</event>
<event>
 7    1  0.5849044E-013  0.5052886E+02  0.7816164E-02  0.1300439E+00
        -11   -1    0    0    0    0  0.00000000000E+00  0.00000000000E+00  0.45593999997E+02  0.45594000000E+02  0.51100000000E-03 0.  1.
         11   -1    0    0    0    0 -0.00000000000E+00 -0.00000000000E+00 -0.45593999997E+02  0.45594000000E+02  0.51100000000E-03 0. -1.
    9900012    2    1    2    0    0 -0.17840839125E+01  0.16492746094E+02  0.37121044993E+02  0.50528860677E+02  0.30000002515E+02 0.  0.
         12    1    1    2    0    0  0.17840839125E+01 -0.16492746094E+02 -0.37121044993E+02  0.40659139323E+02  0.00000000000E+00 0. -1.
         11    1    3    3    0    0  0.11134333117E+02  0.16579090634E+01  0.13338507874E+02  0.17453877190E+02  0.51100000000E-03 0. -1.
        -11    1    3    3    0    0 -0.11790251129E+02  0.15131395380E+02  0.24918476799E+02  0.31446774621E+02  0.51100000000E-03 0.  1.
         12    1    3    3    0    0 -0.11281659002E+01 -0.29655834976E+00 -0.11359396800E+01  0.16282088655E+01  0.00000000000E+00 0. -1.
</event>
<event>
 7    1  0.5849044E-013  0.5052886E+02  0.7816164E-02  0.1300439E+00
        -11   -1    0    0    0    0  0.00000000000E+00  0.00000000000E+00  0.45593999997E+02  0.45594000000E+02  0.51100000000E-03 0.  1.
         11   -1    0    0    0    0 -0.00000000000E+00 -0.00000000000E+00 -0.45593999997E+02  0.45594000000E+02  0.51100000000E-03 0. -1.
    9900012    2    1    2    0    0 -0.33149889644E+02 -0.15208936398E+02  0.17970500227E+02  0.50528858246E+02  0.29999995124E+02 0.  0.
         12    1    1    2    0    0  0.33149889644E+02  0.15208936398E+02 -0.17970500227E+02  0.40659141754E+02  0.00000000000E+00 0. -1.
         11    1    3    3    0    0 -0.18020511524E+02  0.32191503409E+01 -0.15486021551E+01  0.18371171259E+02  0.51100000000E-03 0. -1.
        -11    1    3    3    0    0 -0.43704328626E+01 -0.11024801817E+02  0.57495304133E+01  0.13179682802E+02  0.51100000000E-03 0.  1.
         12    1    3    3    0    0 -0.10758945257E+02 -0.74032849218E+01  0.13769571968E+02  0.18978004186E+02  0.00000000000E+00 0. -1.
</event>
<event>
 7    1  0.5849044E-013  0.5052885E+02  0.7816164E-02  0.1300439E+00
        -11   -1    0    0    0    0  0.00000000000E+00  0.00000000000E+00  0.45593999997E+02  0.45594000000E+02  0.51100000000E-03 0.  1.
         11   -1    0    0    0    0 -0.00000000000E+00 -0.00000000000E+00 -0.45593999997E+02  0.45594000000E+02  0.51100000000E-03 0. -1.
    9900012    2    1    2    0    0  0.84756233330E+01  0.39744051868E+02 -0.13191854472E+01  0.50528854657E+02  0.29999984215E+02 0.  0.
         12    1    1    2    0    0 -0.84756233330E+01 -0.39744051868E+02  0.13191854472E+01  0.40659145343E+02  0.00000000000E+00 0. -1.
         11    1    3    3    0    0  0.29105115644E+01  0.14311365531E+02 -0.12719182674E+02  0.19366565753E+02  0.51100000000E-03 0. -1.
        -11    1    3    3    0    0  0.35845802921E+01  0.17604451457E+01  0.53009043904E+01  0.66368645156E+01  0.51100000000E-03 0.  1.
         12    1    3    3    0    0  0.19805314765E+01  0.23672241192E+02  0.60990928363E+01  0.24525424388E+02  0.00000000000E+00 0. -1.
</event>
<event>
 7    1  0.5849044E-013  0.5052885E+02  0.7816164E-02  0.1300439E+00
        -11   -1    0    0    0    0  0.00000000000E+00  0.00000000000E+00  0.45593999997E+02  0.45594000000E+02  0.51100000000E-03 0. -1.
         11   -1    0    0    0    0 -0.00000000000E+00 -0.00000000000E+00 -0.45593999997E+02  0.45594000000E+02  0.51100000000E-03 0.  1.
    9900012    2    1    2    0    0 -0.12619017584E+02  0.18245719690E+01 -0.38608259100E+02  0.50528851726E+02  0.29999975305E+02 0.  0.
         12    1    1    2    0    0  0.12619017584E+02 -0.18245719690E+01  0.38608259100E+02  0.40659148274E+02  0.00000000000E+00 0. -1.
         11    1    3    3    0    0 -0.20046036936E+02  0.83001184447E+01 -0.28559086485E+02  0.35865819162E+02  0.51100000000E-03 0. -1.
        -11    1    3    3    0    0  0.42062052821E+01 -0.20662756844E+01 -0.69562833867E+01  0.83875823034E+01  0.51100000000E-03 0.  1.
         12    1    3    3    0    0  0.32208140705E+01 -0.44092707913E+01 -0.30928892289E+01  0.62754502604E+01  0.00000000000E+00 0. -1.
</event>
<event>
 7    1  0.5849044E-013  0.5052886E+02  0.7816164E-02  0.1300439E+00
        -11   -1    0    0    0    0  0.00000000000E+00  0.00000000000E+00  0.45593999997E+02  0.45594000000E+02  0.51100000000E-03 0.  1.
         11   -1    0    0    0    0 -0.00000000000E+00 -0.00000000000E+00 -0.45593999997E+02  0.45594000000E+02  0.51100000000E-03 0. -1.
    9900012    2    1    2    0    0 -0.31061551527E+02  0.20737573651E+02  0.16071667103E+02  0.50528862926E+02  0.30000009348E+02 0.  0.
         12    1    1    2    0    0  0.31061551527E+02 -0.20737573651E+02 -0.16071667103E+02  0.40659137074E+02  0.00000000000E+00 0. -1.
         11    1    3    3    0    0 -0.15441159961E+02 -0.45476878068E+01  0.86875062278E+01  0.18291627868E+02  0.51100000000E-03 0. -1.
        -11    1    3    3    0    0 -0.63334295317E+01  0.14587100260E+02  0.84904529673E+01  0.18027301947E+02  0.51100000000E-03 0.  1.
         12    1    3    3    0    0 -0.92869620343E+01  0.10698161198E+02 -0.11062920922E+01  0.14209933111E+02  0.00000000000E+00 0. -1.
</event>
<event>
 7    1  0.5849044E-013  0.5052886E+02  0.7816164E-02  0.1300439E+00
        -11   -1    0    0    0    0  0.00000000000E+00  0.00000000000E+00  0.45593999997E+02  0.45594000000E+02  0.51100000000E-03 0.  1.
         11   -1    0    0    0    0 -0.00000000000E+00 -0.00000000000E+00 -0.45593999997E+02  0.45594000000E+02  0.51100000000E-03 0. -1.
    9900012    2    1    2    0    0 -0.39576270332E+00  0.28540524110E+02  0.28955953605E+02  0.50528863342E+02  0.30000010615E+02 0.  0.
         12    1    1    2    0    0  0.39576270332E+00 -0.28540524110E+02 -0.28955953605E+02  0.40659136658E+02  0.00000000000E+00 0. -1.
         11    1    3    3    0    0 -0.11818216192E+02  0.46942914434E+01  0.11814928531E+02  0.17357970578E+02  0.51100000000E-03 0. -1.
        -11    1    3    3    0    0  0.91088933527E+01  0.22381446165E+02  0.18182993926E+02  0.30241070399E+02  0.51100000000E-03 0.  1.
        -12    1    3    3    0    0  0.23135601365E+01  0.14647865020E+01 -0.10419688518E+01  0.29298223649E+01  0.00000000000E+00 0.  1.
</event>
<event>
 7    1  0.5849044E-013  0.5052886E+02  0.7816164E-02  0.1300439E+00
        -11   -1    0    0    0    0  0.00000000000E+00  0.00000000000E+00  0.45593999997E+02  0.45594000000E+02  0.51100000000E-03 0. -1.
         11   -1    0    0    0    0 -0.00000000000E+00 -0.00000000000E+00 -0.45593999997E+02  0.45594000000E+02  0.51100000000E-03 0.  1.
    9900012    2    1    2    0    0 -0.13895171065E+02 -0.36488513168E+02 -0.11343648573E+02  0.50528859145E+02  0.29999997858E+02 0.  0.
         12    1    1    2    0    0  0.13895171065E+02  0.36488513168E+02  0.11343648573E+02  0.40659140855E+02  0.00000000000E+00 0. -1.
         11    1    3    3    0    0  0.55233816548E+01 -0.11004787989E+01  0.31998534515E+01  0.64774887776E+01  0.51100000000E-03 0. -1.
        -11    1    3    3    0    0 -0.14443682408E+02 -0.16913305618E+02 -0.10002289279E+02  0.24386997755E+02  0.51100000000E-03 0.  1.
         12    1    3    3    0    0 -0.49748703115E+01 -0.18474728751E+02 -0.45412127448E+01  0.19664372612E+02  0.00000000000E+00 0. -1.
</event>
<event>
 7    1  0.5849044E-013  0.5052885E+02  0.7816164E-02  0.1300439E+00
        -11   -1    0    0    0    0  0.00000000000E+00  0.00000000000E+00  0.45593999997E+02  0.45594000000E+02  0.51100000000E-03 0.  1.
         11   -1    0    0    0    0 -0.00000000000E+00 -0.00000000000E+00 -0.45593999997E+02  0.45594000000E+02  0.51100000000E-03 0. -1.
    9900012    2    1    2    0    0 -0.15314930005E+02  0.90228622923E+01  0.36567842059E+02  0.50528853454E+02  0.29999980558E+02 0.  0.
         12    1    1    2    0    0  0.15314930005E+02 -0.90228622923E+01 -0.36567842059E+02  0.40659146546E+02  0.00000000000E+00 0. -1.
         11    1    3    3    0    0 -0.10204666208E+02  0.14376641752E+02  0.25970133128E+02  0.31389024442E+02  0.51100000000E-03 0. -1.
        -11    1    3    3    0    0 -0.54755819024E+01 -0.38768566512E+01 -0.15593558808E+01  0.68879318876E+01  0.51100000000E-03 0.  1.
         12    1    3    3    0    0  0.36531810482E+00 -0.14769228083E+01  0.12157064812E+02  0.12251897124E+02  0.00000000000E+00 0. -1.
</event>
<event>
 7    1  0.5849044E-013  0.5052886E+02  0.7816164E-02  0.1300439E+00
        -11   -1    0    0    0    0  0.00000000000E+00  0.00000000000E+00  0.45593999997E+02  0.45594000000E+02  0.51100000000E-03 0.  1.
         11   -1    0    0    0    0 -0.00000000000E+00 -0.00000000000E+00 -0.45593999997E+02  0.45594000000E+02  0.51100000000E-03 0. -1.
    9900012    2    1    2    0    0  0.13027139181E+02  0.12139467583E+02  0.36552599427E+02  0.50528861380E+02  0.30000004650E+02 0.  0.
         12    1    1    2    0    0 -0.13027139181E+02 -0.12139467583E+02 -0.36552599427E+02  0.40659138620E+02  0.00000000000E+00 0. -1.
         11    1    3    3    0    0 -0.85113019743E+01  0.52759286741E+01  0.14035076680E+02  0.17241260463E+02  0.51100000000E-03 0. -1.
        -11    1    3    3    0    0  0.19892725526E+02  0.36319228381E+01  0.15832582227E+02  0.25682329579E+02  0.51100000000E-03 0.  1.
        -12    1    3    3    0    0  0.16457156291E+01  0.32316160713E+01  0.66849405207E+01  0.76052713384E+01  0.00000000000E+00 0.  1.
</event>
<event>
 7    1  0.5849044E-013  0.5052886E+02  0.7816164E-02  0.1300439E+00
        -11   -1    0    0    0    0  0.00000000000E+00  0.00000000000E+00  0.45593999997E+02  0.45594000000E+02  0.51100000000E-03 0.  1.
         11   -1    0    0    0    0 -0.00000000000E+00 -0.00000000000E+00 -0.45593999997E+02  0.45594000000E+02  0.51100000000E-03 0. -1.
    9900012    2    1    2    0    0  0.37434148492E+02 -0.14894503535E+02  0.54775991928E+01  0.50528858324E+02  0.29999995363E+02 0.  0.
         12    1    1    2    0    0 -0.37434148492E+02  0.14894503535E+02 -0.54775991928E+01  0.40659141676E+02  0.00000000000E+00 0. -1.
         11    1    3    3    0    0  0.26308087779E+02 -0.19226275668E+02  0.98868211124E+00  0.32599733914E+02  0.51100000000E-03 0. -1.
        -11    1    3    3    0    0  0.71582711924E+01  0.43027562236E+01  0.87572182099E+01  0.12101381269E+02  0.51100000000E-03 0.  1.
         12    1    3    3    0    0  0.39677895204E+01  0.29015909356E-01 -0.42683011283E+01  0.58277431415E+01  0.00000000000E+00 0. -1.
</event>
<event>
 7    1  0.5849044E-013  0.5052886E+02  0.7816164E-02  0.1300439E+00
        -11   -1    0    0    0    0  0.00000000000E+00  0.00000000000E+00  0.45593999997E+02  0.45594000000E+02  0.51100000000E-03 0.  1.
         11   -1    0    0    0    0 -0.00000000000E+00 -0.00000000000E+00 -0.45593999997E+02  0.45594000000E+02  0.51100000000E-03 0. -1.
    9900012    2    1    2    0    0 -0.10557921548E+01 -0.72791711804E+00  0.40638915176E+02  0.50528856046E+02  0.29999988437E+02 0.  0.
         12    1    1    2    0    0  0.10557921548E+01  0.72791711804E+00 -0.40638915176E+02  0.40659143954E+02  0.00000000000E+00 0. -1.
         11    1    3    3    0    0 -0.98569375317E+00 -0.10387385943E+02  0.45204266256E+01  0.11371175667E+02  0.51100000000E-03 0. -1.
        -11    1    3    3    0    0  0.17507958441E+01 -0.10957453913E+01  0.17169023248E+02  0.17292810749E+02  0.51100000000E-03 0.  1.
         12    1    3    3    0    0 -0.18208942458E+01  0.10755214216E+02  0.18949465302E+02  0.21864869630E+02  0.00000000000E+00 0. -1.
</event>
<event>
 7    1  0.5849044E-013  0.5052886E+02  0.7816164E-02  0.1300439E+00
        -11   -1    0    0    0    0  0.00000000000E+00  0.00000000000E+00  0.45593999997E+02  0.45594000000E+02  0.51100000000E-03 0. -1.
         11   -1    0    0    0    0 -0.00000000000E+00 -0.00000000000E+00 -0.45593999997E+02  0.45594000000E+02  0.51100000000E-03 0.  1.
    9900012    2    1    2    0    0 -0.36596976454E+02 -0.74820596540E+01 -0.16057572206E+02  0.50528861699E+02  0.30000005619E+02 0.  0.
         12    1    1    2    0    0  0.36596976454E+02  0.74820596540E+01  0.16057572206E+02  0.40659138301E+02  0.00000000000E+00 0. -1.
         11    1    3    3    0    0 -0.82274065922E+01  0.76891617972E-01 -0.13272417113E+02  0.15615799302E+02  0.51100000000E-03 0. -1.
        -11    1    3    3    0    0 -0.64662851554E+01  0.23228156578E+01  0.62041742299E+01  0.92574345489E+01  0.51100000000E-03 0.  1.
        -12    1    3    3    0    0 -0.21903284707E+02 -0.98817669297E+01 -0.89893293234E+01  0.25655627848E+02  0.00000000000E+00 0.  1.
</event>
<event>
 7    1  0.5849044E-013  0.5052889E+02  0.7816164E-02  0.1300439E+00
        -11   -1    0    0    0    0  0.00000000000E+00  0.00000000000E+00  0.45593999997E+02  0.45594000000E+02  0.51100000000E-03 0. -1.
         11   -1    0    0    0    0 -0.00000000000E+00 -0.00000000000E+00 -0.45593999997E+02  0.45594000000E+02  0.51100000000E-03 0.  1.
    9900012    2    1    2    0    0  0.15938291543E+02  0.35655748502E+02 -0.11304949009E+02  0.50528887729E+02  0.30000084741E+02 0.  0.
         12    1    1    2    0    0 -0.15938291543E+02 -0.35655748502E+02  0.11304949009E+02  0.40659112271E+02  0.00000000000E+00 0. -1.
         11    1    3    3    0    0 -0.56689257020E+01  0.81625252976E+01 -0.37171850097E+01  0.10610419525E+02  0.51100000000E-03 0.  1.
        -11    1    3    3    0    0  0.16802384401E+02  0.24386135586E+02  0.96292205794E+00  0.29629899587E+02  0.51100000000E-03 0. -1.
         12    1    3    3    0    0  0.48048328440E+01  0.31070876187E+01 -0.85506860570E+01  0.10288568616E+02  0.00000000000E+00 0. -1.
</event>
<event>
 7    1  0.5849044E-013  0.5052887E+02  0.7816164E-02  0.1300439E+00
        -11   -1    0    0    0    0  0.00000000000E+00  0.00000000000E+00  0.45593999997E+02  0.45594000000E+02  0.51100000000E-03 0.  1.
         11   -1    0    0    0    0 -0.00000000000E+00 -0.00000000000E+00 -0.45593999997E+02  0.45594000000E+02  0.51100000000E-03 0. -1.
    9900012    2    1    2    0    0  0.72306723634E+01 -0.35154201367E+02 -0.19106667182E+02  0.50528865388E+02  0.30000016834E+02 0.  0.
         12    1    1    2    0    0 -0.72306723634E+01  0.35154201367E+02  0.19106667182E+02  0.40659134612E+02  0.00000000000E+00 0. -1.
         11    1    3    3    0    0 -0.96107279489E+01 -0.46186669338E+01 -0.17564865140E+01  0.10806637825E+02  0.51100000000E-03 0. -1.
        -11    1    3    3    0    0  0.61184327379E+01 -0.85485431355E+01 -0.91059299567E+01  0.13907939083E+02  0.51100000000E-03 0.  1.
         12    1    3    3    0    0  0.10722967574E+02 -0.21986991297E+02 -0.82442507117E+01  0.25814288480E+02  0.00000000000E+00 0. -1.
</event>
<event>
 7    1  0.5849044E-013  0.5052886E+02  0.7816164E-02  0.1300439E+00
        -11   -1    0    0    0    0  0.00000000000E+00  0.00000000000E+00  0.45593999997E+02  0.45594000000E+02  0.51100000000E-03 0.  1.
         11   -1    0    0    0    0 -0.00000000000E+00 -0.00000000000E+00 -0.45593999997E+02  0.45594000000E+02  0.51100000000E-03 0. -1.
    9900012    2    1    2    0    0 -0.10173107986E+02  0.14889265167E+02  0.36441509176E+02  0.50528856695E+02  0.29999990410E+02 0.  0.
         12    1    1    2    0    0  0.10173107986E+02 -0.14889265167E+02 -0.36441509176E+02  0.40659143305E+02  0.00000000000E+00 0. -1.
         11    1    3    3    0    0 -0.12818403530E+02 -0.45524692206E+01  0.10126388457E+02  0.16958189423E+02  0.51100000000E-03 0. -1.
        -11    1    3    3    0    0  0.18663698429E+01  0.54236726432E+01  0.13052581165E+02  0.14257259086E+02  0.51100000000E-03 0.  1.
         12    1    3    3    0    0  0.77892570161E+00  0.14018061744E+02  0.13262539555E+02  0.19313408186E+02  0.00000000000E+00 0. -1.
</event>
<event>
 7    1  0.5849044E-013  0.5052886E+02  0.7816164E-02  0.1300439E+00
        -11   -1    0    0    0    0  0.00000000000E+00  0.00000000000E+00  0.45593999997E+02  0.45594000000E+02  0.51100000000E-03 0. -1.
         11   -1    0    0    0    0 -0.00000000000E+00 -0.00000000000E+00 -0.45593999997E+02  0.45594000000E+02  0.51100000000E-03 0.  1.
    9900012    2    1    2    0    0  0.17307557080E+02 -0.36448433447E+02  0.50125751319E+01  0.50528859056E+02  0.29999997588E+02 0.  0.
         12    1    1    2    0    0 -0.17307557080E+02  0.36448433447E+02 -0.50125751319E+01  0.40659140944E+02  0.00000000000E+00 0. -1.
         11    1    3    3    0    0 -0.18185685376E+01 -0.20833624743E+01  0.20720970899E+01  0.34556008647E+01  0.51100000000E-03 0. -1.
        -11    1    3    3    0    0  0.25115222858E+02 -0.28219379344E+02  0.53647117927E+01  0.38156099416E+02  0.51100000000E-03 0.  1.
        -12    1    3    3    0    0 -0.59890972404E+01 -0.61456916286E+01 -0.24242337508E+01  0.89171587755E+01  0.00000000000E+00 0.  1.
</event>
<event>
 7    1  0.5849044E-013  0.5052886E+02  0.7816164E-02  0.1300439E+00
        -11   -1    0    0    0    0  0.00000000000E+00  0.00000000000E+00  0.45593999997E+02  0.45594000000E+02  0.51100000000E-03 0.  1.
         11   -1    0    0    0    0 -0.00000000000E+00 -0.00000000000E+00 -0.45593999997E+02  0.45594000000E+02  0.51100000000E-03 0. -1.
    9900012    2    1    2    0    0 -0.34257968119E+02 -0.10552951983E+02  0.19188343328E+02  0.50528859640E+02  0.29999999360E+02 0.  0.
         12    1    1    2    0    0  0.34257968119E+02  0.10552951983E+02 -0.19188343328E+02  0.40659140360E+02  0.00000000000E+00 0. -1.
         11    1    3    3    0    0 -0.50010602189E+01  0.92747640621E+00  0.13531674093E+02  0.14456037487E+02  0.51100000000E-03 0. -1.
        -11    1    3    3    0    0 -0.14905750335E+02 -0.96228088056E+01 -0.46084757836E+01  0.18330790809E+02  0.51100000000E-03 0.  1.
        -12    1    3    3    0    0 -0.14351157565E+02 -0.18576195834E+01  0.10265145018E+02  0.17742031344E+02  0.00000000000E+00 0.  1.
</event>
<event>
 7    1  0.5849044E-013  0.5052884E+02  0.7816164E-02  0.1300439E+00
        -11   -1    0    0    0    0  0.00000000000E+00  0.00000000000E+00  0.45593999997E+02  0.45594000000E+02  0.51100000000E-03 0.  1.
         11   -1    0    0    0    0 -0.00000000000E+00 -0.00000000000E+00 -0.45593999997E+02  0.45594000000E+02  0.51100000000E-03 0. -1.
    9900012    2    1    2    0    0 -0.31035439651E+02  0.22314556611E+02 -0.13857452419E+02  0.50528844345E+02  0.29999952871E+02 0.  0.
         12    1    1    2    0    0  0.31035439651E+02 -0.22314556611E+02  0.13857452419E+02  0.40659155655E+02  0.00000000000E+00 0. -1.
         11    1    3    3    0    0  0.32855147875E+01  0.96333397378E+01  0.23572476852E+01  0.10447605411E+02  0.51100000000E-03 0. -1.
        -11    1    3    3    0    0 -0.17900690533E+02  0.71593240938E+01 -0.96033408836E+01  0.21538681469E+02  0.51100000000E-03 0.  1.
         12    1    3    3    0    0 -0.16420263905E+02  0.55218927792E+01 -0.66113592206E+01  0.18542557464E+02  0.00000000000E+00 0. -1.
</event>
<event>
 7    1  0.5849044E-013  0.5052888E+02  0.7816164E-02  0.1300439E+00
        -11   -1    0    0    0    0  0.00000000000E+00  0.00000000000E+00  0.45593999997E+02  0.45594000000E+02  0.51100000000E-03 0. -1.
         11   -1    0    0    0    0 -0.00000000000E+00 -0.00000000000E+00 -0.45593999997E+02  0.45594000000E+02  0.51100000000E-03 0.  1.
    9900012    2    1    2    0    0 -0.28453273447E+00  0.39171591103E+02 -0.10893562395E+02  0.50528877898E+02  0.30000054859E+02 0.  0.
         12    1    1    2    0    0  0.28453273447E+00 -0.39171591103E+02  0.10893562395E+02  0.40659122102E+02  0.00000000000E+00 0. -1.
         11    1    3    3    0    0  0.55883089274E+01  0.33150042730E+01 -0.99889896734E+01  0.11916306683E+02  0.51100000000E-03 0. -1.
        -11    1    3    3    0    0  0.22773004617E+01  0.19680067922E+02  0.31243974038E+01  0.20056246663E+02  0.51100000000E-03 0.  1.
         12    1    3    3    0    0 -0.81501421235E+01  0.16176518908E+02 -0.40289701259E+01  0.18556324552E+02  0.00000000000E+00 0. -1.
</event>
<event>
 7    1  0.5849044E-013  0.5052886E+02  0.7816164E-02  0.1300439E+00
        -11   -1    0    0    0    0  0.00000000000E+00  0.00000000000E+00  0.45593999997E+02  0.45594000000E+02  0.51100000000E-03 0. -1.
         11   -1    0    0    0    0 -0.00000000000E+00 -0.00000000000E+00 -0.45593999997E+02  0.45594000000E+02  0.51100000000E-03 0.  1.
    9900012    2    1    2    0    0  0.64825426883E+01  0.10810679930E+02 -0.38655805195E+02  0.50528862829E+02  0.30000009054E+02 0.  0.
         12    1    1    2    0    0 -0.64825426883E+01 -0.10810679930E+02  0.38655805195E+02  0.40659137171E+02  0.00000000000E+00 0. -1.
         11    1    3    3    0    0  0.52891751374E+01  0.25072671465E+01 -0.20373545200E+00  0.58568993993E+01  0.51100000000E-03 0. -1.
        -11    1    3    3    0    0 -0.56589735670E+01  0.13095594807E+02 -0.26316483690E+02  0.29934526875E+02  0.51100000000E-03 0.  1.
        -12    1    3    3    0    0  0.68523411179E+01 -0.47921820234E+01 -0.12135586053E+02  0.14737436555E+02  0.00000000000E+00 0.  1.
</event>
<event>
 7    1  0.5849044E-013  0.5052886E+02  0.7816164E-02  0.1300439E+00
        -11   -1    0    0    0    0  0.00000000000E+00  0.00000000000E+00  0.45593999997E+02  0.45594000000E+02  0.51100000000E-03 0.  1.
         11   -1    0    0    0    0 -0.00000000000E+00 -0.00000000000E+00 -0.45593999997E+02  0.45594000000E+02  0.51100000000E-03 0. -1.
    9900012    2    1    2    0    0 -0.28418713273E+02 -0.17783603285E+00  0.29077663860E+02  0.50528862954E+02  0.30000009434E+02 0.  0.
         12    1    1    2    0    0  0.28418713273E+02  0.17783603285E+00 -0.29077663860E+02  0.40659137046E+02  0.00000000000E+00 0. -1.
         11    1    3    3    0    0 -0.76751430274E+01  0.69203187603E+01 -0.15502122750E+01  0.10449966057E+02  0.51100000000E-03 0. -1.
        -11    1    3    3    0    0 -0.49755860427E+01 -0.64138857916E+01  0.18407972816E+02  0.20118346126E+02  0.51100000000E-03 0.  1.
         12    1    3    3    0    0 -0.15767984203E+02 -0.68426900160E+00  0.12219903320E+02  0.19960550770E+02  0.00000000000E+00 0. -1.
</event>
<event>
 7    1  0.5849044E-013  0.5052885E+02  0.7816164E-02  0.1300439E+00
        -11   -1    0    0    0    0  0.00000000000E+00  0.00000000000E+00  0.45593999997E+02  0.45594000000E+02  0.51100000000E-03 0. -1.
         11   -1    0    0    0    0 -0.00000000000E+00 -0.00000000000E+00 -0.45593999997E+02  0.45594000000E+02  0.51100000000E-03 0.  1.
    9900012    2    1    2    0    0 -0.10165815831E+02  0.32263542542E+02 -0.22558508348E+02  0.50528852349E+02  0.29999977199E+02 0.  0.
         12    1    1    2    0    0  0.10165815831E+02 -0.32263542542E+02  0.22558508348E+02  0.40659147651E+02  0.00000000000E+00 0. -1.
         11    1    3    3    0    0  0.10378239309E+01 -0.24870059405E+01  0.59561202451E+00  0.27598969192E+01  0.51100000000E-03 0. -1.
        -11    1    3    3    0    0 -0.13894959877E+02  0.26647301953E+02 -0.92345770112E+01  0.31439243378E+02  0.51100000000E-03 0.  1.
        -12    1    3    3    0    0  0.26913201155E+01  0.81032465294E+01 -0.13919543361E+02  0.16329712051E+02  0.00000000000E+00 0.  1.
</event>
<event>
 7    1  0.5849044E-013  0.5052886E+02  0.7816164E-02  0.1300439E+00
        -11   -1    0    0    0    0  0.00000000000E+00  0.00000000000E+00  0.45593999997E+02  0.45594000000E+02  0.51100000000E-03 0.  1.
         11   -1    0    0    0    0 -0.00000000000E+00 -0.00000000000E+00 -0.45593999997E+02  0.45594000000E+02  0.51100000000E-03 0. -1.
    9900012    2    1    2    0    0 -0.11215115893E+02  0.42302271118E+01  0.38852179705E+02  0.50528861867E+02  0.30000006131E+02 0.  0.
         12    1    1    2    0    0  0.11215115893E+02 -0.42302271118E+01 -0.38852179705E+02  0.40659138133E+02  0.00000000000E+00 0. -1.
         11    1    3    3    0    0 -0.43581832040E+01 -0.93291444170E+01  0.20737011012E+02  0.23152760578E+02  0.51100000000E-03 0. -1.
        -11    1    3    3    0    0 -0.81900803482E+01  0.79917410396E+01  0.39632222612E+01  0.12110015355E+02  0.51100000000E-03 0.  1.
         12    1    3    3    0    0  0.13331476590E+01  0.55676304892E+01  0.14151946431E+02  0.15266085934E+02  0.00000000000E+00 0. -1.
</event>
<event>
 7    1  0.5849044E-013  0.5052885E+02  0.7816164E-02  0.1300439E+00
        -11   -1    0    0    0    0  0.00000000000E+00  0.00000000000E+00  0.45593999997E+02  0.45594000000E+02  0.51100000000E-03 0. -1.
         11   -1    0    0    0    0 -0.00000000000E+00 -0.00000000000E+00 -0.45593999997E+02  0.45594000000E+02  0.51100000000E-03 0.  1.
    9900012    2    1    2    0    0  0.13401851225E+02  0.79411650201E+01 -0.37556551551E+02  0.50528852412E+02  0.29999977392E+02 0.  0.
         12    1    1    2    0    0 -0.13401851225E+02 -0.79411650201E+01  0.37556551551E+02  0.40659147588E+02  0.00000000000E+00 0. -1.
         11    1    3    3    0    0  0.89986814077E+00 -0.76479743059E+01 -0.53811354041E+01  0.93945671615E+01  0.51100000000E-03 0. -1.
        -11    1    3    3    0    0  0.10279293223E+02  0.14404134035E+02 -0.33789397336E+02  0.38142709907E+02  0.51100000000E-03 0.  1.
        -12    1    3    3    0    0  0.22226898610E+01  0.11850052911E+01  0.16139811888E+01  0.29915753435E+01  0.00000000000E+00 0.  1.
</event>
<event>
 7    1  0.5849044E-013  0.5052886E+02  0.7816164E-02  0.1300439E+00
        -11   -1    0    0    0    0  0.00000000000E+00  0.00000000000E+00  0.45593999997E+02  0.45594000000E+02  0.51100000000E-03 0.  1.
         11   -1    0    0    0    0 -0.00000000000E+00 -0.00000000000E+00 -0.45593999997E+02  0.45594000000E+02  0.51100000000E-03 0. -1.
    9900012    2    1    2    0    0 -0.12810862400E+01 -0.83888805079E+01  0.39763695238E+02  0.50528856415E+02  0.29999989558E+02 0.  0.
         12    1    1    2    0    0  0.12810862400E+01  0.83888805079E+01 -0.39763695238E+02  0.40659143585E+02  0.00000000000E+00 0. -1.
         11    1    3    3    0    0 -0.22566194885E+01  0.25273950504E+01 -0.23329998596E+01  0.41137508265E+01  0.51100000000E-03 0. -1.
        -11    1    3    3    0    0 -0.73459715799E+01 -0.39280414963E+01  0.22725578295E+02  0.24204229332E+02  0.51100000000E-03 0.  1.
         12    1    3    3    0    0  0.83215048283E+01 -0.69882340620E+01  0.19371116802E+02  0.22210876256E+02  0.00000000000E+00 0. -1.
</event>
<event>
 7    1  0.5849044E-013  0.5052887E+02  0.7816164E-02  0.1300439E+00
        -11   -1    0    0    0    0  0.00000000000E+00  0.00000000000E+00  0.45593999997E+02  0.45594000000E+02  0.51100000000E-03 0.  1.
         11   -1    0    0    0    0 -0.00000000000E+00 -0.00000000000E+00 -0.45593999997E+02  0.45594000000E+02  0.51100000000E-03 0. -1.
    9900012    2    1    2    0    0  0.18147604240E+02  0.35170050499E+02 -0.93218641715E+01  0.50528866421E+02  0.30000019973E+02 0.  0.
         12    1    1    2    0    0 -0.18147604240E+02 -0.35170050499E+02  0.93218641715E+01  0.40659133579E+02  0.00000000000E+00 0. -1.
         11    1    3    3    0    0  0.19742576360E+01  0.67852425379E+01  0.37818022667E+01  0.80149384375E+01  0.51100000000E-03 0.  1.
        -11    1    3    3    0    0  0.12927269818E+02  0.16585887647E+01 -0.74217742539E+01  0.14998265065E+02  0.51100000000E-03 0. -1.
        -12    1    3    3    0    0  0.32460767864E+01  0.26726219196E+02 -0.56818921844E+01  0.27515662918E+02  0.00000000000E+00 0.  1.
</event>
<event>
 7    1  0.5849044E-013  0.5052886E+02  0.7816164E-02  0.1300439E+00
        -11   -1    0    0    0    0  0.00000000000E+00  0.00000000000E+00  0.45593999997E+02  0.45594000000E+02  0.51100000000E-03 0. -1.
         11   -1    0    0    0    0 -0.00000000000E+00 -0.00000000000E+00 -0.45593999997E+02  0.45594000000E+02  0.51100000000E-03 0.  1.
    9900012    2    1    2    0    0 -0.23432402972E+02  0.15197075714E+02  0.29548896787E+02  0.50528856863E+02  0.29999990922E+02 0.  0.
         12    1    1    2    0    0  0.23432402972E+02 -0.15197075714E+02 -0.29548896787E+02  0.40659143137E+02  0.00000000000E+00 0. -1.
         11    1    3    3    0    0 -0.14038208428E+02  0.10539488796E+02 -0.42957161354E+00  0.17559517419E+02  0.51100000000E-03 0.  1.
        -11    1    3    3    0    0 -0.96053774000E+00  0.38065625420E+01  0.17148309460E+02  0.17591960344E+02  0.51100000000E-03 0. -1.
        -12    1    3    3    0    0 -0.84336568037E+01  0.85102437598E+00  0.12830158940E+02  0.15377379100E+02  0.00000000000E+00 0.  1.
</event>
<event>
 7    1  0.5849044E-013  0.5052886E+02  0.7816164E-02  0.1300439E+00
        -11   -1    0    0    0    0  0.00000000000E+00  0.00000000000E+00  0.45593999997E+02  0.45594000000E+02  0.51100000000E-03 0.  1.
         11   -1    0    0    0    0 -0.00000000000E+00 -0.00000000000E+00 -0.45593999997E+02  0.45594000000E+02  0.51100000000E-03 0. -1.
    9900012    2    1    2    0    0 -0.35013391659E+02 -0.17676392513E+02 -0.10713227897E+02  0.50528859580E+02  0.29999999179E+02 0.  0.
         12    1    1    2    0    0  0.35013391659E+02  0.17676392513E+02  0.10713227897E+02  0.40659140420E+02  0.00000000000E+00 0. -1.
         11    1    3    3    0    0 -0.93473356996E+01  0.43344676271E+01 -0.10228823815E+02  0.14518578828E+02  0.51100000000E-03 0. -1.
        -11    1    3    3    0    0 -0.18551956795E+02 -0.19829235974E+02 -0.45465425103E+01  0.27532612468E+02  0.51100000000E-03 0.  1.
        -12    1    3    3    0    0 -0.71140991642E+01 -0.21816241658E+01  0.40621384286E+01  0.84776682840E+01  0.00000000000E+00 0.  1.
</event>
<event>
 7    1  0.5849044E-013  0.5052886E+02  0.7816164E-02  0.1300439E+00
        -11   -1    0    0    0    0  0.00000000000E+00  0.00000000000E+00  0.45593999997E+02  0.45594000000E+02  0.51100000000E-03 0.  1.
         11   -1    0    0    0    0 -0.00000000000E+00 -0.00000000000E+00 -0.45593999997E+02  0.45594000000E+02  0.51100000000E-03 0. -1.
    9900012    2    1    2    0    0  0.24833141940E+02  0.18545510542E+02  0.26316243583E+02  0.50528861098E+02  0.30000003794E+02 0.  0.
         12    1    1    2    0    0 -0.24833141940E+02 -0.18545510542E+02 -0.26316243583E+02  0.40659138902E+02  0.00000000000E+00 0. -1.
         11    1    3    3    0    0  0.49366972568E+01 -0.45828094893E+00  0.12498847239E+01  0.51130434496E+01  0.51100000000E-03 0. -1.
        -11    1    3    3    0    0  0.33860294168E+01  0.16892043192E+02  0.25509958476E+01  0.17415909350E+02  0.51100000000E-03 0.  1.
        -12    1    3    3    0    0  0.16510415267E+02  0.21117482984E+01  0.22515363012E+02  0.27999908298E+02  0.00000000000E+00 0.  1.
</event>
<event>
 7    1  0.5849044E-013  0.5052887E+02  0.7816164E-02  0.1300439E+00
        -11   -1    0    0    0    0  0.00000000000E+00  0.00000000000E+00  0.45593999997E+02  0.45594000000E+02  0.51100000000E-03 0.  1.
         11   -1    0    0    0    0 -0.00000000000E+00 -0.00000000000E+00 -0.45593999997E+02  0.45594000000E+02  0.51100000000E-03 0. -1.
    9900012    2    1    2    0    0  0.56254560103E+01 -0.36323252902E+02  0.17382182729E+02  0.50528871466E+02  0.30000035309E+02 0.  0.
         12    1    1    2    0    0 -0.56254560103E+01  0.36323252902E+02 -0.17382182729E+02  0.40659128534E+02  0.00000000000E+00 0. -1.
         11    1    3    3    0    0 -0.57870197185E+01 -0.47071594984E+01 -0.51541103842E+01  0.90670723985E+01  0.51100000000E-03 0. -1.
        -11    1    3    3    0    0  0.94914229607E+00 -0.13530628357E+02  0.60749856093E+01  0.14862174311E+02  0.51100000000E-03 0.  1.
         12    1    3    3    0    0  0.10463333433E+02 -0.18085465047E+02  0.16461307504E+02  0.26599624757E+02  0.00000000000E+00 0. -1.
</event>
<event>
 7    1  0.5849044E-013  0.5052886E+02  0.7816164E-02  0.1300439E+00
        -11   -1    0    0    0    0  0.00000000000E+00  0.00000000000E+00  0.45593999997E+02  0.45594000000E+02  0.51100000000E-03 0.  1.
         11   -1    0    0    0    0 -0.00000000000E+00 -0.00000000000E+00 -0.45593999997E+02  0.45594000000E+02  0.51100000000E-03 0. -1.
    9900012    2    1    2    0    0 -0.32583227807E+02  0.20375850839E+02  0.13278694855E+02  0.50528858731E+02  0.29999996598E+02 0.  0.
         12    1    1    2    0    0  0.32583227807E+02 -0.20375850839E+02 -0.13278694855E+02  0.40659141269E+02  0.00000000000E+00 0. -1.
         11    1    3    3    0    0 -0.16217064718E+02 -0.77007519588E+00 -0.20327769517E+01  0.16362102135E+02  0.51100000000E-03 0. -1.
        -11    1    3    3    0    0 -0.13845364987E+02  0.22859170354E+02  0.11031512129E+02  0.28912455119E+02  0.51100000000E-03 0.  1.
        -12    1    3    3    0    0 -0.25207981018E+01 -0.17132443191E+01  0.42799596780E+01  0.52543014771E+01  0.00000000000E+00 0.  1.
</event>
<event>
 7    1  0.5849044E-013  0.5052886E+02  0.7816164E-02  0.1300439E+00
        -11   -1    0    0    0    0  0.00000000000E+00  0.00000000000E+00  0.45593999997E+02  0.45594000000E+02  0.51100000000E-03 0.  1.
         11   -1    0    0    0    0 -0.00000000000E+00 -0.00000000000E+00 -0.45593999997E+02  0.45594000000E+02  0.51100000000E-03 0. -1.
    9900012    2    1    2    0    0 -0.33825238683E+01 -0.49056002732E+01  0.40220130620E+02  0.50528864632E+02  0.30000014535E+02 0.  0.
         12    1    1    2    0    0  0.33825238683E+01  0.49056002732E+01 -0.40220130620E+02  0.40659135368E+02  0.00000000000E+00 0. -1.
         11    1    3    3    0    0  0.56636516910E+01  0.27371781145E+01  0.79390589533E+01  0.10129054834E+02  0.51100000000E-03 0. -1.
        -11    1    3    3    0    0 -0.12778154692E+02 -0.41201301960E+01  0.80999449892E+01  0.15680109032E+02  0.51100000000E-03 0.  1.
        -12    1    3    3    0    0  0.37319791330E+01 -0.35226481917E+01  0.24181126678E+02  0.24719700766E+02  0.00000000000E+00 0.  1.
</event>
<event>
 7    1  0.5849044E-013  0.5052884E+02  0.7816164E-02  0.1300439E+00
        -11   -1    0    0    0    0  0.00000000000E+00  0.00000000000E+00  0.45593999997E+02  0.45594000000E+02  0.51100000000E-03 0.  1.
         11   -1    0    0    0    0 -0.00000000000E+00 -0.00000000000E+00 -0.45593999997E+02  0.45594000000E+02  0.51100000000E-03 0. -1.
    9900012    2    1    2    0    0 -0.72671298575E+01 -0.11317291266E+02  0.38370235578E+02  0.50528840684E+02  0.29999941742E+02 0.  0.
         12    1    1    2    0    0  0.72671298575E+01  0.11317291266E+02 -0.38370235578E+02  0.40659159316E+02  0.00000000000E+00 0. -1.
         11    1    3    3    0    0 -0.10821463389E+02 -0.41688931538E+01  0.20337853116E+01  0.11773700478E+02  0.51100000000E-03 0. -1.
        -11    1    3    3    0    0  0.20134723644E+01 -0.99848201972E+01  0.29107475759E+02  0.30838220614E+02  0.51100000000E-03 0.  1.
         12    1    3    3    0    0  0.15408611666E+01  0.28364220847E+01  0.72289745081E+01  0.79169195913E+01  0.00000000000E+00 0. -1.
</event>
<event>
 7    1  0.5849044E-013  0.5052886E+02  0.7816164E-02  0.1300439E+00
        -11   -1    0    0    0    0  0.00000000000E+00  0.00000000000E+00  0.45593999997E+02  0.45594000000E+02  0.51100000000E-03 0.  1.
         11   -1    0    0    0    0 -0.00000000000E+00 -0.00000000000E+00 -0.45593999997E+02  0.45594000000E+02  0.51100000000E-03 0. -1.
    9900012    2    1    2    0    0  0.16924085388E+02 -0.35553522634E+02  0.10133516718E+02  0.50528858359E+02  0.29999995467E+02 0.  0.
         12    1    1    2    0    0 -0.16924085388E+02  0.35553522634E+02 -0.10133516718E+02  0.40659141641E+02  0.00000000000E+00 0. -1.
         11    1    3    3    0    0  0.13972470941E+02 -0.11598229846E+02  0.16557342327E+02  0.24574264282E+02  0.51100000000E-03 0. -1.
        -11    1    3    3    0    0 -0.14877228509E+01 -0.14224026302E+02 -0.22717151318E+01  0.14480916180E+02  0.51100000000E-03 0.  1.
        -12    1    3    3    0    0  0.44393372982E+01 -0.97312664860E+01 -0.41521104778E+01  0.11473677897E+02  0.00000000000E+00 0.  1.
</event>
<event>
 7    1  0.5849044E-013  0.5052884E+02  0.7816164E-02  0.1300439E+00
        -11   -1    0    0    0    0  0.00000000000E+00  0.00000000000E+00  0.45593999997E+02  0.45594000000E+02  0.51100000000E-03 0. -1.
         11   -1    0    0    0    0 -0.00000000000E+00 -0.00000000000E+00 -0.45593999997E+02  0.45594000000E+02  0.51100000000E-03 0.  1.
    9900012    2    1    2    0    0 -0.15633301727E+02  0.32567576601E+02 -0.18657973306E+02  0.50528841912E+02  0.29999945476E+02 0.  0.
         12    1    1    2    0    0  0.15633301727E+02 -0.32567576601E+02  0.18657973306E+02  0.40659158088E+02  0.00000000000E+00 0. -1.
         11    1    3    3    0    0 -0.22937763823E+01 -0.30776840868E+01  0.12074894778E-01  0.38384496212E+01  0.51100000000E-03 0. -1.
        -11    1    3    3    0    0  0.15521154461E+01  0.21825016368E+02 -0.13559340334E+02  0.25740942337E+02  0.51100000000E-03 0.  1.
        -12    1    3    3    0    0 -0.14891640791E+02  0.13820244319E+02 -0.51107078667E+01  0.20949449954E+02  0.00000000000E+00 0.  1.
</event>
<event>
 7    1  0.5849044E-013  0.5052886E+02  0.7816164E-02  0.1300439E+00
        -11   -1    0    0    0    0  0.00000000000E+00  0.00000000000E+00  0.45593999997E+02  0.45594000000E+02  0.51100000000E-03 0.  1.
         11   -1    0    0    0    0 -0.00000000000E+00 -0.00000000000E+00 -0.45593999997E+02  0.45594000000E+02  0.51100000000E-03 0. -1.
    9900012    2    1    2    0    0  0.19589657291E+02 -0.46316323912E+01  0.35326462628E+02  0.50528860152E+02  0.30000000917E+02 0.  0.
         12    1    1    2    0    0 -0.19589657291E+02  0.46316323912E+01 -0.35326462628E+02  0.40659139848E+02  0.00000000000E+00 0. -1.
         11    1    3    3    0    0  0.99206669690E+01  0.79454230030E+01  0.38915132640E+01  0.13292601534E+02  0.51100000000E-03 0. -1.
        -11    1    3    3    0    0  0.86744026187E+01 -0.95427203723E+01  0.31505079779E+02  0.34042309338E+02  0.51100000000E-03 0.  1.
        -12    1    3    3    0    0  0.99458770331E+00 -0.30343350218E+01 -0.70130415286E-01  0.31939492794E+01  0.00000000000E+00 0.  1.
</event>
<event>
 7    1  0.5849044E-013  0.5052885E+02  0.7816164E-02  0.1300439E+00
        -11   -1    0    0    0    0  0.00000000000E+00  0.00000000000E+00  0.45593999997E+02  0.45594000000E+02  0.51100000000E-03 0.  1.
         11   -1    0    0    0    0 -0.00000000000E+00 -0.00000000000E+00 -0.45593999997E+02  0.45594000000E+02  0.51100000000E-03 0. -1.
    9900012    2    1    2    0    0 -0.10842120155E+01 -0.21446598253E+02  0.34525849146E+02  0.50528851563E+02  0.29999974811E+02 0.  0.
         12    1    1    2    0    0  0.10842120155E+01  0.21446598253E+02 -0.34525849146E+02  0.40659148437E+02  0.00000000000E+00 0. -1.
         11    1    3    3    0    0 -0.20990321300E+01  0.51243731475E-01  0.10373424792E+02  0.10583784955E+02  0.51100000000E-03 0. -1.
        -11    1    3    3    0    0  0.10847501367E+02 -0.38526684478E+01  0.10348699862E+02  0.15479241880E+02  0.51100000000E-03 0.  1.
        -12    1    3    3    0    0 -0.98326812529E+01 -0.17645173537E+02  0.13803724493E+02  0.24465824728E+02  0.00000000000E+00 0.  1.
</event>
<event>
 7    1  0.5849044E-013  0.5052880E+02  0.7816164E-02  0.1300439E+00
        -11   -1    0    0    0    0  0.00000000000E+00  0.00000000000E+00  0.45593999997E+02  0.45594000000E+02  0.51100000000E-03 0. -1.
         11   -1    0    0    0    0 -0.00000000000E+00 -0.00000000000E+00 -0.45593999997E+02  0.45594000000E+02  0.51100000000E-03 0.  1.
    9900012    2    1    2    0    0  0.32651851087E+02  0.15730789822E+02 -0.18427414165E+02  0.50528797836E+02  0.29999811501E+02 0.  0.
         12    1    1    2    0    0 -0.32651851087E+02 -0.15730789822E+02  0.18427414165E+02  0.40659202164E+02  0.00000000000E+00 0. -1.
         11    1    3    3    0    0  0.49172371726E+01 -0.62726727581E+00  0.18699094257E+01  0.52980418239E+01  0.51100000000E-03 0. -1.
        -11    1    3    3    0    0  0.19254749648E+02  0.20690518196E+02 -0.21663022250E+02  0.35610805390E+02  0.51100000000E-03 0.  1.
        -12    1    3    3    0    0  0.84798642664E+01 -0.43324610981E+01  0.13656986598E+01  0.96199506221E+01  0.00000000000E+00 0.  1.
</event>
<event>
 7    1  0.5849044E-013  0.5052890E+02  0.7816164E-02  0.1300439E+00
        -11   -1    0    0    0    0  0.00000000000E+00  0.00000000000E+00  0.45593999997E+02  0.45594000000E+02  0.51100000000E-03 0. -1.
         11   -1    0    0    0    0 -0.00000000000E+00 -0.00000000000E+00 -0.45593999997E+02  0.45594000000E+02  0.51100000000E-03 0.  1.
    9900012    2    1    2    0    0  0.33006957510E+02 -0.19592650591E+02  0.13410109413E+02  0.50528902178E+02  0.30000128659E+02 0.  0.
         12    1    1    2    0    0 -0.33006957510E+02  0.19592650591E+02 -0.13410109413E+02  0.40659097822E+02  0.00000000000E+00 0. -1.
         11    1    3    3    0    0  0.86092492702E+01  0.36248195115E+01  0.61372449445E+01  0.11176952414E+02  0.51100000000E-03 0. -1.
        -11    1    3    3    0    0  0.98034122596E+01 -0.20972860727E+02  0.81916302400E+01  0.24557495501E+02  0.51100000000E-03 0.  1.
        -12    1    3    3    0    0  0.14594295980E+02 -0.22446093753E+01 -0.91876577174E+00  0.14794454263E+02  0.00000000000E+00 0.  1.
</event>
<event>
 7    1  0.5849044E-013  0.5052883E+02  0.7816164E-02  0.1300439E+00
        -11   -1    0    0    0    0  0.00000000000E+00  0.00000000000E+00  0.45593999997E+02  0.45594000000E+02  0.51100000000E-03 0. -1.
         11   -1    0    0    0    0 -0.00000000000E+00 -0.00000000000E+00 -0.45593999997E+02  0.45594000000E+02  0.51100000000E-03 0.  1.
    9900012    2    1    2    0    0 -0.10812407829E+02 -0.35154737181E+02  0.17332186135E+02  0.50528826551E+02  0.29999898784E+02 0.  0.
         12    1    1    2    0    0  0.10812407829E+02  0.35154737181E+02 -0.17332186135E+02  0.40659173449E+02  0.00000000000E+00 0. -1.
         11    1    3    3    0    0  0.76472211768E+01 -0.76175260649E+01  0.63500488416E+01  0.12523171149E+02  0.51100000000E-03 0. -1.
        -11    1    3    3    0    0 -0.10396956076E+02 -0.63545543803E+01 -0.12521932655E+01  0.12249287541E+02  0.51100000000E-03 0.  1.
         12    1    3    3    0    0 -0.80626729303E+01 -0.21182656736E+02  0.12234330559E+02  0.25756367861E+02  0.00000000000E+00 0. -1.
</event>
<event>
 7    1  0.5849044E-013  0.5052881E+02  0.7816164E-02  0.1300439E+00
        -11   -1    0    0    0    0  0.00000000000E+00  0.00000000000E+00  0.45593999997E+02  0.45594000000E+02  0.51100000000E-03 0. -1.
         11   -1    0    0    0    0 -0.00000000000E+00 -0.00000000000E+00 -0.45593999997E+02  0.45594000000E+02  0.51100000000E-03 0.  1.
    9900012    2    1    2    0    0  0.16070368034E+02 -0.35313742958E+02 -0.12159454626E+02  0.50528812757E+02  0.29999856857E+02 0.  0.
         12    1    1    2    0    0 -0.16070368034E+02  0.35313742958E+02  0.12159454626E+02  0.40659187243E+02  0.00000000000E+00 0. -1.
         11    1    3    3    0    0  0.14564790033E+01  0.52700842374E+01  0.10393398579E+00  0.54686306779E+01  0.51100000000E-03 0. -1.
        -11    1    3    3    0    0  0.10205779377E+02 -0.31244071687E+02 -0.10974001271E+02  0.34652253209E+02  0.51100000000E-03 0.  1.
        -12    1    3    3    0    0  0.44081096528E+01 -0.93397555081E+01 -0.12893873413E+01  0.10407928871E+02  0.00000000000E+00 0.  1.
</event>
<event>
 7    1  0.5849044E-013  0.5052886E+02  0.7816164E-02  0.1300439E+00
        -11   -1    0    0    0    0  0.00000000000E+00  0.00000000000E+00  0.45593999997E+02  0.45594000000E+02  0.51100000000E-03 0. -1.
         11   -1    0    0    0    0 -0.00000000000E+00 -0.00000000000E+00 -0.45593999997E+02  0.45594000000E+02  0.51100000000E-03 0.  1.
    9900012    2    1    2    0    0 -0.21309604785E+01  0.20254653778E+02 -0.35190539248E+02  0.50528855336E+02  0.29999986279E+02 0.  0.
         12    1    1    2    0    0  0.21309604785E+01 -0.20254653778E+02  0.35190539248E+02  0.40659144664E+02  0.00000000000E+00 0. -1.
         11    1    3    3    0    0 -0.28960518171E+01 -0.65893315656E+01 -0.12743653168E+02  0.14635815759E+02  0.51100000000E-03 0. -1.
        -11    1    3    3    0    0 -0.13167437501E+01  0.79917927734E+01 -0.27621614883E+01  0.85575757189E+01  0.51100000000E-03 0.  1.
         12    1    3    3    0    0  0.20818350887E+01  0.18852192570E+02 -0.19684724592E+02  0.27335463858E+02  0.00000000000E+00 0. -1.
</event>
<event>
 7    1  0.5849044E-013  0.5052885E+02  0.7816164E-02  0.1300439E+00
        -11   -1    0    0    0    0  0.00000000000E+00  0.00000000000E+00  0.45593999997E+02  0.45594000000E+02  0.51100000000E-03 0.  1.
         11   -1    0    0    0    0 -0.00000000000E+00 -0.00000000000E+00 -0.45593999997E+02  0.45594000000E+02  0.51100000000E-03 0. -1.
    9900012    2    1    2    0    0 -0.16332270057E+02  0.36939274217E+02 -0.46811561241E+01  0.50528852843E+02  0.29999978702E+02 0.  0.
         12    1    1    2    0    0  0.16332270057E+02 -0.36939274217E+02  0.46811561241E+01  0.40659147157E+02  0.00000000000E+00 0. -1.
         11    1    3    3    0    0 -0.15973870375E+02  0.17949656371E+02 -0.38799313368E+01  0.24339444653E+02  0.51100000000E-03 0. -1.
        -11    1    3    3    0    0  0.39005457634E+01  0.95940829467E+01 -0.84343976223E+01  0.13356636865E+02  0.51100000000E-03 0.  1.
        -12    1    3    3    0    0 -0.42589454458E+01  0.93955348990E+01  0.76331728349E+01  0.12832771325E+02  0.00000000000E+00 0.  1.
</event>
<event>
 7    1  0.5849044E-013  0.5052887E+02  0.7816164E-02  0.1300439E+00
        -11   -1    0    0    0    0  0.00000000000E+00  0.00000000000E+00  0.45593999997E+02  0.45594000000E+02  0.51100000000E-03 0. -1.
         11   -1    0    0    0    0 -0.00000000000E+00 -0.00000000000E+00 -0.45593999997E+02  0.45594000000E+02  0.51100000000E-03 0.  1.
    9900012    2    1    2    0    0  0.11720538432E+02  0.25241727556E+02 -0.29642020716E+02  0.50528865439E+02  0.30000016988E+02 0.  0.
         12    1    1    2    0    0 -0.11720538432E+02 -0.25241727556E+02  0.29642020716E+02  0.40659134561E+02  0.00000000000E+00 0. -1.
         11    1    3    3    0    0 -0.17429537244E+01 -0.35317800282E+00 -0.11106720061E+02  0.11248193329E+02  0.51100000000E-03 0. -1.
        -11    1    3    3    0    0  0.16823947110E+02  0.16230988388E+02 -0.77993575358E+01  0.24643866553E+02  0.51100000000E-03 0.  1.
        -12    1    3    3    0    0 -0.33604549541E+01  0.93639171700E+01 -0.10735943120E+02  0.14636805558E+02  0.00000000000E+00 0.  1.
</event>
<event>
 7    1  0.5849044E-013  0.5052887E+02  0.7816164E-02  0.1300439E+00
        -11   -1    0    0    0    0  0.00000000000E+00  0.00000000000E+00  0.45593999997E+02  0.45594000000E+02  0.51100000000E-03 0.  1.
         11   -1    0    0    0    0 -0.00000000000E+00 -0.00000000000E+00 -0.45593999997E+02  0.45594000000E+02  0.51100000000E-03 0. -1.
    9900012    2    1    2    0    0 -0.37572894572E+02  0.14896686870E+02  0.44194396392E+01  0.50528866550E+02  0.30000020365E+02 0.  0.
         12    1    1    2    0    0  0.37572894572E+02 -0.14896686870E+02 -0.44194396392E+01  0.40659133450E+02  0.00000000000E+00 0. -1.
         11    1    3    3    0    0 -0.21059176366E+01  0.21384752216E+01 -0.78654058012E+01  0.84185850382E+01  0.51100000000E-03 0. -1.
        -11    1    3    3    0    0 -0.23630558900E+02  0.60976854664E+01  0.14442987401E+02  0.28358155217E+02  0.51100000000E-03 0.  1.
        -12    1    3    3    0    0 -0.11836418035E+02  0.66605261816E+01 -0.21581419605E+01  0.13752126295E+02  0.00000000000E+00 0.  1.
</event>
<event>
 7    1  0.5849044E-013  0.5052888E+02  0.7816164E-02  0.1300439E+00
        -11   -1    0    0    0    0  0.00000000000E+00  0.00000000000E+00  0.45593999997E+02  0.45594000000E+02  0.51100000000E-03 0. -1.
         11   -1    0    0    0    0 -0.00000000000E+00 -0.00000000000E+00 -0.45593999997E+02  0.45594000000E+02  0.51100000000E-03 0.  1.
    9900012    2    1    2    0    0 -0.20843026578E+02 -0.34768459872E+02 -0.31442526009E+01  0.50528881918E+02  0.30000067077E+02 0.  0.
         12    1    1    2    0    0  0.20843026578E+02  0.34768459872E+02  0.31442526009E+01  0.40659118082E+02  0.00000000000E+00 0. -1.
         11    1    3    3    0    0 -0.14120298055E+02 -0.88220281879E+01  0.17414494764E+01  0.16740479236E+02  0.51100000000E-03 0. -1.
        -11    1    3    3    0    0 -0.21807029325E+00 -0.17249375918E+01 -0.82974952240E+01  0.84776996645E+01  0.51100000000E-03 0.  1.
        -12    1    3    3    0    0 -0.65046582301E+01 -0.24221494092E+02  0.34117931467E+01  0.25310703017E+02  0.00000000000E+00 0.  1.
</event>
<event>
 7    1  0.5849044E-013  0.5052886E+02  0.7816164E-02  0.1300439E+00
        -11   -1    0    0    0    0  0.00000000000E+00  0.00000000000E+00  0.45593999997E+02  0.45594000000E+02  0.51100000000E-03 0.  1.
         11   -1    0    0    0    0 -0.00000000000E+00 -0.00000000000E+00 -0.45593999997E+02  0.45594000000E+02  0.51100000000E-03 0. -1.
    9900012    2    1    2    0    0  0.89461910477E+01  0.21725278740E+02  0.33183487222E+02  0.50528857181E+02  0.29999991887E+02 0.  0.
         12    1    1    2    0    0 -0.89461910477E+01 -0.21725278740E+02 -0.33183487222E+02  0.40659142819E+02  0.00000000000E+00 0. -1.
         11    1    3    3    0    0  0.11337392563E+02 -0.33963906882E+01  0.15874588671E+02  0.19800871334E+02  0.51100000000E-03 0. -1.
        -11    1    3    3    0    0 -0.16465313027E+01  0.52615696080E+01  0.39168508564E+01  0.67629062512E+01  0.51100000000E-03 0.  1.
         12    1    3    3    0    0 -0.74467021299E+00  0.19860099820E+02  0.13392047695E+02  0.23965079596E+02  0.00000000000E+00 0. -1.
</event>
<event>
 7    1  0.5849044E-013  0.5052886E+02  0.7816164E-02  0.1300439E+00
        -11   -1    0    0    0    0  0.00000000000E+00  0.00000000000E+00  0.45593999997E+02  0.45594000000E+02  0.51100000000E-03 0.  1.
         11   -1    0    0    0    0 -0.00000000000E+00 -0.00000000000E+00 -0.45593999997E+02  0.45594000000E+02  0.51100000000E-03 0. -1.
    9900012    2    1    2    0    0 -0.24456528623E+02 -0.20678680746E+02  0.25048675849E+02  0.50528858451E+02  0.29999995749E+02 0.  0.
         12    1    1    2    0    0  0.24456528623E+02  0.20678680746E+02 -0.25048675849E+02  0.40659141549E+02  0.00000000000E+00 0. -1.
         11    1    3    3    0    0  0.37382944364E+01  0.98831021994E-01 -0.78696785302E+00  0.38215090641E+01  0.51100000000E-03 0. -1.
        -11    1    3    3    0    0 -0.25059829007E+02 -0.19630657880E+02  0.14665437162E+02  0.35049005779E+02  0.51100000000E-03 0.  1.
         12    1    3    3    0    0 -0.31349940522E+01 -0.11468538879E+01  0.11170206540E+02  0.11658343608E+02  0.00000000000E+00 0. -1.
</event>
<event>
 7    1  0.5849044E-013  0.5052886E+02  0.7816164E-02  0.1300439E+00
        -11   -1    0    0    0    0  0.00000000000E+00  0.00000000000E+00  0.45593999997E+02  0.45594000000E+02  0.51100000000E-03 0.  1.
         11   -1    0    0    0    0 -0.00000000000E+00 -0.00000000000E+00 -0.45593999997E+02  0.45594000000E+02  0.51100000000E-03 0. -1.
    9900012    2    1    2    0    0 -0.84491565636E+01 -0.18612393615E+02  0.35147635720E+02  0.50528859092E+02  0.29999997695E+02 0.  0.
         12    1    1    2    0    0  0.84491565636E+01  0.18612393615E+02 -0.35147635720E+02  0.40659140908E+02  0.00000000000E+00 0. -1.
         11    1    3    3    0    0 -0.17946503505E+01 -0.78584942348E+01  0.60531315202E+00  0.80835082601E+01  0.51100000000E-03 0. -1.
        -11    1    3    3    0    0 -0.52314388220E+01 -0.15876209679E+02  0.32863144141E+02  0.36870153634E+02  0.51100000000E-03 0.  1.
        -12    1    3    3    0    0 -0.14230673911E+01  0.51223102992E+01  0.16791784275E+01  0.55751971976E+01  0.00000000000E+00 0.  1.
</event>
<event>
 7    1  0.5849044E-013  0.5052891E+02  0.7816164E-02  0.1300439E+00
        -11   -1    0    0    0    0  0.00000000000E+00  0.00000000000E+00  0.45593999997E+02  0.45594000000E+02  0.51100000000E-03 0. -1.
         11   -1    0    0    0    0 -0.00000000000E+00 -0.00000000000E+00 -0.45593999997E+02  0.45594000000E+02  0.51100000000E-03 0.  1.
    9900012    2    1    2    0    0  0.12747293596E+02  0.24115259913E+02 -0.30151655998E+02  0.50528909822E+02  0.30000151895E+02 0.  0.
         12    1    1    2    0    0 -0.12747293596E+02 -0.24115259913E+02  0.30151655998E+02  0.40659090178E+02  0.00000000000E+00 0. -1.
         11    1    3    3    0    0 -0.25544918904E+01  0.75997604924E+01  0.20057590743E+01  0.82646753164E+01  0.51100000000E-03 0. -1.
        -11    1    3    3    0    0  0.49183749052E+01  0.94288803603E+01 -0.26352676564E+02  0.28417560748E+02  0.51100000000E-03 0.  1.
         12    1    3    3    0    0  0.10383410581E+02  0.70866190600E+01 -0.58047385087E+01  0.13846673757E+02  0.00000000000E+00 0. -1.
</event>
<event>
 7    1  0.5849044E-013  0.5052886E+02  0.7816164E-02  0.1300439E+00
        -11   -1    0    0    0    0  0.00000000000E+00  0.00000000000E+00  0.45593999997E+02  0.45594000000E+02  0.51100000000E-03 0.  1.
         11   -1    0    0    0    0 -0.00000000000E+00 -0.00000000000E+00 -0.45593999997E+02  0.45594000000E+02  0.51100000000E-03 0. -1.
    9900012    2    1    2    0    0 -0.29295393715E+02 -0.23744284799E+02  0.15203765042E+02  0.50528860499E+02  0.30000001974E+02 0.  0.
         12    1    1    2    0    0  0.29295393715E+02  0.23744284799E+02 -0.15203765042E+02  0.40659139501E+02  0.00000000000E+00 0. -1.
         11    1    3    3    0    0 -0.18820958175E+02 -0.11714698128E+02 -0.29501991912E+01  0.22364397921E+02  0.51100000000E-03 0. -1.
        -11    1    3    3    0    0 -0.11153088032E+02 -0.45642114073E+01  0.16593269677E+02  0.20507559515E+02  0.51100000000E-03 0.  1.
        -12    1    3    3    0    0  0.67865249215E+00 -0.74653752633E+01  0.15606945561E+01  0.76569030635E+01  0.00000000000E+00 0.  1.
</event>
<event>
 7    1  0.5849044E-013  0.5052886E+02  0.7816164E-02  0.1300439E+00
        -11   -1    0    0    0    0  0.00000000000E+00  0.00000000000E+00  0.45593999997E+02  0.45594000000E+02  0.51100000000E-03 0.  1.
         11   -1    0    0    0    0 -0.00000000000E+00 -0.00000000000E+00 -0.45593999997E+02  0.45594000000E+02  0.51100000000E-03 0. -1.
    9900012    2    1    2    0    0 -0.37000275773E+01  0.21291802518E+01  0.40434419735E+02  0.50528856970E+02  0.29999991247E+02 0.  0.
         12    1    1    2    0    0  0.37000275773E+01 -0.21291802518E+01 -0.40434419735E+02  0.40659143030E+02  0.00000000000E+00 0. -1.
         11    1    3    3    0    0  0.12577784110E+01 -0.45507627720E+01 -0.27524916351E+01  0.54651311787E+01  0.51100000000E-03 0. -1.
        -11    1    3    3    0    0 -0.29433177133E-01 -0.11185662067E+01  0.21073196730E+02  0.21102883153E+02  0.51100000000E-03 0.  1.
         12    1    3    3    0    0 -0.49283728112E+01  0.77985092305E+01  0.22113714640E+02  0.23960842638E+02  0.00000000000E+00 0. -1.
</event>
<event>
 7    1  0.5849044E-013  0.5052885E+02  0.7816164E-02  0.1300439E+00
        -11   -1    0    0    0    0  0.00000000000E+00  0.00000000000E+00  0.45593999997E+02  0.45594000000E+02  0.51100000000E-03 0. -1.
         11   -1    0    0    0    0 -0.00000000000E+00 -0.00000000000E+00 -0.45593999997E+02  0.45594000000E+02  0.51100000000E-03 0.  1.
    9900012    2    1    2    0    0 -0.37265462604E+02  0.73524550387E+01  0.14504931364E+02  0.50528851804E+02  0.29999975542E+02 0.  0.
         12    1    1    2    0    0  0.37265462604E+02 -0.73524550387E+01 -0.14504931364E+02  0.40659148196E+02  0.00000000000E+00 0. -1.
         11    1    3    3    0    0 -0.27655755157E+01  0.16526979137E+01  0.56144811487E+01  0.64731921922E+01  0.51100000000E-03 0. -1.
        -11    1    3    3    0    0 -0.26751465343E+02  0.15265705732E+02  0.55109225346E+01  0.31289821619E+02  0.51100000000E-03 0.  1.
        -12    1    3    3    0    0 -0.77484217456E+01 -0.95659486074E+01  0.33795276809E+01  0.12765837993E+02  0.00000000000E+00 0.  1.
</event>
<event>
 7    1  0.5849044E-013  0.5052882E+02  0.7816164E-02  0.1300439E+00
        -11   -1    0    0    0    0  0.00000000000E+00  0.00000000000E+00  0.45593999997E+02  0.45594000000E+02  0.51100000000E-03 0.  1.
         11   -1    0    0    0    0 -0.00000000000E+00 -0.00000000000E+00 -0.45593999997E+02  0.45594000000E+02  0.51100000000E-03 0. -1.
    9900012    2    1    2    0    0 -0.28977969077E+02 -0.25724160522E+02  0.12317229105E+02  0.50528815808E+02  0.29999866128E+02 0.  0.
         12    1    1    2    0    0  0.28977969077E+02  0.25724160522E+02 -0.12317229105E+02  0.40659184192E+02  0.00000000000E+00 0. -1.
         11    1    3    3    0    0 -0.44792479622E+01 -0.21535054501E+01 -0.87552428914E+00  0.50465623024E+01  0.51100000000E-03 0. -1.
        -11    1    3    3    0    0 -0.23281365916E+02 -0.13461782665E+02  0.19754723899E+02  0.33369008196E+02  0.51100000000E-03 0.  1.
        -12    1    3    3    0    0 -0.12173551981E+01 -0.10108872407E+02 -0.65619705039E+01  0.12113245309E+02  0.00000000000E+00 0.  1.
</event>
<event>
 7    1  0.5849044E-013  0.5052886E+02  0.7816164E-02  0.1300439E+00
        -11   -1    0    0    0    0  0.00000000000E+00  0.00000000000E+00  0.45593999997E+02  0.45594000000E+02  0.51100000000E-03 0.  1.
         11   -1    0    0    0    0 -0.00000000000E+00 -0.00000000000E+00 -0.45593999997E+02  0.45594000000E+02  0.51100000000E-03 0. -1.
    9900012    2    1    2    0    0  0.20981690098E+01 -0.20351430842E+02  0.35136622201E+02  0.50528864862E+02  0.30000015233E+02 0.  0.
         12    1    1    2    0    0 -0.20981690098E+01  0.20351430842E+02 -0.35136622201E+02  0.40659135138E+02  0.00000000000E+00 0. -1.
         11    1    3    3    0    0 -0.21935665466E+01  0.43625377304E+01  0.16110981476E+01  0.51418972321E+01  0.51100000000E-03 0. -1.
        -11    1    3    3    0    0  0.21022670839E+01 -0.11697010443E+02  0.29152121493E+02  0.31481514703E+02  0.51100000000E-03 0.  1.
        -12    1    3    3    0    0  0.21894684724E+01 -0.13016958130E+02  0.43734025605E+01  0.13905452927E+02  0.00000000000E+00 0.  1.
</event>
<event>
 7    1  0.5849044E-013  0.5052886E+02  0.7816164E-02  0.1300439E+00
        -11   -1    0    0    0    0  0.00000000000E+00  0.00000000000E+00  0.45593999997E+02  0.45594000000E+02  0.51100000000E-03 0.  1.
         11   -1    0    0    0    0 -0.00000000000E+00 -0.00000000000E+00 -0.45593999997E+02  0.45594000000E+02  0.51100000000E-03 0. -1.
    9900012    2    1    2    0    0 -0.53127484454E+01 -0.47704575166E+01  0.40027279207E+02  0.50528860293E+02  0.30000001348E+02 0.  0.
         12    1    1    2    0    0  0.53127484454E+01  0.47704575166E+01 -0.40027279207E+02  0.40659139707E+02  0.00000000000E+00 0. -1.
         11    1    3    3    0    0 -0.10223877918E+02 -0.53369350232E+01  0.13035199873E+02  0.17404797934E+02  0.51100000000E-03 0. -1.
        -11    1    3    3    0    0  0.67156398436E+01  0.32793535295E+01  0.28550408484E+02  0.29512366949E+02  0.51100000000E-03 0.  1.
        -12    1    3    3    0    0 -0.18045103714E+01 -0.27128760229E+01 -0.15583291505E+01  0.36116954104E+01  0.00000000000E+00 0.  1.
</event>
<event>
 7    1  0.5849044E-013  0.5052896E+02  0.7816164E-02  0.1300438E+00
        -11   -1    0    0    0    0  0.00000000000E+00  0.00000000000E+00  0.45593999997E+02  0.45594000000E+02  0.51100000000E-03 0. -1.
         11   -1    0    0    0    0 -0.00000000000E+00 -0.00000000000E+00 -0.45593999997E+02  0.45594000000E+02  0.51100000000E-03 0.  1.
    9900012    2    1    2    0    0  0.13643778547E+02 -0.56132758669E+01 -0.37887938831E+02  0.50528960810E+02  0.30000306878E+02 0.  0.
         12    1    1    2    0    0 -0.13643778547E+02  0.56132758669E+01  0.37887938831E+02  0.40659039190E+02  0.00000000000E+00 0. -1.
         11    1    3    3    0    0  0.35710920084E+01 -0.71851074001E+01 -0.23552784609E+02  0.24881963941E+02  0.51100000000E-03 0. -1.
        -11    1    3    3    0    0 -0.50068506727E+00 -0.34068691592E+01  0.31159795161E+01  0.46440038340E+01  0.51100000000E-03 0.  1.
        -12    1    3    3    0    0  0.10573371606E+02  0.49787006924E+01 -0.17451133738E+02  0.21002993035E+02  0.00000000000E+00 0.  1.
</event>
<event>
 7    1  0.5849044E-013  0.5052886E+02  0.7816164E-02  0.1300439E+00
        -11   -1    0    0    0    0  0.00000000000E+00  0.00000000000E+00  0.45593999997E+02  0.45594000000E+02  0.51100000000E-03 0.  1.
         11   -1    0    0    0    0 -0.00000000000E+00 -0.00000000000E+00 -0.45593999997E+02  0.45594000000E+02  0.51100000000E-03 0. -1.
    9900012    2    1    2    0    0 -0.43821805038E+01  0.34442894570E+02  0.21157712950E+02  0.50528864377E+02  0.30000013759E+02 0.  0.
         12    1    1    2    0    0  0.43821805038E+01 -0.34442894570E+02 -0.21157712950E+02  0.40659135623E+02  0.00000000000E+00 0. -1.
         11    1    3    3    0    0  0.10117247133E+02  0.11235796691E+02  0.14485931834E+02  0.20939055332E+02  0.51100000000E-03 0. -1.
        -11    1    3    3    0    0 -0.93698482060E+01  0.12070228866E+02  0.80155808878E+01  0.17254970806E+02  0.51100000000E-03 0.  1.
         12    1    3    3    0    0 -0.51295794312E+01  0.11136869013E+02 -0.13437997712E+01  0.12334838239E+02  0.00000000000E+00 0. -1.
</event>
<event>
 7    1  0.5849044E-013  0.5052886E+02  0.7816164E-02  0.1300439E+00
        -11   -1    0    0    0    0  0.00000000000E+00  0.00000000000E+00  0.45593999997E+02  0.45594000000E+02  0.51100000000E-03 0. -1.
         11   -1    0    0    0    0 -0.00000000000E+00 -0.00000000000E+00 -0.45593999997E+02  0.45594000000E+02  0.51100000000E-03 0.  1.
    9900012    2    1    2    0    0 -0.10745619652E+02  0.24158222816E+02 -0.30888144709E+02  0.50528861361E+02  0.30000004592E+02 0.  0.
         12    1    1    2    0    0  0.10745619652E+02 -0.24158222816E+02  0.30888144709E+02  0.40659138639E+02  0.00000000000E+00 0. -1.
         11    1    3    3    0    0 -0.86312879380E+00  0.25285799421E+01  0.40133598562E+01  0.48213862565E+01  0.51100000000E-03 0. -1.
        -11    1    3    3    0    0 -0.36191084999E+01  0.22836415979E+02 -0.27919238501E+02  0.36250292686E+02  0.51100000000E-03 0.  1.
        -12    1    3    3    0    0 -0.62633823588E+01 -0.12067731046E+01 -0.69822660634E+01  0.94571824175E+01  0.00000000000E+00 0.  1.
</event>
<event>
 7    1  0.5849044E-013  0.5052886E+02  0.7816164E-02  0.1300439E+00
        -11   -1    0    0    0    0  0.00000000000E+00  0.00000000000E+00  0.45593999997E+02  0.45594000000E+02  0.51100000000E-03 0.  1.
         11   -1    0    0    0    0 -0.00000000000E+00 -0.00000000000E+00 -0.45593999997E+02  0.45594000000E+02  0.51100000000E-03 0. -1.
    9900012    2    1    2    0    0  0.29272770528E+00 -0.13446870695E+02  0.38370065303E+02  0.50528856719E+02  0.29999990484E+02 0.  0.
         12    1    1    2    0    0 -0.29272770528E+00  0.13446870695E+02 -0.38370065303E+02  0.40659143281E+02  0.00000000000E+00 0. -1.
         11    1    3    3    0    0 -0.64529158861E+01 -0.73516199427E+01 -0.95865972411E+00  0.98288080632E+01  0.51100000000E-03 0. -1.
        -11    1    3    3    0    0  0.42279971300E+01 -0.65863254336E+01  0.27234021934E+02  0.28336329921E+02  0.51100000000E-03 0.  1.
         12    1    3    3    0    0  0.25176464613E+01  0.49107468130E+00  0.12094703093E+02  0.12363718735E+02  0.00000000000E+00 0. -1.
</event>
<event>
 7    1  0.5849044E-013  0.5052886E+02  0.7816164E-02  0.1300439E+00
        -11   -1    0    0    0    0  0.00000000000E+00  0.00000000000E+00  0.45593999997E+02  0.45594000000E+02  0.51100000000E-03 0.  1.
         11   -1    0    0    0    0 -0.00000000000E+00 -0.00000000000E+00 -0.45593999997E+02  0.45594000000E+02  0.51100000000E-03 0. -1.
    9900012    2    1    2    0    0 -0.16340822873E+02 -0.92419897575E+01  0.36065621188E+02  0.50528857135E+02  0.29999991747E+02 0.  0.
         12    1    1    2    0    0  0.16340822873E+02  0.92419897575E+01 -0.36065621188E+02  0.40659142865E+02  0.00000000000E+00 0. -1.
         11    1    3    3    0    0 -0.70087441585E+01 -0.14838289676E-02 -0.31384323835E+01  0.76793394877E+01  0.51100000000E-03 0. -1.
        -11    1    3    3    0    0 -0.61884302289E+01  0.46544262728E+00  0.21894359685E+02  0.22756895478E+02  0.51100000000E-03 0.  1.
         12    1    3    3    0    0 -0.31436484853E+01 -0.97059485558E+01  0.17309693887E+02  0.20092622169E+02  0.00000000000E+00 0. -1.
</event>
<event>
 7    1  0.5849044E-013  0.5052886E+02  0.7816164E-02  0.1300439E+00
        -11   -1    0    0    0    0  0.00000000000E+00  0.00000000000E+00  0.45593999997E+02  0.45594000000E+02  0.51100000000E-03 0. -1.
         11   -1    0    0    0    0 -0.00000000000E+00 -0.00000000000E+00 -0.45593999997E+02  0.45594000000E+02  0.51100000000E-03 0.  1.
    9900012    2    1    2    0    0 -0.29518697481E+02  0.15346549481E+02 -0.23372971324E+02  0.50528857480E+02  0.29999992796E+02 0.  0.
         12    1    1    2    0    0  0.29518697481E+02 -0.15346549481E+02  0.23372971324E+02  0.40659142520E+02  0.00000000000E+00 0. -1.
         11    1    3    3    0    0 -0.25171855900E+02  0.29980048099E+01 -0.53038846633E+01  0.25898678636E+02  0.51100000000E-03 0. -1.
        -11    1    3    3    0    0  0.31802424762E+01  0.40799635240E+01 -0.34199502210E+01  0.62012986010E+01  0.51100000000E-03 0.  1.
         12    1    3    3    0    0 -0.75270840572E+01  0.82685811469E+01 -0.14649136439E+02  0.18428880243E+02  0.00000000000E+00 0. -1.
</event>
<event>
 7    1  0.5849044E-013  0.5052886E+02  0.7816164E-02  0.1300439E+00
        -11   -1    0    0    0    0  0.00000000000E+00  0.00000000000E+00  0.45593999997E+02  0.45594000000E+02  0.51100000000E-03 0.  1.
         11   -1    0    0    0    0 -0.00000000000E+00 -0.00000000000E+00 -0.45593999997E+02  0.45594000000E+02  0.51100000000E-03 0. -1.
    9900012    2    1    2    0    0  0.69200775707E+01  0.33516016037E+02  0.21953468612E+02  0.50528860945E+02  0.30000003328E+02 0.  0.
         12    1    1    2    0    0 -0.69200775707E+01 -0.33516016037E+02 -0.21953468612E+02  0.40659139055E+02  0.00000000000E+00 0. -1.
         11    1    3    3    0    0  0.80694037637E+01  0.22760651333E+02  0.13788501034E+02  0.27808007610E+02  0.51100000000E-03 0. -1.
        -11    1    3    3    0    0  0.59757937064E+01 -0.18610901301E+01  0.37494127126E+00  0.62701154783E+01  0.51100000000E-03 0.  1.
         12    1    3    3    0    0 -0.71251198994E+01  0.12616454834E+02  0.77900263077E+01  0.16450737857E+02  0.00000000000E+00 0. -1.
</event>
<event>
 7    1  0.5849044E-013  0.5052886E+02  0.7816164E-02  0.1300439E+00
        -11   -1    0    0    0    0  0.00000000000E+00  0.00000000000E+00  0.45593999997E+02  0.45594000000E+02  0.51100000000E-03 0. -1.
         11   -1    0    0    0    0 -0.00000000000E+00 -0.00000000000E+00 -0.45593999997E+02  0.45594000000E+02  0.51100000000E-03 0.  1.
    9900012    2    1    2    0    0  0.38963723938E+02  0.11594242395E+02 -0.75320076989E+00  0.50528861406E+02  0.30000004729E+02 0.  0.
         12    1    1    2    0    0 -0.38963723938E+02 -0.11594242395E+02  0.75320076989E+00  0.40659138594E+02  0.00000000000E+00 0. -1.
         11    1    3    3    0    0 -0.11947073562E+01  0.34301098620E+01 -0.25095704323E+00  0.36408733885E+01  0.51100000000E-03 0. -1.
        -11    1    3    3    0    0  0.41826623430E+02  0.66815364314E+01 -0.42044709452E+01  0.42565090542E+02  0.51100000000E-03 0.  1.
        -12    1    3    3    0    0 -0.16681921360E+01  0.14825961021E+01  0.37022272186E+01  0.43228974754E+01  0.00000000000E+00 0.  1.
</event>
<event>
 7    1  0.5849044E-013  0.5052886E+02  0.7816164E-02  0.1300439E+00
        -11   -1    0    0    0    0  0.00000000000E+00  0.00000000000E+00  0.45593999997E+02  0.45594000000E+02  0.51100000000E-03 0. -1.
         11   -1    0    0    0    0 -0.00000000000E+00 -0.00000000000E+00 -0.45593999997E+02  0.45594000000E+02  0.51100000000E-03 0.  1.
    9900012    2    1    2    0    0  0.28733242933E+02  0.28742329771E+02  0.12019233784E+01  0.50528863389E+02  0.30000010757E+02 0.  0.
         12    1    1    2    0    0 -0.28733242933E+02 -0.28742329771E+02 -0.12019233784E+01  0.40659136611E+02  0.00000000000E+00 0. -1.
         11    1    3    3    0    0  0.10566454756E+02  0.77142405902E+01  0.11007722623E+02  0.17097644037E+02  0.51100000000E-03 0. -1.
        -11    1    3    3    0    0  0.19444049804E+02  0.13007667588E+02 -0.96562054533E+01  0.25308354211E+02  0.51100000000E-03 0.  1.
         12    1    3    3    0    0 -0.12772616269E+01  0.80204215935E+01 -0.14959379160E+00  0.81228651413E+01  0.00000000000E+00 0. -1.
</event>
<event>
 7    1  0.5849044E-013  0.5052886E+02  0.7816164E-02  0.1300439E+00
        -11   -1    0    0    0    0  0.00000000000E+00  0.00000000000E+00  0.45593999997E+02  0.45594000000E+02  0.51100000000E-03 0.  1.
         11   -1    0    0    0    0 -0.00000000000E+00 -0.00000000000E+00 -0.45593999997E+02  0.45594000000E+02  0.51100000000E-03 0. -1.
    9900012    2    1    2    0    0  0.24514503580E+02  0.19086408924E+02  0.26228110224E+02  0.50528860101E+02  0.30000000763E+02 0.  0.
         12    1    1    2    0    0 -0.24514503580E+02 -0.19086408924E+02 -0.26228110224E+02  0.40659139899E+02  0.00000000000E+00 0. -1.
         11    1    3    3    0    0  0.14094119524E+02  0.26251290812E+01  0.26086405465E+02  0.29766357826E+02  0.51100000000E-03 0. -1.
        -11    1    3    3    0    0  0.53251506986E+01  0.50962408819E+01  0.30427576576E+01  0.79741629977E+01  0.51100000000E-03 0.  1.
         12    1    3    3    0    0  0.50952333576E+01  0.11365038961E+02 -0.29010528990E+01  0.12788339278E+02  0.00000000000E+00 0. -1.
</event>
<event>
 7    1  0.5849044E-013  0.5052886E+02  0.7816164E-02  0.1300439E+00
        -11   -1    0    0    0    0  0.00000000000E+00  0.00000000000E+00  0.45593999997E+02  0.45594000000E+02  0.51100000000E-03 0.  1.
         11   -1    0    0    0    0 -0.00000000000E+00 -0.00000000000E+00 -0.45593999997E+02  0.45594000000E+02  0.51100000000E-03 0. -1.
    9900012    2    1    2    0    0  0.28917393762E+02  0.24206755251E+02  0.15198125209E+02  0.50528859925E+02  0.30000000228E+02 0.  0.
         12    1    1    2    0    0 -0.28917393762E+02 -0.24206755251E+02 -0.15198125209E+02  0.40659140075E+02  0.00000000000E+00 0. -1.
         11    1    3    3    0    0  0.12546329296E+02  0.20735285944E+02  0.16109934841E+02  0.29101416852E+02  0.51100000000E-03 0. -1.
        -11    1    3    3    0    0  0.11465503899E+02 -0.41010895449E+01  0.95290060613E+00  0.12214120310E+02  0.51100000000E-03 0.  1.
         12    1    3    3    0    0  0.49055605670E+01  0.75725588524E+01 -0.18647102385E+01  0.92133227624E+01  0.00000000000E+00 0. -1.
</event>
<event>
 7    1  0.5849044E-013  0.5052886E+02  0.7816164E-02  0.1300439E+00
        -11   -1    0    0    0    0  0.00000000000E+00  0.00000000000E+00  0.45593999997E+02  0.45594000000E+02  0.51100000000E-03 0.  1.
         11   -1    0    0    0    0 -0.00000000000E+00 -0.00000000000E+00 -0.45593999997E+02  0.45594000000E+02  0.51100000000E-03 0. -1.
    9900012    2    1    2    0    0  0.25127772192E+02 -0.60537144567E+01  0.31386518031E+02  0.50528857016E+02  0.29999991386E+02 0.  0.
         12    1    1    2    0    0 -0.25127772192E+02  0.60537144567E+01 -0.31386518031E+02  0.40659142984E+02  0.00000000000E+00 0. -1.
         11    1    3    3    0    0  0.48109440814E+01 -0.11829995895E+02  0.59171352737E+01  0.14075030229E+02  0.51100000000E-03 0. -1.
        -11    1    3    3    0    0  0.16687943418E+02  0.99561239615E+01  0.14773196288E+02  0.24410227133E+02  0.51100000000E-03 0.  1.
        -12    1    3    3    0    0  0.36288846925E+01 -0.41798425228E+01  0.10696186469E+02  0.12043599654E+02  0.00000000000E+00 0.  1.
</event>
<event>
 7    1  0.5849044E-013  0.5052886E+02  0.7816164E-02  0.1300439E+00
        -11   -1    0    0    0    0  0.00000000000E+00  0.00000000000E+00  0.45593999997E+02  0.45594000000E+02  0.51100000000E-03 0.  1.
         11   -1    0    0    0    0 -0.00000000000E+00 -0.00000000000E+00 -0.45593999997E+02  0.45594000000E+02  0.51100000000E-03 0. -1.
    9900012    2    1    2    0    0  0.12442357211E+02 -0.24979978332E+02  0.29569477523E+02  0.50528861158E+02  0.30000003975E+02 0.  0.
         12    1    1    2    0    0 -0.12442357211E+02  0.24979978332E+02 -0.29569477523E+02  0.40659138842E+02  0.00000000000E+00 0. -1.
         11    1    3    3    0    0  0.89469817821E+01  0.30906320910E+01  0.59029926370E+01  0.11155528318E+02  0.51100000000E-03 0. -1.
        -11    1    3    3    0    0  0.56318141811E+01 -0.28525802517E+02  0.20712339501E+02  0.35699296185E+02  0.51100000000E-03 0.  1.
         12    1    3    3    0    0 -0.21364387524E+01  0.45519209428E+00  0.29541453850E+01  0.36740366548E+01  0.00000000000E+00 0. -1.
</event>
<event>
 7    1  0.5849044E-013  0.5052888E+02  0.7816164E-02  0.1300439E+00
        -11   -1    0    0    0    0  0.00000000000E+00  0.00000000000E+00  0.45593999997E+02  0.45594000000E+02  0.51100000000E-03 0. -1.
         11   -1    0    0    0    0 -0.00000000000E+00 -0.00000000000E+00 -0.45593999997E+02  0.45594000000E+02  0.51100000000E-03 0.  1.
    9900012    2    1    2    0    0 -0.17614840755E+02  0.24698906424E+02 -0.27071111200E+02  0.50528884724E+02  0.30000075608E+02 0.  0.
         12    1    1    2    0    0  0.17614840755E+02 -0.24698906424E+02  0.27071111200E+02  0.40659115276E+02  0.00000000000E+00 0. -1.
         11    1    3    3    0    0  0.16489684994E+00  0.22620926193E+01 -0.17209454439E+02  0.17358271122E+02  0.51100000000E-03 0. -1.
        -11    1    3    3    0    0 -0.17154240450E+02  0.12309474920E+02 -0.91127486767E+01  0.22996376387E+02  0.51100000000E-03 0.  1.
         12    1    3    3    0    0 -0.62549715452E+00  0.10127338885E+02 -0.74890808438E+00  0.10174237215E+02  0.00000000000E+00 0. -1.
</event>
<event>
 7    1  0.5849044E-013  0.5052885E+02  0.7816164E-02  0.1300439E+00
        -11   -1    0    0    0    0  0.00000000000E+00  0.00000000000E+00  0.45593999997E+02  0.45594000000E+02  0.51100000000E-03 0.  1.
         11   -1    0    0    0    0 -0.00000000000E+00 -0.00000000000E+00 -0.45593999997E+02  0.45594000000E+02  0.51100000000E-03 0. -1.
    9900012    2    1    2    0    0 -0.66825728970E+00 -0.31976596201E+02  0.25104120571E+02  0.50528854140E+02  0.29999982645E+02 0.  0.
         12    1    1    2    0    0  0.66825728970E+00  0.31976596201E+02 -0.25104120571E+02  0.40659145860E+02  0.00000000000E+00 0. -1.
         11    1    3    3    0    0  0.40020889475E+01  0.26232893838E+01  0.45007743821E+00  0.48063430065E+01  0.51100000000E-03 0. -1.
        -11    1    3    3    0    0  0.31686294134E+01 -0.28024291341E+02  0.16836911366E+02  0.32846349906E+02  0.51100000000E-03 0.  1.
         12    1    3    3    0    0 -0.78389756506E+01 -0.65755942430E+01  0.78171317672E+01  0.12876161228E+02  0.00000000000E+00 0. -1.
</event>
<event>
 7    1  0.5849044E-013  0.5052886E+02  0.7816164E-02  0.1300439E+00
        -11   -1    0    0    0    0  0.00000000000E+00  0.00000000000E+00  0.45593999997E+02  0.45594000000E+02  0.51100000000E-03 0.  1.
         11   -1    0    0    0    0 -0.00000000000E+00 -0.00000000000E+00 -0.45593999997E+02  0.45594000000E+02  0.51100000000E-03 0. -1.
    9900012    2    1    2    0    0  0.26659963348E+02 -0.30666641158E+02  0.14033939093E+01  0.50528855394E+02  0.29999986454E+02 0.  0.
         12    1    1    2    0    0 -0.26659963348E+02  0.30666641158E+02 -0.14033939093E+01  0.40659144606E+02  0.00000000000E+00 0. -1.
         11    1    3    3    0    0 -0.87207820774E+00  0.34747185446E+01 -0.21705118782E+01  0.41887123844E+01  0.51100000000E-03 0. -1.
        -11    1    3    3    0    0  0.18163755578E+02 -0.20726986500E+02 -0.47768002801E+01  0.27970480998E+02  0.51100000000E-03 0.  1.
        -12    1    3    3    0    0  0.93682859782E+01 -0.13414373203E+02  0.83507060676E+01  0.18369662012E+02  0.00000000000E+00 0.  1.
</event>
<event>
 7    1  0.5849044E-013  0.5052886E+02  0.7816164E-02  0.1300439E+00
        -11   -1    0    0    0    0  0.00000000000E+00  0.00000000000E+00  0.45593999997E+02  0.45594000000E+02  0.51100000000E-03 0.  1.
         11   -1    0    0    0    0 -0.00000000000E+00 -0.00000000000E+00 -0.45593999997E+02  0.45594000000E+02  0.51100000000E-03 0. -1.
    9900012    2    1    2    0    0 -0.35863538185E+02  0.35180448013E+01  0.18830702341E+02  0.50528863744E+02  0.30000011838E+02 0.  0.
         12    1    1    2    0    0  0.35863538185E+02 -0.35180448013E+01 -0.18830702341E+02  0.40659136256E+02  0.00000000000E+00 0. -1.
         11    1    3    3    0    0 -0.16776393889E+02 -0.11884591470E+02  0.12075521091E+02  0.23843429204E+02  0.51100000000E-03 0. -1.
        -11    1    3    3    0    0 -0.73335331948E+01  0.29768018558E+01 -0.86285178067E+00  0.79615684299E+01  0.51100000000E-03 0.  1.
         12    1    3    3    0    0 -0.11753611101E+02  0.12425834416E+02  0.76180330309E+01  0.18723866110E+02  0.00000000000E+00 0. -1.
</event>
<event>
 7    1  0.5849044E-013  0.5052886E+02  0.7816164E-02  0.1300439E+00
        -11   -1    0    0    0    0  0.00000000000E+00  0.00000000000E+00  0.45593999997E+02  0.45594000000E+02  0.51100000000E-03 0. -1.
         11   -1    0    0    0    0 -0.00000000000E+00 -0.00000000000E+00 -0.45593999997E+02  0.45594000000E+02  0.51100000000E-03 0.  1.
    9900012    2    1    2    0    0 -0.22313460878E+02 -0.20788715578E+02 -0.26890603557E+02  0.50528858452E+02  0.29999995752E+02 0.  0.
         12    1    1    2    0    0  0.22313460878E+02  0.20788715578E+02  0.26890603557E+02  0.40659141548E+02  0.00000000000E+00 0. -1.
         11    1    3    3    0    0 -0.10554983328E+02  0.67338411951E+00  0.27989319041E+01  0.10940527377E+02  0.51100000000E-03 0. -1.
        -11    1    3    3    0    0 -0.11038840685E+02 -0.12687449464E+02 -0.23184570371E+02  0.28641782087E+02  0.51100000000E-03 0.  1.
         12    1    3    3    0    0 -0.71963686493E+00 -0.87746502334E+01 -0.65049650903E+01  0.10946548989E+02  0.00000000000E+00 0. -1.
</event>
<event>
 7    1  0.5849044E-013  0.5052886E+02  0.7816164E-02  0.1300439E+00
        -11   -1    0    0    0    0  0.00000000000E+00  0.00000000000E+00  0.45593999997E+02  0.45594000000E+02  0.51100000000E-03 0.  1.
         11   -1    0    0    0    0 -0.00000000000E+00 -0.00000000000E+00 -0.45593999997E+02  0.45594000000E+02  0.51100000000E-03 0. -1.
    9900012    2    1    2    0    0 -0.32750487228E+01  0.38578413021E+02  0.12415531600E+02  0.50528864246E+02  0.30000013362E+02 0.  0.
         12    1    1    2    0    0  0.32750487228E+01 -0.38578413021E+02 -0.12415531600E+02  0.40659135754E+02  0.00000000000E+00 0. -1.
         11    1    3    3    0    0  0.31173014972E+01  0.39169659266E+01 -0.47102625394E+01  0.68736281646E+01  0.51100000000E-03 0. -1.
        -11    1    3    3    0    0 -0.49280977838E+01  0.31325500723E+02  0.64301420980E+01  0.32356141163E+02  0.51100000000E-03 0.  1.
         12    1    3    3    0    0 -0.14642524362E+01  0.33359463717E+01  0.10695652041E+02  0.11299094918E+02  0.00000000000E+00 0. -1.
</event>
<event>
 7    1  0.5849044E-013  0.5052887E+02  0.7816164E-02  0.1300439E+00
        -11   -1    0    0    0    0  0.00000000000E+00  0.00000000000E+00  0.45593999997E+02  0.45594000000E+02  0.51100000000E-03 0.  1.
         11   -1    0    0    0    0 -0.00000000000E+00 -0.00000000000E+00 -0.45593999997E+02  0.45594000000E+02  0.51100000000E-03 0. -1.
    9900012    2    1    2    0    0 -0.23354047956E+02 -0.32172906577E+02 -0.85239114153E+01  0.50528873849E+02  0.30000042551E+02 0.  0.
         12    1    1    2    0    0  0.23354047956E+02  0.32172906577E+02  0.85239114153E+01  0.40659126151E+02  0.00000000000E+00 0. -1.
         11    1    3    3    0    0  0.48920578048E+01 -0.12723780514E+02  0.14088755031E+01  0.13704442732E+02  0.51100000000E-03 0. -1.
        -11    1    3    3    0    0 -0.17679837382E+02 -0.10004004581E+02 -0.15836564005E+01  0.20375591411E+02  0.51100000000E-03 0.  1.
         12    1    3    3    0    0 -0.10566268379E+02 -0.94451214817E+01 -0.83491305179E+01  0.16448839706E+02  0.00000000000E+00 0. -1.
</event>
<event>
 7    1  0.5849044E-013  0.5052884E+02  0.7816164E-02  0.1300439E+00
        -11   -1    0    0    0    0  0.00000000000E+00  0.00000000000E+00  0.45593999997E+02  0.45594000000E+02  0.51100000000E-03 0.  1.
         11   -1    0    0    0    0 -0.00000000000E+00 -0.00000000000E+00 -0.45593999997E+02  0.45594000000E+02  0.51100000000E-03 0. -1.
    9900012    2    1    2    0    0  0.26035176964E+02  0.23604500003E+02  0.20449061046E+02  0.50528844111E+02  0.29999952160E+02 0.  0.
         12    1    1    2    0    0 -0.26035176964E+02 -0.23604500003E+02 -0.20449061046E+02  0.40659155889E+02  0.00000000000E+00 0. -1.
         11    1    3    3    0    0  0.12789726006E+01  0.72465471534E+01 -0.62127151281E+01  0.96304748629E+01  0.51100000000E-03 0. -1.
        -11    1    3    3    0    0  0.15370019632E+02  0.78034209050E+01  0.99309487916E+01  0.19893582519E+02  0.51100000000E-03 0.  1.
         12    1    3    3    0    0  0.93861847317E+01  0.85545319444E+01  0.16730827383E+02  0.21004786729E+02  0.00000000000E+00 0. -1.
</event>
<event>
 7    1  0.5849044E-013  0.5052886E+02  0.7816164E-02  0.1300439E+00
        -11   -1    0    0    0    0  0.00000000000E+00  0.00000000000E+00  0.45593999997E+02  0.45594000000E+02  0.51100000000E-03 0. -1.
         11   -1    0    0    0    0 -0.00000000000E+00 -0.00000000000E+00 -0.45593999997E+02  0.45594000000E+02  0.51100000000E-03 0.  1.
    9900012    2    1    2    0    0 -0.41024316030E+01  0.19037366267E+02 -0.35691941339E+02  0.50528856674E+02  0.29999990347E+02 0.  0.
         12    1    1    2    0    0  0.41024316030E+01 -0.19037366267E+02  0.35691941339E+02  0.40659143326E+02  0.00000000000E+00 0. -1.
         11    1    3    3    0    0 -0.10606154460E+02 -0.16377561426E+00 -0.39801145103E+01  0.11329547505E+02  0.51100000000E-03 0. -1.
        -11    1    3    3    0    0 -0.13986215007E+01  0.12728303129E+02 -0.16777428750E+02  0.21105638071E+02  0.51100000000E-03 0.  1.
         12    1    3    3    0    0  0.79023443580E+01  0.64728387518E+01 -0.14934398078E+02  0.18093671098E+02  0.00000000000E+00 0. -1.
</event>
<event>
 7    1  0.5849044E-013  0.5052885E+02  0.7816164E-02  0.1300439E+00
        -11   -1    0    0    0    0  0.00000000000E+00  0.00000000000E+00  0.45593999997E+02  0.45594000000E+02  0.51100000000E-03 0. -1.
         11   -1    0    0    0    0 -0.00000000000E+00 -0.00000000000E+00 -0.45593999997E+02  0.45594000000E+02  0.51100000000E-03 0.  1.
    9900012    2    1    2    0    0  0.38857180982E+02  0.11747257248E+02  0.22995114865E+01  0.50528851954E+02  0.29999976000E+02 0.  0.
         12    1    1    2    0    0 -0.38857180982E+02 -0.11747257248E+02 -0.22995114865E+01  0.40659148046E+02  0.00000000000E+00 0. -1.
         11    1    3    3    0    0  0.24465803993E+01  0.15869220077E+01  0.79098904840E+01  0.84303288690E+01  0.51100000000E-03 0. -1.
        -11    1    3    3    0    0  0.26077299345E+02  0.14119868608E+02 -0.81310025349E+01  0.30749137112E+02  0.51100000000E-03 0.  1.
         12    1    3    3    0    0  0.10333301237E+02 -0.39595333678E+01  0.25206235375E+01  0.11349385973E+02  0.00000000000E+00 0. -1.
</event>
<event>
 7    1  0.5849044E-013  0.5052887E+02  0.7816164E-02  0.1300439E+00
        -11   -1    0    0    0    0  0.00000000000E+00  0.00000000000E+00  0.45593999997E+02  0.45594000000E+02  0.51100000000E-03 0.  1.
         11   -1    0    0    0    0 -0.00000000000E+00 -0.00000000000E+00 -0.45593999997E+02  0.45594000000E+02  0.51100000000E-03 0. -1.
    9900012    2    1    2    0    0 -0.70903481549E+01  0.23762801722E+02  0.32221441081E+02  0.50528867595E+02  0.30000023542E+02 0.  0.
         12    1    1    2    0    0  0.70903481549E+01 -0.23762801722E+02 -0.32221441081E+02  0.40659132405E+02  0.00000000000E+00 0. -1.
         11    1    3    3    0    0 -0.30065146825E+00 -0.30235898501E+01  0.31188214569E+00  0.30544651939E+01  0.51100000000E-03 0. -1.
        -11    1    3    3    0    0 -0.12690079261E+02  0.20710523705E+02  0.30333159174E+02  0.38859547727E+02  0.51100000000E-03 0.  1.
        -12    1    3    3    0    0  0.59003825739E+01  0.60758678671E+01  0.15763997606E+01  0.86148546744E+01  0.00000000000E+00 0.  1.
</event>
<event>
 7    1  0.5849044E-013  0.5052885E+02  0.7816164E-02  0.1300439E+00
        -11   -1    0    0    0    0  0.00000000000E+00  0.00000000000E+00  0.45593999997E+02  0.45594000000E+02  0.51100000000E-03 0.  1.
         11   -1    0    0    0    0 -0.00000000000E+00 -0.00000000000E+00 -0.45593999997E+02  0.45594000000E+02  0.51100000000E-03 0. -1.
    9900012    2    1    2    0    0 -0.32947547433E+02 -0.92359428861E+01  0.21961843785E+02  0.50528854593E+02  0.29999984021E+02 0.  0.
         12    1    1    2    0    0  0.32947547433E+02  0.92359428861E+01 -0.21961843785E+02  0.40659145407E+02  0.00000000000E+00 0. -1.
         11    1    3    3    0    0 -0.21363043885E+02  0.33974627501E+01  0.75790010821E+01  0.22920812700E+02  0.51100000000E-03 0.  1.
        -11    1    3    3    0    0 -0.51493750460E+01 -0.11176112200E+02  0.59141827173E+00  0.12319550443E+02  0.51100000000E-03 0. -1.
         12    1    3    3    0    0 -0.64351285013E+01 -0.14572934361E+01  0.13791424431E+02  0.15288491450E+02  0.00000000000E+00 0. -1.
</event>
<event>
 7    1  0.5849044E-013  0.5052881E+02  0.7816164E-02  0.1300439E+00
        -11   -1    0    0    0    0  0.00000000000E+00  0.00000000000E+00  0.45593999997E+02  0.45594000000E+02  0.51100000000E-03 0.  1.
         11   -1    0    0    0    0 -0.00000000000E+00 -0.00000000000E+00 -0.45593999997E+02  0.45594000000E+02  0.51100000000E-03 0. -1.
    9900012    2    1    2    0    0 -0.20682947653E+02 -0.80756911046E+01  0.34061246176E+02  0.50528811599E+02  0.29999853335E+02 0.  0.
         12    1    1    2    0    0  0.20682947653E+02  0.80756911046E+01 -0.34061246176E+02  0.40659188401E+02  0.00000000000E+00 0. -1.
         11    1    3    3    0    0 -0.24377270531E+01 -0.75603877665E+01 -0.34115883870E+01  0.86452826413E+01  0.51100000000E-03 0. -1.
        -11    1    3    3    0    0 -0.10348036745E+02 -0.17963780886E+01  0.24282663835E+02  0.26456692950E+02  0.51100000000E-03 0.  1.
         12    1    3    3    0    0 -0.78971838549E+01  0.12810747504E+01  0.13190170728E+02  0.15426836007E+02  0.00000000000E+00 0. -1.
</event>
<event>
 7    1  0.5849044E-013  0.5052887E+02  0.7816164E-02  0.1300439E+00
        -11   -1    0    0    0    0  0.00000000000E+00  0.00000000000E+00  0.45593999997E+02  0.45594000000E+02  0.51100000000E-03 0.  1.
         11   -1    0    0    0    0 -0.00000000000E+00 -0.00000000000E+00 -0.45593999997E+02  0.45594000000E+02  0.51100000000E-03 0. -1.
    9900012    2    1    2    0    0 -0.31879393286E+02  0.72096357443E+01  0.24184505895E+02  0.50528869547E+02  0.30000029474E+02 0.  0.
         12    1    1    2    0    0  0.31879393286E+02 -0.72096357443E+01 -0.24184505895E+02  0.40659130453E+02  0.00000000000E+00 0. -1.
         11    1    3    3    0    0  0.19503018462E+01 -0.43282907498E+01  0.33790359838E+01  0.58271487493E+01  0.51100000000E-03 0. -1.
        -11    1    3    3    0    0 -0.14630963579E+02  0.13876908070E+02  0.93993877103E+01  0.22248194588E+02  0.51100000000E-03 0.  1.
         12    1    3    3    0    0 -0.19198731553E+02 -0.23389815763E+01  0.11406082200E+02  0.22453526209E+02  0.00000000000E+00 0. -1.
</event>
<event>
 7    1  0.5849044E-013  0.5052886E+02  0.7816164E-02  0.1300439E+00
        -11   -1    0    0    0    0  0.00000000000E+00  0.00000000000E+00  0.45593999997E+02  0.45594000000E+02  0.51100000000E-03 0. -1.
         11   -1    0    0    0    0 -0.00000000000E+00 -0.00000000000E+00 -0.45593999997E+02  0.45594000000E+02  0.51100000000E-03 0.  1.
    9900012    2    1    2    0    0 -0.18347063253E+02 -0.91070035675E+01 -0.35122836167E+02  0.50528857555E+02  0.29999993024E+02 0.  0.
         12    1    1    2    0    0  0.18347063253E+02  0.91070035675E+01  0.35122836167E+02  0.40659142445E+02  0.00000000000E+00 0. -1.
         11    1    3    3    0    0  0.92557012877E+00  0.31078225166E+01 -0.60513963236E+01  0.68654671061E+01  0.51100000000E-03 0. -1.
        -11    1    3    3    0    0 -0.22396061231E+02 -0.53721733179E+01 -0.14362233323E+02  0.27142541353E+02  0.51100000000E-03 0.  1.
        -12    1    3    3    0    0  0.31234278492E+01 -0.68426527662E+01 -0.14709206520E+02  0.16520849096E+02  0.00000000000E+00 0.  1.
</event>
<event>
 7    1  0.5849044E-013  0.5052886E+02  0.7816164E-02  0.1300439E+00
        -11   -1    0    0    0    0  0.00000000000E+00  0.00000000000E+00  0.45593999997E+02  0.45594000000E+02  0.51100000000E-03 0.  1.
         11   -1    0    0    0    0 -0.00000000000E+00 -0.00000000000E+00 -0.45593999997E+02  0.45594000000E+02  0.51100000000E-03 0. -1.
    9900012    2    1    2    0    0 -0.45486295684E+01 -0.40383293899E+02 -0.12905176332E+01  0.50528857205E+02  0.29999991961E+02 0.  0.
         12    1    1    2    0    0  0.45486295684E+01  0.40383293899E+02  0.12905176332E+01  0.40659142795E+02  0.00000000000E+00 0. -1.
         11    1    3    3    0    0 -0.39226012689E+01  0.27072977611E+01  0.12868334533E+01  0.49368210905E+01  0.51100000000E-03 0. -1.
        -11    1    3    3    0    0 -0.23942860359E+01 -0.41331155013E+02 -0.54836497016E+01  0.41762032932E+02  0.51100000000E-03 0.  1.
         12    1    3    3    0    0  0.17682577364E+01 -0.17594366468E+01  0.29062986150E+01  0.38300031822E+01  0.00000000000E+00 0. -1.
</event>
<event>
 7    1  0.5849044E-013  0.5052886E+02  0.7816164E-02  0.1300439E+00
        -11   -1    0    0    0    0  0.00000000000E+00  0.00000000000E+00  0.45593999997E+02  0.45594000000E+02  0.51100000000E-03 0.  1.
         11   -1    0    0    0    0 -0.00000000000E+00 -0.00000000000E+00 -0.45593999997E+02  0.45594000000E+02  0.51100000000E-03 0. -1.
    9900012    2    1    2    0    0 -0.32160078936E+01 -0.38590117292E+02  0.12394596512E+02  0.50528857337E+02  0.29999992361E+02 0.  0.
         12    1    1    2    0    0  0.32160078936E+01  0.38590117292E+02 -0.12394596512E+02  0.40659142663E+02  0.00000000000E+00 0. -1.
         11    1    3    3    0    0  0.56509952412E+01 -0.14946690747E+02  0.80269522498E+01  0.17882093674E+02  0.51100000000E-03 0. -1.
        -11    1    3    3    0    0 -0.11367267864E+02 -0.23686601013E+02 -0.14515224825E+01  0.26313053111E+02  0.51100000000E-03 0.  1.
        -12    1    3    3    0    0  0.25002647290E+01  0.43174467839E-01  0.58191667444E+01  0.63337105514E+01  0.00000000000E+00 0.  1.
</event>
<event>
 7    1  0.5849044E-013  0.5052886E+02  0.7816164E-02  0.1300439E+00
        -11   -1    0    0    0    0  0.00000000000E+00  0.00000000000E+00  0.45593999997E+02  0.45594000000E+02  0.51100000000E-03 0.  1.
         11   -1    0    0    0    0 -0.00000000000E+00 -0.00000000000E+00 -0.45593999997E+02  0.45594000000E+02  0.51100000000E-03 0. -1.
    9900012    2    1    2    0    0 -0.18334331178E+02 -0.11859112638E+02  0.34298386962E+02  0.50528860799E+02  0.30000002886E+02 0.  0.
         12    1    1    2    0    0  0.18334331178E+02  0.11859112638E+02 -0.34298386962E+02  0.40659139201E+02  0.00000000000E+00 0. -1.
         11    1    3    3    0    0  0.50736100741E+01  0.21438157868E+00  0.83733597945E+01  0.97928868652E+01  0.51100000000E-03 0. -1.
        -11    1    3    3    0    0 -0.15050647428E+02 -0.15716624512E+02  0.21542497388E+02  0.30620474654E+02  0.51100000000E-03 0.  1.
        -12    1    3    3    0    0 -0.83572938247E+01  0.36431302951E+01  0.43825297792E+01  0.10115499280E+02  0.00000000000E+00 0.  1.
</event>
<event>
 7    1  0.5849044E-013  0.5052887E+02  0.7816164E-02  0.1300439E+00
        -11   -1    0    0    0    0  0.00000000000E+00  0.00000000000E+00  0.45593999997E+02  0.45594000000E+02  0.51100000000E-03 0. -1.
         11   -1    0    0    0    0 -0.00000000000E+00 -0.00000000000E+00 -0.45593999997E+02  0.45594000000E+02  0.51100000000E-03 0.  1.
    9900012    2    1    2    0    0  0.55984444175E+01  0.33118004276E+02 -0.22913323596E+02  0.50528865905E+02  0.30000018405E+02 0.  0.
         12    1    1    2    0    0 -0.55984444175E+01 -0.33118004276E+02  0.22913323596E+02  0.40659134095E+02  0.00000000000E+00 0. -1.
         11    1    3    3    0    0  0.79083198652E+01  0.74336395006E+01 -0.14482933957E+02  0.18098505341E+02  0.51100000000E-03 0. -1.
        -11    1    3    3    0    0  0.39695266077E+01  0.17025636560E+02  0.18688063717E+01  0.17581862224E+02  0.51100000000E-03 0.  1.
        -12    1    3    3    0    0 -0.62794020553E+01  0.86587282154E+01 -0.10299196011E+02  0.14848498340E+02  0.00000000000E+00 0.  1.
</event>
<event>
 7    1  0.5849044E-013  0.5052887E+02  0.7816164E-02  0.1300439E+00
        -11   -1    0    0    0    0  0.00000000000E+00  0.00000000000E+00  0.45593999997E+02  0.45594000000E+02  0.51100000000E-03 0.  1.
         11   -1    0    0    0    0 -0.00000000000E+00 -0.00000000000E+00 -0.45593999997E+02  0.45594000000E+02  0.51100000000E-03 0. -1.
    9900012    2    1    2    0    0 -0.26430928212E+02  0.30803388887E+02 -0.23920766545E+01  0.50528871089E+02  0.30000034161E+02 0.  0.
         12    1    1    2    0    0  0.26430928212E+02 -0.30803388887E+02  0.23920766545E+01  0.40659128911E+02  0.00000000000E+00 0. -1.
         11    1    3    3    0    0 -0.84598664897E+01  0.39331893724E+01 -0.13088443185E+02  0.16073165990E+02  0.51100000000E-03 0. -1.
        -11    1    3    3    0    0 -0.53126633412E+01  0.85966458832E+01  0.84528140692E+00  0.10141065681E+02  0.51100000000E-03 0.  1.
         12    1    3    3    0    0 -0.12658398382E+02  0.18273553632E+02  0.98510851240E+01  0.24314639418E+02  0.00000000000E+00 0. -1.
</event>
<event>
 7    1  0.5849044E-013  0.5052886E+02  0.7816164E-02  0.1300439E+00
        -11   -1    0    0    0    0  0.00000000000E+00  0.00000000000E+00  0.45593999997E+02  0.45594000000E+02  0.51100000000E-03 0.  1.
         11   -1    0    0    0    0 -0.00000000000E+00 -0.00000000000E+00 -0.45593999997E+02  0.45594000000E+02  0.51100000000E-03 0. -1.
    9900012    2    1    2    0    0 -0.23708592192E+01 -0.30554500963E+02  0.26720163055E+02  0.50528860606E+02  0.30000002299E+02 0.  0.
         12    1    1    2    0    0  0.23708592192E+01  0.30554500963E+02 -0.26720163055E+02  0.40659139394E+02  0.00000000000E+00 0. -1.
         11    1    3    3    0    0 -0.82608393841E+01 -0.12475644935E+02  0.28219620488E+01  0.15226511549E+02  0.51100000000E-03 0. -1.
        -11    1    3    3    0    0  0.10924759609E+02 -0.96475153629E+01  0.19976034110E+02  0.24727856037E+02  0.51100000000E-03 0.  1.
        -12    1    3    3    0    0 -0.50347794442E+01 -0.84313406656E+01  0.39221668964E+01  0.10574493020E+02  0.00000000000E+00 0.  1.
</event>
<event>
 7    1  0.5849044E-013  0.5052886E+02  0.7816164E-02  0.1300439E+00
        -11   -1    0    0    0    0  0.00000000000E+00  0.00000000000E+00  0.45593999997E+02  0.45594000000E+02  0.51100000000E-03 0.  1.
         11   -1    0    0    0    0 -0.00000000000E+00 -0.00000000000E+00 -0.45593999997E+02  0.45594000000E+02  0.51100000000E-03 0. -1.
    9900012    2    1    2    0    0 -0.32687117745E+02  0.10845165799E+01  0.24156614850E+02  0.50528857317E+02  0.29999992301E+02 0.  0.
         12    1    1    2    0    0  0.32687117745E+02 -0.10845165799E+01 -0.24156614850E+02  0.40659142683E+02  0.00000000000E+00 0. -1.
         11    1    3    3    0    0  0.27360324930E+01 -0.27625578978E+01  0.10431412094E+02  0.11132473152E+02  0.51100000000E-03 0. -1.
        -11    1    3    3    0    0 -0.23080833799E+02  0.39693865537E+01  0.41720941064E+01  0.23788385569E+02  0.51100000000E-03 0.  1.
         12    1    3    3    0    0 -0.12342316439E+02 -0.12231207602E+00  0.95531086495E+01  0.15607998597E+02  0.00000000000E+00 0. -1.
</event>
<event>
 7    1  0.5849044E-013  0.5052888E+02  0.7816164E-02  0.1300439E+00
        -11   -1    0    0    0    0  0.00000000000E+00  0.00000000000E+00  0.45593999997E+02  0.45594000000E+02  0.51100000000E-03 0. -1.
         11   -1    0    0    0    0 -0.00000000000E+00 -0.00000000000E+00 -0.45593999997E+02  0.45594000000E+02  0.51100000000E-03 0.  1.
    9900012    2    1    2    0    0 -0.18481200011E+02 -0.25815153452E+01 -0.36124025174E+02  0.50528878390E+02  0.30000056355E+02 0.  0.
         12    1    1    2    0    0  0.18481200011E+02  0.25815153452E+01  0.36124025174E+02  0.40659121610E+02  0.00000000000E+00 0. -1.
         11    1    3    3    0    0  0.43036656773E+01 -0.63283741294E+01 -0.49405919898E+01  0.91092978244E+01  0.51100000000E-03 0. -1.
        -11    1    3    3    0    0 -0.19907562857E+02  0.85155114474E+01 -0.23878024278E+02  0.32233290831E+02  0.51100000000E-03 0.  1.
        -12    1    3    3    0    0 -0.28773028317E+01 -0.47686526632E+01 -0.73054089056E+01  0.91862897345E+01  0.00000000000E+00 0.  1.
</event>
<event>
 7    1  0.5849044E-013  0.5052890E+02  0.7816164E-02  0.1300439E+00
        -11   -1    0    0    0    0  0.00000000000E+00  0.00000000000E+00  0.45593999997E+02  0.45594000000E+02  0.51100000000E-03 0.  1.
         11   -1    0    0    0    0 -0.00000000000E+00 -0.00000000000E+00 -0.45593999997E+02  0.45594000000E+02  0.51100000000E-03 0. -1.
    9900012    2    1    2    0    0  0.11784881696E+02 -0.16274295720E+02  0.35347227819E+02  0.50528897055E+02  0.30000113090E+02 0.  0.
         12    1    1    2    0    0 -0.11784881696E+02  0.16274295720E+02 -0.35347227819E+02  0.40659102945E+02  0.00000000000E+00 0. -1.
         11    1    3    3    0    0  0.19299135705E+01 -0.14800273310E+02  0.21684643750E+02  0.26324825379E+02  0.51100000000E-03 0. -1.
        -11    1    3    3    0    0  0.13328330561E+01  0.74132605334E+01  0.38483766746E+01  0.84583023700E+01  0.51100000000E-03 0.  1.
         12    1    3    3    0    0  0.85221350691E+01 -0.88872829440E+01  0.98142073942E+01  0.15745769306E+02  0.00000000000E+00 0. -1.
</event>
<event>
 7    1  0.5849044E-013  0.5052886E+02  0.7816164E-02  0.1300439E+00
        -11   -1    0    0    0    0  0.00000000000E+00  0.00000000000E+00  0.45593999997E+02  0.45594000000E+02  0.51100000000E-03 0.  1.
         11   -1    0    0    0    0 -0.00000000000E+00 -0.00000000000E+00 -0.45593999997E+02  0.45594000000E+02  0.51100000000E-03 0. -1.
    9900012    2    1    2    0    0  0.24088465027E+02  0.57400889270E+01  0.32248454080E+02  0.50528861312E+02  0.30000004445E+02 0.  0.
         12    1    1    2    0    0 -0.24088465027E+02 -0.57400889270E+01 -0.32248454080E+02  0.40659138688E+02  0.00000000000E+00 0. -1.
         11    1    3    3    0    0  0.13838198294E+02 -0.61291719740E+01  0.13707466377E+02  0.20419527807E+02  0.51100000000E-03 0. -1.
        -11    1    3    3    0    0 -0.20345765251E+01  0.11216053956E+02  0.95684751772E+01  0.14882710958E+02  0.51100000000E-03 0.  1.
        -12    1    3    3    0    0  0.12284843258E+02  0.65320694520E+00  0.89725125261E+01  0.15226622548E+02  0.00000000000E+00 0.  1.
</event>
<event>
 7    1  0.5849044E-013  0.5052887E+02  0.7816164E-02  0.1300439E+00
        -11   -1    0    0    0    0  0.00000000000E+00  0.00000000000E+00  0.45593999997E+02  0.45594000000E+02  0.51100000000E-03 0.  1.
         11   -1    0    0    0    0 -0.00000000000E+00 -0.00000000000E+00 -0.45593999997E+02  0.45594000000E+02  0.51100000000E-03 0. -1.
    9900012    2    1    2    0    0  0.55660949022E+01 -0.10404986053E+02  0.38909126044E+02  0.50528865274E+02  0.30000016486E+02 0.  0.
         12    1    1    2    0    0 -0.55660949022E+01  0.10404986053E+02 -0.38909126044E+02  0.40659134726E+02  0.00000000000E+00 0. -1.
         11    1    3    3    0    0 -0.84001258637E+01 -0.82625645746E+00  0.13930014690E+02  0.16287729240E+02  0.51100000000E-03 0. -1.
        -11    1    3    3    0    0  0.65639226699E+01 -0.98757021465E+01  0.48849966115E+01  0.12824888532E+02  0.51100000000E-03 0.  1.
        -12    1    3    3    0    0  0.74022980960E+01  0.29697255132E+00  0.20094114742E+02  0.21416247502E+02  0.00000000000E+00 0.  1.
</event>
<event>
 7    1  0.5849044E-013  0.5052885E+02  0.7816164E-02  0.1300439E+00
        -11   -1    0    0    0    0  0.00000000000E+00  0.00000000000E+00  0.45593999997E+02  0.45594000000E+02  0.51100000000E-03 0.  1.
         11   -1    0    0    0    0 -0.00000000000E+00 -0.00000000000E+00 -0.45593999997E+02  0.45594000000E+02  0.51100000000E-03 0. -1.
    9900012    2    1    2    0    0 -0.43432028199E+01  0.19987442942E+02  0.35139789295E+02  0.50528854931E+02  0.29999985047E+02 0.  0.
         12    1    1    2    0    0  0.43432028199E+01 -0.19987442942E+02 -0.35139789295E+02  0.40659145069E+02  0.00000000000E+00 0. -1.
         11    1    3    3    0    0 -0.73916642533E+01 -0.30158448963E+01  0.75238580449E+01  0.10969979991E+02  0.51100000000E-03 0. -1.
        -11    1    3    3    0    0  0.61369226224E+01  0.19501875416E+02  0.28223731016E+02  0.34850594783E+02  0.51100000000E-03 0.  1.
        -12    1    3    3    0    0 -0.30884611890E+01  0.35014124223E+01 -0.60779976649E+00  0.47082801556E+01  0.00000000000E+00 0.  1.
</event>
<event>
 7    1  0.5849044E-013  0.5052881E+02  0.7816164E-02  0.1300439E+00
        -11   -1    0    0    0    0  0.00000000000E+00  0.00000000000E+00  0.45593999997E+02  0.45594000000E+02  0.51100000000E-03 0.  1.
         11   -1    0    0    0    0 -0.00000000000E+00 -0.00000000000E+00 -0.45593999997E+02  0.45594000000E+02  0.51100000000E-03 0. -1.
    9900012    2    1    2    0    0  0.34253642316E+02 -0.13589827989E+02  0.17180627886E+02  0.50528813938E+02  0.29999860446E+02 0.  0.
         12    1    1    2    0    0 -0.34253642316E+02  0.13589827989E+02 -0.17180627886E+02  0.40659186062E+02  0.00000000000E+00 0. -1.
         11    1    3    3    0    0  0.61455485109E+00  0.35555926103E+01 -0.36401778042E+01  0.51255059440E+01  0.51100000000E-03 0. -1.
        -11    1    3    3    0    0  0.95934797131E+01 -0.12662895874E+02  0.83881608408E+01  0.17965105830E+02  0.51100000000E-03 0.  1.
         12    1    3    3    0    0  0.24045607751E+02 -0.44825247250E+01  0.12432644850E+02  0.27438202164E+02  0.00000000000E+00 0. -1.
</event>
<event>
 7    1  0.5849044E-013  0.5052886E+02  0.7816164E-02  0.1300439E+00
        -11   -1    0    0    0    0  0.00000000000E+00  0.00000000000E+00  0.45593999997E+02  0.45594000000E+02  0.51100000000E-03 0.  1.
         11   -1    0    0    0    0 -0.00000000000E+00 -0.00000000000E+00 -0.45593999997E+02  0.45594000000E+02  0.51100000000E-03 0. -1.
    9900012    2    1    2    0    0  0.75895730306E+01 -0.37896622104E+02 -0.12625760301E+02  0.50528863157E+02  0.30000010051E+02 0.  0.
         12    1    1    2    0    0 -0.75895730306E+01  0.37896622104E+02  0.12625760301E+02  0.40659136843E+02  0.00000000000E+00 0. -1.
         11    1    3    3    0    0 -0.11826399920E+01 -0.54769185021E+00 -0.85607134246E+01  0.86593543820E+01  0.51100000000E-03 0. -1.
        -11    1    3    3    0    0  0.46335026276E+01 -0.25527559253E+02 -0.10255780632E+02  0.27898148050E+02  0.51100000000E-03 0.  1.
        -12    1    3    3    0    0  0.41387103950E+01 -0.11821371000E+02  0.61907337550E+01  0.13971360724E+02  0.00000000000E+00 0.  1.
</event>
<event>
 7    1  0.5849044E-013  0.5052885E+02  0.7816164E-02  0.1300439E+00
        -11   -1    0    0    0    0  0.00000000000E+00  0.00000000000E+00  0.45593999997E+02  0.45594000000E+02  0.51100000000E-03 0.  1.
         11   -1    0    0    0    0 -0.00000000000E+00 -0.00000000000E+00 -0.45593999997E+02  0.45594000000E+02  0.51100000000E-03 0. -1.
    9900012    2    1    2    0    0 -0.10049444750E+02 -0.39235998407E+02  0.35653634583E+01  0.50528846943E+02  0.29999960767E+02 0.  0.
         12    1    1    2    0    0  0.10049444750E+02  0.39235998407E+02 -0.35653634583E+01  0.40659153057E+02  0.00000000000E+00 0. -1.
         11    1    3    3    0    0 -0.11529318630E+02 -0.16134206496E+02  0.73694670186E+01  0.21155303158E+02  0.51100000000E-03 0. -1.
        -11    1    3    3    0    0  0.77248036444E+01 -0.98492573307E+01  0.35086064376E+01  0.12999645407E+02  0.51100000000E-03 0.  1.
         12    1    3    3    0    0 -0.62449297643E+01 -0.13252534580E+02 -0.73127099979E+01  0.16373898378E+02  0.00000000000E+00 0. -1.
</event>
<event>
 7    1  0.5849044E-013  0.5052886E+02  0.7816164E-02  0.1300439E+00
        -11   -1    0    0    0    0  0.00000000000E+00  0.00000000000E+00  0.45593999997E+02  0.45594000000E+02  0.51100000000E-03 0. -1.
         11   -1    0    0    0    0 -0.00000000000E+00 -0.00000000000E+00 -0.45593999997E+02  0.45594000000E+02  0.51100000000E-03 0.  1.
    9900012    2    1    2    0    0  0.77104863342E+01  0.30485245226E+02 -0.25775252424E+02  0.50528863099E+02  0.30000009875E+02 0.  0.
         12    1    1    2    0    0 -0.77104863342E+01 -0.30485245226E+02  0.25775252424E+02  0.40659136901E+02  0.00000000000E+00 0. -1.
         11    1    3    3    0    0  0.16211616332E+01  0.89099463114E+01 -0.25971017458E+02  0.27504709713E+02  0.51100000000E-03 0. -1.
        -11    1    3    3    0    0  0.28071124288E+01  0.17341157452E+02 -0.75506826379E+00  0.17583109802E+02  0.51100000000E-03 0.  1.
         12    1    3    3    0    0  0.32822122722E+01  0.42341414632E+01  0.95083329744E+00  0.54410435846E+01  0.00000000000E+00 0. -1.
</event>
<event>
 7    1  0.5849044E-013  0.5052882E+02  0.7816164E-02  0.1300439E+00
        -11   -1    0    0    0    0  0.00000000000E+00  0.00000000000E+00  0.45593999997E+02  0.45594000000E+02  0.51100000000E-03 0.  1.
         11   -1    0    0    0    0 -0.00000000000E+00 -0.00000000000E+00 -0.45593999997E+02  0.45594000000E+02  0.51100000000E-03 0. -1.
    9900012    2    1    2    0    0 -0.16396761886E+02  0.19749271033E+01  0.37153928686E+02  0.50528824477E+02  0.29999892480E+02 0.  0.
         12    1    1    2    0    0  0.16396761886E+02 -0.19749271033E+01 -0.37153928686E+02  0.40659175523E+02  0.00000000000E+00 0. -1.
         11    1    3    3    0    0 -0.28962000501E+01 -0.33686858051E+01  0.17567274322E+02  0.18120296524E+02  0.51100000000E-03 0. -1.
        -11    1    3    3    0    0 -0.12476550656E+02  0.26102952189E+01  0.14348797567E+00  0.12747491772E+02  0.51100000000E-03 0.  1.
        -12    1    3    3    0    0 -0.10240111800E+01  0.27333176895E+01  0.19443166389E+02  0.19661036181E+02  0.00000000000E+00 0.  1.
</event>
<event>
 7    1  0.5849044E-013  0.5052889E+02  0.7816164E-02  0.1300439E+00
        -11   -1    0    0    0    0  0.00000000000E+00  0.00000000000E+00  0.45593999997E+02  0.45594000000E+02  0.51100000000E-03 0.  1.
         11   -1    0    0    0    0 -0.00000000000E+00 -0.00000000000E+00 -0.45593999997E+02  0.45594000000E+02  0.51100000000E-03 0. -1.
    9900012    2    1    2    0    0 -0.26113591217E+02 -0.23095131514E+02  0.20925069489E+02  0.50528889347E+02  0.30000089660E+02 0.  0.
         12    1    1    2    0    0  0.26113591217E+02  0.23095131514E+02 -0.20925069489E+02  0.40659110653E+02  0.00000000000E+00 0. -1.
         11    1    3    3    0    0 -0.14429224218E+02  0.29554021597E+01  0.24254037142E+01  0.14927139608E+02  0.51100000000E-03 0. -1.
        -11    1    3    3    0    0 -0.13332555247E+01 -0.98942113888E+01  0.11372635737E+02  0.15133070844E+02  0.51100000000E-03 0.  1.
         12    1    3    3    0    0 -0.10351111475E+02 -0.16156322285E+02  0.71270300384E+01  0.20468678895E+02  0.00000000000E+00 0. -1.
</event>
<event>
 7    1  0.5849044E-013  0.5052885E+02  0.7816164E-02  0.1300439E+00
        -11   -1    0    0    0    0  0.00000000000E+00  0.00000000000E+00  0.45593999997E+02  0.45594000000E+02  0.51100000000E-03 0. -1.
         11   -1    0    0    0    0 -0.00000000000E+00 -0.00000000000E+00 -0.45593999997E+02  0.45594000000E+02  0.51100000000E-03 0.  1.
    9900012    2    1    2    0    0  0.33750562861E+02  0.21657257362E+02 -0.67103810393E+01  0.50528849694E+02  0.29999969131E+02 0.  0.
         12    1    1    2    0    0 -0.33750562861E+02 -0.21657257362E+02  0.67103810393E+01  0.40659150306E+02  0.00000000000E+00 0. -1.
         11    1    3    3    0    0  0.15293639805E+02  0.19516295938E+02 -0.11905316063E+02  0.27504868232E+02  0.51100000000E-03 0. -1.
        -11    1    3    3    0    0  0.11058274196E+02  0.20459192387E+01 -0.33369019883E+01  0.11730563877E+02  0.51100000000E-03 0.  1.
         12    1    3    3    0    0  0.73986488597E+01  0.95042184923E-01  0.85318370117E+01  0.11293417585E+02  0.00000000000E+00 0. -1.
</event>
<event>
 7    1  0.5849044E-013  0.5052886E+02  0.7816164E-02  0.1300439E+00
        -11   -1    0    0    0    0  0.00000000000E+00  0.00000000000E+00  0.45593999997E+02  0.45594000000E+02  0.51100000000E-03 0.  1.
         11   -1    0    0    0    0 -0.00000000000E+00 -0.00000000000E+00 -0.45593999997E+02  0.45594000000E+02  0.51100000000E-03 0. -1.
    9900012    2    1    2    0    0 -0.11011302595E+02  0.72525169025E+00  0.39132988036E+02  0.50528861698E+02  0.30000005616E+02 0.  0.
         12    1    1    2    0    0  0.11011302595E+02 -0.72525169025E+00 -0.39132988036E+02  0.40659138302E+02  0.00000000000E+00 0. -1.
         11    1    3    3    0    0 -0.20643206067E+01 -0.91861137108E+01  0.33014906844E+02  0.34331183767E+02  0.51100000000E-03 0. -1.
        -11    1    3    3    0    0 -0.93723037222E+01  0.62546120429E+01  0.51640549309E+01  0.12394664677E+02  0.51100000000E-03 0.  1.
         12    1    3    3    0    0  0.42532173412E+00  0.36567533581E+01  0.95402626188E+00  0.38030132537E+01  0.00000000000E+00 0. -1.
</event>
<event>
 7    1  0.5849044E-013  0.5052886E+02  0.7816164E-02  0.1300439E+00
        -11   -1    0    0    0    0  0.00000000000E+00  0.00000000000E+00  0.45593999997E+02  0.45594000000E+02  0.51100000000E-03 0. -1.
         11   -1    0    0    0    0 -0.00000000000E+00 -0.00000000000E+00 -0.45593999997E+02  0.45594000000E+02  0.51100000000E-03 0.  1.
    9900012    2    1    2    0    0 -0.49624959266E+01  0.14998680998E+02 -0.37464365097E+02  0.50528862656E+02  0.30000008528E+02 0.  0.
         12    1    1    2    0    0  0.49624959266E+01 -0.14998680998E+02  0.37464365097E+02  0.40659137344E+02  0.00000000000E+00 0. -1.
         11    1    3    3    0    0 -0.36186943353E+01  0.51293971359E+01 -0.26540768306E+01  0.68154081135E+01  0.51100000000E-03 0. -1.
        -11    1    3    3    0    0 -0.21330994468E+01 -0.95018314373E+00 -0.32548247643E+02  0.32631907485E+02  0.51100000000E-03 0.  1.
        -12    1    3    3    0    0  0.78929785539E+00  0.10819467006E+02 -0.22620406234E+01  0.11081547057E+02  0.00000000000E+00 0.  1.
</event>
<event>
 7    1  0.5849044E-013  0.5052885E+02  0.7816164E-02  0.1300439E+00
        -11   -1    0    0    0    0  0.00000000000E+00  0.00000000000E+00  0.45593999997E+02  0.45594000000E+02  0.51100000000E-03 0.  1.
         11   -1    0    0    0    0 -0.00000000000E+00 -0.00000000000E+00 -0.45593999997E+02  0.45594000000E+02  0.51100000000E-03 0. -1.
    9900012    2    1    2    0    0  0.27511070477E+02 -0.82739101503E+01  0.28772377073E+02  0.50528852562E+02  0.29999977847E+02 0.  0.
         12    1    1    2    0    0 -0.27511070477E+02  0.82739101503E+01 -0.28772377073E+02  0.40659147438E+02  0.00000000000E+00 0. -1.
         11    1    3    3    0    0 -0.37123637632E+01 -0.52904942240E+01  0.70395128537E+01  0.95564488866E+01  0.51100000000E-03 0. -1.
        -11    1    3    3    0    0  0.32085214215E+02 -0.13175329316E+01  0.22200744374E+02  0.39039338049E+02  0.51100000000E-03 0.  1.
        -12    1    3    3    0    0 -0.86177997492E+00 -0.16658829946E+01 -0.46788015519E+00  0.19330656266E+01  0.00000000000E+00 0.  1.
</event>
<event>
 7    1  0.5849044E-013  0.5052886E+02  0.7816164E-02  0.1300439E+00
        -11   -1    0    0    0    0  0.00000000000E+00  0.00000000000E+00  0.45593999997E+02  0.45594000000E+02  0.51100000000E-03 0. -1.
         11   -1    0    0    0    0 -0.00000000000E+00 -0.00000000000E+00 -0.45593999997E+02  0.45594000000E+02  0.51100000000E-03 0.  1.
    9900012    2    1    2    0    0 -0.11081786602E+02 -0.30458069051E+02 -0.24549257942E+02  0.50528855517E+02  0.29999986830E+02 0.  0.
         12    1    1    2    0    0  0.11081786602E+02  0.30458069051E+02  0.24549257942E+02  0.40659144483E+02  0.00000000000E+00 0. -1.
         11    1    3    3    0    0  0.69881209533E-01 -0.14287167091E+01  0.16291735753E+01  0.21680225133E+01  0.51100000000E-03 0. -1.
        -11    1    3    3    0    0 -0.13318030660E+02 -0.26587215617E+02 -0.30728469384E+02  0.42760832614E+02  0.51100000000E-03 0.  1.
        -12    1    3    3    0    0  0.21663628482E+01 -0.24421367243E+01  0.45500378670E+01  0.56000003894E+01  0.00000000000E+00 0.  1.
</event>
<event>
 7    1  0.5849044E-013  0.5052884E+02  0.7816164E-02  0.1300439E+00
        -11   -1    0    0    0    0  0.00000000000E+00  0.00000000000E+00  0.45593999997E+02  0.45594000000E+02  0.51100000000E-03 0. -1.
         11   -1    0    0    0    0 -0.00000000000E+00 -0.00000000000E+00 -0.45593999997E+02  0.45594000000E+02  0.51100000000E-03 0.  1.
    9900012    2    1    2    0    0  0.28053551727E+02  0.16541207048E+02 -0.24342433872E+02  0.50528838893E+02  0.29999936299E+02 0.  0.
         12    1    1    2    0    0 -0.28053551727E+02 -0.16541207048E+02  0.24342433872E+02  0.40659161107E+02  0.00000000000E+00 0. -1.
         11    1    3    3    0    0  0.15848013533E+02 -0.30023287952E+01 -0.19050043052E+02  0.24961523424E+02  0.51100000000E-03 0. -1.
        -11    1    3    3    0    0  0.92384184548E+01  0.15731656725E+02  0.21060772543E+00  0.18244937784E+02  0.51100000000E-03 0.  1.
        -12    1    3    3    0    0  0.29671197393E+01  0.38118791178E+01 -0.55029985461E+01  0.73223776845E+01  0.00000000000E+00 0.  1.
</event>
<event>
 7    1  0.5849044E-013  0.5052886E+02  0.7816164E-02  0.1300439E+00
        -11   -1    0    0    0    0  0.00000000000E+00  0.00000000000E+00  0.45593999997E+02  0.45594000000E+02  0.51100000000E-03 0. -1.
         11   -1    0    0    0    0 -0.00000000000E+00 -0.00000000000E+00 -0.45593999997E+02  0.45594000000E+02  0.51100000000E-03 0.  1.
    9900012    2    1    2    0    0 -0.26815647612E+02 -0.16331670844E+01 -0.30519164054E+02  0.50528861222E+02  0.30000004170E+02 0.  0.
         12    1    1    2    0    0  0.26815647612E+02  0.16331670844E+01  0.30519164054E+02  0.40659138778E+02  0.00000000000E+00 0. -1.
         11    1    3    3    0    0 -0.16756047108E+02  0.55964654845E+01 -0.21275933755E+02  0.27654129855E+02  0.51100000000E-03 0.  1.
        -11    1    3    3    0    0  0.27648144020E+01 -0.21772520720E+01  0.28573270065E+01  0.45330942132E+01  0.51100000000E-03 0. -1.
         12    1    3    3    0    0 -0.12824414906E+02 -0.50523804970E+01 -0.12100557306E+02  0.18341637154E+02  0.00000000000E+00 0. -1.
</event>
<event>
 7    1  0.5849044E-013  0.5052886E+02  0.7816164E-02  0.1300439E+00
        -11   -1    0    0    0    0  0.00000000000E+00  0.00000000000E+00  0.45593999997E+02  0.45594000000E+02  0.51100000000E-03 0.  1.
         11   -1    0    0    0    0 -0.00000000000E+00 -0.00000000000E+00 -0.45593999997E+02  0.45594000000E+02  0.51100000000E-03 0. -1.
    9900012    2    1    2    0    0 -0.13752832326E+02  0.27489330709E+02  0.26615073735E+02  0.50528857735E+02  0.29999993571E+02 0.  0.
         12    1    1    2    0    0  0.13752832326E+02 -0.27489330709E+02 -0.26615073735E+02  0.40659142265E+02  0.00000000000E+00 0. -1.
         11    1    3    3    0    0 -0.12760534869E+02  0.16074163569E+02 -0.67014006749E+00  0.20534338864E+02  0.51100000000E-03 0. -1.
        -11    1    3    3    0    0  0.78444777085E+00  0.10362473670E+02  0.22706712568E+02  0.24971804396E+02  0.51100000000E-03 0.  1.
         12    1    3    3    0    0 -0.17767452281E+01  0.10526934692E+01  0.45785012347E+01  0.50227144754E+01  0.00000000000E+00 0. -1.
</event>
<event>
 7    1  0.5849044E-013  0.5052886E+02  0.7816164E-02  0.1300439E+00
        -11   -1    0    0    0    0  0.00000000000E+00  0.00000000000E+00  0.45593999997E+02  0.45594000000E+02  0.51100000000E-03 0. -1.
         11   -1    0    0    0    0 -0.00000000000E+00 -0.00000000000E+00 -0.45593999997E+02  0.45594000000E+02  0.51100000000E-03 0.  1.
    9900012    2    1    2    0    0 -0.16854131205E+02 -0.35881297326E+02 -0.90352964772E+01  0.50528858114E+02  0.29999994724E+02 0.  0.
         12    1    1    2    0    0  0.16854131205E+02  0.35881297326E+02  0.90352964772E+01  0.40659141886E+02  0.00000000000E+00 0. -1.
         11    1    3    3    0    0  0.56356073339E+01 -0.13494899422E+02  0.46411617465E+00  0.14631738944E+02  0.51100000000E-03 0. -1.
        -11    1    3    3    0    0 -0.21955137989E+02 -0.13939220158E+02 -0.57220394625E+01  0.26628399850E+02  0.51100000000E-03 0.  1.
        -12    1    3    3    0    0 -0.53460054989E+00 -0.84471777460E+01 -0.37773731893E+01  0.92687193199E+01  0.00000000000E+00 0.  1.
</event>
<event>
 7    1  0.5849044E-013  0.5052885E+02  0.7816164E-02  0.1300439E+00
        -11   -1    0    0    0    0  0.00000000000E+00  0.00000000000E+00  0.45593999997E+02  0.45594000000E+02  0.51100000000E-03 0.  1.
         11   -1    0    0    0    0 -0.00000000000E+00 -0.00000000000E+00 -0.45593999997E+02  0.45594000000E+02  0.51100000000E-03 0. -1.
    9900012    2    1    2    0    0 -0.69096370696E+01  0.14295131773E+02  0.37430902688E+02  0.50528851548E+02  0.29999974764E+02 0.  0.
         12    1    1    2    0    0  0.69096370696E+01 -0.14295131773E+02 -0.37430902688E+02  0.40659148452E+02  0.00000000000E+00 0. -1.
         11    1    3    3    0    0 -0.84565737736E+00  0.10549972628E+02 -0.97509555542E+00  0.10628634458E+02  0.51100000000E-03 0. -1.
        -11    1    3    3    0    0 -0.30680520103E+01  0.43782542312E+01  0.34622574493E+02  0.35032909072E+02  0.51100000000E-03 0.  1.
         12    1    3    3    0    0 -0.29959276820E+01 -0.63309508583E+00  0.37834237501E+01  0.48673080174E+01  0.00000000000E+00 0. -1.
</event>
<event>
 7    1  0.5849044E-013  0.5052886E+02  0.7816164E-02  0.1300439E+00
        -11   -1    0    0    0    0  0.00000000000E+00  0.00000000000E+00  0.45593999997E+02  0.45594000000E+02  0.51100000000E-03 0. -1.
         11   -1    0    0    0    0 -0.00000000000E+00 -0.00000000000E+00 -0.45593999997E+02  0.45594000000E+02  0.51100000000E-03 0.  1.
    9900012    2    1    2    0    0 -0.33725097401E+02  0.10887297716E+02 -0.19931131213E+02  0.50528862802E+02  0.30000008974E+02 0.  0.
         12    1    1    2    0    0  0.33725097401E+02 -0.10887297716E+02  0.19931131213E+02  0.40659137198E+02  0.00000000000E+00 0. -1.
         11    1    3    3    0    0  0.30693835016E+01  0.74657411372E+00 -0.33508194969E+01  0.46050493536E+01  0.51100000000E-03 0. -1.
        -11    1    3    3    0    0 -0.29821756093E+02  0.22980853482E+01 -0.18621294289E+02  0.35233094300E+02  0.51100000000E-03 0.  1.
        -12    1    3    3    0    0 -0.69727248095E+01  0.78426382540E+01  0.20409825729E+01  0.10690719149E+02  0.00000000000E+00 0.  1.
</event>
<event>
 7    1  0.5849044E-013  0.5052885E+02  0.7816164E-02  0.1300439E+00
        -11   -1    0    0    0    0  0.00000000000E+00  0.00000000000E+00  0.45593999997E+02  0.45594000000E+02  0.51100000000E-03 0.  1.
         11   -1    0    0    0    0 -0.00000000000E+00 -0.00000000000E+00 -0.45593999997E+02  0.45594000000E+02  0.51100000000E-03 0. -1.
    9900012    2    1    2    0    0  0.19092951310E+02 -0.33240436914E+02  0.13553562579E+02  0.50528849806E+02  0.29999969470E+02 0.  0.
         12    1    1    2    0    0 -0.19092951310E+02  0.33240436914E+02 -0.13553562579E+02  0.40659150194E+02  0.00000000000E+00 0. -1.
         11    1    3    3    0    0  0.76024034728E+01  0.17046671061E+01  0.39068066362E+01  0.87158227873E+01  0.51100000000E-03 0. -1.
        -11    1    3    3    0    0  0.67890022308E+01 -0.23672236308E+02  0.14604248984E+02  0.28631266332E+02  0.51100000000E-03 0.  1.
        -12    1    3    3    0    0  0.47015456062E+01 -0.11272867712E+02 -0.49574930418E+01  0.13181760686E+02  0.00000000000E+00 0.  1.
</event>
<event>
 7    1  0.5849044E-013  0.5052883E+02  0.7816164E-02  0.1300439E+00
        -11   -1    0    0    0    0  0.00000000000E+00  0.00000000000E+00  0.45593999997E+02  0.45594000000E+02  0.51100000000E-03 0. -1.
         11   -1    0    0    0    0 -0.00000000000E+00 -0.00000000000E+00 -0.45593999997E+02  0.45594000000E+02  0.51100000000E-03 0.  1.
    9900012    2    1    2    0    0 -0.17932830113E+02  0.35752755841E+02 -0.73021903552E+01  0.50528832153E+02  0.29999915812E+02 0.  0.
         12    1    1    2    0    0  0.17932830113E+02 -0.35752755841E+02  0.73021903552E+01  0.40659167847E+02  0.00000000000E+00 0. -1.
         11    1    3    3    0    0 -0.22344533589E+01  0.15374843284E+02  0.99287700397E+01  0.18437978809E+02  0.51100000000E-03 0. -1.
        -11    1    3    3    0    0 -0.10751138204E+02  0.72445514807E+01 -0.70914040529E+01  0.14776958772E+02  0.51100000000E-03 0.  1.
         12    1    3    3    0    0 -0.49472385493E+01  0.13133361076E+02 -0.10139556342E+02  0.17313894572E+02  0.00000000000E+00 0. -1.
</event>
<event>
 7    1  0.5849044E-013  0.5052886E+02  0.7816164E-02  0.1300439E+00
        -11   -1    0    0    0    0  0.00000000000E+00  0.00000000000E+00  0.45593999997E+02  0.45594000000E+02  0.51100000000E-03 0. -1.
         11   -1    0    0    0    0 -0.00000000000E+00 -0.00000000000E+00 -0.45593999997E+02  0.45594000000E+02  0.51100000000E-03 0.  1.
    9900012    2    1    2    0    0 -0.36692659967E+00  0.67096054967E+01 -0.40100025675E+02  0.50528862034E+02  0.30000006638E+02 0.  0.
         12    1    1    2    0    0  0.36692659967E+00 -0.67096054967E+01  0.40100025675E+02  0.40659137966E+02  0.00000000000E+00 0. -1.
         11    1    3    3    0    0  0.46778859077E+01 -0.27723835935E+01 -0.89555215742E+01  0.10477122424E+02  0.51100000000E-03 0. -1.
        -11    1    3    3    0    0 -0.63830731907E+01  0.83899844022E+01 -0.34609847100E+02  0.36179786873E+02  0.51100000000E-03 0.  1.
        -12    1    3    3    0    0  0.13382606834E+01  0.10920046881E+01  0.34653429995E+01  0.38719527372E+01  0.00000000000E+00 0.  1.
</event>
<event>
 7    1  0.5849044E-013  0.5052886E+02  0.7816164E-02  0.1300439E+00
        -11   -1    0    0    0    0  0.00000000000E+00  0.00000000000E+00  0.45593999997E+02  0.45594000000E+02  0.51100000000E-03 0.  1.
         11   -1    0    0    0    0 -0.00000000000E+00 -0.00000000000E+00 -0.45593999997E+02  0.45594000000E+02  0.51100000000E-03 0. -1.
    9900012    2    1    2    0    0 -0.79493740342E+01  0.21364953890E+02  0.33667672447E+02  0.50528856252E+02  0.29999989065E+02 0.  0.
         12    1    1    2    0    0  0.79493740342E+01 -0.21364953890E+02 -0.33667672447E+02  0.40659143748E+02  0.00000000000E+00 0. -1.
         11    1    3    3    0    0  0.34691220318E+01  0.75202669317E+01  0.18626942101E+02  0.20385097368E+02  0.51100000000E-03 0. -1.
        -11    1    3    3    0    0 -0.33992406102E+01  0.66084743427E+01 -0.38601223296E+01  0.83742053071E+01  0.51100000000E-03 0.  1.
        -12    1    3    3    0    0 -0.80192554557E+01  0.72362126158E+01  0.18900852676E+02  0.21769553578E+02  0.00000000000E+00 0.  1.
</event>
<event>
 7    1  0.5849044E-013  0.5052886E+02  0.7816164E-02  0.1300439E+00
        -11   -1    0    0    0    0  0.00000000000E+00  0.00000000000E+00  0.45593999997E+02  0.45594000000E+02  0.51100000000E-03 0.  1.
         11   -1    0    0    0    0 -0.00000000000E+00 -0.00000000000E+00 -0.45593999997E+02  0.45594000000E+02  0.51100000000E-03 0. -1.
    9900012    2    1    2    0    0 -0.19524442631E+02  0.27582282756E+02  0.22609278463E+02  0.50528860134E+02  0.30000000862E+02 0.  0.
         12    1    1    2    0    0  0.19524442631E+02 -0.27582282756E+02 -0.22609278463E+02  0.40659139866E+02  0.00000000000E+00 0. -1.
         11    1    3    3    0    0  0.44491204512E+01  0.69983013926E+01 -0.15510070768E+01  0.84366177099E+01  0.51100000000E-03 0. -1.
        -11    1    3    3    0    0 -0.21381016413E+02  0.15129108406E+02  0.12635526000E+02  0.29080823605E+02  0.51100000000E-03 0.  1.
        -12    1    3    3    0    0 -0.25925466691E+01  0.54548729570E+01  0.11524759540E+02  0.13011418818E+02  0.00000000000E+00 0.  1.
</event>
<event>
 7    1  0.5849044E-013  0.5052890E+02  0.7816164E-02  0.1300439E+00
        -11   -1    0    0    0    0  0.00000000000E+00  0.00000000000E+00  0.45593999997E+02  0.45594000000E+02  0.51100000000E-03 0. -1.
         11   -1    0    0    0    0 -0.00000000000E+00 -0.00000000000E+00 -0.45593999997E+02  0.45594000000E+02  0.51100000000E-03 0.  1.
    9900012    2    1    2    0    0  0.29572620701E+02  0.27859843181E+02  0.15658027657E+01  0.50528898983E+02  0.30000118948E+02 0.  0.
         12    1    1    2    0    0 -0.29572620701E+02 -0.27859843181E+02 -0.15658027657E+01  0.40659101017E+02  0.00000000000E+00 0. -1.
         11    1    3    3    0    0  0.24120146326E+01 -0.14583661226E+01  0.77347235612E+01  0.82322897887E+01  0.51100000000E-03 0. -1.
        -11    1    3    3    0    0  0.15736211654E+02  0.89379681380E+01  0.13247449824E+00  0.18097877815E+02  0.51100000000E-03 0.  1.
         12    1    3    3    0    0  0.11424394414E+02  0.20380241165E+02 -0.63013952937E+01  0.24198731379E+02  0.00000000000E+00 0. -1.
</event>
<event>
 7    1  0.5849044E-013  0.5052888E+02  0.7816164E-02  0.1300439E+00
        -11   -1    0    0    0    0  0.00000000000E+00  0.00000000000E+00  0.45593999997E+02  0.45594000000E+02  0.51100000000E-03 0. -1.
         11   -1    0    0    0    0 -0.00000000000E+00 -0.00000000000E+00 -0.45593999997E+02  0.45594000000E+02  0.51100000000E-03 0.  1.
    9900012    2    1    2    0    0  0.10794828271E+02  0.28560604242E+02 -0.26850101993E+02  0.50528875451E+02  0.30000047420E+02 0.  0.
         12    1    1    2    0    0 -0.10794828271E+02 -0.28560604242E+02  0.26850101993E+02  0.40659124549E+02  0.00000000000E+00 0. -1.
         11    1    3    3    0    0  0.41883730430E+01 -0.30198565918E+01 -0.33466207484E+01  0.61532002468E+01  0.51100000000E-03 0. -1.
        -11    1    3    3    0    0  0.13125749888E+01  0.32024818478E+02 -0.21926546644E+02  0.38834073952E+02  0.51100000000E-03 0.  1.
        -12    1    3    3    0    0  0.52938802393E+01 -0.44435764471E+00 -0.15769346006E+01  0.55416012523E+01  0.00000000000E+00 0.  1.
</event>
<event>
 7    1  0.5849044E-013  0.5052886E+02  0.7816164E-02  0.1300439E+00
        -11   -1    0    0    0    0  0.00000000000E+00  0.00000000000E+00  0.45593999997E+02  0.45594000000E+02  0.51100000000E-03 0. -1.
         11   -1    0    0    0    0 -0.00000000000E+00 -0.00000000000E+00 -0.45593999997E+02  0.45594000000E+02  0.51100000000E-03 0.  1.
    9900012    2    1    2    0    0 -0.34375216067E+01 -0.36443824816E+02  0.17697362919E+02  0.50528861098E+02  0.30000003792E+02 0.  0.
         12    1    1    2    0    0  0.34375216067E+01  0.36443824816E+02 -0.17697362919E+02  0.40659138902E+02  0.00000000000E+00 0. -1.
         11    1    3    3    0    0  0.84651197787E+01 -0.15319538357E+02  0.67926155204E+01  0.18774614090E+02  0.51100000000E-03 0. -1.
        -11    1    3    3    0    0 -0.83241078469E+01 -0.10222100043E+02 -0.32060855029E+01  0.13566911412E+02  0.51100000000E-03 0.  1.
         12    1    3    3    0    0 -0.35785335385E+01 -0.10902186415E+02  0.14110832901E+02  0.18187335596E+02  0.00000000000E+00 0. -1.
</event>
<event>
 7    1  0.5849044E-013  0.5052887E+02  0.7816164E-02  0.1300439E+00
        -11   -1    0    0    0    0  0.00000000000E+00  0.00000000000E+00  0.45593999997E+02  0.45594000000E+02  0.51100000000E-03 0. -1.
         11   -1    0    0    0    0 -0.00000000000E+00 -0.00000000000E+00 -0.45593999997E+02  0.45594000000E+02  0.51100000000E-03 0.  1.
    9900012    2    1    2    0    0  0.39497541199E+01  0.24707117977E+02 -0.32048758862E+02  0.50528865959E+02  0.30000018569E+02 0.  0.
         12    1    1    2    0    0 -0.39497541199E+01 -0.24707117977E+02  0.32048758862E+02  0.40659134041E+02  0.00000000000E+00 0. -1.
         11    1    3    3    0    0 -0.61236611680E+01  0.15107493246E+02 -0.33409944770E+01  0.16640247072E+02  0.51100000000E-03 0. -1.
        -11    1    3    3    0    0  0.28678934246E+01  0.17840801031E+01 -0.19604146953E+02  0.19892971938E+02  0.51100000000E-03 0.  1.
        -12    1    3    3    0    0  0.72055218632E+01  0.78155446286E+01 -0.91036174322E+01  0.13995646949E+02  0.00000000000E+00 0.  1.
</event>
<event>
 7    1  0.5849044E-013  0.5052886E+02  0.7816164E-02  0.1300439E+00
        -11   -1    0    0    0    0  0.00000000000E+00  0.00000000000E+00  0.45593999997E+02  0.45594000000E+02  0.51100000000E-03 0.  1.
         11   -1    0    0    0    0 -0.00000000000E+00 -0.00000000000E+00 -0.45593999997E+02  0.45594000000E+02  0.51100000000E-03 0. -1.
    9900012    2    1    2    0    0 -0.15346927541E+02 -0.25633159218E+02  0.27578596003E+02  0.50528855962E+02  0.29999988182E+02 0.  0.
         12    1    1    2    0    0  0.15346927541E+02  0.25633159218E+02 -0.27578596003E+02  0.40659144038E+02  0.00000000000E+00 0. -1.
         11    1    3    3    0    0 -0.15144072806E+02 -0.15763460992E+01  0.89272941123E+01  0.17650053501E+02  0.51100000000E-03 0. -1.
        -11    1    3    3    0    0  0.23530417691E+01 -0.14954037610E+02  0.43786218124E+01  0.15758565152E+02  0.51100000000E-03 0.  1.
        -12    1    3    3    0    0 -0.25558965041E+01 -0.91027755084E+01  0.14272680078E+02  0.17120237309E+02  0.00000000000E+00 0.  1.
</event>
<event>
 7    1  0.5849044E-013  0.5052884E+02  0.7816164E-02  0.1300439E+00
        -11   -1    0    0    0    0  0.00000000000E+00  0.00000000000E+00  0.45593999997E+02  0.45594000000E+02  0.51100000000E-03 0.  1.
         11   -1    0    0    0    0 -0.00000000000E+00 -0.00000000000E+00 -0.45593999997E+02  0.45594000000E+02  0.51100000000E-03 0. -1.
    9900012    2    1    2    0    0  0.10256773252E+02 -0.51798057431E+01  0.39001739280E+02  0.50528838032E+02  0.29999933682E+02 0.  0.
         12    1    1    2    0    0 -0.10256773252E+02  0.51798057431E+01 -0.39001739280E+02  0.40659161968E+02  0.00000000000E+00 0. -1.
         11    1    3    3    0    0  0.10023319562E+02 -0.13024367915E+01  0.20727161339E+01  0.10317917865E+02  0.51100000000E-03 0. -1.
        -11    1    3    3    0    0  0.38723144755E+01 -0.44220710057E+01  0.35917124156E+02  0.36394908150E+02  0.51100000000E-03 0.  1.
         12    1    3    3    0    0 -0.36388607856E+01  0.54470205406E+00  0.10118989900E+01  0.38160120166E+01  0.00000000000E+00 0. -1.
</event>
<event>
 7    1  0.5849044E-013  0.5052886E+02  0.7816164E-02  0.1300439E+00
        -11   -1    0    0    0    0  0.00000000000E+00  0.00000000000E+00  0.45593999997E+02  0.45594000000E+02  0.51100000000E-03 0. -1.
         11   -1    0    0    0    0 -0.00000000000E+00 -0.00000000000E+00 -0.45593999997E+02  0.45594000000E+02  0.51100000000E-03 0.  1.
    9900012    2    1    2    0    0 -0.11124043075E+02 -0.27038311812E+02 -0.28255105176E+02  0.50528860702E+02  0.30000002589E+02 0.  0.
         12    1    1    2    0    0  0.11124043075E+02  0.27038311812E+02  0.28255105176E+02  0.40659139298E+02  0.00000000000E+00 0. -1.
         11    1    3    3    0    0 -0.12324100505E+01  0.61633063539E+01 -0.25495151195E+01  0.67827138632E+01  0.51100000000E-03 0. -1.
        -11    1    3    3    0    0 -0.95562570169E+01 -0.20019498041E+02 -0.16946895794E+02  0.27915938589E+02  0.51100000000E-03 0.  1.
         12    1    3    3    0    0 -0.33537600777E+00 -0.13182120125E+02 -0.87586942628E+01  0.15830208250E+02  0.00000000000E+00 0. -1.
</event>
<event>
 7    1  0.5849044E-013  0.5052887E+02  0.7816164E-02  0.1300439E+00
        -11   -1    0    0    0    0  0.00000000000E+00  0.00000000000E+00  0.45593999997E+02  0.45594000000E+02  0.51100000000E-03 0. -1.
         11   -1    0    0    0    0 -0.00000000000E+00 -0.00000000000E+00 -0.45593999997E+02  0.45594000000E+02  0.51100000000E-03 0.  1.
    9900012    2    1    2    0    0 -0.31696258199E+02 -0.21753459232E+02  0.13240068542E+02  0.50528865880E+02  0.30000018328E+02 0.  0.
         12    1    1    2    0    0  0.31696258199E+02  0.21753459232E+02 -0.13240068542E+02  0.40659134120E+02  0.00000000000E+00 0. -1.
         11    1    3    3    0    0 -0.26221336001E+02 -0.15427212511E+02  0.12082769219E+02  0.32734548413E+02  0.51100000000E-03 0.  1.
        -11    1    3    3    0    0  0.53368876814E+01 -0.73492094142E+00 -0.86247964007E+00  0.54558546814E+01  0.51100000000E-03 0. -1.
         12    1    3    3    0    0 -0.10811809880E+02 -0.55913257802E+01  0.20197789628E+01  0.12338462786E+02  0.00000000000E+00 0. -1.
</event>
<event>
 7    1  0.5849044E-013  0.5052887E+02  0.7816164E-02  0.1300439E+00
        -11   -1    0    0    0    0  0.00000000000E+00  0.00000000000E+00  0.45593999997E+02  0.45594000000E+02  0.51100000000E-03 0.  1.
         11   -1    0    0    0    0 -0.00000000000E+00 -0.00000000000E+00 -0.45593999997E+02  0.45594000000E+02  0.51100000000E-03 0. -1.
    9900012    2    1    2    0    0  0.29542939541E+02  0.11470017993E+02 -0.25471905826E+02  0.50528873400E+02  0.30000041185E+02 0.  0.
         12    1    1    2    0    0 -0.29542939541E+02 -0.11470017993E+02  0.25471905826E+02  0.40659126600E+02  0.00000000000E+00 0. -1.
         11    1    3    3    0    0  0.21477472744E+02  0.18670225475E+02 -0.16847739497E+02  0.33071218320E+02  0.51100000000E-03 0.  1.
        -11    1    3    3    0    0  0.94169245212E+01 -0.27203951559E+01 -0.81626954324E+01  0.12755728683E+02  0.51100000000E-03 0. -1.
         12    1    3    3    0    0 -0.13514577241E+01 -0.44798123260E+01 -0.46147089740E+00  0.47019263973E+01  0.00000000000E+00 0. -1.
</event>
<event>
 7    1  0.5849044E-013  0.5052887E+02  0.7816164E-02  0.1300439E+00
        -11   -1    0    0    0    0  0.00000000000E+00  0.00000000000E+00  0.45593999997E+02  0.45594000000E+02  0.51100000000E-03 0.  1.
         11   -1    0    0    0    0 -0.00000000000E+00 -0.00000000000E+00 -0.45593999997E+02  0.45594000000E+02  0.51100000000E-03 0. -1.
    9900012    2    1    2    0    0 -0.36608708136E+02 -0.13314557724E+02  0.11648595552E+02  0.50528871417E+02  0.30000035159E+02 0.  0.
         12    1    1    2    0    0  0.36608708136E+02  0.13314557724E+02 -0.11648595552E+02  0.40659128583E+02  0.00000000000E+00 0. -1.
         11    1    3    3    0    0 -0.13711273442E+02  0.15080695599E+01  0.15670775235E+02  0.20876936794E+02  0.51100000000E-03 0. -1.
        -11    1    3    3    0    0 -0.19904928734E+02 -0.81349328980E+01 -0.46681666597E+00  0.21508166802E+02  0.51100000000E-03 0.  1.
         12    1    3    3    0    0 -0.29925059608E+01 -0.66876943859E+01 -0.35553630171E+01  0.81437678201E+01  0.00000000000E+00 0. -1.
</event>
<event>
 7    1  0.5849044E-013  0.5052884E+02  0.7816164E-02  0.1300439E+00
        -11   -1    0    0    0    0  0.00000000000E+00  0.00000000000E+00  0.45593999997E+02  0.45594000000E+02  0.51100000000E-03 0. -1.
         11   -1    0    0    0    0 -0.00000000000E+00 -0.00000000000E+00 -0.45593999997E+02  0.45594000000E+02  0.51100000000E-03 0.  1.
    9900012    2    1    2    0    0  0.26114004470E+01 -0.18140948760E+02 -0.36293996771E+02  0.50528835771E+02  0.29999926809E+02 0.  0.
         12    1    1    2    0    0 -0.26114004470E+01  0.18140948760E+02  0.36293996771E+02  0.40659164229E+02  0.00000000000E+00 0. -1.
         11    1    3    3    0    0 -0.31149585638E+00  0.37867506158E+01  0.12940877624E+01  0.40138726055E+01  0.51100000000E-03 0. -1.
        -11    1    3    3    0    0 -0.20803654274E+01 -0.72215174644E+01 -0.26192594822E+02  0.27249408408E+02  0.51100000000E-03 0.  1.
         12    1    3    3    0    0  0.50032617308E+01 -0.14706181912E+02 -0.11395489711E+02  0.19265554758E+02  0.00000000000E+00 0. -1.
</event>
<event>
 7    1  0.5849044E-013  0.5052886E+02  0.7816164E-02  0.1300439E+00
        -11   -1    0    0    0    0  0.00000000000E+00  0.00000000000E+00  0.45593999997E+02  0.45594000000E+02  0.51100000000E-03 0. -1.
         11   -1    0    0    0    0 -0.00000000000E+00 -0.00000000000E+00 -0.45593999997E+02  0.45594000000E+02  0.51100000000E-03 0.  1.
    9900012    2    1    2    0    0  0.22120481133E+02 -0.33375656993E+02  0.70650902137E+01  0.50528860007E+02  0.30000000476E+02 0.  0.
         12    1    1    2    0    0 -0.22120481133E+02  0.33375656993E+02 -0.70650902137E+01  0.40659139993E+02  0.00000000000E+00 0. -1.
         11    1    3    3    0    0  0.34700758189E+01 -0.16341577297E+02  0.58404281487E+01  0.17697434163E+02  0.51100000000E-03 0. -1.
        -11    1    3    3    0    0  0.15031453706E+02  0.28977250058E+00  0.16795095458E+01  0.15127766564E+02  0.51100000000E-03 0.  1.
        -12    1    3    3    0    0  0.36189516081E+01 -0.17323852196E+02 -0.45484748076E+00  0.17703659280E+02  0.00000000000E+00 0.  1.
</event>
<event>
 7    1  0.5849044E-013  0.5052886E+02  0.7816164E-02  0.1300439E+00
        -11   -1    0    0    0    0  0.00000000000E+00  0.00000000000E+00  0.45593999997E+02  0.45594000000E+02  0.51100000000E-03 0.  1.
         11   -1    0    0    0    0 -0.00000000000E+00 -0.00000000000E+00 -0.45593999997E+02  0.45594000000E+02  0.51100000000E-03 0. -1.
    9900012    2    1    2    0    0 -0.15679970153E+02  0.18696753300E+02  0.32522845936E+02  0.50528861350E+02  0.30000004561E+02 0.  0.
         12    1    1    2    0    0  0.15679970153E+02 -0.18696753300E+02 -0.32522845936E+02  0.40659138650E+02  0.00000000000E+00 0. -1.
         11    1    3    3    0    0  0.54583915207E+00  0.19332380266E+02  0.10159493942E+02  0.21846148048E+02  0.51100000000E-03 0. -1.
        -11    1    3    3    0    0 -0.89492862310E+01 -0.19003214471E+01  0.66189395584E+01  0.11292090452E+02  0.51100000000E-03 0.  1.
         12    1    3    3    0    0 -0.72765230743E+01  0.12646944816E+01  0.15744412435E+02  0.17390622850E+02  0.00000000000E+00 0. -1.
</event>
<event>
 7    1  0.5849044E-013  0.5052886E+02  0.7816164E-02  0.1300439E+00
        -11   -1    0    0    0    0  0.00000000000E+00  0.00000000000E+00  0.45593999997E+02  0.45594000000E+02  0.51100000000E-03 0.  1.
         11   -1    0    0    0    0 -0.00000000000E+00 -0.00000000000E+00 -0.45593999997E+02  0.45594000000E+02  0.51100000000E-03 0. -1.
    9900012    2    1    2    0    0  0.16193478798E+02 -0.46300698187E+01  0.37006746141E+02  0.50528861273E+02  0.30000004324E+02 0.  0.
         12    1    1    2    0    0 -0.16193478798E+02  0.46300698187E+01 -0.37006746141E+02  0.40659138727E+02  0.00000000000E+00 0. -1.
         11    1    3    3    0    0  0.10533422574E+01 -0.80179328645E+01  0.34317380428E+01  0.87848508005E+01  0.51100000000E-03 0. -1.
        -11    1    3    3    0    0  0.13655579825E+02  0.83008140371E-01  0.35212818233E+02  0.37768033029E+02  0.51100000000E-03 0.  1.
         12    1    3    3    0    0  0.14845567152E+01  0.33048549055E+01 -0.16378101350E+01  0.39759774428E+01  0.00000000000E+00 0. -1.
</event>
<event>
 7    1  0.5849044E-013  0.5052891E+02  0.7816164E-02  0.1300439E+00
        -11   -1    0    0    0    0  0.00000000000E+00  0.00000000000E+00  0.45593999997E+02  0.45594000000E+02  0.51100000000E-03 0.  1.
         11   -1    0    0    0    0 -0.00000000000E+00 -0.00000000000E+00 -0.45593999997E+02  0.45594000000E+02  0.51100000000E-03 0. -1.
    9900012    2    1    2    0    0  0.32970630901E+02 -0.23512125108E+02  0.36440696406E+01  0.50528907872E+02  0.30000145968E+02 0.  0.
         12    1    1    2    0    0 -0.32970630901E+02  0.23512125108E+02 -0.36440696406E+01  0.40659092128E+02  0.00000000000E+00 0. -1.
         11    1    3    3    0    0 -0.10256764769E+01 -0.15438604566E+01  0.77871205865E+01  0.80046714258E+01  0.51100000000E-03 0. -1.
        -11    1    3    3    0    0  0.84917880575E+01 -0.11076454500E+02  0.20542012758E+01  0.14107375796E+02  0.51100000000E-03 0.  1.
         12    1    3    3    0    0  0.25504519320E+02 -0.10891810152E+02 -0.61972522216E+01  0.28416860650E+02  0.00000000000E+00 0. -1.
</event>
<event>
 7    1  0.5849044E-013  0.5052886E+02  0.7816164E-02  0.1300439E+00
        -11   -1    0    0    0    0  0.00000000000E+00  0.00000000000E+00  0.45593999997E+02  0.45594000000E+02  0.51100000000E-03 0. -1.
         11   -1    0    0    0    0 -0.00000000000E+00 -0.00000000000E+00 -0.45593999997E+02  0.45594000000E+02  0.51100000000E-03 0.  1.
    9900012    2    1    2    0    0 -0.18554201619E+02  0.20653569845E+02 -0.29704166734E+02  0.50528857530E+02  0.29999992948E+02 0.  0.
         12    1    1    2    0    0  0.18554201619E+02 -0.20653569845E+02  0.29704166734E+02  0.40659142470E+02  0.00000000000E+00 0. -1.
         11    1    3    3    0    0 -0.18033440813E+02  0.91203651441E+01 -0.19701312319E+02  0.28222823304E+02  0.51100000000E-03 0. -1.
        -11    1    3    3    0    0 -0.51875067169E+01  0.11848142287E+02 -0.20724115984E+01  0.13098992010E+02  0.51100000000E-03 0.  1.
         12    1    3    3    0    0  0.46667459113E+01 -0.31493758628E+00 -0.79304428168E+01  0.92070422153E+01  0.00000000000E+00 0. -1.
</event>
<event>
 7    1  0.5849044E-013  0.5052886E+02  0.7816164E-02  0.1300439E+00
        -11   -1    0    0    0    0  0.00000000000E+00  0.00000000000E+00  0.45593999997E+02  0.45594000000E+02  0.51100000000E-03 0.  1.
         11   -1    0    0    0    0 -0.00000000000E+00 -0.00000000000E+00 -0.45593999997E+02  0.45594000000E+02  0.51100000000E-03 0. -1.
    9900012    2    1    2    0    0 -0.95427257103E+01  0.39351237985E+02  0.36853704625E+01  0.50528862031E+02  0.30000006631E+02 0.  0.
         12    1    1    2    0    0  0.95427257103E+01 -0.39351237985E+02 -0.36853704625E+01  0.40659137969E+02  0.00000000000E+00 0. -1.
         11    1    3    3    0    0 -0.65310187487E+01  0.76419629040E+00  0.47381603163E+01  0.81048359212E+01  0.51100000000E-03 0. -1.
        -11    1    3    3    0    0 -0.72092686436E+01  0.33867452113E+02 -0.49858768548E+01  0.34983379415E+02  0.51100000000E-03 0.  1.
         12    1    3    3    0    0  0.41975616820E+01  0.47195895813E+01  0.39330870011E+01  0.74406466955E+01  0.00000000000E+00 0. -1.
</event>
<event>
 7    1  0.5849044E-013  0.5052886E+02  0.7816164E-02  0.1300439E+00
        -11   -1    0    0    0    0  0.00000000000E+00  0.00000000000E+00  0.45593999997E+02  0.45594000000E+02  0.51100000000E-03 0.  1.
         11   -1    0    0    0    0 -0.00000000000E+00 -0.00000000000E+00 -0.45593999997E+02  0.45594000000E+02  0.51100000000E-03 0. -1.
    9900012    2    1    2    0    0  0.40589654411E+02 -0.11694890980E+01 -0.20682598261E+01  0.50528862667E+02  0.30000008563E+02 0.  0.
         12    1    1    2    0    0 -0.40589654411E+02  0.11694890980E+01  0.20682598261E+01  0.40659137333E+02  0.00000000000E+00 0. -1.
         11    1    3    3    0    0  0.94084197189E+01 -0.12201140486E+02 -0.27277633653E+01  0.15646944878E+02  0.51100000000E-03 0.  1.
        -11    1    3    3    0    0  0.17048095944E+02  0.11574149855E+02  0.18481931652E+01  0.20688507399E+02  0.51100000000E-03 0. -1.
        -12    1    3    3    0    0  0.14133138749E+02 -0.54249846661E+00 -0.11886896260E+01  0.14193410390E+02  0.00000000000E+00 0.  1.
</event>
<event>
 7    1  0.5849044E-013  0.5052884E+02  0.7816164E-02  0.1300439E+00
        -11   -1    0    0    0    0  0.00000000000E+00  0.00000000000E+00  0.45593999997E+02  0.45594000000E+02  0.51100000000E-03 0.  1.
         11   -1    0    0    0    0 -0.00000000000E+00 -0.00000000000E+00 -0.45593999997E+02  0.45594000000E+02  0.51100000000E-03 0. -1.
    9900012    2    1    2    0    0  0.19916906605E+02 -0.30387729752E+02  0.18250199591E+02  0.50528842688E+02  0.29999947836E+02 0.  0.
         12    1    1    2    0    0 -0.19916906605E+02  0.30387729752E+02 -0.18250199591E+02  0.40659157312E+02  0.00000000000E+00 0. -1.
         11    1    3    3    0    0  0.81974951588E+01 -0.86270423143E+01  0.13345252252E+02  0.17880731078E+02  0.51100000000E-03 0.  1.
        -11    1    3    3    0    0  0.11904752726E+02 -0.14256920409E+02 -0.59031607670E+01  0.19489233549E+02  0.51100000000E-03 0. -1.
        -12    1    3    3    0    0 -0.18534127929E+00 -0.75037670277E+01  0.10808108106E+02  0.13158878061E+02  0.00000000000E+00 0.  1.
</event>
<event>
 7    1  0.5849044E-013  0.5052886E+02  0.7816164E-02  0.1300439E+00
        -11   -1    0    0    0    0  0.00000000000E+00  0.00000000000E+00  0.45593999997E+02  0.45594000000E+02  0.51100000000E-03 0.  1.
         11   -1    0    0    0    0 -0.00000000000E+00 -0.00000000000E+00 -0.45593999997E+02  0.45594000000E+02  0.51100000000E-03 0. -1.
    9900012    2    1    2    0    0  0.10797858155E+02  0.66775694086E+01  0.38626179276E+02  0.50528863273E+02  0.30000010405E+02 0.  0.
         12    1    1    2    0    0 -0.10797858155E+02 -0.66775694086E+01 -0.38626179276E+02  0.40659136727E+02  0.00000000000E+00 0. -1.
         11    1    3    3    0    0 -0.74271357787E+01  0.56604153648E+01  0.21678926569E+02  0.23604628898E+02  0.51100000000E-03 0. -1.
        -11    1    3    3    0    0  0.11078470913E+02 -0.32141037839E+01  0.13934226544E+02  0.18089379496E+02  0.51100000000E-03 0.  1.
         12    1    3    3    0    0  0.71465230202E+01  0.42312578276E+01  0.30130261628E+01  0.88348548794E+01  0.00000000000E+00 0. -1.
</event>
<event>
 7    1  0.5849044E-013  0.5052886E+02  0.7816164E-02  0.1300439E+00
        -11   -1    0    0    0    0  0.00000000000E+00  0.00000000000E+00  0.45593999997E+02  0.45594000000E+02  0.51100000000E-03 0.  1.
         11   -1    0    0    0    0 -0.00000000000E+00 -0.00000000000E+00 -0.45593999997E+02  0.45594000000E+02  0.51100000000E-03 0. -1.
    9900012    2    1    2    0    0  0.27357546093E+02  0.12158791406E+02  0.27511703743E+02  0.50528863517E+02  0.30000011147E+02 0.  0.
         12    1    1    2    0    0 -0.27357546093E+02 -0.12158791406E+02 -0.27511703743E+02  0.40659136483E+02  0.00000000000E+00 0. -1.
         11    1    3    3    0    0 -0.15244755988E+01  0.10995322314E+02  0.14592379263E+02  0.18334630387E+02  0.51100000000E-03 0. -1.
        -11    1    3    3    0    0  0.16408690550E+02  0.16208249174E+00  0.41873422696E+01  0.16935324970E+02  0.51100000000E-03 0.  1.
         12    1    3    3    0    0  0.12473331142E+02  0.10013866010E+01  0.87319822109E+01  0.15258908160E+02  0.00000000000E+00 0. -1.
</event>
<event>
 7    1  0.5849044E-013  0.5052886E+02  0.7816164E-02  0.1300439E+00
        -11   -1    0    0    0    0  0.00000000000E+00  0.00000000000E+00  0.45593999997E+02  0.45594000000E+02  0.51100000000E-03 0. -1.
         11   -1    0    0    0    0 -0.00000000000E+00 -0.00000000000E+00 -0.45593999997E+02  0.45594000000E+02  0.51100000000E-03 0.  1.
    9900012    2    1    2    0    0 -0.25239903247E+02 -0.31261423981E+02 -0.62318631983E+01  0.50528862477E+02  0.30000007984E+02 0.  0.
         12    1    1    2    0    0  0.25239903247E+02  0.31261423981E+02  0.62318631983E+01  0.40659137523E+02  0.00000000000E+00 0. -1.
         11    1    3    3    0    0 -0.55897726596E+01 -0.26246037261E+02 -0.41722538440E+01  0.27157093598E+02  0.51100000000E-03 0. -1.
        -11    1    3    3    0    0 -0.15566693608E+02 -0.57224137553E+01 -0.60156924258E+01  0.17642463680E+02  0.51100000000E-03 0.  1.
         12    1    3    3    0    0 -0.40834369786E+01  0.70702703548E+00  0.39560830715E+01  0.57293051983E+01  0.00000000000E+00 0. -1.
</event>
<event>
 7    1  0.5849044E-013  0.5052886E+02  0.7816164E-02  0.1300439E+00
        -11   -1    0    0    0    0  0.00000000000E+00  0.00000000000E+00  0.45593999997E+02  0.45594000000E+02  0.51100000000E-03 0.  1.
         11   -1    0    0    0    0 -0.00000000000E+00 -0.00000000000E+00 -0.45593999997E+02  0.45594000000E+02  0.51100000000E-03 0. -1.
    9900012    2    1    2    0    0 -0.17581105905E+02  0.28453868055E+01  0.36550984335E+02  0.50528856296E+02  0.29999989198E+02 0.  0.
         12    1    1    2    0    0  0.17581105905E+02 -0.28453868055E+01 -0.36550984335E+02  0.40659143704E+02  0.00000000000E+00 0. -1.
         11    1    3    3    0    0  0.11938066112E+01 -0.94026918823E+01  0.35865980043E+01  0.10134074914E+02  0.51100000000E-03 0. -1.
        -11    1    3    3    0    0 -0.11533897775E+02  0.10106047187E+02  0.18103929619E+02  0.23725835191E+02  0.51100000000E-03 0.  1.
         12    1    3    3    0    0 -0.72410147414E+01  0.21420315007E+01  0.14860456711E+02  0.16668946191E+02  0.00000000000E+00 0. -1.
</event>
<event>
 7    1  0.5849044E-013  0.5052886E+02  0.7816164E-02  0.1300439E+00
        -11   -1    0    0    0    0  0.00000000000E+00  0.00000000000E+00  0.45593999997E+02  0.45594000000E+02  0.51100000000E-03 0.  1.
         11   -1    0    0    0    0 -0.00000000000E+00 -0.00000000000E+00 -0.45593999997E+02  0.45594000000E+02  0.51100000000E-03 0. -1.
    9900012    2    1    2    0    0  0.35056613764E+02  0.41710880638E+01  0.20169314796E+02  0.50528863221E+02  0.30000010247E+02 0.  0.
         12    1    1    2    0    0 -0.35056613764E+02 -0.41710880638E+01 -0.20169314796E+02  0.40659136779E+02  0.00000000000E+00 0. -1.
         11    1    3    3    0    0  0.11275981466E+02 -0.47207241048E+01 -0.48078742988E+01  0.13135777466E+02  0.51100000000E-03 0. -1.
        -11    1    3    3    0    0  0.13052629340E+02  0.97110332480E+01  0.10528387703E+02  0.19378396408E+02  0.51100000000E-03 0.  1.
        -12    1    3    3    0    0  0.10728002958E+02 -0.81922107941E+00  0.14448801392E+02  0.18014689348E+02  0.00000000000E+00 0.  1.
</event>
<event>
 7    1  0.5849044E-013  0.5052886E+02  0.7816164E-02  0.1300439E+00
        -11   -1    0    0    0    0  0.00000000000E+00  0.00000000000E+00  0.45593999997E+02  0.45594000000E+02  0.51100000000E-03 0. -1.
         11   -1    0    0    0    0 -0.00000000000E+00 -0.00000000000E+00 -0.45593999997E+02  0.45594000000E+02  0.51100000000E-03 0.  1.
    9900012    2    1    2    0    0 -0.15347497388E+02 -0.33381485480E+02 -0.17415412478E+02  0.50528857846E+02  0.29999993908E+02 0.  0.
         12    1    1    2    0    0  0.15347497388E+02  0.33381485480E+02  0.17415412478E+02  0.40659142154E+02  0.00000000000E+00 0. -1.
         11    1    3    3    0    0 -0.86557762358E+01 -0.33965187105E+02 -0.72736683488E+01  0.35797522943E+02  0.51100000000E-03 0.  1.
        -11    1    3    3    0    0 -0.52375929017E+01 -0.35329293175E+01 -0.60848271930E+01  0.87714930995E+01  0.51100000000E-03 0. -1.
         12    1    3    3    0    0 -0.14541282510E+01  0.41166309429E+01 -0.40569169366E+01  0.59598418033E+01  0.00000000000E+00 0. -1.
</event>
<event>
 7    1  0.5849044E-013  0.5052885E+02  0.7816164E-02  0.1300439E+00
        -11   -1    0    0    0    0  0.00000000000E+00  0.00000000000E+00  0.45593999997E+02  0.45594000000E+02  0.51100000000E-03 0.  1.
         11   -1    0    0    0    0 -0.00000000000E+00 -0.00000000000E+00 -0.45593999997E+02  0.45594000000E+02  0.51100000000E-03 0. -1.
    9900012    2    1    2    0    0 -0.34446004521E+02  0.21543791491E+02  0.15823738452E+01  0.50528854826E+02  0.29999984730E+02 0.  0.
         12    1    1    2    0    0  0.34446004521E+02 -0.21543791491E+02 -0.15823738452E+01  0.40659145174E+02  0.00000000000E+00 0. -1.
         11    1    3    3    0    0 -0.38766194259E+01  0.31860429230E+01 -0.65777874442E+01  0.82732300586E+01  0.51100000000E-03 0. -1.
        -11    1    3    3    0    0 -0.28880448738E+02  0.22313226968E+02  0.95692626229E+01  0.37729712488E+02  0.51100000000E-03 0.  1.
        -12    1    3    3    0    0 -0.16889363571E+01 -0.39554784000E+01 -0.14091013336E+01  0.45259122793E+01  0.00000000000E+00 0.  1.
</event>
<event>
 7    1  0.5849044E-013  0.5052886E+02  0.7816164E-02  0.1300439E+00
        -11   -1    0    0    0    0  0.00000000000E+00  0.00000000000E+00  0.45593999997E+02  0.45594000000E+02  0.51100000000E-03 0.  1.
         11   -1    0    0    0    0 -0.00000000000E+00 -0.00000000000E+00 -0.45593999997E+02  0.45594000000E+02  0.51100000000E-03 0. -1.
    9900012    2    1    2    0    0  0.70967250374E+01  0.23807814052E+02 -0.32186804064E+02  0.50528857460E+02  0.29999992736E+02 0.  0.
         12    1    1    2    0    0 -0.70967250374E+01 -0.23807814052E+02  0.32186804064E+02  0.40659142540E+02  0.00000000000E+00 0. -1.
         11    1    3    3    0    0 -0.60359276713E+01  0.14182041291E+02 -0.20108982616E+02  0.25336414508E+02  0.51100000000E-03 0. -1.
        -11    1    3    3    0    0  0.90459927484E+01  0.12976583546E+02 -0.12086922428E+02  0.19907671872E+02  0.51100000000E-03 0.  1.
         12    1    3    3    0    0  0.40866599603E+01 -0.33508107845E+01  0.91009790192E-02  0.52847710805E+01  0.00000000000E+00 0. -1.
</event>
<event>
 7    1  0.5849044E-013  0.5052885E+02  0.7816164E-02  0.1300439E+00
        -11   -1    0    0    0    0  0.00000000000E+00  0.00000000000E+00  0.45593999997E+02  0.45594000000E+02  0.51100000000E-03 0. -1.
         11   -1    0    0    0    0 -0.00000000000E+00 -0.00000000000E+00 -0.45593999997E+02  0.45594000000E+02  0.51100000000E-03 0.  1.
    9900012    2    1    2    0    0  0.25600914359E+02 -0.29341272995E+02 -0.11698274361E+02  0.50528846787E+02  0.29999960293E+02 0.  0.
         12    1    1    2    0    0 -0.25600914359E+02  0.29341272995E+02  0.11698274361E+02  0.40659153213E+02  0.00000000000E+00 0. -1.
         11    1    3    3    0    0 -0.13089132438E+01 -0.18263532766E+01 -0.41523007941E+01  0.47212733787E+01  0.51100000000E-03 0. -1.
        -11    1    3    3    0    0  0.19368243838E+02 -0.31155634616E+02 -0.74426893263E+01  0.37432553511E+02  0.51100000000E-03 0.  1.
        -12    1    3    3    0    0  0.75415837640E+01  0.36407148974E+01 -0.10328424094E+00  0.83750198966E+01  0.00000000000E+00 0.  1.
</event>
<event>
 7    1  0.5849044E-013  0.5052887E+02  0.7816164E-02  0.1300439E+00
        -11   -1    0    0    0    0  0.00000000000E+00  0.00000000000E+00  0.45593999997E+02  0.45594000000E+02  0.51100000000E-03 0.  1.
         11   -1    0    0    0    0 -0.00000000000E+00 -0.00000000000E+00 -0.45593999997E+02  0.45594000000E+02  0.51100000000E-03 0. -1.
    9900012    2    1    2    0    0  0.18177122155E+02 -0.29379842739E+02  0.21437866997E+02  0.50528867316E+02  0.30000022695E+02 0.  0.
         12    1    1    2    0    0 -0.18177122155E+02  0.29379842739E+02 -0.21437866997E+02  0.40659132684E+02  0.00000000000E+00 0. -1.
         11    1    3    3    0    0  0.76527431552E+01 -0.68542236471E+01 -0.29650579388E+01  0.10692821351E+02  0.51100000000E-03 0. -1.
        -11    1    3    3    0    0  0.15210620138E+02 -0.12464464568E+02  0.19526660815E+02  0.27713107454E+02  0.51100000000E-03 0.  1.
        -12    1    3    3    0    0 -0.46862411382E+01 -0.10061154524E+02  0.48762641209E+01  0.12122938511E+02  0.00000000000E+00 0.  1.
</event>
<event>
 7    1  0.5849044E-013  0.5052881E+02  0.7816164E-02  0.1300439E+00
        -11   -1    0    0    0    0  0.00000000000E+00  0.00000000000E+00  0.45593999997E+02  0.45594000000E+02  0.51100000000E-03 0.  1.
         11   -1    0    0    0    0 -0.00000000000E+00 -0.00000000000E+00 -0.45593999997E+02  0.45594000000E+02  0.51100000000E-03 0. -1.
    9900012    2    1    2    0    0 -0.35030662663E+02  0.20032010238E+02 -0.49740491467E+01  0.50528807612E+02  0.29999841216E+02 0.  0.
         12    1    1    2    0    0  0.35030662663E+02 -0.20032010238E+02  0.49740491467E+01  0.40659192388E+02  0.00000000000E+00 0. -1.
         11    1    3    3    0    0 -0.52366048933E+01 -0.27930677119E+01 -0.10061809024E+02  0.11681748977E+02  0.51100000000E-03 0. -1.
        -11    1    3    3    0    0 -0.23929001226E+02  0.16689690494E+02  0.45630747571E+00  0.29177921195E+02  0.51100000000E-03 0.  1.
        -12    1    3    3    0    0 -0.58650565432E+01  0.61353874555E+01  0.46314524018E+01  0.96691374400E+01  0.00000000000E+00 0.  1.
</event>
<event>
 7    1  0.5849044E-013  0.5052885E+02  0.7816164E-02  0.1300439E+00
        -11   -1    0    0    0    0  0.00000000000E+00  0.00000000000E+00  0.45593999997E+02  0.45594000000E+02  0.51100000000E-03 0.  1.
         11   -1    0    0    0    0 -0.00000000000E+00 -0.00000000000E+00 -0.45593999997E+02  0.45594000000E+02  0.51100000000E-03 0. -1.
    9900012    2    1    2    0    0  0.19320381326E+02  0.21136745436E+02  0.28863938847E+02  0.50528854560E+02  0.29999983919E+02 0.  0.
         12    1    1    2    0    0 -0.19320381326E+02 -0.21136745436E+02 -0.28863938847E+02  0.40659145440E+02  0.00000000000E+00 0. -1.
         11    1    3    3    0    0 -0.11625300126E+01 -0.38481263255E+01  0.11218863756E+02  0.11917317503E+02  0.51100000000E-03 0. -1.
        -11    1    3    3    0    0  0.19343489206E+02  0.20990533786E+02  0.10630671885E+02  0.30459551347E+02  0.51100000000E-03 0.  1.
        -12    1    3    3    0    0  0.11394221320E+01  0.39943379753E+01  0.70144032067E+01  0.81519857092E+01  0.00000000000E+00 0.  1.
</event>
<event>
 7    1  0.5849044E-013  0.5052885E+02  0.7816164E-02  0.1300439E+00
        -11   -1    0    0    0    0  0.00000000000E+00  0.00000000000E+00  0.45593999997E+02  0.45594000000E+02  0.51100000000E-03 0.  1.
         11   -1    0    0    0    0 -0.00000000000E+00 -0.00000000000E+00 -0.45593999997E+02  0.45594000000E+02  0.51100000000E-03 0. -1.
    9900012    2    1    2    0    0  0.17784864586E+02  0.28656033160E+02  0.22708954890E+02  0.50528852480E+02  0.29999977599E+02 0.  0.
         12    1    1    2    0    0 -0.17784864586E+02 -0.28656033160E+02 -0.22708954890E+02  0.40659147520E+02  0.00000000000E+00 0. -1.
         11    1    3    3    0    0 -0.12757181588E+01 -0.17100367555E+01  0.44485657448E+01  0.49337024609E+01  0.51100000000E-03 0. -1.
        -11    1    3    3    0    0  0.14984532567E+02  0.47116389079E+01  0.54030705708E+01  0.16611108612E+02  0.51100000000E-03 0.  1.
        -12    1    3    3    0    0  0.40760501779E+01  0.25654431008E+02  0.12857318574E+02  0.28984041408E+02  0.00000000000E+00 0.  1.
</event>
<event>
 7    1  0.5849044E-013  0.5052885E+02  0.7816164E-02  0.1300439E+00
        -11   -1    0    0    0    0  0.00000000000E+00  0.00000000000E+00  0.45593999997E+02  0.45594000000E+02  0.51100000000E-03 0. -1.
         11   -1    0    0    0    0 -0.00000000000E+00 -0.00000000000E+00 -0.45593999997E+02  0.45594000000E+02  0.51100000000E-03 0.  1.
    9900012    2    1    2    0    0  0.18083774804E+02  0.18466129048E+02 -0.31387025615E+02  0.50528853303E+02  0.29999980099E+02 0.  0.
         12    1    1    2    0    0 -0.18083774804E+02 -0.18466129048E+02  0.31387025615E+02  0.40659146697E+02  0.00000000000E+00 0. -1.
         11    1    3    3    0    0 -0.22702519693E+01 -0.10648903662E+01 -0.13078685264E+02  0.13316908199E+02  0.51100000000E-03 0.  1.
        -11    1    3    3    0    0  0.17365026189E+02  0.18410952183E+02 -0.81874784456E+01  0.26599663501E+02  0.51100000000E-03 0. -1.
         12    1    3    3    0    0  0.29890005845E+01  0.11200672318E+01 -0.10120861905E+02  0.10612281602E+02  0.00000000000E+00 0. -1.
</event>
<event>
 7    1  0.5849044E-013  0.5052886E+02  0.7816164E-02  0.1300439E+00
        -11   -1    0    0    0    0  0.00000000000E+00  0.00000000000E+00  0.45593999997E+02  0.45594000000E+02  0.51100000000E-03 0.  1.
         11   -1    0    0    0    0 -0.00000000000E+00 -0.00000000000E+00 -0.45593999997E+02  0.45594000000E+02  0.51100000000E-03 0. -1.
    9900012    2    1    2    0    0 -0.13484532395E+02 -0.37822816882E+02  0.63849550754E+01  0.50528859059E+02  0.29999997595E+02 0.  0.
         12    1    1    2    0    0  0.13484532395E+02  0.37822816882E+02 -0.63849550754E+01  0.40659140941E+02  0.00000000000E+00 0. -1.
         11    1    3    3    0    0 -0.17643510144E+02 -0.24773456922E+02 -0.37859588818E+01  0.30648835263E+02  0.51100000000E-03 0. -1.
        -11    1    3    3    0    0  0.39792187002E+01 -0.14023288037E+02  0.62924030199E+01  0.15877062853E+02  0.51100000000E-03 0.  1.
         12    1    3    3    0    0  0.17975904854E+00  0.97392807691E+00  0.38785109373E+01  0.40029609423E+01  0.00000000000E+00 0. -1.
</event>
<event>
 7    1  0.5849044E-013  0.5052887E+02  0.7816164E-02  0.1300439E+00
        -11   -1    0    0    0    0  0.00000000000E+00  0.00000000000E+00  0.45593999997E+02  0.45594000000E+02  0.51100000000E-03 0.  1.
         11   -1    0    0    0    0 -0.00000000000E+00 -0.00000000000E+00 -0.45593999997E+02  0.45594000000E+02  0.51100000000E-03 0. -1.
    9900012    2    1    2    0    0 -0.40536535384E+02  0.97657937129E+00  0.30001354145E+01  0.50528865470E+02  0.30000017083E+02 0.  0.
         12    1    1    2    0    0  0.40536535384E+02 -0.97657937129E+00 -0.30001354145E+01  0.40659134530E+02  0.00000000000E+00 0. -1.
         11    1    3    3    0    0  0.24211040602E+00 -0.25184113038E+01  0.65988433959E+00  0.26146626067E+01  0.51100000000E-03 0. -1.
        -11    1    3    3    0    0 -0.39525925252E+02  0.15221060940E+01  0.92479233937E+01  0.40621911099E+02  0.51100000000E-03 0.  1.
        -12    1    3    3    0    0 -0.12527205382E+01  0.19728845811E+01 -0.69076723188E+01  0.72922917646E+01  0.00000000000E+00 0.  1.
</event>
<event>
 7    1  0.5849044E-013  0.5052886E+02  0.7816164E-02  0.1300439E+00
        -11   -1    0    0    0    0  0.00000000000E+00  0.00000000000E+00  0.45593999997E+02  0.45594000000E+02  0.51100000000E-03 0.  1.
         11   -1    0    0    0    0 -0.00000000000E+00 -0.00000000000E+00 -0.45593999997E+02  0.45594000000E+02  0.51100000000E-03 0. -1.
    9900012    2    1    2    0    0 -0.30788025677E+02  0.11361972385E+02  0.24003517632E+02  0.50528858343E+02  0.29999995419E+02 0.  0.
         12    1    1    2    0    0  0.30788025677E+02 -0.11361972385E+02 -0.24003517632E+02  0.40659141657E+02  0.00000000000E+00 0. -1.
         11    1    3    3    0    0 -0.16587924540E+02  0.32423701005E+01 -0.94609639519E+00  0.16928298883E+02  0.51100000000E-03 0. -1.
        -11    1    3    3    0    0 -0.94721755488E+01  0.36527114067E+01  0.25120107784E+02  0.27093988735E+02  0.51100000000E-03 0.  1.
         12    1    3    3    0    0 -0.47279255883E+01  0.44668908782E+01 -0.17049375608E+00  0.65065707256E+01  0.00000000000E+00 0. -1.
</event>
<event>
 7    1  0.5849044E-013  0.5052886E+02  0.7816164E-02  0.1300439E+00
        -11   -1    0    0    0    0  0.00000000000E+00  0.00000000000E+00  0.45593999997E+02  0.45594000000E+02  0.51100000000E-03 0.  1.
         11   -1    0    0    0    0 -0.00000000000E+00 -0.00000000000E+00 -0.45593999997E+02  0.45594000000E+02  0.51100000000E-03 0. -1.
    9900012    2    1    2    0    0  0.51622018769E+00 -0.24412779352E+02  0.32510237790E+02  0.50528857853E+02  0.29999993930E+02 0.  0.
         12    1    1    2    0    0 -0.51622018769E+00  0.24412779352E+02 -0.32510237790E+02  0.40659142147E+02  0.00000000000E+00 0. -1.
         11    1    3    3    0    0  0.30231572650E+01 -0.11744019327E+02  0.32492240885E+01  0.12554637679E+02  0.51100000000E-03 0. -1.
        -11    1    3    3    0    0  0.35174507982E+01 -0.10522794299E+02  0.29558371599E+02  0.31572123651E+02  0.51100000000E-03 0.  1.
        -12    1    3    3    0    0 -0.60243878755E+01 -0.21459657261E+01 -0.29735789815E+00  0.64020965232E+01  0.00000000000E+00 0.  1.
</event>
<event>
 7    1  0.5849044E-013  0.5052887E+02  0.7816164E-02  0.1300439E+00
        -11   -1    0    0    0    0  0.00000000000E+00  0.00000000000E+00  0.45593999997E+02  0.45594000000E+02  0.51100000000E-03 0. -1.
         11   -1    0    0    0    0 -0.00000000000E+00 -0.00000000000E+00 -0.45593999997E+02  0.45594000000E+02  0.51100000000E-03 0.  1.
    9900012    2    1    2    0    0  0.27675359826E+02  0.14772794668E+02 -0.25865113206E+02  0.50528867140E+02  0.30000022158E+02 0.  0.
         12    1    1    2    0    0 -0.27675359826E+02 -0.14772794668E+02  0.25865113206E+02  0.40659132860E+02  0.00000000000E+00 0. -1.
         11    1    3    3    0    0  0.65947731400E+01  0.68221134847E+01 -0.17171869285E+01  0.96426654186E+01  0.51100000000E-03 0. -1.
        -11    1    3    3    0    0  0.24307511471E+02 -0.37233831578E-01 -0.18980842623E+02  0.30840377547E+02  0.51100000000E-03 0.  1.
        -12    1    3    3    0    0 -0.32269247854E+01  0.79879150151E+01 -0.51670836535E+01  0.10045824174E+02  0.00000000000E+00 0.  1.
</event>
<event>
 7    1  0.5849044E-013  0.5052887E+02  0.7816164E-02  0.1300439E+00
        -11   -1    0    0    0    0  0.00000000000E+00  0.00000000000E+00  0.45593999997E+02  0.45594000000E+02  0.51100000000E-03 0.  1.
         11   -1    0    0    0    0 -0.00000000000E+00 -0.00000000000E+00 -0.45593999997E+02  0.45594000000E+02  0.51100000000E-03 0. -1.
    9900012    2    1    2    0    0 -0.26301595285E+02  0.20655853544E+02  0.23124162208E+02  0.50528867226E+02  0.30000022419E+02 0.  0.
         12    1    1    2    0    0  0.26301595285E+02 -0.20655853544E+02 -0.23124162208E+02  0.40659132774E+02  0.00000000000E+00 0. -1.
         11    1    3    3    0    0  0.11824613989E+01  0.73725277089E+01 -0.62574090269E+00  0.74929254445E+01  0.51100000000E-03 0. -1.
        -11    1    3    3    0    0 -0.17071430852E+02 -0.21132400596E+01  0.13025514658E+02  0.21576922098E+02  0.51100000000E-03 0.  1.
        -12    1    3    3    0    0 -0.10412625832E+02  0.15396565895E+02  0.10724388453E+02  0.21459019683E+02  0.00000000000E+00 0.  1.
</event>
<event>
 7    1  0.5849044E-013  0.5052886E+02  0.7816164E-02  0.1300439E+00
        -11   -1    0    0    0    0  0.00000000000E+00  0.00000000000E+00  0.45593999997E+02  0.45594000000E+02  0.51100000000E-03 0.  1.
         11   -1    0    0    0    0 -0.00000000000E+00 -0.00000000000E+00 -0.45593999997E+02  0.45594000000E+02  0.51100000000E-03 0. -1.
    9900012    2    1    2    0    0 -0.83627603003E+01 -0.38019179223E+02  0.11737644701E+02  0.50528855250E+02  0.29999986019E+02 0.  0.
         12    1    1    2    0    0  0.83627603003E+01  0.38019179223E+02 -0.11737644701E+02  0.40659144750E+02  0.00000000000E+00 0. -1.
         11    1    3    3    0    0  0.80511560634E+01 -0.63748065066E+01 -0.16720175382E+01  0.10404562214E+02  0.51100000000E-03 0. -1.
        -11    1    3    3    0    0 -0.62942121832E+01 -0.61919205000E+01  0.85796317522E+01  0.12311257765E+02  0.51100000000E-03 0.  1.
         12    1    3    3    0    0 -0.10119704180E+02 -0.25452452216E+02  0.48300304871E+01  0.27813035272E+02  0.00000000000E+00 0. -1.
</event>
<event>
 7    1  0.5849044E-013  0.5052882E+02  0.7816164E-02  0.1300439E+00
        -11   -1    0    0    0    0  0.00000000000E+00  0.00000000000E+00  0.45593999997E+02  0.45594000000E+02  0.51100000000E-03 0.  1.
         11   -1    0    0    0    0 -0.00000000000E+00 -0.00000000000E+00 -0.45593999997E+02  0.45594000000E+02  0.51100000000E-03 0. -1.
    9900012    2    1    2    0    0  0.14507731635E+02 -0.20561547285E+02  0.31936149512E+02  0.50528817156E+02  0.29999870226E+02 0.  0.
         12    1    1    2    0    0 -0.14507731635E+02  0.20561547285E+02 -0.31936149512E+02  0.40659182844E+02  0.00000000000E+00 0. -1.
         11    1    3    3    0    0 -0.12478279527E+01 -0.38475808692E+01 -0.52240124952E+01  0.66069100157E+01  0.51100000000E-03 0. -1.
        -11    1    3    3    0    0  0.14736943108E+02 -0.14434058588E+02  0.30610409811E+02  0.36912284250E+02  0.51100000000E-03 0.  1.
         12    1    3    3    0    0  0.10186164795E+01 -0.22799078280E+01  0.65497521956E+01  0.70096228900E+01  0.00000000000E+00 0. -1.
</event>
<event>
 7    1  0.5849044E-013  0.5052885E+02  0.7816164E-02  0.1300439E+00
        -11   -1    0    0    0    0  0.00000000000E+00  0.00000000000E+00  0.45593999997E+02  0.45594000000E+02  0.51100000000E-03 0.  1.
         11   -1    0    0    0    0 -0.00000000000E+00 -0.00000000000E+00 -0.45593999997E+02  0.45594000000E+02  0.51100000000E-03 0. -1.
    9900012    2    1    2    0    0 -0.11679502663E+02 -0.51872085902E+01  0.38598557851E+02  0.50528848710E+02  0.29999966140E+02 0.  0.
         12    1    1    2    0    0  0.11679502663E+02  0.51872085902E+01 -0.38598557851E+02  0.40659151290E+02  0.00000000000E+00 0. -1.
         11    1    3    3    0    0 -0.17462406306E+01  0.36144294336E+01  0.20230499578E+02  0.20624901695E+02  0.51100000000E-03 0. -1.
        -11    1    3    3    0    0 -0.15036486102E+02 -0.21973534407E+01  0.10863183948E+02  0.18679749521E+02  0.51100000000E-03 0.  1.
        -12    1    3    3    0    0  0.51032240698E+01 -0.66042845831E+01  0.75048743254E+01  0.11224197495E+02  0.00000000000E+00 0.  1.
</event>
<event>
 7    1  0.5849044E-013  0.5052889E+02  0.7816164E-02  0.1300439E+00
        -11   -1    0    0    0    0  0.00000000000E+00  0.00000000000E+00  0.45593999997E+02  0.45594000000E+02  0.51100000000E-03 0.  1.
         11   -1    0    0    0    0 -0.00000000000E+00 -0.00000000000E+00 -0.45593999997E+02  0.45594000000E+02  0.51100000000E-03 0. -1.
    9900012    2    1    2    0    0 -0.24013734872E+02 -0.31943555292E+02  0.74908653385E+01  0.50528889696E+02  0.30000090720E+02 0.  0.
         12    1    1    2    0    0  0.24013734872E+02  0.31943555292E+02 -0.74908653385E+01  0.40659110304E+02  0.00000000000E+00 0. -1.
         11    1    3    3    0    0 -0.27977090263E+02 -0.25003607870E+02  0.70354272459E+01  0.38175846066E+02  0.51100000000E-03 0. -1.
        -11    1    3    3    0    0  0.38109396341E+01 -0.42180357505E+01  0.46542017850E+01  0.73468824003E+01  0.51100000000E-03 0.  1.
         12    1    3    3    0    0  0.15241575716E+00 -0.27219116716E+01 -0.41987636924E+01  0.50061612295E+01  0.00000000000E+00 0. -1.
</event>
<event>
 7    1  0.5849044E-013  0.5052886E+02  0.7816164E-02  0.1300439E+00
        -11   -1    0    0    0    0  0.00000000000E+00  0.00000000000E+00  0.45593999997E+02  0.45594000000E+02  0.51100000000E-03 0. -1.
         11   -1    0    0    0    0 -0.00000000000E+00 -0.00000000000E+00 -0.45593999997E+02  0.45594000000E+02  0.51100000000E-03 0.  1.
    9900012    2    1    2    0    0  0.55081158655E+01 -0.93876579110E+00 -0.40273376350E+02  0.50528862476E+02  0.30000007982E+02 0.  0.
         12    1    1    2    0    0 -0.55081158655E+01  0.93876579110E+00  0.40273376350E+02  0.40659137524E+02  0.00000000000E+00 0. -1.
         11    1    3    3    0    0  0.43083205201E+01  0.45948476912E+01 -0.32224295463E+02  0.32834120505E+02  0.51100000000E-03 0.  1.
        -11    1    3    3    0    0  0.75997054417E+01 -0.50623144382E+00 -0.40670327784E+01  0.86343817936E+01  0.51100000000E-03 0. -1.
         12    1    3    3    0    0 -0.63999100963E+01 -0.50273820385E+01 -0.39820481087E+01  0.90603601773E+01  0.00000000000E+00 0. -1.
</event>
<event>
 7    1  0.6055726E-013  0.5052887E+02  0.7816164E-02  0.1300439E+00
        -11   -1    0    0    0    0  0.00000000000E+00  0.00000000000E+00  0.45593999997E+02  0.45594000000E+02  0.51100000000E-03 0. -1.
         11   -1    0    0    0    0 -0.00000000000E+00 -0.00000000000E+00 -0.45593999997E+02  0.45594000000E+02  0.51100000000E-03 0.  1.
    9900012    2    1    2    0    0 -0.47296862279E+01 -0.35726348547E+02 -0.18826133798E+02  0.50528865404E+02  0.30000016883E+02 0.  0.
         12    1    1    2    0    0  0.47296862279E+01  0.35726348547E+02  0.18826133798E+02  0.40659134596E+02  0.00000000000E+00 0. -1.
         11    1    3    3    0    0  0.91932533629E+01 -0.10245588441E+02 -0.88238340051E+01  0.16350780921E+02  0.51100000000E-03 0.  1.
        -11    1    3    3    0    0 -0.11887240634E+02 -0.27401370935E+02 -0.88588053379E+01  0.31154775738E+02  0.51100000000E-03 0. -1.
         12    1    3    3    0    0 -0.20356989565E+01  0.19206108299E+01 -0.11434944548E+01  0.30233087454E+01  0.00000000000E+00 0. -1.
</event>
<event>
 7    1  0.5849044E-013  0.5052889E+02  0.7816164E-02  0.1300439E+00
        -11   -1    0    0    0    0  0.00000000000E+00  0.00000000000E+00  0.45593999997E+02  0.45594000000E+02  0.51100000000E-03 0.  1.
         11   -1    0    0    0    0 -0.00000000000E+00 -0.00000000000E+00 -0.45593999997E+02  0.45594000000E+02  0.51100000000E-03 0. -1.
    9900012    2    1    2    0    0  0.19016772562E+02 -0.10707526972E+02  0.34305602088E+02  0.50528891462E+02  0.30000096087E+02 0.  0.
         12    1    1    2    0    0 -0.19016772562E+02  0.10707526972E+02 -0.34305602088E+02  0.40659108538E+02  0.00000000000E+00 0. -1.
         11    1    3    3    0    0  0.82636910302E+01 -0.26781098503E+01 -0.47041580593E+00  0.86995490173E+01  0.51100000000E-03 0. -1.
        -11    1    3    3    0    0  0.15106572770E+02 -0.58225434923E+01  0.32772288681E+02  0.36553159361E+02  0.51100000000E-03 0.  1.
        -12    1    3    3    0    0 -0.43534912383E+01 -0.22068736291E+01  0.20037292125E+01  0.52761830838E+01  0.00000000000E+00 0.  1.
</event>
<event>
 7    1  0.5849044E-013  0.5052886E+02  0.7816164E-02  0.1300439E+00
        -11   -1    0    0    0    0  0.00000000000E+00  0.00000000000E+00  0.45593999997E+02  0.45594000000E+02  0.51100000000E-03 0. -1.
         11   -1    0    0    0    0 -0.00000000000E+00 -0.00000000000E+00 -0.45593999997E+02  0.45594000000E+02  0.51100000000E-03 0.  1.
    9900012    2    1    2    0    0 -0.25820365192E+02 -0.23755068379E+02 -0.20546804984E+02  0.50528859240E+02  0.29999998145E+02 0.  0.
         12    1    1    2    0    0  0.25820365192E+02  0.23755068379E+02  0.20546804984E+02  0.40659140760E+02  0.00000000000E+00 0. -1.
         11    1    3    3    0    0 -0.10887631940E+02 -0.71429265681E+01  0.26285405039E+01  0.13284244602E+02  0.51100000000E-03 0. -1.
        -11    1    3    3    0    0 -0.17135346616E+02 -0.19117000813E+02 -0.21623765447E+02  0.33565861468E+02  0.51100000000E-03 0.  1.
        -12    1    3    3    0    0  0.22026133637E+01  0.25048590028E+01 -0.15515800413E+01  0.36787531690E+01  0.00000000000E+00 0.  1.
</event>
<event>
 7    1  0.5849044E-013  0.5052885E+02  0.7816164E-02  0.1300439E+00
        -11   -1    0    0    0    0  0.00000000000E+00  0.00000000000E+00  0.45593999997E+02  0.45594000000E+02  0.51100000000E-03 0.  1.
         11   -1    0    0    0    0 -0.00000000000E+00 -0.00000000000E+00 -0.45593999997E+02  0.45594000000E+02  0.51100000000E-03 0. -1.
    9900012    2    1    2    0    0 -0.45606221220E+01  0.31833954258E+02  0.24879035566E+02  0.50528851847E+02  0.29999975674E+02 0.  0.
         12    1    1    2    0    0  0.45606221220E+01 -0.31833954258E+02 -0.24879035566E+02  0.40659148153E+02  0.00000000000E+00 0. -1.
         11    1    3    3    0    0 -0.26923099190E+01 -0.19680480075E+01 -0.17517188160E+01  0.37669967788E+01  0.51100000000E-03 0. -1.
        -11    1    3    3    0    0  0.28857014134E+00  0.29701304068E+02  0.29039616000E+02  0.41539740415E+02  0.51100000000E-03 0.  1.
        -12    1    3    3    0    0 -0.21568823444E+01  0.41006981973E+01 -0.24088616181E+01  0.52221146529E+01  0.00000000000E+00 0.  1.
</event>
<event>
 7    1  0.5849044E-013  0.5052883E+02  0.7816164E-02  0.1300439E+00
        -11   -1    0    0    0    0  0.00000000000E+00  0.00000000000E+00  0.45593999997E+02  0.45594000000E+02  0.51100000000E-03 0.  1.
         11   -1    0    0    0    0 -0.00000000000E+00 -0.00000000000E+00 -0.45593999997E+02  0.45594000000E+02  0.51100000000E-03 0. -1.
    9900012    2    1    2    0    0 -0.36631836148E+02 -0.16836708597E+02 -0.52727767354E+01  0.50528826983E+02  0.29999900096E+02 0.  0.
         12    1    1    2    0    0  0.36631836148E+02  0.16836708597E+02  0.52727767354E+01  0.40659173017E+02  0.00000000000E+00 0. -1.
         11    1    3    3    0    0 -0.17139152815E+02 -0.80098761299E+01  0.65926469464E+01  0.20034262373E+02  0.51100000000E-03 0. -1.
        -11    1    3    3    0    0 -0.17466654481E+02 -0.12095843000E+02 -0.14597043161E+02  0.25777259473E+02  0.51100000000E-03 0.  1.
         12    1    3    3    0    0 -0.20260288522E+01  0.32690105327E+01  0.27316194787E+01  0.47173051364E+01  0.00000000000E+00 0. -1.
</event>
<event>
 7    1  0.5849044E-013  0.5052886E+02  0.7816164E-02  0.1300439E+00
        -11   -1    0    0    0    0  0.00000000000E+00  0.00000000000E+00  0.45593999997E+02  0.45594000000E+02  0.51100000000E-03 0.  1.
         11   -1    0    0    0    0 -0.00000000000E+00 -0.00000000000E+00 -0.45593999997E+02  0.45594000000E+02  0.51100000000E-03 0. -1.
    9900012    2    1    2    0    0  0.14086123095E+02 -0.38378513972E+01  0.37947570437E+02  0.50528855035E+02  0.29999985366E+02 0.  0.
         12    1    1    2    0    0 -0.14086123095E+02  0.38378513972E+01 -0.37947570437E+02  0.40659144965E+02  0.00000000000E+00 0. -1.
         11    1    3    3    0    0  0.16208147192E+02  0.63658365648E+01  0.31668459283E+02  0.36140271501E+02  0.51100000000E-03 0. -1.
        -11    1    3    3    0    0 -0.32210191480E+01 -0.38496972253E+01  0.61507872946E+01  0.79389745989E+01  0.51100000000E-03 0.  1.
         12    1    3    3    0    0  0.10989950508E+01 -0.63539907367E+01  0.12832385928E+00  0.64496089352E+01  0.00000000000E+00 0. -1.
</event>
<event>
 7    1  0.5849044E-013  0.5052888E+02  0.7816164E-02  0.1300439E+00
        -11   -1    0    0    0    0  0.00000000000E+00  0.00000000000E+00  0.45593999997E+02  0.45594000000E+02  0.51100000000E-03 0. -1.
         11   -1    0    0    0    0 -0.00000000000E+00 -0.00000000000E+00 -0.45593999997E+02  0.45594000000E+02  0.51100000000E-03 0.  1.
    9900012    2    1    2    0    0 -0.37871211756E+02  0.14217534306E+02 -0.40984267268E+01  0.50528879704E+02  0.30000060349E+02 0.  0.
         12    1    1    2    0    0  0.37871211756E+02 -0.14217534306E+02  0.40984267268E+01  0.40659120296E+02  0.00000000000E+00 0. -1.
         11    1    3    3    0    0 -0.13433065317E+02  0.63717259376E+01 -0.13745515170E+02  0.20248094300E+02  0.51100000000E-03 0. -1.
        -11    1    3    3    0    0 -0.10179998616E+02  0.37643957993E+01  0.10918800116E+02  0.15395559223E+02  0.51100000000E-03 0.  1.
        -12    1    3    3    0    0 -0.14258147823E+02  0.40814125689E+01 -0.12717116725E+01  0.14885226182E+02  0.00000000000E+00 0.  1.
</event>
<event>
 7    1  0.5849044E-013  0.5052886E+02  0.7816164E-02  0.1300439E+00
        -11   -1    0    0    0    0  0.00000000000E+00  0.00000000000E+00  0.45593999997E+02  0.45594000000E+02  0.51100000000E-03 0.  1.
         11   -1    0    0    0    0 -0.00000000000E+00 -0.00000000000E+00 -0.45593999997E+02  0.45594000000E+02  0.51100000000E-03 0. -1.
    9900012    2    1    2    0    0  0.39774435363E+02 -0.69023173284E+01  0.48495266107E+01  0.50528860790E+02  0.30000002858E+02 0.  0.
         12    1    1    2    0    0 -0.39774435363E+02  0.69023173284E+01 -0.48495266107E+01  0.40659139210E+02  0.00000000000E+00 0. -1.
         11    1    3    3    0    0  0.17545923811E+01  0.44937550430E+01  0.21377746850E+01  0.52766002004E+01  0.51100000000E-03 0. -1.
        -11    1    3    3    0    0  0.32813881023E+02 -0.92792337805E+00 -0.14060081340E+01  0.32857094952E+02  0.51100000000E-03 0.  1.
        -12    1    3    3    0    0  0.52059619589E+01 -0.10468148993E+02  0.41177600597E+01  0.12395165637E+02  0.00000000000E+00 0.  1.
</event>
<event>
 7    1  0.5849044E-013  0.5052886E+02  0.7816164E-02  0.1300439E+00
        -11   -1    0    0    0    0  0.00000000000E+00  0.00000000000E+00  0.45593999997E+02  0.45594000000E+02  0.51100000000E-03 0.  1.
         11   -1    0    0    0    0 -0.00000000000E+00 -0.00000000000E+00 -0.45593999997E+02  0.45594000000E+02  0.51100000000E-03 0. -1.
    9900012    2    1    2    0    0 -0.78858908894E+01 -0.10729017016E+02  0.38417010678E+02  0.50528858461E+02  0.29999995778E+02 0.  0.
         12    1    1    2    0    0  0.78858908894E+01  0.10729017016E+02 -0.38417010678E+02  0.40659141539E+02  0.00000000000E+00 0. -1.
         11    1    3    3    0    0 -0.10548788008E+02 -0.74742498645E+01  0.77095316149E+01  0.15052515320E+02  0.51100000000E-03 0. -1.
        -11    1    3    3    0    0 -0.56388180589E+01  0.21509709195E+01  0.19992210939E+02  0.20883281435E+02  0.51100000000E-03 0.  1.
        -12    1    3    3    0    0  0.83017151777E+01 -0.54057380710E+01  0.10715268124E+02  0.14593061706E+02  0.00000000000E+00 0.  1.
</event>
<event>
 7    1  0.5849044E-013  0.5052886E+02  0.7816164E-02  0.1300439E+00
        -11   -1    0    0    0    0  0.00000000000E+00  0.00000000000E+00  0.45593999997E+02  0.45594000000E+02  0.51100000000E-03 0.  1.
         11   -1    0    0    0    0 -0.00000000000E+00 -0.00000000000E+00 -0.45593999997E+02  0.45594000000E+02  0.51100000000E-03 0. -1.
    9900012    2    1    2    0    0  0.34628728292E+02 -0.14777711745E+02  0.15350434895E+02  0.50528862786E+02  0.30000008924E+02 0.  0.
         12    1    1    2    0    0 -0.34628728292E+02  0.14777711745E+02 -0.15350434895E+02  0.40659137214E+02  0.00000000000E+00 0. -1.
         11    1    3    3    0    0  0.52410041654E-01  0.52347872567E+01 -0.10651880641E+01  0.53423188138E+01  0.51100000000E-03 0. -1.
        -11    1    3    3    0    0  0.26762467117E+02 -0.91897757968E+01  0.14185079063E+02  0.31652773870E+02  0.51100000000E-03 0.  1.
         12    1    3    3    0    0  0.78138511338E+01 -0.10822723205E+02  0.22305438959E+01  0.13533770102E+02  0.00000000000E+00 0. -1.
</event>
<event>
 7    1  0.5849044E-013  0.5052886E+02  0.7816164E-02  0.1300439E+00
        -11   -1    0    0    0    0  0.00000000000E+00  0.00000000000E+00  0.45593999997E+02  0.45594000000E+02  0.51100000000E-03 0.  1.
         11   -1    0    0    0    0 -0.00000000000E+00 -0.00000000000E+00 -0.45593999997E+02  0.45594000000E+02  0.51100000000E-03 0. -1.
    9900012    2    1    2    0    0 -0.17026495091E+01 -0.40131616251E+02  0.63023704182E+01  0.50528861899E+02  0.30000006228E+02 0.  0.
         12    1    1    2    0    0  0.17026495091E+01  0.40131616251E+02 -0.63023704182E+01  0.40659138101E+02  0.00000000000E+00 0. -1.
         11    1    3    3    0    0  0.51187032308E+01 -0.64078911254E+00  0.36546964597E+01  0.63220676939E+01  0.51100000000E-03 0. -1.
        -11    1    3    3    0    0 -0.17857497241E+01 -0.34256452327E+02 -0.37763353981E+01  0.34510203381E+02  0.51100000000E-03 0.  1.
        -12    1    3    3    0    0 -0.50356030157E+01 -0.52343748113E+01  0.64240093565E+01  0.96965908241E+01  0.00000000000E+00 0.  1.
</event>
<event>
 7    1  0.5849044E-013  0.5052873E+02  0.7816164E-02  0.1300439E+00
        -11   -1    0    0    0    0  0.00000000000E+00  0.00000000000E+00  0.45593999997E+02  0.45594000000E+02  0.51100000000E-03 0.  1.
         11   -1    0    0    0    0 -0.00000000000E+00 -0.00000000000E+00 -0.45593999997E+02  0.45594000000E+02  0.51100000000E-03 0. -1.
    9900012    2    1    2    0    0  0.19929681570E+02  0.34668542798E+02  0.73536625153E+01  0.50528727753E+02  0.29999598477E+02 0.  0.
         12    1    1    2    0    0 -0.19929681570E+02 -0.34668542798E+02 -0.73536625153E+01  0.40659272247E+02  0.00000000000E+00 0. -1.
         11    1    3    3    0    0  0.92886667773E+01  0.20798489786E+01  0.89400755034E+01  0.13058715578E+02  0.51100000000E-03 0. -1.
        -11    1    3    3    0    0  0.14823084101E+01  0.19847805554E+02 -0.66458889375E+01  0.20983337760E+02  0.51100000000E-03 0.  1.
        -12    1    3    3    0    0  0.91587063823E+01  0.12740888266E+02  0.50594759494E+01  0.16486674415E+02  0.00000000000E+00 0.  1.
</event>
<event>
 7    1  0.5849044E-013  0.5052887E+02  0.7816164E-02  0.1300439E+00
        -11   -1    0    0    0    0  0.00000000000E+00  0.00000000000E+00  0.45593999997E+02  0.45594000000E+02  0.51100000000E-03 0.  1.
         11   -1    0    0    0    0 -0.00000000000E+00 -0.00000000000E+00 -0.45593999997E+02  0.45594000000E+02  0.51100000000E-03 0. -1.
    9900012    2    1    2    0    0 -0.44816335912E+01  0.34853219842E+02  0.20453194914E+02  0.50528866275E+02  0.30000019531E+02 0.  0.
         12    1    1    2    0    0  0.44816335912E+01 -0.34853219842E+02 -0.20453194914E+02  0.40659133725E+02  0.00000000000E+00 0. -1.
         11    1    3    3    0    0 -0.14111755805E+02  0.18210954717E+02  0.15266783674E+02  0.27637930596E+02  0.51100000000E-03 0. -1.
        -11    1    3    3    0    0  0.62834383061E+01  0.76448360464E+01  0.81761524664E+01  0.12836455295E+02  0.51100000000E-03 0.  1.
         12    1    3    3    0    0  0.33466839073E+01  0.89974290792E+01 -0.29897412264E+01  0.10054480385E+02  0.00000000000E+00 0. -1.
</event>
<event>
 7    1  0.5849044E-013  0.5052889E+02  0.7816164E-02  0.1300439E+00
        -11   -1    0    0    0    0  0.00000000000E+00  0.00000000000E+00  0.45593999997E+02  0.45594000000E+02  0.51100000000E-03 0. -1.
         11   -1    0    0    0    0 -0.00000000000E+00 -0.00000000000E+00 -0.45593999997E+02  0.45594000000E+02  0.51100000000E-03 0.  1.
    9900012    2    1    2    0    0 -0.77754593270E+01  0.27199077282E+02 -0.29204725346E+02  0.50528885951E+02  0.30000079336E+02 0.  0.
         12    1    1    2    0    0  0.77754593270E+01 -0.27199077282E+02  0.29204725346E+02  0.40659114049E+02  0.00000000000E+00 0. -1.
         11    1    3    3    0    0 -0.13449814118E+02  0.21141804808E+02 -0.12317664181E+02  0.27921286888E+02  0.51100000000E-03 0. -1.
        -11    1    3    3    0    0  0.32059327096E+01 -0.31829204046E+01 -0.95113567509E+01  0.10529714827E+02  0.51100000000E-03 0.  1.
        -12    1    3    3    0    0  0.24684220811E+01  0.92401928790E+01 -0.73757044132E+01  0.12077884235E+02  0.00000000000E+00 0.  1.
</event>
<event>
 7    1  0.5849044E-013  0.5052885E+02  0.7816164E-02  0.1300439E+00
        -11   -1    0    0    0    0  0.00000000000E+00  0.00000000000E+00  0.45593999997E+02  0.45594000000E+02  0.51100000000E-03 0.  1.
         11   -1    0    0    0    0 -0.00000000000E+00 -0.00000000000E+00 -0.45593999997E+02  0.45594000000E+02  0.51100000000E-03 0. -1.
    9900012    2    1    2    0    0 -0.19693594448E+02 -0.21297406078E+02  0.28491212724E+02  0.50528851332E+02  0.29999974110E+02 0.  0.
         12    1    1    2    0    0  0.19693594448E+02  0.21297406078E+02 -0.28491212724E+02  0.40659148668E+02  0.00000000000E+00 0. -1.
         11    1    3    3    0    0  0.47737156178E+01 -0.65272398337E+00 -0.27100626288E+01  0.55280058892E+01  0.51100000000E-03 0. -1.
        -11    1    3    3    0    0 -0.78856654534E+01 -0.57025794533E+01  0.12760104333E+02  0.16047535478E+02  0.51100000000E-03 0.  1.
         12    1    3    3    0    0 -0.16581644612E+02 -0.14942102641E+02  0.18441171020E+02  0.28953309965E+02  0.00000000000E+00 0. -1.
</event>
<event>
 7    1  0.5849044E-013  0.5052886E+02  0.7816164E-02  0.1300439E+00
        -11   -1    0    0    0    0  0.00000000000E+00  0.00000000000E+00  0.45593999997E+02  0.45594000000E+02  0.51100000000E-03 0.  1.
         11   -1    0    0    0    0 -0.00000000000E+00 -0.00000000000E+00 -0.45593999997E+02  0.45594000000E+02  0.51100000000E-03 0. -1.
    9900012    2    1    2    0    0  0.19585975990E+02 -0.21602910426E+02  0.28334945167E+02  0.50528864348E+02  0.30000013671E+02 0.  0.
         12    1    1    2    0    0 -0.19585975990E+02  0.21602910426E+02 -0.28334945167E+02  0.40659135652E+02  0.00000000000E+00 0. -1.
         11    1    3    3    0    0  0.10408698881E+02 -0.37575036650E+01  0.27721730126E+01  0.11408101930E+02  0.51100000000E-03 0. -1.
        -11    1    3    3    0    0  0.10948810055E+02 -0.17388988210E+02  0.28813714952E+02  0.35390443939E+02  0.51100000000E-03 0.  1.
        -12    1    3    3    0    0 -0.17715329460E+01 -0.45641855135E+00 -0.32509427977E+01  0.37303184780E+01  0.00000000000E+00 0.  1.
</event>
<event>
 7    1  0.5849044E-013  0.5052885E+02  0.7816164E-02  0.1300439E+00
        -11   -1    0    0    0    0  0.00000000000E+00  0.00000000000E+00  0.45593999997E+02  0.45594000000E+02  0.51100000000E-03 0. -1.
         11   -1    0    0    0    0 -0.00000000000E+00 -0.00000000000E+00 -0.45593999997E+02  0.45594000000E+02  0.51100000000E-03 0.  1.
    9900012    2    1    2    0    0 -0.36980106233E+02  0.85508582895E+01 -0.14578099698E+02  0.50528850657E+02  0.29999972058E+02 0.  0.
         12    1    1    2    0    0  0.36980106233E+02 -0.85508582895E+01  0.14578099698E+02  0.40659149343E+02  0.00000000000E+00 0. -1.
         11    1    3    3    0    0 -0.14288242001E+02 -0.96222211911E+01 -0.10512461889E+02  0.20180506816E+02  0.51100000000E-03 0. -1.
        -11    1    3    3    0    0 -0.16008731262E+02  0.11608178581E+02 -0.62315022814E+01  0.20733087265E+02  0.51100000000E-03 0.  1.
         12    1    3    3    0    0 -0.66831329702E+01  0.65649008994E+01  0.21658644728E+01  0.96152565765E+01  0.00000000000E+00 0. -1.
</event>
<event>
 7    1  0.5849044E-013  0.5052886E+02  0.7816164E-02  0.1300439E+00
        -11   -1    0    0    0    0  0.00000000000E+00  0.00000000000E+00  0.45593999997E+02  0.45594000000E+02  0.51100000000E-03 0.  1.
         11   -1    0    0    0    0 -0.00000000000E+00 -0.00000000000E+00 -0.45593999997E+02  0.45594000000E+02  0.51100000000E-03 0. -1.
    9900012    2    1    2    0    0  0.15231941345E+02 -0.30800411323E+02  0.21736790697E+02  0.50528862717E+02  0.30000008714E+02 0.  0.
         12    1    1    2    0    0 -0.15231941345E+02  0.30800411323E+02 -0.21736790697E+02  0.40659137283E+02  0.00000000000E+00 0. -1.
         11    1    3    3    0    0  0.38122166850E+01  0.36452892456E+01 -0.12513514704E+01  0.54209787401E+01  0.51100000000E-03 0. -1.
        -11    1    3    3    0    0  0.75821181792E+01 -0.34121057526E+02  0.20466360761E+02  0.40504407239E+02  0.51100000000E-03 0.  1.
        -12    1    3    3    0    0  0.38376064813E+01 -0.32464304275E+00  0.25217814067E+01  0.46034767376E+01  0.00000000000E+00 0.  1.
</event>
<event>
 7    1  0.5849044E-013  0.5052888E+02  0.7816164E-02  0.1300439E+00
        -11   -1    0    0    0    0  0.00000000000E+00  0.00000000000E+00  0.45593999997E+02  0.45594000000E+02  0.51100000000E-03 0.  1.
         11   -1    0    0    0    0 -0.00000000000E+00 -0.00000000000E+00 -0.45593999997E+02  0.45594000000E+02  0.51100000000E-03 0. -1.
    9900012    2    1    2    0    0  0.27701349767E+02 -0.23782414728E+02  0.17894024251E+02  0.50528878844E+02  0.30000057735E+02 0.  0.
         12    1    1    2    0    0 -0.27701349767E+02  0.23782414728E+02 -0.17894024251E+02  0.40659121156E+02  0.00000000000E+00 0. -1.
         11    1    3    3    0    0  0.17400008927E+01 -0.10413030962E+02 -0.54741252766E+01  0.11892218663E+02  0.51100000000E-03 0. -1.
        -11    1    3    3    0    0  0.19417299527E+02 -0.10109225000E+02  0.11580136095E+02  0.24765449789E+02  0.51100000000E-03 0.  1.
        -12    1    3    3    0    0  0.65440493477E+01 -0.32601587665E+01  0.11788013433E+02  0.13871210392E+02  0.00000000000E+00 0.  1.
</event>
<event>
 7    1  0.5849044E-013  0.5052887E+02  0.7816164E-02  0.1300439E+00
        -11   -1    0    0    0    0  0.00000000000E+00  0.00000000000E+00  0.45593999997E+02  0.45594000000E+02  0.51100000000E-03 0.  1.
         11   -1    0    0    0    0 -0.00000000000E+00 -0.00000000000E+00 -0.45593999997E+02  0.45594000000E+02  0.51100000000E-03 0. -1.
    9900012    2    1    2    0    0  0.19090502424E+02  0.50875732337E+00  0.35895108005E+02  0.50528869469E+02  0.30000029237E+02 0.  0.
         12    1    1    2    0    0 -0.19090502424E+02 -0.50875732337E+00 -0.35895108005E+02  0.40659130531E+02  0.00000000000E+00 0. -1.
         11    1    3    3    0    0 -0.60870677025E+00  0.76438078118E+01  0.14969347941E+02  0.16819027910E+02  0.51100000000E-03 0. -1.
        -11    1    3    3    0    0  0.96470648365E+01 -0.11126764297E+02  0.16239883174E+02  0.21922694849E+02  0.51100000000E-03 0.  1.
        -12    1    3    3    0    0  0.10052144358E+02  0.39917138084E+01  0.46858768904E+01  0.11787146710E+02  0.00000000000E+00 0.  1.
</event>
<event>
 7    1  0.5849044E-013  0.5052887E+02  0.7816164E-02  0.1300439E+00
        -11   -1    0    0    0    0  0.00000000000E+00  0.00000000000E+00  0.45593999997E+02  0.45594000000E+02  0.51100000000E-03 0. -1.
         11   -1    0    0    0    0 -0.00000000000E+00 -0.00000000000E+00 -0.45593999997E+02  0.45594000000E+02  0.51100000000E-03 0.  1.
    9900012    2    1    2    0    0  0.11951139999E+02  0.26320259085E+01 -0.38773803644E+02  0.50528866258E+02  0.30000019477E+02 0.  0.
         12    1    1    2    0    0 -0.11951139999E+02 -0.26320259085E+01  0.38773803644E+02  0.40659133742E+02  0.00000000000E+00 0. -1.
         11    1    3    3    0    0  0.17191274627E+01 -0.12739505334E+02 -0.16549174553E+02  0.20955323286E+02  0.51100000000E-03 0. -1.
        -11    1    3    3    0    0  0.24200031439E+01  0.80534208945E+01 -0.12779029999E+02  0.15297634173E+02  0.51100000000E-03 0.  1.
         12    1    3    3    0    0  0.78120093927E+01  0.73181103478E+01 -0.94455990928E+01  0.14275908799E+02  0.00000000000E+00 0. -1.
</event>
<event>
 7    1  0.5849044E-013  0.5052886E+02  0.7816164E-02  0.1300439E+00
        -11   -1    0    0    0    0  0.00000000000E+00  0.00000000000E+00  0.45593999997E+02  0.45594000000E+02  0.51100000000E-03 0. -1.
         11   -1    0    0    0    0 -0.00000000000E+00 -0.00000000000E+00 -0.45593999997E+02  0.45594000000E+02  0.51100000000E-03 0.  1.
    9900012    2    1    2    0    0 -0.28703757978E+02  0.10125254316E+02 -0.26958099615E+02  0.50528860413E+02  0.30000001712E+02 0.  0.
         12    1    1    2    0    0  0.28703757978E+02 -0.10125254316E+02  0.26958099615E+02  0.40659139587E+02  0.00000000000E+00 0. -1.
         11    1    3    3    0    0 -0.21475080210E+02  0.18382888920E+01 -0.24741136574E+02  0.32812836136E+02  0.51100000000E-03 0.  1.
        -11    1    3    3    0    0 -0.57841235302E+01 -0.61758224993E+00  0.37309549157E+01  0.69106814202E+01  0.51100000000E-03 0. -1.
         12    1    3    3    0    0 -0.14445542387E+01  0.89045476742E+01 -0.59479179568E+01  0.10805342857E+02  0.00000000000E+00 0. -1.
</event>
<event>
 7    1  0.5849044E-013  0.5052886E+02  0.7816164E-02  0.1300439E+00
        -11   -1    0    0    0    0  0.00000000000E+00  0.00000000000E+00  0.45593999997E+02  0.45594000000E+02  0.51100000000E-03 0. -1.
         11   -1    0    0    0    0 -0.00000000000E+00 -0.00000000000E+00 -0.45593999997E+02  0.45594000000E+02  0.51100000000E-03 0.  1.
    9900012    2    1    2    0    0 -0.91834168790E+01 -0.34769053035E+02  0.18972170416E+02  0.50528862714E+02  0.30000008707E+02 0.  0.
         12    1    1    2    0    0  0.91834168790E+01  0.34769053035E+02 -0.18972170416E+02  0.40659137286E+02  0.00000000000E+00 0. -1.
         11    1    3    3    0    0 -0.15807072215E+02 -0.24584364016E+02  0.21812968056E+02  0.36469988507E+02  0.51100000000E-03 0.  1.
        -11    1    3    3    0    0  0.16893085813E+01 -0.78797586477E+01 -0.30295916826E+01  0.86094590918E+01  0.51100000000E-03 0. -1.
         12    1    3    3    0    0  0.49343467543E+01 -0.23049303714E+01  0.18879404247E+00  0.54494151153E+01  0.00000000000E+00 0. -1.
</event>
<event>
 7    1  0.5849044E-013  0.5052886E+02  0.7816164E-02  0.1300439E+00
        -11   -1    0    0    0    0  0.00000000000E+00  0.00000000000E+00  0.45593999997E+02  0.45594000000E+02  0.51100000000E-03 0.  1.
         11   -1    0    0    0    0 -0.00000000000E+00 -0.00000000000E+00 -0.45593999997E+02  0.45594000000E+02  0.51100000000E-03 0. -1.
    9900012    2    1    2    0    0  0.93793857706E+01  0.36351487568E+02  0.15612871179E+02  0.50528864836E+02  0.30000015155E+02 0.  0.
         12    1    1    2    0    0 -0.93793857706E+01 -0.36351487568E+02 -0.15612871179E+02  0.40659135164E+02  0.00000000000E+00 0. -1.
         11    1    3    3    0    0  0.97072947345E+01 -0.14827770481E+01  0.31401023963E+01  0.10309725610E+02  0.51100000000E-03 0. -1.
        -11    1    3    3    0    0  0.15452537920E+01  0.20554764221E+02  0.90143964575E+01  0.22497677330E+02  0.51100000000E-03 0.  1.
         12    1    3    3    0    0 -0.18731627559E+01  0.17279500394E+02  0.34583723256E+01  0.17721461896E+02  0.00000000000E+00 0. -1.
</event>
<event>
 7    1  0.5849044E-013  0.5052888E+02  0.7816164E-02  0.1300439E+00
        -11   -1    0    0    0    0  0.00000000000E+00  0.00000000000E+00  0.45593999997E+02  0.45594000000E+02  0.51100000000E-03 0. -1.
         11   -1    0    0    0    0 -0.00000000000E+00 -0.00000000000E+00 -0.45593999997E+02  0.45594000000E+02  0.51100000000E-03 0.  1.
    9900012    2    1    2    0    0 -0.22206525734E+02  0.32747246142E+02 -0.93622871823E+01  0.50528876346E+02  0.30000050140E+02 0.  0.
         12    1    1    2    0    0  0.22206525734E+02 -0.32747246142E+02  0.93622871823E+01  0.40659123654E+02  0.00000000000E+00 0. -1.
         11    1    3    3    0    0 -0.39563531124E+01  0.52387008386E+01  0.71237221027E+01  0.96873181677E+01  0.51100000000E-03 0. -1.
        -11    1    3    3    0    0 -0.16053706199E+02  0.29291493396E+02 -0.17654316936E+02  0.37780788436E+02  0.51100000000E-03 0.  1.
        -12    1    3    3    0    0 -0.21964664225E+01 -0.17829480924E+01  0.11683076514E+01  0.30607697420E+01  0.00000000000E+00 0.  1.
</event>
<event>
 7    1  0.5849044E-013  0.5052885E+02  0.7816164E-02  0.1300439E+00
        -11   -1    0    0    0    0  0.00000000000E+00  0.00000000000E+00  0.45593999997E+02  0.45594000000E+02  0.51100000000E-03 0.  1.
         11   -1    0    0    0    0 -0.00000000000E+00 -0.00000000000E+00 -0.45593999997E+02  0.45594000000E+02  0.51100000000E-03 0. -1.
    9900012    2    1    2    0    0 -0.19199317232E+02  0.35832832784E+02 -0.74870537962E+00  0.50528852846E+02  0.29999978712E+02 0.  0.
         12    1    1    2    0    0  0.19199317232E+02 -0.35832832784E+02  0.74870537962E+00  0.40659147154E+02  0.00000000000E+00 0. -1.
         11    1    3    3    0    0 -0.19421236657E+02  0.21600362892E+02  0.10549640239E+02  0.30903964467E+02  0.51100000000E-03 0.  1.
        -11    1    3    3    0    0  0.24821472755E+01  0.10160409334E+02 -0.45044371240E+01  0.11387929004E+02  0.51100000000E-03 0. -1.
         12    1    3    3    0    0 -0.22602278504E+01  0.40720605587E+01 -0.67939084944E+01  0.82369593758E+01  0.00000000000E+00 0. -1.
</event>
<event>
 7    1  0.5849044E-013  0.5052886E+02  0.7816164E-02  0.1300439E+00
        -11   -1    0    0    0    0  0.00000000000E+00  0.00000000000E+00  0.45593999997E+02  0.45594000000E+02  0.51100000000E-03 0.  1.
         11   -1    0    0    0    0 -0.00000000000E+00 -0.00000000000E+00 -0.45593999997E+02  0.45594000000E+02  0.51100000000E-03 0. -1.
    9900012    2    1    2    0    0 -0.39624578016E+02  0.70408032066E+01 -0.57866501803E+01  0.50528863105E+02  0.30000009895E+02 0.  0.
         12    1    1    2    0    0  0.39624578016E+02 -0.70408032066E+01  0.57866501803E+01  0.40659136895E+02  0.00000000000E+00 0. -1.
         11    1    3    3    0    0  0.90047574425E+00  0.45741894018E+00 -0.50315060932E+01  0.51318751426E+01  0.51100000000E-03 0. -1.
        -11    1    3    3    0    0 -0.24749602523E+02 -0.39347131049E+01  0.50574694177E+01  0.25565656444E+02  0.51100000000E-03 0.  1.
        -12    1    3    3    0    0 -0.15775451237E+02  0.10518097371E+02 -0.58126135049E+01  0.19831331519E+02  0.00000000000E+00 0.  1.
</event>
<event>
 7    1  0.5849044E-013  0.5052888E+02  0.7816164E-02  0.1300439E+00
        -11   -1    0    0    0    0  0.00000000000E+00  0.00000000000E+00  0.45593999997E+02  0.45594000000E+02  0.51100000000E-03 0.  1.
         11   -1    0    0    0    0 -0.00000000000E+00 -0.00000000000E+00 -0.45593999997E+02  0.45594000000E+02  0.51100000000E-03 0. -1.
    9900012    2    1    2    0    0  0.11211276041E+01  0.18738265349E+01  0.40600442215E+02  0.50528879731E+02  0.30000060430E+02 0.  0.
         12    1    1    2    0    0 -0.11211276041E+01 -0.18738265349E+01 -0.40600442215E+02  0.40659120269E+02  0.00000000000E+00 0. -1.
         11    1    3    3    0    0 -0.73835598116E+01  0.12084309437E+01  0.60339971569E+01  0.96117835384E+01  0.51100000000E-03 0.  1.
        -11    1    3    3    0    0  0.96726369182E+01  0.78194286640E+01  0.29664337829E+02  0.32166384762E+02  0.51100000000E-03 0. -1.
        -12    1    3    3    0    0 -0.11679495025E+01 -0.71540330729E+01  0.49021072294E+01  0.87507114303E+01  0.00000000000E+00 0.  1.
</event>
<event>
 7    1  0.5849044E-013  0.5052886E+02  0.7816164E-02  0.1300439E+00
        -11   -1    0    0    0    0  0.00000000000E+00  0.00000000000E+00  0.45593999997E+02  0.45594000000E+02  0.51100000000E-03 0.  1.
         11   -1    0    0    0    0 -0.00000000000E+00 -0.00000000000E+00 -0.45593999997E+02  0.45594000000E+02  0.51100000000E-03 0. -1.
    9900012    2    1    2    0    0  0.16959851606E+02 -0.17653843026E+02  0.32463382889E+02  0.50528856272E+02  0.29999989123E+02 0.  0.
         12    1    1    2    0    0 -0.16959851606E+02  0.17653843026E+02 -0.32463382889E+02  0.40659143728E+02  0.00000000000E+00 0. -1.
         11    1    3    3    0    0  0.71680608985E+01  0.23052421650E+01  0.25334765393E+02  0.26430012793E+02  0.51100000000E-03 0.  1.
        -11    1    3    3    0    0  0.48744993992E+01 -0.91024867162E+01  0.23015506419E+00  0.10328067604E+02  0.51100000000E-03 0. -1.
        -12    1    3    3    0    0  0.49172913084E+01 -0.10856598475E+02  0.68984624322E+01  0.13770775875E+02  0.00000000000E+00 0.  1.
</event>
<event>
 7    1  0.5849044E-013  0.5052885E+02  0.7816164E-02  0.1300439E+00
        -11   -1    0    0    0    0  0.00000000000E+00  0.00000000000E+00  0.45593999997E+02  0.45594000000E+02  0.51100000000E-03 0. -1.
         11   -1    0    0    0    0 -0.00000000000E+00 -0.00000000000E+00 -0.45593999997E+02  0.45594000000E+02  0.51100000000E-03 0.  1.
    9900012    2    1    2    0    0 -0.19079746079E+02 -0.18590515603E+02 -0.30716809584E+02  0.50528851314E+02  0.29999974055E+02 0.  0.
         12    1    1    2    0    0  0.19079746079E+02  0.18590515603E+02  0.30716809584E+02  0.40659148686E+02  0.00000000000E+00 0. -1.
         11    1    3    3    0    0 -0.25117676863E+02 -0.15383475155E+02 -0.26386655699E+02  0.39544969315E+02  0.51100000000E-03 0.  1.
        -11    1    3    3    0    0  0.50416962817E+01 -0.54792377263E+01 -0.40797029319E+01  0.84902723002E+01  0.51100000000E-03 0. -1.
        -12    1    3    3    0    0  0.99623450241E+00  0.22721972778E+01 -0.25045095283E+00  0.24936096993E+01  0.00000000000E+00 0.  1.
</event>
<event>
 7    1  0.5849044E-013  0.5052886E+02  0.7816164E-02  0.1300439E+00
        -11   -1    0    0    0    0  0.00000000000E+00  0.00000000000E+00  0.45593999997E+02  0.45594000000E+02  0.51100000000E-03 0. -1.
         11   -1    0    0    0    0 -0.00000000000E+00 -0.00000000000E+00 -0.45593999997E+02  0.45594000000E+02  0.51100000000E-03 0.  1.
    9900012    2    1    2    0    0 -0.12489972399E+02  0.37780469577E+02 -0.83547870324E+01  0.50528858859E+02  0.29999996986E+02 0.  0.
         12    1    1    2    0    0  0.12489972399E+02 -0.37780469577E+02  0.83547870324E+01  0.40659141141E+02  0.00000000000E+00 0. -1.
         11    1    3    3    0    0 -0.10581112303E+01 -0.19064454294E+01  0.37779677610E+01  0.43620149261E+01  0.51100000000E-03 0. -1.
        -11    1    3    3    0    0 -0.15454935617E+02  0.34828309527E+02 -0.91367775781E+01  0.39183502704E+02  0.51100000000E-03 0.  1.
        -12    1    3    3    0    0  0.40230744489E+01  0.48586054801E+01 -0.29959772154E+01  0.69833412280E+01  0.00000000000E+00 0.  1.
</event>
<event>
 7    1  0.5849044E-013  0.5052885E+02  0.7816164E-02  0.1300439E+00
        -11   -1    0    0    0    0  0.00000000000E+00  0.00000000000E+00  0.45593999997E+02  0.45594000000E+02  0.51100000000E-03 0.  1.
         11   -1    0    0    0    0 -0.00000000000E+00 -0.00000000000E+00 -0.45593999997E+02  0.45594000000E+02  0.51100000000E-03 0. -1.
    9900012    2    1    2    0    0  0.58053923843E+01  0.32599869884E+02  0.23594754833E+02  0.50528849088E+02  0.29999967289E+02 0.  0.
         12    1    1    2    0    0 -0.58053923843E+01 -0.32599869884E+02 -0.23594754833E+02  0.40659150912E+02  0.00000000000E+00 0. -1.
         11    1    3    3    0    0  0.67392156054E+01  0.18186775176E+01 -0.39699792187E+01  0.80302770903E+01  0.51100000000E-03 0. -1.
        -11    1    3    3    0    0  0.44808676381E+01  0.14239424462E+02  0.12114106916E+02  0.19224748904E+02  0.51100000000E-03 0.  1.
         12    1    3    3    0    0 -0.54146908592E+01  0.16541767905E+02  0.15450627136E+02  0.23273823094E+02  0.00000000000E+00 0. -1.
</event>
<event>
 7    1  0.5849044E-013  0.5052884E+02  0.7816164E-02  0.1300439E+00
        -11   -1    0    0    0    0  0.00000000000E+00  0.00000000000E+00  0.45593999997E+02  0.45594000000E+02  0.51100000000E-03 0.  1.
         11   -1    0    0    0    0 -0.00000000000E+00 -0.00000000000E+00 -0.45593999997E+02  0.45594000000E+02  0.51100000000E-03 0. -1.
    9900012    2    1    2    0    0 -0.24613201516E+02  0.31994099757E+02 -0.48718949609E+01  0.50528837827E+02  0.29999933057E+02 0.  0.
         12    1    1    2    0    0  0.24613201516E+02 -0.31994099757E+02  0.48718949609E+01  0.40659162173E+02  0.00000000000E+00 0. -1.
         11    1    3    3    0    0  0.24358750073E+01  0.95297849805E+01 -0.45595340257E+01  0.10841569979E+02  0.51100000000E-03 0. -1.
        -11    1    3    3    0    0 -0.14836208179E+02  0.40814702284E+01  0.63313189761E+01  0.16639022586E+02  0.51100000000E-03 0.  1.
         12    1    3    3    0    0 -0.12212868344E+02  0.18382844548E+02 -0.66436799113E+01  0.23048245262E+02  0.00000000000E+00 0. -1.
</event>
<event>
 7    1  0.5849044E-013  0.5052897E+02  0.7816164E-02  0.1300438E+00
        -11   -1    0    0    0    0  0.00000000000E+00  0.00000000000E+00  0.45593999997E+02  0.45594000000E+02  0.51100000000E-03 0.  1.
         11   -1    0    0    0    0 -0.00000000000E+00 -0.00000000000E+00 -0.45593999997E+02  0.45594000000E+02  0.51100000000E-03 0. -1.
    9900012    2    1    2    0    0  0.28033987926E+02 -0.27554847166E+02  0.10391455853E+02  0.50528973498E+02  0.30000345441E+02 0.  0.
         12    1    1    2    0    0 -0.28033987926E+02  0.27554847166E+02 -0.10391455853E+02  0.40659026502E+02  0.00000000000E+00 0. -1.
         11    1    3    3    0    0  0.47901616864E+01  0.56161428774E+01 -0.20370372816E+01  0.76574297875E+01  0.51100000000E-03 0. -1.
        -11    1    3    3    0    0  0.11941571848E+02 -0.17783955567E+02  0.31748996589E+01  0.21655258066E+02  0.51100000000E-03 0.  1.
         12    1    3    3    0    0  0.11302254392E+02 -0.15387034476E+02  0.92535934757E+01  0.21216285644E+02  0.00000000000E+00 0. -1.
</event>
<event>
 7    1  0.5849044E-013  0.5052885E+02  0.7816164E-02  0.1300439E+00
        -11   -1    0    0    0    0  0.00000000000E+00  0.00000000000E+00  0.45593999997E+02  0.45594000000E+02  0.51100000000E-03 0.  1.
         11   -1    0    0    0    0 -0.00000000000E+00 -0.00000000000E+00 -0.45593999997E+02  0.45594000000E+02  0.51100000000E-03 0. -1.
    9900012    2    1    2    0    0  0.45837639261E+01 -0.13084416302E+02  0.38222418295E+02  0.50528854632E+02  0.29999984141E+02 0.  0.
         12    1    1    2    0    0 -0.45837639261E+01  0.13084416302E+02 -0.38222418295E+02  0.40659145368E+02  0.00000000000E+00 0. -1.
         11    1    3    3    0    0 -0.92930696933E+01 -0.10885794684E+02  0.15525859148E+02  0.21116675230E+02  0.51100000000E-03 0. -1.
        -11    1    3    3    0    0  0.69576753293E+01 -0.73177011389E+01  0.12019157383E+02  0.15697711311E+02  0.51100000000E-03 0.  1.
         12    1    3    3    0    0  0.69191582901E+01  0.51190795214E+01  0.10677401764E+02  0.13714468091E+02  0.00000000000E+00 0. -1.
</event>
<event>
 7    1  0.5849044E-013  0.5052888E+02  0.7816164E-02  0.1300439E+00
        -11   -1    0    0    0    0  0.00000000000E+00  0.00000000000E+00  0.45593999997E+02  0.45594000000E+02  0.51100000000E-03 0.  1.
         11   -1    0    0    0    0 -0.00000000000E+00 -0.00000000000E+00 -0.45593999997E+02  0.45594000000E+02  0.51100000000E-03 0. -1.
    9900012    2    1    2    0    0 -0.36955421789E+02 -0.80506095421E+01  0.14921411641E+02  0.50528880003E+02  0.30000061256E+02 0.  0.
         12    1    1    2    0    0  0.36955421789E+02  0.80506095421E+01 -0.14921411641E+02  0.40659119997E+02  0.00000000000E+00 0. -1.
         11    1    3    3    0    0 -0.57658373605E+01  0.64964315673E+01  0.24287712756E+01  0.90192812212E+01  0.51100000000E-03 0. -1.
        -11    1    3    3    0    0 -0.32084220151E+02 -0.12200500338E+02  0.63966124500E+01  0.34916558283E+02  0.51100000000E-03 0.  1.
         12    1    3    3    0    0  0.89463572306E+00 -0.23465407709E+01  0.60960279157E+01  0.65930404985E+01  0.00000000000E+00 0. -1.
</event>
<event>
 7    1  0.5849044E-013  0.5052883E+02  0.7816164E-02  0.1300439E+00
        -11   -1    0    0    0    0  0.00000000000E+00  0.00000000000E+00  0.45593999997E+02  0.45594000000E+02  0.51100000000E-03 0.  1.
         11   -1    0    0    0    0 -0.00000000000E+00 -0.00000000000E+00 -0.45593999997E+02  0.45594000000E+02  0.51100000000E-03 0. -1.
    9900012    2    1    2    0    0  0.35907832836E+02  0.34920065634E+01  0.18751039210E+02  0.50528830797E+02  0.29999911692E+02 0.  0.
         12    1    1    2    0    0 -0.35907832836E+02 -0.34920065634E+01 -0.18751039210E+02  0.40659169203E+02  0.00000000000E+00 0. -1.
         11    1    3    3    0    0  0.69505086602E+01  0.89280570892E+01 -0.20736325005E+01  0.11503031167E+02  0.51100000000E-03 0. -1.
        -11    1    3    3    0    0  0.19090938240E+02 -0.14187186674E+00  0.20225316166E+02  0.27812721277E+02  0.51100000000E-03 0.  1.
        -12    1    3    3    0    0  0.98663859354E+01 -0.52941786591E+01  0.59935554376E+00  0.11213078354E+02  0.00000000000E+00 0.  1.
</event>
<event>
 7    1  0.5849044E-013  0.5052886E+02  0.7816164E-02  0.1300439E+00
        -11   -1    0    0    0    0  0.00000000000E+00  0.00000000000E+00  0.45593999997E+02  0.45594000000E+02  0.51100000000E-03 0.  1.
         11   -1    0    0    0    0 -0.00000000000E+00 -0.00000000000E+00 -0.45593999997E+02  0.45594000000E+02  0.51100000000E-03 0. -1.
    9900012    2    1    2    0    0 -0.21690455394E+02  0.64738742663E+01  0.33775417282E+02  0.50528859382E+02  0.29999998578E+02 0.  0.
         12    1    1    2    0    0  0.21690455394E+02 -0.64738742663E+01 -0.33775417282E+02  0.40659140618E+02  0.00000000000E+00 0. -1.
         11    1    3    3    0    0 -0.16692794403E+02 -0.10330557543E+02  0.16337638314E+02  0.25539934026E+02  0.51100000000E-03 0. -1.
        -11    1    3    3    0    0 -0.54440880913E+01  0.13647428956E+02  0.14738041557E+02  0.20811061516E+02  0.51100000000E-03 0.  1.
         12    1    3    3    0    0  0.44642710006E+00  0.31570028532E+01  0.26997374112E+01  0.41778638393E+01  0.00000000000E+00 0. -1.
</event>
<event>
 7    1  0.5849044E-013  0.5052887E+02  0.7816164E-02  0.1300439E+00
        -11   -1    0    0    0    0  0.00000000000E+00  0.00000000000E+00  0.45593999997E+02  0.45594000000E+02  0.51100000000E-03 0. -1.
         11   -1    0    0    0    0 -0.00000000000E+00 -0.00000000000E+00 -0.45593999997E+02  0.45594000000E+02  0.51100000000E-03 0.  1.
    9900012    2    1    2    0    0  0.18675282017E+02 -0.15350745728E+02 -0.32691797868E+02  0.50528865717E+02  0.30000017832E+02 0.  0.
         12    1    1    2    0    0 -0.18675282017E+02  0.15350745728E+02  0.32691797868E+02  0.40659134283E+02  0.00000000000E+00 0. -1.
         11    1    3    3    0    0  0.11403044712E+02 -0.16661725821E+02 -0.89408318569E+01  0.22081236618E+02  0.51100000000E-03 0. -1.
        -11    1    3    3    0    0  0.57132978301E+01 -0.47150657150E+01 -0.19633798736E+02  0.20984748506E+02  0.51100000000E-03 0.  1.
         12    1    3    3    0    0  0.15589394756E+01  0.60260458079E+01 -0.41171672750E+01  0.74628805925E+01  0.00000000000E+00 0. -1.
</event>
<event>
 7    1  0.5849044E-013  0.5052885E+02  0.7816164E-02  0.1300439E+00
        -11   -1    0    0    0    0  0.00000000000E+00  0.00000000000E+00  0.45593999997E+02  0.45594000000E+02  0.51100000000E-03 0.  1.
         11   -1    0    0    0    0 -0.00000000000E+00 -0.00000000000E+00 -0.45593999997E+02  0.45594000000E+02  0.51100000000E-03 0. -1.
    9900012    2    1    2    0    0  0.23102798332E+02 -0.22093868326E+02  0.25125445442E+02  0.50528851988E+02  0.29999976103E+02 0.  0.
         12    1    1    2    0    0 -0.23102798332E+02  0.22093868326E+02 -0.25125445442E+02  0.40659148012E+02  0.00000000000E+00 0. -1.
         11    1    3    3    0    0 -0.17685161412E+01 -0.11869778038E+02  0.22575622060E+01  0.12211300806E+02  0.51100000000E-03 0. -1.
        -11    1    3    3    0    0  0.11420426437E+02 -0.66893959032E-01  0.16980463686E+02  0.20463791488E+02  0.51100000000E-03 0.  1.
        -12    1    3    3    0    0  0.13450888036E+02 -0.10157196330E+02  0.58874195498E+01  0.17853759694E+02  0.00000000000E+00 0.  1.
</event>
<event>
 7    1  0.5849044E-013  0.5052885E+02  0.7816164E-02  0.1300439E+00
        -11   -1    0    0    0    0  0.00000000000E+00  0.00000000000E+00  0.45593999997E+02  0.45594000000E+02  0.51100000000E-03 0.  1.
         11   -1    0    0    0    0 -0.00000000000E+00 -0.00000000000E+00 -0.45593999997E+02  0.45594000000E+02  0.51100000000E-03 0. -1.
    9900012    2    1    2    0    0  0.80942843603E+01 -0.44048900717E+01  0.39601086333E+02  0.50528849312E+02  0.29999967970E+02 0.  0.
         12    1    1    2    0    0 -0.80942843603E+01  0.44048900717E+01 -0.39601086333E+02  0.40659150688E+02  0.00000000000E+00 0. -1.
         11    1    3    3    0    0 -0.27530723164E+01 -0.11841251611E+02  0.25191629762E+02  0.27971643806E+02  0.51100000000E-03 0. -1.
        -11    1    3    3    0    0 -0.80358724597E+00  0.12045980346E+00  0.67747466060E+01  0.68233023429E+01  0.51100000000E-03 0.  1.
         12    1    3    3    0    0  0.11650943923E+02  0.73159017357E+01  0.76347099650E+01  0.15733903163E+02  0.00000000000E+00 0. -1.
</event>
<event>
 7    1  0.5849044E-013  0.5052887E+02  0.7816164E-02  0.1300439E+00
        -11   -1    0    0    0    0  0.00000000000E+00  0.00000000000E+00  0.45593999997E+02  0.45594000000E+02  0.51100000000E-03 0.  1.
         11   -1    0    0    0    0 -0.00000000000E+00 -0.00000000000E+00 -0.45593999997E+02  0.45594000000E+02  0.51100000000E-03 0. -1.
    9900012    2    1    2    0    0 -0.90271121170E+01  0.93900600781E+01  0.38516271041E+02  0.50528866754E+02  0.30000020985E+02 0.  0.
         12    1    1    2    0    0  0.90271121170E+01 -0.93900600781E+01 -0.38516271041E+02  0.40659133246E+02  0.00000000000E+00 0. -1.
         11    1    3    3    0    0  0.79957353440E+01 -0.57006046406E+01  0.10234263445E+02  0.14183399645E+02  0.51100000000E-03 0. -1.
        -11    1    3    3    0    0 -0.78241538147E+01  0.81238411471E+01  0.13442794041E+02  0.17547731756E+02  0.51100000000E-03 0.  1.
         12    1    3    3    0    0 -0.91986936463E+01  0.69668235716E+01  0.14839213555E+02  0.18797735353E+02  0.00000000000E+00 0. -1.
</event>
<event>
 7    1  0.5849044E-013  0.5052886E+02  0.7816164E-02  0.1300439E+00
        -11   -1    0    0    0    0  0.00000000000E+00  0.00000000000E+00  0.45593999997E+02  0.45594000000E+02  0.51100000000E-03 0.  1.
         11   -1    0    0    0    0 -0.00000000000E+00 -0.00000000000E+00 -0.45593999997E+02  0.45594000000E+02  0.51100000000E-03 0. -1.
    9900012    2    1    2    0    0  0.12918169577E+01 -0.14246766034E+02  0.38059510804E+02  0.50528862084E+02  0.30000006789E+02 0.  0.
         12    1    1    2    0    0 -0.12918169577E+01  0.14246766034E+02 -0.38059510804E+02  0.40659137916E+02  0.00000000000E+00 0. -1.
         11    1    3    3    0    0  0.11391807280E+02 -0.10252391536E+02  0.86507129293E+01  0.17598853365E+02  0.51100000000E-03 0. -1.
        -11    1    3    3    0    0 -0.10489743793E+02 -0.33931525157E+01  0.15599649055E+02  0.19102284150E+02  0.51100000000E-03 0.  1.
         12    1    3    3    0    0  0.38975347020E+00 -0.60122198227E+00  0.13809148819E+02  0.13827724569E+02  0.00000000000E+00 0. -1.
</event>
<event>
 7    1  0.5849044E-013  0.5052895E+02  0.7816164E-02  0.1300438E+00
        -11   -1    0    0    0    0  0.00000000000E+00  0.00000000000E+00  0.45593999997E+02  0.45594000000E+02  0.51100000000E-03 0.  1.
         11   -1    0    0    0    0 -0.00000000000E+00 -0.00000000000E+00 -0.45593999997E+02  0.45594000000E+02  0.51100000000E-03 0. -1.
    9900012    2    1    2    0    0 -0.32278344973E+01 -0.40427911286E+02 -0.28850055899E+01  0.50528952006E+02  0.30000280117E+02 0.  0.
         12    1    1    2    0    0  0.32278344973E+01  0.40427911286E+02  0.28850055899E+01  0.40659047994E+02  0.00000000000E+00 0. -1.
         11    1    3    3    0    0  0.10855106482E+02 -0.31012421835E+02 -0.32527298890E+01  0.33017932958E+02  0.51100000000E-03 0. -1.
        -11    1    3    3    0    0 -0.51302384208E+01 -0.57092188216E+01 -0.94273249383E+00  0.77332574393E+01  0.51100000000E-03 0.  1.
         12    1    3    3    0    0 -0.89527025587E+01 -0.37062706293E+01  0.13104567929E+01  0.97777616093E+01  0.00000000000E+00 0. -1.
</event>
<event>
 7    1  0.5849044E-013  0.5052886E+02  0.7816164E-02  0.1300439E+00
        -11   -1    0    0    0    0  0.00000000000E+00  0.00000000000E+00  0.45593999997E+02  0.45594000000E+02  0.51100000000E-03 0. -1.
         11   -1    0    0    0    0 -0.00000000000E+00 -0.00000000000E+00 -0.45593999997E+02  0.45594000000E+02  0.51100000000E-03 0.  1.
    9900012    2    1    2    0    0 -0.30636446207E+02  0.17276829570E+02  0.20398158893E+02  0.50528861269E+02  0.30000004312E+02 0.  0.
         12    1    1    2    0    0  0.30636446207E+02 -0.17276829570E+02 -0.20398158893E+02  0.40659138731E+02  0.00000000000E+00 0. -1.
         11    1    3    3    0    0  0.48617937362E+00  0.21503924316E+01  0.42161460055E+01  0.47577773586E+01  0.51100000000E-03 0. -1.
        -11    1    3    3    0    0 -0.30028981739E+02  0.18758677130E+02  0.73535296552E+01  0.36162164076E+02  0.51100000000E-03 0.  1.
        -12    1    3    3    0    0 -0.10936438410E+01 -0.36322399916E+01  0.88284832318E+01  0.96089198343E+01  0.00000000000E+00 0.  1.
</event>
<event>
 7    1  0.5849044E-013  0.5052886E+02  0.7816164E-02  0.1300439E+00
        -11   -1    0    0    0    0  0.00000000000E+00  0.00000000000E+00  0.45593999997E+02  0.45594000000E+02  0.51100000000E-03 0. -1.
         11   -1    0    0    0    0 -0.00000000000E+00 -0.00000000000E+00 -0.45593999997E+02  0.45594000000E+02  0.51100000000E-03 0.  1.
    9900012    2    1    2    0    0 -0.37785959822E+02 -0.14554746148E+02  0.36805648264E+01  0.50528856471E+02  0.29999989729E+02 0.  0.
         12    1    1    2    0    0  0.37785959822E+02  0.14554746148E+02 -0.36805648264E+01  0.40659143529E+02  0.00000000000E+00 0. -1.
         11    1    3    3    0    0 -0.23970567732E+02 -0.50601051143E+01  0.13947939052E+02  0.28191094076E+02  0.51100000000E-03 0. -1.
        -11    1    3    3    0    0 -0.10653952242E+02 -0.92403927703E+00 -0.58763337439E+01  0.12202124630E+02  0.51100000000E-03 0.  1.
         12    1    3    3    0    0 -0.31614398477E+01 -0.85706017562E+01 -0.43910404821E+01  0.10135637764E+02  0.00000000000E+00 0. -1.
</event>
<event>
 7    1  0.5849044E-013  0.5052887E+02  0.7816164E-02  0.1300439E+00
        -11   -1    0    0    0    0  0.00000000000E+00  0.00000000000E+00  0.45593999997E+02  0.45594000000E+02  0.51100000000E-03 0. -1.
         11   -1    0    0    0    0 -0.00000000000E+00 -0.00000000000E+00 -0.45593999997E+02  0.45594000000E+02  0.51100000000E-03 0.  1.
    9900012    2    1    2    0    0 -0.18278974893E+02  0.13206589966E+02 -0.33832384901E+02  0.50528865605E+02  0.30000017493E+02 0.  0.
         12    1    1    2    0    0  0.18278974893E+02 -0.13206589966E+02  0.33832384901E+02  0.40659134395E+02  0.00000000000E+00 0. -1.
         11    1    3    3    0    0 -0.15808048955E+02  0.19265915184E+02 -0.28130416862E+02  0.37581780862E+02  0.51100000000E-03 0.  1.
        -11    1    3    3    0    0  0.23213216807E+01 -0.43905968140E+01  0.43312125467E+00  0.49853253666E+01  0.51100000000E-03 0. -1.
        -12    1    3    3    0    0 -0.47922476190E+01 -0.16687284044E+01 -0.61350892934E+01  0.79617593764E+01  0.00000000000E+00 0.  1.
</event>
<event>
 7    1  0.5849044E-013  0.5052885E+02  0.7816164E-02  0.1300439E+00
        -11   -1    0    0    0    0  0.00000000000E+00  0.00000000000E+00  0.45593999997E+02  0.45594000000E+02  0.51100000000E-03 0. -1.
         11   -1    0    0    0    0 -0.00000000000E+00 -0.00000000000E+00 -0.45593999997E+02  0.45594000000E+02  0.51100000000E-03 0.  1.
    9900012    2    1    2    0    0 -0.37689286168E+02  0.13500586840E+02 -0.71005925854E+01  0.50528849099E+02  0.29999967322E+02 0.  0.
         12    1    1    2    0    0  0.37689286168E+02 -0.13500586840E+02  0.71005925854E+01  0.40659150901E+02  0.00000000000E+00 0. -1.
         11    1    3    3    0    0 -0.69955921576E+00 -0.47278774494E+01 -0.59140638926E+01  0.76038385215E+01  0.51100000000E-03 0. -1.
        -11    1    3    3    0    0 -0.13480384350E+02  0.93232649980E+00  0.15948930111E+01  0.13606383755E+02  0.51100000000E-03 0.  1.
         12    1    3    3    0    0 -0.23509342603E+02  0.17296137790E+02 -0.27814217039E+01  0.29318626822E+02  0.00000000000E+00 0. -1.
</event>
<event>
 7    1  0.5849044E-013  0.5052886E+02  0.7816164E-02  0.1300439E+00
        -11   -1    0    0    0    0  0.00000000000E+00  0.00000000000E+00  0.45593999997E+02  0.45594000000E+02  0.51100000000E-03 0.  1.
         11   -1    0    0    0    0 -0.00000000000E+00 -0.00000000000E+00 -0.45593999997E+02  0.45594000000E+02  0.51100000000E-03 0. -1.
    9900012    2    1    2    0    0  0.95937626548E+00  0.39805205350E+02 -0.82335270641E+01  0.50528859039E+02  0.29999997534E+02 0.  0.
         12    1    1    2    0    0 -0.95937626548E+00 -0.39805205350E+02  0.82335270641E+01  0.40659140961E+02  0.00000000000E+00 0. -1.
         11    1    3    3    0    0  0.21473737718E+01  0.34336762302E+01 -0.95923389451E+01  0.10412219421E+02  0.51100000000E-03 0. -1.
        -11    1    3    3    0    0 -0.64806057191E+01  0.17616689809E+02  0.66663101957E+01  0.19919480471E+02  0.51100000000E-03 0.  1.
        -12    1    3    3    0    0  0.52926082128E+01  0.18754839311E+02 -0.53074983146E+01  0.20197159147E+02  0.00000000000E+00 0.  1.
</event>
<event>
 7    1  0.5849044E-013  0.5052890E+02  0.7816164E-02  0.1300439E+00
        -11   -1    0    0    0    0  0.00000000000E+00  0.00000000000E+00  0.45593999997E+02  0.45594000000E+02  0.51100000000E-03 0.  1.
         11   -1    0    0    0    0 -0.00000000000E+00 -0.00000000000E+00 -0.45593999997E+02  0.45594000000E+02  0.51100000000E-03 0. -1.
    9900012    2    1    2    0    0 -0.24575857884E+02 -0.13405049239E+02  0.29487194018E+02  0.50528895891E+02  0.30000109552E+02 0.  0.
         12    1    1    2    0    0  0.24575857884E+02  0.13405049239E+02 -0.29487194018E+02  0.40659104109E+02  0.00000000000E+00 0. -1.
         11    1    3    3    0    0 -0.80784528194E+01  0.61335474514E+01  0.58178974038E+01  0.11693149052E+02  0.51100000000E-03 0. -1.
        -11    1    3    3    0    0 -0.94804875184E+01 -0.17890102657E+02  0.24265698033E+02  0.31603156772E+02  0.51100000000E-03 0.  1.
        -12    1    3    3    0    0 -0.70169175466E+01 -0.16484940330E+01 -0.59640141831E+00  0.72325900675E+01  0.00000000000E+00 0.  1.
</event>
<event>
 7    1  0.5849044E-013  0.5052885E+02  0.7816164E-02  0.1300439E+00
        -11   -1    0    0    0    0  0.00000000000E+00  0.00000000000E+00  0.45593999997E+02  0.45594000000E+02  0.51100000000E-03 0. -1.
         11   -1    0    0    0    0 -0.00000000000E+00 -0.00000000000E+00 -0.45593999997E+02  0.45594000000E+02  0.51100000000E-03 0.  1.
    9900012    2    1    2    0    0 -0.32953893902E+02  0.12577288626E+02 -0.20224214924E+02  0.50528853651E+02  0.29999981158E+02 0.  0.
         12    1    1    2    0    0  0.32953893902E+02 -0.12577288626E+02  0.20224214924E+02  0.40659146349E+02  0.00000000000E+00 0. -1.
         11    1    3    3    0    0  0.26393800243E+01 -0.42534184922E+01 -0.53853750206E+01  0.73525614690E+01  0.51100000000E-03 0. -1.
        -11    1    3    3    0    0 -0.22981936907E+02  0.12012846264E+02 -0.48485667696E+01  0.26381556045E+02  0.51100000000E-03 0.  1.
        -12    1    3    3    0    0 -0.12611337020E+02  0.48178608547E+01 -0.99902731338E+01  0.16794736137E+02  0.00000000000E+00 0.  1.
</event>
<event>
 7    1  0.5849044E-013  0.5052886E+02  0.7816164E-02  0.1300439E+00
        -11   -1    0    0    0    0  0.00000000000E+00  0.00000000000E+00  0.45593999997E+02  0.45594000000E+02  0.51100000000E-03 0.  1.
         11   -1    0    0    0    0 -0.00000000000E+00 -0.00000000000E+00 -0.45593999997E+02  0.45594000000E+02  0.51100000000E-03 0. -1.
    9900012    2    1    2    0    0  0.16515695269E+02  0.30337423432E+02  0.21448498749E+02  0.50528861430E+02  0.30000004802E+02 0.  0.
         12    1    1    2    0    0 -0.16515695269E+02 -0.30337423432E+02 -0.21448498749E+02  0.40659138570E+02  0.00000000000E+00 0. -1.
         11    1    3    3    0    0 -0.92108046224E+00 -0.16205931870E+01 -0.23549683353E+01  0.30034293095E+01  0.51100000000E-03 0. -1.
        -11    1    3    3    0    0  0.21003891050E+02  0.27669572148E+02  0.23496912713E+02  0.41938926660E+02  0.51100000000E-03 0.  1.
        -12    1    3    3    0    0 -0.35671153184E+01  0.42884444708E+01  0.30655437096E+00  0.55865054602E+01  0.00000000000E+00 0.  1.
</event>
<event>
 7    1  0.5849044E-013  0.5052887E+02  0.7816164E-02  0.1300439E+00
        -11   -1    0    0    0    0  0.00000000000E+00  0.00000000000E+00  0.45593999997E+02  0.45594000000E+02  0.51100000000E-03 0.  1.
         11   -1    0    0    0    0 -0.00000000000E+00 -0.00000000000E+00 -0.45593999997E+02  0.45594000000E+02  0.51100000000E-03 0. -1.
    9900012    2    1    2    0    0 -0.18892426253E+02  0.13720626906E+02  0.33286421375E+02  0.50528865474E+02  0.30000017095E+02 0.  0.
         12    1    1    2    0    0  0.18892426253E+02 -0.13720626906E+02 -0.33286421375E+02  0.40659134526E+02  0.00000000000E+00 0. -1.
         11    1    3    3    0    0 -0.10366721650E+02  0.54024169961E+01 -0.18358665390E+01  0.11833234273E+02  0.51100000000E-03 0. -1.
        -11    1    3    3    0    0 -0.98418298601E+01  0.38719251202E+01  0.17271041206E+02  0.20251969873E+02  0.51100000000E-03 0.  1.
         12    1    3    3    0    0  0.13161252565E+01  0.44462847898E+01  0.17851246708E+02  0.18443661327E+02  0.00000000000E+00 0. -1.
</event>
<event>
 7    1  0.5849044E-013  0.5052886E+02  0.7816164E-02  0.1300439E+00
        -11   -1    0    0    0    0  0.00000000000E+00  0.00000000000E+00  0.45593999997E+02  0.45594000000E+02  0.51100000000E-03 0.  1.
         11   -1    0    0    0    0 -0.00000000000E+00 -0.00000000000E+00 -0.45593999997E+02  0.45594000000E+02  0.51100000000E-03 0. -1.
    9900012    2    1    2    0    0 -0.30187621804E+02  0.24816681815E+02 -0.11225216498E+02  0.50528859676E+02  0.29999999470E+02 0.  0.
         12    1    1    2    0    0  0.30187621804E+02 -0.24816681815E+02  0.11225216498E+02  0.40659140324E+02  0.00000000000E+00 0. -1.
         11    1    3    3    0    0 -0.17125248714E+02  0.50228904343E+01  0.49869367600E+01  0.18530329472E+02  0.51100000000E-03 0. -1.
        -11    1    3    3    0    0 -0.81599950012E+01  0.20469561426E+02 -0.10405907938E+02  0.24369476475E+02  0.51100000000E-03 0.  1.
         12    1    3    3    0    0 -0.49023780889E+01 -0.67577004517E+00 -0.58062453199E+01  0.76290537287E+01  0.00000000000E+00 0. -1.
</event>
<event>
 7    1  0.5849044E-013  0.5052886E+02  0.7816164E-02  0.1300439E+00
        -11   -1    0    0    0    0  0.00000000000E+00  0.00000000000E+00  0.45593999997E+02  0.45594000000E+02  0.51100000000E-03 0. -1.
         11   -1    0    0    0    0 -0.00000000000E+00 -0.00000000000E+00 -0.45593999997E+02  0.45594000000E+02  0.51100000000E-03 0.  1.
    9900012    2    1    2    0    0 -0.39917332342E+02  0.51142670125E+01 -0.57979727373E+01  0.50528860360E+02  0.30000001551E+02 0.  0.
         12    1    1    2    0    0  0.39917332342E+02 -0.51142670125E+01  0.57979727373E+01  0.40659139640E+02  0.00000000000E+00 0. -1.
         11    1    3    3    0    0  0.35050490921E+01  0.11350728620E+01 -0.38594534221E+01  0.53356480880E+01  0.51100000000E-03 0. -1.
        -11    1    3    3    0    0 -0.17227318255E+02  0.72347889432E+01  0.43707217888E+00  0.18689935732E+02  0.51100000000E-03 0.  1.
         12    1    3    3    0    0 -0.26195063179E+02 -0.32555947928E+01 -0.23755914941E+01  0.26503276540E+02  0.00000000000E+00 0. -1.
</event>
<event>
 7    1  0.5849044E-013  0.5052886E+02  0.7816164E-02  0.1300439E+00
        -11   -1    0    0    0    0  0.00000000000E+00  0.00000000000E+00  0.45593999997E+02  0.45594000000E+02  0.51100000000E-03 0.  1.
         11   -1    0    0    0    0 -0.00000000000E+00 -0.00000000000E+00 -0.45593999997E+02  0.45594000000E+02  0.51100000000E-03 0. -1.
    9900012    2    1    2    0    0 -0.21182271546E+01 -0.39790034937E+02  0.80889790230E+01  0.50528863902E+02  0.30000012317E+02 0.  0.
         12    1    1    2    0    0  0.21182271546E+01  0.39790034937E+02 -0.80889790230E+01  0.40659136098E+02  0.00000000000E+00 0. -1.
         11    1    3    3    0    0  0.78445602598E+01 -0.39028922130E+01  0.42522180841E+01  0.97391504862E+01  0.51100000000E-03 0. -1.
        -11    1    3    3    0    0 -0.11487339401E+02 -0.20420261767E+02 -0.33478649717E+01  0.23667578188E+02  0.51100000000E-03 0.  1.
        -12    1    3    3    0    0  0.15245519865E+01 -0.15466880957E+02  0.71846259106E+01  0.17122135228E+02  0.00000000000E+00 0.  1.
</event>
<event>
 7    1  0.5849044E-013  0.5052885E+02  0.7816164E-02  0.1300439E+00
        -11   -1    0    0    0    0  0.00000000000E+00  0.00000000000E+00  0.45593999997E+02  0.45594000000E+02  0.51100000000E-03 0.  1.
         11   -1    0    0    0    0 -0.00000000000E+00 -0.00000000000E+00 -0.45593999997E+02  0.45594000000E+02  0.51100000000E-03 0. -1.
    9900012    2    1    2    0    0 -0.21032812389E+02  0.34171150761E+02 -0.65665352329E+01  0.50528854334E+02  0.29999983234E+02 0.  0.
         12    1    1    2    0    0  0.21032812389E+02 -0.34171150761E+02  0.65665352329E+01  0.40659145666E+02  0.00000000000E+00 0. -1.
         11    1    3    3    0    0 -0.13246163893E+02  0.19075782096E+02  0.60693393766E+01  0.24003816388E+02  0.51100000000E-03 0. -1.
        -11    1    3    3    0    0 -0.48514865626E+01  0.17318825867E+02 -0.13792722248E+02  0.22665344440E+02  0.51100000000E-03 0.  1.
        -12    1    3    3    0    0 -0.29351619335E+01 -0.22234572022E+01  0.11568476386E+01  0.38596935066E+01  0.00000000000E+00 0.  1.
</event>
<event>
 7    1  0.5849044E-013  0.5052887E+02  0.7816164E-02  0.1300439E+00
        -11   -1    0    0    0    0  0.00000000000E+00  0.00000000000E+00  0.45593999997E+02  0.45594000000E+02  0.51100000000E-03 0. -1.
         11   -1    0    0    0    0 -0.00000000000E+00 -0.00000000000E+00 -0.45593999997E+02  0.45594000000E+02  0.51100000000E-03 0.  1.
    9900012    2    1    2    0    0  0.35497154030E+02  0.85022275649E+00 -0.19808945491E+02  0.50528866408E+02  0.30000019933E+02 0.  0.
         12    1    1    2    0    0 -0.35497154030E+02 -0.85022275649E+00  0.19808945491E+02  0.40659133592E+02  0.00000000000E+00 0. -1.
         11    1    3    3    0    0 -0.29246024226E+01 -0.39750529739E+01  0.14713055457E+01  0.51496685083E+01  0.51100000000E-03 0. -1.
        -11    1    3    3    0    0  0.13007957179E+02  0.52974894652E+01 -0.11469440696E+02  0.18133350897E+02  0.51100000000E-03 0.  1.
         12    1    3    3    0    0  0.25413799274E+02 -0.47221373483E+00 -0.98108103413E+01  0.27245847003E+02  0.00000000000E+00 0. -1.
</event>
<event>
 7    1  0.5849044E-013  0.5052886E+02  0.7816164E-02  0.1300439E+00
        -11   -1    0    0    0    0  0.00000000000E+00  0.00000000000E+00  0.45593999997E+02  0.45594000000E+02  0.51100000000E-03 0.  1.
         11   -1    0    0    0    0 -0.00000000000E+00 -0.00000000000E+00 -0.45593999997E+02  0.45594000000E+02  0.51100000000E-03 0. -1.
    9900012    2    1    2    0    0  0.24925246717E+02  0.26411478260E+02  0.18284733384E+02  0.50528861018E+02  0.30000003551E+02 0.  0.
         12    1    1    2    0    0 -0.24925246717E+02 -0.26411478260E+02 -0.18284733384E+02  0.40659138982E+02  0.00000000000E+00 0. -1.
         11    1    3    3    0    0 -0.47130171187E+01  0.68133974390E+01 -0.24108352302E+01  0.86282699188E+01  0.51100000000E-03 0. -1.
        -11    1    3    3    0    0  0.24365722885E+02  0.12352764957E+02  0.17201983977E+02  0.32282929031E+02  0.51100000000E-03 0.  1.
        -12    1    3    3    0    0  0.52725409504E+01  0.72453158642E+01  0.34935846376E+01  0.96176620686E+01  0.00000000000E+00 0.  1.
</event>
<event>
 7    1  0.5849044E-013  0.5052886E+02  0.7816164E-02  0.1300439E+00
        -11   -1    0    0    0    0  0.00000000000E+00  0.00000000000E+00  0.45593999997E+02  0.45594000000E+02  0.51100000000E-03 0.  1.
         11   -1    0    0    0    0 -0.00000000000E+00 -0.00000000000E+00 -0.45593999997E+02  0.45594000000E+02  0.51100000000E-03 0. -1.
    9900012    2    1    2    0    0  0.99992023886E+01  0.13053349417E+02  0.37185909908E+02  0.50528857423E+02  0.29999992623E+02 0.  0.
         12    1    1    2    0    0 -0.99992023886E+01 -0.13053349417E+02 -0.37185909908E+02  0.40659142577E+02  0.00000000000E+00 0. -1.
         11    1    3    3    0    0  0.50715801396E+01 -0.77693197830E+00  0.33233030785E+01  0.61130100624E+01  0.51100000000E-03 0. -1.
        -11    1    3    3    0    0 -0.87520351593E+01  0.17872216609E+01  0.48792071081E+01  0.10178356594E+02  0.51100000000E-03 0.  1.
        -12    1    3    3    0    0  0.13679657408E+02  0.12043059735E+02  0.28983399721E+02  0.34237490766E+02  0.00000000000E+00 0.  1.
</event>
<event>
 7    1  0.5849044E-013  0.5052886E+02  0.7816164E-02  0.1300439E+00
        -11   -1    0    0    0    0  0.00000000000E+00  0.00000000000E+00  0.45593999997E+02  0.45594000000E+02  0.51100000000E-03 0.  1.
         11   -1    0    0    0    0 -0.00000000000E+00 -0.00000000000E+00 -0.45593999997E+02  0.45594000000E+02  0.51100000000E-03 0. -1.
    9900012    2    1    2    0    0 -0.33469159843E+02 -0.15947438237E+02  0.16693122828E+02  0.50528858387E+02  0.29999995554E+02 0.  0.
         12    1    1    2    0    0  0.33469159843E+02  0.15947438237E+02 -0.16693122828E+02  0.40659141613E+02  0.00000000000E+00 0. -1.
         11    1    3    3    0    0  0.12314482862E+01 -0.62473962573E+01  0.26816206871E+01  0.69092340131E+01  0.51100000000E-03 0. -1.
        -11    1    3    3    0    0 -0.19382218011E+02 -0.10485929534E+02 -0.11308973302E+01  0.22065901800E+02  0.51100000000E-03 0.  1.
        -12    1    3    3    0    0 -0.15318390119E+02  0.78588755396E+00  0.15142399471E+02  0.21553722574E+02  0.00000000000E+00 0.  1.
</event>
<event>
 7    1  0.8147437E-013  0.5052886E+02  0.7816164E-02  0.1300439E+00
        -11   -1    0    0    0    0  0.00000000000E+00  0.00000000000E+00  0.45593999997E+02  0.45594000000E+02  0.51100000000E-03 0. -1.
         11   -1    0    0    0    0 -0.00000000000E+00 -0.00000000000E+00 -0.45593999997E+02  0.45594000000E+02  0.51100000000E-03 0.  1.
    9900012    2    1    2    0    0  0.65872720474E+01 -0.11233343167E+02 -0.38517336273E+02  0.50528863938E+02  0.30000012426E+02 0.  0.
         12    1    1    2    0    0 -0.65872720474E+01  0.11233343167E+02  0.38517336273E+02  0.40659136062E+02  0.00000000000E+00 0. -1.
         11    1    3    3    0    0 -0.61137411060E+01  0.23832492753E+01 -0.30926831136E+00  0.65691212935E+01  0.51100000000E-03 0. -1.
        -11    1    3    3    0    0  0.20112836620E+01 -0.75746137443E+01 -0.23650040480E+02  0.24914743634E+02  0.51100000000E-03 0.  1.
         12    1    3    3    0    0  0.10689729491E+02 -0.60419786977E+01 -0.14558027481E+02  0.19044999011E+02  0.00000000000E+00 0. -1.
</event>
<event>
 7    1  0.5849044E-013  0.5052886E+02  0.7816164E-02  0.1300439E+00
        -11   -1    0    0    0    0  0.00000000000E+00  0.00000000000E+00  0.45593999997E+02  0.45594000000E+02  0.51100000000E-03 0. -1.
         11   -1    0    0    0    0 -0.00000000000E+00 -0.00000000000E+00 -0.45593999997E+02  0.45594000000E+02  0.51100000000E-03 0.  1.
    9900012    2    1    2    0    0  0.87102835735E+01  0.36669550453E+02 -0.15252566020E+02  0.50528859077E+02  0.29999997652E+02 0.  0.
         12    1    1    2    0    0 -0.87102835735E+01 -0.36669550453E+02  0.15252566020E+02  0.40659140923E+02  0.00000000000E+00 0. -1.
         11    1    3    3    0    0  0.13981779857E+01  0.39535395912E+02 -0.10043996568E+02  0.40815245913E+02  0.51100000000E-03 0.  1.
        -11    1    3    3    0    0  0.22152438269E+01 -0.17608871353E+01 -0.27571639268E+01  0.39509469620E+01  0.51100000000E-03 0. -1.
        -12    1    3    3    0    0  0.50968617609E+01 -0.11049583241E+01 -0.24514055254E+01  0.57626662022E+01  0.00000000000E+00 0.  1.
</event>
<event>
 7    1  0.5849044E-013  0.5052886E+02  0.7816164E-02  0.1300439E+00
        -11   -1    0    0    0    0  0.00000000000E+00  0.00000000000E+00  0.45593999997E+02  0.45594000000E+02  0.51100000000E-03 0.  1.
         11   -1    0    0    0    0 -0.00000000000E+00 -0.00000000000E+00 -0.45593999997E+02  0.45594000000E+02  0.51100000000E-03 0. -1.
    9900012    2    1    2    0    0  0.24904861447E+02 -0.16822808090E+02  0.27384424760E+02  0.50528859390E+02  0.29999998602E+02 0.  0.
         12    1    1    2    0    0 -0.24904861447E+02  0.16822808090E+02 -0.27384424760E+02  0.40659140610E+02  0.00000000000E+00 0. -1.
         11    1    3    3    0    0  0.11995678824E+02 -0.84370818132E+01 -0.31919394654E+01  0.15008968578E+02  0.51100000000E-03 0. -1.
        -11    1    3    3    0    0  0.12135532102E+02 -0.99983981871E+01  0.29509465711E+02  0.33437219868E+02  0.51100000000E-03 0.  1.
         12    1    3    3    0    0  0.77365052114E+00  0.16126719104E+01  0.10668985144E+01  0.20826709437E+01  0.00000000000E+00 0. -1.
</event>
<event>
 7    1  0.5849044E-013  0.5052885E+02  0.7816164E-02  0.1300439E+00
        -11   -1    0    0    0    0  0.00000000000E+00  0.00000000000E+00  0.45593999997E+02  0.45594000000E+02  0.51100000000E-03 0. -1.
         11   -1    0    0    0    0 -0.00000000000E+00 -0.00000000000E+00 -0.45593999997E+02  0.45594000000E+02  0.51100000000E-03 0.  1.
    9900012    2    1    2    0    0 -0.71710671031E+01  0.24800986549E+02  0.31411038583E+02  0.50528849959E+02  0.29999969934E+02 0.  0.
         12    1    1    2    0    0  0.71710671031E+01 -0.24800986549E+02 -0.31411038583E+02  0.40659150041E+02  0.00000000000E+00 0. -1.
         11    1    3    3    0    0 -0.10065853556E+02  0.10147487486E+02  0.71799887313E+01  0.15995160159E+02  0.51100000000E-03 0. -1.
        -11    1    3    3    0    0  0.19254203587E-02  0.85160635671E+00  0.19704944188E+02  0.19723338024E+02  0.51100000000E-03 0.  1.
        -12    1    3    3    0    0  0.28928610321E+01  0.13801892706E+02  0.45261056639E+01  0.14810351775E+02  0.00000000000E+00 0.  1.
</event>
<event>
 7    1  0.5849044E-013  0.5052884E+02  0.7816164E-02  0.1300439E+00
        -11   -1    0    0    0    0  0.00000000000E+00  0.00000000000E+00  0.45593999997E+02  0.45594000000E+02  0.51100000000E-03 0.  1.
         11   -1    0    0    0    0 -0.00000000000E+00 -0.00000000000E+00 -0.45593999997E+02  0.45594000000E+02  0.51100000000E-03 0. -1.
    9900012    2    1    2    0    0 -0.13308537122E+02 -0.23005168918E+02  0.30770310203E+02  0.50528844238E+02  0.29999952547E+02 0.  0.
         12    1    1    2    0    0  0.13308537122E+02  0.23005168918E+02 -0.30770310203E+02  0.40659155762E+02  0.00000000000E+00 0. -1.
         11    1    3    3    0    0 -0.84588242596E+01 -0.41611626263E+01  0.69472939331E+00  0.94524933985E+01  0.51100000000E-03 0. -1.
        -11    1    3    3    0    0 -0.54478548476E+01 -0.21497652330E+02  0.17613182276E+02  0.28320529096E+02  0.51100000000E-03 0.  1.
        -12    1    3    3    0    0  0.59814198511E+00  0.26536460388E+01  0.12462398534E+02  0.12755821743E+02  0.00000000000E+00 0.  1.
</event>
<event>
 7    1  0.5849044E-013  0.5052885E+02  0.7816164E-02  0.1300439E+00
        -11   -1    0    0    0    0  0.00000000000E+00  0.00000000000E+00  0.45593999997E+02  0.45594000000E+02  0.51100000000E-03 0.  1.
         11   -1    0    0    0    0 -0.00000000000E+00 -0.00000000000E+00 -0.45593999997E+02  0.45594000000E+02  0.51100000000E-03 0. -1.
    9900012    2    1    2    0    0 -0.86936060693E+01  0.39621844851E+02  0.27744301161E+01  0.50528845577E+02  0.29999956616E+02 0.  0.
         12    1    1    2    0    0  0.86936060693E+01 -0.39621844851E+02 -0.27744301161E+01  0.40659154423E+02  0.00000000000E+00 0. -1.
         11    1    3    3    0    0 -0.20113693747E+01  0.20907978279E+02  0.71606142616E+00  0.21016705420E+02  0.51100000000E-03 0.  1.
        -11    1    3    3    0    0  0.19584440025E+01  0.25321083773E+01 -0.79819898184E+01  0.85999556666E+01  0.51100000000E-03 0. -1.
        -12    1    3    3    0    0 -0.86406806972E+01  0.16181758195E+02  0.10040358508E+02  0.20912184491E+02  0.00000000000E+00 0.  1.
</event>
<event>
 7    1  0.5849044E-013  0.5052886E+02  0.7816164E-02  0.1300439E+00
        -11   -1    0    0    0    0  0.00000000000E+00  0.00000000000E+00  0.45593999997E+02  0.45594000000E+02  0.51100000000E-03 0.  1.
         11   -1    0    0    0    0 -0.00000000000E+00 -0.00000000000E+00 -0.45593999997E+02  0.45594000000E+02  0.51100000000E-03 0. -1.
    9900012    2    1    2    0    0 -0.34508430859E+02  0.51492635982E+01  0.20876281100E+02  0.50528857996E+02  0.29999994365E+02 0.  0.
         12    1    1    2    0    0  0.34508430859E+02 -0.51492635982E+01 -0.20876281100E+02  0.40659142004E+02  0.00000000000E+00 0. -1.
         11    1    3    3    0    0 -0.22435334391E+02  0.63310681334E+01  0.12057542035E+02  0.26245208575E+02  0.51100000000E-03 0. -1.
        -11    1    3    3    0    0  0.27348639784E+01  0.45075934452E+01 -0.13480520335E+01  0.54419779671E+01  0.51100000000E-03 0.  1.
        -12    1    3    3    0    0 -0.14807960446E+02 -0.56893979804E+01  0.10166791099E+02  0.18841671454E+02  0.00000000000E+00 0.  1.
</event>
<event>
 7    1  0.5849044E-013  0.5052886E+02  0.7816164E-02  0.1300439E+00
        -11   -1    0    0    0    0  0.00000000000E+00  0.00000000000E+00  0.45593999997E+02  0.45594000000E+02  0.51100000000E-03 0.  1.
         11   -1    0    0    0    0 -0.00000000000E+00 -0.00000000000E+00 -0.45593999997E+02  0.45594000000E+02  0.51100000000E-03 0. -1.
    9900012    2    1    2    0    0 -0.21324379759E+02 -0.13983471373E+02  0.31668578340E+02  0.50528862062E+02  0.30000006725E+02 0.  0.
         12    1    1    2    0    0  0.21324379759E+02  0.13983471373E+02 -0.31668578340E+02  0.40659137938E+02  0.00000000000E+00 0. -1.
         11    1    3    3    0    0 -0.22784028065E+02 -0.16498822962E+02  0.21983330001E+02  0.35701399023E+02  0.51100000000E-03 0. -1.
        -11    1    3    3    0    0 -0.15834145069E+01  0.46566170293E+01  0.99477935714E+01  0.11097291600E+02  0.51100000000E-03 0.  1.
         12    1    3    3    0    0  0.30430628130E+01 -0.21412654401E+01 -0.26254523225E+00  0.37301714395E+01  0.00000000000E+00 0. -1.
</event>
<event>
 7    1  0.5849044E-013  0.5052884E+02  0.7816164E-02  0.1300439E+00
        -11   -1    0    0    0    0  0.00000000000E+00  0.00000000000E+00  0.45593999997E+02  0.45594000000E+02  0.51100000000E-03 0.  1.
         11   -1    0    0    0    0 -0.00000000000E+00 -0.00000000000E+00 -0.45593999997E+02  0.45594000000E+02  0.51100000000E-03 0. -1.
    9900012    2    1    2    0    0  0.70722278545E+01  0.16197081194E+00  0.40039038102E+02  0.50528840965E+02  0.29999942596E+02 0.  0.
         12    1    1    2    0    0 -0.70722278545E+01 -0.16197081194E+00 -0.40039038102E+02  0.40659159035E+02  0.00000000000E+00 0. -1.
         11    1    3    3    0    0 -0.12988942979E+01 -0.76304737516E+01  0.79143212525E+01  0.11070128148E+02  0.51100000000E-03 0. -1.
        -11    1    3    3    0    0  0.41455026582E+01  0.13069042178E+02  0.11970680333E+02  0.18201160502E+02  0.51100000000E-03 0.  1.
         12    1    3    3    0    0  0.42256194942E+01 -0.52765976140E+01  0.20154036517E+02  0.21257552314E+02  0.00000000000E+00 0. -1.
</event>
<event>
 7    1  0.5849044E-013  0.5052888E+02  0.7816164E-02  0.1300439E+00
        -11   -1    0    0    0    0  0.00000000000E+00  0.00000000000E+00  0.45593999997E+02  0.45594000000E+02  0.51100000000E-03 0.  1.
         11   -1    0    0    0    0 -0.00000000000E+00 -0.00000000000E+00 -0.45593999997E+02  0.45594000000E+02  0.51100000000E-03 0. -1.
    9900012    2    1    2    0    0 -0.87412080712E+01 -0.17263053036E+02  0.35759505700E+02  0.50528880893E+02  0.30000063963E+02 0.  0.
         12    1    1    2    0    0  0.87412080712E+01  0.17263053036E+02 -0.35759505700E+02  0.40659119107E+02  0.00000000000E+00 0. -1.
         11    1    3    3    0    0  0.46700396997E+01  0.74396465499E+00 -0.20639034916E+01  0.51596949608E+01  0.51100000000E-03 0. -1.
        -11    1    3    3    0    0 -0.14691831540E+01 -0.41787908542E+01  0.17448076238E+02  0.18001559844E+02  0.51100000000E-03 0.  1.
         12    1    3    3    0    0 -0.11942064617E+02 -0.13828226837E+02  0.20375332953E+02  0.27367626089E+02  0.00000000000E+00 0. -1.
</event>
<event>
 7    1  0.5849044E-013  0.5052886E+02  0.7816164E-02  0.1300439E+00
        -11   -1    0    0    0    0  0.00000000000E+00  0.00000000000E+00  0.45593999997E+02  0.45594000000E+02  0.51100000000E-03 0.  1.
         11   -1    0    0    0    0 -0.00000000000E+00 -0.00000000000E+00 -0.45593999997E+02  0.45594000000E+02  0.51100000000E-03 0. -1.
    9900012    2    1    2    0    0 -0.36480104109E+02 -0.66367371655E+01  0.16682974743E+02  0.50528856843E+02  0.29999990859E+02 0.  0.
         12    1    1    2    0    0  0.36480104109E+02  0.66367371655E+01 -0.16682974743E+02  0.40659143157E+02  0.00000000000E+00 0. -1.
         11    1    3    3    0    0 -0.17137716907E+02  0.28617557163E+01 -0.62667065479E+01  0.18470587370E+02  0.51100000000E-03 0. -1.
        -11    1    3    3    0    0 -0.20357616569E+01 -0.13883010714E+01  0.60994730879E+01  0.65783947585E+01  0.51100000000E-03 0.  1.
         12    1    3    3    0    0 -0.17306625544E+02 -0.81101918103E+01  0.16850208204E+02  0.25479874714E+02  0.00000000000E+00 0. -1.
</event>
<event>
 7    1  0.5849044E-013  0.5052885E+02  0.7816164E-02  0.1300439E+00
        -11   -1    0    0    0    0  0.00000000000E+00  0.00000000000E+00  0.45593999997E+02  0.45594000000E+02  0.51100000000E-03 0. -1.
         11   -1    0    0    0    0 -0.00000000000E+00 -0.00000000000E+00 -0.45593999997E+02  0.45594000000E+02  0.51100000000E-03 0.  1.
    9900012    2    1    2    0    0 -0.17536004359E+02 -0.35395487193E+02 -0.96340174214E+01  0.50528852761E+02  0.29999978452E+02 0.  0.
         12    1    1    2    0    0  0.17536004359E+02  0.35395487193E+02  0.96340174214E+01  0.40659147239E+02  0.00000000000E+00 0. -1.
         11    1    3    3    0    0 -0.13577479565E+02 -0.13238297695E+02  0.79293351311E+01  0.20554192591E+02  0.51100000000E-03 0. -1.
        -11    1    3    3    0    0 -0.24684683054E+01 -0.20013338325E+02 -0.11132141467E+02  0.23033706185E+02  0.51100000000E-03 0.  1.
         12    1    3    3    0    0 -0.14900564888E+01 -0.21438511725E+01 -0.64312110857E+01  0.69409539848E+01  0.00000000000E+00 0. -1.
</event>
<event>
 7    1  0.5849044E-013  0.5052886E+02  0.7816164E-02  0.1300439E+00
        -11   -1    0    0    0    0  0.00000000000E+00  0.00000000000E+00  0.45593999997E+02  0.45594000000E+02  0.51100000000E-03 0.  1.
         11   -1    0    0    0    0 -0.00000000000E+00 -0.00000000000E+00 -0.45593999997E+02  0.45594000000E+02  0.51100000000E-03 0. -1.
    9900012    2    1    2    0    0  0.39177207528E+01  0.19754148735E+02  0.35321251609E+02  0.50528859043E+02  0.29999997547E+02 0.  0.
         12    1    1    2    0    0 -0.39177207528E+01 -0.19754148735E+02 -0.35321251609E+02  0.40659140957E+02  0.00000000000E+00 0. -1.
         11    1    3    3    0    0 -0.10523752157E+02  0.17868168426E+01  0.16555622892E+02  0.19698495462E+02  0.51100000000E-03 0. -1.
        -11    1    3    3    0    0  0.13691251262E+02  0.12191926688E+02  0.12036894149E+02  0.21931262127E+02  0.51100000000E-03 0.  1.
         12    1    3    3    0    0  0.75022164771E+00  0.57754052041E+01  0.67287345684E+01  0.88991014537E+01  0.00000000000E+00 0. -1.
</event>
<event>
 7    1  0.5849044E-013  0.5052886E+02  0.7816164E-02  0.1300439E+00
        -11   -1    0    0    0    0  0.00000000000E+00  0.00000000000E+00  0.45593999997E+02  0.45594000000E+02  0.51100000000E-03 0. -1.
         11   -1    0    0    0    0 -0.00000000000E+00 -0.00000000000E+00 -0.45593999997E+02  0.45594000000E+02  0.51100000000E-03 0.  1.
    9900012    2    1    2    0    0  0.21863548161E+02  0.76379855103E+01 -0.33418741846E+02  0.50528857518E+02  0.29999992910E+02 0.  0.
         12    1    1    2    0    0 -0.21863548161E+02 -0.76379855103E+01  0.33418741846E+02  0.40659142482E+02  0.00000000000E+00 0. -1.
         11    1    3    3    0    0  0.45153939844E+01  0.85477707219E+01 -0.24694501005E+01  0.99775423431E+01  0.51100000000E-03 0. -1.
        -11    1    3    3    0    0  0.20873647738E+02 -0.42979698191E+01 -0.25303563588E+02  0.33082503608E+02  0.51100000000E-03 0.  1.
        -12    1    3    3    0    0 -0.35254935617E+01  0.33881846075E+01 -0.56457281576E+01  0.74688115666E+01  0.00000000000E+00 0.  1.
</event>
<event>
 7    1  0.5849044E-013  0.5052886E+02  0.7816164E-02  0.1300439E+00
        -11   -1    0    0    0    0  0.00000000000E+00  0.00000000000E+00  0.45593999997E+02  0.45594000000E+02  0.51100000000E-03 0.  1.
         11   -1    0    0    0    0 -0.00000000000E+00 -0.00000000000E+00 -0.45593999997E+02  0.45594000000E+02  0.51100000000E-03 0. -1.
    9900012    2    1    2    0    0  0.25532382016E+02 -0.29605195432E+02  0.11171193338E+02  0.50528859716E+02  0.29999999594E+02 0.  0.
         12    1    1    2    0    0 -0.25532382016E+02  0.29605195432E+02 -0.11171193338E+02  0.40659140284E+02  0.00000000000E+00 0. -1.
         11    1    3    3    0    0 -0.29781589346E+01  0.30798317173E+01  0.33222018810E+01  0.54214222899E+01  0.51100000000E-03 0. -1.
        -11    1    3    3    0    0  0.13868197481E+02 -0.15687188589E+02  0.86583800542E+01  0.22657941933E+02  0.51100000000E-03 0.  1.
         12    1    3    3    0    0  0.14642343469E+02 -0.16997838561E+02 -0.80938859709E+00  0.22449495494E+02  0.00000000000E+00 0. -1.
</event>
<event>
 7    1  0.5849044E-013  0.5052886E+02  0.7816164E-02  0.1300439E+00
        -11   -1    0    0    0    0  0.00000000000E+00  0.00000000000E+00  0.45593999997E+02  0.45594000000E+02  0.51100000000E-03 0. -1.
         11   -1    0    0    0    0 -0.00000000000E+00 -0.00000000000E+00 -0.45593999997E+02  0.45594000000E+02  0.51100000000E-03 0.  1.
    9900012    2    1    2    0    0  0.13666367592E+02  0.36701988633E+02 -0.10925208359E+02  0.50528858955E+02  0.29999997281E+02 0.  0.
         12    1    1    2    0    0 -0.13666367592E+02 -0.36701988633E+02  0.10925208359E+02  0.40659141045E+02  0.00000000000E+00 0. -1.
         11    1    3    3    0    0  0.26221282298E+01 -0.35785979732E+01 -0.14620719617E+01  0.46711427498E+01  0.51100000000E-03 0. -1.
        -11    1    3    3    0    0  0.53571496679E+01  0.19034151318E+02 -0.12881309214E+02  0.23599281690E+02  0.51100000000E-03 0.  1.
         12    1    3    3    0    0  0.56870896946E+01  0.21246435289E+02  0.34181728173E+01  0.22258434516E+02  0.00000000000E+00 0. -1.
</event>
<event>
 7    1  0.5849044E-013  0.5052882E+02  0.7816164E-02  0.1300439E+00
        -11   -1    0    0    0    0  0.00000000000E+00  0.00000000000E+00  0.45593999997E+02  0.45594000000E+02  0.51100000000E-03 0.  1.
         11   -1    0    0    0    0 -0.00000000000E+00 -0.00000000000E+00 -0.45593999997E+02  0.45594000000E+02  0.51100000000E-03 0. -1.
    9900012    2    1    2    0    0 -0.40058986710E+02  0.58205513239E+01  0.38167173456E+01  0.50528824341E+02  0.29999892067E+02 0.  0.
         12    1    1    2    0    0  0.40058986710E+02 -0.58205513239E+01 -0.38167173456E+01  0.40659175659E+02  0.00000000000E+00 0. -1.
         11    1    3    3    0    0 -0.33032986521E+02  0.11258921453E+01 -0.57852987241E+01  0.33554664553E+02  0.51100000000E-03 0. -1.
        -11    1    3    3    0    0 -0.25091623172E+01  0.19475468437E+01  0.11046219280E+02  0.11493815506E+02  0.51100000000E-03 0.  1.
        -12    1    3    3    0    0 -0.45168378718E+01  0.27471123349E+01 -0.14442032104E+01  0.54803442824E+01  0.00000000000E+00 0.  1.
</event>
<event>
 7    1  0.5849044E-013  0.5052885E+02  0.7816164E-02  0.1300439E+00
        -11   -1    0    0    0    0  0.00000000000E+00  0.00000000000E+00  0.45593999997E+02  0.45594000000E+02  0.51100000000E-03 0.  1.
         11   -1    0    0    0    0 -0.00000000000E+00 -0.00000000000E+00 -0.45593999997E+02  0.45594000000E+02  0.51100000000E-03 0. -1.
    9900012    2    1    2    0    0 -0.40590794649E+01  0.20915331474E+02  0.34630029985E+02  0.50528853507E+02  0.29999980720E+02 0.  0.
         12    1    1    2    0    0  0.40590794649E+01 -0.20915331474E+02 -0.34630029985E+02  0.40659146493E+02  0.00000000000E+00 0. -1.
         11    1    3    3    0    0 -0.71022883403E+01  0.15088042117E+01  0.21083247890E+02  0.22298482722E+02  0.51100000000E-03 0.  1.
        -11    1    3    3    0    0  0.40655367136E+01  0.92494587875E+01 -0.13271142213E+01  0.10190304659E+02  0.51100000000E-03 0. -1.
        -12    1    3    3    0    0 -0.10223278381E+01  0.10157068475E+02  0.14873896316E+02  0.18040066126E+02  0.00000000000E+00 0.  1.
</event>
<event>
 7    1  0.5849044E-013  0.5052885E+02  0.7816164E-02  0.1300439E+00
        -11   -1    0    0    0    0  0.00000000000E+00  0.00000000000E+00  0.45593999997E+02  0.45594000000E+02  0.51100000000E-03 0.  1.
         11   -1    0    0    0    0 -0.00000000000E+00 -0.00000000000E+00 -0.45593999997E+02  0.45594000000E+02  0.51100000000E-03 0. -1.
    9900012    2    1    2    0    0 -0.26948021678E+02  0.29021528340E+02  0.92044238249E+01  0.50528850999E+02  0.29999973097E+02 0.  0.
         12    1    1    2    0    0  0.26948021678E+02 -0.29021528340E+02 -0.92044238249E+01  0.40659149001E+02  0.00000000000E+00 0. -1.
         11    1    3    3    0    0 -0.17093075484E+02  0.21875561239E+02 -0.82936261409E+01  0.28974085729E+02  0.51100000000E-03 0. -1.
        -11    1    3    3    0    0 -0.81814293407E+01  0.53317624710E+01  0.15744459121E+02  0.18527046995E+02  0.51100000000E-03 0.  1.
         12    1    3    3    0    0 -0.16735168528E+01  0.18142046299E+01  0.17535908450E+01  0.30277182742E+01  0.00000000000E+00 0. -1.
</event>
<event>
 7    1  0.5849044E-013  0.5052885E+02  0.7816164E-02  0.1300439E+00
        -11   -1    0    0    0    0  0.00000000000E+00  0.00000000000E+00  0.45593999997E+02  0.45594000000E+02  0.51100000000E-03 0. -1.
         11   -1    0    0    0    0 -0.00000000000E+00 -0.00000000000E+00 -0.45593999997E+02  0.45594000000E+02  0.51100000000E-03 0.  1.
    9900012    2    1    2    0    0  0.36680119839E+02 -0.44374608950E+01 -0.16971859411E+02  0.50528852660E+02  0.29999978145E+02 0.  0.
         12    1    1    2    0    0 -0.36680119839E+02  0.44374608950E+01  0.16971859411E+02  0.40659147340E+02  0.00000000000E+00 0. -1.
         11    1    3    3    0    0  0.83943040276E+00 -0.73347248858E+01 -0.90422039560E+01  0.11673229424E+02  0.51100000000E-03 0. -1.
        -11    1    3    3    0    0  0.35498832071E+02  0.91868397000E+00 -0.89241949570E+01  0.36614919288E+02  0.51100000000E-03 0.  1.
         12    1    3    3    0    0  0.34185736530E+00  0.19785800207E+01  0.99453950228E+00  0.22407039470E+01  0.00000000000E+00 0. -1.
</event>
<event>
 7    1  0.5849044E-013  0.5052887E+02  0.7816164E-02  0.1300439E+00
        -11   -1    0    0    0    0  0.00000000000E+00  0.00000000000E+00  0.45593999997E+02  0.45594000000E+02  0.51100000000E-03 0.  1.
         11   -1    0    0    0    0 -0.00000000000E+00 -0.00000000000E+00 -0.45593999997E+02  0.45594000000E+02  0.51100000000E-03 0. -1.
    9900012    2    1    2    0    0  0.68674954396E+01 -0.13565520091E+02  0.37709136542E+02  0.50528870549E+02  0.30000032521E+02 0.  0.
         12    1    1    2    0    0 -0.68674954396E+01  0.13565520091E+02 -0.37709136542E+02  0.40659129451E+02  0.00000000000E+00 0. -1.
         11    1    3    3    0    0  0.57546859982E+01 -0.10016017002E+01  0.55463791242E+01  0.80549325606E+01  0.51100000000E-03 0. -1.
        -11    1    3    3    0    0 -0.79338676014E+01 -0.14537804790E+02  0.27511289996E+02  0.32111759540E+02  0.51100000000E-03 0.  1.
        -12    1    3    3    0    0  0.90466770427E+01  0.19738863989E+01  0.46514674214E+01  0.10362178449E+02  0.00000000000E+00 0.  1.
</event>
<event>
 7    1  0.5849044E-013  0.5052886E+02  0.7816164E-02  0.1300439E+00
        -11   -1    0    0    0    0  0.00000000000E+00  0.00000000000E+00  0.45593999997E+02  0.45594000000E+02  0.51100000000E-03 0. -1.
         11   -1    0    0    0    0 -0.00000000000E+00 -0.00000000000E+00 -0.45593999997E+02  0.45594000000E+02  0.51100000000E-03 0.  1.
    9900012    2    1    2    0    0  0.34206332242E+02  0.21951404813E+02 -0.11082127519E+01  0.50528862352E+02  0.30000007606E+02 0.  0.
         12    1    1    2    0    0 -0.34206332242E+02 -0.21951404813E+02  0.11082127519E+01  0.40659137648E+02  0.00000000000E+00 0. -1.
         11    1    3    3    0    0  0.33750559671E+01 -0.69057136531E+01  0.18539096219E+01  0.79067607139E+01  0.51100000000E-03 0. -1.
        -11    1    3    3    0    0  0.93031130893E+01  0.92786584272E+01 -0.31931077917E+01  0.13521736316E+02  0.51100000000E-03 0.  1.
         12    1    3    3    0    0  0.21528163186E+02  0.19578460039E+02  0.23098541792E+00  0.29100365323E+02  0.00000000000E+00 0. -1.
</event>
<event>
 7    1  0.5849044E-013  0.5052887E+02  0.7816164E-02  0.1300439E+00
        -11   -1    0    0    0    0  0.00000000000E+00  0.00000000000E+00  0.45593999997E+02  0.45594000000E+02  0.51100000000E-03 0.  1.
         11   -1    0    0    0    0 -0.00000000000E+00 -0.00000000000E+00 -0.45593999997E+02  0.45594000000E+02  0.51100000000E-03 0. -1.
    9900012    2    1    2    0    0 -0.80838917812E+00  0.29181101531E+02  0.28301499418E+02  0.50528867582E+02  0.30000023503E+02 0.  0.
         12    1    1    2    0    0  0.80838917812E+00 -0.29181101531E+02 -0.28301499418E+02  0.40659132418E+02  0.00000000000E+00 0. -1.
         11    1    3    3    0    0  0.41331190712E+01  0.16575324428E+00  0.54778126641E+01  0.68641517494E+01  0.51100000000E-03 0. -1.
        -11    1    3    3    0    0  0.51928299509E+00  0.31284578842E+02  0.18632170121E+02  0.36416373953E+02  0.51100000000E-03 0.  1.
        -12    1    3    3    0    0 -0.54607912444E+01 -0.22692305552E+01  0.41915166329E+01  0.72483418802E+01  0.00000000000E+00 0.  1.
</event>
<event>
 7    1  0.5849044E-013  0.5052886E+02  0.7816164E-02  0.1300439E+00
        -11   -1    0    0    0    0  0.00000000000E+00  0.00000000000E+00  0.45593999997E+02  0.45594000000E+02  0.51100000000E-03 0.  1.
         11   -1    0    0    0    0 -0.00000000000E+00 -0.00000000000E+00 -0.45593999997E+02  0.45594000000E+02  0.51100000000E-03 0. -1.
    9900012    2    1    2    0    0  0.35914563150E+02  0.26438479988E+01  0.18876441990E+02  0.50528857846E+02  0.29999993907E+02 0.  0.
         12    1    1    2    0    0 -0.35914563150E+02 -0.26438479988E+01 -0.18876441990E+02  0.40659142154E+02  0.00000000000E+00 0. -1.
         11    1    3    3    0    0 -0.64815729547E+00 -0.39369429778E+01  0.44322077291E+00  0.40144828813E+01  0.51100000000E-03 0. -1.
        -11    1    3    3    0    0  0.28271337901E+02  0.13904853756E+02  0.15250305409E+02  0.35002647329E+02  0.51100000000E-03 0.  1.
        -12    1    3    3    0    0  0.82913825446E+01 -0.73240627798E+01  0.31829158088E+01  0.11511727635E+02  0.00000000000E+00 0.  1.
</event>
<event>
 7    1  0.5849044E-013  0.5052887E+02  0.7816164E-02  0.1300439E+00
        -11   -1    0    0    0    0  0.00000000000E+00  0.00000000000E+00  0.45593999997E+02  0.45594000000E+02  0.51100000000E-03 0.  1.
         11   -1    0    0    0    0 -0.00000000000E+00 -0.00000000000E+00 -0.45593999997E+02  0.45594000000E+02  0.51100000000E-03 0. -1.
    9900012    2    1    2    0    0 -0.10423473783E+02 -0.25488265555E+02  0.29914281293E+02  0.50528871726E+02  0.30000036099E+02 0.  0.
         12    1    1    2    0    0  0.10423473783E+02  0.25488265555E+02 -0.29914281293E+02  0.40659128274E+02  0.00000000000E+00 0. -1.
         11    1    3    3    0    0 -0.12636311664E+02 -0.72504967806E+01  0.24002184288E+02  0.28077587626E+02  0.51100000000E-03 0. -1.
        -11    1    3    3    0    0 -0.35953764636E+01 -0.14034964031E+02  0.40756161785E+01  0.15050501479E+02  0.51100000000E-03 0.  1.
         12    1    3    3    0    0  0.58082143448E+01 -0.42028047432E+01  0.18364808266E+01  0.74007826215E+01  0.00000000000E+00 0. -1.
</event>
<event>
 7    1  0.5849044E-013  0.5052886E+02  0.7816164E-02  0.1300439E+00
        -11   -1    0    0    0    0  0.00000000000E+00  0.00000000000E+00  0.45593999997E+02  0.45594000000E+02  0.51100000000E-03 0.  1.
         11   -1    0    0    0    0 -0.00000000000E+00 -0.00000000000E+00 -0.45593999997E+02  0.45594000000E+02  0.51100000000E-03 0. -1.
    9900012    2    1    2    0    0 -0.25259243538E+02 -0.30457037706E+02  0.93544207602E+01  0.50528859359E+02  0.29999998508E+02 0.  0.
         12    1    1    2    0    0  0.25259243538E+02  0.30457037706E+02 -0.93544207602E+01  0.40659140641E+02  0.00000000000E+00 0. -1.
         11    1    3    3    0    0 -0.17104667768E+02 -0.12383730721E+02 -0.79952898173E+01  0.22579882762E+02  0.51100000000E-03 0. -1.
        -11    1    3    3    0    0 -0.44594627347E+01 -0.17375294253E+02  0.12751167389E+02  0.22008633041E+02  0.51100000000E-03 0.  1.
         12    1    3    3    0    0 -0.36951130352E+01 -0.69801273171E+00  0.45985431881E+01  0.59403435565E+01  0.00000000000E+00 0. -1.
</event>
<event>
 7    1  0.5849044E-013  0.5052887E+02  0.7816164E-02  0.1300439E+00
        -11   -1    0    0    0    0  0.00000000000E+00  0.00000000000E+00  0.45593999997E+02  0.45594000000E+02  0.51100000000E-03 0.  1.
         11   -1    0    0    0    0 -0.00000000000E+00 -0.00000000000E+00 -0.45593999997E+02  0.45594000000E+02  0.51100000000E-03 0. -1.
    9900012    2    1    2    0    0  0.11799673173E+02  0.14975342628E+02  0.35912000261E+02  0.50528868964E+02  0.30000027704E+02 0.  0.
         12    1    1    2    0    0 -0.11799673173E+02 -0.14975342628E+02 -0.35912000261E+02  0.40659131036E+02  0.00000000000E+00 0. -1.
         11    1    3    3    0    0  0.10040327165E+02 -0.63086971225E+01  0.92123669596E+01  0.15015842774E+02  0.51100000000E-03 0. -1.
        -11    1    3    3    0    0 -0.92409604697E-01  0.84904375923E+01  0.39894026141E+01  0.93814393097E+01  0.51100000000E-03 0.  1.
         12    1    3    3    0    0  0.18517556134E+01  0.12793602159E+02  0.22710230687E+02  0.26131586881E+02  0.00000000000E+00 0. -1.
</event>
<event>
 7    1  0.5849044E-013  0.5052886E+02  0.7816164E-02  0.1300439E+00
        -11   -1    0    0    0    0  0.00000000000E+00  0.00000000000E+00  0.45593999997E+02  0.45594000000E+02  0.51100000000E-03 0.  1.
         11   -1    0    0    0    0 -0.00000000000E+00 -0.00000000000E+00 -0.45593999997E+02  0.45594000000E+02  0.51100000000E-03 0. -1.
    9900012    2    1    2    0    0  0.27609482745E+02  0.18627416813E+02  0.23321700140E+02  0.50528857215E+02  0.29999991992E+02 0.  0.
         12    1    1    2    0    0 -0.27609482745E+02 -0.18627416813E+02 -0.23321700140E+02  0.40659142785E+02  0.00000000000E+00 0. -1.
         11    1    3    3    0    0  0.31728639732E+02  0.96730238846E+01  0.14168453156E+02  0.36069641465E+02  0.51100000000E-03 0.  1.
        -11    1    3    3    0    0 -0.10563335425E+01  0.72549660336E+01  0.77986441542E+01  0.10703701397E+02  0.51100000000E-03 0. -1.
        -12    1    3    3    0    0 -0.30628234450E+01  0.16994268944E+01  0.13546028300E+01  0.37555143525E+01  0.00000000000E+00 0.  1.
</event>
<event>
 7    1  0.5849044E-013  0.5052886E+02  0.7816164E-02  0.1300439E+00
        -11   -1    0    0    0    0  0.00000000000E+00  0.00000000000E+00  0.45593999997E+02  0.45594000000E+02  0.51100000000E-03 0.  1.
         11   -1    0    0    0    0 -0.00000000000E+00 -0.00000000000E+00 -0.45593999997E+02  0.45594000000E+02  0.51100000000E-03 0. -1.
    9900012    2    1    2    0    0 -0.79369795397E+01 -0.10275801461E+02  0.38530219042E+02  0.50528861799E+02  0.30000005923E+02 0.  0.
         12    1    1    2    0    0  0.79369795397E+01  0.10275801461E+02 -0.38530219042E+02  0.40659138201E+02  0.00000000000E+00 0. -1.
         11    1    3    3    0    0 -0.15742015331E+02 -0.98764082338E+01  0.34081593236E+02  0.38818932032E+02  0.51100000000E-03 0. -1.
        -11    1    3    3    0    0  0.58880291624E+01 -0.28101387450E+01  0.54183805875E+01  0.84808381446E+01  0.51100000000E-03 0.  1.
         12    1    3    3    0    0  0.19170066292E+01  0.24107455178E+01 -0.96975478193E+00  0.32290916223E+01  0.00000000000E+00 0. -1.
</event>
<event>
 7    1  0.5849044E-013  0.5052885E+02  0.7816164E-02  0.1300439E+00
        -11   -1    0    0    0    0  0.00000000000E+00  0.00000000000E+00  0.45593999997E+02  0.45594000000E+02  0.51100000000E-03 0.  1.
         11   -1    0    0    0    0 -0.00000000000E+00 -0.00000000000E+00 -0.45593999997E+02  0.45594000000E+02  0.51100000000E-03 0. -1.
    9900012    2    1    2    0    0 -0.17517861583E+02  0.37360583876E+01  0.36501138775E+02  0.50528846805E+02  0.29999960347E+02 0.  0.
         12    1    1    2    0    0  0.17517861583E+02 -0.37360583876E+01 -0.36501138775E+02  0.40659153195E+02  0.00000000000E+00 0. -1.
         11    1    3    3    0    0 -0.18365078001E+02  0.81119388293E+01  0.26186965363E+02  0.32997527130E+02  0.51100000000E-03 0.  1.
        -11    1    3    3    0    0 -0.28887475884E+01 -0.64307513944E+01  0.11144830918E+02  0.13187368296E+02  0.51100000000E-03 0. -1.
         12    1    3    3    0    0  0.37359640063E+01  0.20548709526E+01 -0.83065750551E+00  0.43439513786E+01  0.00000000000E+00 0. -1.
</event>
<event>
 7    1  0.5849044E-013  0.5052887E+02  0.7816164E-02  0.1300439E+00
        -11   -1    0    0    0    0  0.00000000000E+00  0.00000000000E+00  0.45593999997E+02  0.45594000000E+02  0.51100000000E-03 0.  1.
         11   -1    0    0    0    0 -0.00000000000E+00 -0.00000000000E+00 -0.45593999997E+02  0.45594000000E+02  0.51100000000E-03 0. -1.
    9900012    2    1    2    0    0 -0.33345158563E+01 -0.95070317813E+00  0.40511010510E+02  0.50528870581E+02  0.30000032619E+02 0.  0.
         12    1    1    2    0    0  0.33345158563E+01  0.95070317813E+00 -0.40511010510E+02  0.40659129419E+02  0.00000000000E+00 0. -1.
         11    1    3    3    0    0  0.14224511597E+01  0.96058000395E+01  0.14533593532E+02  0.17479133357E+02  0.51100000000E-03 0. -1.
        -11    1    3    3    0    0 -0.11931043108E+01 -0.98168415286E+01  0.27409078702E+02  0.29138487796E+02  0.51100000000E-03 0.  1.
        -12    1    3    3    0    0 -0.35638627052E+01 -0.73966168904E+00 -0.14316617241E+01  0.39112494280E+01  0.00000000000E+00 0.  1.
</event>
<event>
 7    1  0.5849044E-013  0.5052885E+02  0.7816164E-02  0.1300439E+00
        -11   -1    0    0    0    0  0.00000000000E+00  0.00000000000E+00  0.45593999997E+02  0.45594000000E+02  0.51100000000E-03 0.  1.
         11   -1    0    0    0    0 -0.00000000000E+00 -0.00000000000E+00 -0.45593999997E+02  0.45594000000E+02  0.51100000000E-03 0. -1.
    9900012    2    1    2    0    0 -0.45330771503E+01 -0.27662574385E+01  0.40310862227E+02  0.50528848728E+02  0.29999966194E+02 0.  0.
         12    1    1    2    0    0  0.45330771503E+01  0.27662574385E+01 -0.40310862227E+02  0.40659151272E+02  0.00000000000E+00 0. -1.
         11    1    3    3    0    0 -0.46805427444E+01 -0.46980785223E+01 -0.20757919877E+01  0.69489808477E+01  0.51100000000E-03 0. -1.
        -11    1    3    3    0    0  0.47338323488E+01 -0.76851800333E+00  0.19129898856E+02  0.19721886804E+02  0.51100000000E-03 0.  1.
         12    1    3    3    0    0 -0.45863667547E+01  0.27003390872E+01  0.23256755359E+02  0.23857981076E+02  0.00000000000E+00 0. -1.
</event>
<event>
 7    1  0.5849044E-013  0.5052886E+02  0.7816164E-02  0.1300439E+00
        -11   -1    0    0    0    0  0.00000000000E+00  0.00000000000E+00  0.45593999997E+02  0.45594000000E+02  0.51100000000E-03 0. -1.
         11   -1    0    0    0    0 -0.00000000000E+00 -0.00000000000E+00 -0.45593999997E+02  0.45594000000E+02  0.51100000000E-03 0.  1.
    9900012    2    1    2    0    0  0.23319903316E+02  0.18635929128E+02 -0.27605249042E+02  0.50528861792E+02  0.30000005904E+02 0.  0.
         12    1    1    2    0    0 -0.23319903316E+02 -0.18635929128E+02  0.27605249042E+02  0.40659138208E+02  0.00000000000E+00 0. -1.
         11    1    3    3    0    0 -0.25181274759E+01  0.35065452113E+01 -0.10092902202E+01  0.44334515125E+01  0.51100000000E-03 0. -1.
        -11    1    3    3    0    0  0.11677250181E+02  0.53994828208E+01 -0.25877447277E+02  0.28899046081E+02  0.51100000000E-03 0.  1.
        -12    1    3    3    0    0  0.14160780610E+02  0.97299010960E+01 -0.71851154458E+00  0.17196364199E+02  0.00000000000E+00 0.  1.
</event>
<event>
 7    1  0.5849044E-013  0.5052885E+02  0.7816164E-02  0.1300439E+00
        -11   -1    0    0    0    0  0.00000000000E+00  0.00000000000E+00  0.45593999997E+02  0.45594000000E+02  0.51100000000E-03 0.  1.
         11   -1    0    0    0    0 -0.00000000000E+00 -0.00000000000E+00 -0.45593999997E+02  0.45594000000E+02  0.51100000000E-03 0. -1.
    9900012    2    1    2    0    0  0.19210843815E+02  0.30732163852E+02  0.18429427463E+02  0.50528853283E+02  0.29999980039E+02 0.  0.
         12    1    1    2    0    0 -0.19210843815E+02 -0.30732163852E+02 -0.18429427463E+02  0.40659146717E+02  0.00000000000E+00 0. -1.
         11    1    3    3    0    0  0.42641552575E+01 -0.25185721174E+01 -0.51084417371E+01  0.71149422213E+01  0.51100000000E-03 0. -1.
        -11    1    3    3    0    0  0.65787289264E+01  0.15177981670E+02  0.99502897496E+01  0.19304379509E+02  0.51100000000E-03 0.  1.
         12    1    3    3    0    0  0.83679596312E+01  0.18072754300E+02  0.13587579451E+02  0.24109531553E+02  0.00000000000E+00 0. -1.
</event>
<event>
 7    1  0.5849044E-013  0.5052885E+02  0.7816164E-02  0.1300439E+00
        -11   -1    0    0    0    0  0.00000000000E+00  0.00000000000E+00  0.45593999997E+02  0.45594000000E+02  0.51100000000E-03 0.  1.
         11   -1    0    0    0    0 -0.00000000000E+00 -0.00000000000E+00 -0.45593999997E+02  0.45594000000E+02  0.51100000000E-03 0. -1.
    9900012    2    1    2    0    0  0.34252155713E+02 -0.21762941715E+02  0.25161440296E+01  0.50528846247E+02  0.29999958653E+02 0.  0.
         12    1    1    2    0    0 -0.34252155713E+02  0.21762941715E+02 -0.25161440296E+01  0.40659153753E+02  0.00000000000E+00 0. -1.
         11    1    3    3    0    0 -0.79394574452E+00 -0.10949223406E+02  0.74103536669E+01  0.13244968281E+02  0.51100000000E-03 0. -1.
        -11    1    3    3    0    0  0.32961825724E+02 -0.90897489590E+01 -0.39529699566E+01  0.34419928282E+02  0.51100000000E-03 0.  1.
         12    1    3    3    0    0  0.20842757334E+01 -0.17239693500E+01 -0.94123968070E+00  0.28639496834E+01  0.00000000000E+00 0. -1.
</event>
<event>
 7    1  0.5849044E-013  0.5052885E+02  0.7816164E-02  0.1300439E+00
        -11   -1    0    0    0    0  0.00000000000E+00  0.00000000000E+00  0.45593999997E+02  0.45594000000E+02  0.51100000000E-03 0. -1.
         11   -1    0    0    0    0 -0.00000000000E+00 -0.00000000000E+00 -0.45593999997E+02  0.45594000000E+02  0.51100000000E-03 0.  1.
    9900012    2    1    2    0    0  0.32548994930E+02 -0.23873831888E+02 -0.48754203798E+01  0.50528847969E+02  0.29999963887E+02 0.  0.
         12    1    1    2    0    0 -0.32548994930E+02  0.23873831888E+02  0.48754203798E+01  0.40659152031E+02  0.00000000000E+00 0. -1.
         11    1    3    3    0    0 -0.99614489726E+00 -0.39652886176E+01 -0.36965775360E+01  0.55118512514E+01  0.51100000000E-03 0. -1.
        -11    1    3    3    0    0  0.25549668224E+02 -0.52068436599E+01  0.60816499537E+01  0.26774675230E+02  0.51100000000E-03 0.  1.
        -12    1    3    3    0    0  0.79954716034E+01 -0.14701699610E+02 -0.72604927975E+01  0.18242321487E+02  0.00000000000E+00 0.  1.
</event>
<event>
 7    1  0.5849044E-013  0.5052886E+02  0.7816164E-02  0.1300439E+00
        -11   -1    0    0    0    0  0.00000000000E+00  0.00000000000E+00  0.45593999997E+02  0.45594000000E+02  0.51100000000E-03 0. -1.
         11   -1    0    0    0    0 -0.00000000000E+00 -0.00000000000E+00 -0.45593999997E+02  0.45594000000E+02  0.51100000000E-03 0.  1.
    9900012    2    1    2    0    0 -0.40030984803E+02 -0.55556901364E+01  0.44519567856E+01  0.50528863802E+02  0.30000012012E+02 0.  0.
         12    1    1    2    0    0  0.40030984803E+02  0.55556901364E+01 -0.44519567856E+01  0.40659136198E+02  0.00000000000E+00 0. -1.
         11    1    3    3    0    0 -0.66135286223E+01 -0.13110427044E+02 -0.37853511521E+01  0.15164133398E+02  0.51100000000E-03 0. -1.
        -11    1    3    3    0    0 -0.10237809698E+02  0.22906131043E+01  0.39579303171E+01  0.11212710131E+02  0.51100000000E-03 0.  1.
         12    1    3    3    0    0 -0.23179646482E+02  0.52641238031E+01  0.42793776205E+01  0.24152020273E+02  0.00000000000E+00 0. -1.
</event>
<event>
 7    1  0.5849044E-013  0.5052886E+02  0.7816164E-02  0.1300439E+00
        -11   -1    0    0    0    0  0.00000000000E+00  0.00000000000E+00  0.45593999997E+02  0.45594000000E+02  0.51100000000E-03 0.  1.
         11   -1    0    0    0    0 -0.00000000000E+00 -0.00000000000E+00 -0.45593999997E+02  0.45594000000E+02  0.51100000000E-03 0. -1.
    9900012    2    1    2    0    0  0.48718907113E+01  0.32026539987E+02  0.24570935493E+02  0.50528862605E+02  0.30000008376E+02 0.  0.
         12    1    1    2    0    0 -0.48718907113E+01 -0.32026539987E+02 -0.24570935493E+02  0.40659137395E+02  0.00000000000E+00 0. -1.
         11    1    3    3    0    0  0.95391087181E+01 -0.97528195182E+00  0.98226343226E+01  0.13726977647E+02  0.51100000000E-03 0. -1.
        -11    1    3    3    0    0  0.67974123228E+00  0.11738925840E+02  0.59403413154E+01  0.13173916777E+02  0.51100000000E-03 0.  1.
         12    1    3    3    0    0 -0.53469592391E+01  0.21262896098E+02  0.88079598554E+01  0.23627968182E+02  0.00000000000E+00 0. -1.
</event>
<event>
 7    1  0.5849044E-013  0.5052889E+02  0.7816164E-02  0.1300439E+00
        -11   -1    0    0    0    0  0.00000000000E+00  0.00000000000E+00  0.45593999997E+02  0.45594000000E+02  0.51100000000E-03 0. -1.
         11   -1    0    0    0    0 -0.00000000000E+00 -0.00000000000E+00 -0.45593999997E+02  0.45594000000E+02  0.51100000000E-03 0.  1.
    9900012    2    1    2    0    0 -0.24831892675E+02 -0.21445625593E+02 -0.24013019574E+02  0.50528894501E+02  0.30000105326E+02 0.  0.
         12    1    1    2    0    0  0.24831892675E+02  0.21445625593E+02  0.24013019574E+02  0.40659105499E+02  0.00000000000E+00 0. -1.
         11    1    3    3    0    0 -0.16729152778E+02  0.10100104376E+01 -0.46205632454E+01  0.17384886503E+02  0.51100000000E-03 0. -1.
        -11    1    3    3    0    0 -0.13890434495E+01 -0.12941254025E+02 -0.35660156149E+01  0.13495257132E+02  0.51100000000E-03 0.  1.
         12    1    3    3    0    0 -0.67136964474E+01 -0.95143820053E+01 -0.15826440714E+02  0.19648750866E+02  0.00000000000E+00 0. -1.
</event>
<event>
 7    1  0.5849044E-013  0.5052887E+02  0.7816164E-02  0.1300439E+00
        -11   -1    0    0    0    0  0.00000000000E+00  0.00000000000E+00  0.45593999997E+02  0.45594000000E+02  0.51100000000E-03 0.  1.
         11   -1    0    0    0    0 -0.00000000000E+00 -0.00000000000E+00 -0.45593999997E+02  0.45594000000E+02  0.51100000000E-03 0. -1.
    9900012    2    1    2    0    0 -0.20005738516E+02 -0.25394856558E+02  0.24658402788E+02  0.50528866448E+02  0.30000020054E+02 0.  0.
         12    1    1    2    0    0  0.20005738516E+02  0.25394856558E+02 -0.24658402788E+02  0.40659133552E+02  0.00000000000E+00 0. -1.
         11    1    3    3    0    0 -0.35509013515E+01  0.45392125905E+01  0.71918675305E+01  0.92160897449E+01  0.51100000000E-03 0. -1.
        -11    1    3    3    0    0 -0.10160289896E+02 -0.24441289395E+02  0.19302010319E+02  0.32759360810E+02  0.51100000000E-03 0.  1.
         12    1    3    3    0    0 -0.62945472683E+01 -0.54927797538E+01 -0.18354750616E+01  0.85534158929E+01  0.00000000000E+00 0. -1.
</event>
<event>
 7    1  0.5849044E-013  0.5052878E+02  0.7816164E-02  0.1300439E+00
        -11   -1    0    0    0    0  0.00000000000E+00  0.00000000000E+00  0.45593999997E+02  0.45594000000E+02  0.51100000000E-03 0.  1.
         11   -1    0    0    0    0 -0.00000000000E+00 -0.00000000000E+00 -0.45593999997E+02  0.45594000000E+02  0.51100000000E-03 0. -1.
    9900012    2    1    2    0    0  0.87473731309E+00  0.32183726525E+02  0.24831723598E+02  0.50528783145E+02  0.29999766847E+02 0.  0.
         12    1    1    2    0    0 -0.87473731309E+00 -0.32183726525E+02 -0.24831723598E+02  0.40659216855E+02  0.00000000000E+00 0. -1.
         11    1    3    3    0    0 -0.93016405290E+00  0.16959466163E+00  0.22941828050E+00  0.97293397675E+00  0.51100000000E-03 0. -1.
        -11    1    3    3    0    0  0.14317211866E+01 -0.34036539310E+01 -0.29139740438E+01  0.47038208541E+01  0.51100000000E-03 0.  1.
        -12    1    3    3    0    0  0.37318017939E+00  0.35417785795E+02  0.27516279361E+02  0.44852028314E+02  0.00000000000E+00 0.  1.
</event>
<event>
 7    1  0.5849044E-013  0.5052886E+02  0.7816164E-02  0.1300439E+00
        -11   -1    0    0    0    0  0.00000000000E+00  0.00000000000E+00  0.45593999997E+02  0.45594000000E+02  0.51100000000E-03 0. -1.
         11   -1    0    0    0    0 -0.00000000000E+00 -0.00000000000E+00 -0.45593999997E+02  0.45594000000E+02  0.51100000000E-03 0.  1.
    9900012    2    1    2    0    0 -0.25588632995E+02  0.30854905310E+02 -0.68089940325E+01  0.50528859330E+02  0.29999998420E+02 0.  0.
         12    1    1    2    0    0  0.25588632995E+02 -0.30854905310E+02  0.68089940325E+01  0.40659140670E+02  0.00000000000E+00 0. -1.
         11    1    3    3    0    0 -0.73850834532E+01  0.27112637955E+02  0.41876296061E+01  0.28410752128E+02  0.51100000000E-03 0. -1.
        -11    1    3    3    0    0 -0.95006430672E+01  0.12604080784E+01 -0.82909182567E+01  0.12672417805E+02  0.51100000000E-03 0.  1.
         12    1    3    3    0    0 -0.87029064751E+01  0.24818592761E+01 -0.27057053819E+01  0.94456893975E+01  0.00000000000E+00 0. -1.
</event>
<event>
 7    1  0.5849044E-013  0.5052885E+02  0.7816164E-02  0.1300439E+00
        -11   -1    0    0    0    0  0.00000000000E+00  0.00000000000E+00  0.45593999997E+02  0.45594000000E+02  0.51100000000E-03 0.  1.
         11   -1    0    0    0    0 -0.00000000000E+00 -0.00000000000E+00 -0.45593999997E+02  0.45594000000E+02  0.51100000000E-03 0. -1.
    9900012    2    1    2    0    0 -0.38915117225E+02  0.37129749266E+01 -0.11180081464E+02  0.50528846627E+02  0.29999959807E+02 0.  0.
         12    1    1    2    0    0  0.38915117225E+02 -0.37129749266E+01  0.11180081464E+02  0.40659153373E+02  0.00000000000E+00 0. -1.
         11    1    3    3    0    0 -0.53525059305E+01  0.36398487628E+01 -0.76441153974E+01  0.10016502345E+02  0.51100000000E-03 0. -1.
        -11    1    3    3    0    0 -0.31222111842E+02 -0.72870647472E+01 -0.10547243585E+00  0.32061389633E+02  0.51100000000E-03 0.  1.
        -12    1    3    3    0    0 -0.23404994530E+01  0.73601909110E+01 -0.34304936308E+01  0.84509546494E+01  0.00000000000E+00 0.  1.
</event>
<event>
 7    1  0.5849044E-013  0.5052886E+02  0.7816164E-02  0.1300439E+00
        -11   -1    0    0    0    0  0.00000000000E+00  0.00000000000E+00  0.45593999997E+02  0.45594000000E+02  0.51100000000E-03 0.  1.
         11   -1    0    0    0    0 -0.00000000000E+00 -0.00000000000E+00 -0.45593999997E+02  0.45594000000E+02  0.51100000000E-03 0. -1.
    9900012    2    1    2    0    0  0.26001410792E+01  0.16158932994E+02  0.37219530073E+02  0.50528864888E+02  0.30000015315E+02 0.  0.
         12    1    1    2    0    0 -0.26001410792E+01 -0.16158932994E+02 -0.37219530073E+02  0.40659135112E+02  0.00000000000E+00 0. -1.
         11    1    3    3    0    0 -0.61072066642E+01 -0.13933894686E+01  0.10099468274E+01  0.63450374550E+01  0.51100000000E-03 0. -1.
        -11    1    3    3    0    0  0.10408044364E+02  0.14334374848E+02  0.16725696843E+02  0.24362894428E+02  0.51100000000E-03 0.  1.
        -12    1    3    3    0    0 -0.17006966207E+01  0.32179476146E+01  0.19483886403E+02  0.19820933005E+02  0.00000000000E+00 0.  1.
</event>
<event>
 7    1  0.5849044E-013  0.5052886E+02  0.7816164E-02  0.1300439E+00
        -11   -1    0    0    0    0  0.00000000000E+00  0.00000000000E+00  0.45593999997E+02  0.45594000000E+02  0.51100000000E-03 0.  1.
         11   -1    0    0    0    0 -0.00000000000E+00 -0.00000000000E+00 -0.45593999997E+02  0.45594000000E+02  0.51100000000E-03 0. -1.
    9900012    2    1    2    0    0 -0.15705945548E+01 -0.17114551085E+01  0.40592729845E+02  0.50528861272E+02  0.30000004322E+02 0.  0.
         12    1    1    2    0    0  0.15705945548E+01  0.17114551085E+01 -0.40592729845E+02  0.40659138728E+02  0.00000000000E+00 0. -1.
         11    1    3    3    0    0  0.96469723976E+01  0.56612856912E+01  0.17837186348E+02  0.21054202649E+02  0.51100000000E-03 0.  1.
        -11    1    3    3    0    0 -0.11545152221E+02 -0.10458940919E+02  0.19749524037E+02  0.25153999382E+02  0.51100000000E-03 0. -1.
         12    1    3    3    0    0  0.32758526808E+00  0.30862001194E+01  0.30060194595E+01  0.43206592409E+01  0.00000000000E+00 0. -1.
</event>
<event>
 7    1  0.5849044E-013  0.5052873E+02  0.7816164E-02  0.1300439E+00
        -11   -1    0    0    0    0  0.00000000000E+00  0.00000000000E+00  0.45593999997E+02  0.45594000000E+02  0.51100000000E-03 0.  1.
         11   -1    0    0    0    0 -0.00000000000E+00 -0.00000000000E+00 -0.45593999997E+02  0.45594000000E+02  0.51100000000E-03 0. -1.
    9900012    2    1    2    0    0 -0.97290373862E+01  0.32767155675E+02  0.22018982441E+02  0.50528729874E+02  0.29999604921E+02 0.  0.
         12    1    1    2    0    0  0.97290373862E+01 -0.32767155675E+02 -0.22018982441E+02  0.40659270126E+02  0.00000000000E+00 0. -1.
         11    1    3    3    0    0  0.27183452194E+01  0.29437835591E+02  0.10128493407E+02  0.31249991104E+02  0.51100000000E-03 0. -1.
        -11    1    3    3    0    0 -0.59754915539E+01  0.32654145810E+01  0.10722443929E+02  0.12701977632E+02  0.51100000000E-03 0.  1.
         12    1    3    3    0    0 -0.64718910516E+01  0.63905502709E-01  0.11680451047E+01  0.65767611378E+01  0.00000000000E+00 0. -1.
</event>
<event>
 7    1  0.5849044E-013  0.5052886E+02  0.7816164E-02  0.1300439E+00
        -11   -1    0    0    0    0  0.00000000000E+00  0.00000000000E+00  0.45593999997E+02  0.45594000000E+02  0.51100000000E-03 0.  1.
         11   -1    0    0    0    0 -0.00000000000E+00 -0.00000000000E+00 -0.45593999997E+02  0.45594000000E+02  0.51100000000E-03 0. -1.
    9900012    2    1    2    0    0 -0.33305271340E+02 -0.99281454622E+01  0.21103476635E+02  0.50528857148E+02  0.29999991787E+02 0.  0.
         12    1    1    2    0    0  0.33305271340E+02  0.99281454622E+01 -0.21103476635E+02  0.40659142852E+02  0.00000000000E+00 0. -1.
         11    1    3    3    0    0 -0.46349637466E+01 -0.21844174323E+01 -0.70932977044E+00  0.51727862353E+01  0.51100000000E-03 0. -1.
        -11    1    3    3    0    0 -0.18467025234E+01  0.36309084670E+01  0.14851878112E+02  0.15400392534E+02  0.51100000000E-03 0.  1.
        -12    1    3    3    0    0 -0.26823605070E+02 -0.11374636497E+02  0.69609282938E+01  0.29955678379E+02  0.00000000000E+00 0.  1.
</event>
<event>
 7    1  0.5849044E-013  0.5052884E+02  0.7816164E-02  0.1300439E+00
        -11   -1    0    0    0    0  0.00000000000E+00  0.00000000000E+00  0.45593999997E+02  0.45594000000E+02  0.51100000000E-03 0.  1.
         11   -1    0    0    0    0 -0.00000000000E+00 -0.00000000000E+00 -0.45593999997E+02  0.45594000000E+02  0.51100000000E-03 0. -1.
    9900012    2    1    2    0    0  0.43699897308E+01  0.20462185524E+02  0.34862143748E+02  0.50528844655E+02  0.29999953814E+02 0.  0.
         12    1    1    2    0    0 -0.43699897308E+01 -0.20462185524E+02 -0.34862143748E+02  0.40659155345E+02  0.00000000000E+00 0. -1.
         11    1    3    3    0    0 -0.41159746729E+01  0.49819694303E+01  0.12051788919E+02  0.13675046008E+02  0.51100000000E-03 0. -1.
        -11    1    3    3    0    0  0.12982514837E+02  0.47341209779E+01  0.20891033879E+02  0.25047812075E+02  0.51100000000E-03 0.  1.
        -12    1    3    3    0    0 -0.44965504336E+01  0.10746095116E+02  0.19193209497E+01  0.11805986572E+02  0.00000000000E+00 0.  1.
</event>
<event>
 7    1  0.5849044E-013  0.5052886E+02  0.7816164E-02  0.1300439E+00
        -11   -1    0    0    0    0  0.00000000000E+00  0.00000000000E+00  0.45593999997E+02  0.45594000000E+02  0.51100000000E-03 0.  1.
         11   -1    0    0    0    0 -0.00000000000E+00 -0.00000000000E+00 -0.45593999997E+02  0.45594000000E+02  0.51100000000E-03 0. -1.
    9900012    2    1    2    0    0  0.16041293831E+02  0.20390695023E+02  0.31305942027E+02  0.50528861329E+02  0.30000004496E+02 0.  0.
         12    1    1    2    0    0 -0.16041293831E+02 -0.20390695023E+02 -0.31305942027E+02  0.40659138671E+02  0.00000000000E+00 0. -1.
         11    1    3    3    0    0  0.26656176454E+01  0.18372268309E+01 -0.34511124446E+01  0.47319232058E+01  0.51100000000E-03 0. -1.
        -11    1    3    3    0    0  0.10087602691E+02  0.11918939775E+02  0.35066412706E+02  0.38385858773E+02  0.51100000000E-03 0.  1.
        -12    1    3    3    0    0  0.32880734946E+01  0.66345284168E+01 -0.30935823437E+00  0.74110793503E+01  0.00000000000E+00 0.  1.
</event>
<event>
 7    1  0.5849044E-013  0.5052885E+02  0.7816164E-02  0.1300439E+00
        -11   -1    0    0    0    0  0.00000000000E+00  0.00000000000E+00  0.45593999997E+02  0.45594000000E+02  0.51100000000E-03 0. -1.
         11   -1    0    0    0    0 -0.00000000000E+00 -0.00000000000E+00 -0.45593999997E+02  0.45594000000E+02  0.51100000000E-03 0.  1.
    9900012    2    1    2    0    0 -0.21553803902E+02  0.32217150411E+02 -0.12274153525E+02  0.50528854805E+02  0.29999984665E+02 0.  0.
         12    1    1    2    0    0  0.21553803902E+02 -0.32217150411E+02  0.12274153525E+02  0.40659145195E+02  0.00000000000E+00 0. -1.
         11    1    3    3    0    0  0.27533195305E+01  0.12267836446E+02 -0.13132297429E+02  0.18180698983E+02  0.51100000000E-03 0. -1.
        -11    1    3    3    0    0 -0.81298872757E+01  0.67015587012E+01 -0.32768313448E+01  0.11033747326E+02  0.51100000000E-03 0.  1.
         12    1    3    3    0    0 -0.16177236156E+02  0.13247755264E+02  0.41349752485E+01  0.21314408495E+02  0.00000000000E+00 0. -1.
</event>
<event>
 7    1  0.5849044E-013  0.5052886E+02  0.7816164E-02  0.1300439E+00
        -11   -1    0    0    0    0  0.00000000000E+00  0.00000000000E+00  0.45593999997E+02  0.45594000000E+02  0.51100000000E-03 0.  1.
         11   -1    0    0    0    0 -0.00000000000E+00 -0.00000000000E+00 -0.45593999997E+02  0.45594000000E+02  0.51100000000E-03 0. -1.
    9900012    2    1    2    0    0 -0.29819002629E+02  0.26813510604E+02 -0.67103298543E+01  0.50528858403E+02  0.29999995600E+02 0.  0.
         12    1    1    2    0    0  0.29819002629E+02 -0.26813510604E+02  0.67103298543E+01  0.40659141597E+02  0.00000000000E+00 0. -1.
         11    1    3    3    0    0 -0.43242449807E+01  0.82048068114E+01 -0.11287944251E+02  0.14609436510E+02  0.51100000000E-03 0. -1.
        -11    1    3    3    0    0 -0.26178519424E+02  0.14627149994E+02  0.23563246654E+00  0.29988729868E+02  0.51100000000E-03 0.  1.
         12    1    3    3    0    0  0.68376177530E+00  0.39815537977E+01  0.43419819299E+01  0.59306920245E+01  0.00000000000E+00 0. -1.
</event>
<event>
 7    1  0.5849044E-013  0.5052887E+02  0.7816164E-02  0.1300439E+00
        -11   -1    0    0    0    0  0.00000000000E+00  0.00000000000E+00  0.45593999997E+02  0.45594000000E+02  0.51100000000E-03 0.  1.
         11   -1    0    0    0    0 -0.00000000000E+00 -0.00000000000E+00 -0.45593999997E+02  0.45594000000E+02  0.51100000000E-03 0. -1.
    9900012    2    1    2    0    0 -0.14851563495E+00  0.39998483210E+02  0.72982544241E+01  0.50528865311E+02  0.30000016599E+02 0.  0.
         12    1    1    2    0    0  0.14851563495E+00 -0.39998483210E+02 -0.72982544241E+01  0.40659134689E+02  0.00000000000E+00 0. -1.
         11    1    3    3    0    0 -0.71431861456E+00  0.59284236722E+01  0.13529757484E+02  0.14788874067E+02  0.51100000000E-03 0. -1.
        -11    1    3    3    0    0  0.24298098715E+01  0.16577995019E+02 -0.69378638717E+01  0.18134713955E+02  0.51100000000E-03 0.  1.
        -12    1    3    3    0    0 -0.18640068919E+01  0.17492064519E+02  0.70636081157E+00  0.17605277289E+02  0.00000000000E+00 0.  1.
</event>
<event>
 7    1  0.5849044E-013  0.5052888E+02  0.7816164E-02  0.1300439E+00
        -11   -1    0    0    0    0  0.00000000000E+00  0.00000000000E+00  0.45593999997E+02  0.45594000000E+02  0.51100000000E-03 0.  1.
         11   -1    0    0    0    0 -0.00000000000E+00 -0.00000000000E+00 -0.45593999997E+02  0.45594000000E+02  0.51100000000E-03 0. -1.
    9900012    2    1    2    0    0 -0.49832512040E+01 -0.39095224465E+02  0.99947295559E+01  0.50528880636E+02  0.30000063183E+02 0.  0.
         12    1    1    2    0    0  0.49832512040E+01  0.39095224465E+02 -0.99947295559E+01  0.40659119364E+02  0.00000000000E+00 0. -1.
         11    1    3    3    0    0 -0.75165505860E+00  0.73286141838E+00 -0.20202746850E+01  0.22767479548E+01  0.51100000000E-03 0. -1.
        -11    1    3    3    0    0  0.76547956747E+01 -0.19958111948E+02  0.13104041674E+02  0.25072655181E+02  0.51100000000E-03 0.  1.
        -12    1    3    3    0    0 -0.11886391820E+02 -0.19869973935E+02 -0.10890374333E+01  0.23179477501E+02  0.00000000000E+00 0.  1.
</event>
<event>
 7    1  0.5849044E-013  0.5052885E+02  0.7816164E-02  0.1300439E+00
        -11   -1    0    0    0    0  0.00000000000E+00  0.00000000000E+00  0.45593999997E+02  0.45594000000E+02  0.51100000000E-03 0.  1.
         11   -1    0    0    0    0 -0.00000000000E+00 -0.00000000000E+00 -0.45593999997E+02  0.45594000000E+02  0.51100000000E-03 0. -1.
    9900012    2    1    2    0    0 -0.32951635711E+02  0.63358127708E+01  0.22961127076E+02  0.50528853722E+02  0.29999981374E+02 0.  0.
         12    1    1    2    0    0  0.32951635711E+02 -0.63358127708E+01 -0.22961127076E+02  0.40659146278E+02  0.00000000000E+00 0. -1.
         11    1    3    3    0    0 -0.25901572083E+02  0.46471653364E+01  0.12453434342E+01  0.26344609744E+02  0.51100000000E-03 0. -1.
        -11    1    3    3    0    0  0.69500712777E+00  0.27408290736E+01  0.56588353081E+01  0.63259462710E+01  0.51100000000E-03 0.  1.
         12    1    3    3    0    0 -0.77450707549E+01 -0.10521816392E+01  0.16056948333E+02  0.17858297707E+02  0.00000000000E+00 0. -1.
</event>
<event>
 7    1  0.5849044E-013  0.5052887E+02  0.7816164E-02  0.1300439E+00
        -11   -1    0    0    0    0  0.00000000000E+00  0.00000000000E+00  0.45593999997E+02  0.45594000000E+02  0.51100000000E-03 0.  1.
         11   -1    0    0    0    0 -0.00000000000E+00 -0.00000000000E+00 -0.45593999997E+02  0.45594000000E+02  0.51100000000E-03 0. -1.
    9900012    2    1    2    0    0 -0.33080959917E+02 -0.22399302346E+02 -0.75555403762E+01  0.50528870091E+02  0.30000031127E+02 0.  0.
         12    1    1    2    0    0  0.33080959917E+02  0.22399302346E+02  0.75555403762E+01  0.40659129909E+02  0.00000000000E+00 0. -1.
         11    1    3    3    0    0 -0.29825534966E+02 -0.25847580182E+02 -0.13260161749E+02  0.41635223395E+02  0.51100000000E-03 0. -1.
        -11    1    3    3    0    0 -0.28340818472E+01 -0.46497349902E+00  0.27018361831E+01  0.39431128937E+01  0.51100000000E-03 0.  1.
         12    1    3    3    0    0 -0.42134310395E+00  0.39132513355E+01  0.30027851899E+01  0.49505338018E+01  0.00000000000E+00 0. -1.
</event>
<event>
 7    1  0.5849044E-013  0.5052886E+02  0.7816164E-02  0.1300439E+00
        -11   -1    0    0    0    0  0.00000000000E+00  0.00000000000E+00  0.45593999997E+02  0.45594000000E+02  0.51100000000E-03 0. -1.
         11   -1    0    0    0    0 -0.00000000000E+00 -0.00000000000E+00 -0.45593999997E+02  0.45594000000E+02  0.51100000000E-03 0.  1.
    9900012    2    1    2    0    0 -0.99070815110E+01  0.14956315733E+02 -0.36487312128E+02  0.50528860920E+02  0.30000003253E+02 0.  0.
         12    1    1    2    0    0  0.99070815110E+01 -0.14956315733E+02  0.36487312128E+02  0.40659139080E+02  0.00000000000E+00 0. -1.
         11    1    3    3    0    0  0.40086302062E+00  0.17846048799E+02 -0.21985205195E+02  0.28319452619E+02  0.51100000000E-03 0. -1.
        -11    1    3    3    0    0 -0.86654686599E+01 -0.69154578862E+01 -0.13961559478E+02  0.17828041064E+02  0.51100000000E-03 0.  1.
        -12    1    3    3    0    0 -0.16424758718E+01  0.40257248200E+01 -0.54054745578E+00  0.43813672373E+01  0.00000000000E+00 0.  1.
</event>
<event>
 7    1  0.5849044E-013  0.5052888E+02  0.7816164E-02  0.1300439E+00
        -11   -1    0    0    0    0  0.00000000000E+00  0.00000000000E+00  0.45593999997E+02  0.45594000000E+02  0.51100000000E-03 0.  1.
         11   -1    0    0    0    0 -0.00000000000E+00 -0.00000000000E+00 -0.45593999997E+02  0.45594000000E+02  0.51100000000E-03 0. -1.
    9900012    2    1    2    0    0  0.21227157648E+02 -0.32428089518E+02  0.12287827855E+02  0.50528881404E+02  0.30000065517E+02 0.  0.
         12    1    1    2    0    0 -0.21227157648E+02  0.32428089518E+02 -0.12287827855E+02  0.40659118596E+02  0.00000000000E+00 0. -1.
         11    1    3    3    0    0 -0.34586186243E+01 -0.45447120923E+01  0.70788145859E+01  0.90953871272E+01  0.51100000000E-03 0. -1.
        -11    1    3    3    0    0  0.10331972818E+02 -0.17684340964E+02 -0.49957989563E+01  0.21081830687E+02  0.51100000000E-03 0.  1.
        -12    1    3    3    0    0  0.14353803454E+02 -0.10199036461E+02  0.10204812225E+02  0.20351663590E+02  0.00000000000E+00 0.  1.
</event>
<event>
 7    1  0.5849044E-013  0.5052882E+02  0.7816164E-02  0.1300439E+00
        -11   -1    0    0    0    0  0.00000000000E+00  0.00000000000E+00  0.45593999997E+02  0.45594000000E+02  0.51100000000E-03 0. -1.
         11   -1    0    0    0    0 -0.00000000000E+00 -0.00000000000E+00 -0.45593999997E+02  0.45594000000E+02  0.51100000000E-03 0.  1.
    9900012    2    1    2    0    0 -0.27516651078E+02  0.13988323828E+02 -0.26463739559E+02  0.50528821435E+02  0.29999883234E+02 0.  0.
         12    1    1    2    0    0  0.27516651078E+02 -0.13988323828E+02  0.26463739559E+02  0.40659178565E+02  0.00000000000E+00 0. -1.
         11    1    3    3    0    0 -0.67557105628E+01 -0.50899019081E+01  0.73418324377E+00  0.84903328521E+01  0.51100000000E-03 0. -1.
        -11    1    3    3    0    0 -0.12918248629E+02  0.13794338100E+02 -0.77747461200E+01  0.20435547185E+02  0.51100000000E-03 0.  1.
        -12    1    3    3    0    0 -0.78426918865E+01  0.52838876360E+01 -0.19423176683E+02  0.21602941398E+02  0.00000000000E+00 0.  1.
</event>
<event>
 7    1  0.5849044E-013  0.5052885E+02  0.7816164E-02  0.1300439E+00
        -11   -1    0    0    0    0  0.00000000000E+00  0.00000000000E+00  0.45593999997E+02  0.45594000000E+02  0.51100000000E-03 0.  1.
         11   -1    0    0    0    0 -0.00000000000E+00 -0.00000000000E+00 -0.45593999997E+02  0.45594000000E+02  0.51100000000E-03 0. -1.
    9900012    2    1    2    0    0  0.28266908788E+02  0.62073248312E+01  0.28559012471E+02  0.50528853338E+02  0.29999980205E+02 0.  0.
         12    1    1    2    0    0 -0.28266908788E+02 -0.62073248312E+01 -0.28559012471E+02  0.40659146662E+02  0.00000000000E+00 0. -1.
         11    1    3    3    0    0  0.97879472929E+00  0.81003612619E+01  0.79581811385E+01  0.11397654978E+02  0.51100000000E-03 0. -1.
        -11    1    3    3    0    0  0.12071181902E+02 -0.77645240347E+01  0.21635637869E+01  0.14514898364E+02  0.51100000000E-03 0.  1.
        -12    1    3    3    0    0  0.15216932157E+02  0.58714876040E+01  0.18437267546E+02  0.24616299996E+02  0.00000000000E+00 0.  1.
</event>
<event>
 7    1  0.5849044E-013  0.5052884E+02  0.7816164E-02  0.1300439E+00
        -11   -1    0    0    0    0  0.00000000000E+00  0.00000000000E+00  0.45593999997E+02  0.45594000000E+02  0.51100000000E-03 0.  1.
         11   -1    0    0    0    0 -0.00000000000E+00 -0.00000000000E+00 -0.45593999997E+02  0.45594000000E+02  0.51100000000E-03 0. -1.
    9900012    2    1    2    0    0 -0.17568724890E+02  0.13461074250E+01  0.36642800866E+02  0.50528844145E+02  0.29999952265E+02 0.  0.
         12    1    1    2    0    0  0.17568724890E+02 -0.13461074250E+01 -0.36642800866E+02  0.40659155855E+02  0.00000000000E+00 0. -1.
         11    1    3    3    0    0 -0.12834325518E+02  0.19279302718E+01  0.15127515051E+02  0.19931847343E+02  0.51100000000E-03 0. -1.
        -11    1    3    3    0    0  0.48198206785E+01  0.66980239134E+01  0.14508631625E+02  0.16691152974E+02  0.51100000000E-03 0.  1.
        -12    1    3    3    0    0 -0.95542200510E+01 -0.72798467601E+01  0.70066541908E+01  0.13905843829E+02  0.00000000000E+00 0.  1.
</event>
<event>
 7    1  0.5849044E-013  0.5052886E+02  0.7816164E-02  0.1300439E+00
        -11   -1    0    0    0    0  0.00000000000E+00  0.00000000000E+00  0.45593999997E+02  0.45594000000E+02  0.51100000000E-03 0. -1.
         11   -1    0    0    0    0 -0.00000000000E+00 -0.00000000000E+00 -0.45593999997E+02  0.45594000000E+02  0.51100000000E-03 0.  1.
    9900012    2    1    2    0    0  0.84030711968E+01 -0.25542778944E+02 -0.30497870984E+02  0.50528864540E+02  0.30000014257E+02 0.  0.
         12    1    1    2    0    0 -0.84030711968E+01  0.25542778944E+02  0.30497870984E+02  0.40659135460E+02  0.00000000000E+00 0. -1.
         11    1    3    3    0    0 -0.65003225342E+01 -0.59222774175E+01  0.12550003083E+01  0.88827129242E+01  0.51100000000E-03 0. -1.
        -11    1    3    3    0    0  0.14871660704E+02 -0.20873874154E+02 -0.29593657848E+02  0.39149323102E+02  0.51100000000E-03 0.  1.
        -12    1    3    3    0    0  0.31733027266E-01  0.12533726272E+01 -0.21592134447E+01  0.24968285138E+01  0.00000000000E+00 0.  1.
</event>
<event>
 7    1  0.5849044E-013  0.5052887E+02  0.7816164E-02  0.1300439E+00
        -11   -1    0    0    0    0  0.00000000000E+00  0.00000000000E+00  0.45593999997E+02  0.45594000000E+02  0.51100000000E-03 0.  1.
         11   -1    0    0    0    0 -0.00000000000E+00 -0.00000000000E+00 -0.45593999997E+02  0.45594000000E+02  0.51100000000E-03 0. -1.
    9900012    2    1    2    0    0 -0.10858767047E+02  0.39087706373E+02  0.27209281214E+01  0.50528867433E+02  0.30000023050E+02 0.  0.
         12    1    1    2    0    0  0.10858767047E+02 -0.39087706373E+02 -0.27209281214E+01  0.40659132567E+02  0.00000000000E+00 0. -1.
         11    1    3    3    0    0 -0.15843971506E+02  0.27701823065E+02 -0.73200222512E+01  0.32741489890E+02  0.51100000000E-03 0. -1.
        -11    1    3    3    0    0  0.40375228631E+01  0.44278415562E+01  0.60154374429E+00  0.60223937811E+01  0.51100000000E-03 0.  1.
         12    1    3    3    0    0  0.94768159632E+00  0.69580417517E+01  0.94394066283E+01  0.11764983762E+02  0.00000000000E+00 0. -1.
</event>
<event>
 7    1  0.5849044E-013  0.5052885E+02  0.7816164E-02  0.1300439E+00
        -11   -1    0    0    0    0  0.00000000000E+00  0.00000000000E+00  0.45593999997E+02  0.45594000000E+02  0.51100000000E-03 0.  1.
         11   -1    0    0    0    0 -0.00000000000E+00 -0.00000000000E+00 -0.45593999997E+02  0.45594000000E+02  0.51100000000E-03 0. -1.
    9900012    2    1    2    0    0 -0.35253178745E+02 -0.17853862547E+02  0.95717908976E+01  0.50528853422E+02  0.29999980462E+02 0.  0.
         12    1    1    2    0    0  0.35253178745E+02  0.17853862547E+02 -0.95717908976E+01  0.40659146578E+02  0.00000000000E+00 0. -1.
         11    1    3    3    0    0 -0.95226128423E+01 -0.10354667576E+02  0.94088892404E+01  0.16924139356E+02  0.51100000000E-03 0. -1.
        -11    1    3    3    0    0 -0.68409262004E+01  0.26604432811E+01 -0.78141495859E+01  0.10720875139E+02  0.51100000000E-03 0.  1.
        -12    1    3    3    0    0 -0.18889639702E+02 -0.10159638253E+02  0.79770512431E+01  0.22883838927E+02  0.00000000000E+00 0.  1.
</event>
<event>
 7    1  0.5849044E-013  0.5052892E+02  0.7816164E-02  0.1300439E+00
        -11   -1    0    0    0    0  0.00000000000E+00  0.00000000000E+00  0.45593999997E+02  0.45594000000E+02  0.51100000000E-03 0. -1.
         11   -1    0    0    0    0 -0.00000000000E+00 -0.00000000000E+00 -0.45593999997E+02  0.45594000000E+02  0.51100000000E-03 0.  1.
    9900012    2    1    2    0    0 -0.30103136755E+02 -0.24978448874E+02  0.11092311523E+02  0.50528915830E+02  0.30000170156E+02 0.  0.
         12    1    1    2    0    0  0.30103136755E+02  0.24978448874E+02 -0.11092311523E+02  0.40659084170E+02  0.00000000000E+00 0. -1.
         11    1    3    3    0    0 -0.15856741975E+02 -0.22693672147E+02  0.13696343823E+01  0.27718494190E+02  0.51100000000E-03 0. -1.
        -11    1    3    3    0    0 -0.46759683206E+01  0.53186246781E+01 -0.17264210743E+00  0.70839433764E+01  0.51100000000E-03 0.  1.
        -12    1    3    3    0    0 -0.95704264599E+01 -0.76034014043E+01  0.98953192483E+01  0.15726478263E+02  0.00000000000E+00 0.  1.
</event>
<event>
 7    1  0.5849044E-013  0.5052886E+02  0.7816164E-02  0.1300439E+00
        -11   -1    0    0    0    0  0.00000000000E+00  0.00000000000E+00  0.45593999997E+02  0.45594000000E+02  0.51100000000E-03 0. -1.
         11   -1    0    0    0    0 -0.00000000000E+00 -0.00000000000E+00 -0.45593999997E+02  0.45594000000E+02  0.51100000000E-03 0.  1.
    9900012    2    1    2    0    0  0.74786682405E+01  0.96748419520E+01 -0.38776697325E+02  0.50528864484E+02  0.30000014087E+02 0.  0.
         12    1    1    2    0    0 -0.74786682405E+01 -0.96748419520E+01  0.38776697325E+02  0.40659135516E+02  0.00000000000E+00 0. -1.
         11    1    3    3    0    0  0.13194474617E+01  0.94682547209E+01 -0.34832851660E+01  0.10174579346E+02  0.51100000000E-03 0. -1.
        -11    1    3    3    0    0  0.80176255739E+01 -0.17237093632E+01 -0.36504119446E+02  0.37413957697E+02  0.51100000000E-03 0.  1.
        -12    1    3    3    0    0 -0.18584047950E+01  0.19302965943E+01  0.12107072870E+01  0.29403274407E+01  0.00000000000E+00 0.  1.
</event>
<event>
 7    1  0.5849044E-013  0.5052886E+02  0.7816164E-02  0.1300439E+00
        -11   -1    0    0    0    0  0.00000000000E+00  0.00000000000E+00  0.45593999997E+02  0.45594000000E+02  0.51100000000E-03 0.  1.
         11   -1    0    0    0    0 -0.00000000000E+00 -0.00000000000E+00 -0.45593999997E+02  0.45594000000E+02  0.51100000000E-03 0. -1.
    9900012    2    1    2    0    0 -0.69566940398E+01  0.39897866166E+02 -0.35958873267E+01  0.50528859303E+02  0.29999998336E+02 0.  0.
         12    1    1    2    0    0  0.69566940398E+01 -0.39897866166E+02  0.35958873267E+01  0.40659140697E+02  0.00000000000E+00 0. -1.
         11    1    3    3    0    0  0.35228324827E+01  0.17226650413E+02 -0.10671076341E+02  0.20567929008E+02  0.51100000000E-03 0. -1.
        -11    1    3    3    0    0 -0.99996529230E+01  0.15440383047E+02 -0.18223758461E+01  0.18485657716E+02  0.51100000000E-03 0.  1.
         12    1    3    3    0    0 -0.47987359955E+00  0.72308327065E+01  0.88975648605E+01  0.11475272578E+02  0.00000000000E+00 0. -1.
</event>
<event>
 7    1  0.5849044E-013  0.5052879E+02  0.7816164E-02  0.1300439E+00
        -11   -1    0    0    0    0  0.00000000000E+00  0.00000000000E+00  0.45593999997E+02  0.45594000000E+02  0.51100000000E-03 0.  1.
         11   -1    0    0    0    0 -0.00000000000E+00 -0.00000000000E+00 -0.45593999997E+02  0.45594000000E+02  0.51100000000E-03 0. -1.
    9900012    2    1    2    0    0  0.18893862252E+02  0.96456999167E+00  0.35989762350E+02  0.50528789235E+02  0.29999785357E+02 0.  0.
         12    1    1    2    0    0 -0.18893862252E+02 -0.96456999167E+00 -0.35989762350E+02  0.40659210765E+02  0.00000000000E+00 0. -1.
         11    1    3    3    0    0  0.37278591190E+01 -0.37804692702E+01  0.32343377145E+02  0.32776255535E+02  0.51100000000E-03 0. -1.
        -11    1    3    3    0    0  0.27443945333E+01 -0.80077101885E+00  0.29848390030E+01  0.41330617844E+01  0.51100000000E-03 0.  1.
         12    1    3    3    0    0  0.12421608600E+02  0.55458102808E+01  0.66154620186E+00  0.13619471915E+02  0.00000000000E+00 0. -1.
</event>
<event>
 7    1  0.5849044E-013  0.5052882E+02  0.7816164E-02  0.1300439E+00
        -11   -1    0    0    0    0  0.00000000000E+00  0.00000000000E+00  0.45593999997E+02  0.45594000000E+02  0.51100000000E-03 0.  1.
         11   -1    0    0    0    0 -0.00000000000E+00 -0.00000000000E+00 -0.45593999997E+02  0.45594000000E+02  0.51100000000E-03 0. -1.
    9900012    2    1    2    0    0 -0.28893067981E+02  0.38975758626E+00  0.28604322199E+02  0.50528824691E+02  0.29999893131E+02 0.  0.
         12    1    1    2    0    0  0.28893067981E+02 -0.38975758626E+00 -0.28604322199E+02  0.40659175309E+02  0.00000000000E+00 0. -1.
         11    1    3    3    0    0 -0.61852773383E+01 -0.27332278010E+01 -0.35621360665E+01  0.76431016990E+01  0.51100000000E-03 0. -1.
        -11    1    3    3    0    0 -0.21890353327E+02  0.74273197149E+01  0.30330867502E+02  0.38135471291E+02  0.51100000000E-03 0.  1.
        -12    1    3    3    0    0 -0.81743731578E+00 -0.43043343276E+01  0.18355907634E+01  0.47502517007E+01  0.00000000000E+00 0.  1.
</event>
<event>
 7    1  0.5849044E-013  0.5052886E+02  0.7816164E-02  0.1300439E+00
        -11   -1    0    0    0    0  0.00000000000E+00  0.00000000000E+00  0.45593999997E+02  0.45594000000E+02  0.51100000000E-03 0.  1.
         11   -1    0    0    0    0 -0.00000000000E+00 -0.00000000000E+00 -0.45593999997E+02  0.45594000000E+02  0.51100000000E-03 0. -1.
    9900012    2    1    2    0    0 -0.19057428834E+02 -0.20737545178E+02  0.29324640699E+02  0.50528856798E+02  0.29999990724E+02 0.  0.
         12    1    1    2    0    0  0.19057428834E+02  0.20737545178E+02 -0.29324640699E+02  0.40659143202E+02  0.00000000000E+00 0. -1.
         11    1    3    3    0    0  0.67684894787E+01 -0.59929473082E+01  0.20793172165E+01  0.92763908720E+01  0.51100000000E-03 0. -1.
        -11    1    3    3    0    0 -0.11985045213E+02 -0.54667843481E+01  0.66367465533E+01  0.14750371010E+02  0.51100000000E-03 0.  1.
         12    1    3    3    0    0 -0.13840873100E+02 -0.92778135222E+01  0.20608576929E+02  0.26502094916E+02  0.00000000000E+00 0. -1.
</event>
<event>
 7    1  0.5849044E-013  0.5052887E+02  0.7816164E-02  0.1300439E+00
        -11   -1    0    0    0    0  0.00000000000E+00  0.00000000000E+00  0.45593999997E+02  0.45594000000E+02  0.51100000000E-03 0.  1.
         11   -1    0    0    0    0 -0.00000000000E+00 -0.00000000000E+00 -0.45593999997E+02  0.45594000000E+02  0.51100000000E-03 0. -1.
    9900012    2    1    2    0    0 -0.84085779419E+01 -0.65207024968E+01  0.39242080547E+02  0.50528872738E+02  0.30000039174E+02 0.  0.
         12    1    1    2    0    0  0.84085779419E+01  0.65207024968E+01 -0.39242080547E+02  0.40659127262E+02  0.00000000000E+00 0. -1.
         11    1    3    3    0    0 -0.50328787045E+01  0.69449567142E+01  0.33563194566E+01  0.92101667940E+01  0.51100000000E-03 0. -1.
        -11    1    3    3    0    0 -0.18740863956E+01 -0.11475240671E+02  0.10066858456E+02  0.15379694006E+02  0.51100000000E-03 0.  1.
         12    1    3    3    0    0 -0.15016128418E+01 -0.19904185403E+01  0.25818902634E+02  0.25939011938E+02  0.00000000000E+00 0. -1.
</event>
<event>
 7    1  0.5849044E-013  0.5052886E+02  0.7816164E-02  0.1300439E+00
        -11   -1    0    0    0    0  0.00000000000E+00  0.00000000000E+00  0.45593999997E+02  0.45594000000E+02  0.51100000000E-03 0. -1.
         11   -1    0    0    0    0 -0.00000000000E+00 -0.00000000000E+00 -0.45593999997E+02  0.45594000000E+02  0.51100000000E-03 0.  1.
    9900012    2    1    2    0    0  0.13761209255E+02  0.19114175817E+02 -0.33142762695E+02  0.50528864293E+02  0.30000013506E+02 0.  0.
         12    1    1    2    0    0 -0.13761209255E+02 -0.19114175817E+02  0.33142762695E+02  0.40659135707E+02  0.00000000000E+00 0. -1.
         11    1    3    3    0    0 -0.48187414069E+01  0.13439174051E+02 -0.18214195872E+02  0.23142787201E+02  0.51100000000E-03 0. -1.
        -11    1    3    3    0    0  0.88487123044E+01  0.41239479823E+01 -0.14553859416E+02  0.17524881756E+02  0.51100000000E-03 0.  1.
         12    1    3    3    0    0  0.97312383575E+01  0.15510537845E+01 -0.37470740683E+00  0.98611953359E+01  0.00000000000E+00 0. -1.
</event>
<event>
 7    1  0.5849044E-013  0.5052886E+02  0.7816164E-02  0.1300439E+00
        -11   -1    0    0    0    0  0.00000000000E+00  0.00000000000E+00  0.45593999997E+02  0.45594000000E+02  0.51100000000E-03 0.  1.
         11   -1    0    0    0    0 -0.00000000000E+00 -0.00000000000E+00 -0.45593999997E+02  0.45594000000E+02  0.51100000000E-03 0. -1.
    9900012    2    1    2    0    0  0.33531656125E+02 -0.22082151528E+02  0.64165943881E+01  0.50528855123E+02  0.29999985632E+02 0.  0.
         12    1    1    2    0    0 -0.33531656125E+02  0.22082151528E+02 -0.64165943881E+01  0.40659144877E+02  0.00000000000E+00 0. -1.
         11    1    3    3    0    0  0.25973669711E+01 -0.51996561542E+01 -0.42885263591E+01  0.72231709033E+01  0.51100000000E-03 0. -1.
        -11    1    3    3    0    0  0.30054900722E+02 -0.55438251624E+01  0.84898925731E+01  0.31719226520E+02  0.51100000000E-03 0.  1.
        -12    1    3    3    0    0  0.87938843160E+00 -0.11338670211E+02  0.22152281741E+01  0.11586457700E+02  0.00000000000E+00 0.  1.
</event>
<event>
 7    1  0.5849044E-013  0.5052876E+02  0.7816164E-02  0.1300439E+00
        -11   -1    0    0    0    0  0.00000000000E+00  0.00000000000E+00  0.45593999997E+02  0.45594000000E+02  0.51100000000E-03 0.  1.
         11   -1    0    0    0    0 -0.00000000000E+00 -0.00000000000E+00 -0.45593999997E+02  0.45594000000E+02  0.51100000000E-03 0. -1.
    9900012    2    1    2    0    0  0.15927205142E+02  0.28625643149E+02  0.24084654003E+02  0.50528759134E+02  0.29999693863E+02 0.  0.
         12    1    1    2    0    0 -0.15927205142E+02 -0.28625643149E+02 -0.24084654003E+02  0.40659240866E+02  0.00000000000E+00 0. -1.
         11    1    3    3    0    0  0.70679767596E+01  0.13838881116E+02  0.18831767933E+02  0.24415290491E+02  0.51100000000E-03 0. -1.
        -11    1    3    3    0    0  0.14502717143E+02  0.75749658510E+01  0.42249998114E+01  0.16898506911E+02  0.51100000000E-03 0.  1.
        -12    1    3    3    0    0 -0.56434887607E+01  0.72117961817E+01  0.10278862584E+01  0.92149617318E+01  0.00000000000E+00 0.  1.
</event>
<event>
 7    1  0.5849044E-013  0.5052886E+02  0.7816164E-02  0.1300439E+00
        -11   -1    0    0    0    0  0.00000000000E+00  0.00000000000E+00  0.45593999997E+02  0.45594000000E+02  0.51100000000E-03 0. -1.
         11   -1    0    0    0    0 -0.00000000000E+00 -0.00000000000E+00 -0.45593999997E+02  0.45594000000E+02  0.51100000000E-03 0.  1.
    9900012    2    1    2    0    0 -0.89569988510E+01 -0.39042720997E+02 -0.69716343607E+01  0.50528861090E+02  0.30000003769E+02 0.  0.
         12    1    1    2    0    0  0.89569988510E+01  0.39042720997E+02  0.69716343607E+01  0.40659138910E+02  0.00000000000E+00 0. -1.
         11    1    3    3    0    0 -0.14703461663E+02 -0.27130126374E+02 -0.12389325687E+02  0.33252532733E+02  0.51100000000E-03 0.  1.
        -11    1    3    3    0    0  0.16527119589E+01 -0.32113881332E+01  0.66639789180E+01  0.75797813848E+01  0.51100000000E-03 0. -1.
        -12    1    3    3    0    0  0.40937508528E+01 -0.87012064898E+01 -0.12462875921E+01  0.96965469723E+01  0.00000000000E+00 0.  1.
</event>
<event>
 7    1  0.5849044E-013  0.5052885E+02  0.7816164E-02  0.1300439E+00
        -11   -1    0    0    0    0  0.00000000000E+00  0.00000000000E+00  0.45593999997E+02  0.45594000000E+02  0.51100000000E-03 0.  1.
         11   -1    0    0    0    0 -0.00000000000E+00 -0.00000000000E+00 -0.45593999997E+02  0.45594000000E+02  0.51100000000E-03 0. -1.
    9900012    2    1    2    0    0  0.23521846657E+02 -0.29107758238E+02  0.15894268850E+02  0.50528847991E+02  0.29999963953E+02 0.  0.
         12    1    1    2    0    0 -0.23521846657E+02  0.29107758238E+02 -0.15894268850E+02  0.40659152009E+02  0.00000000000E+00 0. -1.
         11    1    3    3    0    0  0.84678015603E+00  0.99753436094E+00  0.57671312295E+01  0.59137056329E+01  0.51100000000E-03 0. -1.
        -11    1    3    3    0    0  0.26579372259E+02 -0.23007328120E+02  0.65470655581E+01  0.35758415018E+02  0.51100000000E-03 0.  1.
        -12    1    3    3    0    0 -0.39043057579E+01 -0.70979644790E+01  0.35800720626E+01  0.88567273397E+01  0.00000000000E+00 0.  1.
</event>
<event>
 7    1  0.5849044E-013  0.5052886E+02  0.7816164E-02  0.1300439E+00
        -11   -1    0    0    0    0  0.00000000000E+00  0.00000000000E+00  0.45593999997E+02  0.45594000000E+02  0.51100000000E-03 0.  1.
         11   -1    0    0    0    0 -0.00000000000E+00 -0.00000000000E+00 -0.45593999997E+02  0.45594000000E+02  0.51100000000E-03 0. -1.
    9900012    2    1    2    0    0 -0.24820934297E+02  0.28813230584E+02  0.14383487972E+02  0.50528858810E+02  0.29999996840E+02 0.  0.
         12    1    1    2    0    0  0.24820934297E+02 -0.28813230584E+02 -0.14383487972E+02  0.40659141190E+02  0.00000000000E+00 0. -1.
         11    1    3    3    0    0 -0.24266870797E+02  0.17691720305E+02  0.70383445115E+01  0.30845036543E+02  0.51100000000E-03 0. -1.
        -11    1    3    3    0    0 -0.89822517312E+00  0.14659113689E+02  0.55336461203E+01  0.15694510578E+02  0.51100000000E-03 0.  1.
        -12    1    3    3    0    0  0.34416167284E+00 -0.35376034104E+01  0.18114973398E+01  0.39893116898E+01  0.00000000000E+00 0.  1.
</event>
<event>
 7    1  0.5849044E-013  0.5052887E+02  0.7816164E-02  0.1300439E+00
        -11   -1    0    0    0    0  0.00000000000E+00  0.00000000000E+00  0.45593999997E+02  0.45594000000E+02  0.51100000000E-03 0. -1.
         11   -1    0    0    0    0 -0.00000000000E+00 -0.00000000000E+00 -0.45593999997E+02  0.45594000000E+02  0.51100000000E-03 0.  1.
    9900012    2    1    2    0    0 -0.23434537261E+02  0.33222179965E+02  0.52339671686E+00  0.50528871598E+02  0.30000035711E+02 0.  0.
         12    1    1    2    0    0  0.23434537261E+02 -0.33222179965E+02 -0.52339671686E+00  0.40659128402E+02  0.00000000000E+00 0. -1.
         11    1    3    3    0    0 -0.10298535826E+02  0.19664527547E+02 -0.56043325789E+00  0.22205124848E+02  0.51100000000E-03 0. -1.
        -11    1    3    3    0    0 -0.18026508295E+02  0.57663284718E+01  0.22148226359E+01  0.19055471260E+02  0.51100000000E-03 0.  1.
        -12    1    3    3    0    0  0.48905068600E+01  0.77913239460E+01 -0.11309926611E+01  0.92682754910E+01  0.00000000000E+00 0.  1.
</event>
<event>
 7    1  0.5849044E-013  0.5052883E+02  0.7816164E-02  0.1300439E+00
        -11   -1    0    0    0    0  0.00000000000E+00  0.00000000000E+00  0.45593999997E+02  0.45594000000E+02  0.51100000000E-03 0. -1.
         11   -1    0    0    0    0 -0.00000000000E+00 -0.00000000000E+00 -0.45593999997E+02  0.45594000000E+02  0.51100000000E-03 0.  1.
    9900012    2    1    2    0    0 -0.40509604340E+02  0.17264642088E+01  0.30264115604E+01  0.50528832652E+02  0.29999917330E+02 0.  0.
         12    1    1    2    0    0  0.40509604340E+02 -0.17264642088E+01 -0.30264115604E+01  0.40659167348E+02  0.00000000000E+00 0. -1.
         11    1    3    3    0    0 -0.10474401783E+02  0.11295348360E+02  0.16643366948E+01  0.15494128055E+02  0.51100000000E-03 0. -1.
        -11    1    3    3    0    0 -0.23395510438E+02 -0.13024152695E+01 -0.28935443594E+01  0.23609718198E+02  0.51100000000E-03 0.  1.
         12    1    3    3    0    0 -0.66396921191E+01 -0.82664688821E+01  0.42556192250E+01  0.11424986398E+02  0.00000000000E+00 0. -1.
</event>
<event>
 7    1  0.5849044E-013  0.5052886E+02  0.7816164E-02  0.1300439E+00
        -11   -1    0    0    0    0  0.00000000000E+00  0.00000000000E+00  0.45593999997E+02  0.45594000000E+02  0.51100000000E-03 0. -1.
         11   -1    0    0    0    0 -0.00000000000E+00 -0.00000000000E+00 -0.45593999997E+02  0.45594000000E+02  0.51100000000E-03 0.  1.
    9900012    2    1    2    0    0  0.33117583270E+02  0.30565219206E+01 -0.23389076963E+02  0.50528861186E+02  0.30000004061E+02 0.  0.
         12    1    1    2    0    0 -0.33117583270E+02 -0.30565219206E+01  0.23389076963E+02  0.40659138814E+02  0.00000000000E+00 0. -1.
         11    1    3    3    0    0  0.30364766210E+02  0.88254607356E+01 -0.15415342080E+02  0.35178694630E+02  0.51100000000E-03 0. -1.
        -11    1    3    3    0    0  0.23996559708E+01 -0.78034538225E+01 -0.11792273371E+01  0.82488070478E+01  0.51100000000E-03 0.  1.
         12    1    3    3    0    0  0.35316108989E+00  0.20345150074E+01 -0.67945075463E+01  0.71013595084E+01  0.00000000000E+00 0. -1.
</event>
<event>
 7    1  0.5849044E-013  0.5052887E+02  0.7816164E-02  0.1300439E+00
        -11   -1    0    0    0    0  0.00000000000E+00  0.00000000000E+00  0.45593999997E+02  0.45594000000E+02  0.51100000000E-03 0.  1.
         11   -1    0    0    0    0 -0.00000000000E+00 -0.00000000000E+00 -0.45593999997E+02  0.45594000000E+02  0.51100000000E-03 0. -1.
    9900012    2    1    2    0    0  0.31767197532E+02  0.80328441252E+01  0.24072462139E+02  0.50528869941E+02  0.30000030672E+02 0.  0.
         12    1    1    2    0    0 -0.31767197532E+02 -0.80328441252E+01 -0.24072462139E+02  0.40659130059E+02  0.00000000000E+00 0. -1.
         11    1    3    3    0    0  0.73156436318E+01 -0.17816320283E+01 -0.65927463326E+01  0.10007854860E+02  0.51100000000E-03 0. -1.
        -11    1    3    3    0    0  0.15563147810E+02  0.59960823496E+01  0.21340584413E+02  0.27084776474E+02  0.51100000000E-03 0.  1.
         12    1    3    3    0    0  0.88884060900E+01  0.38183938039E+01  0.93246240582E+01  0.13436238606E+02  0.00000000000E+00 0. -1.
</event>
<event>
 7    1  0.5849044E-013  0.5052886E+02  0.7816164E-02  0.1300439E+00
        -11   -1    0    0    0    0  0.00000000000E+00  0.00000000000E+00  0.45593999997E+02  0.45594000000E+02  0.51100000000E-03 0.  1.
         11   -1    0    0    0    0 -0.00000000000E+00 -0.00000000000E+00 -0.45593999997E+02  0.45594000000E+02  0.51100000000E-03 0. -1.
    9900012    2    1    2    0    0  0.29850882892E+02  0.25431589753E+02  0.10738919938E+02  0.50528863656E+02  0.30000011568E+02 0.  0.
         12    1    1    2    0    0 -0.29850882892E+02 -0.25431589753E+02 -0.10738919938E+02  0.40659136344E+02  0.00000000000E+00 0. -1.
         11    1    3    3    0    0  0.23002526666E+02  0.28193065783E+02 -0.16755222202E+00  0.36386718253E+02  0.51100000000E-03 0. -1.
        -11    1    3    3    0    0  0.69534844089E+01 -0.11637594988E+01  0.10182238224E+02  0.12384799438E+02  0.51100000000E-03 0.  1.
         12    1    3    3    0    0 -0.10512818213E+00 -0.15977165306E+01  0.72423393558E+00  0.17573459649E+01  0.00000000000E+00 0. -1.
</event>
<event>
 7    1  0.5849044E-013  0.5052886E+02  0.7816164E-02  0.1300439E+00
        -11   -1    0    0    0    0  0.00000000000E+00  0.00000000000E+00  0.45593999997E+02  0.45594000000E+02  0.51100000000E-03 0.  1.
         11   -1    0    0    0    0 -0.00000000000E+00 -0.00000000000E+00 -0.45593999997E+02  0.45594000000E+02  0.51100000000E-03 0. -1.
    9900012    2    1    2    0    0 -0.40260009283E+02  0.46296699978E+01  0.32959873475E+01  0.50528859276E+02  0.29999998256E+02 0.  0.
         12    1    1    2    0    0  0.40260009283E+02 -0.46296699978E+01 -0.32959873475E+01  0.40659140724E+02  0.00000000000E+00 0. -1.
         11    1    3    3    0    0 -0.47141483475E+01 -0.45868030185E+01  0.27561257482E+01  0.71314925488E+01  0.51100000000E-03 0. -1.
        -11    1    3    3    0    0 -0.14271900699E+02  0.15608762008E+02  0.10762460293E+01  0.21177320576E+02  0.51100000000E-03 0.  1.
        -12    1    3    3    0    0 -0.21273960237E+02 -0.63922889921E+01 -0.53638443005E+00  0.22220046152E+02  0.00000000000E+00 0.  1.
</event>
<event>
 7    1  0.5849044E-013  0.5052886E+02  0.7816164E-02  0.1300439E+00
        -11   -1    0    0    0    0  0.00000000000E+00  0.00000000000E+00  0.45593999997E+02  0.45594000000E+02  0.51100000000E-03 0.  1.
         11   -1    0    0    0    0 -0.00000000000E+00 -0.00000000000E+00 -0.45593999997E+02  0.45594000000E+02  0.51100000000E-03 0. -1.
    9900012    2    1    2    0    0 -0.40108493132E+02  0.59790979514E+01  0.29538376011E+01  0.50528856008E+02  0.29999988321E+02 0.  0.
         12    1    1    2    0    0  0.40108493132E+02 -0.59790979514E+01 -0.29538376011E+01  0.40659143992E+02  0.00000000000E+00 0. -1.
         11    1    3    3    0    0 -0.24359503563E+02 -0.26011102623E+01 -0.90551037666E+01  0.26117926658E+02  0.51100000000E-03 0. -1.
        -11    1    3    3    0    0 -0.13016220148E+02  0.11110739701E+02  0.11577015656E+02  0.20661505642E+02  0.51100000000E-03 0.  1.
        -12    1    3    3    0    0 -0.27327694203E+01 -0.25305314875E+01  0.43192571163E+00  0.37494237070E+01  0.00000000000E+00 0.  1.
</event>
<event>
 7    1  0.5849044E-013  0.5052885E+02  0.7816164E-02  0.1300439E+00
        -11   -1    0    0    0    0  0.00000000000E+00  0.00000000000E+00  0.45593999997E+02  0.45594000000E+02  0.51100000000E-03 0.  1.
         11   -1    0    0    0    0 -0.00000000000E+00 -0.00000000000E+00 -0.45593999997E+02  0.45594000000E+02  0.51100000000E-03 0. -1.
    9900012    2    1    2    0    0 -0.19480761075E+02  0.28467997560E+02  0.21522992691E+02  0.50528854024E+02  0.29999982291E+02 0.  0.
         12    1    1    2    0    0  0.19480761075E+02 -0.28467997560E+02 -0.21522992691E+02  0.40659145976E+02  0.00000000000E+00 0. -1.
         11    1    3    3    0    0 -0.10807802675E+02  0.16262190181E+01  0.11511379877E+02  0.15873407129E+02  0.51100000000E-03 0. -1.
        -11    1    3    3    0    0 -0.18007470136E+01  0.21568280631E+02  0.30478720517E+00  0.21645468687E+02  0.51100000000E-03 0.  1.
        -12    1    3    3    0    0 -0.68722113865E+01  0.52734979104E+01  0.97068256092E+01  0.13009978207E+02  0.00000000000E+00 0.  1.
</event>
<event>
 7    1  0.5849044E-013  0.5052886E+02  0.7816164E-02  0.1300439E+00
        -11   -1    0    0    0    0  0.00000000000E+00  0.00000000000E+00  0.45593999997E+02  0.45594000000E+02  0.51100000000E-03 0. -1.
         11   -1    0    0    0    0 -0.00000000000E+00 -0.00000000000E+00 -0.45593999997E+02  0.45594000000E+02  0.51100000000E-03 0.  1.
    9900012    2    1    2    0    0 -0.26320334606E+02 -0.10584390020E+02 -0.29126896791E+02  0.50528862743E+02  0.30000008793E+02 0.  0.
         12    1    1    2    0    0  0.26320334606E+02  0.10584390020E+02  0.29126896791E+02  0.40659137257E+02  0.00000000000E+00 0. -1.
         11    1    3    3    0    0 -0.26649586679E+01 -0.12598961804E+02 -0.35993254585E+01  0.13371274706E+02  0.51100000000E-03 0. -1.
        -11    1    3    3    0    0 -0.24980554877E+02  0.52083426022E+00 -0.23271136511E+02  0.34144475176E+02  0.51100000000E-03 0.  1.
         12    1    3    3    0    0  0.13251789389E+01  0.14937375242E+01 -0.22564348206E+01  0.30131128606E+01  0.00000000000E+00 0. -1.
</event>
<event>
 7    1  0.5849044E-013  0.5052886E+02  0.7816164E-02  0.1300439E+00
        -11   -1    0    0    0    0  0.00000000000E+00  0.00000000000E+00  0.45593999997E+02  0.45594000000E+02  0.51100000000E-03 0.  1.
         11   -1    0    0    0    0 -0.00000000000E+00 -0.00000000000E+00 -0.45593999997E+02  0.45594000000E+02  0.51100000000E-03 0. -1.
    9900012    2    1    2    0    0  0.14274363664E+02 -0.34364087091E+02  0.16386503438E+02  0.50528862841E+02  0.30000009092E+02 0.  0.
         12    1    1    2    0    0 -0.14274363664E+02  0.34364087091E+02 -0.16386503438E+02  0.40659137159E+02  0.00000000000E+00 0. -1.
         11    1    3    3    0    0  0.19183032597E+02 -0.10794632158E+02  0.47248762372E+01  0.22513046856E+02  0.51100000000E-03 0. -1.
        -11    1    3    3    0    0 -0.54817655398E+01 -0.70537174708E+01  0.45425483055E+01  0.10021947364E+02  0.51100000000E-03 0.  1.
        -12    1    3    3    0    0  0.57309660641E+00 -0.16515737462E+02  0.71190788955E+01  0.17993868621E+02  0.00000000000E+00 0.  1.
</event>
<event>
 7    1  0.5849044E-013  0.5052883E+02  0.7816164E-02  0.1300439E+00
        -11   -1    0    0    0    0  0.00000000000E+00  0.00000000000E+00  0.45593999997E+02  0.45594000000E+02  0.51100000000E-03 0. -1.
         11   -1    0    0    0    0 -0.00000000000E+00 -0.00000000000E+00 -0.45593999997E+02  0.45594000000E+02  0.51100000000E-03 0.  1.
    9900012    2    1    2    0    0 -0.29336366009E+02  0.55420760472E+01 -0.27601291230E+02  0.50528828155E+02  0.29999903659E+02 0.  0.
         12    1    1    2    0    0  0.29336366009E+02 -0.55420760472E+01  0.27601291230E+02  0.40659171845E+02  0.00000000000E+00 0. -1.
         11    1    3    3    0    0 -0.23322173450E+01 -0.11016944126E+01 -0.10508522419E+01  0.27851856344E+01  0.51100000000E-03 0. -1.
        -11    1    3    3    0    0 -0.27218476782E+02 -0.15572804858E+01 -0.28363788665E+02  0.39341773073E+02  0.51100000000E-03 0.  1.
        -12    1    3    3    0    0  0.21432811809E+00  0.82010509456E+01  0.18133496765E+01  0.84018694470E+01  0.00000000000E+00 0.  1.
</event>
<event>
 7    1  0.5849044E-013  0.5052885E+02  0.7816164E-02  0.1300439E+00
        -11   -1    0    0    0    0  0.00000000000E+00  0.00000000000E+00  0.45593999997E+02  0.45594000000E+02  0.51100000000E-03 0.  1.
         11   -1    0    0    0    0 -0.00000000000E+00 -0.00000000000E+00 -0.45593999997E+02  0.45594000000E+02  0.51100000000E-03 0. -1.
    9900012    2    1    2    0    0  0.18382054527E+02  0.36230570561E+02 -0.16162261540E+01  0.50528851475E+02  0.29999974542E+02 0.  0.
         12    1    1    2    0    0 -0.18382054527E+02 -0.36230570561E+02  0.16162261540E+01  0.40659148525E+02  0.00000000000E+00 0. -1.
         11    1    3    3    0    0 -0.44058159331E+01  0.14488899690E+02  0.83949937075E+01  0.17315176808E+02  0.51100000000E-03 0. -1.
        -11    1    3    3    0    0  0.22744109329E+02  0.21844157857E+02 -0.10046580843E+02  0.33096760091E+02  0.51100000000E-03 0.  1.
         12    1    3    3    0    0  0.43761131807E-01 -0.10248698655E+00  0.35360981045E-01  0.11691457587E+00  0.00000000000E+00 0. -1.
</event>
<event>
 7    1  0.5849044E-013  0.5052888E+02  0.7816164E-02  0.1300439E+00
        -11   -1    0    0    0    0  0.00000000000E+00  0.00000000000E+00  0.45593999997E+02  0.45594000000E+02  0.51100000000E-03 0.  1.
         11   -1    0    0    0    0 -0.00000000000E+00 -0.00000000000E+00 -0.45593999997E+02  0.45594000000E+02  0.51100000000E-03 0. -1.
    9900012    2    1    2    0    0 -0.95212080265E+01  0.36461486601E+02  0.15266654840E+02  0.50528878546E+02  0.30000056829E+02 0.  0.
         12    1    1    2    0    0  0.95212080265E+01 -0.36461486601E+02 -0.15266654840E+02  0.40659121454E+02  0.00000000000E+00 0. -1.
         11    1    3    3    0    0 -0.28675287083E+01 -0.10842641771E+01  0.34858100892E+01  0.46421139515E+01  0.51100000000E-03 0. -1.
        -11    1    3    3    0    0 -0.12644514195E+02  0.21920836964E+02 -0.19818538870E+00  0.25307036772E+02  0.51100000000E-03 0.  1.
        -12    1    3    3    0    0  0.59908348772E+01  0.15624913813E+02  0.11979030139E+02  0.20579727823E+02  0.00000000000E+00 0.  1.
</event>
<event>
 7    1  0.5849044E-013  0.5052884E+02  0.7816164E-02  0.1300439E+00
        -11   -1    0    0    0    0  0.00000000000E+00  0.00000000000E+00  0.45593999997E+02  0.45594000000E+02  0.51100000000E-03 0.  1.
         11   -1    0    0    0    0 -0.00000000000E+00 -0.00000000000E+00 -0.45593999997E+02  0.45594000000E+02  0.51100000000E-03 0. -1.
    9900012    2    1    2    0    0 -0.39639312165E+02  0.72216242237E+01  0.54534528421E+01  0.50528842689E+02  0.29999947838E+02 0.  0.
         12    1    1    2    0    0  0.39639312165E+02 -0.72216242237E+01 -0.54534528421E+01  0.40659157311E+02  0.00000000000E+00 0. -1.
         11    1    3    3    0    0 -0.47491417845E+01  0.77009302351E+01  0.10736963637E+02  0.14040693095E+02  0.51100000000E-03 0. -1.
        -11    1    3    3    0    0 -0.49812548855E+01 -0.27948574477E+01 -0.28714564489E+01  0.63929172360E+01  0.51100000000E-03 0.  1.
         12    1    3    3    0    0 -0.29908915495E+02  0.23155514363E+01 -0.24120543460E+01  0.30095232358E+02  0.00000000000E+00 0. -1.
</event>
<event>
 7    1  0.5849044E-013  0.5052886E+02  0.7816164E-02  0.1300439E+00
        -11   -1    0    0    0    0  0.00000000000E+00  0.00000000000E+00  0.45593999997E+02  0.45594000000E+02  0.51100000000E-03 0. -1.
         11   -1    0    0    0    0 -0.00000000000E+00 -0.00000000000E+00 -0.45593999997E+02  0.45594000000E+02  0.51100000000E-03 0.  1.
    9900012    2    1    2    0    0  0.33015962255E+02  0.19351932325E+02 -0.13733702288E+02  0.50528860475E+02  0.30000001900E+02 0.  0.
         12    1    1    2    0    0 -0.33015962255E+02 -0.19351932325E+02  0.13733702288E+02  0.40659139525E+02  0.00000000000E+00 0. -1.
         11    1    3    3    0    0  0.29441732700E+02  0.34252369861E+01 -0.91702390060E+01  0.31026458974E+02  0.51100000000E-03 0. -1.
        -11    1    3    3    0    0  0.19767940960E+01  0.16451108068E+02 -0.56434026449E+01  0.17504132804E+02  0.51100000000E-03 0.  1.
         12    1    3    3    0    0  0.15974354596E+01 -0.52441272875E+00  0.10799393629E+01  0.19982686969E+01  0.00000000000E+00 0. -1.
</event>
<event>
 7    1  0.5849044E-013  0.5052886E+02  0.7816164E-02  0.1300439E+00
        -11   -1    0    0    0    0  0.00000000000E+00  0.00000000000E+00  0.45593999997E+02  0.45594000000E+02  0.51100000000E-03 0.  1.
         11   -1    0    0    0    0 -0.00000000000E+00 -0.00000000000E+00 -0.45593999997E+02  0.45594000000E+02  0.51100000000E-03 0. -1.
    9900012    2    1    2    0    0  0.57564913584E+01  0.39670598836E+02  0.68023504439E+01  0.50528861097E+02  0.30000003790E+02 0.  0.
         12    1    1    2    0    0 -0.57564913584E+01 -0.39670598836E+02 -0.68023504439E+01  0.40659138903E+02  0.00000000000E+00 0. -1.
         11    1    3    3    0    0 -0.12177363271E+01  0.16635758261E+02 -0.49250173956E+01  0.17392157178E+02  0.51100000000E-03 0. -1.
        -11    1    3    3    0    0 -0.34456845164E+01  0.59088939166E+01  0.11150871775E+02  0.13081655503E+02  0.51100000000E-03 0.  1.
         12    1    3    3    0    0  0.10419912202E+02  0.17125946659E+02  0.57649606454E+00  0.20055048416E+02  0.00000000000E+00 0. -1.
</event>
<event>
 7    1  0.5849044E-013  0.5052886E+02  0.7816164E-02  0.1300439E+00
        -11   -1    0    0    0    0  0.00000000000E+00  0.00000000000E+00  0.45593999997E+02  0.45594000000E+02  0.51100000000E-03 0.  1.
         11   -1    0    0    0    0 -0.00000000000E+00 -0.00000000000E+00 -0.45593999997E+02  0.45594000000E+02  0.51100000000E-03 0. -1.
    9900012    2    1    2    0    0  0.48365964074E+01 -0.12299109363E+02  0.38451332419E+02  0.50528859321E+02  0.29999998392E+02 0.  0.
         12    1    1    2    0    0 -0.48365964074E+01  0.12299109363E+02 -0.38451332419E+02  0.40659140679E+02  0.00000000000E+00 0. -1.
         11    1    3    3    0    0  0.45846254574E+00 -0.11557056898E+02  0.38676661600E+02  0.40369046370E+02  0.51100000000E-03 0. -1.
        -11    1    3    3    0    0  0.58859571316E+01  0.26113080257E+01  0.29743946313E+00  0.64460756631E+01  0.51100000000E-03 0.  1.
         12    1    3    3    0    0 -0.15078232699E+01 -0.33533604903E+01 -0.52276864344E+00  0.37137372882E+01  0.00000000000E+00 0. -1.
</event>
<event>
 7    1  0.5849044E-013  0.5052884E+02  0.7816164E-02  0.1300439E+00
        -11   -1    0    0    0    0  0.00000000000E+00  0.00000000000E+00  0.45593999997E+02  0.45594000000E+02  0.51100000000E-03 0.  1.
         11   -1    0    0    0    0 -0.00000000000E+00 -0.00000000000E+00 -0.45593999997E+02  0.45594000000E+02  0.51100000000E-03 0. -1.
    9900012    2    1    2    0    0  0.13794912848E+01 -0.12263510826E+02  0.38741073013E+02  0.50528838275E+02  0.29999934421E+02 0.  0.
         12    1    1    2    0    0 -0.13794912848E+01  0.12263510826E+02 -0.38741073013E+02  0.40659161725E+02  0.00000000000E+00 0. -1.
         11    1    3    3    0    0  0.63306434067E+00  0.89415141501E+01  0.88612564900E+01  0.12604495730E+02  0.51100000000E-03 0. -1.
        -11    1    3    3    0    0  0.44192325429E+01 -0.17312104415E+02  0.21176366081E+02  0.27706985693E+02  0.51100000000E-03 0.  1.
         12    1    3    3    0    0 -0.36728055988E+01 -0.38929205615E+01  0.87034504412E+01  0.10217356852E+02  0.00000000000E+00 0. -1.
</event>
<event>
 7    1  0.5849044E-013  0.5052885E+02  0.7816164E-02  0.1300439E+00
        -11   -1    0    0    0    0  0.00000000000E+00  0.00000000000E+00  0.45593999997E+02  0.45594000000E+02  0.51100000000E-03 0.  1.
         11   -1    0    0    0    0 -0.00000000000E+00 -0.00000000000E+00 -0.45593999997E+02  0.45594000000E+02  0.51100000000E-03 0. -1.
    9900012    2    1    2    0    0  0.15236743571E+02  0.92402173626E+01  0.36546219215E+02  0.50528854528E+02  0.29999983824E+02 0.  0.
         12    1    1    2    0    0 -0.15236743571E+02 -0.92402173626E+01 -0.36546219215E+02  0.40659145472E+02  0.00000000000E+00 0. -1.
         11    1    3    3    0    0  0.10903813609E+02  0.77720155923E+01  0.34907239449E+02  0.37387334003E+02  0.51100000000E-03 0.  1.
        -11    1    3    3    0    0  0.47838302791E+01 -0.36438661464E+01  0.42691606172E+01  0.73748576440E+01  0.51100000000E-03 0. -1.
         12    1    3    3    0    0 -0.45090031750E+00  0.51120679167E+01 -0.26301808513E+01  0.57666628817E+01  0.00000000000E+00 0. -1.
</event>
<event>
 7    1  0.5849044E-013  0.5052886E+02  0.7816164E-02  0.1300439E+00
        -11   -1    0    0    0    0  0.00000000000E+00  0.00000000000E+00  0.45593999997E+02  0.45594000000E+02  0.51100000000E-03 0.  1.
         11   -1    0    0    0    0 -0.00000000000E+00 -0.00000000000E+00 -0.45593999997E+02  0.45594000000E+02  0.51100000000E-03 0. -1.
    9900012    2    1    2    0    0 -0.89426282061E+01  0.35117458508E+01  0.39507755332E+02  0.50528859705E+02  0.29999999558E+02 0.  0.
         12    1    1    2    0    0  0.89426282061E+01 -0.35117458508E+01 -0.39507755332E+02  0.40659140295E+02  0.00000000000E+00 0. -1.
         11    1    3    3    0    0 -0.53453467504E+01 -0.31109417612E+01  0.76068971280E+01  0.98038550938E+01  0.51100000000E-03 0. -1.
        -11    1    3    3    0    0 -0.28298782935E+01  0.15174612752E+02  0.26230152374E+02  0.30435143784E+02  0.51100000000E-03 0.  1.
        -12    1    3    3    0    0 -0.76740316218E+00 -0.85519251402E+01  0.56707058301E+01  0.10289860826E+02  0.00000000000E+00 0.  1.
</event>
<event>
 7    1  0.5849044E-013  0.5052886E+02  0.7816164E-02  0.1300439E+00
        -11   -1    0    0    0    0  0.00000000000E+00  0.00000000000E+00  0.45593999997E+02  0.45594000000E+02  0.51100000000E-03 0.  1.
         11   -1    0    0    0    0 -0.00000000000E+00 -0.00000000000E+00 -0.45593999997E+02  0.45594000000E+02  0.51100000000E-03 0. -1.
    9900012    2    1    2    0    0 -0.25301303315E+02  0.27965952944E+02 -0.15195894704E+02  0.50528859707E+02  0.29999999564E+02 0.  0.
         12    1    1    2    0    0  0.25301303315E+02 -0.27965952944E+02  0.15195894704E+02  0.40659140293E+02  0.00000000000E+00 0. -1.
         11    1    3    3    0    0  0.36720792416E+01  0.92735667689E+01 -0.13980453403E+01  0.10071630335E+02  0.51100000000E-03 0. -1.
        -11    1    3    3    0    0 -0.28992538899E+02  0.17258977499E+02 -0.82603715250E+01  0.34737204178E+02  0.51100000000E-03 0.  1.
        -12    1    3    3    0    0  0.19156341881E-01  0.14334086764E+01 -0.55374778391E+01  0.57200251938E+01  0.00000000000E+00 0.  1.
</event>
<event>
 7    1  0.5849044E-013  0.5052888E+02  0.7816164E-02  0.1300439E+00
        -11   -1    0    0    0    0  0.00000000000E+00  0.00000000000E+00  0.45593999997E+02  0.45594000000E+02  0.51100000000E-03 0.  1.
         11   -1    0    0    0    0 -0.00000000000E+00 -0.00000000000E+00 -0.45593999997E+02  0.45594000000E+02  0.51100000000E-03 0. -1.
    9900012    2    1    2    0    0  0.34607446420E+02 -0.67534750155E+01  0.20245481422E+02  0.50528876910E+02  0.30000051855E+02 0.  0.
         12    1    1    2    0    0 -0.34607446420E+02  0.67534750155E+01 -0.20245481422E+02  0.40659123090E+02  0.00000000000E+00 0. -1.
         11    1    3    3    0    0  0.34787906954E+01 -0.30075613617E+00 -0.42072662383E+01  0.54674974547E+01  0.51100000000E-03 0. -1.
        -11    1    3    3    0    0  0.29860450488E+02 -0.77290797872E+01  0.27629907838E+02  0.41410107282E+02  0.51100000000E-03 0.  1.
        -12    1    3    3    0    0  0.12682052360E+01  0.12763609078E+01 -0.31771601777E+01  0.36512721731E+01  0.00000000000E+00 0.  1.
</event>
<event>
 7    1  0.5849044E-013  0.5052885E+02  0.7816164E-02  0.1300439E+00
        -11   -1    0    0    0    0  0.00000000000E+00  0.00000000000E+00  0.45593999997E+02  0.45594000000E+02  0.51100000000E-03 0. -1.
         11   -1    0    0    0    0 -0.00000000000E+00 -0.00000000000E+00 -0.45593999997E+02  0.45594000000E+02  0.51100000000E-03 0.  1.
    9900012    2    1    2    0    0 -0.24135524083E+02 -0.32074570417E+02 -0.64703102594E+01  0.50528849676E+02  0.29999969076E+02 0.  0.
         12    1    1    2    0    0  0.24135524083E+02  0.32074570417E+02  0.64703102594E+01  0.40659150324E+02  0.00000000000E+00 0. -1.
         11    1    3    3    0    0 -0.15708451187E+02 -0.99981334831E+01 -0.12739701921E+02  0.22561429856E+02  0.51100000000E-03 0. -1.
        -11    1    3    3    0    0 -0.45979899822E+01 -0.20250073880E+02  0.45580423900E+00  0.20770526276E+02  0.51100000000E-03 0.  1.
         12    1    3    3    0    0 -0.38290829130E+01 -0.18263630548E+01  0.58135874230E+01  0.71968935442E+01  0.00000000000E+00 0. -1.
</event>
<event>
 7    1  0.5849044E-013  0.5052886E+02  0.7816164E-02  0.1300439E+00
        -11   -1    0    0    0    0  0.00000000000E+00  0.00000000000E+00  0.45593999997E+02  0.45594000000E+02  0.51100000000E-03 0.  1.
         11   -1    0    0    0    0 -0.00000000000E+00 -0.00000000000E+00 -0.45593999997E+02  0.45594000000E+02  0.51100000000E-03 0. -1.
    9900012    2    1    2    0    0  0.10431109239E+02  0.16133668154E+02  0.35833818000E+02  0.50528858340E+02  0.29999995411E+02 0.  0.
         12    1    1    2    0    0 -0.10431109239E+02 -0.16133668154E+02 -0.35833818000E+02  0.40659141660E+02  0.00000000000E+00 0. -1.
         11    1    3    3    0    0  0.38165357640E+01 -0.36282486804E+00 -0.37970489223E+01  0.53958472831E+01  0.51100000000E-03 0. -1.
        -11    1    3    3    0    0 -0.16581125684E+01  0.12112920193E+02  0.21844641985E+02  0.25033189101E+02  0.51100000000E-03 0.  1.
        -12    1    3    3    0    0  0.82726860430E+01  0.43835728291E+01  0.17786224938E+02  0.20099821956E+02  0.00000000000E+00 0.  1.
</event>
<event>
 7    1  0.5849044E-013  0.5052886E+02  0.7816164E-02  0.1300439E+00
        -11   -1    0    0    0    0  0.00000000000E+00  0.00000000000E+00  0.45593999997E+02  0.45594000000E+02  0.51100000000E-03 0.  1.
         11   -1    0    0    0    0 -0.00000000000E+00 -0.00000000000E+00 -0.45593999997E+02  0.45594000000E+02  0.51100000000E-03 0. -1.
    9900012    2    1    2    0    0 -0.48868949128E+01 -0.33391182041E+02  0.22678459082E+02  0.50528864663E+02  0.30000014631E+02 0.  0.
         12    1    1    2    0    0  0.48868949128E+01  0.33391182041E+02 -0.22678459082E+02  0.40659135337E+02  0.00000000000E+00 0. -1.
         11    1    3    3    0    0 -0.10034688266E+02 -0.16187019115E+02  0.19358978583E+01  0.19143203943E+02  0.51100000000E-03 0. -1.
        -11    1    3    3    0    0  0.14067743328E+01 -0.26809288362E+01  0.15038487592E+02  0.15340224991E+02  0.51100000000E-03 0.  1.
        -12    1    3    3    0    0  0.37410190207E+01 -0.14523234090E+02  0.57040736310E+01  0.16045435729E+02  0.00000000000E+00 0.  1.
</event>
<event>
 7    1  0.5849044E-013  0.5052885E+02  0.7816164E-02  0.1300439E+00
        -11   -1    0    0    0    0  0.00000000000E+00  0.00000000000E+00  0.45593999997E+02  0.45594000000E+02  0.51100000000E-03 0. -1.
         11   -1    0    0    0    0 -0.00000000000E+00 -0.00000000000E+00 -0.45593999997E+02  0.45594000000E+02  0.51100000000E-03 0.  1.
    9900012    2    1    2    0    0  0.21007494904E+02 -0.25015947935E+02 -0.24208557004E+02  0.50528846966E+02  0.29999960838E+02 0.  0.
         12    1    1    2    0    0 -0.21007494904E+02  0.25015947935E+02  0.24208557004E+02  0.40659153034E+02  0.00000000000E+00 0. -1.
         11    1    3    3    0    0  0.97643413975E+00 -0.13716496335E+02 -0.52433136749E+01  0.14716930178E+02  0.51100000000E-03 0. -1.
        -11    1    3    3    0    0  0.14880234617E+02 -0.64514469647E+01 -0.70994076770E+00  0.16234117357E+02  0.51100000000E-03 0.  1.
        -12    1    3    3    0    0  0.51508261471E+01 -0.48480046359E+01 -0.18255302561E+02  0.19577799430E+02  0.00000000000E+00 0.  1.
</event>
<event>
 7    1  0.5849044E-013  0.5052886E+02  0.7816164E-02  0.1300439E+00
        -11   -1    0    0    0    0  0.00000000000E+00  0.00000000000E+00  0.45593999997E+02  0.45594000000E+02  0.51100000000E-03 0.  1.
         11   -1    0    0    0    0 -0.00000000000E+00 -0.00000000000E+00 -0.45593999997E+02  0.45594000000E+02  0.51100000000E-03 0. -1.
    9900012    2    1    2    0    0  0.15781137575E+02 -0.37460483262E+02 -0.91306288594E+00  0.50528858430E+02  0.29999995684E+02 0.  0.
         12    1    1    2    0    0 -0.15781137575E+02  0.37460483262E+02  0.91306288594E+00  0.40659141570E+02  0.00000000000E+00 0. -1.
         11    1    3    3    0    0 -0.25798828083E+01 -0.26596103163E+02  0.27003546201E+01  0.26857036584E+02  0.51100000000E-03 0. -1.
        -11    1    3    3    0    0  0.43605756556E+01 -0.62362881435E+01 -0.46023750261E+01  0.88931302700E+01  0.51100000000E-03 0.  1.
         12    1    3    3    0    0  0.14000444728E+02 -0.46280919555E+01  0.98895752004E+00  0.14778691576E+02  0.00000000000E+00 0. -1.
</event>
<event>
 7    1  0.5849044E-013  0.5052886E+02  0.7816164E-02  0.1300439E+00
        -11   -1    0    0    0    0  0.00000000000E+00  0.00000000000E+00  0.45593999997E+02  0.45594000000E+02  0.51100000000E-03 0. -1.
         11   -1    0    0    0    0 -0.00000000000E+00 -0.00000000000E+00 -0.45593999997E+02  0.45594000000E+02  0.51100000000E-03 0.  1.
    9900012    2    1    2    0    0 -0.49112963987E+01  0.63039859662E+01 -0.39866080617E+02  0.50528862587E+02  0.30000008319E+02 0.  0.
         12    1    1    2    0    0  0.49112963987E+01 -0.63039859662E+01  0.39866080617E+02  0.40659137413E+02  0.00000000000E+00 0. -1.
         11    1    3    3    0    0 -0.90310008622E+01 -0.72427818962E+01 -0.94832801266E+01  0.14964941309E+02  0.51100000000E-03 0. -1.
        -11    1    3    3    0    0  0.22191552450E+01  0.87013965519E+01 -0.64109616211E+01  0.11033557048E+02  0.51100000000E-03 0.  1.
         12    1    3    3    0    0  0.19005492185E+01  0.48453713105E+01 -0.23971838870E+02  0.24530364230E+02  0.00000000000E+00 0. -1.
</event>
<event>
 7    1  0.5849044E-013  0.5052885E+02  0.7816164E-02  0.1300439E+00
        -11   -1    0    0    0    0  0.00000000000E+00  0.00000000000E+00  0.45593999997E+02  0.45594000000E+02  0.51100000000E-03 0.  1.
         11   -1    0    0    0    0 -0.00000000000E+00 -0.00000000000E+00 -0.45593999997E+02  0.45594000000E+02  0.51100000000E-03 0. -1.
    9900012    2    1    2    0    0  0.34615849928E+02 -0.18594957133E+02  0.10446853976E+02  0.50528852751E+02  0.29999978422E+02 0.  0.
         12    1    1    2    0    0 -0.34615849928E+02  0.18594957133E+02 -0.10446853976E+02  0.40659147249E+02  0.00000000000E+00 0. -1.
         11    1    3    3    0    0  0.84636314557E+01  0.30376221494E+01 -0.38188442466E+01  0.97695331199E+01  0.51100000000E-03 0. -1.
        -11    1    3    3    0    0  0.28317039112E+02 -0.21935351119E+02  0.12461333911E+02  0.37924914975E+02  0.51100000000E-03 0.  1.
        -12    1    3    3    0    0 -0.21648206395E+01  0.30277183644E+00  0.18043643116E+01  0.28344046562E+01  0.00000000000E+00 0.  1.
</event>
<event>
 7    1  0.6704619E-013  0.5052887E+02  0.7816164E-02  0.1300439E+00
        -11   -1    0    0    0    0  0.00000000000E+00  0.00000000000E+00  0.45593999997E+02  0.45594000000E+02  0.51100000000E-03 0.  1.
         11   -1    0    0    0    0 -0.00000000000E+00 -0.00000000000E+00 -0.45593999997E+02  0.45594000000E+02  0.51100000000E-03 0. -1.
    9900012    2    1    2    0    0  0.95714414187E+01  0.24432928548E+02  0.31057753960E+02  0.50528873481E+02  0.30000041432E+02 0.  0.
         12    1    1    2    0    0 -0.95714414187E+01 -0.24432928548E+02 -0.31057753960E+02  0.40659126519E+02  0.00000000000E+00 0. -1.
         11    1    3    3    0    0  0.58340184886E+01 -0.41778368244E+01  0.72193619709E+01  0.10178864366E+02  0.51100000000E-03 0. -1.
        -11    1    3    3    0    0  0.16743165439E+01  0.19130511385E+02  0.23885242727E+02  0.30647750686E+02  0.51100000000E-03 0.  1.
         12    1    3    3    0    0  0.20631063862E+01  0.94802539871E+01 -0.46850737587E-01  0.97022584285E+01  0.00000000000E+00 0. -1.
</event>
<event>
 7    1  0.5849044E-013  0.5052883E+02  0.7816164E-02  0.1300439E+00
        -11   -1    0    0    0    0  0.00000000000E+00  0.00000000000E+00  0.45593999997E+02  0.45594000000E+02  0.51100000000E-03 0.  1.
         11   -1    0    0    0    0 -0.00000000000E+00 -0.00000000000E+00 -0.45593999997E+02  0.45594000000E+02  0.51100000000E-03 0. -1.
    9900012    2    1    2    0    0  0.32991523095E+02 -0.39821978492E+00  0.23760655063E+02  0.50528832471E+02  0.29999916778E+02 0.  0.
         12    1    1    2    0    0 -0.32991523095E+02  0.39821978492E+00 -0.23760655063E+02  0.40659167529E+02  0.00000000000E+00 0. -1.
         11    1    3    3    0    0  0.15747412347E+01  0.40395180881E+01 -0.27774634332E+01  0.51489629756E+01  0.51100000000E-03 0. -1.
        -11    1    3    3    0    0  0.15480382064E+02  0.57966600334E+01  0.18488471874E+02  0.24800546141E+02  0.51100000000E-03 0.  1.
        -12    1    3    3    0    0  0.15936399796E+02 -0.10234397906E+02  0.80496466231E+01  0.20579323354E+02  0.00000000000E+00 0.  1.
</event>
<event>
 7    1  0.5849044E-013  0.5052892E+02  0.7816164E-02  0.1300439E+00
        -11   -1    0    0    0    0  0.00000000000E+00  0.00000000000E+00  0.45593999997E+02  0.45594000000E+02  0.51100000000E-03 0. -1.
         11   -1    0    0    0    0 -0.00000000000E+00 -0.00000000000E+00 -0.45593999997E+02  0.45594000000E+02  0.51100000000E-03 0.  1.
    9900012    2    1    2    0    0 -0.19612293417E+02 -0.32734881585E+02 -0.14033746630E+02  0.50528922662E+02  0.30000190924E+02 0.  0.
         12    1    1    2    0    0  0.19612293417E+02  0.32734881585E+02  0.14033746630E+02  0.40659077338E+02  0.00000000000E+00 0. -1.
         11    1    3    3    0    0 -0.22635859653E+01 -0.88302233157E+01  0.45765614289E+01  0.10200077451E+02  0.51100000000E-03 0. -1.
        -11    1    3    3    0    0 -0.17635661171E+01 -0.17048541964E+02 -0.15317752261E+02  0.22986876324E+02  0.51100000000E-03 0.  1.
        -12    1    3    3    0    0 -0.15585141335E+02 -0.68561163051E+01 -0.32925557984E+01  0.17341968888E+02  0.00000000000E+00 0.  1.
</event>
<event>
 7    1  0.5849044E-013  0.5052886E+02  0.7816164E-02  0.1300439E+00
        -11   -1    0    0    0    0  0.00000000000E+00  0.00000000000E+00  0.45593999997E+02  0.45594000000E+02  0.51100000000E-03 0.  1.
         11   -1    0    0    0    0 -0.00000000000E+00 -0.00000000000E+00 -0.45593999997E+02  0.45594000000E+02  0.51100000000E-03 0. -1.
    9900012    2    1    2    0    0  0.61662306802E+01 -0.32416174769E+02  0.23755736563E+02  0.50528858259E+02  0.29999995164E+02 0.  0.
         12    1    1    2    0    0 -0.61662306802E+01  0.32416174769E+02 -0.23755736563E+02  0.40659141741E+02  0.00000000000E+00 0. -1.
         11    1    3    3    0    0  0.18826851046E+01 -0.31987451400E+01 -0.49467056193E+01  0.61843649972E+01  0.51100000000E-03 0. -1.
        -11    1    3    3    0    0 -0.33455017886E+00 -0.41359826438E+01  0.14649684039E+02  0.15226014546E+02  0.51100000000E-03 0.  1.
        -12    1    3    3    0    0  0.46180957545E+01 -0.25081446986E+02  0.14052758143E+02  0.29118478715E+02  0.00000000000E+00 0.  1.
</event>
<event>
 7    1  0.5849044E-013  0.5052885E+02  0.7816164E-02  0.1300439E+00
        -11   -1    0    0    0    0  0.00000000000E+00  0.00000000000E+00  0.45593999997E+02  0.45594000000E+02  0.51100000000E-03 0.  1.
         11   -1    0    0    0    0 -0.00000000000E+00 -0.00000000000E+00 -0.45593999997E+02  0.45594000000E+02  0.51100000000E-03 0. -1.
    9900012    2    1    2    0    0  0.11217064126E+02 -0.11632678706E+01  0.39063934652E+02  0.50528847153E+02  0.29999961407E+02 0.  0.
         12    1    1    2    0    0 -0.11217064126E+02  0.11632678706E+01 -0.39063934652E+02  0.40659152847E+02  0.00000000000E+00 0. -1.
         11    1    3    3    0    0  0.76120739490E+01 -0.10476603294E+02  0.59176246393E+01  0.14238018402E+02  0.51100000000E-03 0. -1.
        -11    1    3    3    0    0  0.26075294926E+01  0.33158965738E+01  0.28027300189E+02  0.28342969786E+02  0.51100000000E-03 0.  1.
         12    1    3    3    0    0  0.99746068413E+00  0.59974388493E+01  0.51190098238E+01  0.79478589660E+01  0.00000000000E+00 0. -1.
</event>
<event>
 7    1  0.5849044E-013  0.5052886E+02  0.7816164E-02  0.1300439E+00
        -11   -1    0    0    0    0  0.00000000000E+00  0.00000000000E+00  0.45593999997E+02  0.45594000000E+02  0.51100000000E-03 0.  1.
         11   -1    0    0    0    0 -0.00000000000E+00 -0.00000000000E+00 -0.45593999997E+02  0.45594000000E+02  0.51100000000E-03 0. -1.
    9900012    2    1    2    0    0  0.25886068626E+02 -0.28443699945E+02  0.13192150600E+02  0.50528862615E+02  0.30000008404E+02 0.  0.
         12    1    1    2    0    0 -0.25886068626E+02  0.28443699945E+02 -0.13192150600E+02  0.40659137385E+02  0.00000000000E+00 0. -1.
         11    1    3    3    0    0  0.10802171447E+02 -0.59975590125E+01 -0.79954914058E+01  0.14716844267E+02  0.51100000000E-03 0. -1.
        -11    1    3    3    0    0  0.49088020565E+01 -0.14227127310E+01  0.63084355264E+01  0.81189166886E+01  0.51100000000E-03 0.  1.
         12    1    3    3    0    0  0.10175095122E+02 -0.21023428201E+02  0.14879206480E+02  0.27693101660E+02  0.00000000000E+00 0. -1.
</event>
<event>
 7    1  0.5849044E-013  0.5052886E+02  0.7816164E-02  0.1300439E+00
        -11   -1    0    0    0    0  0.00000000000E+00  0.00000000000E+00  0.45593999997E+02  0.45594000000E+02  0.51100000000E-03 0.  1.
         11   -1    0    0    0    0 -0.00000000000E+00 -0.00000000000E+00 -0.45593999997E+02  0.45594000000E+02  0.51100000000E-03 0. -1.
    9900012    2    1    2    0    0  0.37911870227E+02 -0.22196433888E+01  0.14523405228E+02  0.50528855638E+02  0.29999987197E+02 0.  0.
         12    1    1    2    0    0 -0.37911870227E+02  0.22196433888E+01 -0.14523405228E+02  0.40659144362E+02  0.00000000000E+00 0. -1.
         11    1    3    3    0    0  0.27778923525E+01 -0.54107489395E+01 -0.65422517801E+01  0.89327458613E+01  0.51100000000E-03 0. -1.
        -11    1    3    3    0    0  0.17985699375E+02  0.48496432918E+01  0.11460870299E+02  0.21871350446E+02  0.51100000000E-03 0.  1.
         12    1    3    3    0    0  0.17148278499E+02 -0.16585377412E+01  0.96047867084E+01  0.19724759331E+02  0.00000000000E+00 0. -1.
</event>
<event>
 7    1  0.5849044E-013  0.5052884E+02  0.7816164E-02  0.1300439E+00
        -11   -1    0    0    0    0  0.00000000000E+00  0.00000000000E+00  0.45593999997E+02  0.45594000000E+02  0.51100000000E-03 0.  1.
         11   -1    0    0    0    0 -0.00000000000E+00 -0.00000000000E+00 -0.45593999997E+02  0.45594000000E+02  0.51100000000E-03 0. -1.
    9900012    2    1    2    0    0 -0.24725867558E+02 -0.17267447204E+02  0.27269659539E+02  0.50528836324E+02  0.29999928490E+02 0.  0.
         12    1    1    2    0    0  0.24725867558E+02  0.17267447204E+02 -0.27269659539E+02  0.40659163676E+02  0.00000000000E+00 0. -1.
         11    1    3    3    0    0 -0.49379775221E+01 -0.14531167296E+02  0.16898508676E+02  0.22827571941E+02  0.51100000000E-03 0. -1.
        -11    1    3    3    0    0 -0.22476013601E+02 -0.37173370028E+01  0.97097586750E+01  0.24764272563E+02  0.51100000000E-03 0.  1.
         12    1    3    3    0    0  0.26881235649E+01  0.98105709500E+00  0.66139218855E+00  0.29369918200E+01  0.00000000000E+00 0. -1.
</event>
<event>
 7    1  0.5849044E-013  0.5052886E+02  0.7816164E-02  0.1300439E+00
        -11   -1    0    0    0    0  0.00000000000E+00  0.00000000000E+00  0.45593999997E+02  0.45594000000E+02  0.51100000000E-03 0. -1.
         11   -1    0    0    0    0 -0.00000000000E+00 -0.00000000000E+00 -0.45593999997E+02  0.45594000000E+02  0.51100000000E-03 0.  1.
    9900012    2    1    2    0    0 -0.85748037065E+01 -0.39403885190E+02  0.51934989764E+01  0.50528857630E+02  0.29999993252E+02 0.  0.
         12    1    1    2    0    0  0.85748037065E+01  0.39403885190E+02 -0.51934989764E+01  0.40659142370E+02  0.00000000000E+00 0. -1.
         11    1    3    3    0    0 -0.60608061954E+01 -0.83684798339E+01 -0.10045719028E+02  0.14411151846E+02  0.51100000000E-03 0. -1.
        -11    1    3    3    0    0 -0.25120890120E+01 -0.23730200853E+02  0.65096515850E+01  0.24734764760E+02  0.51100000000E-03 0.  1.
         12    1    3    3    0    0 -0.19084990676E-02 -0.73052045027E+01  0.87295664198E+01  0.11382941024E+02  0.00000000000E+00 0. -1.
</event>
<event>
 7    1  0.5849044E-013  0.5052887E+02  0.7816164E-02  0.1300439E+00
        -11   -1    0    0    0    0  0.00000000000E+00  0.00000000000E+00  0.45593999997E+02  0.45594000000E+02  0.51100000000E-03 0.  1.
         11   -1    0    0    0    0 -0.00000000000E+00 -0.00000000000E+00 -0.45593999997E+02  0.45594000000E+02  0.51100000000E-03 0. -1.
    9900012    2    1    2    0    0 -0.10088343965E+02 -0.19887379802E+02  0.33998274117E+02  0.50528865697E+02  0.30000017772E+02 0.  0.
         12    1    1    2    0    0  0.10088343965E+02  0.19887379802E+02 -0.33998274117E+02  0.40659134303E+02  0.00000000000E+00 0. -1.
         11    1    3    3    0    0  0.53624237326E+01 -0.12764465680E+01 -0.67756557305E+00  0.55537374349E+01  0.51100000000E-03 0. -1.
        -11    1    3    3    0    0 -0.13335794189E+02 -0.21114265145E+02  0.32710719263E+02  0.41153939717E+02  0.51100000000E-03 0.  1.
         12    1    3    3    0    0 -0.21149735091E+01  0.25033319113E+01  0.19651204272E+01  0.38211885449E+01  0.00000000000E+00 0. -1.
</event>
<event>
 7    1  0.5849044E-013  0.5052886E+02  0.7816164E-02  0.1300439E+00
        -11   -1    0    0    0    0  0.00000000000E+00  0.00000000000E+00  0.45593999997E+02  0.45594000000E+02  0.51100000000E-03 0. -1.
         11   -1    0    0    0    0 -0.00000000000E+00 -0.00000000000E+00 -0.45593999997E+02  0.45594000000E+02  0.51100000000E-03 0.  1.
    9900012    2    1    2    0    0 -0.10966924141E+02 -0.21290923475E+02 -0.32857094506E+02  0.50528861951E+02  0.30000006385E+02 0.  0.
         12    1    1    2    0    0  0.10966924141E+02  0.21290923475E+02  0.32857094506E+02  0.40659138049E+02  0.00000000000E+00 0. -1.
         11    1    3    3    0    0 -0.13170228795E+02 -0.10617910354E+02 -0.30058153687E+02  0.34491847590E+02  0.51100000000E-03 0.  1.
        -11    1    3    3    0    0  0.63926920638E+01 -0.40222506483E+01  0.37031237366E+00  0.75618875696E+01  0.51100000000E-03 0. -1.
        -12    1    3    3    0    0 -0.41893874095E+01 -0.66507624723E+01 -0.31692531926E+01  0.84751267913E+01  0.00000000000E+00 0.  1.
</event>
<event>
 7    1  0.5849044E-013  0.5052884E+02  0.7816164E-02  0.1300439E+00
        -11   -1    0    0    0    0  0.00000000000E+00  0.00000000000E+00  0.45593999997E+02  0.45594000000E+02  0.51100000000E-03 0. -1.
         11   -1    0    0    0    0 -0.00000000000E+00 -0.00000000000E+00 -0.45593999997E+02  0.45594000000E+02  0.51100000000E-03 0.  1.
    9900012    2    1    2    0    0  0.23912876690E+02 -0.12783762212E+02 -0.30297147373E+02  0.50528838833E+02  0.29999936116E+02 0.  0.
         12    1    1    2    0    0 -0.23912876690E+02  0.12783762212E+02  0.30297147373E+02  0.40659161167E+02  0.00000000000E+00 0. -1.
         11    1    3    3    0    0  0.16502606955E+01 -0.55887214865E+01  0.11775757062E+01  0.59450696397E+01  0.51100000000E-03 0. -1.
        -11    1    3    3    0    0  0.25295281454E+02 -0.63771262384E+01 -0.20527497406E+02  0.33194836238E+02  0.51100000000E-03 0.  1.
        -12    1    3    3    0    0 -0.30326654595E+01 -0.81791448751E+00 -0.10947225673E+02  0.11388932955E+02  0.00000000000E+00 0.  1.
</event>
<event>
 7    1  0.5849044E-013  0.5052887E+02  0.7816164E-02  0.1300439E+00
        -11   -1    0    0    0    0  0.00000000000E+00  0.00000000000E+00  0.45593999997E+02  0.45594000000E+02  0.51100000000E-03 0.  1.
         11   -1    0    0    0    0 -0.00000000000E+00 -0.00000000000E+00 -0.45593999997E+02  0.45594000000E+02  0.51100000000E-03 0. -1.
    9900012    2    1    2    0    0 -0.14311769248E+02  0.35152278121E+02  0.14582723343E+02  0.50528865526E+02  0.30000017253E+02 0.  0.
         12    1    1    2    0    0  0.14311769248E+02 -0.35152278121E+02 -0.14582723343E+02  0.40659134474E+02  0.00000000000E+00 0. -1.
         11    1    3    3    0    0  0.57264577569E+01  0.25373025558E+01  0.33673325100E+01  0.71111989985E+01  0.51100000000E-03 0. -1.
        -11    1    3    3    0    0 -0.15587751550E+02  0.23808955774E+02 -0.29407552039E-01  0.28457779929E+02  0.51100000000E-03 0.  1.
         12    1    3    3    0    0 -0.44504754549E+01  0.88060197907E+01  0.11244798385E+02  0.14959886598E+02  0.00000000000E+00 0. -1.
</event>
<event>
 7    1  0.5849044E-013  0.5052891E+02  0.7816164E-02  0.1300439E+00
        -11   -1    0    0    0    0  0.00000000000E+00  0.00000000000E+00  0.45593999997E+02  0.45594000000E+02  0.51100000000E-03 0.  1.
         11   -1    0    0    0    0 -0.00000000000E+00 -0.00000000000E+00 -0.45593999997E+02  0.45594000000E+02  0.51100000000E-03 0. -1.
    9900012    2    1    2    0    0  0.30160107887E+02  0.27216199567E+02  0.16756501190E+01  0.50528912087E+02  0.30000158778E+02 0.  0.
         12    1    1    2    0    0 -0.30160107887E+02 -0.27216199567E+02 -0.16756501190E+01  0.40659087913E+02  0.00000000000E+00 0. -1.
         11    1    3    3    0    0  0.26547342234E+02  0.24703799738E+02  0.12798284211E+02  0.38455626119E+02  0.51100000000E-03 0. -1.
        -11    1    3    3    0    0  0.14804063720E+01  0.19704868164E+01 -0.65649717042E+01  0.70123658674E+01  0.51100000000E-03 0.  1.
         12    1    3    3    0    0  0.21323592806E+01  0.54191301250E+00 -0.45576623881E+01  0.50609201000E+01  0.00000000000E+00 0. -1.
</event>
<event>
 7    1  0.5849044E-013  0.5052885E+02  0.7816164E-02  0.1300439E+00
        -11   -1    0    0    0    0  0.00000000000E+00  0.00000000000E+00  0.45593999997E+02  0.45594000000E+02  0.51100000000E-03 0.  1.
         11   -1    0    0    0    0 -0.00000000000E+00 -0.00000000000E+00 -0.45593999997E+02  0.45594000000E+02  0.51100000000E-03 0. -1.
    9900012    2    1    2    0    0  0.31750754976E+02  0.18584048621E+02  0.17311537648E+02  0.50528848012E+02  0.29999964017E+02 0.  0.
         12    1    1    2    0    0 -0.31750754976E+02 -0.18584048621E+02 -0.17311537648E+02  0.40659151988E+02  0.00000000000E+00 0. -1.
         11    1    3    3    0    0  0.86539730266E+01 -0.28505366498E+01 -0.21961552627E+01  0.93722946249E+01  0.51100000000E-03 0. -1.
        -11    1    3    3    0    0  0.20162982361E+02  0.18298955228E+02  0.22983512913E+02  0.35632000873E+02  0.51100000000E-03 0.  1.
         12    1    3    3    0    0  0.29337995875E+01  0.31356300430E+01 -0.34758200025E+01  0.55245525137E+01  0.00000000000E+00 0. -1.
</event>
<event>
 7    1  0.5849044E-013  0.5052888E+02  0.7816164E-02  0.1300439E+00
        -11   -1    0    0    0    0  0.00000000000E+00  0.00000000000E+00  0.45593999997E+02  0.45594000000E+02  0.51100000000E-03 0.  1.
         11   -1    0    0    0    0 -0.00000000000E+00 -0.00000000000E+00 -0.45593999997E+02  0.45594000000E+02  0.51100000000E-03 0. -1.
    9900012    2    1    2    0    0  0.33533943946E+02  0.15623067755E+02  0.16868850866E+02  0.50528883283E+02  0.30000071227E+02 0.  0.
         12    1    1    2    0    0 -0.33533943946E+02 -0.15623067755E+02 -0.16868850866E+02  0.40659116717E+02  0.00000000000E+00 0. -1.
         11    1    3    3    0    0  0.83369727769E+01  0.63766058218E+01 -0.78203992650E+01  0.13089112339E+02  0.51100000000E-03 0. -1.
        -11    1    3    3    0    0  0.18448721347E+02  0.29252412849E+01  0.14248529030E+02  0.23493252983E+02  0.51100000000E-03 0.  1.
         12    1    3    3    0    0  0.67482498217E+01  0.63212206487E+01  0.10440721101E+02  0.13946517961E+02  0.00000000000E+00 0. -1.
</event>
<event>
 7    1  0.5849044E-013  0.5052884E+02  0.7816164E-02  0.1300439E+00
        -11   -1    0    0    0    0  0.00000000000E+00  0.00000000000E+00  0.45593999997E+02  0.45594000000E+02  0.51100000000E-03 0. -1.
         11   -1    0    0    0    0 -0.00000000000E+00 -0.00000000000E+00 -0.45593999997E+02  0.45594000000E+02  0.51100000000E-03 0.  1.
    9900012    2    1    2    0    0  0.36052129377E+02  0.16589810631E+02 -0.88424813123E+01  0.50528839591E+02  0.29999938420E+02 0.  0.
         12    1    1    2    0    0 -0.36052129377E+02 -0.16589810631E+02  0.88424813123E+01  0.40659160409E+02  0.00000000000E+00 0. -1.
         11    1    3    3    0    0 -0.14065554858E+01  0.37014908273E+01  0.20539758897E+01  0.44607454417E+01  0.51100000000E-03 0. -1.
        -11    1    3    3    0    0  0.15591403193E+02 -0.23768285433E+01 -0.11291330023E+02  0.19396785852E+02  0.51100000000E-03 0.  1.
        -12    1    3    3    0    0  0.21867281670E+02  0.15265148347E+02  0.39487282138E+00  0.26671308297E+02  0.00000000000E+00 0.  1.
</event>
<event>
 7    1  0.5849044E-013  0.5052887E+02  0.7816164E-02  0.1300439E+00
        -11   -1    0    0    0    0  0.00000000000E+00  0.00000000000E+00  0.45593999997E+02  0.45594000000E+02  0.51100000000E-03 0.  1.
         11   -1    0    0    0    0 -0.00000000000E+00 -0.00000000000E+00 -0.45593999997E+02  0.45594000000E+02  0.51100000000E-03 0. -1.
    9900012    2    1    2    0    0  0.12012526334E+02 -0.10261794476E+02  0.37464109029E+02  0.50528872118E+02  0.30000037290E+02 0.  0.
         12    1    1    2    0    0 -0.12012526334E+02  0.10261794476E+02 -0.37464109029E+02  0.40659127882E+02  0.00000000000E+00 0. -1.
         11    1    3    3    0    0  0.17669116790E+02 -0.12938732686E+02  0.23252131903E+02  0.31941667614E+02  0.51100000000E-03 0.  1.
        -11    1    3    3    0    0  0.57118808246E+00  0.30537799239E+01  0.44847846706E-01  0.31070627995E+01  0.51100000000E-03 0. -1.
         12    1    3    3    0    0 -0.62277785379E+01 -0.37684171357E+00  0.14167129279E+02  0.15480141705E+02  0.00000000000E+00 0. -1.
</event>
<event>
 7    1  0.5849044E-013  0.5052889E+02  0.7816164E-02  0.1300439E+00
        -11   -1    0    0    0    0  0.00000000000E+00  0.00000000000E+00  0.45593999997E+02  0.45594000000E+02  0.51100000000E-03 0. -1.
         11   -1    0    0    0    0 -0.00000000000E+00 -0.00000000000E+00 -0.45593999997E+02  0.45594000000E+02  0.51100000000E-03 0.  1.
    9900012    2    1    2    0    0 -0.30922679764E+02 -0.20658338713E+02  0.16437275111E+02  0.50528891607E+02  0.30000096530E+02 0.  0.
         12    1    1    2    0    0  0.30922679764E+02  0.20658338713E+02 -0.16437275111E+02  0.40659108393E+02  0.00000000000E+00 0. -1.
         11    1    3    3    0    0 -0.22694311638E+02 -0.10934097017E+02  0.19812783833E+02  0.32048910462E+02  0.51100000000E-03 0.  1.
        -11    1    3    3    0    0 -0.92244950816E+01 -0.23566564354E+01 -0.51670887154E+01  0.10832541028E+02  0.51100000000E-03 0. -1.
         12    1    3    3    0    0  0.99612695510E+00 -0.73675852610E+01  0.17915799932E+01  0.76474401181E+01  0.00000000000E+00 0. -1.
</event>
<event>
 7    1  0.5849044E-013  0.5052886E+02  0.7816164E-02  0.1300439E+00
        -11   -1    0    0    0    0  0.00000000000E+00  0.00000000000E+00  0.45593999997E+02  0.45594000000E+02  0.51100000000E-03 0. -1.
         11   -1    0    0    0    0 -0.00000000000E+00 -0.00000000000E+00 -0.45593999997E+02  0.45594000000E+02  0.51100000000E-03 0.  1.
    9900012    2    1    2    0    0  0.94621066913E+01 -0.36247564654E+02 -0.15803431827E+02  0.50528857561E+02  0.29999993042E+02 0.  0.
         12    1    1    2    0    0 -0.94621066913E+01  0.36247564654E+02  0.15803431827E+02  0.40659142439E+02  0.00000000000E+00 0. -1.
         11    1    3    3    0    0  0.13801420206E+02 -0.30196150394E+02 -0.10131942003E+02  0.34712288132E+02  0.51100000000E-03 0. -1.
        -11    1    3    3    0    0 -0.30577989521E+01 -0.51181936040E+01 -0.97569357028E+01  0.11434327036E+02  0.51100000000E-03 0.  1.
         12    1    3    3    0    0 -0.12815145624E+01 -0.93322065534E+00  0.40854458782E+01  0.43822423928E+01  0.00000000000E+00 0. -1.
</event>
<event>
 7    1  0.5849044E-013  0.5052886E+02  0.7816164E-02  0.1300439E+00
        -11   -1    0    0    0    0  0.00000000000E+00  0.00000000000E+00  0.45593999997E+02  0.45594000000E+02  0.51100000000E-03 0.  1.
         11   -1    0    0    0    0 -0.00000000000E+00 -0.00000000000E+00 -0.45593999997E+02  0.45594000000E+02  0.51100000000E-03 0. -1.
    9900012    2    1    2    0    0 -0.45348525773E+01  0.13819136052E+02  0.37968832936E+02  0.50528859778E+02  0.29999999780E+02 0.  0.
         12    1    1    2    0    0  0.45348525773E+01 -0.13819136052E+02 -0.37968832936E+02  0.40659140222E+02  0.00000000000E+00 0. -1.
         11    1    3    3    0    0  0.79193046835E+01  0.17577830043E+01  0.25726451641E+02  0.26975090399E+02  0.51100000000E-03 0. -1.
        -11    1    3    3    0    0 -0.15224717863E+01  0.81829568021E+01  0.67669164698E+01  0.10727062092E+02  0.51100000000E-03 0.  1.
         12    1    3    3    0    0 -0.10931685474E+02  0.38783962454E+01  0.54754648252E+01  0.12826707286E+02  0.00000000000E+00 0. -1.
</event>
<event>
 7    1  0.5849044E-013  0.5052887E+02  0.7816164E-02  0.1300439E+00
        -11   -1    0    0    0    0  0.00000000000E+00  0.00000000000E+00  0.45593999997E+02  0.45594000000E+02  0.51100000000E-03 0.  1.
         11   -1    0    0    0    0 -0.00000000000E+00 -0.00000000000E+00 -0.45593999997E+02  0.45594000000E+02  0.51100000000E-03 0. -1.
    9900012    2    1    2    0    0  0.25258820402E+02  0.17538956202E+02  0.26599659630E+02  0.50528869596E+02  0.30000029625E+02 0.  0.
         12    1    1    2    0    0 -0.25258820402E+02 -0.17538956202E+02 -0.26599659630E+02  0.40659130404E+02  0.00000000000E+00 0. -1.
         11    1    3    3    0    0  0.23872272848E+01  0.76974821213E+01 -0.32400261315E+01  0.86860724560E+01  0.51100000000E-03 0. -1.
        -11    1    3    3    0    0  0.24449852392E+02  0.10941883371E+02  0.29572151697E+02  0.39900278821E+02  0.51100000000E-03 0.  1.
        -12    1    3    3    0    0 -0.15782592750E+01 -0.11004092906E+01  0.26753406428E+00  0.19425183195E+01  0.00000000000E+00 0.  1.
</event>
<event>
 7    1  0.5849044E-013  0.5052885E+02  0.7816164E-02  0.1300439E+00
        -11   -1    0    0    0    0  0.00000000000E+00  0.00000000000E+00  0.45593999997E+02  0.45594000000E+02  0.51100000000E-03 0. -1.
         11   -1    0    0    0    0 -0.00000000000E+00 -0.00000000000E+00 -0.45593999997E+02  0.45594000000E+02  0.51100000000E-03 0.  1.
    9900012    2    1    2    0    0  0.38537890622E+02 -0.84893617697E+01 -0.97943052492E+01  0.50528847375E+02  0.29999962081E+02 0.  0.
         12    1    1    2    0    0 -0.38537890622E+02  0.84893617697E+01  0.97943052492E+01  0.40659152625E+02  0.00000000000E+00 0. -1.
         11    1    3    3    0    0  0.20899423669E+02 -0.50617066014E+00 -0.18741270359E+01  0.20989389483E+02  0.51100000000E-03 0. -1.
        -11    1    3    3    0    0 -0.80929583516E+00 -0.98763421516E+01 -0.29878869048E+01  0.10350099635E+02  0.51100000000E-03 0.  1.
        -12    1    3    3    0    0  0.18447762788E+02  0.18931510421E+01 -0.49322913086E+01  0.19189358257E+02  0.00000000000E+00 0.  1.
</event>
<event>
 7    1  0.5849044E-013  0.5052886E+02  0.7816164E-02  0.1300439E+00
        -11   -1    0    0    0    0  0.00000000000E+00  0.00000000000E+00  0.45593999997E+02  0.45594000000E+02  0.51100000000E-03 0. -1.
         11   -1    0    0    0    0 -0.00000000000E+00 -0.00000000000E+00 -0.45593999997E+02  0.45594000000E+02  0.51100000000E-03 0.  1.
    9900012    2    1    2    0    0  0.27494452615E+02 -0.28807541042E+02  0.82064853872E+01  0.50528858987E+02  0.29999997378E+02 0.  0.
         12    1    1    2    0    0 -0.27494452615E+02  0.28807541042E+02 -0.82064853872E+01  0.40659141013E+02  0.00000000000E+00 0. -1.
         11    1    3    3    0    0  0.12726825526E+01  0.12634456302E+01 -0.57792184171E+01  0.60510644943E+01  0.51100000000E-03 0.  1.
        -11    1    3    3    0    0  0.10845162333E+02 -0.20460158694E+02  0.12420112090E+02  0.26277268206E+02  0.51100000000E-03 0. -1.
         12    1    3    3    0    0  0.15376607729E+02 -0.96108279780E+01  0.15655917146E+01  0.18200526286E+02  0.00000000000E+00 0. -1.
</event>
<event>
 7    1  0.5849044E-013  0.5052886E+02  0.7816164E-02  0.1300439E+00
        -11   -1    0    0    0    0  0.00000000000E+00  0.00000000000E+00  0.45593999997E+02  0.45594000000E+02  0.51100000000E-03 0.  1.
         11   -1    0    0    0    0 -0.00000000000E+00 -0.00000000000E+00 -0.45593999997E+02  0.45594000000E+02  0.51100000000E-03 0. -1.
    9900012    2    1    2    0    0  0.59323589972E+01  0.11008523916E+02  0.38688308778E+02  0.50528859353E+02  0.29999998488E+02 0.  0.
         12    1    1    2    0    0 -0.59323589972E+01 -0.11008523916E+02 -0.38688308778E+02  0.40659140647E+02  0.00000000000E+00 0. -1.
         11    1    3    3    0    0  0.87734524261E+00 -0.26705738613E+00 -0.24606492274E+01  0.26259948979E+01  0.51100000000E-03 0. -1.
        -11    1    3    3    0    0 -0.88191081156E-01  0.30530223154E+01  0.37369108996E+02  0.37493719879E+02  0.51100000000E-03 0.  1.
        -12    1    3    3    0    0  0.51432048357E+01  0.82225589865E+01  0.37798490094E+01  0.10409144576E+02  0.00000000000E+00 0.  1.
</event>
<event>
 7    1  0.5849044E-013  0.5052887E+02  0.7816164E-02  0.1300439E+00
        -11   -1    0    0    0    0  0.00000000000E+00  0.00000000000E+00  0.45593999997E+02  0.45594000000E+02  0.51100000000E-03 0.  1.
         11   -1    0    0    0    0 -0.00000000000E+00 -0.00000000000E+00 -0.45593999997E+02  0.45594000000E+02  0.51100000000E-03 0. -1.
    9900012    2    1    2    0    0  0.13555006792E+02  0.21241305698E+02  0.31909776371E+02  0.50528866894E+02  0.30000021411E+02 0.  0.
         12    1    1    2    0    0 -0.13555006792E+02 -0.21241305698E+02 -0.31909776371E+02  0.40659133106E+02  0.00000000000E+00 0. -1.
         11    1    3    3    0    0 -0.12320630232E+01  0.52263998917E+01  0.18879047346E+02  0.19627828817E+02  0.51100000000E-03 0. -1.
        -11    1    3    3    0    0  0.12800757927E+02  0.18395929409E+02  0.15232615839E+02  0.27098011143E+02  0.51100000000E-03 0.  1.
         12    1    3    3    0    0  0.19863118886E+01 -0.23810236028E+01 -0.22018868143E+01  0.38030269337E+01  0.00000000000E+00 0. -1.
</event>
<event>
 7    1  0.5849044E-013  0.5052886E+02  0.7816164E-02  0.1300439E+00
        -11   -1    0    0    0    0  0.00000000000E+00  0.00000000000E+00  0.45593999997E+02  0.45594000000E+02  0.51100000000E-03 0.  1.
         11   -1    0    0    0    0 -0.00000000000E+00 -0.00000000000E+00 -0.45593999997E+02  0.45594000000E+02  0.51100000000E-03 0. -1.
    9900012    2    1    2    0    0  0.89838011571E+01  0.32569884042E+02  0.22619899741E+02  0.50528857190E+02  0.29999991916E+02 0.  0.
         12    1    1    2    0    0 -0.89838011571E+01 -0.32569884042E+02 -0.22619899741E+02  0.40659142810E+02  0.00000000000E+00 0. -1.
         11    1    3    3    0    0  0.77938998394E+01  0.15205421707E+02 -0.86759837706E+00  0.17108549068E+02  0.51100000000E-03 0. -1.
        -11    1    3    3    0    0  0.24938062881E+01  0.12984040559E+02  0.25265893130E+02  0.28516131136E+02  0.51100000000E-03 0.  1.
        -12    1    3    3    0    0 -0.13039049704E+01  0.43804217753E+01 -0.17783950118E+01  0.49041769869E+01  0.00000000000E+00 0.  1.
</event>
<event>
 7    1  0.5849044E-013  0.5052888E+02  0.7816164E-02  0.1300439E+00
        -11   -1    0    0    0    0  0.00000000000E+00  0.00000000000E+00  0.45593999997E+02  0.45594000000E+02  0.51100000000E-03 0.  1.
         11   -1    0    0    0    0 -0.00000000000E+00 -0.00000000000E+00 -0.45593999997E+02  0.45594000000E+02  0.51100000000E-03 0. -1.
    9900012    2    1    2    0    0  0.20608173288E+02  0.32140601894E+02  0.13980304636E+02  0.50528880308E+02  0.30000062184E+02 0.  0.
         12    1    1    2    0    0 -0.20608173288E+02 -0.32140601894E+02 -0.13980304636E+02  0.40659119692E+02  0.00000000000E+00 0. -1.
         11    1    3    3    0    0  0.71728554156E-01 -0.29859790673E+01  0.12669387779E+01  0.32444337108E+01  0.51100000000E-03 0. -1.
        -11    1    3    3    0    0  0.20813243836E+02  0.22339082640E+02  0.19963100538E+01  0.30597565038E+02  0.51100000000E-03 0.  1.
        -12    1    3    3    0    0 -0.27679910123E+00  0.12787498322E+02  0.10717055804E+02  0.16686881560E+02  0.00000000000E+00 0.  1.
</event>
<event>
 7    1  0.5849044E-013  0.5052887E+02  0.7816164E-02  0.1300439E+00
        -11   -1    0    0    0    0  0.00000000000E+00  0.00000000000E+00  0.45593999997E+02  0.45594000000E+02  0.51100000000E-03 0.  1.
         11   -1    0    0    0    0 -0.00000000000E+00 -0.00000000000E+00 -0.45593999997E+02  0.45594000000E+02  0.51100000000E-03 0. -1.
    9900012    2    1    2    0    0 -0.11029518797E+02  0.86134087916E+01  0.38174913061E+02  0.50528867162E+02  0.30000022225E+02 0.  0.
         12    1    1    2    0    0  0.11029518797E+02 -0.86134087916E+01 -0.38174913061E+02  0.40659132838E+02  0.00000000000E+00 0. -1.
         11    1    3    3    0    0  0.61757116293E+01  0.84112874830E+01  0.10120261253E+02  0.14536466536E+02  0.51100000000E-03 0. -1.
        -11    1    3    3    0    0 -0.15598300294E+02  0.38700228192E+00  0.11560465825E+02  0.19419091461E+02  0.51100000000E-03 0.  1.
        -12    1    3    3    0    0 -0.16069301329E+01 -0.18488097331E+00  0.16494185983E+02  0.16573309165E+02  0.00000000000E+00 0.  1.
</event>
<event>
 7    1  0.5849044E-013  0.5052886E+02  0.7816164E-02  0.1300439E+00
        -11   -1    0    0    0    0  0.00000000000E+00  0.00000000000E+00  0.45593999997E+02  0.45594000000E+02  0.51100000000E-03 0. -1.
         11   -1    0    0    0    0 -0.00000000000E+00 -0.00000000000E+00 -0.45593999997E+02  0.45594000000E+02  0.51100000000E-03 0.  1.
    9900012    2    1    2    0    0 -0.24385462530E+02  0.29833435824E+02 -0.12980029127E+02  0.50528857953E+02  0.29999994234E+02 0.  0.
         12    1    1    2    0    0  0.24385462530E+02 -0.29833435824E+02  0.12980029127E+02  0.40659142047E+02  0.00000000000E+00 0. -1.
         11    1    3    3    0    0 -0.98199275756E+01 -0.25621179990E+01 -0.61664841979E+01  0.11875224371E+02  0.51100000000E-03 0. -1.
        -11    1    3    3    0    0  0.73066598702E+00  0.14288788879E+02 -0.34030966351E+01  0.14706611689E+02  0.51100000000E-03 0.  1.
         12    1    3    3    0    0 -0.15296200941E+02  0.18106764944E+02 -0.34104482942E+01  0.23947021893E+02  0.00000000000E+00 0. -1.
</event>
<event>
 7    1  0.5849044E-013  0.5052888E+02  0.7816164E-02  0.1300439E+00
        -11   -1    0    0    0    0  0.00000000000E+00  0.00000000000E+00  0.45593999997E+02  0.45594000000E+02  0.51100000000E-03 0. -1.
         11   -1    0    0    0    0 -0.00000000000E+00 -0.00000000000E+00 -0.45593999997E+02  0.45594000000E+02  0.51100000000E-03 0.  1.
    9900012    2    1    2    0    0 -0.24354222561E+02  0.32009111062E+02 -0.59542406051E+01  0.50528876439E+02  0.30000050424E+02 0.  0.
         12    1    1    2    0    0  0.24354222561E+02 -0.32009111062E+02  0.59542406051E+01  0.40659123561E+02  0.00000000000E+00 0. -1.
         11    1    3    3    0    0 -0.11289965500E+02 -0.28089980886E+01 -0.31669193680E+01  0.12057494342E+02  0.51100000000E-03 0. -1.
        -11    1    3    3    0    0 -0.12168863851E+02  0.31319022790E+02 -0.53763650690E+01  0.34027455644E+02  0.51100000000E-03 0.  1.
         12    1    3    3    0    0 -0.89539320989E+00  0.34990863607E+01  0.25890438319E+01  0.44439264534E+01  0.00000000000E+00 0. -1.
</event>
<event>
 7    1  0.5849044E-013  0.5052886E+02  0.7816164E-02  0.1300439E+00
        -11   -1    0    0    0    0  0.00000000000E+00  0.00000000000E+00  0.45593999997E+02  0.45594000000E+02  0.51100000000E-03 0. -1.
         11   -1    0    0    0    0 -0.00000000000E+00 -0.00000000000E+00 -0.45593999997E+02  0.45594000000E+02  0.51100000000E-03 0.  1.
    9900012    2    1    2    0    0 -0.21447084001E+02  0.20116233934E+02 -0.28080698291E+02  0.50528857162E+02  0.29999991829E+02 0.  0.
         12    1    1    2    0    0  0.21447084001E+02 -0.20116233934E+02  0.28080698291E+02  0.40659142838E+02  0.00000000000E+00 0. -1.
         11    1    3    3    0    0 -0.12496994654E+02  0.25229851628E+02 -0.12049643075E+02  0.30625384684E+02  0.51100000000E-03 0. -1.
        -11    1    3    3    0    0 -0.39854406530E+01  0.74442265631E+00 -0.65444452753E+01  0.76985496369E+01  0.51100000000E-03 0.  1.
         12    1    3    3    0    0 -0.49646486935E+01 -0.58580403500E+01 -0.94866099401E+01  0.12204922841E+02  0.00000000000E+00 0. -1.
</event>
<event>
 7    1  0.5849044E-013  0.5052886E+02  0.7816164E-02  0.1300439E+00
        -11   -1    0    0    0    0  0.00000000000E+00  0.00000000000E+00  0.45593999997E+02  0.45594000000E+02  0.51100000000E-03 0.  1.
         11   -1    0    0    0    0 -0.00000000000E+00 -0.00000000000E+00 -0.45593999997E+02  0.45594000000E+02  0.51100000000E-03 0. -1.
    9900012    2    1    2    0    0  0.89876119382E+01  0.38623251369E+02  0.89795859142E+01  0.50528859848E+02  0.29999999995E+02 0.  0.
         12    1    1    2    0    0 -0.89876119382E+01 -0.38623251369E+02 -0.89795859142E+01  0.40659140152E+02  0.00000000000E+00 0. -1.
         11    1    3    3    0    0  0.89081857451E+01  0.15126476050E+02 -0.73177491232E+01  0.19018819717E+02  0.51100000000E-03 0. -1.
        -11    1    3    3    0    0 -0.44374075254E+01  0.15331580825E+02  0.47275430673E+01  0.16646249423E+02  0.51100000000E-03 0.  1.
         12    1    3    3    0    0  0.45168337185E+01  0.81651944951E+01  0.11569791970E+02  0.14863790708E+02  0.00000000000E+00 0. -1.
</event>
<event>
 7    1  0.5849044E-013  0.5052885E+02  0.7816164E-02  0.1300439E+00
        -11   -1    0    0    0    0  0.00000000000E+00  0.00000000000E+00  0.45593999997E+02  0.45594000000E+02  0.51100000000E-03 0.  1.
         11   -1    0    0    0    0 -0.00000000000E+00 -0.00000000000E+00 -0.45593999997E+02  0.45594000000E+02  0.51100000000E-03 0. -1.
    9900012    2    1    2    0    0 -0.14531505346E+02 -0.34677845480E+02  0.15474133754E+02  0.50528850597E+02  0.29999971874E+02 0.  0.
         12    1    1    2    0    0  0.14531505346E+02  0.34677845480E+02 -0.15474133754E+02  0.40659149403E+02  0.00000000000E+00 0. -1.
         11    1    3    3    0    0 -0.97076881086E+01  0.11088940236E+00  0.21581729528E+01  0.99453112384E+01  0.51100000000E-03 0. -1.
        -11    1    3    3    0    0 -0.78646710250E+01 -0.31289474760E+02  0.15093178215E+02  0.35618651153E+02  0.51100000000E-03 0.  1.
         12    1    3    3    0    0  0.30408537876E+01 -0.34992601225E+01 -0.17772174131E+01  0.49648882058E+01  0.00000000000E+00 0. -1.
</event>
<event>
 7    1  0.5849044E-013  0.5052886E+02  0.7816164E-02  0.1300439E+00
        -11   -1    0    0    0    0  0.00000000000E+00  0.00000000000E+00  0.45593999997E+02  0.45594000000E+02  0.51100000000E-03 0. -1.
         11   -1    0    0    0    0 -0.00000000000E+00 -0.00000000000E+00 -0.45593999997E+02  0.45594000000E+02  0.51100000000E-03 0.  1.
    9900012    2    1    2    0    0 -0.21342028894E+02  0.66475360464E+00 -0.34601177939E+02  0.50528860690E+02  0.30000002554E+02 0.  0.
         12    1    1    2    0    0  0.21342028894E+02 -0.66475360464E+00  0.34601177939E+02  0.40659139310E+02  0.00000000000E+00 0. -1.
         11    1    3    3    0    0  0.70796148792E+01 -0.10284409338E+01 -0.11701003802E+02  0.13714668345E+02  0.51100000000E-03 0.  1.
        -11    1    3    3    0    0 -0.17380348287E+02  0.26352467568E+01 -0.12104073138E+02  0.21343139855E+02  0.51100000000E-03 0. -1.
        -12    1    3    3    0    0 -0.11041295485E+02 -0.94205221836E+00 -0.10796100999E+02  0.15471052491E+02  0.00000000000E+00 0.  1.
</event>
<event>
 7    1  0.5849044E-013  0.5052887E+02  0.7816164E-02  0.1300439E+00
        -11   -1    0    0    0    0  0.00000000000E+00  0.00000000000E+00  0.45593999997E+02  0.45594000000E+02  0.51100000000E-03 0.  1.
         11   -1    0    0    0    0 -0.00000000000E+00 -0.00000000000E+00 -0.45593999997E+02  0.45594000000E+02  0.51100000000E-03 0. -1.
    9900012    2    1    2    0    0 -0.14243919561E+02  0.12941049055E+02  0.35816263432E+02  0.50528871611E+02  0.30000035750E+02 0.  0.
         12    1    1    2    0    0  0.14243919561E+02 -0.12941049055E+02 -0.35816263432E+02  0.40659128389E+02  0.00000000000E+00 0. -1.
         11    1    3    3    0    0 -0.26691291529E+01 -0.20369486744E+01  0.38874874727E+00  0.33800201459E+01  0.51100000000E-03 0. -1.
        -11    1    3    3    0    0 -0.11921869964E+02  0.16328648091E+02  0.38660537810E+02  0.43627891490E+02  0.51100000000E-03 0.  1.
        -12    1    3    3    0    0  0.34707955553E+00 -0.13506503613E+01 -0.32330231254E+01  0.35209599750E+01  0.00000000000E+00 0.  1.
</event>
<event>
 7    1  0.5849044E-013  0.5052885E+02  0.7816164E-02  0.1300439E+00
        -11   -1    0    0    0    0  0.00000000000E+00  0.00000000000E+00  0.45593999997E+02  0.45594000000E+02  0.51100000000E-03 0.  1.
         11   -1    0    0    0    0 -0.00000000000E+00 -0.00000000000E+00 -0.45593999997E+02  0.45594000000E+02  0.51100000000E-03 0. -1.
    9900012    2    1    2    0    0 -0.37589275035E+02 -0.85796863753E+01  0.12907422474E+02  0.50528853786E+02  0.29999981569E+02 0.  0.
         12    1    1    2    0    0  0.37589275035E+02  0.85796863753E+01 -0.12907422474E+02  0.40659146214E+02  0.00000000000E+00 0. -1.
         11    1    3    3    0    0 -0.16868680613E+02  0.46822162222E+01 -0.13360162213E+01  0.17557348148E+02  0.51100000000E-03 0. -1.
        -11    1    3    3    0    0 -0.19154613606E+01 -0.45039516253E+01  0.10914430443E+02  0.11961578685E+02  0.51100000000E-03 0.  1.
         12    1    3    3    0    0 -0.18805133061E+02 -0.87579509721E+01  0.33290082517E+01  0.21009926954E+02  0.00000000000E+00 0. -1.
</event>
<event>
 7    1  0.5849044E-013  0.5052887E+02  0.7816164E-02  0.1300439E+00
        -11   -1    0    0    0    0  0.00000000000E+00  0.00000000000E+00  0.45593999997E+02  0.45594000000E+02  0.51100000000E-03 0. -1.
         11   -1    0    0    0    0 -0.00000000000E+00 -0.00000000000E+00 -0.45593999997E+02  0.45594000000E+02  0.51100000000E-03 0.  1.
    9900012    2    1    2    0    0  0.36291655112E+02 -0.15455686130E+02  0.98591154872E+01  0.50528872824E+02  0.30000039436E+02 0.  0.
         12    1    1    2    0    0 -0.36291655112E+02  0.15455686130E+02 -0.98591154872E+01  0.40659127176E+02  0.00000000000E+00 0. -1.
         11    1    3    3    0    0  0.18890014003E+02 -0.11201359593E+02  0.99915996571E+00  0.21984117145E+02  0.51100000000E-03 0.  1.
        -11    1    3    3    0    0 -0.84837510945E+00  0.30014009820E+00  0.96755832053E+01  0.97173419734E+01  0.51100000000E-03 0. -1.
         12    1    3    3    0    0  0.18250016219E+02 -0.45544666345E+01 -0.81562768376E+00  0.18827413705E+02  0.00000000000E+00 0. -1.
</event>
<event>
 7    1  0.5849044E-013  0.5052885E+02  0.7816164E-02  0.1300439E+00
        -11   -1    0    0    0    0  0.00000000000E+00  0.00000000000E+00  0.45593999997E+02  0.45594000000E+02  0.51100000000E-03 0. -1.
         11   -1    0    0    0    0 -0.00000000000E+00 -0.00000000000E+00 -0.45593999997E+02  0.45594000000E+02  0.51100000000E-03 0.  1.
    9900012    2    1    2    0    0 -0.37996375229E+02 -0.11278832249E+02 -0.90680779137E+01  0.50528848207E+02  0.29999964610E+02 0.  0.
         12    1    1    2    0    0  0.37996375229E+02  0.11278832249E+02  0.90680779137E+01  0.40659151793E+02  0.00000000000E+00 0. -1.
         11    1    3    3    0    0 -0.66281589637E+01  0.16363744820E+01  0.23463510321E+01  0.72191118651E+01  0.51100000000E-03 0. -1.
        -11    1    3    3    0    0 -0.26259458528E+02 -0.17880170996E+02 -0.24554196027E+01  0.31863596199E+02  0.51100000000E-03 0.  1.
        -12    1    3    3    0    0 -0.51087577374E+01  0.49649642642E+01 -0.89590093431E+01  0.11446140143E+02  0.00000000000E+00 0.  1.
</event>
<event>
 7    1  0.5849044E-013  0.5052886E+02  0.7816164E-02  0.1300439E+00
        -11   -1    0    0    0    0  0.00000000000E+00  0.00000000000E+00  0.45593999997E+02  0.45594000000E+02  0.51100000000E-03 0.  1.
         11   -1    0    0    0    0 -0.00000000000E+00 -0.00000000000E+00 -0.45593999997E+02  0.45594000000E+02  0.51100000000E-03 0. -1.
    9900012    2    1    2    0    0 -0.19628385455E+02 -0.35566870989E+02 -0.17000382342E+01  0.50528856410E+02  0.29999989542E+02 0.  0.
         12    1    1    2    0    0  0.19628385455E+02  0.35566870989E+02  0.17000382342E+01  0.40659143590E+02  0.00000000000E+00 0. -1.
         11    1    3    3    0    0  0.11698605442E+01 -0.63636576775E+01 -0.95558688904E+00  0.65404785217E+01  0.51100000000E-03 0. -1.
        -11    1    3    3    0    0 -0.69274874003E+01  0.12678979548E+01  0.66674896329E+01  0.96980959560E+01  0.51100000000E-03 0.  1.
        -12    1    3    3    0    0 -0.13870758599E+02 -0.30471111266E+02 -0.74119409780E+01  0.34290281932E+02  0.00000000000E+00 0.  1.
</event>
<event>
 7    1  0.5849044E-013  0.5052885E+02  0.7816164E-02  0.1300439E+00
        -11   -1    0    0    0    0  0.00000000000E+00  0.00000000000E+00  0.45593999997E+02  0.45594000000E+02  0.51100000000E-03 0.  1.
         11   -1    0    0    0    0 -0.00000000000E+00 -0.00000000000E+00 -0.45593999997E+02  0.45594000000E+02  0.51100000000E-03 0. -1.
    9900012    2    1    2    0    0 -0.20103416518E+02  0.33215364817E+02  0.12073051165E+02  0.50528851214E+02  0.29999973749E+02 0.  0.
         12    1    1    2    0    0  0.20103416518E+02 -0.33215364817E+02 -0.12073051165E+02  0.40659148786E+02  0.00000000000E+00 0. -1.
         11    1    3    3    0    0  0.19840358120E+01 -0.36888543147E-01 -0.31640467573E+01  0.37348294488E+01  0.51100000000E-03 0. -1.
        -11    1    3    3    0    0 -0.22603226582E+02  0.33143986845E+02  0.97550360920E+01  0.41286686054E+02  0.51100000000E-03 0.  1.
        -12    1    3    3    0    0  0.51577425263E+00  0.10826651537E+00  0.54820618307E+01  0.55073357110E+01  0.00000000000E+00 0.  1.
</event>
<event>
 7    1  0.5849044E-013  0.5052886E+02  0.7816164E-02  0.1300439E+00
        -11   -1    0    0    0    0  0.00000000000E+00  0.00000000000E+00  0.45593999997E+02  0.45594000000E+02  0.51100000000E-03 0.  1.
         11   -1    0    0    0    0 -0.00000000000E+00 -0.00000000000E+00 -0.45593999997E+02  0.45594000000E+02  0.51100000000E-03 0. -1.
    9900012    2    1    2    0    0 -0.23202748268E+02  0.67722140865E+01  0.32694575236E+02  0.50528860060E+02  0.30000000637E+02 0.  0.
         12    1    1    2    0    0  0.23202748268E+02 -0.67722140865E+01 -0.32694575236E+02  0.40659139940E+02  0.00000000000E+00 0. -1.
         11    1    3    3    0    0 -0.49790430512E+01  0.32951066333E+01 -0.27177323072E+01  0.65600812941E+01  0.51100000000E-03 0. -1.
        -11    1    3    3    0    0 -0.76902989029E+01  0.10916095260E+01  0.31560581247E+02  0.32502347568E+02  0.51100000000E-03 0.  1.
        -12    1    3    3    0    0 -0.10533406314E+02  0.23854979271E+01  0.38517262972E+01  0.11466431197E+02  0.00000000000E+00 0.  1.
</event>
<event>
 7    1  0.5849044E-013  0.5052887E+02  0.7816164E-02  0.1300439E+00
        -11   -1    0    0    0    0  0.00000000000E+00  0.00000000000E+00  0.45593999997E+02  0.45594000000E+02  0.51100000000E-03 0.  1.
         11   -1    0    0    0    0 -0.00000000000E+00 -0.00000000000E+00 -0.45593999997E+02  0.45594000000E+02  0.51100000000E-03 0. -1.
    9900012    2    1    2    0    0  0.24444761993E+02 -0.22961576431E+02  0.22986612358E+02  0.50528871520E+02  0.30000035471E+02 0.  0.
         12    1    1    2    0    0 -0.24444761993E+02  0.22961576431E+02 -0.22986612358E+02  0.40659128480E+02  0.00000000000E+00 0. -1.
         11    1    3    3    0    0  0.18559903410E+01  0.20478297051E+00 -0.24913997220E+01  0.31134721850E+01  0.51100000000E-03 0. -1.
        -11    1    3    3    0    0  0.54356889594E+01 -0.84977738803E+01  0.22489949801E+02  0.24648665637E+02  0.51100000000E-03 0.  1.
        -12    1    3    3    0    0  0.17153082693E+02 -0.14668585521E+02  0.29880622786E+01  0.22766733697E+02  0.00000000000E+00 0.  1.
</event>
<event>
 7    1  0.5849044E-013  0.5052886E+02  0.7816164E-02  0.1300439E+00
        -11   -1    0    0    0    0  0.00000000000E+00  0.00000000000E+00  0.45593999997E+02  0.45594000000E+02  0.51100000000E-03 0.  1.
         11   -1    0    0    0    0 -0.00000000000E+00 -0.00000000000E+00 -0.45593999997E+02  0.45594000000E+02  0.51100000000E-03 0. -1.
    9900012    2    1    2    0    0 -0.16436639612E+02  0.28407995115E+02  0.23999754946E+02  0.50528861475E+02  0.30000004938E+02 0.  0.
         12    1    1    2    0    0  0.16436639612E+02 -0.28407995115E+02 -0.23999754946E+02  0.40659138525E+02  0.00000000000E+00 0. -1.
         11    1    3    3    0    0 -0.17704860231E+02  0.27829426447E+01  0.66173866821E+01  0.19104885562E+02  0.51100000000E-03 0. -1.
        -11    1    3    3    0    0  0.12247870042E+01  0.99605709458E+01  0.39362340837E+01  0.10779935797E+02  0.51100000000E-03 0.  1.
         12    1    3    3    0    0  0.43433614770E-01  0.15664481524E+02  0.13446134180E+02  0.20644040115E+02  0.00000000000E+00 0. -1.
</event>
<event>
 7    1  0.5849044E-013  0.5052886E+02  0.7816164E-02  0.1300439E+00
        -11   -1    0    0    0    0  0.00000000000E+00  0.00000000000E+00  0.45593999997E+02  0.45594000000E+02  0.51100000000E-03 0.  1.
         11   -1    0    0    0    0 -0.00000000000E+00 -0.00000000000E+00 -0.45593999997E+02  0.45594000000E+02  0.51100000000E-03 0. -1.
    9900012    2    1    2    0    0 -0.33439837888E+02  0.11024261705E+02 -0.20332445307E+02  0.50528862819E+02  0.30000009026E+02 0.  0.
         12    1    1    2    0    0  0.33439837888E+02 -0.11024261705E+02  0.20332445307E+02  0.40659137181E+02  0.00000000000E+00 0. -1.
         11    1    3    3    0    0  0.30306163779E-01 -0.86865653868E+00 -0.45125354966E+01  0.45954825116E+01  0.51100000000E-03 0. -1.
        -11    1    3    3    0    0 -0.18752570481E+02  0.13496965251E+01  0.38594043407E+01  0.19193112892E+02  0.51100000000E-03 0.  1.
        -12    1    3    3    0    0 -0.14717573571E+02  0.10543221719E+02 -0.19679314151E+02  0.26740267416E+02  0.00000000000E+00 0.  1.
</event>
<event>
 7    1  0.5849044E-013  0.5052887E+02  0.7816164E-02  0.1300439E+00
        -11   -1    0    0    0    0  0.00000000000E+00  0.00000000000E+00  0.45593999997E+02  0.45594000000E+02  0.51100000000E-03 0.  1.
         11   -1    0    0    0    0 -0.00000000000E+00 -0.00000000000E+00 -0.45593999997E+02  0.45594000000E+02  0.51100000000E-03 0. -1.
    9900012    2    1    2    0    0  0.17347964499E+02  0.24905925380E+02  0.27053800850E+02  0.50528866565E+02  0.30000020410E+02 0.  0.
         12    1    1    2    0    0 -0.17347964499E+02 -0.24905925380E+02 -0.27053800850E+02  0.40659133435E+02  0.00000000000E+00 0. -1.
         11    1    3    3    0    0  0.23989174445E+02  0.19077240572E+02  0.15296851977E+02  0.34255149672E+02  0.51100000000E-03 0. -1.
        -11    1    3    3    0    0 -0.42076499084E+01 -0.10118817707E+00  0.74327627318E+01  0.85416929754E+01  0.51100000000E-03 0.  1.
         12    1    3    3    0    0 -0.24335600373E+01  0.59298729843E+01  0.43241861420E+01  0.77320239172E+01  0.00000000000E+00 0. -1.
</event>
<event>
 7    1  0.5849044E-013  0.5052886E+02  0.7816164E-02  0.1300439E+00
        -11   -1    0    0    0    0  0.00000000000E+00  0.00000000000E+00  0.45593999997E+02  0.45594000000E+02  0.51100000000E-03 0.  1.
         11   -1    0    0    0    0 -0.00000000000E+00 -0.00000000000E+00 -0.45593999997E+02  0.45594000000E+02  0.51100000000E-03 0. -1.
    9900012    2    1    2    0    0 -0.21318533194E+02 -0.31290058359E+02  0.14819511084E+02  0.50528861809E+02  0.30000005955E+02 0.  0.
         12    1    1    2    0    0  0.21318533194E+02  0.31290058359E+02 -0.14819511084E+02  0.40659138191E+02  0.00000000000E+00 0. -1.
         11    1    3    3    0    0 -0.14507424159E+02 -0.31027141169E+01 -0.57150662282E+00  0.14846508367E+02  0.51100000000E-03 0. -1.
        -11    1    3    3    0    0 -0.43362255024E+01 -0.22974162616E+02  0.51697836089E+01  0.23944553919E+02  0.51100000000E-03 0.  1.
        -12    1    3    3    0    0 -0.24748835331E+01 -0.52131816257E+01  0.10221234098E+02  0.11737799523E+02  0.00000000000E+00 0.  1.
</event>
<event>
 7    1  0.5849044E-013  0.5052886E+02  0.7816164E-02  0.1300439E+00
        -11   -1    0    0    0    0  0.00000000000E+00  0.00000000000E+00  0.45593999997E+02  0.45594000000E+02  0.51100000000E-03 0. -1.
         11   -1    0    0    0    0 -0.00000000000E+00 -0.00000000000E+00 -0.45593999997E+02  0.45594000000E+02  0.51100000000E-03 0.  1.
    9900012    2    1    2    0    0 -0.22656205599E+02 -0.33659979218E+02  0.26206983511E+01  0.50528856958E+02  0.29999991209E+02 0.  0.
         12    1    1    2    0    0  0.22656205599E+02  0.33659979218E+02 -0.26206983511E+01  0.40659143042E+02  0.00000000000E+00 0. -1.
         11    1    3    3    0    0 -0.89234098125E+01  0.12591901726E+01  0.20648264875E+01  0.92453399752E+01  0.51100000000E-03 0. -1.
        -11    1    3    3    0    0 -0.97889917028E+00 -0.18250114812E+02 -0.60958511138E+01  0.19266144796E+02  0.51100000000E-03 0.  1.
         12    1    3    3    0    0 -0.12753896616E+02 -0.16669054579E+02  0.66517229775E+01  0.22017372187E+02  0.00000000000E+00 0. -1.
</event>
<event>
 7    1  0.5849044E-013  0.5052886E+02  0.7816164E-02  0.1300439E+00
        -11   -1    0    0    0    0  0.00000000000E+00  0.00000000000E+00  0.45593999997E+02  0.45594000000E+02  0.51100000000E-03 0. -1.
         11   -1    0    0    0    0 -0.00000000000E+00 -0.00000000000E+00 -0.45593999997E+02  0.45594000000E+02  0.51100000000E-03 0.  1.
    9900012    2    1    2    0    0 -0.19707501458E+02 -0.20350441043E+02 -0.29165720684E+02  0.50528864158E+02  0.30000013096E+02 0.  0.
         12    1    1    2    0    0  0.19707501458E+02  0.20350441043E+02  0.29165720684E+02  0.40659135842E+02  0.00000000000E+00 0. -1.
         11    1    3    3    0    0 -0.95982094493E+01 -0.15865524042E+02  0.14342095465E+00  0.18543490706E+02  0.51100000000E-03 0. -1.
        -11    1    3    3    0    0 -0.97653569064E+01 -0.50752498159E+01 -0.21562979216E+02  0.24209139372E+02  0.51100000000E-03 0.  1.
         12    1    3    3    0    0 -0.34393510276E+00  0.59033281461E+00 -0.77461624228E+01  0.77762340800E+01  0.00000000000E+00 0. -1.
</event>
<event>
 7    1  0.5849044E-013  0.5052886E+02  0.7816164E-02  0.1300439E+00
        -11   -1    0    0    0    0  0.00000000000E+00  0.00000000000E+00  0.45593999997E+02  0.45594000000E+02  0.51100000000E-03 0. -1.
         11   -1    0    0    0    0 -0.00000000000E+00 -0.00000000000E+00 -0.45593999997E+02  0.45594000000E+02  0.51100000000E-03 0.  1.
    9900012    2    1    2    0    0  0.36405032913E+02  0.16908838921E+02 -0.64753512576E+01  0.50528862910E+02  0.30000009301E+02 0.  0.
         12    1    1    2    0    0 -0.36405032913E+02 -0.16908838921E+02  0.64753512576E+01  0.40659137090E+02  0.00000000000E+00 0. -1.
         11    1    3    3    0    0  0.22788262463E+01 -0.60452007968E+01  0.38928376044E+01  0.75426577948E+01  0.51100000000E-03 0. -1.
        -11    1    3    3    0    0  0.27010116571E+02  0.19362564453E+02 -0.56114926887E+01  0.33703770558E+02  0.51100000000E-03 0.  1.
         12    1    3    3    0    0  0.71160900955E+01  0.35914752639E+01 -0.47566961732E+01  0.92824345569E+01  0.00000000000E+00 0. -1.
</event>
<event>
 7    1  0.5849044E-013  0.5052886E+02  0.7816164E-02  0.1300439E+00
        -11   -1    0    0    0    0  0.00000000000E+00  0.00000000000E+00  0.45593999997E+02  0.45594000000E+02  0.51100000000E-03 0.  1.
         11   -1    0    0    0    0 -0.00000000000E+00 -0.00000000000E+00 -0.45593999997E+02  0.45594000000E+02  0.51100000000E-03 0. -1.
    9900012    2    1    2    0    0  0.45283011090E+01 -0.43959530445E+01  0.40166350810E+02  0.50528860173E+02  0.30000000982E+02 0.  0.
         12    1    1    2    0    0 -0.45283011090E+01  0.43959530445E+01 -0.40166350810E+02  0.40659139827E+02  0.00000000000E+00 0. -1.
         11    1    3    3    0    0  0.90140492313E+01  0.37751266984E+01  0.10227878762E+01  0.98260246506E+01  0.51100000000E-03 0. -1.
        -11    1    3    3    0    0 -0.32604694743E+01 -0.65581063104E+01  0.37134657794E+02  0.37849996424E+02  0.51100000000E-03 0.  1.
        -12    1    3    3    0    0 -0.12252786480E+01 -0.16129734324E+01  0.20089051393E+01  0.28528390978E+01  0.00000000000E+00 0.  1.
</event>
<event>
 7    1  0.5849044E-013  0.5052886E+02  0.7816164E-02  0.1300439E+00
        -11   -1    0    0    0    0  0.00000000000E+00  0.00000000000E+00  0.45593999997E+02  0.45594000000E+02  0.51100000000E-03 0. -1.
         11   -1    0    0    0    0 -0.00000000000E+00 -0.00000000000E+00 -0.45593999997E+02  0.45594000000E+02  0.51100000000E-03 0.  1.
    9900012    2    1    2    0    0 -0.33648852365E+01  0.40357657277E+02 -0.36197425141E+01  0.50528862166E+02  0.30000007039E+02 0.  0.
         12    1    1    2    0    0  0.33648852365E+01 -0.40357657277E+02  0.36197425141E+01  0.40659137834E+02  0.00000000000E+00 0. -1.
         11    1    3    3    0    0 -0.87114958023E+01  0.87174896576E-01 -0.12743640245E+01  0.88046443712E+01  0.51100000000E-03 0. -1.
        -11    1    3    3    0    0  0.17101767237E+01  0.77817832179E+00 -0.77881913607E+00  0.20339187384E+01  0.51100000000E-03 0.  1.
         12    1    3    3    0    0  0.36364338421E+01  0.39492304059E+02 -0.15665593535E+01  0.39690299056E+02  0.00000000000E+00 0. -1.
</event>
<event>
 7    1  0.5849044E-013  0.5052887E+02  0.7816164E-02  0.1300439E+00
        -11   -1    0    0    0    0  0.00000000000E+00  0.00000000000E+00  0.45593999997E+02  0.45594000000E+02  0.51100000000E-03 0.  1.
         11   -1    0    0    0    0 -0.00000000000E+00 -0.00000000000E+00 -0.45593999997E+02  0.45594000000E+02  0.51100000000E-03 0. -1.
    9900012    2    1    2    0    0  0.10546184209E+01  0.41695506434E+01  0.40431018989E+02  0.50528872254E+02  0.30000037703E+02 0.  0.
         12    1    1    2    0    0 -0.10546184209E+01 -0.41695506434E+01 -0.40431018989E+02  0.40659127746E+02  0.00000000000E+00 0. -1.
         11    1    3    3    0    0  0.80069904668E+01  0.18399070404E+01  0.35284532063E+01  0.89413162646E+01  0.51100000000E-03 0. -1.
        -11    1    3    3    0    0 -0.83978802412E+01  0.90138007663E+01  0.22859901530E+02  0.25968213165E+02  0.51100000000E-03 0.  1.
        -12    1    3    3    0    0  0.14455081952E+01 -0.66841571634E+01  0.14042664253E+02  0.15619342824E+02  0.00000000000E+00 0.  1.
</event>
<event>
 7    1  0.5849044E-013  0.5052886E+02  0.7816164E-02  0.1300439E+00
        -11   -1    0    0    0    0  0.00000000000E+00  0.00000000000E+00  0.45593999997E+02  0.45594000000E+02  0.51100000000E-03 0.  1.
         11   -1    0    0    0    0 -0.00000000000E+00 -0.00000000000E+00 -0.45593999997E+02  0.45594000000E+02  0.51100000000E-03 0. -1.
    9900012    2    1    2    0    0  0.18301140706E+02  0.13512770560E+00  0.36307238065E+02  0.50528861464E+02  0.30000004905E+02 0.  0.
         12    1    1    2    0    0 -0.18301140706E+02 -0.13512770560E+00 -0.36307238065E+02  0.40659138536E+02  0.00000000000E+00 0. -1.
         11    1    3    3    0    0 -0.43529816517E+01 -0.13507271935E+01 -0.18811617814E+01  0.49306878953E+01  0.51100000000E-03 0. -1.
        -11    1    3    3    0    0 -0.33076367159E-01  0.19908593101E+01  0.16481837133E+01  0.25847871581E+01  0.51100000000E-03 0.  1.
         12    1    3    3    0    0  0.22687198725E+02 -0.50500441098E+00  0.36540216133E+02  0.43013386410E+02  0.00000000000E+00 0. -1.
</event>
<event>
 7    1  0.5849044E-013  0.5052886E+02  0.7816164E-02  0.1300439E+00
        -11   -1    0    0    0    0  0.00000000000E+00  0.00000000000E+00  0.45593999997E+02  0.45594000000E+02  0.51100000000E-03 0. -1.
         11   -1    0    0    0    0 -0.00000000000E+00 -0.00000000000E+00 -0.45593999997E+02  0.45594000000E+02  0.51100000000E-03 0.  1.
    9900012    2    1    2    0    0 -0.10535626322E+02 -0.39167416158E+02  0.28424995232E+01  0.50528859403E+02  0.29999998643E+02 0.  0.
         12    1    1    2    0    0  0.10535626322E+02  0.39167416158E+02 -0.28424995232E+01  0.40659140597E+02  0.00000000000E+00 0. -1.
         11    1    3    3    0    0  0.75527415560E+01 -0.16710077664E+02 -0.42939263420E+01  0.18833703944E+02  0.51100000000E-03 0. -1.
        -11    1    3    3    0    0 -0.10253206211E+02 -0.11892269711E+02  0.94695588220E+01  0.18336489878E+02  0.51100000000E-03 0.  1.
         12    1    3    3    0    0 -0.78351616674E+01 -0.10565068782E+02 -0.23331329567E+01  0.13358665582E+02  0.00000000000E+00 0. -1.
</event>
<event>
 7    1  0.5849044E-013  0.5052885E+02  0.7816164E-02  0.1300439E+00
        -11   -1    0    0    0    0  0.00000000000E+00  0.00000000000E+00  0.45593999997E+02  0.45594000000E+02  0.51100000000E-03 0. -1.
         11   -1    0    0    0    0 -0.00000000000E+00 -0.00000000000E+00 -0.45593999997E+02  0.45594000000E+02  0.51100000000E-03 0.  1.
    9900012    2    1    2    0    0  0.16817323473E+02  0.23764684454E+02 -0.28382816508E+02  0.50528845202E+02  0.29999955475E+02 0.  0.
         12    1    1    2    0    0 -0.16817323473E+02 -0.23764684454E+02  0.28382816508E+02  0.40659154798E+02  0.00000000000E+00 0. -1.
         11    1    3    3    0    0  0.12005907193E+02  0.49909926841E+01 -0.12246797974E+02  0.17861575417E+02  0.51100000000E-03 0.  1.
        -11    1    3    3    0    0 -0.19399847744E+01  0.10682144672E+01  0.42760734345E+01  0.48155401931E+01  0.51100000000E-03 0. -1.
        -12    1    3    3    0    0  0.67514010542E+01  0.17705477303E+02 -0.20412091968E+02  0.27851729591E+02  0.00000000000E+00 0.  1.
</event>
<event>
 7    1  0.5849044E-013  0.5052887E+02  0.7816164E-02  0.1300439E+00
        -11   -1    0    0    0    0  0.00000000000E+00  0.00000000000E+00  0.45593999997E+02  0.45594000000E+02  0.51100000000E-03 0.  1.
         11   -1    0    0    0    0 -0.00000000000E+00 -0.00000000000E+00 -0.45593999997E+02  0.45594000000E+02  0.51100000000E-03 0. -1.
    9900012    2    1    2    0    0  0.23776263436E+02 -0.25965775689E+02  0.20337968846E+02  0.50528865886E+02  0.30000018346E+02 0.  0.
         12    1    1    2    0    0 -0.23776263436E+02  0.25965775689E+02 -0.20337968846E+02  0.40659134114E+02  0.00000000000E+00 0. -1.
         11    1    3    3    0    0  0.33552913956E+01 -0.18536448600E+02 -0.19744360018E+01  0.18940863360E+02  0.51100000000E-03 0. -1.
        -11    1    3    3    0    0  0.79156197865E+01 -0.55085566183E+01  0.84759571972E+01  0.12839123151E+02  0.51100000000E-03 0.  1.
         12    1    3    3    0    0  0.12505352254E+02 -0.19207704714E+01  0.13836447651E+02  0.18748879374E+02  0.00000000000E+00 0. -1.
</event>
<event>
 7    1  0.5849044E-013  0.5052885E+02  0.7816164E-02  0.1300439E+00
        -11   -1    0    0    0    0  0.00000000000E+00  0.00000000000E+00  0.45593999997E+02  0.45594000000E+02  0.51100000000E-03 0. -1.
         11   -1    0    0    0    0 -0.00000000000E+00 -0.00000000000E+00 -0.45593999997E+02  0.45594000000E+02  0.51100000000E-03 0.  1.
    9900012    2    1    2    0    0  0.31578058998E+02 -0.24338193300E+02 -0.79777882027E+01  0.50528848905E+02  0.29999966730E+02 0.  0.
         12    1    1    2    0    0 -0.31578058998E+02  0.24338193300E+02  0.79777882027E+01  0.40659151095E+02  0.00000000000E+00 0. -1.
         11    1    3    3    0    0  0.20809804341E+01  0.36632011171E+01 -0.28079469480E+01  0.50630117831E+01  0.51100000000E-03 0. -1.
        -11    1    3    3    0    0  0.49283487943E+01 -0.17889519410E+02 -0.11094380065E+01  0.18589093026E+02  0.51100000000E-03 0.  1.
        -12    1    3    3    0    0  0.24568729770E+02 -0.10111875007E+02 -0.40604032482E+01  0.26876744096E+02  0.00000000000E+00 0.  1.
</event>
<event>
 7    1  0.5849044E-013  0.5052885E+02  0.7816164E-02  0.1300439E+00
        -11   -1    0    0    0    0  0.00000000000E+00  0.00000000000E+00  0.45593999997E+02  0.45594000000E+02  0.51100000000E-03 0.  1.
         11   -1    0    0    0    0 -0.00000000000E+00 -0.00000000000E+00 -0.45593999997E+02  0.45594000000E+02  0.51100000000E-03 0. -1.
    9900012    2    1    2    0    0 -0.25570950797E+02 -0.27239668526E+02 -0.16040376891E+02  0.50528846580E+02  0.29999959663E+02 0.  0.
         12    1    1    2    0    0  0.25570950797E+02  0.27239668526E+02  0.16040376891E+02  0.40659153420E+02  0.00000000000E+00 0. -1.
         11    1    3    3    0    0 -0.11623401187E+02 -0.77554753980E+01  0.74567501071E+01  0.15838370378E+02  0.51100000000E-03 0. -1.
        -11    1    3    3    0    0 -0.10992219240E+02 -0.16076570194E+02 -0.13423900956E+02  0.23653458736E+02  0.51100000000E-03 0.  1.
         12    1    3    3    0    0 -0.29553303700E+01 -0.34076229338E+01 -0.10073226042E+02  0.11037017466E+02  0.00000000000E+00 0. -1.
</event>
<event>
 7    1  0.5849044E-013  0.5052888E+02  0.7816164E-02  0.1300439E+00
        -11   -1    0    0    0    0  0.00000000000E+00  0.00000000000E+00  0.45593999997E+02  0.45594000000E+02  0.51100000000E-03 0.  1.
         11   -1    0    0    0    0 -0.00000000000E+00 -0.00000000000E+00 -0.45593999997E+02  0.45594000000E+02  0.51100000000E-03 0. -1.
    9900012    2    1    2    0    0 -0.63662818228E+01 -0.38503752620E+02  0.11405926362E+02  0.50528884586E+02  0.30000075187E+02 0.  0.
         12    1    1    2    0    0  0.63662818228E+01  0.38503752620E+02 -0.11405926362E+02  0.40659115414E+02  0.00000000000E+00 0. -1.
         11    1    3    3    0    0  0.10171988921E+02 -0.27167153405E+02  0.55129767296E+01  0.29528232176E+02  0.51100000000E-03 0. -1.
        -11    1    3    3    0    0 -0.49056942491E+01 -0.28376318648E+01  0.25323225770E+01  0.62073060630E+01  0.51100000000E-03 0.  1.
         12    1    3    3    0    0 -0.11632576495E+02 -0.84989673500E+01  0.33606270556E+01  0.14793346347E+02  0.00000000000E+00 0. -1.
</event>
<event>
 7    1  0.5849044E-013  0.5052884E+02  0.7816164E-02  0.1300439E+00
        -11   -1    0    0    0    0  0.00000000000E+00  0.00000000000E+00  0.45593999997E+02  0.45594000000E+02  0.51100000000E-03 0.  1.
         11   -1    0    0    0    0 -0.00000000000E+00 -0.00000000000E+00 -0.45593999997E+02  0.45594000000E+02  0.51100000000E-03 0. -1.
    9900012    2    1    2    0    0  0.23757709777E+02  0.25296151074E+02 -0.21185911759E+02  0.50528844942E+02  0.29999954685E+02 0.  0.
         12    1    1    2    0    0 -0.23757709777E+02 -0.25296151074E+02  0.21185911759E+02  0.40659155058E+02  0.00000000000E+00 0. -1.
         11    1    3    3    0    0  0.12890336471E+02  0.73768650062E+00 -0.32537936820E+01  0.13315109060E+02  0.51100000000E-03 0. -1.
        -11    1    3    3    0    0 -0.50512667393E+01  0.87119233138E+01 -0.43889604055E+01  0.10985257266E+02  0.51100000000E-03 0.  1.
        -12    1    3    3    0    0  0.15918640045E+02  0.15846541259E+02 -0.13543157672E+02  0.26228478616E+02  0.00000000000E+00 0.  1.
</event>
<event>
 7    1  0.5849044E-013  0.5052886E+02  0.7816164E-02  0.1300439E+00
        -11   -1    0    0    0    0  0.00000000000E+00  0.00000000000E+00  0.45593999997E+02  0.45594000000E+02  0.51100000000E-03 0.  1.
         11   -1    0    0    0    0 -0.00000000000E+00 -0.00000000000E+00 -0.45593999997E+02  0.45594000000E+02  0.51100000000E-03 0. -1.
    9900012    2    1    2    0    0  0.25187741965E+02 -0.22986717241E+02  0.22143936664E+02  0.50528862703E+02  0.30000008671E+02 0.  0.
         12    1    1    2    0    0 -0.25187741965E+02  0.22986717241E+02 -0.22143936664E+02  0.40659137297E+02  0.00000000000E+00 0. -1.
         11    1    3    3    0    0 -0.47161069343E+01 -0.12493656943E+01 -0.16773191567E+01  0.51590676550E+01  0.51100000000E-03 0. -1.
        -11    1    3    3    0    0  0.17112336950E+02 -0.18681727705E+02  0.13911310059E+02  0.28902656863E+02  0.51100000000E-03 0.  1.
        -12    1    3    3    0    0  0.12791511949E+02 -0.30556238420E+01  0.99099457618E+01  0.16467138185E+02  0.00000000000E+00 0.  1.
</event>
<event>
 7    1  0.5849044E-013  0.5052886E+02  0.7816164E-02  0.1300439E+00
        -11   -1    0    0    0    0  0.00000000000E+00  0.00000000000E+00  0.45593999997E+02  0.45594000000E+02  0.51100000000E-03 0.  1.
         11   -1    0    0    0    0 -0.00000000000E+00 -0.00000000000E+00 -0.45593999997E+02  0.45594000000E+02  0.51100000000E-03 0. -1.
    9900012    2    1    2    0    0  0.13836185518E+02 -0.30138915650E+02  0.23523854110E+02  0.50528856153E+02  0.29999988761E+02 0.  0.
         12    1    1    2    0    0 -0.13836185518E+02  0.30138915650E+02 -0.23523854110E+02  0.40659143847E+02  0.00000000000E+00 0. -1.
         11    1    3    3    0    0  0.11184836937E+02 -0.35568307212E+01  0.32525671295E+01  0.12179113896E+02  0.51100000000E-03 0. -1.
        -11    1    3    3    0    0  0.24645143077E+01 -0.24286050874E+02  0.23827823865E+02  0.34112333374E+02  0.51100000000E-03 0.  1.
        -12    1    3    3    0    0  0.18683427250E+00 -0.22960340543E+01 -0.35565368846E+01  0.42374088823E+01  0.00000000000E+00 0.  1.
</event>
<event>
 7    1  0.5849044E-013  0.5052880E+02  0.7816164E-02  0.1300439E+00
        -11   -1    0    0    0    0  0.00000000000E+00  0.00000000000E+00  0.45593999997E+02  0.45594000000E+02  0.51100000000E-03 0. -1.
         11   -1    0    0    0    0 -0.00000000000E+00 -0.00000000000E+00 -0.45593999997E+02  0.45594000000E+02  0.51100000000E-03 0.  1.
    9900012    2    1    2    0    0  0.14847791303E+02 -0.37756842549E+02 -0.26710676344E+01  0.50528798481E+02  0.29999813462E+02 0.  0.
         12    1    1    2    0    0 -0.14847791303E+02  0.37756842549E+02  0.26710676344E+01  0.40659201519E+02  0.00000000000E+00 0. -1.
         11    1    3    3    0    0  0.62016301478E+01 -0.16113636093E+02 -0.98734762772E+01  0.19889570601E+02  0.51100000000E-03 0. -1.
        -11    1    3    3    0    0  0.90946480220E+01 -0.20940724035E+02  0.11984689106E+02  0.25784866084E+02  0.51100000000E-03 0.  1.
         12    1    3    3    0    0 -0.44848686689E+00 -0.70248242118E+00 -0.47822804629E+01  0.48543617961E+01  0.00000000000E+00 0. -1.
</event>
<event>
 7    1  0.5849044E-013  0.5052885E+02  0.7816164E-02  0.1300439E+00
        -11   -1    0    0    0    0  0.00000000000E+00  0.00000000000E+00  0.45593999997E+02  0.45594000000E+02  0.51100000000E-03 0.  1.
         11   -1    0    0    0    0 -0.00000000000E+00 -0.00000000000E+00 -0.45593999997E+02  0.45594000000E+02  0.51100000000E-03 0. -1.
    9900012    2    1    2    0    0 -0.23185926524E+02  0.29679223902E+02  0.15320670173E+02  0.50528850295E+02  0.29999970956E+02 0.  0.
         12    1    1    2    0    0  0.23185926524E+02 -0.29679223902E+02 -0.15320670173E+02  0.40659149705E+02  0.00000000000E+00 0. -1.
         11    1    3    3    0    0 -0.13524155970E+02  0.14163958801E+02 -0.54452422825E+01  0.20326612787E+02  0.51100000000E-03 0.  1.
        -11    1    3    3    0    0 -0.10949928869E+02  0.16209426929E+02  0.21023509572E+02  0.28716448572E+02  0.51100000000E-03 0. -1.
         12    1    3    3    0    0  0.12881583152E+01 -0.69416182750E+00 -0.25759711696E+00  0.14857889360E+01  0.00000000000E+00 0. -1.
</event>
<event>
 7    1  0.5849044E-013  0.5052885E+02  0.7816164E-02  0.1300439E+00
        -11   -1    0    0    0    0  0.00000000000E+00  0.00000000000E+00  0.45593999997E+02  0.45594000000E+02  0.51100000000E-03 0.  1.
         11   -1    0    0    0    0 -0.00000000000E+00 -0.00000000000E+00 -0.45593999997E+02  0.45594000000E+02  0.51100000000E-03 0. -1.
    9900012    2    1    2    0    0 -0.12156618061E+02  0.18708051912E+02  0.33991053995E+02  0.50528851943E+02  0.29999975966E+02 0.  0.
         12    1    1    2    0    0  0.12156618061E+02 -0.18708051912E+02 -0.33991053995E+02  0.40659148057E+02  0.00000000000E+00 0. -1.
         11    1    3    3    0    0  0.43274805371E+01  0.16683331272E+02  0.11213062330E+02  0.20561940502E+02  0.51100000000E-03 0. -1.
        -11    1    3    3    0    0 -0.16728959062E+02  0.37156567179E+01  0.17820060324E+02  0.24722838153E+02  0.51100000000E-03 0.  1.
        -12    1    3    3    0    0  0.24486046370E+00 -0.16909360780E+01  0.49579313406E+01  0.52440732875E+01  0.00000000000E+00 0.  1.
</event>
<event>
 7    1  0.5849044E-013  0.5052885E+02  0.7816164E-02  0.1300439E+00
        -11   -1    0    0    0    0  0.00000000000E+00  0.00000000000E+00  0.45593999997E+02  0.45594000000E+02  0.51100000000E-03 0.  1.
         11   -1    0    0    0    0 -0.00000000000E+00 -0.00000000000E+00 -0.45593999997E+02  0.45594000000E+02  0.51100000000E-03 0. -1.
    9900012    2    1    2    0    0 -0.40153539702E+02  0.63607439402E+01  0.63269694354E+00  0.50528854417E+02  0.29999983487E+02 0.  0.
         12    1    1    2    0    0  0.40153539702E+02 -0.63607439402E+01 -0.63269694354E+00  0.40659145583E+02  0.00000000000E+00 0. -1.
         11    1    3    3    0    0 -0.14903805456E+02  0.57888731186E+01 -0.30498473816E+01  0.16276855911E+02  0.51100000000E-03 0. -1.
        -11    1    3    3    0    0 -0.16222946320E+02 -0.10772360721E+02  0.93255540046E+00  0.19496086855E+02  0.51100000000E-03 0.  1.
        -12    1    3    3    0    0 -0.90267879261E+01  0.11344231543E+02  0.27499889246E+01  0.14755911651E+02  0.00000000000E+00 0.  1.
</event>
<event>
 7    1  0.5849044E-013  0.5052885E+02  0.7816164E-02  0.1300439E+00
        -11   -1    0    0    0    0  0.00000000000E+00  0.00000000000E+00  0.45593999997E+02  0.45594000000E+02  0.51100000000E-03 0.  1.
         11   -1    0    0    0    0 -0.00000000000E+00 -0.00000000000E+00 -0.45593999997E+02  0.45594000000E+02  0.51100000000E-03 0. -1.
    9900012    2    1    2    0    0 -0.18176080492E+02 -0.97919783602E+01  0.35027322730E+02  0.50528854904E+02  0.29999984967E+02 0.  0.
         12    1    1    2    0    0  0.18176080492E+02  0.97919783602E+01 -0.35027322730E+02  0.40659145096E+02  0.00000000000E+00 0. -1.
         11    1    3    3    0    0 -0.18492382971E+02 -0.81570850409E+01  0.95956638690E+01  0.22373712916E+02  0.51100000000E-03 0. -1.
        -11    1    3    3    0    0  0.13638709685E+01 -0.66599528315E+01  0.12260608474E+02  0.14019188142E+02  0.51100000000E-03 0.  1.
         12    1    3    3    0    0 -0.10475684891E+01  0.50250595122E+01  0.13171050387E+02  0.14135953846E+02  0.00000000000E+00 0. -1.
</event>
<event>
 7    1  0.5849044E-013  0.5052885E+02  0.7816164E-02  0.1300439E+00
        -11   -1    0    0    0    0  0.00000000000E+00  0.00000000000E+00  0.45593999997E+02  0.45594000000E+02  0.51100000000E-03 0.  1.
         11   -1    0    0    0    0 -0.00000000000E+00 -0.00000000000E+00 -0.45593999997E+02  0.45594000000E+02  0.51100000000E-03 0. -1.
    9900012    2    1    2    0    0  0.55714940398E+01  0.56143003079E+01  0.39882382568E+02  0.50528851545E+02  0.29999974756E+02 0.  0.
         12    1    1    2    0    0 -0.55714940398E+01 -0.56143003079E+01 -0.39882382568E+02  0.40659148455E+02  0.00000000000E+00 0. -1.
         11    1    3    3    0    0 -0.24922219250E+01  0.11950276782E+02  0.86036016207E+01  0.14934598970E+02  0.51100000000E-03 0. -1.
        -11    1    3    3    0    0 -0.24342932157E+01 -0.20400700951E+01  0.17315403116E+02  0.17604285126E+02  0.51100000000E-03 0.  1.
         12    1    3    3    0    0  0.10498009180E+02 -0.42959063789E+01  0.13963377831E+02  0.17989967449E+02  0.00000000000E+00 0. -1.
</event>
<event>
 7    1  0.5849044E-013  0.5052886E+02  0.7816164E-02  0.1300439E+00
        -11   -1    0    0    0    0  0.00000000000E+00  0.00000000000E+00  0.45593999997E+02  0.45594000000E+02  0.51100000000E-03 0.  1.
         11   -1    0    0    0    0 -0.00000000000E+00 -0.00000000000E+00 -0.45593999997E+02  0.45594000000E+02  0.51100000000E-03 0. -1.
    9900012    2    1    2    0    0 -0.31191581324E+02 -0.25621139888E+02  0.48793811491E+01  0.50528856931E+02  0.29999991128E+02 0.  0.
         12    1    1    2    0    0  0.31191581324E+02  0.25621139888E+02 -0.48793811491E+01  0.40659143069E+02  0.00000000000E+00 0. -1.
         11    1    3    3    0    0 -0.77013559005E-01 -0.60695220578E+01 -0.86170925814E+01  0.10540365929E+02  0.51100000000E-03 0. -1.
        -11    1    3    3    0    0 -0.31203561471E+02 -0.18281687793E+02  0.12188725376E+02  0.38163429925E+02  0.51100000000E-03 0.  1.
         12    1    3    3    0    0  0.88993705795E-01 -0.12699300376E+01  0.13077483541E+01  0.18250610778E+01  0.00000000000E+00 0. -1.
</event>
<event>
 7    1  0.5849044E-013  0.5052888E+02  0.7816164E-02  0.1300439E+00
        -11   -1    0    0    0    0  0.00000000000E+00  0.00000000000E+00  0.45593999997E+02  0.45594000000E+02  0.51100000000E-03 0.  1.
         11   -1    0    0    0    0 -0.00000000000E+00 -0.00000000000E+00 -0.45593999997E+02  0.45594000000E+02  0.51100000000E-03 0. -1.
    9900012    2    1    2    0    0  0.53530918501E+01  0.35591068033E+02  0.18915196746E+02  0.50528875759E+02  0.30000048358E+02 0.  0.
         12    1    1    2    0    0 -0.53530918501E+01 -0.35591068033E+02 -0.18915196746E+02  0.40659124241E+02  0.00000000000E+00 0. -1.
         11    1    3    3    0    0 -0.10240356401E+02  0.11574348483E+02  0.65887417640E+01  0.16800058343E+02  0.51100000000E-03 0. -1.
        -11    1    3    3    0    0  0.14158853786E+02  0.12716194868E+02  0.11658454657E+02  0.22318026743E+02  0.51100000000E-03 0.  1.
        -12    1    3    3    0    0  0.14345944653E+01  0.11300524681E+02  0.66800032544E+00  0.11410790673E+02  0.00000000000E+00 0.  1.
</event>
<event>
 7    1  0.5849044E-013  0.5052886E+02  0.7816164E-02  0.1300439E+00
        -11   -1    0    0    0    0  0.00000000000E+00  0.00000000000E+00  0.45593999997E+02  0.45594000000E+02  0.51100000000E-03 0.  1.
         11   -1    0    0    0    0 -0.00000000000E+00 -0.00000000000E+00 -0.45593999997E+02  0.45594000000E+02  0.51100000000E-03 0. -1.
    9900012    2    1    2    0    0 -0.14956650895E+02  0.28772587886E+02  0.24527583859E+02  0.50528860933E+02  0.30000003293E+02 0.  0.
         12    1    1    2    0    0  0.14956650895E+02 -0.28772587886E+02 -0.24527583859E+02  0.40659139067E+02  0.00000000000E+00 0. -1.
         11    1    3    3    0    0 -0.16217732985E+02  0.19181704833E+02  0.39945539398E+01  0.25434408287E+02  0.51100000000E-03 0. -1.
        -11    1    3    3    0    0  0.49535303981E+00  0.11572618462E+02  0.19615577159E+02  0.22780292804E+02  0.51100000000E-03 0.  1.
         12    1    3    3    0    0  0.76572904984E+00 -0.19817354088E+01  0.91745276106E+00  0.23141598426E+01  0.00000000000E+00 0. -1.
</event>
<event>
 7    1  0.5849044E-013  0.5052884E+02  0.7816164E-02  0.1300439E+00
        -11   -1    0    0    0    0  0.00000000000E+00  0.00000000000E+00  0.45593999997E+02  0.45594000000E+02  0.51100000000E-03 0. -1.
         11   -1    0    0    0    0 -0.00000000000E+00 -0.00000000000E+00 -0.45593999997E+02  0.45594000000E+02  0.51100000000E-03 0.  1.
    9900012    2    1    2    0    0  0.12467000417E+02  0.37611432562E+02  0.91171005158E+01  0.50528837680E+02  0.29999932613E+02 0.  0.
         12    1    1    2    0    0 -0.12467000417E+02 -0.37611432562E+02 -0.91171005158E+01  0.40659162320E+02  0.00000000000E+00 0. -1.
         11    1    3    3    0    0 -0.13063349668E+01 -0.42353014758E-01  0.22593031698E+01  0.26101256479E+01  0.51100000000E-03 0. -1.
        -11    1    3    3    0    0  0.16907827998E+02  0.38909574536E+02  0.96837000363E+01  0.43515556814E+02  0.51100000000E-03 0.  1.
        -12    1    3    3    0    0 -0.31344926142E+01 -0.12557889599E+01 -0.28259026904E+01  0.44031552182E+01  0.00000000000E+00 0.  1.
</event>
<event>
 7    1  0.5849044E-013  0.5052892E+02  0.7816164E-02  0.1300439E+00
        -11   -1    0    0    0    0  0.00000000000E+00  0.00000000000E+00  0.45593999997E+02  0.45594000000E+02  0.51100000000E-03 0.  1.
         11   -1    0    0    0    0 -0.00000000000E+00 -0.00000000000E+00 -0.45593999997E+02  0.45594000000E+02  0.51100000000E-03 0. -1.
    9900012    2    1    2    0    0  0.38674786663E+01  0.32401075193E+02  0.24256417848E+02  0.50528918951E+02  0.30000179644E+02 0.  0.
         12    1    1    2    0    0 -0.38674786663E+01 -0.32401075193E+02 -0.24256417848E+02  0.40659081049E+02  0.00000000000E+00 0. -1.
         11    1    3    3    0    0  0.88380505067E+01  0.19151829411E+02  0.25150594862E+02  0.32824626864E+02  0.51100000000E-03 0. -1.
        -11    1    3    3    0    0 -0.10835753168E+01  0.13655875867E+02 -0.13704121995E+01  0.13767175128E+02  0.51100000000E-03 0.  1.
         12    1    3    3    0    0 -0.38869965236E+01 -0.40663008443E+00  0.47623518546E+00  0.39371169594E+01  0.00000000000E+00 0. -1.
</event>
<event>
 7    1  0.5849044E-013  0.5052889E+02  0.7816164E-02  0.1300439E+00
        -11   -1    0    0    0    0  0.00000000000E+00  0.00000000000E+00  0.45593999997E+02  0.45594000000E+02  0.51100000000E-03 0. -1.
         11   -1    0    0    0    0 -0.00000000000E+00 -0.00000000000E+00 -0.45593999997E+02  0.45594000000E+02  0.51100000000E-03 0.  1.
    9900012    2    1    2    0    0  0.63953107912E+01  0.18233166653E+02 -0.35774497564E+02  0.50528892260E+02  0.30000098512E+02 0.  0.
         12    1    1    2    0    0 -0.63953107912E+01 -0.18233166653E+02  0.35774497564E+02  0.40659107740E+02  0.00000000000E+00 0. -1.
         11    1    3    3    0    0  0.48014333639E+01 -0.58766650196E+01 -0.87032303353E+01  0.11547085027E+02  0.51100000000E-03 0. -1.
        -11    1    3    3    0    0  0.49648029759E+01  0.24171895312E+02 -0.23904213074E+02  0.34356093994E+02  0.51100000000E-03 0.  1.
        -12    1    3    3    0    0 -0.33709255485E+01 -0.62063638667E-01 -0.31670541543E+01  0.46257132386E+01  0.00000000000E+00 0.  1.
</event>
<event>
 7    1  0.5849044E-013  0.5052886E+02  0.7816164E-02  0.1300439E+00
        -11   -1    0    0    0    0  0.00000000000E+00  0.00000000000E+00  0.45593999997E+02  0.45594000000E+02  0.51100000000E-03 0. -1.
         11   -1    0    0    0    0 -0.00000000000E+00 -0.00000000000E+00 -0.45593999997E+02  0.45594000000E+02  0.51100000000E-03 0.  1.
    9900012    2    1    2    0    0 -0.15763763460E+02 -0.27967468637E+02 -0.24949759257E+02  0.50528855550E+02  0.29999986930E+02 0.  0.
         12    1    1    2    0    0  0.15763763460E+02  0.27967468637E+02  0.24949759257E+02  0.40659144450E+02  0.00000000000E+00 0. -1.
         11    1    3    3    0    0 -0.11955024448E+02 -0.11759083310E+02  0.30707375055E+01  0.17047817425E+02  0.51100000000E-03 0. -1.
        -11    1    3    3    0    0 -0.34356831415E+01 -0.62780320694E+01 -0.17991081235E+02  0.19362247018E+02  0.51100000000E-03 0.  1.
         12    1    3    3    0    0 -0.37305587037E+00 -0.99303532581E+01 -0.10029415528E+02  0.14118791108E+02  0.00000000000E+00 0. -1.
</event>
<event>
 7    1  0.5849044E-013  0.5052886E+02  0.7816164E-02  0.1300439E+00
        -11   -1    0    0    0    0  0.00000000000E+00  0.00000000000E+00  0.45593999997E+02  0.45594000000E+02  0.51100000000E-03 0. -1.
         11   -1    0    0    0    0 -0.00000000000E+00 -0.00000000000E+00 -0.45593999997E+02  0.45594000000E+02  0.51100000000E-03 0.  1.
    9900012    2    1    2    0    0 -0.12345264464E+02  0.34159525176E+02 -0.18272580999E+02  0.50528856732E+02  0.29999990521E+02 0.  0.
         12    1    1    2    0    0  0.12345264464E+02 -0.34159525176E+02  0.18272580999E+02  0.40659143268E+02  0.00000000000E+00 0. -1.
         11    1    3    3    0    0  0.16435021519E+01 -0.15314398143E+01 -0.31267891802E+01  0.38500932542E+01  0.51100000000E-03 0. -1.
        -11    1    3    3    0    0 -0.11401037255E+01  0.24904903620E+02 -0.13647765124E+01  0.24968313439E+02  0.51100000000E-03 0.  1.
        -12    1    3    3    0    0 -0.12848662891E+02  0.10786061370E+02 -0.13781015307E+02  0.21710450038E+02  0.00000000000E+00 0.  1.
</event>
<event>
 7    1  0.5849044E-013  0.5052887E+02  0.7816164E-02  0.1300439E+00
        -11   -1    0    0    0    0  0.00000000000E+00  0.00000000000E+00  0.45593999997E+02  0.45594000000E+02  0.51100000000E-03 0. -1.
         11   -1    0    0    0    0 -0.00000000000E+00 -0.00000000000E+00 -0.45593999997E+02  0.45594000000E+02  0.51100000000E-03 0.  1.
    9900012    2    1    2    0    0 -0.18519081354E+02  0.25337192347E+01 -0.36108016840E+02  0.50528868338E+02  0.30000025801E+02 0.  0.
         12    1    1    2    0    0  0.18519081354E+02 -0.25337192347E+01  0.36108016840E+02  0.40659131662E+02  0.00000000000E+00 0. -1.
         11    1    3    3    0    0  0.36357702341E+00 -0.12098744673E+01  0.12489756306E+01  0.17764922925E+01  0.51100000000E-03 0. -1.
        -11    1    3    3    0    0 -0.18496528029E+02  0.11967247514E+02 -0.20977337248E+02  0.30420145307E+02  0.51100000000E-03 0.  1.
        -12    1    3    3    0    0 -0.38613034829E+00 -0.82236538119E+01 -0.16379655222E+02  0.18332230739E+02  0.00000000000E+00 0.  1.
</event>
<event>
 7    1  0.5849044E-013  0.5052886E+02  0.7816164E-02  0.1300439E+00
        -11   -1    0    0    0    0  0.00000000000E+00  0.00000000000E+00  0.45593999997E+02  0.45594000000E+02  0.51100000000E-03 0.  1.
         11   -1    0    0    0    0 -0.00000000000E+00 -0.00000000000E+00 -0.45593999997E+02  0.45594000000E+02  0.51100000000E-03 0. -1.
    9900012    2    1    2    0    0  0.10307992570E+02 -0.32615644833E+02  0.21980239341E+02  0.50528856868E+02  0.29999990936E+02 0.  0.
         12    1    1    2    0    0 -0.10307992570E+02  0.32615644833E+02 -0.21980239341E+02  0.40659143132E+02  0.00000000000E+00 0. -1.
         11    1    3    3    0    0 -0.36938599545E+01  0.13579783770E+01 -0.25292342652E+01  0.46782189843E+01  0.51100000000E-03 0. -1.
        -11    1    3    3    0    0  0.16049874037E+02 -0.29748879761E+02  0.23125698654E+02  0.40955979321E+02  0.51100000000E-03 0.  1.
         12    1    3    3    0    0 -0.20480215123E+01 -0.42247434495E+01  0.13837749525E+01  0.48946585630E+01  0.00000000000E+00 0. -1.
</event>
<event>
 7    1  0.5849044E-013  0.5052885E+02  0.7816164E-02  0.1300439E+00
        -11   -1    0    0    0    0  0.00000000000E+00  0.00000000000E+00  0.45593999997E+02  0.45594000000E+02  0.51100000000E-03 0.  1.
         11   -1    0    0    0    0 -0.00000000000E+00 -0.00000000000E+00 -0.45593999997E+02  0.45594000000E+02  0.51100000000E-03 0. -1.
    9900012    2    1    2    0    0  0.32130306737E+02  0.50671381899E+01  0.24395361841E+02  0.50528853676E+02  0.29999981233E+02 0.  0.
         12    1    1    2    0    0 -0.32130306737E+02 -0.50671381899E+01 -0.24395361841E+02  0.40659146324E+02  0.00000000000E+00 0. -1.
         11    1    3    3    0    0  0.35346388505E+00 -0.78329329939E+01  0.26405201848E+01  0.82735798245E+01  0.51100000000E-03 0. -1.
        -11    1    3    3    0    0  0.22278364952E+02  0.37914514786E+01  0.10413839927E+02  0.24882699040E+02  0.51100000000E-03 0.  1.
         12    1    3    3    0    0  0.94984779007E+01  0.91086197052E+01  0.11341001729E+02  0.17372574811E+02  0.00000000000E+00 0. -1.
</event>
<event>
 7    1  0.5849044E-013  0.5052884E+02  0.7816164E-02  0.1300439E+00
        -11   -1    0    0    0    0  0.00000000000E+00  0.00000000000E+00  0.45593999997E+02  0.45594000000E+02  0.51100000000E-03 0.  1.
         11   -1    0    0    0    0 -0.00000000000E+00 -0.00000000000E+00 -0.45593999997E+02  0.45594000000E+02  0.51100000000E-03 0. -1.
    9900012    2    1    2    0    0  0.18942620337E+02 -0.26551653854E+02  0.24276612880E+02  0.50528842107E+02  0.29999946069E+02 0.  0.
         12    1    1    2    0    0 -0.18942620337E+02  0.26551653854E+02 -0.24276612880E+02  0.40659157893E+02  0.00000000000E+00 0. -1.
         11    1    3    3    0    0 -0.15019814893E-01 -0.94908977863E+00 -0.15935288052E+01  0.18548130140E+01  0.51100000000E-03 0. -1.
        -11    1    3    3    0    0  0.74270862235E+01 -0.54422080639E+01  0.23607096382E+02  0.25339183851E+02  0.51100000000E-03 0.  1.
        -12    1    3    3    0    0  0.11530553929E+02 -0.20160356012E+02  0.22630453024E+01  0.23334845242E+02  0.00000000000E+00 0.  1.
</event>
<event>
 7    1  0.5849044E-013  0.5052889E+02  0.7816164E-02  0.1300439E+00
        -11   -1    0    0    0    0  0.00000000000E+00  0.00000000000E+00  0.45593999997E+02  0.45594000000E+02  0.51100000000E-03 0. -1.
         11   -1    0    0    0    0 -0.00000000000E+00 -0.00000000000E+00 -0.45593999997E+02  0.45594000000E+02  0.51100000000E-03 0.  1.
    9900012    2    1    2    0    0  0.24106447160E+02  0.80742024531E+01 -0.31730890696E+02  0.50528893218E+02  0.30000101426E+02 0.  0.
         12    1    1    2    0    0 -0.24106447160E+02 -0.80742024531E+01  0.31730890696E+02  0.40659106782E+02  0.00000000000E+00 0. -1.
         11    1    3    3    0    0 -0.23903052576E+01 -0.37761252701E+01 -0.57947552466E+01  0.73179143141E+01  0.51100000000E-03 0. -1.
        -11    1    3    3    0    0  0.13584565728E+02  0.15811066412E+02 -0.13380029181E+02  0.24770051034E+02  0.51100000000E-03 0.  1.
        -12    1    3    3    0    0  0.12912186690E+02 -0.39607386887E+01 -0.12556106268E+02  0.18440927870E+02  0.00000000000E+00 0.  1.
</event>
<event>
 7    1  0.5849044E-013  0.5052886E+02  0.7816164E-02  0.1300439E+00
        -11   -1    0    0    0    0  0.00000000000E+00  0.00000000000E+00  0.45593999997E+02  0.45594000000E+02  0.51100000000E-03 0. -1.
         11   -1    0    0    0    0 -0.00000000000E+00 -0.00000000000E+00 -0.45593999997E+02  0.45594000000E+02  0.51100000000E-03 0.  1.
    9900012    2    1    2    0    0  0.34236901688E+02  0.19269920841E+02 -0.10472359666E+02  0.50528860765E+02  0.30000002781E+02 0.  0.
         12    1    1    2    0    0 -0.34236901688E+02 -0.19269920841E+02  0.10472359666E+02  0.40659139235E+02  0.00000000000E+00 0. -1.
         11    1    3    3    0    0  0.50488910516E+01 -0.76104250178E+01 -0.19468367798E+01  0.93380963537E+01  0.51100000000E-03 0. -1.
        -11    1    3    3    0    0  0.17965866922E+02  0.18030032466E+02 -0.21578162561E+01  0.25544287350E+02  0.51100000000E-03 0.  1.
         12    1    3    3    0    0  0.11222143714E+02  0.88503133924E+01 -0.63677066298E+01  0.15646477061E+02  0.00000000000E+00 0. -1.
</event>
<event>
 7    1  0.5849044E-013  0.5052883E+02  0.7816164E-02  0.1300439E+00
        -11   -1    0    0    0    0  0.00000000000E+00  0.00000000000E+00  0.45593999997E+02  0.45594000000E+02  0.51100000000E-03 0.  1.
         11   -1    0    0    0    0 -0.00000000000E+00 -0.00000000000E+00 -0.45593999997E+02  0.45594000000E+02  0.51100000000E-03 0. -1.
    9900012    2    1    2    0    0 -0.26232911406E+02 -0.15992579678E+02  0.26631559439E+02  0.50528828787E+02  0.29999905581E+02 0.  0.
         12    1    1    2    0    0  0.26232911406E+02  0.15992579678E+02 -0.26631559439E+02  0.40659171213E+02  0.00000000000E+00 0. -1.
         11    1    3    3    0    0  0.30786228248E+01  0.44914268744E+01  0.69628062112E+01  0.88392027051E+01  0.51100000000E-03 0. -1.
        -11    1    3    3    0    0 -0.12496667623E+02 -0.91835855826E+01  0.13363992112E+02  0.20471962076E+02  0.51100000000E-03 0.  1.
         12    1    3    3    0    0 -0.16814866608E+02 -0.11300420969E+02  0.63047611154E+01  0.21217664006E+02  0.00000000000E+00 0. -1.
</event>
<event>
 7    1  0.5849044E-013  0.5052884E+02  0.7816164E-02  0.1300439E+00
        -11   -1    0    0    0    0  0.00000000000E+00  0.00000000000E+00  0.45593999997E+02  0.45594000000E+02  0.51100000000E-03 0.  1.
         11   -1    0    0    0    0 -0.00000000000E+00 -0.00000000000E+00 -0.45593999997E+02  0.45594000000E+02  0.51100000000E-03 0. -1.
    9900012    2    1    2    0    0  0.20700757766E+02 -0.18077544399E+02  0.29964112932E+02  0.50528843007E+02  0.29999948805E+02 0.  0.
         12    1    1    2    0    0 -0.20700757766E+02  0.18077544399E+02 -0.29964112932E+02  0.40659156993E+02  0.00000000000E+00 0. -1.
         11    1    3    3    0    0  0.14287442552E+02 -0.13787448654E+02  0.75502836561E+00  0.19869444460E+02  0.51100000000E-03 0. -1.
        -11    1    3    3    0    0  0.41637037876E+00  0.81149828343E+00  0.77140164030E+01  0.77677501945E+01  0.51100000000E-03 0.  1.
         12    1    3    3    0    0  0.59969448347E+01 -0.51015940289E+01  0.21495068163E+02  0.22891648353E+02  0.00000000000E+00 0. -1.
</event>
<event>
 7    1  0.5849044E-013  0.5052883E+02  0.7816164E-02  0.1300439E+00
        -11   -1    0    0    0    0  0.00000000000E+00  0.00000000000E+00  0.45593999997E+02  0.45594000000E+02  0.51100000000E-03 0.  1.
         11   -1    0    0    0    0 -0.00000000000E+00 -0.00000000000E+00 -0.45593999997E+02  0.45594000000E+02  0.51100000000E-03 0. -1.
    9900012    2    1    2    0    0  0.16535415915E+02  0.30534438362E+02  0.21151735300E+02  0.50528833607E+02  0.29999920233E+02 0.  0.
         12    1    1    2    0    0 -0.16535415915E+02 -0.30534438362E+02 -0.21151735300E+02  0.40659166393E+02  0.00000000000E+00 0. -1.
         11    1    3    3    0    0  0.18568643522E+02  0.24284963908E+02  0.22063359229E+02  0.37700740245E+02  0.51100000000E-03 0. -1.
        -11    1    3    3    0    0 -0.48516993929E+01  0.80871886313E+01 -0.64864297348E+00  0.94531658679E+01  0.51100000000E-03 0.  1.
         12    1    3    3    0    0  0.28184717866E+01 -0.18377141780E+01 -0.26298095543E+00  0.33749274948E+01  0.00000000000E+00 0. -1.
</event>
<event>
 7    1  0.5849044E-013  0.5052886E+02  0.7816164E-02  0.1300439E+00
        -11   -1    0    0    0    0  0.00000000000E+00  0.00000000000E+00  0.45593999997E+02  0.45594000000E+02  0.51100000000E-03 0.  1.
         11   -1    0    0    0    0 -0.00000000000E+00 -0.00000000000E+00 -0.45593999997E+02  0.45594000000E+02  0.51100000000E-03 0. -1.
    9900012    2    1    2    0    0 -0.14167883286E+02  0.34934786327E+02  0.15231473583E+02  0.50528855887E+02  0.29999987953E+02 0.  0.
         12    1    1    2    0    0  0.14167883286E+02 -0.34934786327E+02 -0.15231473583E+02  0.40659144113E+02  0.00000000000E+00 0. -1.
         11    1    3    3    0    0 -0.13592376106E+02  0.23550896431E+02 -0.39155991517E+01  0.27472337503E+02  0.51100000000E-03 0. -1.
        -11    1    3    3    0    0  0.22749911790E+01  0.19740959399E+01  0.45995590221E+01  0.54980526646E+01  0.51100000000E-03 0.  1.
         12    1    3    3    0    0 -0.28504983586E+01  0.94097939567E+01  0.14547513713E+02  0.17558465719E+02  0.00000000000E+00 0. -1.
</event>
<event>
 7    1  0.5849044E-013  0.5052886E+02  0.7816164E-02  0.1300439E+00
        -11   -1    0    0    0    0  0.00000000000E+00  0.00000000000E+00  0.45593999997E+02  0.45594000000E+02  0.51100000000E-03 0.  1.
         11   -1    0    0    0    0 -0.00000000000E+00 -0.00000000000E+00 -0.45593999997E+02  0.45594000000E+02  0.51100000000E-03 0. -1.
    9900012    2    1    2    0    0  0.13383127918E+02 -0.31475748758E+02  0.21984875122E+02  0.50528860721E+02  0.30000002648E+02 0.  0.
         12    1    1    2    0    0 -0.13383127918E+02  0.31475748758E+02 -0.21984875122E+02  0.40659139279E+02  0.00000000000E+00 0. -1.
         11    1    3    3    0    0  0.11151120152E+01 -0.24922871577E+01 -0.22774719819E+01  0.35555377894E+01  0.51100000000E-03 0. -1.
        -11    1    3    3    0    0  0.11734354620E+01 -0.16378226185E+02  0.25286145267E+02  0.30149832280E+02  0.51100000000E-03 0.  1.
        -12    1    3    3    0    0  0.11094580440E+02 -0.12605235416E+02 -0.10237981633E+01  0.16823490652E+02  0.00000000000E+00 0.  1.
</event>
<event>
 7    1  0.5849044E-013  0.5052886E+02  0.7816164E-02  0.1300439E+00
        -11   -1    0    0    0    0  0.00000000000E+00  0.00000000000E+00  0.45593999997E+02  0.45594000000E+02  0.51100000000E-03 0.  1.
         11   -1    0    0    0    0 -0.00000000000E+00 -0.00000000000E+00 -0.45593999997E+02  0.45594000000E+02  0.51100000000E-03 0. -1.
    9900012    2    1    2    0    0 -0.14522836487E+02 -0.30616102402E+02  0.22470137435E+02  0.50528861024E+02  0.30000003569E+02 0.  0.
         12    1    1    2    0    0  0.14522836487E+02  0.30616102402E+02 -0.22470137435E+02  0.40659138976E+02  0.00000000000E+00 0. -1.
         11    1    3    3    0    0 -0.15783841350E+02 -0.15565984721E+02  0.54919388880E+01  0.22838365115E+02  0.51100000000E-03 0. -1.
        -11    1    3    3    0    0  0.17380972743E+01 -0.18345414633E+02  0.13279666866E+02  0.22713977470E+02  0.51100000000E-03 0.  1.
        -12    1    3    3    0    0 -0.47709241104E+00  0.32952969524E+01  0.36985316814E+01  0.49765184388E+01  0.00000000000E+00 0.  1.
</event>
<event>
 7    1  0.5849044E-013  0.5052886E+02  0.7816164E-02  0.1300439E+00
        -11   -1    0    0    0    0  0.00000000000E+00  0.00000000000E+00  0.45593999997E+02  0.45594000000E+02  0.51100000000E-03 0.  1.
         11   -1    0    0    0    0 -0.00000000000E+00 -0.00000000000E+00 -0.45593999997E+02  0.45594000000E+02  0.51100000000E-03 0. -1.
    9900012    2    1    2    0    0 -0.32267313717E+02  0.22098194596E+02  0.11120074049E+02  0.50528858521E+02  0.29999995961E+02 0.  0.
         12    1    1    2    0    0  0.32267313717E+02 -0.22098194596E+02 -0.11120074049E+02  0.40659141479E+02  0.00000000000E+00 0. -1.
         11    1    3    3    0    0 -0.14673190350E+02  0.16091509679E+02  0.18442982929E+02  0.28537393336E+02  0.51100000000E-03 0. -1.
        -11    1    3    3    0    0 -0.71952671163E+01  0.70167461354E+01 -0.52544052865E+01  0.11340871676E+02  0.51100000000E-03 0.  1.
         12    1    3    3    0    0 -0.10398856251E+02 -0.10100612183E+01 -0.20685035934E+01  0.10650593509E+02  0.00000000000E+00 0. -1.
</event>
<event>
 7    1  0.5849044E-013  0.5052888E+02  0.7816164E-02  0.1300439E+00
        -11   -1    0    0    0    0  0.00000000000E+00  0.00000000000E+00  0.45593999997E+02  0.45594000000E+02  0.51100000000E-03 0. -1.
         11   -1    0    0    0    0 -0.00000000000E+00 -0.00000000000E+00 -0.45593999997E+02  0.45594000000E+02  0.51100000000E-03 0.  1.
    9900012    2    1    2    0    0  0.38984073467E+02 -0.46508902290E+01  0.10572393974E+02  0.50528877059E+02  0.30000052308E+02 0.  0.
         12    1    1    2    0    0 -0.38984073467E+02  0.46508902290E+01 -0.10572393974E+02  0.40659122941E+02  0.00000000000E+00 0. -1.
         11    1    3    3    0    0  0.99838126242E+01  0.53448179522E+01  0.53404635133E+01  0.12520548880E+02  0.51100000000E-03 0. -1.
        -11    1    3    3    0    0  0.15746014368E+01 -0.10096021449E+02  0.12218002739E+01  0.10290860749E+02  0.51100000000E-03 0.  1.
        -12    1    3    3    0    0  0.27425659406E+02  0.10031326762E+00  0.40101301867E+01  0.27717467430E+02  0.00000000000E+00 0.  1.
</event>
<event>
 7    1  0.5849044E-013  0.5052887E+02  0.7816164E-02  0.1300439E+00
        -11   -1    0    0    0    0  0.00000000000E+00  0.00000000000E+00  0.45593999997E+02  0.45594000000E+02  0.51100000000E-03 0. -1.
         11   -1    0    0    0    0 -0.00000000000E+00 -0.00000000000E+00 -0.45593999997E+02  0.45594000000E+02  0.51100000000E-03 0.  1.
    9900012    2    1    2    0    0 -0.35777792362E+02  0.23080724421E+01 -0.19177780825E+02  0.50528869389E+02  0.30000028995E+02 0.  0.
         12    1    1    2    0    0  0.35777792362E+02 -0.23080724421E+01  0.19177780825E+02  0.40659130611E+02  0.00000000000E+00 0. -1.
         11    1    3    3    0    0 -0.76670711393E+01 -0.35271341433E+01  0.57790999738E+01  0.10228521491E+02  0.51100000000E-03 0. -1.
        -11    1    3    3    0    0 -0.18208087855E+02  0.78920883696E+01 -0.22283220674E+02  0.29838925015E+02  0.51100000000E-03 0.  1.
         12    1    3    3    0    0 -0.99026333670E+01 -0.20568817842E+01 -0.26736601241E+01  0.10461422883E+02  0.00000000000E+00 0. -1.
</event>
<event>
 7    1  0.5849044E-013  0.5052886E+02  0.7816164E-02  0.1300439E+00
        -11   -1    0    0    0    0  0.00000000000E+00  0.00000000000E+00  0.45593999997E+02  0.45594000000E+02  0.51100000000E-03 0.  1.
         11   -1    0    0    0    0 -0.00000000000E+00 -0.00000000000E+00 -0.45593999997E+02  0.45594000000E+02  0.51100000000E-03 0. -1.
    9900012    2    1    2    0    0  0.33743355196E+02 -0.71951347003E+01  0.21512360769E+02  0.50528860202E+02  0.30000001070E+02 0.  0.
         12    1    1    2    0    0 -0.33743355196E+02  0.71951347003E+01 -0.21512360769E+02  0.40659139798E+02  0.00000000000E+00 0. -1.
         11    1    3    3    0    0  0.22876391031E+02 -0.47963971464E+01  0.82864908887E+01  0.24799206110E+02  0.51100000000E-03 0.  1.
        -11    1    3    3    0    0  0.58926273358E+00 -0.50722854182E+01  0.14175837483E+02  0.15067504058E+02  0.51100000000E-03 0. -1.
         12    1    3    3    0    0  0.10277701432E+02  0.26735478644E+01 -0.94996760228E+00  0.10662150034E+02  0.00000000000E+00 0. -1.
</event>
<event>
 7    1  0.5849044E-013  0.5052887E+02  0.7816164E-02  0.1300439E+00
        -11   -1    0    0    0    0  0.00000000000E+00  0.00000000000E+00  0.45593999997E+02  0.45594000000E+02  0.51100000000E-03 0. -1.
         11   -1    0    0    0    0 -0.00000000000E+00 -0.00000000000E+00 -0.45593999997E+02  0.45594000000E+02  0.51100000000E-03 0.  1.
    9900012    2    1    2    0    0  0.21690757531E+02  0.33805237370E+02  0.63152366197E+01  0.50528865117E+02  0.30000016009E+02 0.  0.
         12    1    1    2    0    0 -0.21690757531E+02 -0.33805237370E+02 -0.63152366197E+01  0.40659134883E+02  0.00000000000E+00 0. -1.
         11    1    3    3    0    0 -0.57685639870E+01 -0.11316932796E+00  0.34123012199E+00  0.57797557065E+01  0.51100000000E-03 0. -1.
        -11    1    3    3    0    0  0.86695038418E+01  0.16788576308E+02  0.33270933082E+01  0.19185571178E+02  0.51100000000E-03 0.  1.
         12    1    3    3    0    0  0.18789817676E+02  0.17129830390E+02  0.26469131895E+01  0.25563538232E+02  0.00000000000E+00 0. -1.
</event>
<event>
 7    1  0.5849044E-013  0.5052888E+02  0.7816164E-02  0.1300439E+00
        -11   -1    0    0    0    0  0.00000000000E+00  0.00000000000E+00  0.45593999997E+02  0.45594000000E+02  0.51100000000E-03 0.  1.
         11   -1    0    0    0    0 -0.00000000000E+00 -0.00000000000E+00 -0.45593999997E+02  0.45594000000E+02  0.51100000000E-03 0. -1.
    9900012    2    1    2    0    0 -0.34955602193E+02 -0.19889547548E+02  0.59728899577E+01  0.50528884899E+02  0.30000076140E+02 0.  0.
         12    1    1    2    0    0  0.34955602193E+02  0.19889547548E+02 -0.59728899577E+01  0.40659115101E+02  0.00000000000E+00 0. -1.
         11    1    3    3    0    0  0.11732367300E+01  0.63277593113E+00 -0.13328557457E+01  0.18850449606E+01  0.51100000000E-03 0. -1.
        -11    1    3    3    0    0 -0.22727920588E+02 -0.24484422406E+02  0.89171306104E+01  0.34576878596E+02  0.51100000000E-03 0.  1.
        -12    1    3    3    0    0 -0.13400918334E+02  0.39620989272E+01 -0.16113849071E+01  0.14066961343E+02  0.00000000000E+00 0.  1.
</event>
<event>
 7    1  0.5849044E-013  0.5052886E+02  0.7816164E-02  0.1300439E+00
        -11   -1    0    0    0    0  0.00000000000E+00  0.00000000000E+00  0.45593999997E+02  0.45594000000E+02  0.51100000000E-03 0. -1.
         11   -1    0    0    0    0 -0.00000000000E+00 -0.00000000000E+00 -0.45593999997E+02  0.45594000000E+02  0.51100000000E-03 0.  1.
    9900012    2    1    2    0    0 -0.33788337773E+02 -0.17420754620E+02 -0.14423289732E+02  0.50528858990E+02  0.29999997386E+02 0.  0.
         12    1    1    2    0    0  0.33788337773E+02  0.17420754620E+02  0.14423289732E+02  0.40659141010E+02  0.00000000000E+00 0. -1.
         11    1    3    3    0    0 -0.57975062491E+01 -0.12941228335E+02 -0.12345582430E+02  0.18801592361E+02  0.51100000000E-03 0. -1.
        -11    1    3    3    0    0 -0.21671210699E+02 -0.93929966451E+01 -0.90276068673E+00  0.23636512777E+02  0.51100000000E-03 0.  1.
         12    1    3    3    0    0 -0.63196208249E+01  0.49134703599E+01 -0.11749466154E+01  0.80907538523E+01  0.00000000000E+00 0. -1.
</event>
<event>
 7    1  0.5849044E-013  0.5052885E+02  0.7816164E-02  0.1300439E+00
        -11   -1    0    0    0    0  0.00000000000E+00  0.00000000000E+00  0.45593999997E+02  0.45594000000E+02  0.51100000000E-03 0.  1.
         11   -1    0    0    0    0 -0.00000000000E+00 -0.00000000000E+00 -0.45593999997E+02  0.45594000000E+02  0.51100000000E-03 0. -1.
    9900012    2    1    2    0    0 -0.36739797321E+01  0.12658324278E+02  0.38463424069E+02  0.50528852300E+02  0.29999977050E+02 0.  0.
         12    1    1    2    0    0  0.36739797321E+01 -0.12658324278E+02 -0.38463424069E+02  0.40659147700E+02  0.00000000000E+00 0. -1.
         11    1    3    3    0    0 -0.10559275275E+01  0.73805703863E+01 -0.24890559969E+00  0.74598764352E+01  0.51100000000E-03 0. -1.
        -11    1    3    3    0    0 -0.39238355289E+01 -0.44590529984E+01  0.27621328823E+02  0.28252742258E+02  0.51100000000E-03 0.  1.
        -12    1    3    3    0    0  0.13057833243E+01  0.97368068904E+01  0.11091000846E+02  0.14816233606E+02  0.00000000000E+00 0.  1.
</event>
<event>
 7    1  0.5849044E-013  0.5052886E+02  0.7816164E-02  0.1300439E+00
        -11   -1    0    0    0    0  0.00000000000E+00  0.00000000000E+00  0.45593999997E+02  0.45594000000E+02  0.51100000000E-03 0. -1.
         11   -1    0    0    0    0 -0.00000000000E+00 -0.00000000000E+00 -0.45593999997E+02  0.45594000000E+02  0.51100000000E-03 0.  1.
    9900012    2    1    2    0    0 -0.30711908390E+02  0.23442409201E+02 -0.12664834568E+02  0.50528857108E+02  0.29999991665E+02 0.  0.
         12    1    1    2    0    0  0.30711908390E+02 -0.23442409201E+02  0.12664834568E+02  0.40659142892E+02  0.00000000000E+00 0. -1.
         11    1    3    3    0    0 -0.45450553518E+01  0.14542841905E+02  0.14582618769E+01  0.15306152580E+02  0.51100000000E-03 0. -1.
        -11    1    3    3    0    0 -0.25197129036E+02  0.20663439310E+01 -0.10030495984E+02  0.27198822380E+02  0.51100000000E-03 0.  1.
        -12    1    3    3    0    0 -0.96972400149E+00  0.68332233651E+01 -0.40926004605E+01  0.80238821480E+01  0.00000000000E+00 0.  1.
</event>
<event>
 7    1  0.5849044E-013  0.5052886E+02  0.7816164E-02  0.1300439E+00
        -11   -1    0    0    0    0  0.00000000000E+00  0.00000000000E+00  0.45593999997E+02  0.45594000000E+02  0.51100000000E-03 0.  1.
         11   -1    0    0    0    0 -0.00000000000E+00 -0.00000000000E+00 -0.45593999997E+02  0.45594000000E+02  0.51100000000E-03 0. -1.
    9900012    2    1    2    0    0  0.36320941074E+02 -0.12138687240E+02 -0.13660410757E+02  0.50528864367E+02  0.30000013730E+02 0.  0.
         12    1    1    2    0    0 -0.36320941074E+02  0.12138687240E+02  0.13660410757E+02  0.40659135633E+02  0.00000000000E+00 0. -1.
         11    1    3    3    0    0  0.39163319612E+00 -0.10808500444E+01 -0.38410999607E+01  0.40094466635E+01  0.51100000000E-03 0. -1.
        -11    1    3    3    0    0  0.32425851368E+02 -0.17377006473E+02 -0.35609276801E+01  0.36960470737E+02  0.51100000000E-03 0.  1.
        -12    1    3    3    0    0  0.35034565096E+01  0.63191692780E+01 -0.62583831161E+01  0.95589469664E+01  0.00000000000E+00 0.  1.
</event>
<event>
 7    1  0.5849044E-013  0.5052886E+02  0.7816164E-02  0.1300439E+00
        -11   -1    0    0    0    0  0.00000000000E+00  0.00000000000E+00  0.45593999997E+02  0.45594000000E+02  0.51100000000E-03 0.  1.
         11   -1    0    0    0    0 -0.00000000000E+00 -0.00000000000E+00 -0.45593999997E+02  0.45594000000E+02  0.51100000000E-03 0. -1.
    9900012    2    1    2    0    0 -0.27318509273E+02 -0.21198363109E+02  0.21389106737E+02  0.50528862843E+02  0.30000009096E+02 0.  0.
         12    1    1    2    0    0  0.27318509273E+02  0.21198363109E+02 -0.21389106737E+02  0.40659137157E+02  0.00000000000E+00 0. -1.
         11    1    3    3    0    0  0.37714468295E+01 -0.11305124830E+02  0.10195920339E+02  0.15683955191E+02  0.51100000000E-03 0. -1.
        -11    1    3    3    0    0 -0.70711795927E+01 -0.15766097150E+00  0.20787740699E+01  0.73720919493E+01  0.51100000000E-03 0.  1.
         12    1    3    3    0    0 -0.24018776510E+02 -0.97355773071E+01  0.91144123277E+01  0.27472815702E+02  0.00000000000E+00 0. -1.
</event>
<event>
 7    1  0.5849044E-013  0.5052886E+02  0.7816164E-02  0.1300439E+00
        -11   -1    0    0    0    0  0.00000000000E+00  0.00000000000E+00  0.45593999997E+02  0.45594000000E+02  0.51100000000E-03 0.  1.
         11   -1    0    0    0    0 -0.00000000000E+00 -0.00000000000E+00 -0.45593999997E+02  0.45594000000E+02  0.51100000000E-03 0. -1.
    9900012    2    1    2    0    0 -0.31417131013E+02  0.16021656950E+02  0.20234526672E+02  0.50528859796E+02  0.29999999837E+02 0.  0.
         12    1    1    2    0    0  0.31417131013E+02 -0.16021656950E+02 -0.20234526672E+02  0.40659140204E+02  0.00000000000E+00 0. -1.
         11    1    3    3    0    0  0.42556308960E+01 -0.20728195317E+00  0.38880159887E+01  0.57680177462E+01  0.51100000000E-03 0. -1.
        -11    1    3    3    0    0 -0.25878543344E+02  0.18165901083E+02  0.11323186598E+02  0.33584423812E+02  0.51100000000E-03 0.  1.
         12    1    3    3    0    0 -0.97942185649E+01 -0.19369621798E+01  0.50233240845E+01  0.11176418238E+02  0.00000000000E+00 0. -1.
</event>
<event>
 7    1  0.5849044E-013  0.5052886E+02  0.7816164E-02  0.1300439E+00
        -11   -1    0    0    0    0  0.00000000000E+00  0.00000000000E+00  0.45593999997E+02  0.45594000000E+02  0.51100000000E-03 0.  1.
         11   -1    0    0    0    0 -0.00000000000E+00 -0.00000000000E+00 -0.45593999997E+02  0.45594000000E+02  0.51100000000E-03 0. -1.
    9900012    2    1    2    0    0 -0.34939292527E+02 -0.20714451197E+02  0.18229787617E+01  0.50528857089E+02  0.29999991608E+02 0.  0.
         12    1    1    2    0    0  0.34939292527E+02  0.20714451197E+02 -0.18229787617E+01  0.40659142911E+02  0.00000000000E+00 0. -1.
         11    1    3    3    0    0 -0.24442990470E+02 -0.21552336664E+02 -0.47811636422E+01  0.32936644104E+02  0.51100000000E-03 0.  1.
        -11    1    3    3    0    0 -0.11445643482E+02 -0.42916586521E+00  0.69511909187E+00  0.11474760515E+02  0.51100000000E-03 0. -1.
         12    1    3    3    0    0  0.94934142513E+00  0.12670513325E+01  0.59090233120E+01  0.61174524700E+01  0.00000000000E+00 0. -1.
</event>
<event>
 7    1  0.5849044E-013  0.5052886E+02  0.7816164E-02  0.1300439E+00
        -11   -1    0    0    0    0  0.00000000000E+00  0.00000000000E+00  0.45593999997E+02  0.45594000000E+02  0.51100000000E-03 0. -1.
         11   -1    0    0    0    0 -0.00000000000E+00 -0.00000000000E+00 -0.45593999997E+02  0.45594000000E+02  0.51100000000E-03 0.  1.
    9900012    2    1    2    0    0 -0.30546022775E+02 -0.19658029901E+02 -0.18266578340E+02  0.50528861652E+02  0.30000005477E+02 0.  0.
         12    1    1    2    0    0  0.30546022775E+02  0.19658029901E+02  0.18266578340E+02  0.40659138348E+02  0.00000000000E+00 0. -1.
         11    1    3    3    0    0 -0.17043864845E+02 -0.18948554129E+02 -0.44785095129E+01  0.25876593287E+02  0.51100000000E-03 0. -1.
        -11    1    3    3    0    0 -0.65601819012E+00  0.51930069167E+01 -0.75808205656E+01  0.92123027204E+01  0.51100000000E-03 0.  1.
         12    1    3    3    0    0 -0.12846139740E+02 -0.59024826882E+01 -0.62072482619E+01  0.15439965644E+02  0.00000000000E+00 0. -1.
</event>
<event>
 7    1  0.5849044E-013  0.5052884E+02  0.7816164E-02  0.1300439E+00
        -11   -1    0    0    0    0  0.00000000000E+00  0.00000000000E+00  0.45593999997E+02  0.45594000000E+02  0.51100000000E-03 0.  1.
         11   -1    0    0    0    0 -0.00000000000E+00 -0.00000000000E+00 -0.45593999997E+02  0.45594000000E+02  0.51100000000E-03 0. -1.
    9900012    2    1    2    0    0 -0.82811938353E+01  0.47640464029E+01  0.39520796357E+02  0.50528835545E+02  0.29999926123E+02 0.  0.
         12    1    1    2    0    0  0.82811938353E+01 -0.47640464029E+01 -0.39520796357E+02  0.40659164455E+02  0.00000000000E+00 0. -1.
         11    1    3    3    0    0  0.79311114743E+00  0.72365967162E+00  0.29931909608E+01  0.31799215401E+01  0.51100000000E-03 0. -1.
        -11    1    3    3    0    0 -0.38664772612E+01 -0.12333673179E+02  0.14842412045E+02  0.19681624325E+02  0.51100000000E-03 0.  1.
        -12    1    3    3    0    0 -0.52078277216E+01  0.16374059911E+02  0.21685193352E+02  0.27667289680E+02  0.00000000000E+00 0.  1.
</event>
<event>
 7    1  0.5849044E-013  0.5052886E+02  0.7816164E-02  0.1300439E+00
        -11   -1    0    0    0    0  0.00000000000E+00  0.00000000000E+00  0.45593999997E+02  0.45594000000E+02  0.51100000000E-03 0.  1.
         11   -1    0    0    0    0 -0.00000000000E+00 -0.00000000000E+00 -0.45593999997E+02  0.45594000000E+02  0.51100000000E-03 0. -1.
    9900012    2    1    2    0    0 -0.33498798476E+02 -0.80183409877E+00  0.23029398226E+02  0.50528860561E+02  0.30000002161E+02 0.  0.
         12    1    1    2    0    0  0.33498798476E+02  0.80183409877E+00 -0.23029398226E+02  0.40659139439E+02  0.00000000000E+00 0. -1.
         11    1    3    3    0    0  0.15705917695E+01 -0.23678111661E+01 -0.23830871009E+01  0.37084218499E+01  0.51100000000E-03 0. -1.
        -11    1    3    3    0    0 -0.26398558493E+02 -0.40016184126E+01  0.10492169409E+02  0.28687670864E+02  0.51100000000E-03 0.  1.
        -12    1    3    3    0    0 -0.86708317527E+01  0.55675954799E+01  0.14920315918E+02  0.18132767847E+02  0.00000000000E+00 0.  1.
</event>
<event>
 7    1  0.5849044E-013  0.5052886E+02  0.7816164E-02  0.1300439E+00
        -11   -1    0    0    0    0  0.00000000000E+00  0.00000000000E+00  0.45593999997E+02  0.45594000000E+02  0.51100000000E-03 0. -1.
         11   -1    0    0    0    0 -0.00000000000E+00 -0.00000000000E+00 -0.45593999997E+02  0.45594000000E+02  0.51100000000E-03 0.  1.
    9900012    2    1    2    0    0 -0.25695810546E+02  0.14546356065E+02  0.27951644234E+02  0.50528861178E+02  0.30000004036E+02 0.  0.
         12    1    1    2    0    0  0.25695810546E+02 -0.14546356065E+02 -0.27951644234E+02  0.40659138822E+02  0.00000000000E+00 0. -1.
         11    1    3    3    0    0 -0.92121932807E+01  0.12379132979E+02  0.27960242602E+02  0.31935600902E+02  0.51100000000E-03 0. -1.
        -11    1    3    3    0    0 -0.14876194299E+02  0.40830844109E+01  0.17654527874E+01  0.15527058927E+02  0.51100000000E-03 0.  1.
         12    1    3    3    0    0 -0.16074229668E+01 -0.19158613241E+01 -0.17740511559E+01  0.30662013488E+01  0.00000000000E+00 0. -1.
</event>
<event>
 7    1  0.5849044E-013  0.5052886E+02  0.7816164E-02  0.1300439E+00
        -11   -1    0    0    0    0  0.00000000000E+00  0.00000000000E+00  0.45593999997E+02  0.45594000000E+02  0.51100000000E-03 0.  1.
         11   -1    0    0    0    0 -0.00000000000E+00 -0.00000000000E+00 -0.45593999997E+02  0.45594000000E+02  0.51100000000E-03 0. -1.
    9900012    2    1    2    0    0  0.10838121806E+02 -0.16356218700E+02  0.35611438962E+02  0.50528863765E+02  0.30000011899E+02 0.  0.
         12    1    1    2    0    0 -0.10838121806E+02  0.16356218700E+02 -0.35611438962E+02  0.40659136235E+02  0.00000000000E+00 0. -1.
         11    1    3    3    0    0 -0.23655325925E+01  0.62849137779E+00  0.56989260000E+00  0.25130705710E+01  0.51100000000E-03 0. -1.
        -11    1    3    3    0    0  0.11837189638E+02 -0.23368370679E+02  0.26461539056E+02  0.37234565342E+02  0.51100000000E-03 0.  1.
        -12    1    3    3    0    0  0.13664647600E+01  0.63836606011E+01  0.85800073058E+01  0.10781227851E+02  0.00000000000E+00 0.  1.
</event>
<event>
 7    1  0.5849044E-013  0.5052886E+02  0.7816164E-02  0.1300439E+00
        -11   -1    0    0    0    0  0.00000000000E+00  0.00000000000E+00  0.45593999997E+02  0.45594000000E+02  0.51100000000E-03 0.  1.
         11   -1    0    0    0    0 -0.00000000000E+00 -0.00000000000E+00 -0.45593999997E+02  0.45594000000E+02  0.51100000000E-03 0. -1.
    9900012    2    1    2    0    0 -0.24100124457E+02  0.32525120931E+02 -0.38033958750E+01  0.50528864365E+02  0.30000013724E+02 0.  0.
         12    1    1    2    0    0  0.24100124457E+02 -0.32525120931E+02  0.38033958750E+01  0.40659135635E+02  0.00000000000E+00 0. -1.
         11    1    3    3    0    0 -0.86777758270E+01  0.53465041883E+01 -0.14032964164E+02  0.17343961019E+02  0.51100000000E-03 0. -1.
        -11    1    3    3    0    0 -0.14027632122E+02  0.21494129751E+02  0.75988287008E+01  0.26767784267E+02  0.51100000000E-03 0.  1.
        -12    1    3    3    0    0 -0.13947165079E+01  0.56844869917E+01  0.26307395878E+01  0.64171190790E+01  0.00000000000E+00 0.  1.
</event>
<event>
 7    1  0.5849044E-013  0.5052887E+02  0.7816164E-02  0.1300439E+00
        -11   -1    0    0    0    0  0.00000000000E+00  0.00000000000E+00  0.45593999997E+02  0.45594000000E+02  0.51100000000E-03 0. -1.
         11   -1    0    0    0    0 -0.00000000000E+00 -0.00000000000E+00 -0.45593999997E+02  0.45594000000E+02  0.51100000000E-03 0.  1.
    9900012    2    1    2    0    0 -0.40495703462E+02 -0.16707605680E+01  0.32359998229E+01  0.50528866529E+02  0.30000020302E+02 0.  0.
         12    1    1    2    0    0  0.40495703462E+02  0.16707605680E+01 -0.32359998229E+01  0.40659133471E+02  0.00000000000E+00 0. -1.
         11    1    3    3    0    0 -0.21620039092E+01 -0.65702876975E+01  0.88020173813E+01  0.11194572416E+02  0.51100000000E-03 0. -1.
        -11    1    3    3    0    0 -0.13529429450E+02  0.20182280055E+01 -0.42681016072E+01  0.14329528852E+02  0.51100000000E-03 0.  1.
         12    1    3    3    0    0 -0.24804270103E+02  0.28812991240E+01 -0.12979159512E+01  0.25004765261E+02  0.00000000000E+00 0. -1.
</event>
<event>
 7    1  0.5849044E-013  0.5052887E+02  0.7816164E-02  0.1300439E+00
        -11   -1    0    0    0    0  0.00000000000E+00  0.00000000000E+00  0.45593999997E+02  0.45594000000E+02  0.51100000000E-03 0. -1.
         11   -1    0    0    0    0 -0.00000000000E+00 -0.00000000000E+00 -0.45593999997E+02  0.45594000000E+02  0.51100000000E-03 0.  1.
    9900012    2    1    2    0    0 -0.24073625109E+02  0.14656613909E+02 -0.29305448843E+02  0.50528867089E+02  0.30000022004E+02 0.  0.
         12    1    1    2    0    0  0.24073625109E+02 -0.14656613909E+02  0.29305448843E+02  0.40659132911E+02  0.00000000000E+00 0. -1.
         11    1    3    3    0    0 -0.19976666612E+02  0.97550485810E+01 -0.40026686155E+01  0.22588703771E+02  0.51100000000E-03 0. -1.
        -11    1    3    3    0    0 -0.57696422400E+01 -0.70444233612E+00 -0.10137979375E+02  0.11686044525E+02  0.51100000000E-03 0.  1.
         12    1    3    3    0    0  0.16726837425E+01  0.56060076644E+01 -0.15164800853E+02  0.16254118793E+02  0.00000000000E+00 0. -1.
</event>
<event>
 7    1  0.5849044E-013  0.5052886E+02  0.7816164E-02  0.1300439E+00
        -11   -1    0    0    0    0  0.00000000000E+00  0.00000000000E+00  0.45593999997E+02  0.45594000000E+02  0.51100000000E-03 0.  1.
         11   -1    0    0    0    0 -0.00000000000E+00 -0.00000000000E+00 -0.45593999997E+02  0.45594000000E+02  0.51100000000E-03 0. -1.
    9900012    2    1    2    0    0 -0.37380251199E+02  0.15570087947E+02 -0.36680770823E+01  0.50528860709E+02  0.30000002612E+02 0.  0.
         12    1    1    2    0    0  0.37380251199E+02 -0.15570087947E+02  0.36680770823E+01  0.40659139291E+02  0.00000000000E+00 0. -1.
         11    1    3    3    0    0 -0.13431437915E+02  0.20290431255E+02  0.30115008987E+01  0.24518855253E+02  0.51100000000E-03 0. -1.
        -11    1    3    3    0    0 -0.22187618869E+02 -0.40409273283E+01 -0.42770280884E+01  0.22954574582E+02  0.51100000000E-03 0.  1.
        -12    1    3    3    0    0 -0.17611944154E+01 -0.67941597943E+00 -0.24025498925E+01  0.30554308744E+01  0.00000000000E+00 0.  1.
</event>
<event>
 7    1  0.5849044E-013  0.5052886E+02  0.7816164E-02  0.1300439E+00
        -11   -1    0    0    0    0  0.00000000000E+00  0.00000000000E+00  0.45593999997E+02  0.45594000000E+02  0.51100000000E-03 0.  1.
         11   -1    0    0    0    0 -0.00000000000E+00 -0.00000000000E+00 -0.45593999997E+02  0.45594000000E+02  0.51100000000E-03 0. -1.
    9900012    2    1    2    0    0 -0.13248191530E+02 -0.10607608666E+02  0.36947663033E+02  0.50528859034E+02  0.29999997521E+02 0.  0.
         12    1    1    2    0    0  0.13248191530E+02  0.10607608666E+02 -0.36947663033E+02  0.40659140966E+02  0.00000000000E+00 0. -1.
         11    1    3    3    0    0 -0.81983243227E+01 -0.94922669043E+01  0.30299057482E+01  0.12903332197E+02  0.51100000000E-03 0. -1.
        -11    1    3    3    0    0 -0.42043630248E+00  0.68754329462E+01  0.17173391015E+02  0.18503343052E+02  0.51100000000E-03 0.  1.
        -12    1    3    3    0    0 -0.46294309043E+01 -0.79907747080E+01  0.16744366270E+02  0.19122183785E+02  0.00000000000E+00 0.  1.
</event>
<event>
 7    1  0.5849044E-013  0.5052887E+02  0.7816164E-02  0.1300439E+00
        -11   -1    0    0    0    0  0.00000000000E+00  0.00000000000E+00  0.45593999997E+02  0.45594000000E+02  0.51100000000E-03 0.  1.
         11   -1    0    0    0    0 -0.00000000000E+00 -0.00000000000E+00 -0.45593999997E+02  0.45594000000E+02  0.51100000000E-03 0. -1.
    9900012    2    1    2    0    0  0.19103423828E+02 -0.31166589645E+02  0.17800783356E+02  0.50528868183E+02  0.30000025329E+02 0.  0.
         12    1    1    2    0    0 -0.19103423828E+02  0.31166589645E+02 -0.17800783356E+02  0.40659131817E+02  0.00000000000E+00 0. -1.
         11    1    3    3    0    0  0.71837717793E+01 -0.28011271009E+02  0.14742707289E+02  0.32458978712E+02  0.51100000000E-03 0.  1.
        -11    1    3    3    0    0  0.63119443783E+00  0.41960476798E+01 -0.55429352171E-01  0.42436181760E+01  0.51100000000E-03 0. -1.
        -12    1    3    3    0    0  0.11288457611E+02 -0.73513663150E+01  0.31135054194E+01  0.13826271295E+02  0.00000000000E+00 0.  1.
</event>
<event>
 7    1  0.5849044E-013  0.5052887E+02  0.7816164E-02  0.1300439E+00
        -11   -1    0    0    0    0  0.00000000000E+00  0.00000000000E+00  0.45593999997E+02  0.45594000000E+02  0.51100000000E-03 0.  1.
         11   -1    0    0    0    0 -0.00000000000E+00 -0.00000000000E+00 -0.45593999997E+02  0.45594000000E+02  0.51100000000E-03 0. -1.
    9900012    2    1    2    0    0 -0.62850593241E+01 -0.38992531632E+02 -0.96563683043E+01  0.50528868890E+02  0.30000027477E+02 0.  0.
         12    1    1    2    0    0  0.62850593241E+01  0.38992531632E+02  0.96563683043E+01  0.40659131110E+02  0.00000000000E+00 0. -1.
         11    1    3    3    0    0 -0.87176709319E+01 -0.19702678599E+02 -0.71930337091E+01  0.22714160003E+02  0.51100000000E-03 0.  1.
        -11    1    3    3    0    0  0.53344760424E+01 -0.22572582798E+02 -0.30504709157E+01  0.23394091175E+02  0.51100000000E-03 0. -1.
        -12    1    3    3    0    0 -0.29018644346E+01  0.32827297639E+01  0.58713632041E+00  0.44206177123E+01  0.00000000000E+00 0.  1.
</event>
<event>
 7    1  0.5849044E-013  0.5052886E+02  0.7816164E-02  0.1300439E+00
        -11   -1    0    0    0    0  0.00000000000E+00  0.00000000000E+00  0.45593999997E+02  0.45594000000E+02  0.51100000000E-03 0. -1.
         11   -1    0    0    0    0 -0.00000000000E+00 -0.00000000000E+00 -0.45593999997E+02  0.45594000000E+02  0.51100000000E-03 0.  1.
    9900012    2    1    2    0    0  0.18508712271E+02 -0.14109786904E+02 -0.33339272538E+02  0.50528860686E+02  0.30000002542E+02 0.  0.
         12    1    1    2    0    0 -0.18508712271E+02  0.14109786904E+02  0.33339272538E+02  0.40659139314E+02  0.00000000000E+00 0. -1.
         11    1    3    3    0    0  0.18307621133E+02 -0.74165425124E+00 -0.14407468462E+02  0.23308671998E+02  0.51100000000E-03 0. -1.
        -11    1    3    3    0    0  0.43370713502E+01 -0.14447374089E+02 -0.16260113506E+02  0.22179452146E+02  0.51100000000E-03 0.  1.
         12    1    3    3    0    0 -0.41359802124E+01  0.10792414367E+01 -0.26716905695E+01  0.50407365429E+01  0.00000000000E+00 0. -1.
</event>
<event>
 7    1  0.5849044E-013  0.5052886E+02  0.7816164E-02  0.1300439E+00
        -11   -1    0    0    0    0  0.00000000000E+00  0.00000000000E+00  0.45593999997E+02  0.45594000000E+02  0.51100000000E-03 0.  1.
         11   -1    0    0    0    0 -0.00000000000E+00 -0.00000000000E+00 -0.45593999997E+02  0.45594000000E+02  0.51100000000E-03 0. -1.
    9900012    2    1    2    0    0 -0.13069845990E+01  0.10502109773E+02  0.39257646055E+02  0.50528864591E+02  0.30000014409E+02 0.  0.
         12    1    1    2    0    0  0.13069845990E+01 -0.10502109773E+02 -0.39257646055E+02  0.40659135409E+02  0.00000000000E+00 0. -1.
         11    1    3    3    0    0 -0.30310270604E+01  0.24003594203E+01  0.39004220709E+02  0.39195383450E+02  0.51100000000E-03 0.  1.
        -11    1    3    3    0    0 -0.29280802421E+01  0.36866471552E+01 -0.96301242848E+00  0.48054567264E+01  0.51100000000E-03 0. -1.
        -12    1    3    3    0    0  0.46521227035E+01  0.44151031977E+01  0.12164377748E+01  0.65280244143E+01  0.00000000000E+00 0.  1.
</event>
<event>
 7    1  0.5849044E-013  0.5052891E+02  0.7816164E-02  0.1300439E+00
        -11   -1    0    0    0    0  0.00000000000E+00  0.00000000000E+00  0.45593999997E+02  0.45594000000E+02  0.51100000000E-03 0.  1.
         11   -1    0    0    0    0 -0.00000000000E+00 -0.00000000000E+00 -0.45593999997E+02  0.45594000000E+02  0.51100000000E-03 0. -1.
    9900012    2    1    2    0    0 -0.28618490891E+02  0.16454613276E+02  0.23735830672E+02  0.50528905364E+02  0.30000138345E+02 0.  0.
         12    1    1    2    0    0  0.28618490891E+02 -0.16454613276E+02 -0.23735830672E+02  0.40659094636E+02  0.00000000000E+00 0. -1.
         11    1    3    3    0    0  0.29873024723E+01  0.50129841868E+01  0.23333996274E+01  0.62848023517E+01  0.51100000000E-03 0. -1.
        -11    1    3    3    0    0 -0.20280166520E+02  0.16361142754E+02  0.17104898381E+02  0.31169691933E+02  0.51100000000E-03 0.  1.
        -12    1    3    3    0    0 -0.11325626843E+02 -0.49195136650E+01  0.42975326631E+01  0.13074411080E+02  0.00000000000E+00 0.  1.
</event>
<event>
 7    1  0.5849044E-013  0.5052886E+02  0.7816164E-02  0.1300439E+00
        -11   -1    0    0    0    0  0.00000000000E+00  0.00000000000E+00  0.45593999997E+02  0.45594000000E+02  0.51100000000E-03 0.  1.
         11   -1    0    0    0    0 -0.00000000000E+00 -0.00000000000E+00 -0.45593999997E+02  0.45594000000E+02  0.51100000000E-03 0. -1.
    9900012    2    1    2    0    0  0.64706349485E+01 -0.40007552600E+02  0.32698546156E+01  0.50528864116E+02  0.30000012966E+02 0.  0.
         12    1    1    2    0    0 -0.64706349485E+01  0.40007552600E+02 -0.32698546156E+01  0.40659135884E+02  0.00000000000E+00 0. -1.
         11    1    3    3    0    0  0.97706109990E+01 -0.17146316509E+02 -0.92548830224E+01  0.21797106899E+02  0.51100000000E-03 0. -1.
        -11    1    3    3    0    0 -0.59734748373E+01 -0.17532340819E+02  0.51033710196E+01  0.19212229757E+02  0.51100000000E-03 0.  1.
         12    1    3    3    0    0  0.26734987868E+01 -0.53288952717E+01  0.74213666184E+01  0.95195274601E+01  0.00000000000E+00 0. -1.
</event>
<event>
 7    1  0.5849044E-013  0.5052889E+02  0.7816164E-02  0.1300439E+00
        -11   -1    0    0    0    0  0.00000000000E+00  0.00000000000E+00  0.45593999997E+02  0.45594000000E+02  0.51100000000E-03 0.  1.
         11   -1    0    0    0    0 -0.00000000000E+00 -0.00000000000E+00 -0.45593999997E+02  0.45594000000E+02  0.51100000000E-03 0. -1.
    9900012    2    1    2    0    0 -0.26340159611E+02 -0.30869602010E+02  0.25351975668E+01  0.50528885852E+02  0.30000079037E+02 0.  0.
         12    1    1    2    0    0  0.26340159611E+02  0.30869602010E+02 -0.25351975668E+01  0.40659114148E+02  0.00000000000E+00 0. -1.
         11    1    3    3    0    0 -0.11068931300E+02 -0.51335522704E+01  0.84543912514E+00  0.12230673188E+02  0.51100000000E-03 0. -1.
        -11    1    3    3    0    0 -0.35521955278E+01 -0.26175523806E+02  0.25569846735E+01  0.26538920673E+02  0.51100000000E-03 0.  1.
        -12    1    3    3    0    0 -0.11719032783E+02  0.43947406706E+00 -0.86722623180E+00  0.11759291992E+02  0.00000000000E+00 0.  1.
</event>
<event>
 7    1  0.5849044E-013  0.5052885E+02  0.7816164E-02  0.1300439E+00
        -11   -1    0    0    0    0  0.00000000000E+00  0.00000000000E+00  0.45593999997E+02  0.45594000000E+02  0.51100000000E-03 0.  1.
         11   -1    0    0    0    0 -0.00000000000E+00 -0.00000000000E+00 -0.45593999997E+02  0.45594000000E+02  0.51100000000E-03 0. -1.
    9900012    2    1    2    0    0  0.13249636865E+02  0.65848559941E+00  0.38434098340E+02  0.50528851023E+02  0.29999973171E+02 0.  0.
         12    1    1    2    0    0 -0.13249636865E+02 -0.65848559941E+00 -0.38434098340E+02  0.40659148977E+02  0.00000000000E+00 0. -1.
         11    1    3    3    0    0 -0.12860653787E+01 -0.84334132576E+01  0.16123110422E+02  0.18240918652E+02  0.51100000000E-03 0. -1.
        -11    1    3    3    0    0  0.11509706983E+02  0.12777305864E+02  0.21365480980E+02  0.27426568829E+02  0.51100000000E-03 0.  1.
         12    1    3    3    0    0  0.30259952601E+01 -0.36854070066E+01  0.94550693735E+00  0.48613635420E+01  0.00000000000E+00 0. -1.
</event>
<event>
 7    1  0.5849044E-013  0.5052886E+02  0.7816164E-02  0.1300439E+00
        -11   -1    0    0    0    0  0.00000000000E+00  0.00000000000E+00  0.45593999997E+02  0.45594000000E+02  0.51100000000E-03 0.  1.
         11   -1    0    0    0    0 -0.00000000000E+00 -0.00000000000E+00 -0.45593999997E+02  0.45594000000E+02  0.51100000000E-03 0. -1.
    9900012    2    1    2    0    0  0.39852264411E+02  0.12156259125E+01 -0.79677558874E+01  0.50528857622E+02  0.29999993228E+02 0.  0.
         12    1    1    2    0    0 -0.39852264411E+02 -0.12156259125E+01  0.79677558874E+01  0.40659142378E+02  0.00000000000E+00 0. -1.
         11    1    3    3    0    0  0.32088434733E+01 -0.96208915830E+01 -0.24255546300E+01  0.10427921500E+02  0.51100000000E-03 0. -1.
        -11    1    3    3    0    0  0.47999729573E+01  0.31908466728E+01 -0.45401025231E+01  0.73371502684E+01  0.51100000000E-03 0.  1.
         12    1    3    3    0    0  0.31843447980E+02  0.76456708227E+01 -0.10020987343E+01  0.32763785854E+02  0.00000000000E+00 0. -1.
</event>
<event>
 7    1  0.5849044E-013  0.5052886E+02  0.7816164E-02  0.1300439E+00
        -11   -1    0    0    0    0  0.00000000000E+00  0.00000000000E+00  0.45593999997E+02  0.45594000000E+02  0.51100000000E-03 0.  1.
         11   -1    0    0    0    0 -0.00000000000E+00 -0.00000000000E+00 -0.45593999997E+02  0.45594000000E+02  0.51100000000E-03 0. -1.
    9900012    2    1    2    0    0 -0.26216994694E+02 -0.26180977661E+02  0.16744892522E+02  0.50528858007E+02  0.29999994397E+02 0.  0.
         12    1    1    2    0    0  0.26216994694E+02  0.26180977661E+02 -0.16744892522E+02  0.40659141993E+02  0.00000000000E+00 0. -1.
         11    1    3    3    0    0  0.50774068921E+01  0.48934085855E+00  0.59967516641E+01  0.78727724472E+01  0.51100000000E-03 0. -1.
        -11    1    3    3    0    0 -0.23314645115E+02 -0.21540056839E+02  0.73728784775E+01  0.32586900171E+02  0.51100000000E-03 0.  1.
         12    1    3    3    0    0 -0.79797564705E+01 -0.51302616808E+01  0.33752623808E+01  0.10069185388E+02  0.00000000000E+00 0. -1.
</event>
<event>
 7    1  0.5849044E-013  0.5052884E+02  0.7816164E-02  0.1300439E+00
        -11   -1    0    0    0    0  0.00000000000E+00  0.00000000000E+00  0.45593999997E+02  0.45594000000E+02  0.51100000000E-03 0.  1.
         11   -1    0    0    0    0 -0.00000000000E+00 -0.00000000000E+00 -0.45593999997E+02  0.45594000000E+02  0.51100000000E-03 0. -1.
    9900012    2    1    2    0    0  0.78797314490E+01 -0.16844162142E+02  0.36157309795E+02  0.50528843373E+02  0.29999949918E+02 0.  0.
         12    1    1    2    0    0 -0.78797314490E+01  0.16844162142E+02 -0.36157309795E+02  0.40659156627E+02  0.00000000000E+00 0. -1.
         11    1    3    3    0    0  0.13436860884E+02  0.18164967172E+01  0.14885705624E+02  0.20135369948E+02  0.51100000000E-03 0. -1.
        -11    1    3    3    0    0 -0.42005932286E+01 -0.97517528149E+01  0.48749601617E+01  0.11683616875E+02  0.51100000000E-03 0.  1.
         12    1    3    3    0    0 -0.13565362069E+01 -0.89089060448E+01  0.16396644009E+02  0.18709856551E+02  0.00000000000E+00 0. -1.
</event>
<event>
 7    1  0.5849044E-013  0.5052886E+02  0.7816164E-02  0.1300439E+00
        -11   -1    0    0    0    0  0.00000000000E+00  0.00000000000E+00  0.45593999997E+02  0.45594000000E+02  0.51100000000E-03 0.  1.
         11   -1    0    0    0    0 -0.00000000000E+00 -0.00000000000E+00 -0.45593999997E+02  0.45594000000E+02  0.51100000000E-03 0. -1.
    9900012    2    1    2    0    0  0.20613264753E+02  0.31616958322E+02 -0.15120410481E+02  0.50528861416E+02  0.30000004760E+02 0.  0.
         12    1    1    2    0    0 -0.20613264753E+02 -0.31616958322E+02  0.15120410481E+02  0.40659138584E+02  0.00000000000E+00 0. -1.
         11    1    3    3    0    0  0.15302061562E+02  0.29236173717E+02 -0.17939987146E+02  0.37559953151E+02  0.51100000000E-03 0. -1.
        -11    1    3    3    0    0 -0.32928609914E+01  0.17684496677E+01  0.21622718975E+01  0.43180745426E+01  0.51100000000E-03 0.  1.
         12    1    3    3    0    0  0.86040641826E+01  0.61233493717E+00  0.65730476761E+00  0.86508337223E+01  0.00000000000E+00 0. -1.
</event>
<event>
 7    1  0.5849044E-013  0.5052886E+02  0.7816164E-02  0.1300439E+00
        -11   -1    0    0    0    0  0.00000000000E+00  0.00000000000E+00  0.45593999997E+02  0.45594000000E+02  0.51100000000E-03 0. -1.
         11   -1    0    0    0    0 -0.00000000000E+00 -0.00000000000E+00 -0.45593999997E+02  0.45594000000E+02  0.51100000000E-03 0.  1.
    9900012    2    1    2    0    0 -0.13787552728E+02  0.36219675456E+02 -0.12296497673E+02  0.50528863814E+02  0.30000012049E+02 0.  0.
         12    1    1    2    0    0  0.13787552728E+02 -0.36219675456E+02  0.12296497673E+02  0.40659136186E+02  0.00000000000E+00 0. -1.
         11    1    3    3    0    0 -0.12935323749E+02  0.16502325813E+01 -0.19738858394E+01  0.13188710841E+02  0.51100000000E-03 0. -1.
        -11    1    3    3    0    0 -0.20148076072E+01  0.34406908170E+02 -0.91037013363E+01  0.35647891352E+02  0.51100000000E-03 0.  1.
        -12    1    3    3    0    0  0.11625786283E+01  0.16253470467E+00 -0.12189104970E+01  0.16922616219E+01  0.00000000000E+00 0.  1.
</event>
<event>
 7    1  0.5849044E-013  0.5052885E+02  0.7816164E-02  0.1300439E+00
        -11   -1    0    0    0    0  0.00000000000E+00  0.00000000000E+00  0.45593999997E+02  0.45594000000E+02  0.51100000000E-03 0.  1.
         11   -1    0    0    0    0 -0.00000000000E+00 -0.00000000000E+00 -0.45593999997E+02  0.45594000000E+02  0.51100000000E-03 0. -1.
    9900012    2    1    2    0    0  0.13550302830E+02  0.21559397168E+02  0.31697759044E+02  0.50528852918E+02  0.29999978928E+02 0.  0.
         12    1    1    2    0    0 -0.13550302830E+02 -0.21559397168E+02 -0.31697759044E+02  0.40659147082E+02  0.00000000000E+00 0. -1.
         11    1    3    3    0    0 -0.67714203124E+01  0.10769106024E+02  0.83196635551E+01  0.15200084853E+02  0.51100000000E-03 0. -1.
        -11    1    3    3    0    0  0.12224766506E+02  0.10919314427E+02  0.21465087059E+02  0.27007893409E+02  0.51100000000E-03 0.  1.
         12    1    3    3    0    0  0.80969566367E+01 -0.12902328286E+00  0.19130084302E+01  0.83208746558E+01  0.00000000000E+00 0. -1.
</event>
<event>
 7    1  0.5849044E-013  0.5052886E+02  0.7816164E-02  0.1300439E+00
        -11   -1    0    0    0    0  0.00000000000E+00  0.00000000000E+00  0.45593999997E+02  0.45594000000E+02  0.51100000000E-03 0. -1.
         11   -1    0    0    0    0 -0.00000000000E+00 -0.00000000000E+00 -0.45593999997E+02  0.45594000000E+02  0.51100000000E-03 0.  1.
    9900012    2    1    2    0    0 -0.59813353695E+01 -0.24709996009E+02 -0.31730194667E+02  0.50528861677E+02  0.30000005554E+02 0.  0.
         12    1    1    2    0    0  0.59813353695E+01  0.24709996009E+02  0.31730194667E+02  0.40659138323E+02  0.00000000000E+00 0. -1.
         11    1    3    3    0    0  0.38442412769E+01 -0.12825471836E+02 -0.12371783401E+02  0.18229973768E+02  0.51100000000E-03 0.  1.
        -11    1    3    3    0    0 -0.82584262815E+01  0.38872971205E+01 -0.32194614743E+01  0.96787197498E+01  0.51100000000E-03 0. -1.
         12    1    3    3    0    0 -0.15671503648E+01 -0.15771821294E+02 -0.16138949792E+02  0.22620168159E+02  0.00000000000E+00 0. -1.
</event>
<event>
 7    1  0.5849044E-013  0.5052887E+02  0.7816164E-02  0.1300439E+00
        -11   -1    0    0    0    0  0.00000000000E+00  0.00000000000E+00  0.45593999997E+02  0.45594000000E+02  0.51100000000E-03 0.  1.
         11   -1    0    0    0    0 -0.00000000000E+00 -0.00000000000E+00 -0.45593999997E+02  0.45594000000E+02  0.51100000000E-03 0. -1.
    9900012    2    1    2    0    0 -0.36046730847E+02 -0.13346723443E+02  0.13253798905E+02  0.50528867977E+02  0.30000024702E+02 0.  0.
         12    1    1    2    0    0  0.36046730847E+02  0.13346723443E+02 -0.13253798905E+02  0.40659132023E+02  0.00000000000E+00 0. -1.
         11    1    3    3    0    0  0.21139299145E+01 -0.51730903736E+01 -0.46913464908E+01  0.72964577608E+01  0.51100000000E-03 0. -1.
        -11    1    3    3    0    0 -0.24381743099E+02 -0.27994124750E+01  0.11275134438E+02  0.27008049978E+02  0.51100000000E-03 0.  1.
         12    1    3    3    0    0 -0.13778917663E+02 -0.53742205947E+01  0.66700109574E+01  0.16224360238E+02  0.00000000000E+00 0. -1.
</event>
<event>
 7    1  0.5849044E-013  0.5052886E+02  0.7816164E-02  0.1300439E+00
        -11   -1    0    0    0    0  0.00000000000E+00  0.00000000000E+00  0.45593999997E+02  0.45594000000E+02  0.51100000000E-03 0.  1.
         11   -1    0    0    0    0 -0.00000000000E+00 -0.00000000000E+00 -0.45593999997E+02  0.45594000000E+02  0.51100000000E-03 0. -1.
    9900012    2    1    2    0    0 -0.23104971106E+02  0.31818061618E+02  0.10341027515E+02  0.50528860990E+02  0.30000003466E+02 0.  0.
         12    1    1    2    0    0  0.23104971106E+02 -0.31818061618E+02 -0.10341027515E+02  0.40659139010E+02  0.00000000000E+00 0. -1.
         11    1    3    3    0    0  0.29166852198E+01 -0.60000905826E+00  0.44155562421E+01  0.53258051719E+01  0.51100000000E-03 0. -1.
        -11    1    3    3    0    0 -0.16931786301E+02  0.30486852253E+02  0.77718801799E+01  0.35728639345E+02  0.51100000000E-03 0.  1.
        -12    1    3    3    0    0 -0.90898700246E+01  0.19312184236E+01 -0.18464089074E+01  0.94744164737E+01  0.00000000000E+00 0.  1.
</event>
<event>
 7    1  0.5849044E-013  0.5052886E+02  0.7816164E-02  0.1300439E+00
        -11   -1    0    0    0    0  0.00000000000E+00  0.00000000000E+00  0.45593999997E+02  0.45594000000E+02  0.51100000000E-03 0.  1.
         11   -1    0    0    0    0 -0.00000000000E+00 -0.00000000000E+00 -0.45593999997E+02  0.45594000000E+02  0.51100000000E-03 0. -1.
    9900012    2    1    2    0    0  0.18413556676E+02  0.60147739858E+01  0.35748128710E+02  0.50528864719E+02  0.30000014798E+02 0.  0.
         12    1    1    2    0    0 -0.18413556676E+02 -0.60147739858E+01 -0.35748128710E+02  0.40659135281E+02  0.00000000000E+00 0. -1.
         11    1    3    3    0    0  0.28500944286E+01  0.84833908452E+00 -0.11472307209E+01  0.31872960393E+01  0.51100000000E-03 0. -1.
        -11    1    3    3    0    0  0.14012303924E+02  0.14011638434E+02  0.30280415876E+02  0.36188040272E+02  0.51100000000E-03 0.  1.
        -12    1    3    3    0    0  0.15511583237E+01 -0.88452035331E+01  0.66149435550E+01  0.11153528407E+02  0.00000000000E+00 0.  1.
</event>
<event>
 7    1  0.5849044E-013  0.5052887E+02  0.7816164E-02  0.1300439E+00
        -11   -1    0    0    0    0  0.00000000000E+00  0.00000000000E+00  0.45593999997E+02  0.45594000000E+02  0.51100000000E-03 0.  1.
         11   -1    0    0    0    0 -0.00000000000E+00 -0.00000000000E+00 -0.45593999997E+02  0.45594000000E+02  0.51100000000E-03 0. -1.
    9900012    2    1    2    0    0 -0.24370834071E+02  0.27891423098E+02  0.16771882004E+02  0.50528867425E+02  0.30000023026E+02 0.  0.
         12    1    1    2    0    0  0.24370834071E+02 -0.27891423098E+02 -0.16771882004E+02  0.40659132575E+02  0.00000000000E+00 0. -1.
         11    1    3    3    0    0  0.38975532886E+01  0.97498766182E+01  0.26072973281E+01  0.10818919323E+02  0.51100000000E-03 0. -1.
        -11    1    3    3    0    0 -0.14769988616E+02  0.11916965940E+01  0.93252103641E+01  0.17508062517E+02  0.51100000000E-03 0.  1.
        -12    1    3    3    0    0 -0.13498398744E+02  0.16949849886E+02  0.48393743121E+01  0.22201885585E+02  0.00000000000E+00 0.  1.
</event>
<event>
 7    1  0.5849044E-013  0.5052885E+02  0.7816164E-02  0.1300439E+00
        -11   -1    0    0    0    0  0.00000000000E+00  0.00000000000E+00  0.45593999997E+02  0.45594000000E+02  0.51100000000E-03 0.  1.
         11   -1    0    0    0    0 -0.00000000000E+00 -0.00000000000E+00 -0.45593999997E+02  0.45594000000E+02  0.51100000000E-03 0. -1.
    9900012    2    1    2    0    0 -0.97099454900E+01 -0.16098341591E+02  0.36051724249E+02  0.50528850172E+02  0.29999970584E+02 0.  0.
         12    1    1    2    0    0  0.97099454900E+01  0.16098341591E+02 -0.36051724249E+02  0.40659149828E+02  0.00000000000E+00 0. -1.
         11    1    3    3    0    0  0.15029091492E+01  0.46444798927E+01 -0.41829672665E+00  0.48994797476E+01  0.51100000000E-03 0. -1.
        -11    1    3    3    0    0 -0.51501954004E+01 -0.14338469040E+02  0.32628438232E+02  0.36010153968E+02  0.51100000000E-03 0.  1.
        -12    1    3    3    0    0 -0.60626592387E+01 -0.64043524432E+01  0.38415827434E+01  0.96192164565E+01  0.00000000000E+00 0.  1.
</event>
<event>
 7    1  0.5849044E-013  0.5052878E+02  0.7816164E-02  0.1300439E+00
        -11   -1    0    0    0    0  0.00000000000E+00  0.00000000000E+00  0.45593999997E+02  0.45594000000E+02  0.51100000000E-03 0.  1.
         11   -1    0    0    0    0 -0.00000000000E+00 -0.00000000000E+00 -0.45593999997E+02  0.45594000000E+02  0.51100000000E-03 0. -1.
    9900012    2    1    2    0    0 -0.26545300555E+00  0.56376405519E+01  0.40265606295E+02  0.50528775873E+02  0.29999744742E+02 0.  0.
         12    1    1    2    0    0  0.26545300555E+00 -0.56376405519E+01 -0.40265606295E+02  0.40659224127E+02  0.00000000000E+00 0. -1.
         11    1    3    3    0    0  0.10970100920E+01  0.15697434744E+02  0.34471142689E+02  0.37892909195E+02  0.51100000000E-03 0. -1.
        -11    1    3    3    0    0  0.17810551777E+00 -0.23869755077E+01  0.39128189596E+01  0.45868863210E+01  0.51100000000E-03 0.  1.
         12    1    3    3    0    0 -0.15405686153E+01 -0.76728186841E+01  0.18816446465E+01  0.80489803574E+01  0.00000000000E+00 0. -1.
</event>
<event>
 7    1  0.5849044E-013  0.5052886E+02  0.7816164E-02  0.1300439E+00
        -11   -1    0    0    0    0  0.00000000000E+00  0.00000000000E+00  0.45593999997E+02  0.45594000000E+02  0.51100000000E-03 0.  1.
         11   -1    0    0    0    0 -0.00000000000E+00 -0.00000000000E+00 -0.45593999997E+02  0.45594000000E+02  0.51100000000E-03 0. -1.
    9900012    2    1    2    0    0  0.32886814653E+02  0.12465974527E+02  0.20401535042E+02  0.50528859195E+02  0.29999998009E+02 0.  0.
         12    1    1    2    0    0 -0.32886814653E+02 -0.12465974527E+02 -0.20401535042E+02  0.40659140805E+02  0.00000000000E+00 0. -1.
         11    1    3    3    0    0  0.17057620247E+02 -0.18103627459E+01  0.40244247931E+01  0.17619188884E+02  0.51100000000E-03 0. -1.
        -11    1    3    3    0    0  0.18096674485E+01  0.49982696347E+01  0.15147496484E+02  0.16053169332E+02  0.51100000000E-03 0.  1.
        -12    1    3    3    0    0  0.14019526958E+02  0.92780676386E+01  0.12296137647E+01  0.16856500978E+02  0.00000000000E+00 0.  1.
</event>
<event>
 7    1  0.5849044E-013  0.5052887E+02  0.7816164E-02  0.1300439E+00
        -11   -1    0    0    0    0  0.00000000000E+00  0.00000000000E+00  0.45593999997E+02  0.45594000000E+02  0.51100000000E-03 0.  1.
         11   -1    0    0    0    0 -0.00000000000E+00 -0.00000000000E+00 -0.45593999997E+02  0.45594000000E+02  0.51100000000E-03 0. -1.
    9900012    2    1    2    0    0 -0.14178110505E+01 -0.32811577322E+02  0.23969885054E+02  0.50528865921E+02  0.30000018454E+02 0.  0.
         12    1    1    2    0    0  0.14178110505E+01  0.32811577322E+02 -0.23969885054E+02  0.40659134079E+02  0.00000000000E+00 0. -1.
         11    1    3    3    0    0  0.28496086692E+01  0.20420420695E+01  0.65617190534E+01  0.74395135982E+01  0.51100000000E-03 0. -1.
        -11    1    3    3    0    0  0.37882578741E+01 -0.23432683196E+02  0.46965111547E+01  0.24197081575E+02  0.51100000000E-03 0.  1.
         12    1    3    3    0    0 -0.80556775937E+01 -0.11420936196E+02  0.12711654845E+02  0.18892270747E+02  0.00000000000E+00 0. -1.
</event>
<event>
 7    1  0.5849044E-013  0.5052890E+02  0.7816164E-02  0.1300439E+00
        -11   -1    0    0    0    0  0.00000000000E+00  0.00000000000E+00  0.45593999997E+02  0.45594000000E+02  0.51100000000E-03 0.  1.
         11   -1    0    0    0    0 -0.00000000000E+00 -0.00000000000E+00 -0.45593999997E+02  0.45594000000E+02  0.51100000000E-03 0. -1.
    9900012    2    1    2    0    0  0.29215954151E+02 -0.31932623966E+01  0.28096142867E+02  0.50528903284E+02  0.30000132023E+02 0.  0.
         12    1    1    2    0    0 -0.29215954151E+02  0.31932623966E+01 -0.28096142867E+02  0.40659096716E+02  0.00000000000E+00 0. -1.
         11    1    3    3    0    0 -0.61275312349E+00 -0.37711160530E+01  0.48902808341E+00  0.38517439431E+01  0.51100000000E-03 0. -1.
        -11    1    3    3    0    0  0.24143139214E+02  0.10386928320E+02  0.19933551742E+02  0.32986753953E+02  0.51100000000E-03 0.  1.
        -12    1    3    3    0    0  0.56855680613E+01 -0.98090746640E+01  0.76735630422E+01  0.13690405389E+02  0.00000000000E+00 0.  1.
</event>
<event>
 7    1  0.5849044E-013  0.5052886E+02  0.7816164E-02  0.1300439E+00
        -11   -1    0    0    0    0  0.00000000000E+00  0.00000000000E+00  0.45593999997E+02  0.45594000000E+02  0.51100000000E-03 0.  1.
         11   -1    0    0    0    0 -0.00000000000E+00 -0.00000000000E+00 -0.45593999997E+02  0.45594000000E+02  0.51100000000E-03 0. -1.
    9900012    2    1    2    0    0 -0.94243437828E+01  0.11262901826E+02  0.37914303013E+02  0.50528860975E+02  0.30000003419E+02 0.  0.
         12    1    1    2    0    0  0.94243437828E+01 -0.11262901826E+02 -0.37914303013E+02  0.40659139025E+02  0.00000000000E+00 0. -1.
         11    1    3    3    0    0 -0.96663968855E+01  0.47947058569E+00  0.64965624025E+00  0.97000605298E+01  0.51100000000E-03 0. -1.
        -11    1    3    3    0    0 -0.54069430393E+01  0.92955375911E+01  0.22087145562E+02  0.24565912388E+02  0.51100000000E-03 0.  1.
         12    1    3    3    0    0  0.56489961419E+01  0.14878936495E+01  0.15177501211E+02  0.16262888057E+02  0.00000000000E+00 0. -1.
</event>
<event>
 7    1  0.5849044E-013  0.5052887E+02  0.7816164E-02  0.1300439E+00
        -11   -1    0    0    0    0  0.00000000000E+00  0.00000000000E+00  0.45593999997E+02  0.45594000000E+02  0.51100000000E-03 0. -1.
         11   -1    0    0    0    0 -0.00000000000E+00 -0.00000000000E+00 -0.45593999997E+02  0.45594000000E+02  0.51100000000E-03 0.  1.
    9900012    2    1    2    0    0 -0.16615657041E+02 -0.36147418741E+02 -0.83933694610E+01  0.50528873209E+02  0.30000040605E+02 0.  0.
         12    1    1    2    0    0  0.16615657041E+02  0.36147418741E+02  0.83933694610E+01  0.40659126791E+02  0.00000000000E+00 0. -1.
         11    1    3    3    0    0 -0.88238659662E+01 -0.84070849529E+01  0.73495012509E+01  0.14232176815E+02  0.51100000000E-03 0. -1.
        -11    1    3    3    0    0 -0.12196781933E+02 -0.23125320437E+02 -0.14119036276E+02  0.29713450161E+02  0.51100000000E-03 0.  1.
        -12    1    3    3    0    0  0.44049908582E+01 -0.46150133505E+01 -0.16238344359E+01  0.65832462328E+01  0.00000000000E+00 0.  1.
</event>
<event>
 7    1  0.5849044E-013  0.5052886E+02  0.7816164E-02  0.1300439E+00
        -11   -1    0    0    0    0  0.00000000000E+00  0.00000000000E+00  0.45593999997E+02  0.45594000000E+02  0.51100000000E-03 0.  1.
         11   -1    0    0    0    0 -0.00000000000E+00 -0.00000000000E+00 -0.45593999997E+02  0.45594000000E+02  0.51100000000E-03 0. -1.
    9900012    2    1    2    0    0  0.17980586102E+02  0.15404442574E+02  0.33054007436E+02  0.50528859143E+02  0.29999997852E+02 0.  0.
         12    1    1    2    0    0 -0.17980586102E+02 -0.15404442574E+02 -0.33054007436E+02  0.40659140857E+02  0.00000000000E+00 0. -1.
         11    1    3    3    0    0  0.37777242062E+01 -0.30400183760E+01  0.23132667115E+01  0.53725333917E+01  0.51100000000E-03 0. -1.
        -11    1    3    3    0    0  0.20431665086E+02  0.17226090236E+02  0.25176283218E+02  0.36715614661E+02  0.51100000000E-03 0.  1.
        -12    1    3    3    0    0 -0.62288031898E+01  0.12183707139E+01  0.55644575071E+01  0.84407110910E+01  0.00000000000E+00 0.  1.
</event>
<event>
 7    1  0.5849044E-013  0.5052886E+02  0.7816164E-02  0.1300439E+00
        -11   -1    0    0    0    0  0.00000000000E+00  0.00000000000E+00  0.45593999997E+02  0.45594000000E+02  0.51100000000E-03 0.  1.
         11   -1    0    0    0    0 -0.00000000000E+00 -0.00000000000E+00 -0.45593999997E+02  0.45594000000E+02  0.51100000000E-03 0. -1.
    9900012    2    1    2    0    0 -0.87991656767E+00  0.75305427888E+01  0.39945989570E+02  0.50528863135E+02  0.30000009985E+02 0.  0.
         12    1    1    2    0    0  0.87991656767E+00 -0.75305427888E+01 -0.39945989570E+02  0.40659136865E+02  0.00000000000E+00 0. -1.
         11    1    3    3    0    0  0.66020163685E+01  0.20783615885E+00  0.11408990144E+02  0.13183128322E+02  0.51100000000E-03 0. -1.
        -11    1    3    3    0    0 -0.55372206543E+01  0.13924790566E+02  0.26002209119E+02  0.30011255958E+02  0.51100000000E-03 0.  1.
        -12    1    3    3    0    0 -0.19447122819E+01 -0.66020839360E+01  0.25347903074E+01  0.73344788540E+01  0.00000000000E+00 0.  1.
</event>
<event>
 7    1  0.5849044E-013  0.5052883E+02  0.7816164E-02  0.1300439E+00
        -11   -1    0    0    0    0  0.00000000000E+00  0.00000000000E+00  0.45593999997E+02  0.45594000000E+02  0.51100000000E-03 0.  1.
         11   -1    0    0    0    0 -0.00000000000E+00 -0.00000000000E+00 -0.45593999997E+02  0.45594000000E+02  0.51100000000E-03 0. -1.
    9900012    2    1    2    0    0  0.20726005946E+02 -0.14389767859E+02  0.31883147167E+02  0.50528833570E+02  0.29999920118E+02 0.  0.
         12    1    1    2    0    0 -0.20726005946E+02  0.14389767859E+02 -0.31883147167E+02  0.40659166430E+02  0.00000000000E+00 0. -1.
         11    1    3    3    0    0 -0.18650525937E+01  0.36914225484E+01 -0.24592957120E+01  0.48117727782E+01  0.51100000000E-03 0. -1.
        -11    1    3    3    0    0  0.10910609894E+02 -0.40376001240E+01  0.16446092235E+02  0.20144914323E+02  0.51100000000E-03 0.  1.
         12    1    3    3    0    0  0.11680448646E+02 -0.14043590284E+02  0.17896350644E+02  0.25572146468E+02  0.00000000000E+00 0. -1.
</event>
<event>
 7    1  0.5849044E-013  0.5052886E+02  0.7816164E-02  0.1300439E+00
        -11   -1    0    0    0    0  0.00000000000E+00  0.00000000000E+00  0.45593999997E+02  0.45594000000E+02  0.51100000000E-03 0. -1.
         11   -1    0    0    0    0 -0.00000000000E+00 -0.00000000000E+00 -0.45593999997E+02  0.45594000000E+02  0.51100000000E-03 0.  1.
    9900012    2    1    2    0    0  0.85818465144E+01 -0.66354006155E+01 -0.39185315230E+02  0.50528861290E+02  0.30000004378E+02 0.  0.
         12    1    1    2    0    0 -0.85818465144E+01  0.66354006155E+01  0.39185315230E+02  0.40659138710E+02  0.00000000000E+00 0. -1.
         11    1    3    3    0    0 -0.28317983620E+00 -0.35874519944E+01  0.33476404364E+01  0.49149465291E+01  0.51100000000E-03 0. -1.
        -11    1    3    3    0    0  0.58781099383E+01  0.18941124236E+00 -0.40202936342E+02  0.40630827506E+02  0.51100000000E-03 0.  1.
        -12    1    3    3    0    0  0.29869164122E+01 -0.32373598635E+01 -0.23300193244E+01  0.49830872551E+01  0.00000000000E+00 0.  1.
</event>
<event>
 7    1  0.5849044E-013  0.5052886E+02  0.7816164E-02  0.1300439E+00
        -11   -1    0    0    0    0  0.00000000000E+00  0.00000000000E+00  0.45593999997E+02  0.45594000000E+02  0.51100000000E-03 0.  1.
         11   -1    0    0    0    0 -0.00000000000E+00 -0.00000000000E+00 -0.45593999997E+02  0.45594000000E+02  0.51100000000E-03 0. -1.
    9900012    2    1    2    0    0 -0.33591962388E+02 -0.21206919031E+02  0.86609466883E+01  0.50528863887E+02  0.30000012272E+02 0.  0.
         12    1    1    2    0    0  0.33591962388E+02  0.21206919031E+02 -0.86609466883E+01  0.40659136113E+02  0.00000000000E+00 0. -1.
         11    1    3    3    0    0 -0.15110611306E+02 -0.84084456175E-01  0.33636883839E+01  0.15480699082E+02  0.51100000000E-03 0. -1.
        -11    1    3    3    0    0  0.21666985532E+00 -0.97777386260E+01 -0.48747640689E+01  0.10927691589E+02  0.51100000000E-03 0.  1.
        -12    1    3    3    0    0 -0.18698020937E+02 -0.11345095949E+02  0.10172022373E+02  0.24120473217E+02  0.00000000000E+00 0.  1.
</event>
<event>
 7    1  0.5849044E-013  0.5052886E+02  0.7816164E-02  0.1300439E+00
        -11   -1    0    0    0    0  0.00000000000E+00  0.00000000000E+00  0.45593999997E+02  0.45594000000E+02  0.51100000000E-03 0.  1.
         11   -1    0    0    0    0 -0.00000000000E+00 -0.00000000000E+00 -0.45593999997E+02  0.45594000000E+02  0.51100000000E-03 0. -1.
    9900012    2    1    2    0    0  0.36910586150E+01  0.12171654710E+02  0.38618550911E+02  0.50528861217E+02  0.30000004155E+02 0.  0.
         12    1    1    2    0    0 -0.36910586150E+01 -0.12171654710E+02 -0.38618550911E+02  0.40659138783E+02  0.00000000000E+00 0. -1.
         11    1    3    3    0    0  0.65969075601E+01  0.64555889372E+01  0.67423288666E+01  0.11430346307E+02  0.51100000000E-03 0. -1.
        -11    1    3    3    0    0 -0.52630174972E+01 -0.72508997036E+01  0.90128677524E+01  0.12708528045E+02  0.51100000000E-03 0.  1.
        -12    1    3    3    0    0  0.23571685521E+01  0.12966965477E+02  0.22863354292E+02  0.26389986865E+02  0.00000000000E+00 0.  1.
</event>
<event>
 7    1  0.5849044E-013  0.5052886E+02  0.7816164E-02  0.1300439E+00
        -11   -1    0    0    0    0  0.00000000000E+00  0.00000000000E+00  0.45593999997E+02  0.45594000000E+02  0.51100000000E-03 0. -1.
         11   -1    0    0    0    0 -0.00000000000E+00 -0.00000000000E+00 -0.45593999997E+02  0.45594000000E+02  0.51100000000E-03 0.  1.
    9900012    2    1    2    0    0 -0.21234729281E+02  0.63977966302E+01 -0.34078144309E+02  0.50528862664E+02  0.30000008554E+02 0.  0.
         12    1    1    2    0    0  0.21234729281E+02 -0.63977966302E+01  0.34078144309E+02  0.40659137336E+02  0.00000000000E+00 0. -1.
         11    1    3    3    0    0  0.20872592999E+01 -0.45794227966E+01 -0.52407929145E+01  0.72659256237E+01  0.51100000000E-03 0. -1.
        -11    1    3    3    0    0 -0.21974991434E+02  0.11681953368E+02 -0.31531373705E+02  0.40169588135E+02  0.51100000000E-03 0.  1.
        -12    1    3    3    0    0 -0.13469971468E+01 -0.70473394170E+00  0.26940223100E+01  0.30933489051E+01  0.00000000000E+00 0.  1.
</event>
<event>
 7    1  0.5849044E-013  0.5052886E+02  0.7816164E-02  0.1300439E+00
        -11   -1    0    0    0    0  0.00000000000E+00  0.00000000000E+00  0.45593999997E+02  0.45594000000E+02  0.51100000000E-03 0.  1.
         11   -1    0    0    0    0 -0.00000000000E+00 -0.00000000000E+00 -0.45593999997E+02  0.45594000000E+02  0.51100000000E-03 0. -1.
    9900012    2    1    2    0    0  0.30536952065E+02  0.17727301004E+02  0.20159441742E+02  0.50528859162E+02  0.29999997909E+02 0.  0.
         12    1    1    2    0    0 -0.30536952065E+02 -0.17727301004E+02 -0.20159441742E+02  0.40659140838E+02  0.00000000000E+00 0. -1.
         11    1    3    3    0    0  0.26556441859E+02  0.18644632734E+02  0.16580032672E+02  0.36438501858E+02  0.51100000000E-03 0. -1.
        -11    1    3    3    0    0  0.17306437677E+01  0.14757770422E+01  0.81502912203E+01  0.84616956319E+01  0.51100000000E-03 0.  1.
         12    1    3    3    0    0  0.22498664386E+01 -0.23931087722E+01 -0.45708821501E+01  0.56286616720E+01  0.00000000000E+00 0. -1.
</event>
<event>
 7    1  0.5849044E-013  0.5052884E+02  0.7816164E-02  0.1300439E+00
        -11   -1    0    0    0    0  0.00000000000E+00  0.00000000000E+00  0.45593999997E+02  0.45594000000E+02  0.51100000000E-03 0. -1.
         11   -1    0    0    0    0 -0.00000000000E+00 -0.00000000000E+00 -0.45593999997E+02  0.45594000000E+02  0.51100000000E-03 0.  1.
    9900012    2    1    2    0    0 -0.17868814631E+02 -0.13958581644E+02 -0.33749534702E+02  0.50528835837E+02  0.29999927009E+02 0.  0.
         12    1    1    2    0    0  0.17868814631E+02  0.13958581644E+02  0.33749534702E+02  0.40659164163E+02  0.00000000000E+00 0. -1.
         11    1    3    3    0    0 -0.57640429138E+01  0.45120029162E+01 -0.12562551524E+02  0.14539603230E+02  0.51100000000E-03 0. -1.
        -11    1    3    3    0    0 -0.15147450832E+02 -0.19724109998E+02 -0.21229349814E+02  0.32698181535E+02  0.51100000000E-03 0.  1.
        -12    1    3    3    0    0  0.30426791153E+01  0.12535254376E+01  0.42366635981E-01  0.32910510712E+01  0.00000000000E+00 0.  1.
</event>
<event>
 7    1  0.5849044E-013  0.5052884E+02  0.7816164E-02  0.1300439E+00
        -11   -1    0    0    0    0  0.00000000000E+00  0.00000000000E+00  0.45593999997E+02  0.45594000000E+02  0.51100000000E-03 0.  1.
         11   -1    0    0    0    0 -0.00000000000E+00 -0.00000000000E+00 -0.45593999997E+02  0.45594000000E+02  0.51100000000E-03 0. -1.
    9900012    2    1    2    0    0 -0.16042315729E+02 -0.37712668314E+01  0.37169727723E+02  0.50528843510E+02  0.29999950334E+02 0.  0.
         12    1    1    2    0    0  0.16042315729E+02  0.37712668314E+01 -0.37169727723E+02  0.40659156490E+02  0.00000000000E+00 0. -1.
         11    1    3    3    0    0 -0.17462842622E+02 -0.79973711615E+01  0.14330630982E+02  0.23964052298E+02  0.51100000000E-03 0. -1.
        -11    1    3    3    0    0  0.27170150536E+01 -0.35741417092E+01  0.14013248117E+02  0.14714883038E+02  0.51100000000E-03 0.  1.
         12    1    3    3    0    0 -0.12964881602E+01  0.78002460393E+01  0.88258486241E+01  0.11849908175E+02  0.00000000000E+00 0. -1.
</event>
<event>
 7    1  0.5849044E-013  0.5052887E+02  0.7816164E-02  0.1300439E+00
        -11   -1    0    0    0    0  0.00000000000E+00  0.00000000000E+00  0.45593999997E+02  0.45594000000E+02  0.51100000000E-03 0. -1.
         11   -1    0    0    0    0 -0.00000000000E+00 -0.00000000000E+00 -0.45593999997E+02  0.45594000000E+02  0.51100000000E-03 0.  1.
    9900012    2    1    2    0    0 -0.24127073963E+01 -0.25694442538E+02  0.31418777402E+02  0.50528866859E+02  0.30000021306E+02 0.  0.
         12    1    1    2    0    0  0.24127073963E+01  0.25694442538E+02 -0.31418777402E+02  0.40659133141E+02  0.00000000000E+00 0. -1.
         11    1    3    3    0    0  0.75728044240E+01 -0.83205132096E+01  0.26192862913E+02  0.28506918016E+02  0.51100000000E-03 0. -1.
        -11    1    3    3    0    0 -0.30240083139E+00 -0.35295728183E+01 -0.14877515691E+01  0.38422305416E+01  0.51100000000E-03 0.  1.
         12    1    3    3    0    0 -0.96831109889E+01 -0.13844356510E+02  0.67136660577E+01  0.18179718302E+02  0.00000000000E+00 0. -1.
</event>
<event>
 7    1  0.5849044E-013  0.5052886E+02  0.7816164E-02  0.1300439E+00
        -11   -1    0    0    0    0  0.00000000000E+00  0.00000000000E+00  0.45593999997E+02  0.45594000000E+02  0.51100000000E-03 0.  1.
         11   -1    0    0    0    0 -0.00000000000E+00 -0.00000000000E+00 -0.45593999997E+02  0.45594000000E+02  0.51100000000E-03 0. -1.
    9900012    2    1    2    0    0  0.73176392376E+01  0.17449369791E+02  0.35988012206E+02  0.50528863602E+02  0.30000011405E+02 0.  0.
         12    1    1    2    0    0 -0.73176392376E+01 -0.17449369791E+02 -0.35988012206E+02  0.40659136398E+02  0.00000000000E+00 0. -1.
         11    1    3    3    0    0  0.23442983472E+01  0.31338641142E+01 -0.42003698124E+01  0.57410753217E+01  0.51100000000E-03 0. -1.
        -11    1    3    3    0    0 -0.19146290417E+01  0.64042134594E+01  0.27619294815E+02  0.28416635986E+02  0.51100000000E-03 0.  1.
         12    1    3    3    0    0  0.68879699320E+01  0.79112922175E+01  0.12569087203E+02  0.16371152294E+02  0.00000000000E+00 0. -1.
</event>
<event>
 7    1  0.5849044E-013  0.5052883E+02  0.7816164E-02  0.1300439E+00
        -11   -1    0    0    0    0  0.00000000000E+00  0.00000000000E+00  0.45593999997E+02  0.45594000000E+02  0.51100000000E-03 0. -1.
         11   -1    0    0    0    0 -0.00000000000E+00 -0.00000000000E+00 -0.45593999997E+02  0.45594000000E+02  0.51100000000E-03 0.  1.
    9900012    2    1    2    0    0 -0.30350576089E+02  0.22457595737E+02 -0.15088643523E+02  0.50528828358E+02  0.29999904278E+02 0.  0.
         12    1    1    2    0    0  0.30350576089E+02 -0.22457595737E+02  0.15088643523E+02  0.40659171642E+02  0.00000000000E+00 0. -1.
         11    1    3    3    0    0  0.57666464858E+00 -0.36278289845E+01  0.30416728940E+01  0.47692200110E+01  0.51100000000E-03 0. -1.
        -11    1    3    3    0    0 -0.22793454943E+02  0.24920549430E+02 -0.13943116688E+02  0.36537458524E+02  0.51100000000E-03 0.  1.
         12    1    3    3    0    0 -0.81337857945E+01  0.11648752915E+01 -0.41871997289E+01  0.92221498234E+01  0.00000000000E+00 0. -1.
</event>
<event>
 7    1  0.5849044E-013  0.5052886E+02  0.7816164E-02  0.1300439E+00
        -11   -1    0    0    0    0  0.00000000000E+00  0.00000000000E+00  0.45593999997E+02  0.45594000000E+02  0.51100000000E-03 0.  1.
         11   -1    0    0    0    0 -0.00000000000E+00 -0.00000000000E+00 -0.45593999997E+02  0.45594000000E+02  0.51100000000E-03 0. -1.
    9900012    2    1    2    0    0  0.22519316710E+02 -0.11618533063E+02  0.31797103781E+02  0.50528859029E+02  0.29999997506E+02 0.  0.
         12    1    1    2    0    0 -0.22519316710E+02  0.11618533063E+02 -0.31797103781E+02  0.40659140971E+02  0.00000000000E+00 0. -1.
         11    1    3    3    0    0  0.18612444770E+02  0.55670214459E+00  0.30026196566E+01  0.18861302783E+02  0.51100000000E-03 0. -1.
        -11    1    3    3    0    0  0.38342685093E+01 -0.11825347748E+02  0.25659639314E+02  0.28512410532E+02  0.51100000000E-03 0.  1.
         12    1    3    3    0    0  0.72603430056E-01 -0.34988745910E+00  0.31348448108E+01  0.31551457145E+01  0.00000000000E+00 0. -1.
</event>
<event>
 7    1  0.5849044E-013  0.5052886E+02  0.7816164E-02  0.1300439E+00
        -11   -1    0    0    0    0  0.00000000000E+00  0.00000000000E+00  0.45593999997E+02  0.45594000000E+02  0.51100000000E-03 0. -1.
         11   -1    0    0    0    0 -0.00000000000E+00 -0.00000000000E+00 -0.45593999997E+02  0.45594000000E+02  0.51100000000E-03 0.  1.
    9900012    2    1    2    0    0  0.39507459697E+02  0.21327482004E+01 -0.93689693320E+01  0.50528861138E+02  0.30000003916E+02 0.  0.
         12    1    1    2    0    0 -0.39507459697E+02 -0.21327482004E+01  0.93689693320E+01  0.40659138862E+02  0.00000000000E+00 0. -1.
         11    1    3    3    0    0  0.22830403116E+01  0.47886715444E+00  0.29121668478E+01  0.37312602196E+01  0.51100000000E-03 0. -1.
        -11    1    3    3    0    0  0.32427799240E+02 -0.75484637265E+01 -0.14282648193E+02  0.36228931917E+02  0.51100000000E-03 0.  1.
        -12    1    3    3    0    0  0.47966201457E+01  0.92023447725E+01  0.20015120129E+01  0.10568669002E+02  0.00000000000E+00 0.  1.
</event>
<event>
 7    1  0.5849044E-013  0.5052886E+02  0.7816164E-02  0.1300439E+00
        -11   -1    0    0    0    0  0.00000000000E+00  0.00000000000E+00  0.45593999997E+02  0.45594000000E+02  0.51100000000E-03 0. -1.
         11   -1    0    0    0    0 -0.00000000000E+00 -0.00000000000E+00 -0.45593999997E+02  0.45594000000E+02  0.51100000000E-03 0.  1.
    9900012    2    1    2    0    0  0.17496872209E+02  0.30266719960E+02 -0.20759351071E+02  0.50528861653E+02  0.30000005480E+02 0.  0.
         12    1    1    2    0    0 -0.17496872209E+02 -0.30266719960E+02  0.20759351071E+02  0.40659138347E+02  0.00000000000E+00 0. -1.
         11    1    3    3    0    0 -0.10081913974E+01  0.23707471190E+02 -0.49221483785E+01  0.24234029485E+02  0.51100000000E-03 0. -1.
        -11    1    3    3    0    0  0.17466427115E+02  0.76669356833E+01 -0.13021654962E+02  0.23095919058E+02  0.51100000000E-03 0.  1.
         12    1    3    3    0    0  0.10386364922E+01 -0.11076869139E+01 -0.28155477309E+01  0.31989131103E+01  0.00000000000E+00 0. -1.
</event>
<event>
 7    1  0.5849044E-013  0.5052886E+02  0.7816164E-02  0.1300439E+00
        -11   -1    0    0    0    0  0.00000000000E+00  0.00000000000E+00  0.45593999997E+02  0.45594000000E+02  0.51100000000E-03 0.  1.
         11   -1    0    0    0    0 -0.00000000000E+00 -0.00000000000E+00 -0.45593999997E+02  0.45594000000E+02  0.51100000000E-03 0. -1.
    9900012    2    1    2    0    0 -0.54210407950E+01  0.39514924998E+02  0.78961176973E+01  0.50528860122E+02  0.30000000828E+02 0.  0.
         12    1    1    2    0    0  0.54210407950E+01 -0.39514924998E+02 -0.78961176973E+01  0.40659139878E+02  0.00000000000E+00 0. -1.
         11    1    3    3    0    0  0.53123036757E+01  0.17245725659E+02  0.91002957261E+01  0.20210170865E+02  0.51100000000E-03 0. -1.
        -11    1    3    3    0    0 -0.13628551252E+02  0.16749390720E+02  0.42833831330E+01  0.22014242436E+02  0.51100000000E-03 0.  1.
         12    1    3    3    0    0  0.28952067810E+01  0.55198086198E+01 -0.54875611618E+01  0.83044468213E+01  0.00000000000E+00 0. -1.
</event>
<event>
 7    1  0.5849044E-013  0.5052887E+02  0.7816164E-02  0.1300439E+00
        -11   -1    0    0    0    0  0.00000000000E+00  0.00000000000E+00  0.45593999997E+02  0.45594000000E+02  0.51100000000E-03 0.  1.
         11   -1    0    0    0    0 -0.00000000000E+00 -0.00000000000E+00 -0.45593999997E+02  0.45594000000E+02  0.51100000000E-03 0. -1.
    9900012    2    1    2    0    0 -0.32617630264E+02  0.18506801597E+02  0.15708382674E+02  0.50528870698E+02  0.30000032974E+02 0.  0.
         12    1    1    2    0    0  0.32617630264E+02 -0.18506801597E+02 -0.15708382674E+02  0.40659129302E+02  0.00000000000E+00 0. -1.
         11    1    3    3    0    0 -0.14839217906E+00  0.46814779389E+01  0.33296125361E+01  0.57467013002E+01  0.51100000000E-03 0. -1.
        -11    1    3    3    0    0 -0.33973318311E+02  0.16550518695E+02  0.68049450106E+01  0.38398089835E+02  0.51100000000E-03 0.  1.
        -12    1    3    3    0    0  0.15040802263E+01 -0.27251950371E+01  0.55738251268E+01  0.63840795626E+01  0.00000000000E+00 0.  1.
</event>
<event>
 7    1  0.5849044E-013  0.5052878E+02  0.7816164E-02  0.1300439E+00
        -11   -1    0    0    0    0  0.00000000000E+00  0.00000000000E+00  0.45593999997E+02  0.45594000000E+02  0.51100000000E-03 0.  1.
         11   -1    0    0    0    0 -0.00000000000E+00 -0.00000000000E+00 -0.45593999997E+02  0.45594000000E+02  0.51100000000E-03 0. -1.
    9900012    2    1    2    0    0  0.37307353366E+01 -0.31557061364E+02  0.25365448371E+02  0.50528776211E+02  0.29999745771E+02 0.  0.
         12    1    1    2    0    0 -0.37307353366E+01  0.31557061364E+02 -0.25365448371E+02  0.40659223789E+02  0.00000000000E+00 0. -1.
         11    1    3    3    0    0  0.81288150115E+01 -0.78778661078E+01 -0.39293243306E+01  0.11982403676E+02  0.51100000000E-03 0. -1.
        -11    1    3    3    0    0 -0.89302384530E+00 -0.11506192235E+02  0.18967294677E+02  0.22202437231E+02  0.51100000000E-03 0.  1.
         12    1    3    3    0    0 -0.35050558295E+01 -0.12173003021E+02  0.10327478024E+02  0.16343935305E+02  0.00000000000E+00 0. -1.
</event>
<event>
 7    1  0.5849044E-013  0.5052884E+02  0.7816164E-02  0.1300439E+00
        -11   -1    0    0    0    0  0.00000000000E+00  0.00000000000E+00  0.45593999997E+02  0.45594000000E+02  0.51100000000E-03 0. -1.
         11   -1    0    0    0    0 -0.00000000000E+00 -0.00000000000E+00 -0.45593999997E+02  0.45594000000E+02  0.51100000000E-03 0.  1.
    9900012    2    1    2    0    0 -0.11583085469E+02  0.23721567297E+01 -0.38902082113E+02  0.50528843722E+02  0.29999950976E+02 0.  0.
         12    1    1    2    0    0  0.11583085469E+02 -0.23721567297E+01  0.38902082113E+02  0.40659156278E+02  0.00000000000E+00 0. -1.
         11    1    3    3    0    0  0.37065759566E+01  0.72856761577E+01 -0.23323725738E+01  0.85005731854E+01  0.51100000000E-03 0. -1.
        -11    1    3    3    0    0 -0.10548566612E+02 -0.21939904714E+01 -0.34566982543E+02  0.36207211079E+02  0.51100000000E-03 0.  1.
        -12    1    3    3    0    0 -0.47410948139E+01 -0.27195289565E+01 -0.20027269963E+01  0.58210594570E+01  0.00000000000E+00 0.  1.
</event>
<event>
 7    1  0.5849044E-013  0.5052888E+02  0.7816164E-02  0.1300439E+00
        -11   -1    0    0    0    0  0.00000000000E+00  0.00000000000E+00  0.45593999997E+02  0.45594000000E+02  0.51100000000E-03 0.  1.
         11   -1    0    0    0    0 -0.00000000000E+00 -0.00000000000E+00 -0.45593999997E+02  0.45594000000E+02  0.51100000000E-03 0. -1.
    9900012    2    1    2    0    0  0.25549150123E+02  0.16825057770E+02  0.26782879116E+02  0.50528877350E+02  0.30000053192E+02 0.  0.
         12    1    1    2    0    0 -0.25549150123E+02 -0.16825057770E+02 -0.26782879116E+02  0.40659122650E+02  0.00000000000E+00 0. -1.
         11    1    3    3    0    0  0.97207626940E+01 -0.81213602565E+00 -0.11853939481E+01  0.98263905556E+01  0.51100000000E-03 0. -1.
        -11    1    3    3    0    0  0.99829001552E+01  0.10113560812E+02  0.27744709663E+02  0.31172284523E+02  0.51100000000E-03 0.  1.
        -12    1    3    3    0    0  0.58454872741E+01  0.75236329833E+01  0.22356340059E+00  0.95302022714E+01  0.00000000000E+00 0.  1.
</event>
<event>
 7    1  0.5849044E-013  0.5052886E+02  0.7816164E-02  0.1300439E+00
        -11   -1    0    0    0    0  0.00000000000E+00  0.00000000000E+00  0.45593999997E+02  0.45594000000E+02  0.51100000000E-03 0.  1.
         11   -1    0    0    0    0 -0.00000000000E+00 -0.00000000000E+00 -0.45593999997E+02  0.45594000000E+02  0.51100000000E-03 0. -1.
    9900012    2    1    2    0    0  0.57889913634E+01 -0.31697511720E+02  0.24797603708E+02  0.50528858101E+02  0.29999994685E+02 0.  0.
         12    1    1    2    0    0 -0.57889913634E+01  0.31697511720E+02 -0.24797603708E+02  0.40659141899E+02  0.00000000000E+00 0. -1.
         11    1    3    3    0    0  0.12691988793E+02 -0.28131609349E+02  0.17474414828E+02  0.35465887807E+02  0.51100000000E-03 0. -1.
        -11    1    3    3    0    0 -0.19368109139E+01 -0.32334891047E+01  0.90428838715E+01  0.97969606144E+01  0.51100000000E-03 0.  1.
         12    1    3    3    0    0 -0.49661865155E+01 -0.33241326673E+00 -0.17196949916E+01  0.52660096801E+01  0.00000000000E+00 0. -1.
</event>
<event>
 7    1  0.5849044E-013  0.5052887E+02  0.7816164E-02  0.1300439E+00
        -11   -1    0    0    0    0  0.00000000000E+00  0.00000000000E+00  0.45593999997E+02  0.45594000000E+02  0.51100000000E-03 0.  1.
         11   -1    0    0    0    0 -0.00000000000E+00 -0.00000000000E+00 -0.45593999997E+02  0.45594000000E+02  0.51100000000E-03 0. -1.
    9900012    2    1    2    0    0  0.33567580030E+02 -0.11683448179E+02 -0.19745369680E+02  0.50528868009E+02  0.30000024801E+02 0.  0.
         12    1    1    2    0    0 -0.33567580030E+02  0.11683448179E+02  0.19745369680E+02  0.40659131991E+02  0.00000000000E+00 0. -1.
         11    1    3    3    0    0  0.11192228024E+02 -0.61083123977E+01 -0.17667541062E+02  0.21788057645E+02  0.51100000000E-03 0. -1.
        -11    1    3    3    0    0  0.13519268446E+02  0.30537152045E+01  0.47064154365E+01  0.14637149394E+02  0.51100000000E-03 0.  1.
         12    1    3    3    0    0  0.88560835607E+01 -0.86288509860E+01 -0.67842440546E+01  0.14103660970E+02  0.00000000000E+00 0. -1.
</event>
<event>
 7    1  0.5849044E-013  0.5052886E+02  0.7816164E-02  0.1300439E+00
        -11   -1    0    0    0    0  0.00000000000E+00  0.00000000000E+00  0.45593999997E+02  0.45594000000E+02  0.51100000000E-03 0. -1.
         11   -1    0    0    0    0 -0.00000000000E+00 -0.00000000000E+00 -0.45593999997E+02  0.45594000000E+02  0.51100000000E-03 0.  1.
    9900012    2    1    2    0    0  0.26157565062E+02 -0.13086345623E+02 -0.28243494327E+02  0.50528860516E+02  0.30000002026E+02 0.  0.
         12    1    1    2    0    0 -0.26157565062E+02  0.13086345623E+02  0.28243494327E+02  0.40659139484E+02  0.00000000000E+00 0. -1.
         11    1    3    3    0    0  0.29017864374E+01 -0.34157063890E+01 -0.10867332484E+02  0.11755268191E+02  0.51100000000E-03 0. -1.
        -11    1    3    3    0    0  0.26145170260E+02 -0.17347029285E+01 -0.13607986253E+02  0.29525521373E+02  0.51100000000E-03 0.  1.
        -12    1    3    3    0    0 -0.28893916359E+01 -0.79359363054E+01 -0.37681755903E+01  0.92480709528E+01  0.00000000000E+00 0.  1.
</event>
<event>
 7    1  0.5849044E-013  0.5052888E+02  0.7816164E-02  0.1300439E+00
        -11   -1    0    0    0    0  0.00000000000E+00  0.00000000000E+00  0.45593999997E+02  0.45594000000E+02  0.51100000000E-03 0.  1.
         11   -1    0    0    0    0 -0.00000000000E+00 -0.00000000000E+00 -0.45593999997E+02  0.45594000000E+02  0.51100000000E-03 0. -1.
    9900012    2    1    2    0    0 -0.34720807981E+02 -0.18557800732E+02 -0.10160587138E+02  0.50528880410E+02  0.30000062493E+02 0.  0.
         12    1    1    2    0    0  0.34720807981E+02  0.18557800732E+02  0.10160587138E+02  0.40659119590E+02  0.00000000000E+00 0. -1.
         11    1    3    3    0    0 -0.36508313500E+02 -0.20675988228E+02 -0.14199077345E+02  0.44294099399E+02  0.51100000000E-03 0. -1.
        -11    1    3    3    0    0  0.11369697533E+01  0.21587946546E+01  0.32139777098E+00  0.24609736628E+01  0.51100000000E-03 0.  1.
         12    1    3    3    0    0  0.65053576583E+00 -0.40607158450E-01  0.37170924360E+01  0.37738073483E+01  0.00000000000E+00 0. -1.
</event>
<event>
 7    1  0.5849044E-013  0.5052889E+02  0.7816164E-02  0.1300439E+00
        -11   -1    0    0    0    0  0.00000000000E+00  0.00000000000E+00  0.45593999997E+02  0.45594000000E+02  0.51100000000E-03 0.  1.
         11   -1    0    0    0    0 -0.00000000000E+00 -0.00000000000E+00 -0.45593999997E+02  0.45594000000E+02  0.51100000000E-03 0. -1.
    9900012    2    1    2    0    0  0.25760905783E+02  0.24919338027E+02  0.19198059120E+02  0.50528890953E+02  0.30000094541E+02 0.  0.
         12    1    1    2    0    0 -0.25760905783E+02 -0.24919338027E+02 -0.19198059120E+02  0.40659109047E+02  0.00000000000E+00 0. -1.
         11    1    3    3    0    0  0.22847089762E+02  0.18487710051E+02  0.19351019242E+02  0.35188732280E+02  0.51100000000E-03 0. -1.
        -11    1    3    3    0    0  0.76915211414E-01 -0.62376453063E+00  0.57059774647E+01  0.57404858007E+01  0.51100000000E-03 0.  1.
         12    1    3    3    0    0  0.28369008104E+01  0.70553925063E+01 -0.58589375860E+01  0.95996728726E+01  0.00000000000E+00 0. -1.
</event>
<event>
 7    1  0.5849044E-013  0.5052886E+02  0.7816164E-02  0.1300439E+00
        -11   -1    0    0    0    0  0.00000000000E+00  0.00000000000E+00  0.45593999997E+02  0.45594000000E+02  0.51100000000E-03 0.  1.
         11   -1    0    0    0    0 -0.00000000000E+00 -0.00000000000E+00 -0.45593999997E+02  0.45594000000E+02  0.51100000000E-03 0. -1.
    9900012    2    1    2    0    0 -0.14775245692E+02 -0.13250505290E+02  0.35486356390E+02  0.50528864919E+02  0.30000015409E+02 0.  0.
         12    1    1    2    0    0  0.14775245692E+02  0.13250505290E+02 -0.35486356390E+02  0.40659135081E+02  0.00000000000E+00 0. -1.
         11    1    3    3    0    0  0.56044678168E+01  0.14777200192E+01  0.99190458671E+01  0.11488306539E+02  0.51100000000E-03 0. -1.
        -11    1    3    3    0    0 -0.15035492903E+02 -0.14967750825E+02  0.26133665382E+02  0.33661076605E+02  0.51100000000E-03 0.  1.
         12    1    3    3    0    0 -0.53442206050E+01  0.23952551657E+00 -0.56635485911E+00  0.53794817756E+01  0.00000000000E+00 0. -1.
</event>
<event>
 7    1  0.5849044E-013  0.5052884E+02  0.7816164E-02  0.1300439E+00
        -11   -1    0    0    0    0  0.00000000000E+00  0.00000000000E+00  0.45593999997E+02  0.45594000000E+02  0.51100000000E-03 0. -1.
         11   -1    0    0    0    0 -0.00000000000E+00 -0.00000000000E+00 -0.45593999997E+02  0.45594000000E+02  0.51100000000E-03 0.  1.
    9900012    2    1    2    0    0  0.15623867829E+02  0.21479429807E+02 -0.30784669588E+02  0.50528843191E+02  0.29999949363E+02 0.  0.
         12    1    1    2    0    0 -0.15623867829E+02 -0.21479429807E+02  0.30784669588E+02  0.40659156809E+02  0.00000000000E+00 0. -1.
         11    1    3    3    0    0  0.17264398274E+02  0.18083191923E+02 -0.24742269903E+02  0.35174439556E+02  0.51100000000E-03 0. -1.
        -11    1    3    3    0    0  0.43049800091E+01 -0.24638574056E+01  0.14669292821E+00  0.49623548110E+01  0.51100000000E-03 0.  1.
         12    1    3    3    0    0 -0.59455104547E+01  0.58600952895E+01 -0.61890926139E+01  0.10392048824E+02  0.00000000000E+00 0. -1.
</event>
<event>
 7    1  0.5849044E-013  0.5052886E+02  0.7816164E-02  0.1300439E+00
        -11   -1    0    0    0    0  0.00000000000E+00  0.00000000000E+00  0.45593999997E+02  0.45594000000E+02  0.51100000000E-03 0.  1.
         11   -1    0    0    0    0 -0.00000000000E+00 -0.00000000000E+00 -0.45593999997E+02  0.45594000000E+02  0.51100000000E-03 0. -1.
    9900012    2    1    2    0    0 -0.18466839810E+02 -0.30039119665E+02  0.20243334823E+02  0.50528862189E+02  0.30000007109E+02 0.  0.
         12    1    1    2    0    0  0.18466839810E+02  0.30039119665E+02 -0.20243334823E+02  0.40659137811E+02  0.00000000000E+00 0. -1.
         11    1    3    3    0    0 -0.10983909681E+02 -0.25193408224E+02  0.10934897930E+02  0.29579149461E+02  0.51100000000E-03 0.  1.
        -11    1    3    3    0    0  0.38060457105E+01  0.24543169469E+01 -0.11841350969E+00  0.45303065732E+01  0.51100000000E-03 0. -1.
         12    1    3    3    0    0 -0.11288975840E+02 -0.73000283872E+01  0.94268504026E+01  0.16419406155E+02  0.00000000000E+00 0. -1.
</event>
<event>
 7    1  0.5849044E-013  0.5052885E+02  0.7816164E-02  0.1300439E+00
        -11   -1    0    0    0    0  0.00000000000E+00  0.00000000000E+00  0.45593999997E+02  0.45594000000E+02  0.51100000000E-03 0.  1.
         11   -1    0    0    0    0 -0.00000000000E+00 -0.00000000000E+00 -0.45593999997E+02  0.45594000000E+02  0.51100000000E-03 0. -1.
    9900012    2    1    2    0    0 -0.32405961228E+02 -0.17025333992E+02  0.17696265917E+02  0.50528854066E+02  0.29999982420E+02 0.  0.
         12    1    1    2    0    0  0.32405961228E+02  0.17025333992E+02 -0.17696265917E+02  0.40659145934E+02  0.00000000000E+00 0. -1.
         11    1    3    3    0    0 -0.99131448194E+01 -0.19412984381E+02  0.10170319563E+02  0.24053477983E+02  0.51100000000E-03 0. -1.
        -11    1    3    3    0    0 -0.11107150604E+02  0.37003183515E+01  0.92039910096E+01  0.14892098617E+02  0.51100000000E-03 0.  1.
         12    1    3    3    0    0 -0.11385665805E+02 -0.13126679624E+01 -0.16780446561E+01  0.11583277467E+02  0.00000000000E+00 0. -1.
</event>
<event>
 7    1  0.5849044E-013  0.5052886E+02  0.7816164E-02  0.1300439E+00
        -11   -1    0    0    0    0  0.00000000000E+00  0.00000000000E+00  0.45593999997E+02  0.45594000000E+02  0.51100000000E-03 0.  1.
         11   -1    0    0    0    0 -0.00000000000E+00 -0.00000000000E+00 -0.45593999997E+02  0.45594000000E+02  0.51100000000E-03 0. -1.
    9900012    2    1    2    0    0  0.23565901308E+02 -0.12812638043E+02  0.30555691665E+02  0.50528859684E+02  0.29999999496E+02 0.  0.
         12    1    1    2    0    0 -0.23565901308E+02  0.12812638043E+02 -0.30555691665E+02  0.40659140316E+02  0.00000000000E+00 0. -1.
         11    1    3    3    0    0  0.10141517996E+02  0.86040071632E+01  0.11467728788E+02  0.17560983183E+02  0.51100000000E-03 0. -1.
        -11    1    3    3    0    0  0.27366356521E+01 -0.66749351029E+01  0.10737703744E+02  0.12936081914E+02  0.51100000000E-03 0.  1.
         12    1    3    3    0    0  0.10687747660E+02 -0.14741710104E+02  0.83502591323E+01  0.20031794588E+02  0.00000000000E+00 0. -1.
</event>
<event>
 7    1  0.5849044E-013  0.5052886E+02  0.7816164E-02  0.1300439E+00
        -11   -1    0    0    0    0  0.00000000000E+00  0.00000000000E+00  0.45593999997E+02  0.45594000000E+02  0.51100000000E-03 0. -1.
         11   -1    0    0    0    0 -0.00000000000E+00 -0.00000000000E+00 -0.45593999997E+02  0.45594000000E+02  0.51100000000E-03 0.  1.
    9900012    2    1    2    0    0  0.91439200431E+01 -0.31195684578E+02 -0.24420973615E+02  0.50528856350E+02  0.29999989362E+02 0.  0.
         12    1    1    2    0    0 -0.91439200431E+01  0.31195684578E+02  0.24420973615E+02  0.40659143650E+02  0.00000000000E+00 0. -1.
         11    1    3    3    0    0  0.18059782692E+02 -0.16543996938E+02 -0.21252772356E+02  0.32427456247E+02  0.51100000000E-03 0. -1.
        -11    1    3    3    0    0 -0.78578779038E+01 -0.14529041030E+02 -0.36752657738E+01  0.16921786465E+02  0.51100000000E-03 0.  1.
         12    1    3    3    0    0 -0.10579847455E+01 -0.12264660984E+00  0.50706451493E+00  0.11796136380E+01  0.00000000000E+00 0. -1.
</event>
<event>
 7    1  0.5849044E-013  0.5052883E+02  0.7816164E-02  0.1300439E+00
        -11   -1    0    0    0    0  0.00000000000E+00  0.00000000000E+00  0.45593999997E+02  0.45594000000E+02  0.51100000000E-03 0.  1.
         11   -1    0    0    0    0 -0.00000000000E+00 -0.00000000000E+00 -0.45593999997E+02  0.45594000000E+02  0.51100000000E-03 0. -1.
    9900012    2    1    2    0    0  0.15978344502E+02 -0.30910607547E+02  0.21033186046E+02  0.50528830466E+02  0.29999910684E+02 0.  0.
         12    1    1    2    0    0 -0.15978344502E+02  0.30910607547E+02 -0.21033186046E+02  0.40659169534E+02  0.00000000000E+00 0. -1.
         11    1    3    3    0    0  0.11776477494E+02 -0.91235869664E+00  0.14196879648E+02  0.18468059253E+02  0.51100000000E-03 0. -1.
        -11    1    3    3    0    0  0.54719460336E+01 -0.15365843288E+02  0.12935845957E+01  0.16362294910E+02  0.51100000000E-03 0.  1.
         12    1    3    3    0    0 -0.12700790257E+01 -0.14632405563E+02  0.55427218026E+01  0.15698476304E+02  0.00000000000E+00 0. -1.
</event>
<event>
 7    1  0.5849044E-013  0.5052886E+02  0.7816164E-02  0.1300439E+00
        -11   -1    0    0    0    0  0.00000000000E+00  0.00000000000E+00  0.45593999997E+02  0.45594000000E+02  0.51100000000E-03 0.  1.
         11   -1    0    0    0    0 -0.00000000000E+00 -0.00000000000E+00 -0.45593999997E+02  0.45594000000E+02  0.51100000000E-03 0. -1.
    9900012    2    1    2    0    0 -0.29759022445E+02 -0.27691536821E+02 -0.86319520118E+00  0.50528859154E+02  0.29999997885E+02 0.  0.
         12    1    1    2    0    0  0.29759022445E+02  0.27691536821E+02  0.86319520118E+00  0.40659140846E+02  0.00000000000E+00 0. -1.
         11    1    3    3    0    0 -0.11215904099E+02 -0.16981373951E+02 -0.96981626076E+01  0.22543689233E+02  0.51100000000E-03 0. -1.
        -11    1    3    3    0    0  0.15001369490E+01  0.20969114478E+01  0.19206101348E+01  0.32149948735E+01  0.51100000000E-03 0.  1.
        -12    1    3    3    0    0 -0.20043255295E+02 -0.12807074318E+02  0.69143572716E+01  0.24770175047E+02  0.00000000000E+00 0.  1.
</event>
<event>
 7    1  0.5849044E-013  0.5052885E+02  0.7816164E-02  0.1300439E+00
        -11   -1    0    0    0    0  0.00000000000E+00  0.00000000000E+00  0.45593999997E+02  0.45594000000E+02  0.51100000000E-03 0.  1.
         11   -1    0    0    0    0 -0.00000000000E+00 -0.00000000000E+00 -0.45593999997E+02  0.45594000000E+02  0.51100000000E-03 0. -1.
    9900012    2    1    2    0    0  0.37016739237E+02 -0.16722852433E+02 -0.18092355807E+01  0.50528854526E+02  0.29999983819E+02 0.  0.
         12    1    1    2    0    0 -0.37016739237E+02  0.16722852433E+02  0.18092355807E+01  0.40659145474E+02  0.00000000000E+00 0. -1.
         11    1    3    3    0    0  0.10701343380E+02  0.63080799513E+00 -0.10503400462E+02  0.15007934248E+02  0.51100000000E-03 0. -1.
        -11    1    3    3    0    0  0.21559044753E+02 -0.11295955364E+02  0.59782772229E+00  0.24346425128E+02  0.51100000000E-03 0.  1.
         12    1    3    3    0    0  0.47563511038E+01 -0.60577050642E+01  0.80963371594E+01  0.11174495150E+02  0.00000000000E+00 0. -1.
</event>
<event>
 7    1  0.5849044E-013  0.5052886E+02  0.7816164E-02  0.1300439E+00
        -11   -1    0    0    0    0  0.00000000000E+00  0.00000000000E+00  0.45593999997E+02  0.45594000000E+02  0.51100000000E-03 0.  1.
         11   -1    0    0    0    0 -0.00000000000E+00 -0.00000000000E+00 -0.45593999997E+02  0.45594000000E+02  0.51100000000E-03 0. -1.
    9900012    2    1    2    0    0  0.41946799201E+01  0.39472105361E+02  0.88047399686E+01  0.50528857274E+02  0.29999992171E+02 0.  0.
         12    1    1    2    0    0 -0.41946799201E+01 -0.39472105361E+02 -0.88047399686E+01  0.40659142726E+02  0.00000000000E+00 0. -1.
         11    1    3    3    0    0  0.14597742997E+02  0.17791543537E+02 -0.36433607972E+01  0.23300369100E+02  0.51100000000E-03 0. -1.
        -11    1    3    3    0    0 -0.36385709135E+01  0.70121485827E+01  0.26327240934E+01  0.83271040856E+01  0.51100000000E-03 0.  1.
         12    1    3    3    0    0 -0.67644921637E+01  0.14668413241E+02  0.98153766725E+01  0.18901384088E+02  0.00000000000E+00 0. -1.
</event>
<event>
 7    1  0.5849044E-013  0.5052884E+02  0.7816164E-02  0.1300439E+00
        -11   -1    0    0    0    0  0.00000000000E+00  0.00000000000E+00  0.45593999997E+02  0.45594000000E+02  0.51100000000E-03 0.  1.
         11   -1    0    0    0    0 -0.00000000000E+00 -0.00000000000E+00 -0.45593999997E+02  0.45594000000E+02  0.51100000000E-03 0. -1.
    9900012    2    1    2    0    0  0.20566680239E+02  0.10411404282E+02  0.33493005932E+02  0.50528842095E+02  0.29999946032E+02 0.  0.
         12    1    1    2    0    0 -0.20566680239E+02 -0.10411404282E+02 -0.33493005932E+02  0.40659157905E+02  0.00000000000E+00 0. -1.
         11    1    3    3    0    0  0.11537322131E+01  0.12489263549E+02  0.32205969229E+01  0.12949326115E+02  0.51100000000E-03 0. -1.
        -11    1    3    3    0    0  0.11044882628E+02 -0.58249632959E+01  0.21652877377E+02  0.24995334137E+02  0.51100000000E-03 0.  1.
        -12    1    3    3    0    0  0.83680653979E+01  0.37471040280E+01  0.86195316319E+01  0.12584181843E+02  0.00000000000E+00 0.  1.
</event>
<event>
 7    1  0.5849044E-013  0.5052886E+02  0.7816164E-02  0.1300439E+00
        -11   -1    0    0    0    0  0.00000000000E+00  0.00000000000E+00  0.45593999997E+02  0.45594000000E+02  0.51100000000E-03 0.  1.
         11   -1    0    0    0    0 -0.00000000000E+00 -0.00000000000E+00 -0.45593999997E+02  0.45594000000E+02  0.51100000000E-03 0. -1.
    9900012    2    1    2    0    0  0.39212030464E+02  0.39938012407E+01  0.99815857716E+01  0.50528857904E+02  0.29999994085E+02 0.  0.
         12    1    1    2    0    0 -0.39212030464E+02 -0.39938012407E+01 -0.99815857716E+01  0.40659142096E+02  0.00000000000E+00 0. -1.
         11    1    3    3    0    0  0.20856433061E+02  0.87161808983E+01  0.14813368476E+02  0.27025885654E+02  0.51100000000E-03 0.  1.
        -11    1    3    3    0    0  0.19423613137E+02 -0.67040845675E+01 -0.52619232592E+01  0.21211066306E+02  0.51100000000E-03 0. -1.
         12    1    3    3    0    0 -0.10680157348E+01  0.19817049100E+01  0.43014055447E+00  0.22919059441E+01  0.00000000000E+00 0. -1.
</event>
<event>
 7    1  0.5849044E-013  0.5052885E+02  0.7816164E-02  0.1300439E+00
        -11   -1    0    0    0    0  0.00000000000E+00  0.00000000000E+00  0.45593999997E+02  0.45594000000E+02  0.51100000000E-03 0. -1.
         11   -1    0    0    0    0 -0.00000000000E+00 -0.00000000000E+00 -0.45593999997E+02  0.45594000000E+02  0.51100000000E-03 0.  1.
    9900012    2    1    2    0    0  0.94586184529E+01  0.22391039730E+02 -0.32593587603E+02  0.50528854952E+02  0.29999985112E+02 0.  0.
         12    1    1    2    0    0 -0.94586184529E+01 -0.22391039730E+02  0.32593587603E+02  0.40659145048E+02  0.00000000000E+00 0. -1.
         11    1    3    3    0    0 -0.35515559651E+01  0.68629039386E+00  0.67031069880E+00  0.36788396230E+01  0.51100000000E-03 0. -1.
        -11    1    3    3    0    0  0.17734762809E+02  0.16716963071E+02 -0.31367701567E+02  0.39722932521E+02  0.51100000000E-03 0.  1.
         12    1    3    3    0    0 -0.47245883911E+01  0.49877862653E+01 -0.18961967344E+01  0.71270828078E+01  0.00000000000E+00 0. -1.
</event>
<event>
 7    1  0.5849044E-013  0.5052890E+02  0.7816164E-02  0.1300439E+00
        -11   -1    0    0    0    0  0.00000000000E+00  0.00000000000E+00  0.45593999997E+02  0.45594000000E+02  0.51100000000E-03 0.  1.
         11   -1    0    0    0    0 -0.00000000000E+00 -0.00000000000E+00 -0.45593999997E+02  0.45594000000E+02  0.51100000000E-03 0. -1.
    9900012    2    1    2    0    0  0.60643844629E+01  0.35354822447E+02  0.19142156492E+02  0.50528900350E+02  0.30000123105E+02 0.  0.
         12    1    1    2    0    0 -0.60643844629E+01 -0.35354822447E+02 -0.19142156492E+02  0.40659099650E+02  0.00000000000E+00 0. -1.
         11    1    3    3    0    0  0.13756315923E+02  0.30084391570E+02  0.87931048816E+01  0.34229016019E+02  0.51100000000E-03 0. -1.
        -11    1    3    3    0    0 -0.18335742136E+01  0.58641062711E+01  0.76789203940E+01  0.98344067149E+01  0.51100000000E-03 0.  1.
         12    1    3    3    0    0 -0.58583572462E+01 -0.59367539466E+00  0.26701312161E+01  0.64654776165E+01  0.00000000000E+00 0. -1.
</event>
<event>
 7    1  0.5849044E-013  0.5052884E+02  0.7816164E-02  0.1300439E+00
        -11   -1    0    0    0    0  0.00000000000E+00  0.00000000000E+00  0.45593999997E+02  0.45594000000E+02  0.51100000000E-03 0. -1.
         11   -1    0    0    0    0 -0.00000000000E+00 -0.00000000000E+00 -0.45593999997E+02  0.45594000000E+02  0.51100000000E-03 0.  1.
    9900012    2    1    2    0    0  0.22887705117E+01 -0.21449783703E+02 -0.34464995378E+02  0.50528836238E+02  0.29999928230E+02 0.  0.
         12    1    1    2    0    0 -0.22887705117E+01  0.21449783703E+02  0.34464995378E+02  0.40659163762E+02  0.00000000000E+00 0. -1.
         11    1    3    3    0    0  0.53285540590E+01 -0.18566229247E+02 -0.10036579082E+02  0.21767665854E+02  0.51100000000E-03 0. -1.
        -11    1    3    3    0    0  0.51624529670E+01 -0.83577475940E+00 -0.15960994697E+02  0.16795915934E+02  0.51100000000E-03 0.  1.
         12    1    3    3    0    0 -0.82022365143E+01 -0.20477796967E+01 -0.84674215997E+01  0.11965254451E+02  0.00000000000E+00 0. -1.
</event>
<event>
 7    1  0.5849044E-013  0.5052888E+02  0.7816164E-02  0.1300439E+00
        -11   -1    0    0    0    0  0.00000000000E+00  0.00000000000E+00  0.45593999997E+02  0.45594000000E+02  0.51100000000E-03 0. -1.
         11   -1    0    0    0    0 -0.00000000000E+00 -0.00000000000E+00 -0.45593999997E+02  0.45594000000E+02  0.51100000000E-03 0.  1.
    9900012    2    1    2    0    0  0.67837769340E+00 -0.39333851537E+02 -0.10273854399E+02  0.50528878548E+02  0.30000056836E+02 0.  0.
         12    1    1    2    0    0 -0.67837769340E+00  0.39333851537E+02  0.10273854399E+02  0.40659121452E+02  0.00000000000E+00 0. -1.
         11    1    3    3    0    0  0.71246760381E+01 -0.78591206416E+01  0.73226106632E+01  0.12889818195E+02  0.51100000000E-03 0. -1.
        -11    1    3    3    0    0 -0.18008126984E+00 -0.15802504447E+02 -0.49909690857E+01  0.16572910086E+02  0.51100000000E-03 0.  1.
         12    1    3    3    0    0 -0.62662170748E+01 -0.15672226448E+02 -0.12605495977E+02  0.21066150267E+02  0.00000000000E+00 0. -1.
</event>
<event>
 7    1  0.5849044E-013  0.5052887E+02  0.7816164E-02  0.1300439E+00
        -11   -1    0    0    0    0  0.00000000000E+00  0.00000000000E+00  0.45593999997E+02  0.45594000000E+02  0.51100000000E-03 0. -1.
         11   -1    0    0    0    0 -0.00000000000E+00 -0.00000000000E+00 -0.45593999997E+02  0.45594000000E+02  0.51100000000E-03 0.  1.
    9900012    2    1    2    0    0 -0.38664041809E+02 -0.78536354275E+00 -0.12555490002E+02  0.50528865060E+02  0.30000015836E+02 0.  0.
         12    1    1    2    0    0  0.38664041809E+02  0.78536354275E+00  0.12555490002E+02  0.40659134940E+02  0.00000000000E+00 0. -1.
         11    1    3    3    0    0  0.28253575662E+01  0.20642586193E+00 -0.35559431243E+00  0.28551190149E+01  0.51100000000E-03 0. -1.
        -11    1    3    3    0    0 -0.22803984246E+02 -0.93784524054E+01 -0.18514410073E+01  0.24726603105E+02  0.51100000000E-03 0.  1.
        -12    1    3    3    0    0 -0.18685415128E+02  0.83866630008E+01 -0.10348454683E+02  0.22947142940E+02  0.00000000000E+00 0.  1.
</event>
<event>
 7    1  0.5849044E-013  0.5052884E+02  0.7816164E-02  0.1300439E+00
        -11   -1    0    0    0    0  0.00000000000E+00  0.00000000000E+00  0.45593999997E+02  0.45594000000E+02  0.51100000000E-03 0. -1.
         11   -1    0    0    0    0 -0.00000000000E+00 -0.00000000000E+00 -0.45593999997E+02  0.45594000000E+02  0.51100000000E-03 0.  1.
    9900012    2    1    2    0    0  0.28629725502E+02  0.17736432526E+02 -0.22779918385E+02  0.50528844786E+02  0.29999954213E+02 0.  0.
         12    1    1    2    0    0 -0.28629725502E+02 -0.17736432526E+02  0.22779918385E+02  0.40659155214E+02  0.00000000000E+00 0. -1.
         11    1    3    3    0    0  0.10832735939E+02 -0.73951984871E+01 -0.92682166437E+01  0.16060416203E+02  0.51100000000E-03 0. -1.
        -11    1    3    3    0    0  0.13386293040E+02  0.19565295364E+02 -0.13668690390E+02  0.27364698450E+02  0.51100000000E-03 0.  1.
         12    1    3    3    0    0  0.44106965232E+01  0.55663356489E+01  0.15698864864E+00  0.71037301337E+01  0.00000000000E+00 0. -1.
</event>
<event>
 7    1  0.5849044E-013  0.5052886E+02  0.7816164E-02  0.1300439E+00
        -11   -1    0    0    0    0  0.00000000000E+00  0.00000000000E+00  0.45593999997E+02  0.45594000000E+02  0.51100000000E-03 0.  1.
         11   -1    0    0    0    0 -0.00000000000E+00 -0.00000000000E+00 -0.45593999997E+02  0.45594000000E+02  0.51100000000E-03 0. -1.
    9900012    2    1    2    0    0 -0.33064864959E+02 -0.21333655291E+02 -0.10235032949E+02  0.50528855367E+02  0.29999986373E+02 0.  0.
         12    1    1    2    0    0  0.33064864959E+02  0.21333655291E+02  0.10235032949E+02  0.40659144633E+02  0.00000000000E+00 0. -1.
         11    1    3    3    0    0 -0.10204488054E+02 -0.22765665908E+02 -0.10239064799E+02  0.26967490964E+02  0.51100000000E-03 0. -1.
        -11    1    3    3    0    0 -0.20254855292E+02 -0.39242459455E+00  0.82811153720E+00  0.20275574688E+02  0.51100000000E-03 0.  1.
         12    1    3    3    0    0 -0.26055216129E+01  0.18244352115E+01 -0.82407968725E+00  0.32857897144E+01  0.00000000000E+00 0. -1.
</event>
<event>
 7    1  0.5849044E-013  0.5052883E+02  0.7816164E-02  0.1300439E+00
        -11   -1    0    0    0    0  0.00000000000E+00  0.00000000000E+00  0.45593999997E+02  0.45594000000E+02  0.51100000000E-03 0.  1.
         11   -1    0    0    0    0 -0.00000000000E+00 -0.00000000000E+00 -0.45593999997E+02  0.45594000000E+02  0.51100000000E-03 0. -1.
    9900012    2    1    2    0    0  0.14690203713E+02 -0.99454536592E+01  0.36584888838E+02  0.50528828527E+02  0.29999904791E+02 0.  0.
         12    1    1    2    0    0 -0.14690203713E+02  0.99454536592E+01 -0.36584888838E+02  0.40659171473E+02  0.00000000000E+00 0. -1.
         11    1    3    3    0    0  0.94056575571E+01  0.76402303691E+01  0.35980713588E+01  0.12640634159E+02  0.51100000000E-03 0. -1.
        -11    1    3    3    0    0  0.47567719325E+01 -0.11464827507E+02  0.20342284349E+02  0.23830184259E+02  0.51100000000E-03 0.  1.
         12    1    3    3    0    0  0.52777422314E+00 -0.61208565208E+01  0.12644533129E+02  0.14058010109E+02  0.00000000000E+00 0. -1.
</event>
<event>
 7    1  0.5849044E-013  0.5052884E+02  0.7816164E-02  0.1300439E+00
        -11   -1    0    0    0    0  0.00000000000E+00  0.00000000000E+00  0.45593999997E+02  0.45594000000E+02  0.51100000000E-03 0.  1.
         11   -1    0    0    0    0 -0.00000000000E+00 -0.00000000000E+00 -0.45593999997E+02  0.45594000000E+02  0.51100000000E-03 0. -1.
    9900012    2    1    2    0    0 -0.34676937155E+02  0.10372954292E+02  0.18522387659E+02  0.50528843641E+02  0.29999950732E+02 0.  0.
         12    1    1    2    0    0  0.34676937155E+02 -0.10372954292E+02 -0.18522387659E+02  0.40659156359E+02  0.00000000000E+00 0. -1.
         11    1    3    3    0    0 -0.17020450339E+02 -0.74756136918E+01 -0.69080193184E+00  0.18602627164E+02  0.51100000000E-03 0. -1.
        -11    1    3    3    0    0 -0.14404501915E+02  0.11763851980E+02  0.14124210193E+02  0.23353183994E+02  0.51100000000E-03 0.  1.
         12    1    3    3    0    0 -0.32519849007E+01  0.60847160046E+01  0.50889793976E+01  0.85730324834E+01  0.00000000000E+00 0. -1.
</event>
<event>
 7    1  0.5849044E-013  0.5052887E+02  0.7816164E-02  0.1300439E+00
        -11   -1    0    0    0    0  0.00000000000E+00  0.00000000000E+00  0.45593999997E+02  0.45594000000E+02  0.51100000000E-03 0. -1.
         11   -1    0    0    0    0 -0.00000000000E+00 -0.00000000000E+00 -0.45593999997E+02  0.45594000000E+02  0.51100000000E-03 0.  1.
    9900012    2    1    2    0    0 -0.11202498689E+02 -0.88721941812E+01 -0.38065111047E+02  0.50528874511E+02  0.30000044564E+02 0.  0.
         12    1    1    2    0    0  0.11202498689E+02  0.88721941812E+01  0.38065111047E+02  0.40659125489E+02  0.00000000000E+00 0. -1.
         11    1    3    3    0    0 -0.13491267301E+02  0.46706361485E+01 -0.92816725431E+01  0.17028757467E+02  0.51100000000E-03 0. -1.
        -11    1    3    3    0    0  0.90070998984E+00 -0.14908258618E+02 -0.23247505150E+02  0.27631756178E+02  0.51100000000E-03 0.  1.
        -12    1    3    3    0    0  0.13880586224E+01  0.13654282883E+01 -0.55359333539E+01  0.58683608656E+01  0.00000000000E+00 0.  1.
</event>
<event>
 7    1  0.5849044E-013  0.5052888E+02  0.7816164E-02  0.1300439E+00
        -11   -1    0    0    0    0  0.00000000000E+00  0.00000000000E+00  0.45593999997E+02  0.45594000000E+02  0.51100000000E-03 0.  1.
         11   -1    0    0    0    0 -0.00000000000E+00 -0.00000000000E+00 -0.45593999997E+02  0.45594000000E+02  0.51100000000E-03 0. -1.
    9900012    2    1    2    0    0  0.28182176581E+02 -0.24019948353E+02  0.16791991941E+02  0.50528880616E+02  0.30000063120E+02 0.  0.
         12    1    1    2    0    0 -0.28182176581E+02  0.24019948353E+02 -0.16791991941E+02  0.40659119384E+02  0.00000000000E+00 0. -1.
         11    1    3    3    0    0  0.17153051878E+02 -0.24338417967E+02  0.12282055051E+02  0.32209232440E+02  0.51100000000E-03 0. -1.
        -11    1    3    3    0    0 -0.77795692894E+00  0.25984780701E+01  0.56230067003E+01  0.62430369114E+01  0.51100000000E-03 0.  1.
        -12    1    3    3    0    0  0.11807081632E+02 -0.22800084568E+01 -0.11130698097E+01  0.12076611264E+02  0.00000000000E+00 0.  1.
</event>
<event>
 7    1  0.5849044E-013  0.5052885E+02  0.7816164E-02  0.1300439E+00
        -11   -1    0    0    0    0  0.00000000000E+00  0.00000000000E+00  0.45593999997E+02  0.45594000000E+02  0.51100000000E-03 0.  1.
         11   -1    0    0    0    0 -0.00000000000E+00 -0.00000000000E+00 -0.45593999997E+02  0.45594000000E+02  0.51100000000E-03 0. -1.
    9900012    2    1    2    0    0 -0.11866595761E+02  0.23843379907E+02  0.30722033112E+02  0.50528853688E+02  0.29999981269E+02 0.  0.
         12    1    1    2    0    0  0.11866595761E+02 -0.23843379907E+02 -0.30722033112E+02  0.40659146312E+02  0.00000000000E+00 0. -1.
         11    1    3    3    0    0 -0.10582540735E+02  0.27647730584E+02  0.31546355773E+02  0.43261527222E+02  0.51100000000E-03 0.  1.
        -11    1    3    3    0    0 -0.23517791286E+01 -0.10132312168E+01 -0.27141745551E+01  0.37315206478E+01  0.51100000000E-03 0. -1.
        -12    1    3    3    0    0  0.10677241018E+01 -0.27911194599E+01  0.18898518942E+01  0.35358058175E+01  0.00000000000E+00 0.  1.
</event>
<event>
 7    1  0.5849044E-013  0.5052886E+02  0.7816164E-02  0.1300439E+00
        -11   -1    0    0    0    0  0.00000000000E+00  0.00000000000E+00  0.45593999997E+02  0.45594000000E+02  0.51100000000E-03 0.  1.
         11   -1    0    0    0    0 -0.00000000000E+00 -0.00000000000E+00 -0.45593999997E+02  0.45594000000E+02  0.51100000000E-03 0. -1.
    9900012    2    1    2    0    0 -0.16956525477E+01  0.35398458940E+02 -0.19930865085E+02  0.50528861840E+02  0.30000006050E+02 0.  0.
         12    1    1    2    0    0  0.16956525477E+01 -0.35398458940E+02  0.19930865085E+02  0.40659138160E+02  0.00000000000E+00 0. -1.
         11    1    3    3    0    0 -0.44666027617E+01  0.63694201995E+01 -0.62573043727E+01  0.99836822957E+01  0.51100000000E-03 0. -1.
        -11    1    3    3    0    0 -0.11256712285E+01  0.22417411932E+02  0.25578263880E+01  0.22590926708E+02  0.51100000000E-03 0.  1.
        -12    1    3    3    0    0  0.38966214425E+01  0.66116268085E+01 -0.16231387100E+02  0.17954252837E+02  0.00000000000E+00 0.  1.
</event>
<event>
 7    1  0.5849044E-013  0.5052887E+02  0.7816164E-02  0.1300439E+00
        -11   -1    0    0    0    0  0.00000000000E+00  0.00000000000E+00  0.45593999997E+02  0.45594000000E+02  0.51100000000E-03 0. -1.
         11   -1    0    0    0    0 -0.00000000000E+00 -0.00000000000E+00 -0.45593999997E+02  0.45594000000E+02  0.51100000000E-03 0.  1.
    9900012    2    1    2    0    0  0.91711291402E+01 -0.36987118703E+02 -0.14177752303E+02  0.50528865479E+02  0.30000017109E+02 0.  0.
         12    1    1    2    0    0 -0.91711291402E+01  0.36987118703E+02  0.14177752303E+02  0.40659134521E+02  0.00000000000E+00 0. -1.
         11    1    3    3    0    0 -0.16880018411E+01  0.20673066074E+00 -0.20053728288E+01  0.26293741128E+01  0.51100000000E-03 0. -1.
        -11    1    3    3    0    0  0.18899598777E+02 -0.23434656823E+02 -0.10460174652E+02  0.31871511235E+02  0.51100000000E-03 0.  1.
        -12    1    3    3    0    0 -0.80404677960E+01 -0.13759192540E+02 -0.17122048227E+01  0.16027980131E+02  0.00000000000E+00 0.  1.
</event>
<event>
 7    1  0.5849044E-013  0.5052886E+02  0.7816164E-02  0.1300439E+00
        -11   -1    0    0    0    0  0.00000000000E+00  0.00000000000E+00  0.45593999997E+02  0.45594000000E+02  0.51100000000E-03 0.  1.
         11   -1    0    0    0    0 -0.00000000000E+00 -0.00000000000E+00 -0.45593999997E+02  0.45594000000E+02  0.51100000000E-03 0. -1.
    9900012    2    1    2    0    0  0.34077733827E+01 -0.35393591472E+02  0.19719195470E+02  0.50528857034E+02  0.29999991441E+02 0.  0.
         12    1    1    2    0    0 -0.34077733827E+01  0.35393591472E+02 -0.19719195470E+02  0.40659142966E+02  0.00000000000E+00 0. -1.
         11    1    3    3    0    0  0.36417977387E+01  0.18737557360E+01  0.10619615834E+00  0.40969414462E+01  0.51100000000E-03 0. -1.
        -11    1    3    3    0    0  0.30363339874E+01 -0.32967886994E+02  0.86631389129E+01  0.34222081658E+02  0.51100000000E-03 0.  1.
        -12    1    3    3    0    0 -0.32703583434E+01 -0.42994602140E+01  0.10949860399E+02  0.12209833929E+02  0.00000000000E+00 0.  1.
</event>
<event>
 7    1  0.5849044E-013  0.5052886E+02  0.7816164E-02  0.1300439E+00
        -11   -1    0    0    0    0  0.00000000000E+00  0.00000000000E+00  0.45593999997E+02  0.45594000000E+02  0.51100000000E-03 0. -1.
         11   -1    0    0    0    0 -0.00000000000E+00 -0.00000000000E+00 -0.45593999997E+02  0.45594000000E+02  0.51100000000E-03 0.  1.
    9900012    2    1    2    0    0  0.21473756696E+02  0.75008474648E+01 -0.33701346186E+02  0.50528859894E+02  0.30000000135E+02 0.  0.
         12    1    1    2    0    0 -0.21473756696E+02 -0.75008474648E+01  0.33701346186E+02  0.40659140106E+02  0.00000000000E+00 0. -1.
         11    1    3    3    0    0  0.19461032597E+02  0.66877736505E+01 -0.51979563912E+01  0.21224440088E+02  0.51100000000E-03 0. -1.
        -11    1    3    3    0    0  0.22294265681E+01 -0.23298934937E+01 -0.92735642035E+01  0.98182350660E+01  0.51100000000E-03 0.  1.
         12    1    3    3    0    0 -0.21670246854E+00  0.31429673080E+01 -0.19229825592E+02  0.19486184741E+02  0.00000000000E+00 0. -1.
</event>
<event>
 7    1  0.5849044E-013  0.5052886E+02  0.7816164E-02  0.1300439E+00
        -11   -1    0    0    0    0  0.00000000000E+00  0.00000000000E+00  0.45593999997E+02  0.45594000000E+02  0.51100000000E-03 0. -1.
         11   -1    0    0    0    0 -0.00000000000E+00 -0.00000000000E+00 -0.45593999997E+02  0.45594000000E+02  0.51100000000E-03 0.  1.
    9900012    2    1    2    0    0  0.13606335094E+02  0.31987648049E+02 -0.21090842295E+02  0.50528860669E+02  0.30000002491E+02 0.  0.
         12    1    1    2    0    0 -0.13606335094E+02 -0.31987648049E+02  0.21090842295E+02  0.40659139331E+02  0.00000000000E+00 0. -1.
         11    1    3    3    0    0  0.96353679070E+01  0.99805017988E+01  0.18733736707E+01  0.13998580643E+02  0.51100000000E-03 0. -1.
        -11    1    3    3    0    0  0.95956899317E+01  0.12733300538E+02 -0.19404677150E+02  0.25114850256E+02  0.51100000000E-03 0.  1.
        -12    1    3    3    0    0 -0.56247227442E+01  0.92738457120E+01 -0.35595388161E+01  0.11415429770E+02  0.00000000000E+00 0.  1.
</event>
<event>
 7    1  0.5849044E-013  0.5052885E+02  0.7816164E-02  0.1300439E+00
        -11   -1    0    0    0    0  0.00000000000E+00  0.00000000000E+00  0.45593999997E+02  0.45594000000E+02  0.51100000000E-03 0.  1.
         11   -1    0    0    0    0 -0.00000000000E+00 -0.00000000000E+00 -0.45593999997E+02  0.45594000000E+02  0.51100000000E-03 0. -1.
    9900012    2    1    2    0    0  0.21536773777E+02 -0.48250411143E+01  0.34147512779E+02  0.50528852500E+02  0.29999977658E+02 0.  0.
         12    1    1    2    0    0 -0.21536773777E+02  0.48250411143E+01 -0.34147512779E+02  0.40659147500E+02  0.00000000000E+00 0. -1.
         11    1    3    3    0    0 -0.21153566955E+00  0.70028439936E+01  0.56142084873E+01  0.89779679515E+01  0.51100000000E-03 0. -1.
        -11    1    3    3    0    0  0.18620428040E+02 -0.58449194560E+01  0.10214675814E+02  0.22027778510E+02  0.51100000000E-03 0.  1.
        -12    1    3    3    0    0  0.31278814070E+01 -0.59829656520E+01  0.18318628477E+02  0.19523106038E+02  0.00000000000E+00 0.  1.
</event>
<event>
 7    1  0.5849044E-013  0.5052886E+02  0.7816164E-02  0.1300439E+00
        -11   -1    0    0    0    0  0.00000000000E+00  0.00000000000E+00  0.45593999997E+02  0.45594000000E+02  0.51100000000E-03 0. -1.
         11   -1    0    0    0    0 -0.00000000000E+00 -0.00000000000E+00 -0.45593999997E+02  0.45594000000E+02  0.51100000000E-03 0.  1.
    9900012    2    1    2    0    0  0.21527996811E+02 -0.12921847311E+01 -0.34467977487E+02  0.50528857607E+02  0.29999993183E+02 0.  0.
         12    1    1    2    0    0 -0.21527996811E+02  0.12921847311E+01  0.34467977487E+02  0.40659142393E+02  0.00000000000E+00 0. -1.
         11    1    3    3    0    0  0.23533922098E+01 -0.27316784649E+01 -0.24879261379E+01  0.43806733337E+01  0.51100000000E-03 0. -1.
        -11    1    3    3    0    0  0.84939850811E+01  0.14001518628E+02 -0.12346235899E+02  0.20509018689E+02  0.51100000000E-03 0.  1.
        -12    1    3    3    0    0  0.10680619520E+02 -0.12562024894E+02 -0.19633815450E+02  0.25639165585E+02  0.00000000000E+00 0.  1.
</event>
<event>
 7    1  0.5849044E-013  0.5052876E+02  0.7816164E-02  0.1300439E+00
        -11   -1    0    0    0    0  0.00000000000E+00  0.00000000000E+00  0.45593999997E+02  0.45594000000E+02  0.51100000000E-03 0.  1.
         11   -1    0    0    0    0 -0.00000000000E+00 -0.00000000000E+00 -0.45593999997E+02  0.45594000000E+02  0.51100000000E-03 0. -1.
    9900012    2    1    2    0    0  0.19212960408E+02 -0.35670354661E+01  0.35655465663E+02  0.50528759706E+02  0.29999695601E+02 0.  0.
         12    1    1    2    0    0 -0.19212960408E+02  0.35670354661E+01 -0.35655465663E+02  0.40659240294E+02  0.00000000000E+00 0. -1.
         11    1    3    3    0    0  0.10560217323E+02 -0.32552660163E+01 -0.16781765467E+01  0.11177263687E+02  0.51100000000E-03 0. -1.
        -11    1    3    3    0    0  0.23332352998E+01  0.35723127797E+01  0.20755472492E+02  0.21189503161E+02  0.51100000000E-03 0.  1.
         12    1    3    3    0    0  0.63195077850E+01 -0.38840822295E+01  0.16578169717E+02  0.18161992858E+02  0.00000000000E+00 0. -1.
</event>
<event>
 7    1  0.5849044E-013  0.5052886E+02  0.7816164E-02  0.1300439E+00
        -11   -1    0    0    0    0  0.00000000000E+00  0.00000000000E+00  0.45593999997E+02  0.45594000000E+02  0.51100000000E-03 0.  1.
         11   -1    0    0    0    0 -0.00000000000E+00 -0.00000000000E+00 -0.45593999997E+02  0.45594000000E+02  0.51100000000E-03 0. -1.
    9900012    2    1    2    0    0 -0.32419829963E+02 -0.55991215319E+01  0.23890797193E+02  0.50528859241E+02  0.29999998149E+02 0.  0.
         12    1    1    2    0    0  0.32419829963E+02  0.55991215319E+01 -0.23890797193E+02  0.40659140759E+02  0.00000000000E+00 0. -1.
         11    1    3    3    0    0 -0.10891867878E+02 -0.95064507594E+01  0.64163643460E+01  0.15816925226E+02  0.51100000000E-03 0. -1.
        -11    1    3    3    0    0 -0.21945057340E+01  0.94900937086E+01  0.72331048348E+01  0.12132416900E+02  0.51100000000E-03 0.  1.
         12    1    3    3    0    0 -0.19333456350E+02 -0.55827644811E+01  0.10241328012E+02  0.22579517115E+02  0.00000000000E+00 0. -1.
</event>
<event>
 7    1  0.5849044E-013  0.5052874E+02  0.7816164E-02  0.1300439E+00
        -11   -1    0    0    0    0  0.00000000000E+00  0.00000000000E+00  0.45593999997E+02  0.45594000000E+02  0.51100000000E-03 0.  1.
         11   -1    0    0    0    0 -0.00000000000E+00 -0.00000000000E+00 -0.45593999997E+02  0.45594000000E+02  0.51100000000E-03 0. -1.
    9900012    2    1    2    0    0 -0.14493879030E+02  0.20153527278E+02  0.32201522815E+02  0.50528741981E+02  0.29999641723E+02 0.  0.
         12    1    1    2    0    0  0.14493879030E+02 -0.20153527278E+02 -0.32201522815E+02  0.40659258019E+02  0.00000000000E+00 0. -1.
         11    1    3    3    0    0  0.46479800643E+01 -0.25160673407E+00  0.11565080706E+02  0.12466680257E+02  0.51100000000E-03 0. -1.
        -11    1    3    3    0    0 -0.19479145125E+02  0.14566755900E+02  0.10788624183E+02  0.26608680619E+02  0.51100000000E-03 0.  1.
        -12    1    3    3    0    0  0.33728603117E+00  0.58383781115E+01  0.98478179252E+01  0.11453381105E+02  0.00000000000E+00 0.  1.
</event>
<event>
 7    1  0.5849044E-013  0.5052886E+02  0.7816164E-02  0.1300439E+00
        -11   -1    0    0    0    0  0.00000000000E+00  0.00000000000E+00  0.45593999997E+02  0.45594000000E+02  0.51100000000E-03 0.  1.
         11   -1    0    0    0    0 -0.00000000000E+00 -0.00000000000E+00 -0.45593999997E+02  0.45594000000E+02  0.51100000000E-03 0. -1.
    9900012    2    1    2    0    0 -0.33138272849E+02  0.70616677264E+01  0.22475612400E+02  0.50528862881E+02  0.30000009214E+02 0.  0.
         12    1    1    2    0    0  0.33138272849E+02 -0.70616677264E+01 -0.22475612400E+02  0.40659137119E+02  0.00000000000E+00 0. -1.
         11    1    3    3    0    0 -0.35430952805E+01 -0.33041208448E+01  0.17518736148E+02  0.18176271763E+02  0.51100000000E-03 0. -1.
        -11    1    3    3    0    0 -0.95663759429E+00  0.16199607721E+01  0.10502187909E+01  0.21546201892E+01  0.51100000000E-03 0.  1.
         12    1    3    3    0    0 -0.28638539974E+02  0.87458277991E+01  0.39066574619E+01  0.30197970929E+02  0.00000000000E+00 0. -1.
</event>
<event>
 7    1  0.5849044E-013  0.5052887E+02  0.7816164E-02  0.1300439E+00
        -11   -1    0    0    0    0  0.00000000000E+00  0.00000000000E+00  0.45593999997E+02  0.45594000000E+02  0.51100000000E-03 0.  1.
         11   -1    0    0    0    0 -0.00000000000E+00 -0.00000000000E+00 -0.45593999997E+02  0.45594000000E+02  0.51100000000E-03 0. -1.
    9900012    2    1    2    0    0  0.17475257091E+02 -0.10402958415E+02  0.35207366206E+02  0.50528870775E+02  0.30000033208E+02 0.  0.
         12    1    1    2    0    0 -0.17475257091E+02  0.10402958415E+02 -0.35207366206E+02  0.40659129225E+02  0.00000000000E+00 0. -1.
         11    1    3    3    0    0  0.17322189012E+02 -0.40844633066E+01  0.19670799296E+02  0.26526994136E+02  0.51100000000E-03 0.  1.
        -11    1    3    3    0    0 -0.64810170418E+01  0.50450940529E+00  0.12366935991E+02  0.13971371361E+02  0.51100000000E-03 0. -1.
         12    1    3    3    0    0  0.66340851206E+01 -0.68230045133E+01  0.31696309181E+01  0.10030505278E+02  0.00000000000E+00 0. -1.
</event>
<event>
 7    1  0.5849044E-013  0.5052889E+02  0.7816164E-02  0.1300439E+00
        -11   -1    0    0    0    0  0.00000000000E+00  0.00000000000E+00  0.45593999997E+02  0.45594000000E+02  0.51100000000E-03 0. -1.
         11   -1    0    0    0    0 -0.00000000000E+00 -0.00000000000E+00 -0.45593999997E+02  0.45594000000E+02  0.51100000000E-03 0.  1.
    9900012    2    1    2    0    0 -0.36696891201E+02  0.15809961835E+02  0.75197624351E+01  0.50528886088E+02  0.30000079753E+02 0.  0.
         12    1    1    2    0    0  0.36696891201E+02 -0.15809961835E+02 -0.75197624351E+01  0.40659113912E+02  0.00000000000E+00 0. -1.
         11    1    3    3    0    0  0.14188261889E+01 -0.12489539778E+00  0.52255237192E+01  0.54161577724E+01  0.51100000000E-03 0. -1.
        -11    1    3    3    0    0 -0.26065264268E+02  0.14751936031E+02 -0.58553214642E+01  0.30517247709E+02  0.51100000000E-03 0.  1.
        -12    1    3    3    0    0 -0.12050453121E+02  0.11829212021E+01  0.81495601801E+01  0.14595480606E+02  0.00000000000E+00 0.  1.
</event>
<event>
 7    1  0.5849044E-013  0.5052887E+02  0.7816164E-02  0.1300439E+00
        -11   -1    0    0    0    0  0.00000000000E+00  0.00000000000E+00  0.45593999997E+02  0.45594000000E+02  0.51100000000E-03 0.  1.
         11   -1    0    0    0    0 -0.00000000000E+00 -0.00000000000E+00 -0.45593999997E+02  0.45594000000E+02  0.51100000000E-03 0. -1.
    9900012    2    1    2    0    0  0.20412610151E+02  0.15768067759E+02  0.31430214664E+02  0.50528868087E+02  0.30000025037E+02 0.  0.
         12    1    1    2    0    0 -0.20412610151E+02 -0.15768067759E+02 -0.31430214664E+02  0.40659131913E+02  0.00000000000E+00 0. -1.
         11    1    3    3    0    0 -0.19836072426E+01  0.94519474730E+01  0.50558402943E+01  0.10901171041E+02  0.51100000000E-03 0. -1.
        -11    1    3    3    0    0  0.17902053323E+02  0.12081076421E+02  0.23083129626E+02  0.31611181475E+02  0.51100000000E-03 0.  1.
        -12    1    3    3    0    0  0.44941640716E+01 -0.57649561345E+01  0.32912447445E+01  0.80165155712E+01  0.00000000000E+00 0.  1.
</event>
<event>
 7    1  0.5849044E-013  0.5052886E+02  0.7816164E-02  0.1300439E+00
        -11   -1    0    0    0    0  0.00000000000E+00  0.00000000000E+00  0.45593999997E+02  0.45594000000E+02  0.51100000000E-03 0.  1.
         11   -1    0    0    0    0 -0.00000000000E+00 -0.00000000000E+00 -0.45593999997E+02  0.45594000000E+02  0.51100000000E-03 0. -1.
    9900012    2    1    2    0    0  0.34414050402E+02  0.32718360308E+01  0.21404054865E+02  0.50528863995E+02  0.30000012598E+02 0.  0.
         12    1    1    2    0    0 -0.34414050402E+02 -0.32718360308E+01 -0.21404054865E+02  0.40659136005E+02  0.00000000000E+00 0. -1.
         11    1    3    3    0    0  0.11121757410E+02  0.18633258857E+01 -0.58995593690E+01  0.12726754191E+02  0.51100000000E-03 0. -1.
        -11    1    3    3    0    0  0.17747868086E+02 -0.17748913824E+01  0.25572861856E+02  0.31178651747E+02  0.51100000000E-03 0.  1.
        -12    1    3    3    0    0  0.55444249064E+01  0.31834015275E+01  0.17307523777E+01  0.66234580561E+01  0.00000000000E+00 0.  1.
</event>
<event>
 7    1  0.5849044E-013  0.5052887E+02  0.7816164E-02  0.1300439E+00
        -11   -1    0    0    0    0  0.00000000000E+00  0.00000000000E+00  0.45593999997E+02  0.45594000000E+02  0.51100000000E-03 0.  1.
         11   -1    0    0    0    0 -0.00000000000E+00 -0.00000000000E+00 -0.45593999997E+02  0.45594000000E+02  0.51100000000E-03 0. -1.
    9900012    2    1    2    0    0 -0.33224819749E+02  0.41777009535E+01  0.23061296808E+02  0.50528865195E+02  0.30000016246E+02 0.  0.
         12    1    1    2    0    0  0.33224819749E+02 -0.41777009535E+01 -0.23061296808E+02  0.40659134805E+02  0.00000000000E+00 0. -1.
         11    1    3    3    0    0 -0.11166442983E+02 -0.40807359205E+01 -0.33788940772E+01  0.12359562290E+02  0.51100000000E-03 0. -1.
        -11    1    3    3    0    0 -0.12813891453E+02  0.12476039635E+00  0.21232994489E+02  0.24800230534E+02  0.51100000000E-03 0.  1.
        -12    1    3    3    0    0 -0.92444853129E+01  0.81336764776E+01  0.52071963968E+01  0.13369072371E+02  0.00000000000E+00 0.  1.
</event>
<event>
 7    1  0.5849044E-013  0.5052877E+02  0.7816164E-02  0.1300439E+00
        -11   -1    0    0    0    0  0.00000000000E+00  0.00000000000E+00  0.45593999997E+02  0.45594000000E+02  0.51100000000E-03 0. -1.
         11   -1    0    0    0    0 -0.00000000000E+00 -0.00000000000E+00 -0.45593999997E+02  0.45594000000E+02  0.51100000000E-03 0.  1.
    9900012    2    1    2    0    0 -0.16008172443E+02  0.42471266537E+01 -0.37133181493E+02  0.50528771803E+02  0.29999732371E+02 0.  0.
         12    1    1    2    0    0  0.16008172443E+02 -0.42471266537E+01  0.37133181493E+02  0.40659228197E+02  0.00000000000E+00 0. -1.
         11    1    3    3    0    0 -0.19644086727E+02 -0.13299239113E+01 -0.12458279610E+02  0.23299518709E+02  0.51100000000E-03 0. -1.
        -11    1    3    3    0    0 -0.30622568279E+01  0.29329783932E+01 -0.10664092210E+02  0.11476177153E+02  0.51100000000E-03 0.  1.
         12    1    3    3    0    0  0.66981711117E+01  0.26440721718E+01 -0.14010809673E+02  0.15753075940E+02  0.00000000000E+00 0. -1.
</event>
<event>
 7    1  0.5849044E-013  0.5052886E+02  0.7816164E-02  0.1300439E+00
        -11   -1    0    0    0    0  0.00000000000E+00  0.00000000000E+00  0.45593999997E+02  0.45594000000E+02  0.51100000000E-03 0.  1.
         11   -1    0    0    0    0 -0.00000000000E+00 -0.00000000000E+00 -0.45593999997E+02  0.45594000000E+02  0.51100000000E-03 0. -1.
    9900012    2    1    2    0    0 -0.13392739764E+02 -0.38024717351E+02 -0.52840411215E+01  0.50528859593E+02  0.29999999220E+02 0.  0.
         12    1    1    2    0    0  0.13392739764E+02  0.38024717351E+02  0.52840411215E+01  0.40659140407E+02  0.00000000000E+00 0. -1.
         11    1    3    3    0    0 -0.12957320880E+02 -0.34495051164E+01 -0.80036797136E+00  0.13432491917E+02  0.51100000000E-03 0. -1.
        -11    1    3    3    0    0  0.56238469511E+01 -0.18914912187E+02 -0.66214178657E-01  0.19733371282E+02  0.51100000000E-03 0.  1.
        -12    1    3    3    0    0 -0.60592658346E+01 -0.15660300048E+02 -0.44174589715E+01  0.17362996395E+02  0.00000000000E+00 0.  1.
</event>
<event>
 7    1  0.5849044E-013  0.5052885E+02  0.7816164E-02  0.1300439E+00
        -11   -1    0    0    0    0  0.00000000000E+00  0.00000000000E+00  0.45593999997E+02  0.45594000000E+02  0.51100000000E-03 0. -1.
         11   -1    0    0    0    0 -0.00000000000E+00 -0.00000000000E+00 -0.45593999997E+02  0.45594000000E+02  0.51100000000E-03 0.  1.
    9900012    2    1    2    0    0 -0.26390727440E+02  0.64972808765E+01 -0.30240388652E+02  0.50528852697E+02  0.29999978257E+02 0.  0.
         12    1    1    2    0    0  0.26390727440E+02 -0.64972808765E+01  0.30240388652E+02  0.40659147303E+02  0.00000000000E+00 0. -1.
         11    1    3    3    0    0  0.18389499261E+01  0.10769297871E+01 -0.25274247302E+01  0.33059628892E+01  0.51100000000E-03 0. -1.
        -11    1    3    3    0    0 -0.28031041769E+02  0.11866117000E+02 -0.27082763718E+02  0.40743344563E+02  0.51100000000E-03 0.  1.
        -12    1    3    3    0    0 -0.19863559678E+00 -0.64457659108E+01 -0.63020020415E+00  0.64795452444E+01  0.00000000000E+00 0.  1.
</event>
<event>
 7    1  0.5849044E-013  0.5052887E+02  0.7816164E-02  0.1300439E+00
        -11   -1    0    0    0    0  0.00000000000E+00  0.00000000000E+00  0.45593999997E+02  0.45594000000E+02  0.51100000000E-03 0.  1.
         11   -1    0    0    0    0 -0.00000000000E+00 -0.00000000000E+00 -0.45593999997E+02  0.45594000000E+02  0.51100000000E-03 0. -1.
    9900012    2    1    2    0    0  0.13089621662E+02 -0.14685980264E+02  0.35582984760E+02  0.50528867988E+02  0.30000024735E+02 0.  0.
         12    1    1    2    0    0 -0.13089621662E+02  0.14685980264E+02 -0.35582984760E+02  0.40659132012E+02  0.00000000000E+00 0. -1.
         11    1    3    3    0    0  0.13590332099E+01 -0.11076371897E+00 -0.18980690548E+01  0.23370721566E+01  0.51100000000E-03 0. -1.
        -11    1    3    3    0    0  0.80393966117E+01 -0.13568818555E+02  0.40406579783E+02  0.43375527949E+02  0.51100000000E-03 0.  1.
        -12    1    3    3    0    0  0.36911918407E+01 -0.10063979896E+01 -0.29255259682E+01  0.48162678818E+01  0.00000000000E+00 0.  1.
</event>
<event>
 7    1  0.5849044E-013  0.5052885E+02  0.7816164E-02  0.1300439E+00
        -11   -1    0    0    0    0  0.00000000000E+00  0.00000000000E+00  0.45593999997E+02  0.45594000000E+02  0.51100000000E-03 0.  1.
         11   -1    0    0    0    0 -0.00000000000E+00 -0.00000000000E+00 -0.45593999997E+02  0.45594000000E+02  0.51100000000E-03 0. -1.
    9900012    2    1    2    0    0 -0.35277773531E+02 -0.71784058181E+01  0.18897500082E+02  0.50528851893E+02  0.29999975814E+02 0.  0.
         12    1    1    2    0    0  0.35277773531E+02  0.71784058181E+01 -0.18897500082E+02  0.40659148107E+02  0.00000000000E+00 0. -1.
         11    1    3    3    0    0  0.27423457663E+01 -0.25661356081E+01 -0.22323497868E+01  0.43690843541E+01  0.51100000000E-03 0. -1.
        -11    1    3    3    0    0 -0.36790528288E+02 -0.20039994973E+01  0.15779443067E+02  0.40081789001E+02  0.51100000000E-03 0.  1.
        -12    1    3    3    0    0 -0.12295910095E+01 -0.26082707128E+01  0.53504068023E+01  0.60779785383E+01  0.00000000000E+00 0.  1.
</event>
<event>
 7    1  0.5849044E-013  0.5052886E+02  0.7816164E-02  0.1300439E+00
        -11   -1    0    0    0    0  0.00000000000E+00  0.00000000000E+00  0.45593999997E+02  0.45594000000E+02  0.51100000000E-03 0.  1.
         11   -1    0    0    0    0 -0.00000000000E+00 -0.00000000000E+00 -0.45593999997E+02  0.45594000000E+02  0.51100000000E-03 0. -1.
    9900012    2    1    2    0    0  0.19032008481E+02 -0.35550667597E+02  0.52056421640E+01  0.50528855594E+02  0.29999987065E+02 0.  0.
         12    1    1    2    0    0 -0.19032008481E+02  0.35550667597E+02 -0.52056421640E+01  0.40659144406E+02  0.00000000000E+00 0. -1.
         11    1    3    3    0    0  0.17008221753E+02 -0.19597875809E+02  0.26921363959E+01  0.26088387111E+02  0.51100000000E-03 0. -1.
        -11    1    3    3    0    0 -0.59570132706E+01 -0.14923972658E+02  0.31266371620E+01  0.16370303211E+02  0.51100000000E-03 0.  1.
        -12    1    3    3    0    0  0.79807999991E+01 -0.10288191309E+01 -0.61313139386E+00  0.80701652731E+01  0.00000000000E+00 0.  1.
</event>
<event>
 7    1  0.5849044E-013  0.5052887E+02  0.7816164E-02  0.1300439E+00
        -11   -1    0    0    0    0  0.00000000000E+00  0.00000000000E+00  0.45593999997E+02  0.45594000000E+02  0.51100000000E-03 0.  1.
         11   -1    0    0    0    0 -0.00000000000E+00 -0.00000000000E+00 -0.45593999997E+02  0.45594000000E+02  0.51100000000E-03 0. -1.
    9900012    2    1    2    0    0  0.26556910639E+02  0.14138552571E+02  0.27349532432E+02  0.50528867007E+02  0.30000021755E+02 0.  0.
         12    1    1    2    0    0 -0.26556910639E+02 -0.14138552571E+02 -0.27349532432E+02  0.40659132993E+02  0.00000000000E+00 0. -1.
         11    1    3    3    0    0  0.11004857458E+02  0.16290520705E+02  0.23005851297E+02  0.30261479585E+02  0.51100000000E-03 0. -1.
        -11    1    3    3    0    0  0.53151317422E+01 -0.42276953731E+01  0.67211415253E+01  0.95549870365E+01  0.51100000000E-03 0.  1.
         12    1    3    3    0    0  0.10236921438E+02  0.20757272392E+01 -0.23774603905E+01  0.10712400385E+02  0.00000000000E+00 0. -1.
</event>
<event>
 7    1  0.5849044E-013  0.5052885E+02  0.7816164E-02  0.1300439E+00
        -11   -1    0    0    0    0  0.00000000000E+00  0.00000000000E+00  0.45593999997E+02  0.45594000000E+02  0.51100000000E-03 0. -1.
         11   -1    0    0    0    0 -0.00000000000E+00 -0.00000000000E+00 -0.45593999997E+02  0.45594000000E+02  0.51100000000E-03 0.  1.
    9900012    2    1    2    0    0 -0.26795027500E+02 -0.21947031921E+02 -0.21296022588E+02  0.50528852358E+02  0.29999977229E+02 0.  0.
         12    1    1    2    0    0  0.26795027500E+02  0.21947031921E+02  0.21296022588E+02  0.40659147642E+02  0.00000000000E+00 0. -1.
         11    1    3    3    0    0 -0.16385296538E+02  0.19609777824E+01 -0.15514065676E+01  0.16574988359E+02  0.51100000000E-03 0. -1.
        -11    1    3    3    0    0 -0.11225706158E+02 -0.22388241346E+02 -0.15705970955E+02  0.29562262315E+02  0.51100000000E-03 0.  1.
        -12    1    3    3    0    0  0.81597519620E+00 -0.15197683573E+01 -0.40386450663E+01  0.43916016841E+01  0.00000000000E+00 0.  1.
</event>
<event>
 7    1  0.5849044E-013  0.5052887E+02  0.7816164E-02  0.1300439E+00
        -11   -1    0    0    0    0  0.00000000000E+00  0.00000000000E+00  0.45593999997E+02  0.45594000000E+02  0.51100000000E-03 0. -1.
         11   -1    0    0    0    0 -0.00000000000E+00 -0.00000000000E+00 -0.45593999997E+02  0.45594000000E+02  0.51100000000E-03 0.  1.
    9900012    2    1    2    0    0  0.12499333484E+02 -0.15331639778E+02 -0.35522840757E+02  0.50528871489E+02  0.30000035378E+02 0.  0.
         12    1    1    2    0    0 -0.12499333484E+02  0.15331639778E+02  0.35522840757E+02  0.40659128511E+02  0.00000000000E+00 0. -1.
         11    1    3    3    0    0  0.14291152675E+02  0.29721074865E+01 -0.17540029152E+02  0.22819357804E+02  0.51100000000E-03 0. -1.
        -11    1    3    3    0    0 -0.40153173336E+01 -0.22507986117E+01 -0.59597504304E+01  0.75304377783E+01  0.51100000000E-03 0.  1.
         12    1    3    3    0    0  0.22234981434E+01 -0.16052948653E+02 -0.12023061175E+02  0.20179075907E+02  0.00000000000E+00 0. -1.
</event>
<event>
 7    1  0.5849044E-013  0.5052886E+02  0.7816164E-02  0.1300439E+00
        -11   -1    0    0    0    0  0.00000000000E+00  0.00000000000E+00  0.45593999997E+02  0.45594000000E+02  0.51100000000E-03 0. -1.
         11   -1    0    0    0    0 -0.00000000000E+00 -0.00000000000E+00 -0.45593999997E+02  0.45594000000E+02  0.51100000000E-03 0.  1.
    9900012    2    1    2    0    0  0.39705123099E+02 -0.51671893954E+01  0.70688530813E+01  0.50528864120E+02  0.30000012980E+02 0.  0.
         12    1    1    2    0    0 -0.39705123099E+02  0.51671893954E+01 -0.70688530813E+01  0.40659135880E+02  0.00000000000E+00 0. -1.
         11    1    3    3    0    0  0.17328563741E+01 -0.14968176044E+01  0.67178236568E+01  0.70973522597E+01  0.51100000000E-03 0. -1.
        -11    1    3    3    0    0  0.39824608985E+02 -0.10282729645E+01 -0.11900455991E+01  0.39855652484E+02  0.51100000000E-03 0.  1.
        -12    1    3    3    0    0 -0.18523422597E+01 -0.26420988265E+01  0.15410750237E+01  0.35758593771E+01  0.00000000000E+00 0.  1.
</event>
<event>
 7    1  0.5849044E-013  0.5052885E+02  0.7816164E-02  0.1300439E+00
        -11   -1    0    0    0    0  0.00000000000E+00  0.00000000000E+00  0.45593999997E+02  0.45594000000E+02  0.51100000000E-03 0. -1.
         11   -1    0    0    0    0 -0.00000000000E+00 -0.00000000000E+00 -0.45593999997E+02  0.45594000000E+02  0.51100000000E-03 0.  1.
    9900012    2    1    2    0    0  0.39127924159E+02 -0.85085940792E+01 -0.70552215426E+01  0.50528846378E+02  0.29999959051E+02 0.  0.
         12    1    1    2    0    0 -0.39127924159E+02  0.85085940792E+01  0.70552215426E+01  0.40659153622E+02  0.00000000000E+00 0. -1.
         11    1    3    3    0    0  0.10042652015E+02 -0.24040855846E+00  0.10060169966E+02  0.14216879959E+02  0.51100000000E-03 0. -1.
        -11    1    3    3    0    0  0.25084125885E+02 -0.53956878401E+01 -0.97427045466E+01  0.27445347709E+02  0.51100000000E-03 0.  1.
         12    1    3    3    0    0  0.40011462595E+01 -0.28724976807E+01 -0.73726869621E+01  0.88666187104E+01  0.00000000000E+00 0. -1.
</event>
<event>
 7    1  0.5849044E-013  0.5052886E+02  0.7816164E-02  0.1300439E+00
        -11   -1    0    0    0    0  0.00000000000E+00  0.00000000000E+00  0.45593999997E+02  0.45594000000E+02  0.51100000000E-03 0.  1.
         11   -1    0    0    0    0 -0.00000000000E+00 -0.00000000000E+00 -0.45593999997E+02  0.45594000000E+02  0.51100000000E-03 0. -1.
    9900012    2    1    2    0    0  0.65692767170E+00  0.39716304251E+01  0.40459365179E+02  0.50528860402E+02  0.30000001677E+02 0.  0.
         12    1    1    2    0    0 -0.65692767170E+00 -0.39716304251E+01 -0.40459365179E+02  0.40659139598E+02  0.00000000000E+00 0. -1.
         11    1    3    3    0    0 -0.77770852574E+01  0.43519068749E+01  0.86795651805E+00  0.89540771343E+01  0.51100000000E-03 0. -1.
        -11    1    3    3    0    0  0.12638491965E+01  0.37736751387E+01  0.83003757630E+01  0.92051168875E+01  0.51100000000E-03 0.  1.
         12    1    3    3    0    0  0.71701637326E+01 -0.41539515884E+01  0.31291032898E+02  0.32369666380E+02  0.00000000000E+00 0. -1.
</event>
<event>
 7    1  0.5849044E-013  0.5052886E+02  0.7816164E-02  0.1300439E+00
        -11   -1    0    0    0    0  0.00000000000E+00  0.00000000000E+00  0.45593999997E+02  0.45594000000E+02  0.51100000000E-03 0.  1.
         11   -1    0    0    0    0 -0.00000000000E+00 -0.00000000000E+00 -0.45593999997E+02  0.45594000000E+02  0.51100000000E-03 0. -1.
    9900012    2    1    2    0    0  0.30034577202E+01  0.31633274592E+02  0.25366929329E+02  0.50528856831E+02  0.29999990822E+02 0.  0.
         12    1    1    2    0    0 -0.30034577202E+01 -0.31633274592E+02 -0.25366929329E+02  0.40659143169E+02  0.00000000000E+00 0. -1.
         11    1    3    3    0    0 -0.51906751377E+01  0.15658800045E+02  0.80160257783E+01  0.18341150367E+02  0.51100000000E-03 0. -1.
        -11    1    3    3    0    0  0.99580872212E+01  0.13489792832E+02  0.21358198328E+02  0.27153464748E+02  0.51100000000E-03 0.  1.
        -12    1    3    3    0    0 -0.17639543633E+01  0.24846817153E+01 -0.40072947775E+01  0.50342417160E+01  0.00000000000E+00 0.  1.
</event>
<event>
 7    1  0.5849044E-013  0.5052886E+02  0.7816164E-02  0.1300439E+00
        -11   -1    0    0    0    0  0.00000000000E+00  0.00000000000E+00  0.45593999997E+02  0.45594000000E+02  0.51100000000E-03 0.  1.
         11   -1    0    0    0    0 -0.00000000000E+00 -0.00000000000E+00 -0.45593999997E+02  0.45594000000E+02  0.51100000000E-03 0. -1.
    9900012    2    1    2    0    0  0.17894414188E+02 -0.15950444880E+02  0.32841112688E+02  0.50528862852E+02  0.30000009126E+02 0.  0.
         12    1    1    2    0    0 -0.17894414188E+02  0.15950444880E+02 -0.32841112688E+02  0.40659137148E+02  0.00000000000E+00 0. -1.
         11    1    3    3    0    0 -0.21140111631E+01 -0.10542728888E+01 -0.41919567189E+00  0.23992206639E+01  0.51100000000E-03 0. -1.
        -11    1    3    3    0    0  0.13634953871E+02  0.41104430210E+01  0.17904338986E+02  0.22877348266E+02  0.51100000000E-03 0.  1.
        -12    1    3    3    0    0  0.63734714807E+01 -0.19006615013E+02  0.15355969374E+02  0.25252293923E+02  0.00000000000E+00 0.  1.
</event>
<event>
 7    1  0.5849044E-013  0.5052886E+02  0.7816164E-02  0.1300439E+00
        -11   -1    0    0    0    0  0.00000000000E+00  0.00000000000E+00  0.45593999997E+02  0.45594000000E+02  0.51100000000E-03 0. -1.
         11   -1    0    0    0    0 -0.00000000000E+00 -0.00000000000E+00 -0.45593999997E+02  0.45594000000E+02  0.51100000000E-03 0.  1.
    9900012    2    1    2    0    0 -0.77938518194E+01  0.39811057908E+02  0.27388648132E+01  0.50528857874E+02  0.29999993993E+02 0.  0.
         12    1    1    2    0    0  0.77938518194E+01 -0.39811057908E+02 -0.27388648132E+01  0.40659142126E+02  0.00000000000E+00 0. -1.
         11    1    3    3    0    0 -0.83932138922E+01  0.15900136658E+02 -0.99421552978E+01  0.20545238802E+02  0.51100000000E-03 0. -1.
        -11    1    3    3    0    0 -0.17975666895E+01  0.18923550212E+02  0.35956703151E+01  0.19345822389E+02  0.51100000000E-03 0.  1.
         12    1    3    3    0    0  0.23969287623E+01  0.49873710384E+01  0.90853497959E+01  0.10637796683E+02  0.00000000000E+00 0. -1.
</event>
<event>
 7    1  0.5849044E-013  0.5052885E+02  0.7816164E-02  0.1300439E+00
        -11   -1    0    0    0    0  0.00000000000E+00  0.00000000000E+00  0.45593999997E+02  0.45594000000E+02  0.51100000000E-03 0.  1.
         11   -1    0    0    0    0 -0.00000000000E+00 -0.00000000000E+00 -0.45593999997E+02  0.45594000000E+02  0.51100000000E-03 0. -1.
    9900012    2    1    2    0    0  0.23634098032E+02  0.15095186435E+02  0.29440295880E+02  0.50528852631E+02  0.29999978056E+02 0.  0.
         12    1    1    2    0    0 -0.23634098032E+02 -0.15095186435E+02 -0.29440295880E+02  0.40659147369E+02  0.00000000000E+00 0. -1.
         11    1    3    3    0    0  0.88133509727E+01  0.14254772691E+01 -0.14924186988E+01  0.90517652779E+01  0.51100000000E-03 0. -1.
        -11    1    3    3    0    0  0.17632686042E+02  0.95919668421E+01  0.30489798262E+02  0.36504044204E+02  0.51100000000E-03 0.  1.
        -12    1    3    3    0    0 -0.28119389820E+01  0.40777423234E+01  0.44291631695E+00  0.49730431486E+01  0.00000000000E+00 0.  1.
</event>
<event>
 7    1  0.5849044E-013  0.5052885E+02  0.7816164E-02  0.1300439E+00
        -11   -1    0    0    0    0  0.00000000000E+00  0.00000000000E+00  0.45593999997E+02  0.45594000000E+02  0.51100000000E-03 0.  1.
         11   -1    0    0    0    0 -0.00000000000E+00 -0.00000000000E+00 -0.45593999997E+02  0.45594000000E+02  0.51100000000E-03 0. -1.
    9900012    2    1    2    0    0  0.38718484650E+01  0.15468001047E+02  0.37402085145E+02  0.50528852934E+02  0.29999978977E+02 0.  0.
         12    1    1    2    0    0 -0.38718484650E+01 -0.15468001047E+02 -0.37402085145E+02  0.40659147066E+02  0.00000000000E+00 0. -1.
         11    1    3    3    0    0  0.44011200042E+01  0.21680724075E+02  0.22341399746E+02  0.31441402586E+02  0.51100000000E-03 0. -1.
        -11    1    3    3    0    0 -0.55365579533E+00 -0.82122639362E+01  0.14972555573E+02  0.17085819686E+02  0.51100000000E-03 0.  1.
        -12    1    3    3    0    0  0.24384256146E-01  0.19995409086E+01  0.88129825854E-01  0.20016306611E+01  0.00000000000E+00 0.  1.
</event>
<event>
 7    1  0.5849044E-013  0.5052886E+02  0.7816164E-02  0.1300439E+00
        -11   -1    0    0    0    0  0.00000000000E+00  0.00000000000E+00  0.45593999997E+02  0.45594000000E+02  0.51100000000E-03 0.  1.
         11   -1    0    0    0    0 -0.00000000000E+00 -0.00000000000E+00 -0.45593999997E+02  0.45594000000E+02  0.51100000000E-03 0. -1.
    9900012    2    1    2    0    0  0.69469230392E+01  0.55748866099E+01  0.39671480104E+02  0.50528862846E+02  0.30000009107E+02 0.  0.
         12    1    1    2    0    0 -0.69469230392E+01 -0.55748866099E+01 -0.39671480104E+02  0.40659137154E+02  0.00000000000E+00 0. -1.
         11    1    3    3    0    0 -0.64336820203E+01  0.60051840699E+00  0.70823237910E+01  0.95870849186E+01  0.51100000000E-03 0. -1.
        -11    1    3    3    0    0  0.98807529361E+01  0.10632346435E+02  0.30805772175E+02  0.34053952324E+02  0.51100000000E-03 0.  1.
        -12    1    3    3    0    0  0.34998521234E+01 -0.56579782323E+01  0.17833841382E+01  0.68878256037E+01  0.00000000000E+00 0.  1.
</event>
<event>
 7    1  0.5849044E-013  0.5052878E+02  0.7816164E-02  0.1300439E+00
        -11   -1    0    0    0    0  0.00000000000E+00  0.00000000000E+00  0.45593999997E+02  0.45594000000E+02  0.51100000000E-03 0. -1.
         11   -1    0    0    0    0 -0.00000000000E+00 -0.00000000000E+00 -0.45593999997E+02  0.45594000000E+02  0.51100000000E-03 0.  1.
    9900012    2    1    2    0    0  0.65606960881E+01 -0.37772387363E+02 -0.13541656430E+02  0.50528776703E+02  0.29999747266E+02 0.  0.
         12    1    1    2    0    0 -0.65606960881E+01  0.37772387363E+02  0.13541656430E+02  0.40659223297E+02  0.00000000000E+00 0. -1.
         11    1    3    3    0    0 -0.61230351912E+01 -0.31613726114E+01 -0.49042674247E+01  0.84579947963E+01  0.51100000000E-03 0. -1.
        -11    1    3    3    0    0  0.29228857372E+01 -0.30216997164E+02 -0.50103999145E+01  0.30768722532E+02  0.51100000000E-03 0.  1.
        -12    1    3    3    0    0  0.97608455421E+01 -0.43940175868E+01 -0.36269890913E+01  0.11302059375E+02  0.00000000000E+00 0.  1.
</event>
<event>
 7    1  0.5849044E-013  0.5052893E+02  0.7816164E-02  0.1300439E+00
        -11   -1    0    0    0    0  0.00000000000E+00  0.00000000000E+00  0.45593999997E+02  0.45594000000E+02  0.51100000000E-03 0.  1.
         11   -1    0    0    0    0 -0.00000000000E+00 -0.00000000000E+00 -0.45593999997E+02  0.45594000000E+02  0.51100000000E-03 0. -1.
    9900012    2    1    2    0    0 -0.19976432613E+01  0.39151966052E+02  0.10783927048E+02  0.50528928357E+02  0.30000208232E+02 0.  0.
         12    1    1    2    0    0  0.19976432613E+01 -0.39151966052E+02 -0.10783927048E+02  0.40659071643E+02  0.00000000000E+00 0. -1.
         11    1    3    3    0    0  0.50777349839E+01  0.32442914721E+02  0.41421253929E+01  0.33098086217E+02  0.51100000000E-03 0. -1.
        -11    1    3    3    0    0 -0.99552862474E+01  0.60196587411E+01  0.80544833917E+01  0.14149866381E+02  0.51100000000E-03 0.  1.
        -12    1    3    3    0    0  0.28799080021E+01  0.68939258966E+00 -0.14126817363E+01  0.32809757591E+01  0.00000000000E+00 0.  1.
</event>
<event>
 7    1  0.5849044E-013  0.5052886E+02  0.7816164E-02  0.1300439E+00
        -11   -1    0    0    0    0  0.00000000000E+00  0.00000000000E+00  0.45593999997E+02  0.45594000000E+02  0.51100000000E-03 0. -1.
         11   -1    0    0    0    0 -0.00000000000E+00 -0.00000000000E+00 -0.45593999997E+02  0.45594000000E+02  0.51100000000E-03 0.  1.
    9900012    2    1    2    0    0  0.70781072822E+00 -0.23594603728E+02 -0.33105280486E+02  0.50528856906E+02  0.29999991052E+02 0.  0.
         12    1    1    2    0    0 -0.70781072822E+00  0.23594603728E+02  0.33105280486E+02  0.40659143094E+02  0.00000000000E+00 0. -1.
         11    1    3    3    0    0  0.90932673189E+00  0.31381085648E+01 -0.17778233125E+02  0.18075955681E+02  0.51100000000E-03 0. -1.
        -11    1    3    3    0    0  0.69951910692E+00 -0.17290137227E+02 -0.41529198552E+01  0.17795643172E+02  0.51100000000E-03 0.  1.
         12    1    3    3    0    0 -0.90103511059E+00 -0.94425750651E+01 -0.11174127506E+02  0.14657258053E+02  0.00000000000E+00 0. -1.
</event>
<event>
 7    1  0.5849044E-013  0.5052885E+02  0.7816164E-02  0.1300439E+00
        -11   -1    0    0    0    0  0.00000000000E+00  0.00000000000E+00  0.45593999997E+02  0.45594000000E+02  0.51100000000E-03 0. -1.
         11   -1    0    0    0    0 -0.00000000000E+00 -0.00000000000E+00 -0.45593999997E+02  0.45594000000E+02  0.51100000000E-03 0.  1.
    9900012    2    1    2    0    0 -0.28784225773E+02 -0.15688455684E+01 -0.28673571218E+02  0.50528848310E+02  0.29999964922E+02 0.  0.
         12    1    1    2    0    0  0.28784225773E+02  0.15688455684E+01  0.28673571218E+02  0.40659151690E+02  0.00000000000E+00 0. -1.
         11    1    3    3    0    0 -0.83286763109E+01 -0.85131068228E+01 -0.21803080748E+02  0.24843795347E+02  0.51100000000E-03 0. -1.
        -11    1    3    3    0    0 -0.21298847133E+02  0.70617411865E+01 -0.83793751663E+01  0.23952515655E+02  0.51100000000E-03 0.  1.
         12    1    3    3    0    0  0.84329767054E+00 -0.11747993211E+00  0.15088846962E+01  0.17325373075E+01  0.00000000000E+00 0. -1.
</event>
<event>
 7    1  0.5849044E-013  0.5052887E+02  0.7816164E-02  0.1300439E+00
        -11   -1    0    0    0    0  0.00000000000E+00  0.00000000000E+00  0.45593999997E+02  0.45594000000E+02  0.51100000000E-03 0.  1.
         11   -1    0    0    0    0 -0.00000000000E+00 -0.00000000000E+00 -0.45593999997E+02  0.45594000000E+02  0.51100000000E-03 0. -1.
    9900012    2    1    2    0    0 -0.41812759289E+01 -0.13134366217E+02  0.38251410158E+02  0.50528867897E+02  0.30000024459E+02 0.  0.
         12    1    1    2    0    0  0.41812759289E+01  0.13134366217E+02 -0.38251410158E+02  0.40659132103E+02  0.00000000000E+00 0. -1.
         11    1    3    3    0    0 -0.40533955585E+01  0.53357239835E+01 -0.56036620674E+00  0.67241338868E+01  0.51100000000E-03 0. -1.
        -11    1    3    3    0    0  0.30019110433E+01 -0.13428630230E+02  0.31596975421E+02  0.34463146052E+02  0.51100000000E-03 0.  1.
        -12    1    3    3    0    0 -0.31297914138E+01 -0.50414599707E+01  0.72148009434E+01  0.93415879583E+01  0.00000000000E+00 0.  1.
</event>
<event>
 7    1  0.5849044E-013  0.5052886E+02  0.7816164E-02  0.1300439E+00
        -11   -1    0    0    0    0  0.00000000000E+00  0.00000000000E+00  0.45593999997E+02  0.45594000000E+02  0.51100000000E-03 0.  1.
         11   -1    0    0    0    0 -0.00000000000E+00 -0.00000000000E+00 -0.45593999997E+02  0.45594000000E+02  0.51100000000E-03 0. -1.
    9900012    2    1    2    0    0 -0.14653011566E+02  0.25498139274E+00  0.37926111671E+02  0.50528859454E+02  0.29999998796E+02 0.  0.
         12    1    1    2    0    0  0.14653011566E+02 -0.25498139274E+00 -0.37926111671E+02  0.40659140546E+02  0.00000000000E+00 0. -1.
         11    1    3    3    0    0 -0.33043807796E+01  0.98586610204E+01  0.56901217770E+01  0.11852831541E+02  0.51100000000E-03 0. -1.
        -11    1    3    3    0    0 -0.67876332893E+01 -0.13352634666E+02  0.26523473201E+02  0.30460785431E+02  0.51100000000E-03 0.  1.
        -12    1    3    3    0    0 -0.45609974969E+01  0.37489550386E+01  0.57125166937E+01  0.82152424812E+01  0.00000000000E+00 0.  1.
</event>
<event>
 7    1  0.5849044E-013  0.5052890E+02  0.7816164E-02  0.1300439E+00
        -11   -1    0    0    0    0  0.00000000000E+00  0.00000000000E+00  0.45593999997E+02  0.45594000000E+02  0.51100000000E-03 0.  1.
         11   -1    0    0    0    0 -0.00000000000E+00 -0.00000000000E+00 -0.45593999997E+02  0.45594000000E+02  0.51100000000E-03 0. -1.
    9900012    2    1    2    0    0  0.28430197284E+02  0.16490544189E+02  0.23936340321E+02  0.50528898273E+02  0.30000116792E+02 0.  0.
         12    1    1    2    0    0 -0.28430197284E+02 -0.16490544189E+02 -0.23936340321E+02  0.40659101727E+02  0.00000000000E+00 0. -1.
         11    1    3    3    0    0 -0.80458095786E+00 -0.58596094075E+00  0.47504070339E+01  0.48535624021E+01  0.51100000000E-03 0. -1.
        -11    1    3    3    0    0  0.26790552983E+02  0.15684821458E+02  0.24576671639E+02  0.39594950971E+02  0.51100000000E-03 0.  1.
        -12    1    3    3    0    0  0.24442252588E+01  0.13916836718E+01 -0.53907383518E+01  0.60803849003E+01  0.00000000000E+00 0.  1.
</event>
<event>
 7    1  0.5849044E-013  0.5052887E+02  0.7816164E-02  0.1300439E+00
        -11   -1    0    0    0    0  0.00000000000E+00  0.00000000000E+00  0.45593999997E+02  0.45594000000E+02  0.51100000000E-03 0.  1.
         11   -1    0    0    0    0 -0.00000000000E+00 -0.00000000000E+00 -0.45593999997E+02  0.45594000000E+02  0.51100000000E-03 0. -1.
    9900012    2    1    2    0    0 -0.29789954526E+02 -0.56315985945E+01  0.27092599664E+02  0.50528865111E+02  0.30000015992E+02 0.  0.
         12    1    1    2    0    0  0.29789954526E+02  0.56315985945E+01 -0.27092599664E+02  0.40659134889E+02  0.00000000000E+00 0. -1.
         11    1    3    3    0    0 -0.10221799095E+02 -0.75860719562E+00 -0.22452123915E+01  0.10492932887E+02  0.51100000000E-03 0. -1.
        -11    1    3    3    0    0 -0.77510961623E+01  0.69027356636E+01  0.13538238476E+02  0.17059048996E+02  0.51100000000E-03 0.  1.
        -12    1    3    3    0    0 -0.11817059268E+02 -0.11775727062E+02  0.15799573579E+02  0.22976883228E+02  0.00000000000E+00 0.  1.
</event>
<event>
 7    1  0.5849044E-013  0.5052885E+02  0.7816164E-02  0.1300439E+00
        -11   -1    0    0    0    0  0.00000000000E+00  0.00000000000E+00  0.45593999997E+02  0.45594000000E+02  0.51100000000E-03 0.  1.
         11   -1    0    0    0    0 -0.00000000000E+00 -0.00000000000E+00 -0.45593999997E+02  0.45594000000E+02  0.51100000000E-03 0. -1.
    9900012    2    1    2    0    0 -0.29963127107E+01  0.23078135418E+02  0.33340485925E+02  0.50528853109E+02  0.29999979509E+02 0.  0.
         12    1    1    2    0    0  0.29963127107E+01 -0.23078135418E+02 -0.33340485925E+02  0.40659146891E+02  0.00000000000E+00 0. -1.
         11    1    3    3    0    0 -0.11747691517E+02  0.10330450142E+02  0.10382836685E+02  0.18775775723E+02  0.51100000000E-03 0. -1.
        -11    1    3    3    0    0  0.66023917897E+01  0.11772338990E+02  0.25142912310E+02  0.28536740920E+02  0.51100000000E-03 0.  1.
         12    1    3    3    0    0  0.21489870161E+01  0.97534628655E+00 -0.21852630704E+01  0.32163364657E+01  0.00000000000E+00 0. -1.
</event>
<event>
 7    1  0.5849044E-013  0.5052887E+02  0.7816164E-02  0.1300439E+00
        -11   -1    0    0    0    0  0.00000000000E+00  0.00000000000E+00  0.45593999997E+02  0.45594000000E+02  0.51100000000E-03 0.  1.
         11   -1    0    0    0    0 -0.00000000000E+00 -0.00000000000E+00 -0.45593999997E+02  0.45594000000E+02  0.51100000000E-03 0. -1.
    9900012    2    1    2    0    0  0.17817974481E+02 -0.35649426260E+02 -0.80500574615E+01  0.50528865326E+02  0.30000016645E+02 0.  0.
         12    1    1    2    0    0 -0.17817974481E+02  0.35649426260E+02  0.80500574615E+01  0.40659134674E+02  0.00000000000E+00 0. -1.
         11    1    3    3    0    0  0.29330737583E+00 -0.14874694032E+02 -0.89999343544E+01  0.17387966253E+02  0.51100000000E-03 0. -1.
        -11    1    3    3    0    0  0.20173821450E+02 -0.22298524718E+02  0.78373807346E+00  0.30080251364E+02  0.51100000000E-03 0.  1.
         12    1    3    3    0    0 -0.26491543444E+01  0.15237924896E+01  0.16613881943E+00  0.30606477091E+01  0.00000000000E+00 0. -1.
</event>
<event>
 7    1  0.5849044E-013  0.5052886E+02  0.7816164E-02  0.1300439E+00
        -11   -1    0    0    0    0  0.00000000000E+00  0.00000000000E+00  0.45593999997E+02  0.45594000000E+02  0.51100000000E-03 0. -1.
         11   -1    0    0    0    0 -0.00000000000E+00 -0.00000000000E+00 -0.45593999997E+02  0.45594000000E+02  0.51100000000E-03 0.  1.
    9900012    2    1    2    0    0 -0.12987623823E+02  0.20795857617E+02 -0.32434853178E+02  0.50528858749E+02  0.29999996653E+02 0.  0.
         12    1    1    2    0    0  0.12987623823E+02 -0.20795857617E+02  0.32434853178E+02  0.40659141251E+02  0.00000000000E+00 0. -1.
         11    1    3    3    0    0  0.33827269298E+01  0.98516453196E+01 -0.48320210217E+01  0.11482429377E+02  0.51100000000E-03 0. -1.
        -11    1    3    3    0    0 -0.78466693358E+01 -0.50424774938E+01 -0.11504050076E+02  0.14810130565E+02  0.51100000000E-03 0.  1.
        -12    1    3    3    0    0 -0.85236814173E+01  0.15986689792E+02 -0.16098782079E+02  0.24236298806E+02  0.00000000000E+00 0.  1.
</event>
<event>
 7    1  0.5849044E-013  0.5052886E+02  0.7816164E-02  0.1300439E+00
        -11   -1    0    0    0    0  0.00000000000E+00  0.00000000000E+00  0.45593999997E+02  0.45594000000E+02  0.51100000000E-03 0. -1.
         11   -1    0    0    0    0 -0.00000000000E+00 -0.00000000000E+00 -0.45593999997E+02  0.45594000000E+02  0.51100000000E-03 0.  1.
    9900012    2    1    2    0    0 -0.32794275855E+02  0.11099996074E+02 -0.21318793052E+02  0.50528863524E+02  0.30000011169E+02 0.  0.
         12    1    1    2    0    0  0.32794275855E+02 -0.11099996074E+02  0.21318793052E+02  0.40659136476E+02  0.00000000000E+00 0. -1.
         11    1    3    3    0    0 -0.90514664878E+01 -0.80710251982E+01 -0.10312603828E+02  0.15919179982E+02  0.51100000000E-03 0. -1.
        -11    1    3    3    0    0 -0.97639806882E+01  0.14949770264E+02 -0.85685827896E+01  0.19805341731E+02  0.51100000000E-03 0.  1.
         12    1    3    3    0    0 -0.13978828679E+02  0.42212510090E+01 -0.24376064351E+01  0.14804341811E+02  0.00000000000E+00 0. -1.
</event>
<event>
 7    1  0.5849044E-013  0.5052888E+02  0.7816164E-02  0.1300439E+00
        -11   -1    0    0    0    0  0.00000000000E+00  0.00000000000E+00  0.45593999997E+02  0.45594000000E+02  0.51100000000E-03 0.  1.
         11   -1    0    0    0    0 -0.00000000000E+00 -0.00000000000E+00 -0.45593999997E+02  0.45594000000E+02  0.51100000000E-03 0. -1.
    9900012    2    1    2    0    0  0.27194369295E+02  0.24306440866E+02  0.17967405315E+02  0.50528875038E+02  0.30000046164E+02 0.  0.
         12    1    1    2    0    0 -0.27194369295E+02 -0.24306440866E+02 -0.17967405315E+02  0.40659124962E+02  0.00000000000E+00 0. -1.
         11    1    3    3    0    0  0.11687719515E+02  0.18059485271E+02  0.21355631245E+02  0.30311891757E+02  0.51100000000E-03 0. -1.
        -11    1    3    3    0    0  0.70272720621E+01  0.85313341286E+01 -0.28730551672E+01  0.11420186553E+02  0.51100000000E-03 0.  1.
         12    1    3    3    0    0  0.84793777175E+01 -0.22843785332E+01 -0.51517076290E+00  0.87967967280E+01  0.00000000000E+00 0. -1.
</event>
<event>
 7    1  0.5849044E-013  0.5052886E+02  0.7816164E-02  0.1300439E+00
        -11   -1    0    0    0    0  0.00000000000E+00  0.00000000000E+00  0.45593999997E+02  0.45594000000E+02  0.51100000000E-03 0. -1.
         11   -1    0    0    0    0 -0.00000000000E+00 -0.00000000000E+00 -0.45593999997E+02  0.45594000000E+02  0.51100000000E-03 0.  1.
    9900012    2    1    2    0    0  0.57666698684E+01 -0.66661211822E+01 -0.39692236347E+02  0.50528864751E+02  0.30000014896E+02 0.  0.
         12    1    1    2    0    0 -0.57666698684E+01  0.66661211822E+01  0.39692236347E+02  0.40659135249E+02  0.00000000000E+00 0. -1.
         11    1    3    3    0    0 -0.10449886663E+00 -0.12475004444E+02 -0.25992380456E+02  0.28831241699E+02  0.51100000000E-03 0. -1.
        -11    1    3    3    0    0  0.28626310075E+01  0.10690363594E+02 -0.95726552215E+01  0.14632643586E+02  0.51100000000E-03 0.  1.
        -12    1    3    3    0    0  0.30085377276E+01 -0.48814803314E+01 -0.41272006701E+01  0.70649794661E+01  0.00000000000E+00 0.  1.
</event>
<event>
 7    1  0.5849044E-013  0.5052894E+02  0.7816164E-02  0.1300439E+00
        -11   -1    0    0    0    0  0.00000000000E+00  0.00000000000E+00  0.45593999997E+02  0.45594000000E+02  0.51100000000E-03 0.  1.
         11   -1    0    0    0    0 -0.00000000000E+00 -0.00000000000E+00 -0.45593999997E+02  0.45594000000E+02  0.51100000000E-03 0. -1.
    9900012    2    1    2    0    0 -0.18537638395E+00 -0.21900312060E+02  0.34256405588E+02  0.50528937584E+02  0.30000236280E+02 0.  0.
         12    1    1    2    0    0  0.18537638395E+00  0.21900312060E+02 -0.34256405588E+02  0.40659062416E+02  0.00000000000E+00 0. -1.
         11    1    3    3    0    0 -0.14840949085E+01  0.66957281346E+00  0.34630700257E+00  0.16645702902E+01  0.51100000000E-03 0. -1.
        -11    1    3    3    0    0 -0.55238869942E+01 -0.26388572379E+02  0.22977360245E+02  0.35423567915E+02  0.51100000000E-03 0.  1.
        -12    1    3    3    0    0  0.68226055187E+01  0.38186875055E+01  0.10932738340E+02  0.13440799379E+02  0.00000000000E+00 0.  1.
</event>
<event>
 7    1  0.5849044E-013  0.5052888E+02  0.7816164E-02  0.1300439E+00
        -11   -1    0    0    0    0  0.00000000000E+00  0.00000000000E+00  0.45593999997E+02  0.45594000000E+02  0.51100000000E-03 0.  1.
         11   -1    0    0    0    0 -0.00000000000E+00 -0.00000000000E+00 -0.45593999997E+02  0.45594000000E+02  0.51100000000E-03 0. -1.
    9900012    2    1    2    0    0  0.25319609431E+02  0.20160606532E+02  0.24609573441E+02  0.50528883157E+02  0.30000070844E+02 0.  0.
         12    1    1    2    0    0 -0.25319609431E+02 -0.20160606532E+02 -0.24609573441E+02  0.40659116843E+02  0.00000000000E+00 0. -1.
         11    1    3    3    0    0  0.28203038863E+01  0.51460655062E+01  0.38930081502E+01  0.70421315611E+01  0.51100000000E-03 0. -1.
        -11    1    3    3    0    0  0.20605280215E+01  0.95568215727E+01 -0.43379346794E+01  0.10695620218E+02  0.51100000000E-03 0.  1.
        -12    1    3    3    0    0  0.20438777523E+02  0.54577194532E+01  0.25054499970E+02  0.32791131378E+02  0.00000000000E+00 0.  1.
</event>
<event>
 7    1  0.5849044E-013  0.5052886E+02  0.7816164E-02  0.1300439E+00
        -11   -1    0    0    0    0  0.00000000000E+00  0.00000000000E+00  0.45593999997E+02  0.45594000000E+02  0.51100000000E-03 0. -1.
         11   -1    0    0    0    0 -0.00000000000E+00 -0.00000000000E+00 -0.45593999997E+02  0.45594000000E+02  0.51100000000E-03 0.  1.
    9900012    2    1    2    0    0  0.24576843851E+02  0.15371151213E+00 -0.32390128460E+02  0.50528864464E+02  0.30000014024E+02 0.  0.
         12    1    1    2    0    0 -0.24576843851E+02 -0.15371151213E+00  0.32390128460E+02  0.40659135536E+02  0.00000000000E+00 0. -1.
         11    1    3    3    0    0 -0.53220054390E+01  0.56512228825E+01 -0.69706543642E+01  0.10433124388E+02  0.51100000000E-03 0.  1.
        -11    1    3    3    0    0  0.16765289973E+02 -0.52333511995E+01 -0.17300581386E+02  0.24653053142E+02  0.51100000000E-03 0. -1.
         12    1    3    3    0    0  0.13133559317E+02 -0.26416017084E+00 -0.81188927101E+01  0.15442686934E+02  0.00000000000E+00 0. -1.
</event>
<event>
 7    1  0.5849044E-013  0.5052886E+02  0.7816164E-02  0.1300439E+00
        -11   -1    0    0    0    0  0.00000000000E+00  0.00000000000E+00  0.45593999997E+02  0.45594000000E+02  0.51100000000E-03 0.  1.
         11   -1    0    0    0    0 -0.00000000000E+00 -0.00000000000E+00 -0.45593999997E+02  0.45594000000E+02  0.51100000000E-03 0. -1.
    9900012    2    1    2    0    0 -0.30724857402E+02  0.24571393048E+02  0.10266219093E+02  0.50528862366E+02  0.30000007647E+02 0.  0.
         12    1    1    2    0    0  0.30724857402E+02 -0.24571393048E+02 -0.10266219093E+02  0.40659137634E+02  0.00000000000E+00 0. -1.
         11    1    3    3    0    0  0.61470222040E+00  0.14506534914E+02  0.73306425359E+01  0.16265169359E+02  0.51100000000E-03 0. -1.
        -11    1    3    3    0    0 -0.23718646589E+02  0.64025164648E+01  0.59663272047E+01  0.25281682572E+02  0.51100000000E-03 0.  1.
         12    1    3    3    0    0 -0.76209130338E+01  0.36623416687E+01 -0.30307506475E+01  0.89820104350E+01  0.00000000000E+00 0. -1.
</event>
<event>
 7    1  0.5849044E-013  0.5052885E+02  0.7816164E-02  0.1300439E+00
        -11   -1    0    0    0    0  0.00000000000E+00  0.00000000000E+00  0.45593999997E+02  0.45594000000E+02  0.51100000000E-03 0. -1.
         11   -1    0    0    0    0 -0.00000000000E+00 -0.00000000000E+00 -0.45593999997E+02  0.45594000000E+02  0.51100000000E-03 0.  1.
    9900012    2    1    2    0    0 -0.10077063189E+02 -0.22855348929E+02 -0.32081962993E+02  0.50528849411E+02  0.29999968270E+02 0.  0.
         12    1    1    2    0    0  0.10077063189E+02  0.22855348929E+02  0.32081962993E+02  0.40659150589E+02  0.00000000000E+00 0. -1.
         11    1    3    3    0    0 -0.98694337671E+01  0.21281540275E+01 -0.10776244137E+02  0.14766929282E+02  0.51100000000E-03 0. -1.
        -11    1    3    3    0    0 -0.36777789513E+01 -0.18414842940E+02 -0.21215415375E+02  0.28332425740E+02  0.51100000000E-03 0.  1.
        -12    1    3    3    0    0  0.34701495292E+01 -0.65686600157E+01 -0.90303480377E-01  0.74294943889E+01  0.00000000000E+00 0.  1.
</event>
<event>
 7    1  0.5849044E-013  0.5052887E+02  0.7816164E-02  0.1300439E+00
        -11   -1    0    0    0    0  0.00000000000E+00  0.00000000000E+00  0.45593999997E+02  0.45594000000E+02  0.51100000000E-03 0. -1.
         11   -1    0    0    0    0 -0.00000000000E+00 -0.00000000000E+00 -0.45593999997E+02  0.45594000000E+02  0.51100000000E-03 0.  1.
    9900012    2    1    2    0    0 -0.24748469304E+02  0.31923557592E+02  0.46437663202E+01  0.50528870301E+02  0.30000031768E+02 0.  0.
         12    1    1    2    0    0  0.24748469304E+02 -0.31923557592E+02 -0.46437663202E+01  0.40659129699E+02  0.00000000000E+00 0. -1.
         11    1    3    3    0    0 -0.13798646674E+01  0.68959726408E+00  0.78277773269E+01  0.79783249513E+01  0.51100000000E-03 0. -1.
        -11    1    3    3    0    0 -0.25676426687E+02  0.28727805032E+02 -0.10777143350E+01  0.38545131182E+02  0.51100000000E-03 0.  1.
        -12    1    3    3    0    0  0.23078220513E+01  0.25061552959E+01 -0.21062966718E+01  0.40054141680E+01  0.00000000000E+00 0.  1.
</event>
<event>
 7    1  0.5849044E-013  0.5052886E+02  0.7816164E-02  0.1300439E+00
        -11   -1    0    0    0    0  0.00000000000E+00  0.00000000000E+00  0.45593999997E+02  0.45594000000E+02  0.51100000000E-03 0. -1.
         11   -1    0    0    0    0 -0.00000000000E+00 -0.00000000000E+00 -0.45593999997E+02  0.45594000000E+02  0.51100000000E-03 0.  1.
    9900012    2    1    2    0    0  0.10772141625E+02 -0.91209646716E+01 -0.38130493876E+02  0.50528860868E+02  0.30000003093E+02 0.  0.
         12    1    1    2    0    0 -0.10772141625E+02  0.91209646716E+01  0.38130493876E+02  0.40659139132E+02  0.00000000000E+00 0. -1.
         11    1    3    3    0    0  0.79240351929E+01 -0.91794809601E-01 -0.25601598290E+02  0.26800011107E+02  0.51100000000E-03 0.  1.
        -11    1    3    3    0    0 -0.63560271606E+01 -0.72501872945E+01 -0.24171846836E+01  0.99401750048E+01  0.51100000000E-03 0. -1.
        -12    1    3    3    0    0  0.92041335923E+01 -0.17789825675E+01 -0.10111710902E+02  0.13788674756E+02  0.00000000000E+00 0.  1.
</event>
<event>
 7    1  0.5849044E-013  0.5052886E+02  0.7816164E-02  0.1300439E+00
        -11   -1    0    0    0    0  0.00000000000E+00  0.00000000000E+00  0.45593999997E+02  0.45594000000E+02  0.51100000000E-03 0.  1.
         11   -1    0    0    0    0 -0.00000000000E+00 -0.00000000000E+00 -0.45593999997E+02  0.45594000000E+02  0.51100000000E-03 0. -1.
    9900012    2    1    2    0    0 -0.12552720829E+02  0.10716275510E+01  0.38658069534E+02  0.50528861717E+02  0.30000005674E+02 0.  0.
         12    1    1    2    0    0  0.12552720829E+02 -0.10716275510E+01 -0.38658069534E+02  0.40659138283E+02  0.00000000000E+00 0. -1.
         11    1    3    3    0    0 -0.13534810389E+02  0.94178885336E+00  0.62713366441E+01  0.14946829834E+02  0.51100000000E-03 0. -1.
        -11    1    3    3    0    0 -0.35293526413E+01  0.22639618206E+01  0.29540728166E+02  0.29836830831E+02  0.51100000000E-03 0.  1.
        -12    1    3    3    0    0  0.45114422013E+01 -0.21341231231E+01  0.28460047239E+01  0.57452010520E+01  0.00000000000E+00 0.  1.
</event>
<event>
 7    1  0.5849044E-013  0.5052883E+02  0.7816164E-02  0.1300439E+00
        -11   -1    0    0    0    0  0.00000000000E+00  0.00000000000E+00  0.45593999997E+02  0.45594000000E+02  0.51100000000E-03 0.  1.
         11   -1    0    0    0    0 -0.00000000000E+00 -0.00000000000E+00 -0.45593999997E+02  0.45594000000E+02  0.51100000000E-03 0. -1.
    9900012    2    1    2    0    0 -0.24309194827E+02  0.28955779616E+02  0.14959744566E+02  0.50528830262E+02  0.29999910063E+02 0.  0.
         12    1    1    2    0    0  0.24309194827E+02 -0.28955779616E+02 -0.14959744566E+02  0.40659169738E+02  0.00000000000E+00 0. -1.
         11    1    3    3    0    0 -0.88046182762E+01 -0.32675099875E+01  0.26775637157E+00  0.93951912297E+01  0.51100000000E-03 0. -1.
        -11    1    3    3    0    0 -0.15590194254E+02  0.23132939463E+02  0.59539552179E+01  0.28524316434E+02  0.51100000000E-03 0.  1.
         12    1    3    3    0    0  0.85617702278E-01  0.90903501409E+01  0.87380329764E+01  0.12609322598E+02  0.00000000000E+00 0. -1.
</event>
<event>
 7    1  0.5849044E-013  0.5052886E+02  0.7816164E-02  0.1300439E+00
        -11   -1    0    0    0    0  0.00000000000E+00  0.00000000000E+00  0.45593999997E+02  0.45594000000E+02  0.51100000000E-03 0.  1.
         11   -1    0    0    0    0 -0.00000000000E+00 -0.00000000000E+00 -0.45593999997E+02  0.45594000000E+02  0.51100000000E-03 0. -1.
    9900012    2    1    2    0    0  0.24602441078E+02  0.22299062627E+02  0.23465656036E+02  0.50528864320E+02  0.30000013587E+02 0.  0.
         12    1    1    2    0    0 -0.24602441078E+02 -0.22299062627E+02 -0.23465656036E+02  0.40659135680E+02  0.00000000000E+00 0. -1.
         11    1    3    3    0    0  0.14517189873E+02  0.16725545876E+01  0.33455074034E+01  0.14991286159E+02  0.51100000000E-03 0. -1.
        -11    1    3    3    0    0  0.12184792613E+02  0.20583010113E+02  0.22162386835E+02  0.32608294448E+02  0.51100000000E-03 0.  1.
         12    1    3    3    0    0 -0.20995414083E+01  0.43497926702E-01 -0.20422382023E+01  0.29292837127E+01  0.00000000000E+00 0. -1.
</event>
<event>
 7    1  0.5849044E-013  0.5052886E+02  0.7816164E-02  0.1300439E+00
        -11   -1    0    0    0    0  0.00000000000E+00  0.00000000000E+00  0.45593999997E+02  0.45594000000E+02  0.51100000000E-03 0.  1.
         11   -1    0    0    0    0 -0.00000000000E+00 -0.00000000000E+00 -0.45593999997E+02  0.45594000000E+02  0.51100000000E-03 0. -1.
    9900012    2    1    2    0    0 -0.40011305929E+02  0.41205977169E+01 -0.59398607038E+01  0.50528857450E+02  0.29999992705E+02 0.  0.
         12    1    1    2    0    0  0.40011305929E+02 -0.41205977169E+01  0.59398607038E+01  0.40659142550E+02  0.00000000000E+00 0. -1.
         11    1    3    3    0    0  0.23253797768E+01  0.95374387410E+00 -0.16269602703E+01  0.29939970718E+01  0.51100000000E-03 0. -1.
        -11    1    3    3    0    0 -0.24174501385E+02  0.61133147254E+01  0.70454871743E+01  0.25911735255E+02  0.51100000000E-03 0.  1.
        -12    1    3    3    0    0 -0.18162184321E+02 -0.29464608827E+01 -0.11358387608E+02  0.21623125123E+02  0.00000000000E+00 0.  1.
</event>
<event>
 7    1  0.5849044E-013  0.5052887E+02  0.7816164E-02  0.1300439E+00
        -11   -1    0    0    0    0  0.00000000000E+00  0.00000000000E+00  0.45593999997E+02  0.45594000000E+02  0.51100000000E-03 0.  1.
         11   -1    0    0    0    0 -0.00000000000E+00 -0.00000000000E+00 -0.45593999997E+02  0.45594000000E+02  0.51100000000E-03 0. -1.
    9900012    2    1    2    0    0  0.24270959697E+02 -0.10162433931E+02  0.30996941162E+02  0.50528869298E+02  0.30000028719E+02 0.  0.
         12    1    1    2    0    0 -0.24270959697E+02  0.10162433931E+02 -0.30996941162E+02  0.40659130702E+02  0.00000000000E+00 0. -1.
         11    1    3    3    0    0  0.14401984629E+02  0.63516984449E+01  0.35717248452E+01  0.16140584036E+02  0.51100000000E-03 0. -1.
        -11    1    3    3    0    0  0.11143896601E+02 -0.13752528246E+02  0.23634965896E+02  0.29528462164E+02  0.51100000000E-03 0.  1.
         12    1    3    3    0    0 -0.12749215336E+01 -0.27616041300E+01  0.37902504213E+01  0.48598230980E+01  0.00000000000E+00 0. -1.
</event>
<event>
 7    1  0.5849044E-013  0.5052886E+02  0.7816164E-02  0.1300439E+00
        -11   -1    0    0    0    0  0.00000000000E+00  0.00000000000E+00  0.45593999997E+02  0.45594000000E+02  0.51100000000E-03 0.  1.
         11   -1    0    0    0    0 -0.00000000000E+00 -0.00000000000E+00 -0.45593999997E+02  0.45594000000E+02  0.51100000000E-03 0. -1.
    9900012    2    1    2    0    0 -0.26477842076E+02  0.54756644259E+01  0.30366213158E+02  0.50528856828E+02  0.29999990813E+02 0.  0.
         12    1    1    2    0    0  0.26477842076E+02 -0.54756644259E+01 -0.30366213158E+02  0.40659143172E+02  0.00000000000E+00 0. -1.
         11    1    3    3    0    0  0.20619947336E+01 -0.31098822453E+01  0.12304197564E+02  0.12857545171E+02  0.51100000000E-03 0. -1.
        -11    1    3    3    0    0 -0.27555153419E+02  0.11375253786E+02  0.17753633450E+02  0.34696892938E+02  0.51100000000E-03 0.  1.
        -12    1    3    3    0    0 -0.98468339083E+00 -0.27897071145E+01  0.30838214402E+00  0.29744187182E+01  0.00000000000E+00 0.  1.
</event>
<event>
 7    1  0.5849044E-013  0.5052886E+02  0.7816164E-02  0.1300439E+00
        -11   -1    0    0    0    0  0.00000000000E+00  0.00000000000E+00  0.45593999997E+02  0.45594000000E+02  0.51100000000E-03 0.  1.
         11   -1    0    0    0    0 -0.00000000000E+00 -0.00000000000E+00 -0.45593999997E+02  0.45594000000E+02  0.51100000000E-03 0. -1.
    9900012    2    1    2    0    0  0.17810538023E+02 -0.14138186270E+02  0.33705524354E+02  0.50528856531E+02  0.29999989912E+02 0.  0.
         12    1    1    2    0    0 -0.17810538023E+02  0.14138186270E+02 -0.33705524354E+02  0.40659143469E+02  0.00000000000E+00 0. -1.
         11    1    3    3    0    0  0.20282311994E+02 -0.85028678163E+01  0.13957690948E+02  0.26047803704E+02  0.51100000000E-03 0. -1.
        -11    1    3    3    0    0 -0.78799960926E+01 -0.36686208723E+01  0.12534866849E+02  0.15253721012E+02  0.51100000000E-03 0.  1.
        -12    1    3    3    0    0  0.54082221212E+01 -0.19666975816E+01  0.72129665569E+01  0.92273318158E+01  0.00000000000E+00 0.  1.
</event>
<event>
 7    1  0.5849044E-013  0.5052886E+02  0.7816164E-02  0.1300439E+00
        -11   -1    0    0    0    0  0.00000000000E+00  0.00000000000E+00  0.45593999997E+02  0.45594000000E+02  0.51100000000E-03 0.  1.
         11   -1    0    0    0    0 -0.00000000000E+00 -0.00000000000E+00 -0.45593999997E+02  0.45594000000E+02  0.51100000000E-03 0. -1.
    9900012    2    1    2    0    0  0.17336889928E+02 -0.59238595347E+01  0.36297460679E+02  0.50528861840E+02  0.30000006048E+02 0.  0.
         12    1    1    2    0    0 -0.17336889928E+02  0.59238595347E+01 -0.36297460679E+02  0.40659138160E+02  0.00000000000E+00 0. -1.
         11    1    3    3    0    0 -0.36705443361E+01 -0.17356763789E+01 -0.92025584786E-01  0.40612728528E+01  0.51100000000E-03 0. -1.
        -11    1    3    3    0    0  0.22217619395E+02 -0.46012085836E+01  0.38092641833E+02  0.44337829154E+02  0.51100000000E-03 0.  1.
         12    1    3    3    0    0 -0.12101851315E+01  0.41302542777E+00 -0.17031555685E+01  0.21297598332E+01  0.00000000000E+00 0. -1.
</event>
<event>
 7    1  0.5849044E-013  0.5052886E+02  0.7816164E-02  0.1300439E+00
        -11   -1    0    0    0    0  0.00000000000E+00  0.00000000000E+00  0.45593999997E+02  0.45594000000E+02  0.51100000000E-03 0.  1.
         11   -1    0    0    0    0 -0.00000000000E+00 -0.00000000000E+00 -0.45593999997E+02  0.45594000000E+02  0.51100000000E-03 0. -1.
    9900012    2    1    2    0    0 -0.15591708339E+02 -0.33102388758E+02  0.17728401675E+02  0.50528859129E+02  0.29999997808E+02 0.  0.
         12    1    1    2    0    0  0.15591708339E+02  0.33102388758E+02 -0.17728401675E+02  0.40659140871E+02  0.00000000000E+00 0. -1.
         11    1    3    3    0    0  0.71881483814E+01 -0.16281709818E+02  0.66942651540E+01  0.19015171258E+02  0.51100000000E-03 0. -1.
        -11    1    3    3    0    0 -0.80617266118E+01 -0.11099553042E+02  0.55297110781E+01  0.14790849149E+02  0.51100000000E-03 0.  1.
         12    1    3    3    0    0 -0.14718130109E+02 -0.57211258983E+01  0.55044254427E+01  0.16722838721E+02  0.00000000000E+00 0. -1.
</event>
<event>
 7    1  0.5849044E-013  0.5052881E+02  0.7816164E-02  0.1300439E+00
        -11   -1    0    0    0    0  0.00000000000E+00  0.00000000000E+00  0.45593999997E+02  0.45594000000E+02  0.51100000000E-03 0. -1.
         11   -1    0    0    0    0 -0.00000000000E+00 -0.00000000000E+00 -0.45593999997E+02  0.45594000000E+02  0.51100000000E-03 0.  1.
    9900012    2    1    2    0    0  0.87915560541E+01  0.37918388872E+02 -0.11750508737E+02  0.50528805123E+02  0.29999833650E+02 0.  0.
         12    1    1    2    0    0 -0.87915560541E+01 -0.37918388872E+02  0.11750508737E+02  0.40659194877E+02  0.00000000000E+00 0. -1.
         11    1    3    3    0    0  0.63021817514E+01  0.16268834261E+02 -0.15644621535E+02  0.23433878173E+02  0.51100000000E-03 0. -1.
        -11    1    3    3    0    0 -0.46854867110E+01  0.12666400945E+02  0.69644558100E+01  0.15195234240E+02  0.51100000000E-03 0.  1.
        -12    1    3    3    0    0  0.71748610136E+01  0.89831536663E+01 -0.30703430122E+01  0.11899692709E+02  0.00000000000E+00 0.  1.
</event>
<event>
 7    1  0.5849044E-013  0.5052885E+02  0.7816164E-02  0.1300439E+00
        -11   -1    0    0    0    0  0.00000000000E+00  0.00000000000E+00  0.45593999997E+02  0.45594000000E+02  0.51100000000E-03 0. -1.
         11   -1    0    0    0    0 -0.00000000000E+00 -0.00000000000E+00 -0.45593999997E+02  0.45594000000E+02  0.51100000000E-03 0.  1.
    9900012    2    1    2    0    0  0.21382751142E+02 -0.34410018386E+02 -0.34488980653E+01  0.50528852080E+02  0.29999976382E+02 0.  0.
         12    1    1    2    0    0 -0.21382751142E+02  0.34410018386E+02  0.34488980653E+01  0.40659147920E+02  0.00000000000E+00 0. -1.
         11    1    3    3    0    0 -0.36178518558E+00 -0.14778893755E+02 -0.58640908344E+01  0.15903903631E+02  0.51100000000E-03 0. -1.
        -11    1    3    3    0    0  0.22282181022E+02 -0.20177375482E+02  0.62593955969E+01  0.30705082738E+02  0.51100000000E-03 0.  1.
        -12    1    3    3    0    0 -0.53764469428E+00  0.54625085116E+00 -0.38442028278E+01  0.39198657108E+01  0.00000000000E+00 0.  1.
</event>
<event>
 7    1  0.5849044E-013  0.5052885E+02  0.7816164E-02  0.1300439E+00
        -11   -1    0    0    0    0  0.00000000000E+00  0.00000000000E+00  0.45593999997E+02  0.45594000000E+02  0.51100000000E-03 0.  1.
         11   -1    0    0    0    0 -0.00000000000E+00 -0.00000000000E+00 -0.45593999997E+02  0.45594000000E+02  0.51100000000E-03 0. -1.
    9900012    2    1    2    0    0  0.49654939802E+01 -0.38142210240E+02  0.13178851094E+02  0.50528850370E+02  0.29999971184E+02 0.  0.
         12    1    1    2    0    0 -0.49654939802E+01  0.38142210240E+02 -0.13178851094E+02  0.40659149630E+02  0.00000000000E+00 0. -1.
         11    1    3    3    0    0  0.14616205127E+02 -0.10803807351E+02  0.43709939835E+01  0.18693883873E+02  0.51100000000E-03 0. -1.
        -11    1    3    3    0    0 -0.65053284254E+01 -0.25421896190E+02  0.53457644273E+01  0.26780016829E+02  0.51100000000E-03 0.  1.
        -12    1    3    3    0    0 -0.31453827212E+01 -0.19165066992E+01  0.34620926836E+01  0.50549496674E+01  0.00000000000E+00 0.  1.
</event>
<event>
 7    1  0.5849044E-013  0.5052890E+02  0.7816164E-02  0.1300439E+00
        -11   -1    0    0    0    0  0.00000000000E+00  0.00000000000E+00  0.45593999997E+02  0.45594000000E+02  0.51100000000E-03 0.  1.
         11   -1    0    0    0    0 -0.00000000000E+00 -0.00000000000E+00 -0.45593999997E+02  0.45594000000E+02  0.51100000000E-03 0. -1.
    9900012    2    1    2    0    0 -0.94461538143E+01 -0.49476251862E+00  0.39543496698E+02  0.50528895940E+02  0.30000109699E+02 0.  0.
         12    1    1    2    0    0  0.94461538143E+01  0.49476251862E+00 -0.39543496698E+02  0.40659104060E+02  0.00000000000E+00 0. -1.
         11    1    3    3    0    0 -0.12771635448E+02  0.83706900378E+01  0.10769961763E+02  0.18686230234E+02  0.51100000000E-03 0. -1.
        -11    1    3    3    0    0  0.20520375554E+01 -0.41949799055E+00  0.17868084591E+02  0.17990422005E+02  0.51100000000E-03 0.  1.
        -12    1    3    3    0    0  0.12734440783E+01 -0.84459545659E+01  0.10905450344E+02  0.13852243701E+02  0.00000000000E+00 0.  1.
</event>
<event>
 7    1  0.5849044E-013  0.5052886E+02  0.7816164E-02  0.1300439E+00
        -11   -1    0    0    0    0  0.00000000000E+00  0.00000000000E+00  0.45593999997E+02  0.45594000000E+02  0.51100000000E-03 0.  1.
         11   -1    0    0    0    0 -0.00000000000E+00 -0.00000000000E+00 -0.45593999997E+02  0.45594000000E+02  0.51100000000E-03 0. -1.
    9900012    2    1    2    0    0 -0.34491831505E+02 -0.70230940298E+01  0.20350798049E+02  0.50528864845E+02  0.30000015184E+02 0.  0.
         12    1    1    2    0    0  0.34491831505E+02  0.70230940298E+01 -0.20350798049E+02  0.40659135155E+02  0.00000000000E+00 0. -1.
         11    1    3    3    0    0 -0.21616847744E+02 -0.34855010811E+01  0.77404591389E+01  0.23223943078E+02  0.51100000000E-03 0. -1.
        -11    1    3    3    0    0 -0.11819199753E+02 -0.75243854984E+01  0.16492804706E+02  0.21640759396E+02  0.51100000000E-03 0.  1.
        -12    1    3    3    0    0 -0.10557840088E+01  0.39867925498E+01 -0.38824657959E+01  0.56641623709E+01  0.00000000000E+00 0.  1.
</event>
<event>
 7    1  0.5849044E-013  0.5052887E+02  0.7816164E-02  0.1300439E+00
        -11   -1    0    0    0    0  0.00000000000E+00  0.00000000000E+00  0.45593999997E+02  0.45594000000E+02  0.51100000000E-03 0. -1.
         11   -1    0    0    0    0 -0.00000000000E+00 -0.00000000000E+00 -0.45593999997E+02  0.45594000000E+02  0.51100000000E-03 0.  1.
    9900012    2    1    2    0    0 -0.35923646112E+02 -0.18443816411E+02 -0.47415754946E+01  0.50528865086E+02  0.30000015916E+02 0.  0.
         12    1    1    2    0    0  0.35923646112E+02  0.18443816411E+02  0.47415754946E+01  0.40659134914E+02  0.00000000000E+00 0. -1.
         11    1    3    3    0    0 -0.33324809995E+02 -0.17274617040E+02  0.46791008127E+01  0.37826569230E+02  0.51100000000E-03 0. -1.
        -11    1    3    3    0    0 -0.54353503082E+01 -0.17996185519E+00 -0.68660238557E+01  0.87588642580E+01  0.51100000000E-03 0.  1.
         12    1    3    3    0    0  0.28365141911E+01 -0.98923751579E+00 -0.25546524516E+01  0.39434315980E+01  0.00000000000E+00 0. -1.
</event>
<event>
 7    1  0.5849044E-013  0.5052890E+02  0.7816164E-02  0.1300439E+00
        -11   -1    0    0    0    0  0.00000000000E+00  0.00000000000E+00  0.45593999997E+02  0.45594000000E+02  0.51100000000E-03 0.  1.
         11   -1    0    0    0    0 -0.00000000000E+00 -0.00000000000E+00 -0.45593999997E+02  0.45594000000E+02  0.51100000000E-03 0. -1.
    9900012    2    1    2    0    0  0.10185836947E+02  0.36227941729E+02  0.15393106803E+02  0.50528895567E+02  0.30000108564E+02 0.  0.
         12    1    1    2    0    0 -0.10185836947E+02 -0.36227941729E+02 -0.15393106803E+02  0.40659104433E+02  0.00000000000E+00 0. -1.
         11    1    3    3    0    0  0.57026396953E+01 -0.24665245365E+01 -0.22101607555E-01  0.62132384089E+01  0.51100000000E-03 0. -1.
        -11    1    3    3    0    0  0.43345746142E+01  0.37658802192E+02  0.10562582789E+02  0.39351519349E+02  0.51100000000E-03 0.  1.
        -12    1    3    3    0    0  0.14862263765E+00  0.10356640740E+01  0.48526256216E+01  0.49641378089E+01  0.00000000000E+00 0.  1.
</event>
<event>
 7    1  0.5849044E-013  0.5052886E+02  0.7816164E-02  0.1300439E+00
        -11   -1    0    0    0    0  0.00000000000E+00  0.00000000000E+00  0.45593999997E+02  0.45594000000E+02  0.51100000000E-03 0. -1.
         11   -1    0    0    0    0 -0.00000000000E+00 -0.00000000000E+00 -0.45593999997E+02  0.45594000000E+02  0.51100000000E-03 0.  1.
    9900012    2    1    2    0    0  0.34081241180E+02 -0.21832533135E+02 -0.38697335641E+01  0.50528863987E+02  0.30000012575E+02 0.  0.
         12    1    1    2    0    0 -0.34081241180E+02  0.21832533135E+02  0.38697335641E+01  0.40659136013E+02  0.00000000000E+00 0. -1.
         11    1    3    3    0    0  0.27112663865E+02 -0.70324074751E+01  0.71345065776E+01  0.28904194871E+02  0.51100000000E-03 0. -1.
        -11    1    3    3    0    0  0.45330893428E+01 -0.85901498123E+01 -0.11358145763E+02  0.14944800040E+02  0.51100000000E-03 0.  1.
         12    1    3    3    0    0  0.24354879719E+01 -0.62099758476E+01  0.35390562165E+00  0.66798690765E+01  0.00000000000E+00 0. -1.
</event>
<event>
 7    1  0.5849044E-013  0.5052885E+02  0.7816164E-02  0.1300439E+00
        -11   -1    0    0    0    0  0.00000000000E+00  0.00000000000E+00  0.45593999997E+02  0.45594000000E+02  0.51100000000E-03 0.  1.
         11   -1    0    0    0    0 -0.00000000000E+00 -0.00000000000E+00 -0.45593999997E+02  0.45594000000E+02  0.51100000000E-03 0. -1.
    9900012    2    1    2    0    0 -0.13631621193E+01  0.39373684692E+02  0.10050914120E+02  0.50528854265E+02  0.29999983025E+02 0.  0.
         12    1    1    2    0    0  0.13631621193E+01 -0.39373684692E+02 -0.10050914120E+02  0.40659145735E+02  0.00000000000E+00 0. -1.
         11    1    3    3    0    0 -0.92911301929E+01  0.11857561166E+01  0.39128063551E+01  0.10150919745E+02  0.51100000000E-03 0. -1.
        -11    1    3    3    0    0  0.77257713024E+01  0.35737000713E+02  0.34350597447E+01  0.36723567336E+02  0.51100000000E-03 0.  1.
         12    1    3    3    0    0  0.20219677131E+00  0.24509278627E+01  0.27030480197E+01  0.36543671845E+01  0.00000000000E+00 0. -1.
</event>
<event>
 7    1  0.5849044E-013  0.5052886E+02  0.7816164E-02  0.1300439E+00
        -11   -1    0    0    0    0  0.00000000000E+00  0.00000000000E+00  0.45593999997E+02  0.45594000000E+02  0.51100000000E-03 0.  1.
         11   -1    0    0    0    0 -0.00000000000E+00 -0.00000000000E+00 -0.45593999997E+02  0.45594000000E+02  0.51100000000E-03 0. -1.
    9900012    2    1    2    0    0  0.22099949063E+02  0.38635970691E+01  0.33909149656E+02  0.50528861282E+02  0.30000004354E+02 0.  0.
         12    1    1    2    0    0 -0.22099949063E+02 -0.38635970691E+01 -0.33909149656E+02  0.40659138718E+02  0.00000000000E+00 0. -1.
         11    1    3    3    0    0  0.64543030010E+01  0.97567318784E+01  0.22572729997E+02  0.25424004090E+02  0.51100000000E-03 0. -1.
        -11    1    3    3    0    0  0.13471195257E+02  0.25214727120E+01  0.71492774781E+01  0.15457784285E+02  0.51100000000E-03 0.  1.
         12    1    3    3    0    0  0.21744508049E+01 -0.84146075212E+01  0.41871421805E+01  0.96470729073E+01  0.00000000000E+00 0. -1.
</event>
<event>
 7    1  0.5849044E-013  0.5052886E+02  0.7816164E-02  0.1300439E+00
        -11   -1    0    0    0    0  0.00000000000E+00  0.00000000000E+00  0.45593999997E+02  0.45594000000E+02  0.51100000000E-03 0. -1.
         11   -1    0    0    0    0 -0.00000000000E+00 -0.00000000000E+00 -0.45593999997E+02  0.45594000000E+02  0.51100000000E-03 0.  1.
    9900012    2    1    2    0    0  0.23544385207E+02 -0.29993281662E+02 -0.14114916109E+02  0.50528857407E+02  0.29999992573E+02 0.  0.
         12    1    1    2    0    0 -0.23544385207E+02  0.29993281662E+02  0.14114916109E+02  0.40659142593E+02  0.00000000000E+00 0. -1.
         11    1    3    3    0    0  0.15585788006E+02 -0.31965116124E+02 -0.13236386755E+02  0.37945847878E+02  0.51100000000E-03 0.  1.
        -11    1    3    3    0    0  0.85883528934E+01  0.27906087816E+01  0.22348168222E+01  0.93027796536E+01  0.51100000000E-03 0. -1.
        -12    1    3    3    0    0 -0.62975569185E+00 -0.81877432001E+00 -0.31133461766E+01  0.32802298752E+01  0.00000000000E+00 0.  1.
</event>
<event>
 7    1  0.5849044E-013  0.5052887E+02  0.7816164E-02  0.1300439E+00
        -11   -1    0    0    0    0  0.00000000000E+00  0.00000000000E+00  0.45593999997E+02  0.45594000000E+02  0.51100000000E-03 0.  1.
         11   -1    0    0    0    0 -0.00000000000E+00 -0.00000000000E+00 -0.45593999997E+02  0.45594000000E+02  0.51100000000E-03 0. -1.
    9900012    2    1    2    0    0  0.53572448093E+01 -0.32274926868E+02  0.24141120434E+02  0.50528872217E+02  0.30000037591E+02 0.  0.
         12    1    1    2    0    0 -0.53572448093E+01  0.32274926868E+02 -0.24141120434E+02  0.40659127783E+02  0.00000000000E+00 0. -1.
         11    1    3    3    0    0  0.14805213535E+02 -0.12824624871E+02  0.55974532698E+01  0.20371471087E+02  0.51100000000E-03 0. -1.
        -11    1    3    3    0    0 -0.12542154921E+01 -0.13660035395E+02  0.99374606365E+01  0.16938794162E+02  0.51100000000E-03 0.  1.
         12    1    3    3    0    0 -0.81937532338E+01 -0.57902666021E+01  0.86062065274E+01  0.13218606968E+02  0.00000000000E+00 0. -1.
</event>
<event>
 7    1  0.5849044E-013  0.5052887E+02  0.7816164E-02  0.1300439E+00
        -11   -1    0    0    0    0  0.00000000000E+00  0.00000000000E+00  0.45593999997E+02  0.45594000000E+02  0.51100000000E-03 0.  1.
         11   -1    0    0    0    0 -0.00000000000E+00 -0.00000000000E+00 -0.45593999997E+02  0.45594000000E+02  0.51100000000E-03 0. -1.
    9900012    2    1    2    0    0  0.12945664649E+02  0.90735682633E+01  0.37459911974E+02  0.50528869668E+02  0.30000029843E+02 0.  0.
         12    1    1    2    0    0 -0.12945664649E+02 -0.90735682633E+01 -0.37459911974E+02  0.40659130332E+02  0.00000000000E+00 0. -1.
         11    1    3    3    0    0  0.40497703977E+01 -0.48403901747E+01  0.52596596913E+01  0.82154754973E+01  0.51100000000E-03 0. -1.
        -11    1    3    3    0    0 -0.17176055814E+01  0.11081926085E+02  0.28654033220E+02  0.30770324580E+02  0.51100000000E-03 0.  1.
        -12    1    3    3    0    0  0.10613499833E+02  0.28320323528E+01  0.35462190626E+01  0.11543069591E+02  0.00000000000E+00 0.  1.
</event>
<event>
 7    1  0.5849044E-013  0.5052888E+02  0.7816164E-02  0.1300439E+00
        -11   -1    0    0    0    0  0.00000000000E+00  0.00000000000E+00  0.45593999997E+02  0.45594000000E+02  0.51100000000E-03 0.  1.
         11   -1    0    0    0    0 -0.00000000000E+00 -0.00000000000E+00 -0.45593999997E+02  0.45594000000E+02  0.51100000000E-03 0. -1.
    9900012    2    1    2    0    0 -0.35749698006E+02 -0.69372279401E+01  0.18083082092E+02  0.50528881748E+02  0.30000066563E+02 0.  0.
         12    1    1    2    0    0  0.35749698006E+02  0.69372279401E+01 -0.18083082092E+02  0.40659118252E+02  0.00000000000E+00 0. -1.
         11    1    3    3    0    0 -0.52788135742E+01 -0.46585260344E+01  0.91123270182E+01  0.11515304664E+02  0.51100000000E-03 0.  1.
        -11    1    3    3    0    0 -0.20156579296E+02 -0.76225757679E+01 -0.36543338412E+01  0.21857390200E+02  0.51100000000E-03 0. -1.
        -12    1    3    3    0    0 -0.10314305136E+02  0.53438738623E+01  0.12625088915E+02  0.17156186884E+02  0.00000000000E+00 0.  1.
</event>
<event>
 7    1  0.5849044E-013  0.5052886E+02  0.7816164E-02  0.1300439E+00
        -11   -1    0    0    0    0  0.00000000000E+00  0.00000000000E+00  0.45593999997E+02  0.45594000000E+02  0.51100000000E-03 0. -1.
         11   -1    0    0    0    0 -0.00000000000E+00 -0.00000000000E+00 -0.45593999997E+02  0.45594000000E+02  0.51100000000E-03 0.  1.
    9900012    2    1    2    0    0 -0.20045594344E+02  0.30656608064E+02 -0.17649703670E+02  0.50528861910E+02  0.30000006262E+02 0.  0.
         12    1    1    2    0    0  0.20045594344E+02 -0.30656608064E+02  0.17649703670E+02  0.40659138090E+02  0.00000000000E+00 0. -1.
         11    1    3    3    0    0 -0.16784439746E+02  0.21294032324E+02 -0.24463547588E+00  0.27114812871E+02  0.51100000000E-03 0. -1.
        -11    1    3    3    0    0 -0.92550245650E+00 -0.12838555341E+01 -0.10259778526E+02  0.10381131706E+02  0.51100000000E-03 0.  1.
        -12    1    3    3    0    0 -0.23356521413E+01  0.10646431273E+02 -0.71452896682E+01  0.13032917334E+02  0.00000000000E+00 0.  1.
</event>
<event>
 7    1  0.5849044E-013  0.5052885E+02  0.7816164E-02  0.1300439E+00
        -11   -1    0    0    0    0  0.00000000000E+00  0.00000000000E+00  0.45593999997E+02  0.45594000000E+02  0.51100000000E-03 0.  1.
         11   -1    0    0    0    0 -0.00000000000E+00 -0.00000000000E+00 -0.45593999997E+02  0.45594000000E+02  0.51100000000E-03 0. -1.
    9900012    2    1    2    0    0  0.10300298933E+02 -0.14512535578E+02  0.36557577169E+02  0.50528852253E+02  0.29999976909E+02 0.  0.
         12    1    1    2    0    0 -0.10300298933E+02  0.14512535578E+02 -0.36557577169E+02  0.40659147747E+02  0.00000000000E+00 0. -1.
         11    1    3    3    0    0 -0.28482544506E+01  0.43368142625E+01  0.14416286506E+01  0.53850538335E+01  0.51100000000E-03 0. -1.
        -11    1    3    3    0    0  0.12602574172E+02 -0.19568153735E+02  0.36619337070E+02  0.43390245034E+02  0.51100000000E-03 0.  1.
        -12    1    3    3    0    0  0.54597921146E+00  0.71880389459E+00 -0.15033885521E+01  0.17535533857E+01  0.00000000000E+00 0.  1.
</event>
<event>
 7    1  0.5849044E-013  0.5052886E+02  0.7816164E-02  0.1300439E+00
        -11   -1    0    0    0    0  0.00000000000E+00  0.00000000000E+00  0.45593999997E+02  0.45594000000E+02  0.51100000000E-03 0. -1.
         11   -1    0    0    0    0 -0.00000000000E+00 -0.00000000000E+00 -0.45593999997E+02  0.45594000000E+02  0.51100000000E-03 0.  1.
    9900012    2    1    2    0    0 -0.25816442160E+02 -0.15838924283E+02 -0.27125740378E+02  0.50528855896E+02  0.29999987980E+02 0.  0.
         12    1    1    2    0    0  0.25816442160E+02  0.15838924283E+02  0.27125740378E+02  0.40659144104E+02  0.00000000000E+00 0. -1.
         11    1    3    3    0    0  0.16510495427E+01  0.31241268747E+01 -0.36131096369E+01  0.50537802516E+01  0.51100000000E-03 0. -1.
        -11    1    3    3    0    0 -0.25533146379E+02 -0.67830215890E+01 -0.17989956317E+02  0.31962313346E+02  0.51100000000E-03 0.  1.
        -12    1    3    3    0    0 -0.19343453239E+01 -0.12180029568E+02 -0.55226744241E+01  0.13512762298E+02  0.00000000000E+00 0.  1.
</event>
<event>
 7    1  0.5849044E-013  0.5052886E+02  0.7816164E-02  0.1300439E+00
        -11   -1    0    0    0    0  0.00000000000E+00  0.00000000000E+00  0.45593999997E+02  0.45594000000E+02  0.51100000000E-03 0.  1.
         11   -1    0    0    0    0 -0.00000000000E+00 -0.00000000000E+00 -0.45593999997E+02  0.45594000000E+02  0.51100000000E-03 0. -1.
    9900012    2    1    2    0    0  0.34276172944E+02  0.18159869738E+02  0.12187225186E+02  0.50528863778E+02  0.30000011940E+02 0.  0.
         12    1    1    2    0    0 -0.34276172944E+02 -0.18159869738E+02 -0.12187225186E+02  0.40659136222E+02  0.00000000000E+00 0. -1.
         11    1    3    3    0    0  0.28774549116E+01 -0.41829679602E+01  0.24126158988E+01  0.56211816783E+01  0.51100000000E-03 0. -1.
        -11    1    3    3    0    0  0.25466264578E+02  0.19580014033E+02  0.15989370478E+02  0.35882691505E+02  0.51100000000E-03 0.  1.
        -12    1    3    3    0    0  0.59324534543E+01  0.27628236645E+01 -0.62147611901E+01  0.90249905949E+01  0.00000000000E+00 0.  1.
</event>
<event>
 7    1  0.5849044E-013  0.5052886E+02  0.7816164E-02  0.1300439E+00
        -11   -1    0    0    0    0  0.00000000000E+00  0.00000000000E+00  0.45593999997E+02  0.45594000000E+02  0.51100000000E-03 0.  1.
         11   -1    0    0    0    0 -0.00000000000E+00 -0.00000000000E+00 -0.45593999997E+02  0.45594000000E+02  0.51100000000E-03 0. -1.
    9900012    2    1    2    0    0  0.15275186196E+02  0.33570546288E+02  0.17112949944E+02  0.50528856537E+02  0.29999989929E+02 0.  0.
         12    1    1    2    0    0 -0.15275186196E+02 -0.33570546288E+02 -0.17112949944E+02  0.40659143463E+02  0.00000000000E+00 0. -1.
         11    1    3    3    0    0  0.68153198356E+01  0.14419669759E+02 -0.59550506630E+01  0.17024631834E+02  0.51100000000E-03 0. -1.
        -11    1    3    3    0    0 -0.12338201070E+01  0.10926767507E+02  0.70802939051E+01  0.13078498471E+02  0.51100000000E-03 0.  1.
         12    1    3    3    0    0  0.96936864672E+01  0.82241090227E+01  0.15987706701E+02  0.20425726232E+02  0.00000000000E+00 0. -1.
</event>
<event>
 7    1  0.5849044E-013  0.5052887E+02  0.7816164E-02  0.1300439E+00
        -11   -1    0    0    0    0  0.00000000000E+00  0.00000000000E+00  0.45593999997E+02  0.45594000000E+02  0.51100000000E-03 0. -1.
         11   -1    0    0    0    0 -0.00000000000E+00 -0.00000000000E+00 -0.45593999997E+02  0.45594000000E+02  0.51100000000E-03 0.  1.
    9900012    2    1    2    0    0 -0.23035948351E+02 -0.33281697829E+02 -0.38521172453E+01  0.50528866536E+02  0.30000020322E+02 0.  0.
         12    1    1    2    0    0  0.23035948351E+02  0.33281697829E+02  0.38521172453E+01  0.40659133464E+02  0.00000000000E+00 0. -1.
         11    1    3    3    0    0 -0.32042950100E+01 -0.12536857171E+01 -0.10448663051E+02  0.11000626992E+02  0.51100000000E-03 0. -1.
        -11    1    3    3    0    0 -0.17387591077E+01 -0.38198101571E+01 -0.23933015077E+01  0.48313688783E+01  0.51100000000E-03 0.  1.
         12    1    3    3    0    0 -0.18092894233E+02 -0.28208201955E+02  0.89898473139E+01  0.34696870666E+02  0.00000000000E+00 0. -1.
</event>
<event>
 7    1  0.5849044E-013  0.5052887E+02  0.7816164E-02  0.1300439E+00
        -11   -1    0    0    0    0  0.00000000000E+00  0.00000000000E+00  0.45593999997E+02  0.45594000000E+02  0.51100000000E-03 0. -1.
         11   -1    0    0    0    0 -0.00000000000E+00 -0.00000000000E+00 -0.45593999997E+02  0.45594000000E+02  0.51100000000E-03 0.  1.
    9900012    2    1    2    0    0  0.18332609678E+02  0.17387444203E+02 -0.31855257512E+02  0.50528865421E+02  0.30000016934E+02 0.  0.
         12    1    1    2    0    0 -0.18332609678E+02 -0.17387444203E+02  0.31855257512E+02  0.40659134579E+02  0.00000000000E+00 0. -1.
         11    1    3    3    0    0 -0.57233720241E+01  0.90372616140E+00  0.10926441971E+01  0.58964039807E+01  0.51100000000E-03 0. -1.
        -11    1    3    3    0    0  0.18842205088E+02  0.15950149914E+02 -0.28911704851E+02  0.38017399339E+02  0.51100000000E-03 0.  1.
         12    1    3    3    0    0  0.52137766139E+01  0.53356812808E+00 -0.40361968587E+01  0.66150621017E+01  0.00000000000E+00 0. -1.
</event>
<event>
 7    1  0.5849044E-013  0.5052887E+02  0.7816164E-02  0.1300439E+00
        -11   -1    0    0    0    0  0.00000000000E+00  0.00000000000E+00  0.45593999997E+02  0.45594000000E+02  0.51100000000E-03 0.  1.
         11   -1    0    0    0    0 -0.00000000000E+00 -0.00000000000E+00 -0.45593999997E+02  0.45594000000E+02  0.51100000000E-03 0. -1.
    9900012    2    1    2    0    0  0.27533394296E+02  0.14146749910E+02  0.26361845879E+02  0.50528865078E+02  0.30000015892E+02 0.  0.
         12    1    1    2    0    0 -0.27533394296E+02 -0.14146749910E+02 -0.26361845879E+02  0.40659134922E+02  0.00000000000E+00 0. -1.
         11    1    3    3    0    0 -0.57326430855E+00  0.13188925353E-02  0.65226505334E+00  0.86837990987E+00  0.51100000000E-03 0. -1.
        -11    1    3    3    0    0  0.22915198383E+02  0.17503305493E+02  0.30399730607E+02  0.41900067319E+02  0.51100000000E-03 0.  1.
        -12    1    3    3    0    0  0.51914602214E+01 -0.33578744762E+01 -0.46901497810E+01  0.77604178493E+01  0.00000000000E+00 0.  1.
</event>
<event>
 7    1  0.5849044E-013  0.5052884E+02  0.7816164E-02  0.1300439E+00
        -11   -1    0    0    0    0  0.00000000000E+00  0.00000000000E+00  0.45593999997E+02  0.45594000000E+02  0.51100000000E-03 0. -1.
         11   -1    0    0    0    0 -0.00000000000E+00 -0.00000000000E+00 -0.45593999997E+02  0.45594000000E+02  0.51100000000E-03 0.  1.
    9900012    2    1    2    0    0 -0.19757698949E+02  0.30615077399E+02 -0.18042111555E+02  0.50528838409E+02  0.29999934829E+02 0.  0.
         12    1    1    2    0    0  0.19757698949E+02 -0.30615077399E+02  0.18042111555E+02  0.40659161591E+02  0.00000000000E+00 0. -1.
         11    1    3    3    0    0 -0.11839429500E+02  0.78904987539E+01  0.27107511372E+01  0.14483792095E+02  0.51100000000E-03 0. -1.
        -11    1    3    3    0    0 -0.10872045227E+02  0.22802203910E+02 -0.14495030453E+02  0.29124693623E+02  0.51100000000E-03 0.  1.
         12    1    3    3    0    0  0.29537757778E+01 -0.77625264981E-01 -0.62578322397E+01  0.69203526909E+01  0.00000000000E+00 0. -1.
</event>
<event>
 7    1  0.5849044E-013  0.5052887E+02  0.7816164E-02  0.1300439E+00
        -11   -1    0    0    0    0  0.00000000000E+00  0.00000000000E+00  0.45593999997E+02  0.45594000000E+02  0.51100000000E-03 0.  1.
         11   -1    0    0    0    0 -0.00000000000E+00 -0.00000000000E+00 -0.45593999997E+02  0.45594000000E+02  0.51100000000E-03 0. -1.
    9900012    2    1    2    0    0  0.89047409440E+01  0.33423293429E+02  0.21371803852E+02  0.50528868740E+02  0.30000027023E+02 0.  0.
         12    1    1    2    0    0 -0.89047409440E+01 -0.33423293429E+02 -0.21371803852E+02  0.40659131260E+02  0.00000000000E+00 0. -1.
         11    1    3    3    0    0 -0.23191377348E+01  0.60662107072E+01 -0.34061159054E+01  0.73334124389E+01  0.51100000000E-03 0. -1.
        -11    1    3    3    0    0  0.32052228456E+01 -0.11174137209E+01  0.91069267137E+01  0.97189598899E+01  0.51100000000E-03 0.  1.
        -12    1    3    3    0    0  0.80186558332E+01  0.28474496442E+02  0.15670993044E+02  0.33476496412E+02  0.00000000000E+00 0.  1.
</event>
<event>
 7    1  0.5849044E-013  0.5052884E+02  0.7816164E-02  0.1300439E+00
        -11   -1    0    0    0    0  0.00000000000E+00  0.00000000000E+00  0.45593999997E+02  0.45594000000E+02  0.51100000000E-03 0.  1.
         11   -1    0    0    0    0 -0.00000000000E+00 -0.00000000000E+00 -0.45593999997E+02  0.45594000000E+02  0.51100000000E-03 0. -1.
    9900012    2    1    2    0    0 -0.13117477528E+01  0.14510686237E+02  0.37959010650E+02  0.50528841293E+02  0.29999943594E+02 0.  0.
         12    1    1    2    0    0  0.13117477528E+01 -0.14510686237E+02 -0.37959010650E+02  0.40659158707E+02  0.00000000000E+00 0. -1.
         11    1    3    3    0    0 -0.52707891960E+01  0.13309702045E+02  0.41991596436E+01  0.14918523025E+02  0.51100000000E-03 0. -1.
        -11    1    3    3    0    0  0.50563993386E-01 -0.43242357222E+01  0.16857277158E+02  0.17403142381E+02  0.51100000000E-03 0.  1.
         12    1    3    3    0    0  0.39084774497E+01  0.55252199138E+01  0.16902573848E+02  0.18207175887E+02  0.00000000000E+00 0. -1.
</event>
<event>
 7    1  0.5849044E-013  0.5052886E+02  0.7816164E-02  0.1300439E+00
        -11   -1    0    0    0    0  0.00000000000E+00  0.00000000000E+00  0.45593999997E+02  0.45594000000E+02  0.51100000000E-03 0. -1.
         11   -1    0    0    0    0 -0.00000000000E+00 -0.00000000000E+00 -0.45593999997E+02  0.45594000000E+02  0.51100000000E-03 0.  1.
    9900012    2    1    2    0    0 -0.97932132572E+01 -0.20462590955E+02 -0.33742273222E+02  0.50528860109E+02  0.30000000789E+02 0.  0.
         12    1    1    2    0    0  0.97932132572E+01  0.20462590955E+02  0.33742273222E+02  0.40659139891E+02  0.00000000000E+00 0. -1.
         11    1    3    3    0    0  0.66500168984E+00 -0.15086716779E+02 -0.60859198383E+01  0.16281574585E+02  0.51100000000E-03 0. -1.
        -11    1    3    3    0    0 -0.69852619435E+01 -0.67540603188E+01 -0.28755334173E+02  0.30352602176E+02  0.51100000000E-03 0.  1.
        -12    1    3    3    0    0 -0.34729530035E+01  0.13781861436E+01  0.10989807892E+01  0.38946833486E+01  0.00000000000E+00 0.  1.
</event>
<event>
 7    1  0.5849044E-013  0.5052893E+02  0.7816164E-02  0.1300439E+00
        -11   -1    0    0    0    0  0.00000000000E+00  0.00000000000E+00  0.45593999997E+02  0.45594000000E+02  0.51100000000E-03 0.  1.
         11   -1    0    0    0    0 -0.00000000000E+00 -0.00000000000E+00 -0.45593999997E+02  0.45594000000E+02  0.51100000000E-03 0. -1.
    9900012    2    1    2    0    0  0.28175933602E+02 -0.11941375544E+02  0.26770880699E+02  0.50528932897E+02  0.30000222034E+02 0.  0.
         12    1    1    2    0    0 -0.28175933602E+02  0.11941375544E+02 -0.26770880699E+02  0.40659067103E+02  0.00000000000E+00 0. -1.
         11    1    3    3    0    0  0.87378330900E+01 -0.13136063948E+02  0.84208615109E+01  0.17883422827E+02  0.51100000000E-03 0. -1.
        -11    1    3    3    0    0  0.17178265004E+02  0.68873738231E+01  0.18953741805E+02  0.26490999139E+02  0.51100000000E-03 0.  1.
        -12    1    3    3    0    0  0.22598355081E+01 -0.56926854191E+01 -0.60372261643E+00  0.61545109312E+01  0.00000000000E+00 0.  1.
</event>
<event>
 7    1  0.5849044E-013  0.5052884E+02  0.7816164E-02  0.1300439E+00
        -11   -1    0    0    0    0  0.00000000000E+00  0.00000000000E+00  0.45593999997E+02  0.45594000000E+02  0.51100000000E-03 0.  1.
         11   -1    0    0    0    0 -0.00000000000E+00 -0.00000000000E+00 -0.45593999997E+02  0.45594000000E+02  0.51100000000E-03 0. -1.
    9900012    2    1    2    0    0 -0.39370618566E+02 -0.10016275633E+02 -0.16720243476E+01  0.50528842984E+02  0.29999948735E+02 0.  0.
         12    1    1    2    0    0  0.39370618566E+02  0.10016275633E+02  0.16720243476E+01  0.40659157016E+02  0.00000000000E+00 0. -1.
         11    1    3    3    0    0 -0.35171341916E+01 -0.30932095062E+00  0.95637508615E+01  0.10194667389E+02  0.51100000000E-03 0. -1.
        -11    1    3    3    0    0 -0.28444012244E+02 -0.11568789266E+02 -0.66327455252E+01  0.31414837753E+02  0.51100000000E-03 0.  1.
         12    1    3    3    0    0 -0.74094721304E+01  0.18618345835E+01 -0.46030296839E+01  0.89193378419E+01  0.00000000000E+00 0. -1.
</event>
<event>
 7    1  0.5849044E-013  0.5052888E+02  0.7816164E-02  0.1300439E+00
        -11   -1    0    0    0    0  0.00000000000E+00  0.00000000000E+00  0.45593999997E+02  0.45594000000E+02  0.51100000000E-03 0. -1.
         11   -1    0    0    0    0 -0.00000000000E+00 -0.00000000000E+00 -0.45593999997E+02  0.45594000000E+02  0.51100000000E-03 0.  1.
    9900012    2    1    2    0    0  0.35775662645E+02 -0.48549320911E+01 -0.18700160470E+02  0.50528875502E+02  0.30000047577E+02 0.  0.
         12    1    1    2    0    0 -0.35775662645E+02  0.48549320911E+01  0.18700160470E+02  0.40659124498E+02  0.00000000000E+00 0. -1.
         11    1    3    3    0    0  0.25127720748E+02  0.55802878453E+01 -0.25397757654E+01  0.25864887852E+02  0.51100000000E-03 0. -1.
        -11    1    3    3    0    0  0.89261144704E+01 -0.64791973575E+01 -0.17003810132E+02  0.20267833560E+02  0.51100000000E-03 0.  1.
         12    1    3    3    0    0  0.17218274273E+01 -0.39560225789E+01  0.84342542786E+00  0.43961540904E+01  0.00000000000E+00 0. -1.
</event>
<event>
 7    1  0.5849044E-013  0.5052889E+02  0.7816164E-02  0.1300439E+00
        -11   -1    0    0    0    0  0.00000000000E+00  0.00000000000E+00  0.45593999997E+02  0.45594000000E+02  0.51100000000E-03 0.  1.
         11   -1    0    0    0    0 -0.00000000000E+00 -0.00000000000E+00 -0.45593999997E+02  0.45594000000E+02  0.51100000000E-03 0. -1.
    9900012    2    1    2    0    0  0.31947715165E+01  0.32486638715E+02  0.24239940308E+02  0.50528893195E+02  0.30000101354E+02 0.  0.
         12    1    1    2    0    0 -0.31947715165E+01 -0.32486638715E+02 -0.24239940308E+02  0.40659106805E+02  0.00000000000E+00 0. -1.
         11    1    3    3    0    0 -0.60926005610E+01  0.20137436939E+02  0.13327523106E+02  0.24904999909E+02  0.51100000000E-03 0.  1.
        -11    1    3    3    0    0  0.11105660351E+02  0.60902301293E+01  0.13590296996E+02  0.18577480119E+02  0.51100000000E-03 0. -1.
        -12    1    3    3    0    0 -0.18182882738E+01  0.62589716475E+01 -0.26778797938E+01  0.70464131670E+01  0.00000000000E+00 0.  1.
</event>
<event>
 7    1  0.5849044E-013  0.5052886E+02  0.7816164E-02  0.1300439E+00
        -11   -1    0    0    0    0  0.00000000000E+00  0.00000000000E+00  0.45593999997E+02  0.45594000000E+02  0.51100000000E-03 0. -1.
         11   -1    0    0    0    0 -0.00000000000E+00 -0.00000000000E+00 -0.45593999997E+02  0.45594000000E+02  0.51100000000E-03 0.  1.
    9900012    2    1    2    0    0  0.29946238846E+02 -0.16629790131E+02 -0.21905209242E+02  0.50528864093E+02  0.30000012896E+02 0.  0.
         12    1    1    2    0    0 -0.29946238846E+02  0.16629790131E+02  0.21905209242E+02  0.40659135907E+02  0.00000000000E+00 0. -1.
         11    1    3    3    0    0  0.13913889085E+02 -0.76336881559E+01 -0.54237597112E+01  0.16771603203E+02  0.51100000000E-03 0.  1.
        -11    1    3    3    0    0 -0.50839404457E+01  0.12027168475E+01 -0.23601955466E+00  0.52295969024E+01  0.51100000000E-03 0. -1.
        -12    1    3    3    0    0  0.21116290206E+02 -0.10198818823E+02 -0.16245429976E+02  0.28527663987E+02  0.00000000000E+00 0.  1.
</event>
<event>
 7    1  0.5849044E-013  0.5052887E+02  0.7816164E-02  0.1300439E+00
        -11   -1    0    0    0    0  0.00000000000E+00  0.00000000000E+00  0.45593999997E+02  0.45594000000E+02  0.51100000000E-03 0.  1.
         11   -1    0    0    0    0 -0.00000000000E+00 -0.00000000000E+00 -0.45593999997E+02  0.45594000000E+02  0.51100000000E-03 0. -1.
    9900012    2    1    2    0    0  0.20327102264E+02 -0.27753929230E+02  0.21672402237E+02  0.50528871961E+02  0.30000036812E+02 0.  0.
         12    1    1    2    0    0 -0.20327102264E+02  0.27753929230E+02 -0.21672402237E+02  0.40659128039E+02  0.00000000000E+00 0. -1.
         11    1    3    3    0    0  0.29245602741E+01  0.24697810891E+01  0.18884156176E+01  0.42683703249E+01  0.51100000000E-03 0. -1.
        -11    1    3    3    0    0  0.10797655462E+02 -0.19200724498E+02  0.24151064304E+02  0.32688393842E+02  0.51100000000E-03 0.  1.
        -12    1    3    3    0    0  0.66048865277E+01 -0.11022985822E+02 -0.43670776839E+01  0.13572107794E+02  0.00000000000E+00 0.  1.
</event>
<event>
 7    1  0.5849044E-013  0.5052885E+02  0.7816164E-02  0.1300439E+00
        -11   -1    0    0    0    0  0.00000000000E+00  0.00000000000E+00  0.45593999997E+02  0.45594000000E+02  0.51100000000E-03 0.  1.
         11   -1    0    0    0    0 -0.00000000000E+00 -0.00000000000E+00 -0.45593999997E+02  0.45594000000E+02  0.51100000000E-03 0. -1.
    9900012    2    1    2    0    0 -0.22435661827E+02 -0.28857121961E+02  0.17806580011E+02  0.50528847265E+02  0.29999961745E+02 0.  0.
         12    1    1    2    0    0  0.22435661827E+02  0.28857121961E+02 -0.17806580011E+02  0.40659152735E+02  0.00000000000E+00 0. -1.
         11    1    3    3    0    0  0.24206567956E+01 -0.17022822853E+02  0.10070250348E+02  0.19926013639E+02  0.51100000000E-03 0. -1.
        -11    1    3    3    0    0 -0.15987586850E+02 -0.41675186983E+01 -0.63482228775E-01  0.16521960405E+02  0.51100000000E-03 0.  1.
         12    1    3    3    0    0 -0.88687317730E+01 -0.76667804097E+01  0.77998118919E+01  0.14080873221E+02  0.00000000000E+00 0. -1.
</event>
<event>
 7    1  0.5849044E-013  0.5052886E+02  0.7816164E-02  0.1300439E+00
        -11   -1    0    0    0    0  0.00000000000E+00  0.00000000000E+00  0.45593999997E+02  0.45594000000E+02  0.51100000000E-03 0.  1.
         11   -1    0    0    0    0 -0.00000000000E+00 -0.00000000000E+00 -0.45593999997E+02  0.45594000000E+02  0.51100000000E-03 0. -1.
    9900012    2    1    2    0    0  0.32776796292E+02 -0.17878908514E+02  0.16099437337E+02  0.50528860469E+02  0.30000001882E+02 0.  0.
         12    1    1    2    0    0 -0.32776796292E+02  0.17878908514E+02 -0.16099437337E+02  0.40659139531E+02  0.00000000000E+00 0. -1.
         11    1    3    3    0    0  0.23002228484E+02 -0.74136917236E+01  0.58998228067E+01  0.24877163215E+02  0.51100000000E-03 0. -1.
        -11    1    3    3    0    0 -0.14605904807E+01  0.40759253782E+01  0.48745368808E+01  0.65197854493E+01  0.51100000000E-03 0.  1.
        -12    1    3    3    0    0  0.11235158289E+02 -0.14541142169E+02  0.53250776493E+01  0.19131911805E+02  0.00000000000E+00 0.  1.
</event>
<event>
 7    1  0.5849044E-013  0.5052886E+02  0.7816164E-02  0.1300439E+00
        -11   -1    0    0    0    0  0.00000000000E+00  0.00000000000E+00  0.45593999997E+02  0.45594000000E+02  0.51100000000E-03 0.  1.
         11   -1    0    0    0    0 -0.00000000000E+00 -0.00000000000E+00 -0.45593999997E+02  0.45594000000E+02  0.51100000000E-03 0. -1.
    9900012    2    1    2    0    0  0.25353744283E+02  0.29135882782E+02  0.12706451822E+02  0.50528856716E+02  0.29999990473E+02 0.  0.
         12    1    1    2    0    0 -0.25353744283E+02 -0.29135882782E+02 -0.12706451822E+02  0.40659143284E+02  0.00000000000E+00 0. -1.
         11    1    3    3    0    0  0.21619555304E+02  0.83502225745E+01  0.14176853802E+02  0.27168264070E+02  0.51100000000E-03 0. -1.
        -11    1    3    3    0    0 -0.31337955040E+01  0.85090767845E+01  0.83362152552E+00  0.91060412416E+01  0.51100000000E-03 0.  1.
        -12    1    3    3    0    0  0.68679844833E+01  0.12276583423E+02 -0.23040235056E+01  0.14254551404E+02  0.00000000000E+00 0.  1.
</event>
<event>
 7    1  0.5849044E-013  0.5052886E+02  0.7816164E-02  0.1300439E+00
        -11   -1    0    0    0    0  0.00000000000E+00  0.00000000000E+00  0.45593999997E+02  0.45594000000E+02  0.51100000000E-03 0.  1.
         11   -1    0    0    0    0 -0.00000000000E+00 -0.00000000000E+00 -0.45593999997E+02  0.45594000000E+02  0.51100000000E-03 0. -1.
    9900012    2    1    2    0    0 -0.67536418700E+01 -0.64237808581E+01  0.39576369746E+02  0.50528859806E+02  0.29999999866E+02 0.  0.
         12    1    1    2    0    0  0.67536418700E+01  0.64237808581E+01 -0.39576369746E+02  0.40659140194E+02  0.00000000000E+00 0. -1.
         11    1    3    3    0    0 -0.18256779813E+01  0.49792589875E+00  0.13744267293E+00  0.18973457886E+01  0.51100000000E-03 0. -1.
        -11    1    3    3    0    0  0.33115881511E+01  0.86636522272E+01  0.66799096762E+01  0.11430077845E+02  0.51100000000E-03 0.  1.
        -12    1    3    3    0    0 -0.82395520398E+01 -0.15585358984E+02  0.32759017397E+02  0.37201436173E+02  0.00000000000E+00 0.  1.
</event>
<event>
 7    1  0.5849044E-013  0.5052885E+02  0.7816164E-02  0.1300439E+00
        -11   -1    0    0    0    0  0.00000000000E+00  0.00000000000E+00  0.45593999997E+02  0.45594000000E+02  0.51100000000E-03 0.  1.
         11   -1    0    0    0    0 -0.00000000000E+00 -0.00000000000E+00 -0.45593999997E+02  0.45594000000E+02  0.51100000000E-03 0. -1.
    9900012    2    1    2    0    0  0.14428423599E+01 -0.12855441611E+02  0.38546360671E+02  0.50528854731E+02  0.29999984439E+02 0.  0.
         12    1    1    2    0    0 -0.14428423599E+01  0.12855441611E+02 -0.38546360671E+02  0.40659145269E+02  0.00000000000E+00 0. -1.
         11    1    3    3    0    0  0.17459229866E+01 -0.13114268235E+02  0.41319207382E+01  0.13860196523E+02  0.51100000000E-03 0. -1.
        -11    1    3    3    0    0  0.31193491200E+01 -0.20921708780E+01  0.31179985377E+02  0.31405397725E+02  0.51100000000E-03 0.  1.
        -12    1    3    3    0    0 -0.34224297467E+01  0.23509975024E+01  0.32344545555E+01  0.52632604817E+01  0.00000000000E+00 0.  1.
</event>
<event>
 7    1  0.5849044E-013  0.5052886E+02  0.7816164E-02  0.1300439E+00
        -11   -1    0    0    0    0  0.00000000000E+00  0.00000000000E+00  0.45593999997E+02  0.45594000000E+02  0.51100000000E-03 0. -1.
         11   -1    0    0    0    0 -0.00000000000E+00 -0.00000000000E+00 -0.45593999997E+02  0.45594000000E+02  0.51100000000E-03 0.  1.
    9900012    2    1    2    0    0  0.21269565282E+02  0.34549376035E+02 -0.26668236364E+01  0.50528859085E+02  0.29999997674E+02 0.  0.
         12    1    1    2    0    0 -0.21269565282E+02 -0.34549376035E+02  0.26668236364E+01  0.40659140915E+02  0.00000000000E+00 0. -1.
         11    1    3    3    0    0  0.27411527405E+02  0.27732276051E+02 -0.77023783373E+01  0.39746667810E+02  0.51100000000E-03 0. -1.
        -11    1    3    3    0    0 -0.32889529682E+01  0.53386680103E+01  0.27969259272E+01  0.68659582474E+01  0.51100000000E-03 0.  1.
         12    1    3    3    0    0 -0.28530091553E+01  0.14784319733E+01  0.22386287736E+01  0.39162330275E+01  0.00000000000E+00 0. -1.
</event>
<event>
 7    1  0.5849044E-013  0.5052886E+02  0.7816164E-02  0.1300439E+00
        -11   -1    0    0    0    0  0.00000000000E+00  0.00000000000E+00  0.45593999997E+02  0.45594000000E+02  0.51100000000E-03 0. -1.
         11   -1    0    0    0    0 -0.00000000000E+00 -0.00000000000E+00 -0.45593999997E+02  0.45594000000E+02  0.51100000000E-03 0.  1.
    9900012    2    1    2    0    0 -0.38771115400E+02 -0.10471434254E+02 -0.63494482091E+01  0.50528858134E+02  0.29999994785E+02 0.  0.
         12    1    1    2    0    0  0.38771115400E+02  0.10471434254E+02  0.63494482091E+01  0.40659141866E+02  0.00000000000E+00 0. -1.
         11    1    3    3    0    0 -0.32524895001E+01  0.60046727037E+01  0.43385055468E+01  0.80905755585E+01  0.51100000000E-03 0. -1.
        -11    1    3    3    0    0 -0.19547196448E+02 -0.23347732500E+01 -0.61967178957E+01  0.20638395482E+02  0.51100000000E-03 0.  1.
         12    1    3    3    0    0 -0.15971429451E+02 -0.14141333708E+02 -0.44912358602E+01  0.21799887094E+02  0.00000000000E+00 0. -1.
</event>
<event>
 7    1  0.5849044E-013  0.5052887E+02  0.7816164E-02  0.1300439E+00
        -11   -1    0    0    0    0  0.00000000000E+00  0.00000000000E+00  0.45593999997E+02  0.45594000000E+02  0.51100000000E-03 0.  1.
         11   -1    0    0    0    0 -0.00000000000E+00 -0.00000000000E+00 -0.45593999997E+02  0.45594000000E+02  0.51100000000E-03 0. -1.
    9900012    2    1    2    0    0  0.13321373895E+02  0.92712861423E+01  0.37279343471E+02  0.50528865739E+02  0.30000017901E+02 0.  0.
         12    1    1    2    0    0 -0.13321373895E+02 -0.92712861423E+01 -0.37279343471E+02  0.40659134261E+02  0.00000000000E+00 0. -1.
         11    1    3    3    0    0  0.32470962168E+01 -0.10070125214E+02  0.10918019926E+02  0.15203756609E+02  0.51100000000E-03 0. -1.
        -11    1    3    3    0    0  0.53213252485E+01  0.40914010793E+01  0.12444965356E+02  0.14139774686E+02  0.51100000000E-03 0.  1.
         12    1    3    3    0    0  0.47529524297E+01  0.15250010277E+02  0.13916358190E+02  0.21185334444E+02  0.00000000000E+00 0. -1.
</event>
<event>
 7    1  0.5849044E-013  0.5052886E+02  0.7816164E-02  0.1300439E+00
        -11   -1    0    0    0    0  0.00000000000E+00  0.00000000000E+00  0.45593999997E+02  0.45594000000E+02  0.51100000000E-03 0. -1.
         11   -1    0    0    0    0 -0.00000000000E+00 -0.00000000000E+00 -0.45593999997E+02  0.45594000000E+02  0.51100000000E-03 0.  1.
    9900012    2    1    2    0    0 -0.35010406038E+02 -0.19219227368E+02 -0.76196349760E+01  0.50528855042E+02  0.29999985386E+02 0.  0.
         12    1    1    2    0    0  0.35010406038E+02  0.19219227368E+02  0.76196349760E+01  0.40659144958E+02  0.00000000000E+00 0. -1.
         11    1    3    3    0    0 -0.65234594962E+01 -0.65536613135E+01  0.56283275313E+01  0.10825159189E+02  0.51100000000E-03 0. -1.
        -11    1    3    3    0    0 -0.80452552918E+01  0.29726656222E+00 -0.13243299323E+02  0.15498370151E+02  0.51100000000E-03 0.  1.
        -12    1    3    3    0    0 -0.20441691250E+02 -0.12962832617E+02 -0.46631846043E-02  0.24205325702E+02  0.00000000000E+00 0.  1.
</event>
<event>
 7    1  0.5849044E-013  0.5052886E+02  0.7816164E-02  0.1300439E+00
        -11   -1    0    0    0    0  0.00000000000E+00  0.00000000000E+00  0.45593999997E+02  0.45594000000E+02  0.51100000000E-03 0.  1.
         11   -1    0    0    0    0 -0.00000000000E+00 -0.00000000000E+00 -0.45593999997E+02  0.45594000000E+02  0.51100000000E-03 0. -1.
    9900012    2    1    2    0    0 -0.28089364110E+02 -0.16195022434E-01  0.29396473033E+02  0.50528864923E+02  0.30000015421E+02 0.  0.
         12    1    1    2    0    0  0.28089364110E+02  0.16195022434E-01 -0.29396473033E+02  0.40659135077E+02  0.00000000000E+00 0. -1.
         11    1    3    3    0    0  0.82911202789E+00 -0.85813605483E+01  0.91299103090E+01  0.12557166803E+02  0.51100000000E-03 0. -1.
        -11    1    3    3    0    0 -0.27405038760E+02  0.56925907878E+01  0.14924670975E+02  0.31720459380E+02  0.51100000000E-03 0.  1.
        -12    1    3    3    0    0 -0.15134373781E+01  0.28725747381E+01  0.53418917495E+01  0.62512387402E+01  0.00000000000E+00 0.  1.
</event>
<event>
 7    1  0.5849044E-013  0.5052886E+02  0.7816164E-02  0.1300439E+00
        -11   -1    0    0    0    0  0.00000000000E+00  0.00000000000E+00  0.45593999997E+02  0.45594000000E+02  0.51100000000E-03 0. -1.
         11   -1    0    0    0    0 -0.00000000000E+00 -0.00000000000E+00 -0.45593999997E+02  0.45594000000E+02  0.51100000000E-03 0.  1.
    9900012    2    1    2    0    0  0.91669890188E+01 -0.30211976290E+02 -0.25619684626E+02  0.50528862782E+02  0.30000008911E+02 0.  0.
         12    1    1    2    0    0 -0.91669890188E+01  0.30211976290E+02  0.25619684626E+02  0.40659137218E+02  0.00000000000E+00 0. -1.
         11    1    3    3    0    0  0.10162995749E+02 -0.75722431646E+01 -0.59280037063E+00  0.12687661789E+02  0.51100000000E-03 0. -1.
        -11    1    3    3    0    0 -0.38726719868E+01 -0.15832259655E+02 -0.58962911832E+01  0.17332751775E+02  0.51100000000E-03 0.  1.
         12    1    3    3    0    0  0.28766652567E+01 -0.68074734702E+01 -0.19130593072E+02  0.20508449218E+02  0.00000000000E+00 0. -1.
</event>
<event>
 7    1  0.5849044E-013  0.5052885E+02  0.7816164E-02  0.1300439E+00
        -11   -1    0    0    0    0  0.00000000000E+00  0.00000000000E+00  0.45593999997E+02  0.45594000000E+02  0.51100000000E-03 0. -1.
         11   -1    0    0    0    0 -0.00000000000E+00 -0.00000000000E+00 -0.45593999997E+02  0.45594000000E+02  0.51100000000E-03 0.  1.
    9900012    2    1    2    0    0 -0.15195512015E+02 -0.36774812334E+02 -0.83591910302E+01  0.50528849957E+02  0.29999969928E+02 0.  0.
         12    1    1    2    0    0  0.15195512015E+02  0.36774812334E+02  0.83591910302E+01  0.40659150043E+02  0.00000000000E+00 0. -1.
         11    1    3    3    0    0 -0.42906095595E+01 -0.45593677477E+01  0.91344311742E+01  0.11074068710E+02  0.51100000000E-03 0. -1.
        -11    1    3    3    0    0 -0.19374760106E+01 -0.45565116335E+01 -0.69341212816E+01  0.85204254452E+01  0.51100000000E-03 0.  1.
         12    1    3    3    0    0 -0.89674264446E+01 -0.27658932953E+02 -0.10559500923E+02  0.30934355802E+02  0.00000000000E+00 0. -1.
</event>
<event>
 7    1  0.5849044E-013  0.5052886E+02  0.7816164E-02  0.1300439E+00
        -11   -1    0    0    0    0  0.00000000000E+00  0.00000000000E+00  0.45593999997E+02  0.45594000000E+02  0.51100000000E-03 0. -1.
         11   -1    0    0    0    0 -0.00000000000E+00 -0.00000000000E+00 -0.45593999997E+02  0.45594000000E+02  0.51100000000E-03 0.  1.
    9900012    2    1    2    0    0 -0.25312155242E+02  0.19403123801E+02 -0.25218628197E+02  0.50528860506E+02  0.30000001994E+02 0.  0.
         12    1    1    2    0    0  0.25312155242E+02 -0.19403123801E+02  0.25218628197E+02  0.40659139494E+02  0.00000000000E+00 0. -1.
         11    1    3    3    0    0  0.54113920897E+00  0.52777523985E+01 -0.89248478503E+01  0.10382697695E+02  0.51100000000E-03 0. -1.
        -11    1    3    3    0    0 -0.19788481685E+02  0.15974355384E+02 -0.32439846800E+01  0.25637618341E+02  0.51100000000E-03 0.  1.
        -12    1    3    3    0    0 -0.60648127660E+01 -0.18489839820E+01 -0.13049795667E+02  0.14508544469E+02  0.00000000000E+00 0.  1.
</event>
<event>
 7    1  0.5849044E-013  0.5052886E+02  0.7816164E-02  0.1300439E+00
        -11   -1    0    0    0    0  0.00000000000E+00  0.00000000000E+00  0.45593999997E+02  0.45594000000E+02  0.51100000000E-03 0.  1.
         11   -1    0    0    0    0 -0.00000000000E+00 -0.00000000000E+00 -0.45593999997E+02  0.45594000000E+02  0.51100000000E-03 0. -1.
    9900012    2    1    2    0    0 -0.69649888876E+01  0.29811989190E+02  0.26756308415E+02  0.50528858227E+02  0.29999995068E+02 0.  0.
         12    1    1    2    0    0  0.69649888876E+01 -0.29811989190E+02 -0.26756308415E+02  0.40659141773E+02  0.00000000000E+00 0. -1.
         11    1    3    3    0    0 -0.47101719310E+01  0.28604291368E+02  0.87689200757E+01  0.30286715963E+02  0.51100000000E-03 0. -1.
        -11    1    3    3    0    0  0.19288937376E+01  0.27871585648E+00  0.14731914159E+02  0.14860269467E+02  0.51100000000E-03 0.  1.
        -12    1    3    3    0    0 -0.41837106942E+01  0.92898196585E+00  0.32554741809E+01  0.53818727975E+01  0.00000000000E+00 0.  1.
</event>
<event>
 7    1  0.5849044E-013  0.5052883E+02  0.7816164E-02  0.1300439E+00
        -11   -1    0    0    0    0  0.00000000000E+00  0.00000000000E+00  0.45593999997E+02  0.45594000000E+02  0.51100000000E-03 0.  1.
         11   -1    0    0    0    0 -0.00000000000E+00 -0.00000000000E+00 -0.45593999997E+02  0.45594000000E+02  0.51100000000E-03 0. -1.
    9900012    2    1    2    0    0  0.19436980828E+02  0.16847584316E+02  0.31488582471E+02  0.50528829484E+02  0.29999907700E+02 0.  0.
         12    1    1    2    0    0 -0.19436980828E+02 -0.16847584316E+02 -0.31488582471E+02  0.40659170516E+02  0.00000000000E+00 0. -1.
         11    1    3    3    0    0 -0.21344937984E+01 -0.81804867152E+00 -0.38535519600E+01  0.44805279124E+01  0.51100000000E-03 0. -1.
        -11    1    3    3    0    0  0.82392770094E+01  0.93433182990E+01  0.89792300934E+01  0.15356101582E+02  0.51100000000E-03 0.  1.
         12    1    3    3    0    0  0.13332197617E+02  0.83223146889E+01  0.26362904337E+02  0.30692199989E+02  0.00000000000E+00 0. -1.
</event>
<event>
 7    1  0.5849044E-013  0.5052885E+02  0.7816164E-02  0.1300439E+00
        -11   -1    0    0    0    0  0.00000000000E+00  0.00000000000E+00  0.45593999997E+02  0.45594000000E+02  0.51100000000E-03 0.  1.
         11   -1    0    0    0    0 -0.00000000000E+00 -0.00000000000E+00 -0.45593999997E+02  0.45594000000E+02  0.51100000000E-03 0. -1.
    9900012    2    1    2    0    0 -0.33851837968E+01 -0.30905170823E+02  0.26202626109E+02  0.50528847674E+02  0.29999962988E+02 0.  0.
         12    1    1    2    0    0  0.33851837968E+01  0.30905170823E+02 -0.26202626109E+02  0.40659152326E+02  0.00000000000E+00 0. -1.
         11    1    3    3    0    0  0.29043423071E+01  0.18716976972E+00  0.16360990756E+02  0.16617829447E+02  0.51100000000E-03 0. -1.
        -11    1    3    3    0    0 -0.61985241723E+01 -0.22841309077E+02  0.99119467997E+01  0.25659185332E+02  0.51100000000E-03 0.  1.
         12    1    3    3    0    0 -0.91001931558E-01 -0.82510315150E+01 -0.70311447045E-01  0.82518328941E+01  0.00000000000E+00 0. -1.
</event>
<event>
 7    1  0.5849044E-013  0.5052883E+02  0.7816164E-02  0.1300439E+00
        -11   -1    0    0    0    0  0.00000000000E+00  0.00000000000E+00  0.45593999997E+02  0.45594000000E+02  0.51100000000E-03 0. -1.
         11   -1    0    0    0    0 -0.00000000000E+00 -0.00000000000E+00 -0.45593999997E+02  0.45594000000E+02  0.51100000000E-03 0.  1.
    9900012    2    1    2    0    0  0.24443298920E+02 -0.10906459919E+02 -0.30606248172E+02  0.50528829359E+02  0.29999907318E+02 0.  0.
         12    1    1    2    0    0 -0.24443298920E+02  0.10906459919E+02  0.30606248172E+02  0.40659170641E+02  0.00000000000E+00 0. -1.
         11    1    3    3    0    0  0.87226789291E+01 -0.41515059703E+01 -0.62887343681E+01  0.11526851684E+02  0.51100000000E-03 0. -1.
        -11    1    3    3    0    0 -0.23287813910E+01 -0.11256474630E+02 -0.12406737029E+02  0.16913266031E+02  0.51100000000E-03 0.  1.
        -12    1    3    3    0    0  0.18049401382E+02  0.45015206815E+01 -0.11910776775E+02  0.22088711644E+02  0.00000000000E+00 0.  1.
</event>
<event>
 7    1  0.5849044E-013  0.5052885E+02  0.7816164E-02  0.1300439E+00
        -11   -1    0    0    0    0  0.00000000000E+00  0.00000000000E+00  0.45593999997E+02  0.45594000000E+02  0.51100000000E-03 0.  1.
         11   -1    0    0    0    0 -0.00000000000E+00 -0.00000000000E+00 -0.45593999997E+02  0.45594000000E+02  0.51100000000E-03 0. -1.
    9900012    2    1    2    0    0  0.15460113126E+01  0.67811928815E+01  0.40059855988E+02  0.50528846176E+02  0.29999958437E+02 0.  0.
         12    1    1    2    0    0 -0.15460113126E+01 -0.67811928815E+01 -0.40059855988E+02  0.40659153824E+02  0.00000000000E+00 0. -1.
         11    1    3    3    0    0  0.50219866810E+01  0.10049057557E+02  0.50214200703E+01  0.12305225223E+02  0.51100000000E-03 0. -1.
        -11    1    3    3    0    0 -0.26844299536E+01 -0.90336362500E+01  0.22845550373E+02  0.24712990919E+02  0.51100000000E-03 0.  1.
        -12    1    3    3    0    0 -0.79154541483E+00  0.57657715743E+01  0.12192885545E+02  0.13510630033E+02  0.00000000000E+00 0.  1.
</event>
<event>
 7    1  0.5849044E-013  0.5052886E+02  0.7816164E-02  0.1300439E+00
        -11   -1    0    0    0    0  0.00000000000E+00  0.00000000000E+00  0.45593999997E+02  0.45594000000E+02  0.51100000000E-03 0. -1.
         11   -1    0    0    0    0 -0.00000000000E+00 -0.00000000000E+00 -0.45593999997E+02  0.45594000000E+02  0.51100000000E-03 0.  1.
    9900012    2    1    2    0    0 -0.79062597225E+01  0.37893031605E+02  0.12440847067E+02  0.50528862493E+02  0.30000008034E+02 0.  0.
         12    1    1    2    0    0  0.79062597225E+01 -0.37893031605E+02 -0.12440847067E+02  0.40659137507E+02  0.00000000000E+00 0. -1.
         11    1    3    3    0    0 -0.27120705183E+01 -0.18125385690E+01 -0.40896321184E+01  0.52312248743E+01  0.51100000000E-03 0.  1.
        -11    1    3    3    0    0 -0.23647796220E+01  0.38837425037E+02  0.16680787112E+02  0.42334222860E+02  0.51100000000E-03 0. -1.
         12    1    3    3    0    0 -0.28294095821E+01  0.86814513720E+00 -0.15030792649E+00  0.29634147593E+01  0.00000000000E+00 0. -1.
</event>
<event>
 7    1  0.5849044E-013  0.5052887E+02  0.7816164E-02  0.1300439E+00
        -11   -1    0    0    0    0  0.00000000000E+00  0.00000000000E+00  0.45593999997E+02  0.45594000000E+02  0.51100000000E-03 0. -1.
         11   -1    0    0    0    0 -0.00000000000E+00 -0.00000000000E+00 -0.45593999997E+02  0.45594000000E+02  0.51100000000E-03 0.  1.
    9900012    2    1    2    0    0  0.73044182374E+01 -0.16040463184E+02 -0.36640326237E+02  0.50528874435E+02  0.30000044332E+02 0.  0.
         12    1    1    2    0    0 -0.73044182374E+01  0.16040463184E+02  0.36640326237E+02  0.40659125565E+02  0.00000000000E+00 0. -1.
         11    1    3    3    0    0  0.76758156125E+01  0.31511166107E+01 -0.36334721634E+01  0.90581345450E+01  0.51100000000E-03 0. -1.
        -11    1    3    3    0    0 -0.76913790795E+01 -0.13594830288E+02 -0.23616465707E+02  0.28314557660E+02  0.51100000000E-03 0.  1.
        -12    1    3    3    0    0  0.73199817044E+01 -0.55967495066E+01 -0.93903883666E+01  0.13156182230E+02  0.00000000000E+00 0.  1.
</event>
<event>
 7    1  0.5849044E-013  0.5052886E+02  0.7816164E-02  0.1300439E+00
        -11   -1    0    0    0    0  0.00000000000E+00  0.00000000000E+00  0.45593999997E+02  0.45594000000E+02  0.51100000000E-03 0.  1.
         11   -1    0    0    0    0 -0.00000000000E+00 -0.00000000000E+00 -0.45593999997E+02  0.45594000000E+02  0.51100000000E-03 0. -1.
    9900012    2    1    2    0    0  0.80936952731E+01  0.39302847432E+02 -0.65531463932E+01  0.50528862687E+02  0.30000008623E+02 0.  0.
         12    1    1    2    0    0 -0.80936952731E+01 -0.39302847432E+02  0.65531463932E+01  0.40659137313E+02  0.00000000000E+00 0. -1.
         11    1    3    3    0    0  0.14483625496E+02  0.21028777990E+02 -0.84701614139E+01  0.26902203365E+02  0.51100000000E-03 0. -1.
        -11    1    3    3    0    0 -0.55997117877E+00  0.17637694836E+02  0.20150046281E+01  0.17761252511E+02  0.51100000000E-03 0.  1.
        -12    1    3    3    0    0 -0.58299590438E+01  0.63637460555E+00 -0.97989607310E-01  0.58654068107E+01  0.00000000000E+00 0.  1.
</event>
<event>
 7    1  0.5849044E-013  0.5052886E+02  0.7816164E-02  0.1300439E+00
        -11   -1    0    0    0    0  0.00000000000E+00  0.00000000000E+00  0.45593999997E+02  0.45594000000E+02  0.51100000000E-03 0.  1.
         11   -1    0    0    0    0 -0.00000000000E+00 -0.00000000000E+00 -0.45593999997E+02  0.45594000000E+02  0.51100000000E-03 0. -1.
    9900012    2    1    2    0    0  0.28812336020E+02  0.15357790145E+01  0.28647093694E+02  0.50528864480E+02  0.30000014073E+02 0.  0.
         12    1    1    2    0    0 -0.28812336020E+02 -0.15357790145E+01 -0.28647093694E+02  0.40659135520E+02  0.00000000000E+00 0. -1.
         11    1    3    3    0    0  0.50285655859E+01  0.81269138445E+01  0.76776166641E+00  0.95876305063E+01  0.51100000000E-03 0. -1.
        -11    1    3    3    0    0  0.22302241918E+02 -0.11303880191E+02  0.24027686415E+02  0.34677044520E+02  0.51100000000E-03 0.  1.
        -12    1    3    3    0    0  0.14815285164E+01  0.47127453611E+01  0.38516456122E+01  0.62641894532E+01  0.00000000000E+00 0.  1.
</event>
<event>
 7    1  0.5849044E-013  0.5052884E+02  0.7816164E-02  0.1300439E+00
        -11   -1    0    0    0    0  0.00000000000E+00  0.00000000000E+00  0.45593999997E+02  0.45594000000E+02  0.51100000000E-03 0.  1.
         11   -1    0    0    0    0 -0.00000000000E+00 -0.00000000000E+00 -0.45593999997E+02  0.45594000000E+02  0.51100000000E-03 0. -1.
    9900012    2    1    2    0    0 -0.32472084028E+02 -0.19820757404E+02  0.14348111024E+02  0.50528844141E+02  0.29999952251E+02 0.  0.
         12    1    1    2    0    0  0.32472084028E+02  0.19820757404E+02 -0.14348111024E+02  0.40659155859E+02  0.00000000000E+00 0. -1.
         11    1    3    3    0    0 -0.28285922312E+02 -0.14077590232E+02 -0.97107736810E+00  0.31610361265E+02  0.51100000000E-03 0. -1.
        -11    1    3    3    0    0  0.10999104887E+01 -0.24974681393E+01  0.11065691748E+02  0.11397222657E+02  0.51100000000E-03 0.  1.
        -12    1    3    3    0    0 -0.52860722043E+01 -0.32456990335E+01  0.42534966450E+01  0.75212602185E+01  0.00000000000E+00 0.  1.
</event>
<event>
 7    1  0.5849044E-013  0.5052887E+02  0.7816164E-02  0.1300439E+00
        -11   -1    0    0    0    0  0.00000000000E+00  0.00000000000E+00  0.45593999997E+02  0.45594000000E+02  0.51100000000E-03 0.  1.
         11   -1    0    0    0    0 -0.00000000000E+00 -0.00000000000E+00 -0.45593999997E+02  0.45594000000E+02  0.51100000000E-03 0. -1.
    9900012    2    1    2    0    0  0.14532375476E+02 -0.40296250304E+00  0.37971210865E+02  0.50528866090E+02  0.30000018967E+02 0.  0.
         12    1    1    2    0    0 -0.14532375476E+02  0.40296250304E+00 -0.37971210865E+02  0.40659133910E+02  0.00000000000E+00 0. -1.
         11    1    3    3    0    0  0.10520022960E+02  0.48872983776E+01  0.63271633302E+01  0.13213234448E+02  0.51100000000E-03 0. -1.
        -11    1    3    3    0    0  0.56581769774E+01 -0.10782052787E+02  0.27971961276E+02  0.30507347425E+02  0.51100000000E-03 0.  1.
        -12    1    3    3    0    0 -0.16458244611E+01  0.54917919060E+01  0.36720862587E+01  0.68082842176E+01  0.00000000000E+00 0.  1.
</event>
<event>
 7    1  0.5849044E-013  0.5052886E+02  0.7816164E-02  0.1300439E+00
        -11   -1    0    0    0    0  0.00000000000E+00  0.00000000000E+00  0.45593999997E+02  0.45594000000E+02  0.51100000000E-03 0.  1.
         11   -1    0    0    0    0 -0.00000000000E+00 -0.00000000000E+00 -0.45593999997E+02  0.45594000000E+02  0.51100000000E-03 0. -1.
    9900012    2    1    2    0    0  0.13138917090E+02  0.33702293213E+02  0.18565829244E+02  0.50528859261E+02  0.29999998210E+02 0.  0.
         12    1    1    2    0    0 -0.13138917090E+02 -0.33702293213E+02 -0.18565829244E+02  0.40659140739E+02  0.00000000000E+00 0. -1.
         11    1    3    3    0    0  0.10917171345E+02  0.12051323742E+02  0.36684034821E+01  0.16669619627E+02  0.51100000000E-03 0. -1.
        -11    1    3    3    0    0 -0.49674734705E+01  0.10303922672E+02  0.16766676642E+02  0.20296996354E+02  0.51100000000E-03 0.  1.
         12    1    3    3    0    0  0.71892192148E+01  0.11347046798E+02 -0.18692508794E+01  0.13562243281E+02  0.00000000000E+00 0. -1.
</event>
<event>
 7    1  0.5849044E-013  0.5052885E+02  0.7816164E-02  0.1300439E+00
        -11   -1    0    0    0    0  0.00000000000E+00  0.00000000000E+00  0.45593999997E+02  0.45594000000E+02  0.51100000000E-03 0. -1.
         11   -1    0    0    0    0 -0.00000000000E+00 -0.00000000000E+00 -0.45593999997E+02  0.45594000000E+02  0.51100000000E-03 0.  1.
    9900012    2    1    2    0    0  0.14235586788E+01 -0.39442719214E+02  0.97678881316E+01  0.50528852729E+02  0.29999978354E+02 0.  0.
         12    1    1    2    0    0 -0.14235586788E+01  0.39442719214E+02 -0.97678881316E+01  0.40659147271E+02  0.00000000000E+00 0. -1.
         11    1    3    3    0    0  0.98886021928E+01 -0.67581576807E+01  0.14554935193E+01  0.12065471819E+02  0.51100000000E-03 0. -1.
        -11    1    3    3    0    0 -0.10292797118E+02 -0.33547673229E+02  0.63788553607E+01  0.35666200352E+02  0.51100000000E-03 0.  1.
        -12    1    3    3    0    0  0.18277536035E+01  0.86311169616E+00  0.19335392517E+01  0.27971805578E+01  0.00000000000E+00 0.  1.
</event>
<event>
 7    1  0.5849044E-013  0.5052886E+02  0.7816164E-02  0.1300439E+00
        -11   -1    0    0    0    0  0.00000000000E+00  0.00000000000E+00  0.45593999997E+02  0.45594000000E+02  0.51100000000E-03 0. -1.
         11   -1    0    0    0    0 -0.00000000000E+00 -0.00000000000E+00 -0.45593999997E+02  0.45594000000E+02  0.51100000000E-03 0.  1.
    9900012    2    1    2    0    0  0.12434232595E+02  0.38433656785E+02  0.46270774685E+01  0.50528856379E+02  0.29999989450E+02 0.  0.
         12    1    1    2    0    0 -0.12434232595E+02 -0.38433656785E+02 -0.46270774685E+01  0.40659143621E+02  0.00000000000E+00 0. -1.
         11    1    3    3    0    0 -0.49322535266E+01  0.49446554166E+01 -0.25311127587E+01  0.74285445477E+01  0.51100000000E-03 0. -1.
        -11    1    3    3    0    0  0.11134372617E+02  0.31161031873E+02  0.11640730088E+02  0.35078351703E+02  0.51100000000E-03 0.  1.
        -12    1    3    3    0    0  0.62321135045E+01  0.23279694951E+01 -0.44825398604E+01  0.80219601285E+01  0.00000000000E+00 0.  1.
</event>
<event>
 7    1  0.5849044E-013  0.5052886E+02  0.7816164E-02  0.1300439E+00
        -11   -1    0    0    0    0  0.00000000000E+00  0.00000000000E+00  0.45593999997E+02  0.45594000000E+02  0.51100000000E-03 0.  1.
         11   -1    0    0    0    0 -0.00000000000E+00 -0.00000000000E+00 -0.45593999997E+02  0.45594000000E+02  0.51100000000E-03 0. -1.
    9900012    2    1    2    0    0 -0.26205861127E+01 -0.36745115762E+02  0.17207397065E+02  0.50528861818E+02  0.30000005983E+02 0.  0.
         12    1    1    2    0    0  0.26205861127E+01  0.36745115762E+02 -0.17207397065E+02  0.40659138182E+02  0.00000000000E+00 0. -1.
         11    1    3    3    0    0  0.15286990292E+01  0.31845426711E+01 -0.35977863533E+01  0.50420531186E+01  0.51100000000E-03 0. -1.
        -11    1    3    3    0    0 -0.26667214191E+01 -0.22078634033E+02  0.87658242172E+01  0.23904333464E+02  0.51100000000E-03 0.  1.
         12    1    3    3    0    0 -0.14825637228E+01 -0.17851024400E+02  0.12039359201E+02  0.21582475236E+02  0.00000000000E+00 0. -1.
</event>
<event>
 7    1  0.5849044E-013  0.5052886E+02  0.7816164E-02  0.1300439E+00
        -11   -1    0    0    0    0  0.00000000000E+00  0.00000000000E+00  0.45593999997E+02  0.45594000000E+02  0.51100000000E-03 0.  1.
         11   -1    0    0    0    0 -0.00000000000E+00 -0.00000000000E+00 -0.45593999997E+02  0.45594000000E+02  0.51100000000E-03 0. -1.
    9900012    2    1    2    0    0  0.22166817114E+02 -0.13251221720E+02  0.31403874061E+02  0.50528856329E+02  0.29999989297E+02 0.  0.
         12    1    1    2    0    0 -0.22166817114E+02  0.13251221720E+02 -0.31403874061E+02  0.40659143671E+02  0.00000000000E+00 0. -1.
         11    1    3    3    0    0  0.17992843021E+02  0.18754012193E+01  0.44510081386E+01  0.18629841744E+02  0.51100000000E-03 0. -1.
        -11    1    3    3    0    0 -0.18556394791E+01 -0.32886444385E+01  0.59002485951E+01  0.70051062707E+01  0.51100000000E-03 0.  1.
         12    1    3    3    0    0  0.60296135727E+01 -0.11837978501E+02  0.21052617327E+02  0.24893908314E+02  0.00000000000E+00 0. -1.
</event>
<event>
 7    1  0.5849044E-013  0.5052886E+02  0.7816164E-02  0.1300439E+00
        -11   -1    0    0    0    0  0.00000000000E+00  0.00000000000E+00  0.45593999997E+02  0.45594000000E+02  0.51100000000E-03 0.  1.
         11   -1    0    0    0    0 -0.00000000000E+00 -0.00000000000E+00 -0.45593999997E+02  0.45594000000E+02  0.51100000000E-03 0. -1.
    9900012    2    1    2    0    0  0.11339800796E+01 -0.16409238809E+02  0.37183550900E+02  0.50528862200E+02  0.30000007144E+02 0.  0.
         12    1    1    2    0    0 -0.11339800796E+01  0.16409238809E+02 -0.37183550900E+02  0.40659137800E+02  0.00000000000E+00 0. -1.
         11    1    3    3    0    0 -0.26456918217E+01 -0.10735647792E+02  0.13745253640E+01  0.11141954002E+02  0.51100000000E-03 0. -1.
        -11    1    3    3    0    0  0.83690326100E+01  0.86412156169E+00  0.18126634000E+02  0.19984050473E+02  0.51100000000E-03 0.  1.
         12    1    3    3    0    0 -0.45893607087E+01 -0.65377125788E+01  0.17682391536E+02  0.19402857725E+02  0.00000000000E+00 0. -1.
</event>
<event>
 7    1  0.5849044E-013  0.5052884E+02  0.7816164E-02  0.1300439E+00
        -11   -1    0    0    0    0  0.00000000000E+00  0.00000000000E+00  0.45593999997E+02  0.45594000000E+02  0.51100000000E-03 0.  1.
         11   -1    0    0    0    0 -0.00000000000E+00 -0.00000000000E+00 -0.45593999997E+02  0.45594000000E+02  0.51100000000E-03 0. -1.
    9900012    2    1    2    0    0  0.33567034536E+02 -0.96604647776E+01 -0.20810971911E+02  0.50528844338E+02  0.29999952850E+02 0.  0.
         12    1    1    2    0    0 -0.33567034536E+02  0.96604647776E+01  0.20810971911E+02  0.40659155662E+02  0.00000000000E+00 0. -1.
         11    1    3    3    0    0  0.12677606456E+02  0.77425112537E+01 -0.15390595331E+02  0.21390152194E+02  0.51100000000E-03 0. -1.
        -11    1    3    3    0    0  0.10840250397E+02 -0.34814513859E+01 -0.31957613734E+01  0.11825583429E+02  0.51100000000E-03 0.  1.
         12    1    3    3    0    0  0.10049177683E+02 -0.13921524645E+02 -0.22246152065E+01  0.17313108715E+02  0.00000000000E+00 0. -1.
</event>
<event>
 7    1  0.5849044E-013  0.5052885E+02  0.7816164E-02  0.1300439E+00
        -11   -1    0    0    0    0  0.00000000000E+00  0.00000000000E+00  0.45593999997E+02  0.45594000000E+02  0.51100000000E-03 0.  1.
         11   -1    0    0    0    0 -0.00000000000E+00 -0.00000000000E+00 -0.45593999997E+02  0.45594000000E+02  0.51100000000E-03 0. -1.
    9900012    2    1    2    0    0 -0.24654747299E+02  0.21581274180E+02  0.24074018915E+02  0.50528851628E+02  0.29999975009E+02 0.  0.
         12    1    1    2    0    0  0.24654747299E+02 -0.21581274180E+02 -0.24074018915E+02  0.40659148372E+02  0.00000000000E+00 0. -1.
         11    1    3    3    0    0 -0.29942742288E+01  0.14507799300E+02 -0.81630796446E+00  0.14836046564E+02  0.51100000000E-03 0. -1.
        -11    1    3    3    0    0 -0.89888769357E+01 -0.28142577959E+01  0.77738877283E+01  0.12212832848E+02  0.51100000000E-03 0.  1.
         12    1    3    3    0    0 -0.12671596135E+02  0.98877326756E+01  0.17116439151E+02  0.23479972216E+02  0.00000000000E+00 0. -1.
</event>
<event>
 7    1  0.5849044E-013  0.5052887E+02  0.7816164E-02  0.1300439E+00
        -11   -1    0    0    0    0  0.00000000000E+00  0.00000000000E+00  0.45593999997E+02  0.45594000000E+02  0.51100000000E-03 0.  1.
         11   -1    0    0    0    0 -0.00000000000E+00 -0.00000000000E+00 -0.45593999997E+02  0.45594000000E+02  0.51100000000E-03 0. -1.
    9900012    2    1    2    0    0 -0.37907578122E+02 -0.28662391070E+01  0.14420987021E+02  0.50528872213E+02  0.30000037579E+02 0.  0.
         12    1    1    2    0    0  0.37907578122E+02  0.28662391070E+01 -0.14420987021E+02  0.40659127787E+02  0.00000000000E+00 0. -1.
         11    1    3    3    0    0 -0.21603597816E+01  0.43524834153E+01  0.12966881997E+02  0.13847429193E+02  0.51100000000E-03 0. -1.
        -11    1    3    3    0    0 -0.10883031648E+02 -0.38768227251E+01  0.89323271458E+00  0.11587406838E+02  0.51100000000E-03 0.  1.
         12    1    3    3    0    0 -0.24864186693E+02 -0.33418997972E+01  0.56087230916E+00  0.25094036182E+02  0.00000000000E+00 0. -1.
</event>
<event>
 7    1  0.5849044E-013  0.5052886E+02  0.7816164E-02  0.1300439E+00
        -11   -1    0    0    0    0  0.00000000000E+00  0.00000000000E+00  0.45593999997E+02  0.45594000000E+02  0.51100000000E-03 0.  1.
         11   -1    0    0    0    0 -0.00000000000E+00 -0.00000000000E+00 -0.45593999997E+02  0.45594000000E+02  0.51100000000E-03 0. -1.
    9900012    2    1    2    0    0  0.39487519561E+02  0.63737241773E+01  0.72991073845E+01  0.50528861672E+02  0.30000005538E+02 0.  0.
         12    1    1    2    0    0 -0.39487519561E+02 -0.63737241773E+01 -0.72991073845E+01  0.40659138328E+02  0.00000000000E+00 0. -1.
         11    1    3    3    0    0  0.28346985228E+02  0.12789156326E+02  0.91824453749E+01  0.32425782864E+02  0.51100000000E-03 0. -1.
        -11    1    3    3    0    0 -0.76783451909E+00 -0.10070231374E+01  0.36786771856E+01  0.38905438623E+01  0.51100000000E-03 0.  1.
         12    1    3    3    0    0  0.11908368852E+02 -0.54084090111E+01 -0.55620151760E+01  0.14212534945E+02  0.00000000000E+00 0. -1.
</event>
<event>
 7    1  0.5849044E-013  0.5052886E+02  0.7816164E-02  0.1300439E+00
        -11   -1    0    0    0    0  0.00000000000E+00  0.00000000000E+00  0.45593999997E+02  0.45594000000E+02  0.51100000000E-03 0.  1.
         11   -1    0    0    0    0 -0.00000000000E+00 -0.00000000000E+00 -0.45593999997E+02  0.45594000000E+02  0.51100000000E-03 0. -1.
    9900012    2    1    2    0    0 -0.80377927171E+01  0.35831656704E+02 -0.17454279461E+02  0.50528860739E+02  0.30000002704E+02 0.  0.
         12    1    1    2    0    0  0.80377927171E+01 -0.35831656704E+02  0.17454279461E+02  0.40659139261E+02  0.00000000000E+00 0. -1.
         11    1    3    3    0    0  0.45164715034E+01  0.89607337956E+01 -0.37187994764E+01  0.10701529554E+02  0.51100000000E-03 0. -1.
        -11    1    3    3    0    0 -0.56264574527E+01 -0.14435986409E+01  0.26536938562E+01  0.63861640949E+01  0.51100000000E-03 0.  1.
        -12    1    3    3    0    0 -0.69278067677E+01  0.28314521549E+02 -0.16389173841E+02  0.33441167090E+02  0.00000000000E+00 0.  1.
</event>
<event>
 7    1  0.5849044E-013  0.5052886E+02  0.7816164E-02  0.1300439E+00
        -11   -1    0    0    0    0  0.00000000000E+00  0.00000000000E+00  0.45593999997E+02  0.45594000000E+02  0.51100000000E-03 0. -1.
         11   -1    0    0    0    0 -0.00000000000E+00 -0.00000000000E+00 -0.45593999997E+02  0.45594000000E+02  0.51100000000E-03 0.  1.
    9900012    2    1    2    0    0  0.28924853581E+02 -0.24069457572E+02 -0.15400642158E+02  0.50528859313E+02  0.29999998369E+02 0.  0.
         12    1    1    2    0    0 -0.28924853581E+02  0.24069457572E+02  0.15400642158E+02  0.40659140687E+02  0.00000000000E+00 0. -1.
         11    1    3    3    0    0 -0.77363835588E+00 -0.16460543685E+02 -0.63832701712E+01  0.17671846339E+02  0.51100000000E-03 0. -1.
        -11    1    3    3    0    0  0.16154324387E+02 -0.34207779947E+01 -0.93721959058E+00  0.16539114224E+02  0.51100000000E-03 0.  1.
         12    1    3    3    0    0  0.13544167550E+02 -0.41881358930E+01 -0.80801523964E+01  0.16317898750E+02  0.00000000000E+00 0. -1.
</event>
<event>
 7    1  0.5849044E-013  0.5052886E+02  0.7816164E-02  0.1300439E+00
        -11   -1    0    0    0    0  0.00000000000E+00  0.00000000000E+00  0.45593999997E+02  0.45594000000E+02  0.51100000000E-03 0.  1.
         11   -1    0    0    0    0 -0.00000000000E+00 -0.00000000000E+00 -0.45593999997E+02  0.45594000000E+02  0.51100000000E-03 0. -1.
    9900012    2    1    2    0    0  0.74964874911E+01  0.95583450460E+01  0.38802144275E+02  0.50528859760E+02  0.29999999727E+02 0.  0.
         12    1    1    2    0    0 -0.74964874911E+01 -0.95583450460E+01 -0.38802144275E+02  0.40659140240E+02  0.00000000000E+00 0. -1.
         11    1    3    3    0    0 -0.68267900602E+00  0.32672229806E+01  0.10238233104E+02  0.10768575299E+02  0.51100000000E-03 0. -1.
        -11    1    3    3    0    0  0.15253675346E+02 -0.16094983630E+01  0.23364107223E+02  0.27949000038E+02  0.51100000000E-03 0.  1.
        -12    1    3    3    0    0 -0.70745088490E+01  0.79006204284E+01  0.51998039478E+01  0.11811284422E+02  0.00000000000E+00 0.  1.
</event>
<event>
 7    1  0.5849044E-013  0.5052886E+02  0.7816164E-02  0.1300439E+00
        -11   -1    0    0    0    0  0.00000000000E+00  0.00000000000E+00  0.45593999997E+02  0.45594000000E+02  0.51100000000E-03 0.  1.
         11   -1    0    0    0    0 -0.00000000000E+00 -0.00000000000E+00 -0.45593999997E+02  0.45594000000E+02  0.51100000000E-03 0. -1.
    9900012    2    1    2    0    0 -0.29768922323E+02  0.24579804816E+00  0.27693256913E+02  0.50528860420E+02  0.30000001732E+02 0.  0.
         12    1    1    2    0    0  0.29768922323E+02 -0.24579804816E+00 -0.27693256913E+02  0.40659139580E+02  0.00000000000E+00 0. -1.
         11    1    3    3    0    0  0.60251826403E+00  0.42827545876E+01  0.82569320224E+01  0.93210483209E+01  0.51100000000E-03 0.  1.
        -11    1    3    3    0    0 -0.25518447435E+02 -0.11009333379E+02  0.13965340477E+02  0.31103493627E+02  0.51100000000E-03 0. -1.
         12    1    3    3    0    0 -0.48529931521E+01  0.69723768391E+01  0.54709844137E+01  0.10104318472E+02  0.00000000000E+00 0. -1.
</event>
<event>
 7    1  0.5849044E-013  0.5052886E+02  0.7816164E-02  0.1300439E+00
        -11   -1    0    0    0    0  0.00000000000E+00  0.00000000000E+00  0.45593999997E+02  0.45594000000E+02  0.51100000000E-03 0. -1.
         11   -1    0    0    0    0 -0.00000000000E+00 -0.00000000000E+00 -0.45593999997E+02  0.45594000000E+02  0.51100000000E-03 0.  1.
    9900012    2    1    2    0    0  0.30920149772E+02  0.97522980921E+01 -0.24535750480E+02  0.50528855498E+02  0.29999986772E+02 0.  0.
         12    1    1    2    0    0 -0.30920149772E+02 -0.97522980921E+01  0.24535750480E+02  0.40659144502E+02  0.00000000000E+00 0. -1.
         11    1    3    3    0    0  0.15520197786E+02  0.14570464334E+02 -0.23116681268E+02  0.31425402517E+02  0.51100000000E-03 0. -1.
        -11    1    3    3    0    0  0.10049990953E+02 -0.33122486137E+00 -0.50291346239E+01  0.11242963283E+02  0.51100000000E-03 0.  1.
         12    1    3    3    0    0  0.53499610328E+01 -0.44869413809E+01  0.36100654122E+01  0.78604896978E+01  0.00000000000E+00 0. -1.
</event>
<event>
 7    1  0.5849044E-013  0.5052886E+02  0.7816164E-02  0.1300439E+00
        -11   -1    0    0    0    0  0.00000000000E+00  0.00000000000E+00  0.45593999997E+02  0.45594000000E+02  0.51100000000E-03 0.  1.
         11   -1    0    0    0    0 -0.00000000000E+00 -0.00000000000E+00 -0.45593999997E+02  0.45594000000E+02  0.51100000000E-03 0. -1.
    9900012    2    1    2    0    0 -0.31330615479E+02 -0.16870845703E+02  0.19670605010E+02  0.50528860775E+02  0.30000002812E+02 0.  0.
         12    1    1    2    0    0  0.31330615479E+02  0.16870845703E+02 -0.19670605010E+02  0.40659139225E+02  0.00000000000E+00 0. -1.
         11    1    3    3    0    0 -0.18038896825E+02 -0.24147067100E+02  0.85978817847E+01  0.31343360057E+02  0.51100000000E-03 0. -1.
        -11    1    3    3    0    0 -0.77199025343E+01  0.47650216136E+01  0.88737158484E+01  0.12690356943E+02  0.51100000000E-03 0.  1.
         12    1    3    3    0    0 -0.55718161197E+01  0.25111997830E+01  0.21990073765E+01  0.64951437755E+01  0.00000000000E+00 0. -1.
</event>
<event>
 7    1  0.5849044E-013  0.5052887E+02  0.7816164E-02  0.1300439E+00
        -11   -1    0    0    0    0  0.00000000000E+00  0.00000000000E+00  0.45593999997E+02  0.45594000000E+02  0.51100000000E-03 0.  1.
         11   -1    0    0    0    0 -0.00000000000E+00 -0.00000000000E+00 -0.45593999997E+02  0.45594000000E+02  0.51100000000E-03 0. -1.
    9900012    2    1    2    0    0  0.11771039892E+01 -0.90317337106E+01  0.39625840843E+02  0.50528867568E+02  0.30000023460E+02 0.  0.
         12    1    1    2    0    0 -0.11771039892E+01  0.90317337106E+01 -0.39625840843E+02  0.40659132432E+02  0.00000000000E+00 0. -1.
         11    1    3    3    0    0 -0.40081265105E+01  0.11286384496E+00 -0.14164868119E+01  0.42525582326E+01  0.51100000000E-03 0. -1.
        -11    1    3    3    0    0  0.11487348332E+02 -0.80726723552E+01  0.21183482610E+02  0.25413916392E+02  0.51100000000E-03 0.  1.
         12    1    3    3    0    0 -0.63021178318E+01 -0.10719252004E+01  0.19858845045E+02  0.20862392943E+02  0.00000000000E+00 0. -1.
</event>
<event>
 7    1  0.5849044E-013  0.5052889E+02  0.7816164E-02  0.1300439E+00
        -11   -1    0    0    0    0  0.00000000000E+00  0.00000000000E+00  0.45593999997E+02  0.45594000000E+02  0.51100000000E-03 0. -1.
         11   -1    0    0    0    0 -0.00000000000E+00 -0.00000000000E+00 -0.45593999997E+02  0.45594000000E+02  0.51100000000E-03 0.  1.
    9900012    2    1    2    0    0  0.24497236090E+02  0.12205949363E+02 -0.30067648762E+02  0.50528889361E+02  0.30000089700E+02 0.  0.
         12    1    1    2    0    0 -0.24497236090E+02 -0.12205949363E+02  0.30067648762E+02  0.40659110639E+02  0.00000000000E+00 0. -1.
         11    1    3    3    0    0  0.17484290937E+02  0.13737361623E+02 -0.34942108825E+01  0.22508332765E+02  0.51100000000E-03 0. -1.
        -11    1    3    3    0    0  0.48357873473E+01 -0.32709260382E+01 -0.14532240381E+02  0.15661092145E+02  0.51100000000E-03 0.  1.
        -12    1    3    3    0    0  0.21771578055E+01  0.17395137787E+01 -0.12041197499E+02  0.12359464450E+02  0.00000000000E+00 0.  1.
</event>
<event>
 7    1  0.5849044E-013  0.5052886E+02  0.7816164E-02  0.1300439E+00
        -11   -1    0    0    0    0  0.00000000000E+00  0.00000000000E+00  0.45593999997E+02  0.45594000000E+02  0.51100000000E-03 0. -1.
         11   -1    0    0    0    0 -0.00000000000E+00 -0.00000000000E+00 -0.45593999997E+02  0.45594000000E+02  0.51100000000E-03 0.  1.
    9900012    2    1    2    0    0  0.51513973959E+01  0.26369434671E+02 -0.30516905967E+02  0.50528861669E+02  0.30000005530E+02 0.  0.
         12    1    1    2    0    0 -0.51513973959E+01 -0.26369434671E+02  0.30516905967E+02  0.40659138331E+02  0.00000000000E+00 0. -1.
         11    1    3    3    0    0  0.94591108964E+01  0.34480542379E+01 -0.14215669687E+02  0.17419791098E+02  0.51100000000E-03 0. -1.
        -11    1    3    3    0    0  0.24571164981E-01  0.24224510665E+02 -0.12870456552E+02  0.27431299145E+02  0.51100000000E-03 0.  1.
         12    1    3    3    0    0 -0.43322846655E+01 -0.13031302315E+01 -0.34307797280E+01  0.56777714259E+01  0.00000000000E+00 0. -1.
</event>
<event>
 7    1  0.5849044E-013  0.5052886E+02  0.7816164E-02  0.1300439E+00
        -11   -1    0    0    0    0  0.00000000000E+00  0.00000000000E+00  0.45593999997E+02  0.45594000000E+02  0.51100000000E-03 0. -1.
         11   -1    0    0    0    0 -0.00000000000E+00 -0.00000000000E+00 -0.45593999997E+02  0.45594000000E+02  0.51100000000E-03 0.  1.
    9900012    2    1    2    0    0 -0.11114691578E+02  0.37946089647E+02 -0.94722535438E+01  0.50528859877E+02  0.30000000081E+02 0.  0.
         12    1    1    2    0    0  0.11114691578E+02 -0.37946089647E+02  0.94722535438E+01  0.40659140123E+02  0.00000000000E+00 0. -1.
         11    1    3    3    0    0 -0.64447455483E+01  0.78784532969E+01  0.58844042675E+01  0.11757167404E+02  0.51100000000E-03 0. -1.
        -11    1    3    3    0    0 -0.80490687337E+01  0.27865914391E+02 -0.17823753532E+02  0.34043837659E+02  0.51100000000E-03 0.  1.
        -12    1    3    3    0    0  0.33791227042E+01  0.22017219592E+01  0.24670957210E+01  0.47278548129E+01  0.00000000000E+00 0.  1.
</event>
<event>
 7    1  0.5849044E-013  0.5052886E+02  0.7816164E-02  0.1300439E+00
        -11   -1    0    0    0    0  0.00000000000E+00  0.00000000000E+00  0.45593999997E+02  0.45594000000E+02  0.51100000000E-03 0.  1.
         11   -1    0    0    0    0 -0.00000000000E+00 -0.00000000000E+00 -0.45593999997E+02  0.45594000000E+02  0.51100000000E-03 0. -1.
    9900012    2    1    2    0    0  0.23062288992E+02  0.33068468339E+02  0.52699899445E+01  0.50528861226E+02  0.30000004181E+02 0.  0.
         12    1    1    2    0    0 -0.23062288992E+02 -0.33068468339E+02 -0.52699899445E+01  0.40659138774E+02  0.00000000000E+00 0. -1.
         11    1    3    3    0    0 -0.26460882009E+01  0.16025783404E+02  0.37852186396E+01  0.16677991393E+02  0.51100000000E-03 0. -1.
        -11    1    3    3    0    0  0.19847039662E+02  0.53937413244E+01 -0.93358501932E+00  0.20588079319E+02  0.51100000000E-03 0.  1.
         12    1    3    3    0    0  0.58613375315E+01  0.11648943611E+02  0.24183563243E+01  0.13262790514E+02  0.00000000000E+00 0. -1.
</event>
<event>
 7    1  0.5849044E-013  0.5052887E+02  0.7816164E-02  0.1300439E+00
        -11   -1    0    0    0    0  0.00000000000E+00  0.00000000000E+00  0.45593999997E+02  0.45594000000E+02  0.51100000000E-03 0. -1.
         11   -1    0    0    0    0 -0.00000000000E+00 -0.00000000000E+00 -0.45593999997E+02  0.45594000000E+02  0.51100000000E-03 0.  1.
    9900012    2    1    2    0    0  0.23190619353E+02 -0.33389720084E+02  0.69772031478E+00  0.50528867607E+02  0.30000023579E+02 0.  0.
         12    1    1    2    0    0 -0.23190619353E+02  0.33389720084E+02 -0.69772031478E+00  0.40659132393E+02  0.00000000000E+00 0. -1.
         11    1    3    3    0    0  0.16392490275E+02 -0.16688839306E+02  0.13559714356E+02  0.27038804494E+02  0.51100000000E-03 0. -1.
        -11    1    3    3    0    0  0.54226763986E+01 -0.10735652025E+02 -0.39138396153E+01  0.12648232466E+02  0.51100000000E-03 0.  1.
         12    1    3    3    0    0  0.13754526793E+01 -0.59652287535E+01 -0.89481544256E+01  0.10841830647E+02  0.00000000000E+00 0. -1.
</event>
<event>
 7    1  0.5849044E-013  0.5052886E+02  0.7816164E-02  0.1300439E+00
        -11   -1    0    0    0    0  0.00000000000E+00  0.00000000000E+00  0.45593999997E+02  0.45594000000E+02  0.51100000000E-03 0. -1.
         11   -1    0    0    0    0 -0.00000000000E+00 -0.00000000000E+00 -0.45593999997E+02  0.45594000000E+02  0.51100000000E-03 0.  1.
    9900012    2    1    2    0    0 -0.30646992468E+02  0.23401190336E+02 -0.12896204488E+02  0.50528856542E+02  0.29999989946E+02 0.  0.
         12    1    1    2    0    0  0.30646992468E+02 -0.23401190336E+02  0.12896204488E+02  0.40659143458E+02  0.00000000000E+00 0. -1.
         11    1    3    3    0    0  0.76680419222E-01 -0.46465586779E+01 -0.52010312720E+01  0.69747483100E+01  0.51100000000E-03 0. -1.
        -11    1    3    3    0    0 -0.30500928708E+02  0.28870066005E+02 -0.77231838492E+01  0.42701697065E+02  0.51100000000E-03 0.  1.
        -12    1    3    3    0    0 -0.22274417977E+00 -0.82231699078E+00  0.28010633043E-01  0.85241116752E+00  0.00000000000E+00 0.  1.
</event>
<event>
 7    1  0.5849044E-013  0.5052887E+02  0.7816164E-02  0.1300439E+00
        -11   -1    0    0    0    0  0.00000000000E+00  0.00000000000E+00  0.45593999997E+02  0.45594000000E+02  0.51100000000E-03 0.  1.
         11   -1    0    0    0    0 -0.00000000000E+00 -0.00000000000E+00 -0.45593999997E+02  0.45594000000E+02  0.51100000000E-03 0. -1.
    9900012    2    1    2    0    0 -0.89871694972E+00 -0.36655693889E+02  0.17570361171E+02  0.50528865991E+02  0.30000018667E+02 0.  0.
         12    1    1    2    0    0  0.89871694972E+00  0.36655693889E+02 -0.17570361171E+02  0.40659134009E+02  0.00000000000E+00 0. -1.
         11    1    3    3    0    0 -0.12640070202E+02 -0.92407254941E+01  0.22246760224E+01  0.15814915935E+02  0.51100000000E-03 0. -1.
        -11    1    3    3    0    0  0.12225138084E+02 -0.21376009685E+02  0.98087457444E+01  0.26506589456E+02  0.51100000000E-03 0.  1.
         12    1    3    3    0    0 -0.48378483165E+00 -0.60389587098E+01  0.55369394043E+01  0.82073606006E+01  0.00000000000E+00 0. -1.
</event>
<event>
 7    1  0.5849044E-013  0.5052886E+02  0.7816164E-02  0.1300439E+00
        -11   -1    0    0    0    0  0.00000000000E+00  0.00000000000E+00  0.45593999997E+02  0.45594000000E+02  0.51100000000E-03 0. -1.
         11   -1    0    0    0    0 -0.00000000000E+00 -0.00000000000E+00 -0.45593999997E+02  0.45594000000E+02  0.51100000000E-03 0.  1.
    9900012    2    1    2    0    0  0.99759436655E+01 -0.37212504949E+02 -0.12995229868E+02  0.50528856183E+02  0.29999988854E+02 0.  0.
         12    1    1    2    0    0 -0.99759436655E+01  0.37212504949E+02  0.12995229868E+02  0.40659143817E+02  0.00000000000E+00 0. -1.
         11    1    3    3    0    0  0.53077235737E+01 -0.20491671709E+02  0.24736466220E+01  0.21311955960E+02  0.51100000000E-03 0. -1.
        -11    1    3    3    0    0  0.71911834879E+01 -0.27463276271E+00 -0.86063769796E+01  0.11218657143E+02  0.51100000000E-03 0.  1.
        -12    1    3    3    0    0 -0.25229633961E+01 -0.16446200478E+02 -0.68624995100E+01  0.17998243081E+02  0.00000000000E+00 0.  1.
</event>
<event>
 7    1  0.5849044E-013  0.5052886E+02  0.7816164E-02  0.1300439E+00
        -11   -1    0    0    0    0  0.00000000000E+00  0.00000000000E+00  0.45593999997E+02  0.45594000000E+02  0.51100000000E-03 0.  1.
         11   -1    0    0    0    0 -0.00000000000E+00 -0.00000000000E+00 -0.45593999997E+02  0.45594000000E+02  0.51100000000E-03 0. -1.
    9900012    2    1    2    0    0  0.25915368170E+02 -0.27065109564E+02  0.15780981146E+02  0.50528857989E+02  0.29999994344E+02 0.  0.
         12    1    1    2    0    0 -0.25915368170E+02  0.27065109564E+02 -0.15780981146E+02  0.40659142011E+02  0.00000000000E+00 0. -1.
         11    1    3    3    0    0 -0.44292839765E+01 -0.13945983273E+02  0.33085733676E+01  0.15001855351E+02  0.51100000000E-03 0. -1.
        -11    1    3    3    0    0  0.14009460211E+02 -0.66603571943E+01  0.77351051175E+01  0.17333700840E+02  0.51100000000E-03 0.  1.
        -12    1    3    3    0    0  0.16335191935E+02 -0.64587690974E+01  0.47373026609E+01  0.18193301798E+02  0.00000000000E+00 0.  1.
</event>
<event>
 7    1  0.5849044E-013  0.5052886E+02  0.7816164E-02  0.1300439E+00
        -11   -1    0    0    0    0  0.00000000000E+00  0.00000000000E+00  0.45593999997E+02  0.45594000000E+02  0.51100000000E-03 0. -1.
         11   -1    0    0    0    0 -0.00000000000E+00 -0.00000000000E+00 -0.45593999997E+02  0.45594000000E+02  0.51100000000E-03 0.  1.
    9900012    2    1    2    0    0 -0.17588976512E+02 -0.17857175211E+02 -0.32014289094E+02  0.50528861944E+02  0.30000006366E+02 0.  0.
         12    1    1    2    0    0  0.17588976512E+02  0.17857175211E+02  0.32014289094E+02  0.40659138056E+02  0.00000000000E+00 0. -1.
         11    1    3    3    0    0  0.14183542132E+01  0.18149987904E+01 -0.91762000800E+01  0.94608983428E+01  0.51100000000E-03 0. -1.
        -11    1    3    3    0    0 -0.18081066873E+02 -0.41202165045E+01 -0.12853582432E+02  0.22563593351E+02  0.51100000000E-03 0.  1.
        -12    1    3    3    0    0 -0.92626385262E+00 -0.15551957497E+02 -0.99845065819E+01  0.18504370251E+02  0.00000000000E+00 0.  1.
</event>
<event>
 7    1  0.5849044E-013  0.5052892E+02  0.7816164E-02  0.1300439E+00
        -11   -1    0    0    0    0  0.00000000000E+00  0.00000000000E+00  0.45593999997E+02  0.45594000000E+02  0.51100000000E-03 0.  1.
         11   -1    0    0    0    0 -0.00000000000E+00 -0.00000000000E+00 -0.45593999997E+02  0.45594000000E+02  0.51100000000E-03 0. -1.
    9900012    2    1    2    0    0 -0.10190094424E+02  0.39073500381E+02 -0.47522563564E+01  0.50528924791E+02  0.30000197393E+02 0.  0.
         12    1    1    2    0    0  0.10190094424E+02 -0.39073500381E+02  0.47522563564E+01  0.40659075209E+02  0.00000000000E+00 0. -1.
         11    1    3    3    0    0 -0.95541673716E+00 -0.39221889760E+01  0.20099586020E+01  0.45095810613E+01  0.51100000000E-03 0. -1.
        -11    1    3    3    0    0 -0.22313577710E+01  0.29294918741E+02 -0.43690681026E+00  0.29383024169E+02  0.51100000000E-03 0.  1.
         12    1    3    3    0    0 -0.70033199157E+01  0.13700770617E+02 -0.63253081481E+01  0.16636319560E+02  0.00000000000E+00 0. -1.
</event>
<event>
 7    1  0.5849044E-013  0.5052888E+02  0.7816164E-02  0.1300439E+00
        -11   -1    0    0    0    0  0.00000000000E+00  0.00000000000E+00  0.45593999997E+02  0.45594000000E+02  0.51100000000E-03 0. -1.
         11   -1    0    0    0    0 -0.00000000000E+00 -0.00000000000E+00 -0.45593999997E+02  0.45594000000E+02  0.51100000000E-03 0.  1.
    9900012    2    1    2    0    0 -0.82881790703E+01  0.22687295448E+02 -0.32707130816E+02  0.50528884254E+02  0.30000074178E+02 0.  0.
         12    1    1    2    0    0  0.82881790703E+01 -0.22687295448E+02  0.32707130816E+02  0.40659115746E+02  0.00000000000E+00 0. -1.
         11    1    3    3    0    0  0.39364224890E+01 -0.23656214441E+01 -0.67427784977E+01  0.81582258463E+01  0.51100000000E-03 0. -1.
        -11    1    3    3    0    0 -0.12883168427E+02  0.25459674373E+02 -0.28131547092E+02  0.40069377209E+02  0.51100000000E-03 0.  1.
        -12    1    3    3    0    0  0.65856686725E+00 -0.40675748015E+00  0.21671947739E+01  0.23012811984E+01  0.00000000000E+00 0.  1.
</event>
<event>
 7    1  0.5849044E-013  0.5052885E+02  0.7816164E-02  0.1300439E+00
        -11   -1    0    0    0    0  0.00000000000E+00  0.00000000000E+00  0.45593999997E+02  0.45594000000E+02  0.51100000000E-03 0.  1.
         11   -1    0    0    0    0 -0.00000000000E+00 -0.00000000000E+00 -0.45593999997E+02  0.45594000000E+02  0.51100000000E-03 0. -1.
    9900012    2    1    2    0    0  0.36050949211E+02  0.87090550017E+01  0.16662774720E+02  0.50528848024E+02  0.29999964053E+02 0.  0.
         12    1    1    2    0    0 -0.36050949211E+02 -0.87090550017E+01 -0.16662774720E+02  0.40659151976E+02  0.00000000000E+00 0. -1.
         11    1    3    3    0    0  0.42454763530E+01  0.11893605866E+02  0.10934733573E+02  0.16704799565E+02  0.51100000000E-03 0. -1.
        -11    1    3    3    0    0  0.27991776188E+02 -0.15962478569E+01  0.79374072902E+01  0.29139148515E+02  0.51100000000E-03 0.  1.
         12    1    3    3    0    0  0.38136966698E+01 -0.15883030071E+01 -0.22093661424E+01  0.46848999437E+01  0.00000000000E+00 0. -1.
</event>
<event>
 7    1  0.5849044E-013  0.5052895E+02  0.7816164E-02  0.1300438E+00
        -11   -1    0    0    0    0  0.00000000000E+00  0.00000000000E+00  0.45593999997E+02  0.45594000000E+02  0.51100000000E-03 0.  1.
         11   -1    0    0    0    0 -0.00000000000E+00 -0.00000000000E+00 -0.45593999997E+02  0.45594000000E+02  0.51100000000E-03 0. -1.
    9900012    2    1    2    0    0  0.45341115203E+01 -0.29455419818E+02  0.27658243457E+02  0.50528949900E+02  0.30000273714E+02 0.  0.
         12    1    1    2    0    0 -0.45341115203E+01  0.29455419818E+02 -0.27658243457E+02  0.40659050100E+02  0.00000000000E+00 0. -1.
         11    1    3    3    0    0  0.11733401551E+02 -0.20339618558E+01  0.65754681596E+01  0.13603179575E+02  0.51100000000E-03 0. -1.
        -11    1    3    3    0    0 -0.82954301110E+01 -0.26586627132E+02  0.21804003904E+02  0.35370573779E+02  0.51100000000E-03 0.  1.
        -12    1    3    3    0    0  0.10961400807E+01 -0.83483083009E+00 -0.72122860650E+00  0.15551965452E+01  0.00000000000E+00 0.  1.
</event>
<event>
 7    1  0.5849044E-013  0.5052886E+02  0.7816164E-02  0.1300439E+00
        -11   -1    0    0    0    0  0.00000000000E+00  0.00000000000E+00  0.45593999997E+02  0.45594000000E+02  0.51100000000E-03 0.  1.
         11   -1    0    0    0    0 -0.00000000000E+00 -0.00000000000E+00 -0.45593999997E+02  0.45594000000E+02  0.51100000000E-03 0. -1.
    9900012    2    1    2    0    0 -0.39170461443E+02 -0.44727969369E+01  0.99415492564E+01  0.50528863711E+02  0.30000011737E+02 0.  0.
         12    1    1    2    0    0  0.39170461443E+02  0.44727969369E+01 -0.99415492564E+01  0.40659136289E+02  0.00000000000E+00 0. -1.
         11    1    3    3    0    0 -0.68803454380E+01 -0.12249250990E+02  0.91866319060E+01  0.16786229749E+02  0.51100000000E-03 0. -1.
        -11    1    3    3    0    0 -0.93869499756E+01  0.49533624579E+01 -0.56217304040E+00  0.10628577904E+02  0.51100000000E-03 0.  1.
         12    1    3    3    0    0 -0.22903166030E+02  0.28230915953E+01  0.13170903909E+01  0.23114056058E+02  0.00000000000E+00 0. -1.
</event>
<event>
 7    1  0.5849044E-013  0.5052886E+02  0.7816164E-02  0.1300439E+00
        -11   -1    0    0    0    0  0.00000000000E+00  0.00000000000E+00  0.45593999997E+02  0.45594000000E+02  0.51100000000E-03 0.  1.
         11   -1    0    0    0    0 -0.00000000000E+00 -0.00000000000E+00 -0.45593999997E+02  0.45594000000E+02  0.51100000000E-03 0. -1.
    9900012    2    1    2    0    0  0.36350524835E+02 -0.60974495341E+01 -0.17164666350E+02  0.50528864279E+02  0.30000013463E+02 0.  0.
         12    1    1    2    0    0 -0.36350524835E+02  0.60974495341E+01  0.17164666350E+02  0.40659135721E+02  0.00000000000E+00 0. -1.
         11    1    3    3    0    0  0.38820673226E+01  0.48651275558E+01 -0.69418641816E+01  0.93235932670E+01  0.51100000000E-03 0. -1.
        -11    1    3    3    0    0  0.34556859267E+02 -0.68462615958E+01 -0.82264597360E+01  0.36176269298E+02  0.51100000000E-03 0.  1.
        -12    1    3    3    0    0 -0.20884017546E+01 -0.41163154940E+01 -0.19963424327E+01  0.50290017144E+01  0.00000000000E+00 0.  1.
</event>
<event>
 7    1  0.5849044E-013  0.5052885E+02  0.7816164E-02  0.1300439E+00
        -11   -1    0    0    0    0  0.00000000000E+00  0.00000000000E+00  0.45593999997E+02  0.45594000000E+02  0.51100000000E-03 0.  1.
         11   -1    0    0    0    0 -0.00000000000E+00 -0.00000000000E+00 -0.45593999997E+02  0.45594000000E+02  0.51100000000E-03 0. -1.
    9900012    2    1    2    0    0  0.31376322179E+02  0.23146709933E+02  0.11529199593E+02  0.50528853213E+02  0.29999979826E+02 0.  0.
         12    1    1    2    0    0 -0.31376322179E+02 -0.23146709933E+02 -0.11529199593E+02  0.40659146787E+02  0.00000000000E+00 0. -1.
         11    1    3    3    0    0  0.13690567781E+02 -0.30627772094E+00 -0.57758959113E+01  0.14862248351E+02  0.51100000000E-03 0. -1.
        -11    1    3    3    0    0  0.30922584902E+01  0.12367909331E+02  0.85988566347E+01  0.15377502381E+02  0.51100000000E-03 0.  1.
        -12    1    3    3    0    0  0.14593495908E+02  0.11085078322E+02  0.87062388695E+01  0.20289102481E+02  0.00000000000E+00 0.  1.
</event>
<event>
 7    1  0.5849044E-013  0.5052885E+02  0.7816164E-02  0.1300439E+00
        -11   -1    0    0    0    0  0.00000000000E+00  0.00000000000E+00  0.45593999997E+02  0.45594000000E+02  0.51100000000E-03 0. -1.
         11   -1    0    0    0    0 -0.00000000000E+00 -0.00000000000E+00 -0.45593999997E+02  0.45594000000E+02  0.51100000000E-03 0.  1.
    9900012    2    1    2    0    0  0.21758041974E+02  0.29798716363E+02 -0.17081874381E+02  0.50528851954E+02  0.29999976001E+02 0.  0.
         12    1    1    2    0    0 -0.21758041974E+02 -0.29798716363E+02  0.17081874381E+02  0.40659148046E+02  0.00000000000E+00 0. -1.
         11    1    3    3    0    0  0.11409071556E+02  0.25142485490E+01  0.47120887801E+01  0.12597306873E+02  0.51100000000E-03 0. -1.
        -11    1    3    3    0    0  0.25254248001E+01  0.18687183910E+02 -0.98889512791E+01  0.21292721070E+02  0.51100000000E-03 0.  1.
         12    1    3    3    0    0  0.78235456183E+01  0.85972839042E+01 -0.11905011882E+02  0.16638824011E+02  0.00000000000E+00 0. -1.
</event>
<event>
 7    1  0.5849044E-013  0.5052886E+02  0.7816164E-02  0.1300439E+00
        -11   -1    0    0    0    0  0.00000000000E+00  0.00000000000E+00  0.45593999997E+02  0.45594000000E+02  0.51100000000E-03 0. -1.
         11   -1    0    0    0    0 -0.00000000000E+00 -0.00000000000E+00 -0.45593999997E+02  0.45594000000E+02  0.51100000000E-03 0.  1.
    9900012    2    1    2    0    0 -0.17718995398E+02  0.17285482985E+02 -0.32255461395E+02  0.50528861916E+02  0.30000006280E+02 0.  0.
         12    1    1    2    0    0  0.17718995398E+02 -0.17285482985E+02  0.32255461395E+02  0.40659138084E+02  0.00000000000E+00 0. -1.
         11    1    3    3    0    0 -0.29967868685E+01  0.10373099348E+02  0.21022965697E+01  0.11000071488E+02  0.51100000000E-03 0. -1.
        -11    1    3    3    0    0 -0.83732356310E+01  0.69866094051E+01 -0.29744012218E+02  0.31680120722E+02  0.51100000000E-03 0.  1.
        -12    1    3    3    0    0 -0.63489728984E+01 -0.74225768498E-01 -0.46137457472E+01  0.78486697056E+01  0.00000000000E+00 0.  1.
</event>
<event>
 7    1  0.5849044E-013  0.5052887E+02  0.7816164E-02  0.1300439E+00
        -11   -1    0    0    0    0  0.00000000000E+00  0.00000000000E+00  0.45593999997E+02  0.45594000000E+02  0.51100000000E-03 0.  1.
         11   -1    0    0    0    0 -0.00000000000E+00 -0.00000000000E+00 -0.45593999997E+02  0.45594000000E+02  0.51100000000E-03 0. -1.
    9900012    2    1    2    0    0  0.36558819791E+01 -0.74732260352E+01  0.39798869906E+02  0.50528872781E+02  0.30000039305E+02 0.  0.
         12    1    1    2    0    0 -0.36558819791E+01  0.74732260352E+01 -0.39798869906E+02  0.40659127219E+02  0.00000000000E+00 0. -1.
         11    1    3    3    0    0  0.75814533381E+01  0.23354199344E+00  0.18496167575E+01  0.78073080503E+01  0.51100000000E-03 0. -1.
        -11    1    3    3    0    0 -0.10066344603E+02 -0.13403571940E+01  0.25518894840E+02  0.27465284364E+02  0.51100000000E-03 0.  1.
        -12    1    3    3    0    0  0.61407732441E+01 -0.63664108346E+01  0.12430358308E+02  0.15256280366E+02  0.00000000000E+00 0.  1.
</event>
<event>
 7    1  0.5849044E-013  0.5052886E+02  0.7816164E-02  0.1300439E+00
        -11   -1    0    0    0    0  0.00000000000E+00  0.00000000000E+00  0.45593999997E+02  0.45594000000E+02  0.51100000000E-03 0.  1.
         11   -1    0    0    0    0 -0.00000000000E+00 -0.00000000000E+00 -0.45593999997E+02  0.45594000000E+02  0.51100000000E-03 0. -1.
    9900012    2    1    2    0    0 -0.37131426958E+02 -0.62849830686E+01 -0.15327169898E+02  0.50528855675E+02  0.29999987311E+02 0.  0.
         12    1    1    2    0    0  0.37131426958E+02  0.62849830686E+01  0.15327169898E+02  0.40659144325E+02  0.00000000000E+00 0. -1.
         11    1    3    3    0    0 -0.26402752709E+02 -0.15071987232E+02 -0.59001339894E+01  0.30969044724E+02  0.51100000000E-03 0. -1.
        -11    1    3    3    0    0  0.15222176333E+01  0.36213184695E-01  0.40854347633E+00  0.15765043454E+01  0.51100000000E-03 0.  1.
         12    1    3    3    0    0 -0.12250891882E+02  0.87507909785E+01 -0.98355793853E+01  0.17983306606E+02  0.00000000000E+00 0. -1.
</event>
<event>
 7    1  0.5849044E-013  0.5052886E+02  0.7816164E-02  0.1300439E+00
        -11   -1    0    0    0    0  0.00000000000E+00  0.00000000000E+00  0.45593999997E+02  0.45594000000E+02  0.51100000000E-03 0.  1.
         11   -1    0    0    0    0 -0.00000000000E+00 -0.00000000000E+00 -0.45593999997E+02  0.45594000000E+02  0.51100000000E-03 0. -1.
    9900012    2    1    2    0    0  0.30814555908E+02 -0.25039799494E+02  0.87542716164E+01  0.50528859748E+02  0.29999999691E+02 0.  0.
         12    1    1    2    0    0 -0.30814555908E+02  0.25039799494E+02 -0.87542716164E+01  0.40659140252E+02  0.00000000000E+00 0. -1.
         11    1    3    3    0    0 -0.31924450646E+01 -0.12081377653E+01 -0.21062242118E+01  0.40109204732E+01  0.51100000000E-03 0. -1.
        -11    1    3    3    0    0  0.35880827206E+02 -0.23375191386E+02  0.11732405757E+02  0.44401381492E+02  0.51100000000E-03 0.  1.
        -12    1    3    3    0    0 -0.18738262334E+01 -0.45647034207E+00 -0.87190992843E+00  0.21165577832E+01  0.00000000000E+00 0.  1.
</event>
<event>
 7    1  0.5849044E-013  0.5052886E+02  0.7816164E-02  0.1300439E+00
        -11   -1    0    0    0    0  0.00000000000E+00  0.00000000000E+00  0.45593999997E+02  0.45594000000E+02  0.51100000000E-03 0.  1.
         11   -1    0    0    0    0 -0.00000000000E+00 -0.00000000000E+00 -0.45593999997E+02  0.45594000000E+02  0.51100000000E-03 0. -1.
    9900012    2    1    2    0    0 -0.25510367608E+02  0.19362407981E+02  0.25049634114E+02  0.50528857516E+02  0.29999992905E+02 0.  0.
         12    1    1    2    0    0  0.25510367608E+02 -0.19362407981E+02 -0.25049634114E+02  0.40659142484E+02  0.00000000000E+00 0. -1.
         11    1    3    3    0    0 -0.23971030612E+02  0.23735985212E+02  0.19804220745E+02  0.39117955751E+02  0.51100000000E-03 0.  1.
        -11    1    3    3    0    0  0.27984972746E+01 -0.35205171277E+01  0.53494969135E+01  0.69887584971E+01  0.51100000000E-03 0. -1.
        -12    1    3    3    0    0 -0.43378342702E+01 -0.85306010279E+00 -0.10408354418E+00  0.44221432675E+01  0.00000000000E+00 0.  1.
</event>
<event>
 7    1  0.5849044E-013  0.5052886E+02  0.7816164E-02  0.1300439E+00
        -11   -1    0    0    0    0  0.00000000000E+00  0.00000000000E+00  0.45593999997E+02  0.45594000000E+02  0.51100000000E-03 0.  1.
         11   -1    0    0    0    0 -0.00000000000E+00 -0.00000000000E+00 -0.45593999997E+02  0.45594000000E+02  0.51100000000E-03 0. -1.
    9900012    2    1    2    0    0 -0.32191545268E+02 -0.83636943287E+01  0.23386288377E+02  0.50528862606E+02  0.30000008376E+02 0.  0.
         12    1    1    2    0    0  0.32191545268E+02  0.83636943287E+01 -0.23386288377E+02  0.40659137394E+02  0.00000000000E+00 0. -1.
         11    1    3    3    0    0 -0.31964343444E+01  0.67180552779E+01 -0.18397354459E+01  0.76638166737E+01  0.51100000000E-03 0. -1.
        -11    1    3    3    0    0 -0.24146799430E+02 -0.16830872591E+02  0.20471822505E+02  0.35853057217E+02  0.51100000000E-03 0.  1.
         12    1    3    3    0    0 -0.48483114939E+01  0.17491229848E+01  0.47542013184E+01  0.70119887146E+01  0.00000000000E+00 0. -1.
</event>
<event>
 7    1  0.5849044E-013  0.5052886E+02  0.7816164E-02  0.1300439E+00
        -11   -1    0    0    0    0  0.00000000000E+00  0.00000000000E+00  0.45593999997E+02  0.45594000000E+02  0.51100000000E-03 0.  1.
         11   -1    0    0    0    0 -0.00000000000E+00 -0.00000000000E+00 -0.45593999997E+02  0.45594000000E+02  0.51100000000E-03 0. -1.
    9900012    2    1    2    0    0  0.78114789939E+01 -0.20526705076E+02  0.34216966184E+02  0.50528860804E+02  0.30000002899E+02 0.  0.
         12    1    1    2    0    0 -0.78114789939E+01  0.20526705076E+02 -0.34216966184E+02  0.40659139196E+02  0.00000000000E+00 0. -1.
         11    1    3    3    0    0  0.22566875791E+01  0.27271807617E+01  0.19071301559E+01  0.40208580464E+01  0.51100000000E-03 0. -1.
        -11    1    3    3    0    0  0.33572484149E+01 -0.16185837749E+02  0.36775824530E+01  0.16934493601E+02  0.51100000000E-03 0.  1.
        -12    1    3    3    0    0  0.21975429999E+01 -0.70680480883E+01  0.28632253575E+02  0.29573509156E+02  0.00000000000E+00 0.  1.
</event>
<event>
 7    1  0.5849044E-013  0.5052874E+02  0.7816164E-02  0.1300439E+00
        -11   -1    0    0    0    0  0.00000000000E+00  0.00000000000E+00  0.45593999997E+02  0.45594000000E+02  0.51100000000E-03 0.  1.
         11   -1    0    0    0    0 -0.00000000000E+00 -0.00000000000E+00 -0.45593999997E+02  0.45594000000E+02  0.51100000000E-03 0. -1.
    9900012    2    1    2    0    0 -0.25809491863E+02 -0.19713855128E+02  0.24462404623E+02  0.50528742823E+02  0.29999644282E+02 0.  0.
         12    1    1    2    0    0  0.25809491863E+02  0.19713855128E+02 -0.24462404623E+02  0.40659257177E+02  0.00000000000E+00 0. -1.
         11    1    3    3    0    0 -0.92119885309E+01  0.20400624848E+01  0.19643651011E+02  0.21792099783E+02  0.51100000000E-03 0.  1.
        -11    1    3    3    0    0 -0.12667462918E+02 -0.12026284209E+02  0.74783896692E+00  0.17483002947E+02  0.51100000000E-03 0. -1.
         12    1    3    3    0    0 -0.39300404143E+01 -0.97276334038E+01  0.40709146456E+01  0.11253640093E+02  0.00000000000E+00 0. -1.
</event>
<event>
 7    1  0.5849044E-013  0.5052884E+02  0.7816164E-02  0.1300439E+00
        -11   -1    0    0    0    0  0.00000000000E+00  0.00000000000E+00  0.45593999997E+02  0.45594000000E+02  0.51100000000E-03 0. -1.
         11   -1    0    0    0    0 -0.00000000000E+00 -0.00000000000E+00 -0.45593999997E+02  0.45594000000E+02  0.51100000000E-03 0.  1.
    9900012    2    1    2    0    0 -0.11107333687E+02  0.38997994680E+02 -0.29917438099E+01  0.50528843814E+02  0.29999951258E+02 0.  0.
         12    1    1    2    0    0  0.11107333687E+02 -0.38997994680E+02  0.29917438099E+01  0.40659156186E+02  0.00000000000E+00 0. -1.
         11    1    3    3    0    0 -0.28401773553E+01 -0.57153109471E+00  0.35383772365E-01  0.28973276436E+01  0.51100000000E-03 0. -1.
        -11    1    3    3    0    0 -0.38922402331E-01  0.37210996167E+02 -0.75217564280E+01  0.37963621676E+02  0.51100000000E-03 0.  1.
        -12    1    3    3    0    0 -0.82282339294E+01  0.23585296077E+01  0.44946288458E+01  0.96678944951E+01  0.00000000000E+00 0.  1.
</event>
<event>
 7    1  0.5849044E-013  0.5052886E+02  0.7816164E-02  0.1300439E+00
        -11   -1    0    0    0    0  0.00000000000E+00  0.00000000000E+00  0.45593999997E+02  0.45594000000E+02  0.51100000000E-03 0.  1.
         11   -1    0    0    0    0 -0.00000000000E+00 -0.00000000000E+00 -0.45593999997E+02  0.45594000000E+02  0.51100000000E-03 0. -1.
    9900012    2    1    2    0    0  0.14048913113E+02 -0.11077120543E+02  0.36511523271E+02  0.50528857230E+02  0.29999992037E+02 0.  0.
         12    1    1    2    0    0 -0.14048913113E+02  0.11077120543E+02 -0.36511523271E+02  0.40659142770E+02  0.00000000000E+00 0. -1.
         11    1    3    3    0    0  0.13626855366E+01  0.27744695685E+01  0.15294256666E+02  0.15603489369E+02  0.51100000000E-03 0. -1.
        -11    1    3    3    0    0  0.14441660510E+02 -0.16645464785E+02  0.11907960836E+02  0.25048604506E+02  0.51100000000E-03 0.  1.
        -12    1    3    3    0    0 -0.17554329336E+01  0.27938746731E+01  0.93093057692E+01  0.98767633553E+01  0.00000000000E+00 0.  1.
</event>
<event>
 7    1  0.5849044E-013  0.5052886E+02  0.7816164E-02  0.1300439E+00
        -11   -1    0    0    0    0  0.00000000000E+00  0.00000000000E+00  0.45593999997E+02  0.45594000000E+02  0.51100000000E-03 0.  1.
         11   -1    0    0    0    0 -0.00000000000E+00 -0.00000000000E+00 -0.45593999997E+02  0.45594000000E+02  0.51100000000E-03 0. -1.
    9900012    2    1    2    0    0  0.12199036081E+02  0.35695687706E+02 -0.15171257930E+02  0.50528859954E+02  0.30000000317E+02 0.  0.
         12    1    1    2    0    0 -0.12199036081E+02 -0.35695687706E+02  0.15171257930E+02  0.40659140046E+02  0.00000000000E+00 0. -1.
         11    1    3    3    0    0  0.17482209445E+02  0.20020764570E+02 -0.40029608169E+01  0.26879031913E+02  0.51100000000E-03 0. -1.
        -11    1    3    3    0    0 -0.43499703366E+01  0.16389833914E+02 -0.54494181964E+01  0.17811374360E+02  0.51100000000E-03 0.  1.
        -12    1    3    3    0    0 -0.93320302804E+00 -0.71491077811E+00 -0.57188789169E+01  0.58384536804E+01  0.00000000000E+00 0.  1.
</event>
<event>
 7    1  0.5849044E-013  0.5052886E+02  0.7816164E-02  0.1300439E+00
        -11   -1    0    0    0    0  0.00000000000E+00  0.00000000000E+00  0.45593999997E+02  0.45594000000E+02  0.51100000000E-03 0.  1.
         11   -1    0    0    0    0 -0.00000000000E+00 -0.00000000000E+00 -0.45593999997E+02  0.45594000000E+02  0.51100000000E-03 0. -1.
    9900012    2    1    2    0    0 -0.37650948883E+02 -0.83008400864E+01 -0.12909993076E+02  0.50528858111E+02  0.29999994713E+02 0.  0.
         12    1    1    2    0    0  0.37650948883E+02  0.83008400864E+01  0.12909993076E+02  0.40659141889E+02  0.00000000000E+00 0. -1.
         11    1    3    3    0    0 -0.30553002174E+02  0.12412742700E+01 -0.12533830685E+02  0.33047293619E+02  0.51100000000E-03 0.  1.
        -11    1    3    3    0    0 -0.98359534861E+01 -0.80779355957E+01  0.28082259086E+01  0.13034000057E+02  0.51100000000E-03 0. -1.
        -12    1    3    3    0    0  0.27380067769E+01 -0.14641787607E+01 -0.31843882997E+01  0.44475644342E+01  0.00000000000E+00 0.  1.
</event>
<event>
 7    1  0.5849044E-013  0.5052886E+02  0.7816164E-02  0.1300439E+00
        -11   -1    0    0    0    0  0.00000000000E+00  0.00000000000E+00  0.45593999997E+02  0.45594000000E+02  0.51100000000E-03 0. -1.
         11   -1    0    0    0    0 -0.00000000000E+00 -0.00000000000E+00 -0.45593999997E+02  0.45594000000E+02  0.51100000000E-03 0.  1.
    9900012    2    1    2    0    0 -0.18288997268E+02 -0.19846597268E+01 -0.36259335502E+02  0.50528859499E+02  0.29999998932E+02 0.  0.
         12    1    1    2    0    0  0.18288997268E+02  0.19846597268E+01  0.36259335502E+02  0.40659140501E+02  0.00000000000E+00 0. -1.
         11    1    3    3    0    0  0.62375539699E+01  0.43105418191E+01 -0.42773880143E+01  0.87053948094E+01  0.51100000000E-03 0. -1.
        -11    1    3    3    0    0  0.26152842694E+00 -0.17243125503E+01 -0.21590140841E+01  0.27754266277E+01  0.51100000000E-03 0.  1.
         12    1    3    3    0    0 -0.24788079664E+02 -0.45708889956E+01 -0.29822933403E+02  0.39048038061E+02  0.00000000000E+00 0. -1.
</event>
<event>
 7    1  0.5849044E-013  0.5052886E+02  0.7816164E-02  0.1300439E+00
        -11   -1    0    0    0    0  0.00000000000E+00  0.00000000000E+00  0.45593999997E+02  0.45594000000E+02  0.51100000000E-03 0.  1.
         11   -1    0    0    0    0 -0.00000000000E+00 -0.00000000000E+00 -0.45593999997E+02  0.45594000000E+02  0.51100000000E-03 0. -1.
    9900012    2    1    2    0    0  0.33019579767E+02 -0.23724852949E+02 -0.63816396462E-01  0.50528863660E+02  0.30000011580E+02 0.  0.
         12    1    1    2    0    0 -0.33019579767E+02  0.23724852949E+02  0.63816396462E-01  0.40659136340E+02  0.00000000000E+00 0. -1.
         11    1    3    3    0    0  0.86340600942E+01  0.20376702365E+01 -0.74077281405E+01  0.11557401532E+02  0.51100000000E-03 0. -1.
        -11    1    3    3    0    0  0.12109081870E+02 -0.70845149962E+01  0.88201212512E+01  0.16571504326E+02  0.51100000000E-03 0.  1.
         12    1    3    3    0    0  0.12276437803E+02 -0.18678008189E+02 -0.14762095072E+01  0.22399957802E+02  0.00000000000E+00 0. -1.
</event>
<event>
 7    1  0.5849044E-013  0.5052886E+02  0.7816164E-02  0.1300439E+00
        -11   -1    0    0    0    0  0.00000000000E+00  0.00000000000E+00  0.45593999997E+02  0.45594000000E+02  0.51100000000E-03 0.  1.
         11   -1    0    0    0    0 -0.00000000000E+00 -0.00000000000E+00 -0.45593999997E+02  0.45594000000E+02  0.51100000000E-03 0. -1.
    9900012    2    1    2    0    0  0.64542739040E-01  0.16727275860E+02  0.37058868364E+02  0.50528860217E+02  0.30000001117E+02 0.  0.
         12    1    1    2    0    0 -0.64542739040E-01 -0.16727275860E+02 -0.37058868364E+02  0.40659139783E+02  0.00000000000E+00 0. -1.
         11    1    3    3    0    0  0.69531105466E+00  0.24359431247E+02  0.27222686450E+02  0.36536830814E+02  0.51100000000E-03 0. -1.
        -11    1    3    3    0    0  0.68514395569E+00 -0.30916246657E+01  0.85131341339E+01  0.90830071208E+01  0.51100000000E-03 0.  1.
         12    1    3    3    0    0 -0.13159122713E+01 -0.45405307216E+01  0.13230477799E+01  0.49090222822E+01  0.00000000000E+00 0. -1.
</event>
<event>
 7    1  0.5849044E-013  0.5052886E+02  0.7816164E-02  0.1300439E+00
        -11   -1    0    0    0    0  0.00000000000E+00  0.00000000000E+00  0.45593999997E+02  0.45594000000E+02  0.51100000000E-03 0.  1.
         11   -1    0    0    0    0 -0.00000000000E+00 -0.00000000000E+00 -0.45593999997E+02  0.45594000000E+02  0.51100000000E-03 0. -1.
    9900012    2    1    2    0    0  0.59648449351E+01  0.10311003476E+02  0.38875050823E+02  0.50528859032E+02  0.29999997512E+02 0.  0.
         12    1    1    2    0    0 -0.59648449351E+01 -0.10311003476E+02 -0.38875050823E+02  0.40659140968E+02  0.00000000000E+00 0. -1.
         11    1    3    3    0    0 -0.28100582244E+01  0.15066261066E+02  0.24920138097E+02  0.29255801694E+02  0.51100000000E-03 0. -1.
        -11    1    3    3    0    0  0.90267919482E+01 -0.54901547725E+01  0.15950121673E+02  0.19131940674E+02  0.51100000000E-03 0.  1.
         12    1    3    3    0    0 -0.25188878858E+00  0.73489718244E+00 -0.19952089461E+01  0.21411166641E+01  0.00000000000E+00 0. -1.
</event>
<event>
 7    1  0.5849044E-013  0.5052885E+02  0.7816164E-02  0.1300439E+00
        -11   -1    0    0    0    0  0.00000000000E+00  0.00000000000E+00  0.45593999997E+02  0.45594000000E+02  0.51100000000E-03 0.  1.
         11   -1    0    0    0    0 -0.00000000000E+00 -0.00000000000E+00 -0.45593999997E+02  0.45594000000E+02  0.51100000000E-03 0. -1.
    9900012    2    1    2    0    0 -0.79384897381E+01 -0.47818586962E+01  0.39588900210E+02  0.50528845905E+02  0.29999957612E+02 0.  0.
         12    1    1    2    0    0  0.79384897381E+01  0.47818586962E+01 -0.39588900210E+02  0.40659154095E+02  0.00000000000E+00 0. -1.
         11    1    3    3    0    0 -0.18401312910E+00  0.23551335248E+01 -0.28207736243E+01  0.36793041261E+01  0.51100000000E-03 0. -1.
        -11    1    3    3    0    0  0.33607140778E+01 -0.41965745484E+00  0.24464437456E+02  0.24697757222E+02  0.51100000000E-03 0.  1.
        -12    1    3    3    0    0 -0.11115190687E+02 -0.67173347662E+01  0.17945236378E+02  0.22151784557E+02  0.00000000000E+00 0.  1.
</event>
<event>
 7    1  0.5849044E-013  0.5052886E+02  0.7816164E-02  0.1300439E+00
        -11   -1    0    0    0    0  0.00000000000E+00  0.00000000000E+00  0.45593999997E+02  0.45594000000E+02  0.51100000000E-03 0.  1.
         11   -1    0    0    0    0 -0.00000000000E+00 -0.00000000000E+00 -0.45593999997E+02  0.45594000000E+02  0.51100000000E-03 0. -1.
    9900012    2    1    2    0    0 -0.20615745113E+02 -0.96993039849E+01  0.33676103758E+02  0.50528863159E+02  0.30000010058E+02 0.  0.
         12    1    1    2    0    0  0.20615745113E+02  0.96993039849E+01 -0.33676103758E+02  0.40659136841E+02  0.00000000000E+00 0. -1.
         11    1    3    3    0    0 -0.49594519646E+01 -0.11069878193E+00  0.38142436987E+01  0.62575453066E+01  0.51100000000E-03 0. -1.
        -11    1    3    3    0    0  0.47465245514E+01 -0.10377947146E+02  0.15755535649E+02  0.19454258817E+02  0.51100000000E-03 0.  1.
        -12    1    3    3    0    0 -0.20402817700E+02  0.78934194340E+00  0.14106324410E+02  0.24817059035E+02  0.00000000000E+00 0.  1.
</event>
<event>
 7    1  0.5849044E-013  0.5052876E+02  0.7816164E-02  0.1300439E+00
        -11   -1    0    0    0    0  0.00000000000E+00  0.00000000000E+00  0.45593999997E+02  0.45594000000E+02  0.51100000000E-03 0.  1.
         11   -1    0    0    0    0 -0.00000000000E+00 -0.00000000000E+00 -0.45593999997E+02  0.45594000000E+02  0.51100000000E-03 0. -1.
    9900012    2    1    2    0    0  0.14889392264E+02  0.47221784875E+01  0.37539060981E+02  0.50528756635E+02  0.29999686267E+02 0.  0.
         12    1    1    2    0    0 -0.14889392264E+02 -0.47221784875E+01 -0.37539060981E+02  0.40659243365E+02  0.00000000000E+00 0. -1.
         11    1    3    3    0    0 -0.86000251236E+00 -0.73465563901E+01 -0.27323457962E+00  0.74017668506E+01  0.51100000000E-03 0. -1.
        -11    1    3    3    0    0  0.10084643112E+02  0.40152984135E+01  0.18491865581E+02  0.21442288614E+02  0.51100000000E-03 0.  1.
         12    1    3    3    0    0  0.56647516647E+01  0.80534364641E+01  0.19320429979E+02  0.21684701171E+02  0.00000000000E+00 0. -1.
</event>
<event>
 7    1  0.5849044E-013  0.5052888E+02  0.7816164E-02  0.1300439E+00
        -11   -1    0    0    0    0  0.00000000000E+00  0.00000000000E+00  0.45593999997E+02  0.45594000000E+02  0.51100000000E-03 0.  1.
         11   -1    0    0    0    0 -0.00000000000E+00 -0.00000000000E+00 -0.45593999997E+02  0.45594000000E+02  0.51100000000E-03 0. -1.
    9900012    2    1    2    0    0  0.81278774774E+01  0.29332405203E+02  0.26957590617E+02  0.50528879508E+02  0.30000059753E+02 0.  0.
         12    1    1    2    0    0 -0.81278774774E+01 -0.29332405203E+02 -0.26957590617E+02  0.40659120492E+02  0.00000000000E+00 0. -1.
         11    1    3    3    0    0 -0.19046276494E+01  0.10835537030E+02  0.10020704623E+02  0.14881229472E+02  0.51100000000E-03 0. -1.
        -11    1    3    3    0    0 -0.16913324951E+01 -0.24349820163E+01 -0.31731342862E+01  0.43426402669E+01  0.51100000000E-03 0.  1.
        -12    1    3    3    0    0  0.11723837622E+02  0.20931850189E+02  0.20110020281E+02  0.31305009769E+02  0.00000000000E+00 0.  1.
</event>
<event>
 7    1  0.5849044E-013  0.5052886E+02  0.7816164E-02  0.1300439E+00
        -11   -1    0    0    0    0  0.00000000000E+00  0.00000000000E+00  0.45593999997E+02  0.45594000000E+02  0.51100000000E-03 0. -1.
         11   -1    0    0    0    0 -0.00000000000E+00 -0.00000000000E+00 -0.45593999997E+02  0.45594000000E+02  0.51100000000E-03 0.  1.
    9900012    2    1    2    0    0  0.86987569107E+01  0.15601126490E+02 -0.36525363795E+02  0.50528859331E+02  0.29999998424E+02 0.  0.
         12    1    1    2    0    0 -0.86987569107E+01 -0.15601126490E+02  0.36525363795E+02  0.40659140669E+02  0.00000000000E+00 0. -1.
         11    1    3    3    0    0 -0.50399973054E+01 -0.63476454630E+00 -0.22803705890E+00  0.50849287142E+01  0.51100000000E-03 0. -1.
        -11    1    3    3    0    0  0.12047785612E+01  0.38668509189E+01 -0.23062497848E+02  0.23415440092E+02  0.51100000000E-03 0.  1.
         12    1    3    3    0    0  0.12533975655E+02  0.12369040118E+02 -0.13234828888E+02  0.22028490526E+02  0.00000000000E+00 0. -1.
</event>
<event>
 7    1  0.5849044E-013  0.5052883E+02  0.7816164E-02  0.1300439E+00
        -11   -1    0    0    0    0  0.00000000000E+00  0.00000000000E+00  0.45593999997E+02  0.45594000000E+02  0.51100000000E-03 0. -1.
         11   -1    0    0    0    0 -0.00000000000E+00 -0.00000000000E+00 -0.45593999997E+02  0.45594000000E+02  0.51100000000E-03 0.  1.
    9900012    2    1    2    0    0  0.12313365556E+02 -0.26049695119E+02 -0.28687316285E+02  0.50528834948E+02  0.29999924308E+02 0.  0.
         12    1    1    2    0    0 -0.12313365556E+02  0.26049695119E+02  0.28687316285E+02  0.40659165052E+02  0.00000000000E+00 0. -1.
         11    1    3    3    0    0  0.96993795252E+01  0.25103826135E+01 -0.13438264361E+02  0.16762068289E+02  0.51100000000E-03 0. -1.
        -11    1    3    3    0    0  0.56762740570E+01 -0.16860414939E+02 -0.69515744342E+01  0.19100211163E+02  0.51100000000E-03 0.  1.
         12    1    3    3    0    0 -0.30622880261E+01 -0.11699662793E+02 -0.82974774900E+01  0.14666555496E+02  0.00000000000E+00 0. -1.
</event>
<event>
 7    1  0.5849044E-013  0.5052886E+02  0.7816164E-02  0.1300439E+00
        -11   -1    0    0    0    0  0.00000000000E+00  0.00000000000E+00  0.45593999997E+02  0.45594000000E+02  0.51100000000E-03 0.  1.
         11   -1    0    0    0    0 -0.00000000000E+00 -0.00000000000E+00 -0.45593999997E+02  0.45594000000E+02  0.51100000000E-03 0. -1.
    9900012    2    1    2    0    0  0.20580643338E+02 -0.76278461606E+01  0.34225995809E+02  0.50528859498E+02  0.29999998930E+02 0.  0.
         12    1    1    2    0    0 -0.20580643338E+02  0.76278461606E+01 -0.34225995809E+02  0.40659140502E+02  0.00000000000E+00 0. -1.
         11    1    3    3    0    0 -0.13364566055E+01  0.84755056145E+01  0.13755652882E+02  0.16212288492E+02  0.51100000000E-03 0. -1.
        -11    1    3    3    0    0  0.10123021039E+02 -0.98556124013E+01  0.93243928060E+01  0.16927875006E+02  0.51100000000E-03 0.  1.
         12    1    3    3    0    0  0.11794078904E+02 -0.62477393737E+01  0.11145950121E+02  0.17388696000E+02  0.00000000000E+00 0. -1.
</event>
<event>
 7    1  0.5849044E-013  0.5052884E+02  0.7816164E-02  0.1300439E+00
        -11   -1    0    0    0    0  0.00000000000E+00  0.00000000000E+00  0.45593999997E+02  0.45594000000E+02  0.51100000000E-03 0.  1.
         11   -1    0    0    0    0 -0.00000000000E+00 -0.00000000000E+00 -0.45593999997E+02  0.45594000000E+02  0.51100000000E-03 0. -1.
    9900012    2    1    2    0    0 -0.42120994603E+01  0.22168467073E+02  0.33822841612E+02  0.50528839545E+02  0.29999938280E+02 0.  0.
         12    1    1    2    0    0  0.42120994603E+01 -0.22168467073E+02 -0.33822841612E+02  0.40659160455E+02  0.00000000000E+00 0. -1.
         11    1    3    3    0    0 -0.74093589228E+00 -0.28312694281E+01 -0.11893187016E+01  0.31590428623E+01  0.51100000000E-03 0. -1.
        -11    1    3    3    0    0 -0.91128448386E+01  0.23733578522E+02  0.24151772660E+02  0.35066149110E+02  0.51100000000E-03 0.  1.
         12    1    3    3    0    0  0.56416812706E+01  0.12661579784E+01  0.10860387654E+02  0.12303647572E+02  0.00000000000E+00 0. -1.
</event>
<event>
 7    1  0.5849044E-013  0.5052888E+02  0.7816164E-02  0.1300439E+00
        -11   -1    0    0    0    0  0.00000000000E+00  0.00000000000E+00  0.45593999997E+02  0.45594000000E+02  0.51100000000E-03 0.  1.
         11   -1    0    0    0    0 -0.00000000000E+00 -0.00000000000E+00 -0.45593999997E+02  0.45594000000E+02  0.51100000000E-03 0. -1.
    9900012    2    1    2    0    0  0.37900778822E+02 -0.13782731341E+02  0.51702675719E+01  0.50528875743E+02  0.30000048309E+02 0.  0.
         12    1    1    2    0    0 -0.37900778822E+02  0.13782731341E+02 -0.51702675719E+01  0.40659124257E+02  0.00000000000E+00 0. -1.
         11    1    3    3    0    0 -0.17606621875E+00 -0.96711302587E+01 -0.48436223055E+01  0.10817690932E+02  0.51100000000E-03 0. -1.
        -11    1    3    3    0    0  0.13957690821E+02 -0.29561514590E+01  0.42332014220E+01  0.14882068372E+02  0.51100000000E-03 0.  1.
         12    1    3    3    0    0  0.24119154220E+02 -0.11554496238E+01  0.57806884554E+01  0.24829116439E+02  0.00000000000E+00 0. -1.
</event>
<event>
 7    1  0.5849044E-013  0.5052886E+02  0.7816164E-02  0.1300439E+00
        -11   -1    0    0    0    0  0.00000000000E+00  0.00000000000E+00  0.45593999997E+02  0.45594000000E+02  0.51100000000E-03 0. -1.
         11   -1    0    0    0    0 -0.00000000000E+00 -0.00000000000E+00 -0.45593999997E+02  0.45594000000E+02  0.51100000000E-03 0.  1.
    9900012    2    1    2    0    0  0.31912683329E+02  0.23260997466E+02  0.96784270204E+01  0.50528864373E+02  0.30000013748E+02 0.  0.
         12    1    1    2    0    0 -0.31912683329E+02 -0.23260997466E+02 -0.96784270204E+01  0.40659135627E+02  0.00000000000E+00 0. -1.
         11    1    3    3    0    0  0.26488874475E+02  0.68613955250E+01 -0.32506743630E+01  0.27555509496E+02  0.51100000000E-03 0. -1.
        -11    1    3    3    0    0  0.64913137853E+01  0.72552846123E+01  0.58274666878E+01  0.11346174585E+02  0.51100000000E-03 0.  1.
         12    1    3    3    0    0 -0.10675049318E+01  0.91443173285E+01  0.71016346956E+01  0.11627180292E+02  0.00000000000E+00 0. -1.
</event>
<event>
 7    1  0.5849044E-013  0.5052886E+02  0.7816164E-02  0.1300439E+00
        -11   -1    0    0    0    0  0.00000000000E+00  0.00000000000E+00  0.45593999997E+02  0.45594000000E+02  0.51100000000E-03 0. -1.
         11   -1    0    0    0    0 -0.00000000000E+00 -0.00000000000E+00 -0.45593999997E+02  0.45594000000E+02  0.51100000000E-03 0.  1.
    9900012    2    1    2    0    0  0.43101720725E+01 -0.22238086719E+02 -0.33764709246E+02  0.50528859887E+02  0.30000000114E+02 0.  0.
         12    1    1    2    0    0 -0.43101720725E+01  0.22238086719E+02  0.33764709246E+02  0.40659140113E+02  0.00000000000E+00 0. -1.
         11    1    3    3    0    0 -0.72646034211E+01 -0.83775833342E+01 -0.14926444133E+02  0.18594544901E+02  0.51100000000E-03 0. -1.
        -11    1    3    3    0    0  0.92032678236E+01 -0.18383649497E+02 -0.16269984737E+02  0.26217763274E+02  0.51100000000E-03 0.  1.
        -12    1    3    3    0    0  0.23715076701E+01  0.45231461127E+01 -0.25682803768E+01  0.57165517123E+01  0.00000000000E+00 0.  1.
</event>
<event>
 7    1  0.5849044E-013  0.5052887E+02  0.7816164E-02  0.1300439E+00
        -11   -1    0    0    0    0  0.00000000000E+00  0.00000000000E+00  0.45593999997E+02  0.45594000000E+02  0.51100000000E-03 0.  1.
         11   -1    0    0    0    0 -0.00000000000E+00 -0.00000000000E+00 -0.45593999997E+02  0.45594000000E+02  0.51100000000E-03 0. -1.
    9900012    2    1    2    0    0 -0.21689912123E+02  0.39110280242E+01  0.34167481467E+02  0.50528865505E+02  0.30000017189E+02 0.  0.
         12    1    1    2    0    0  0.21689912123E+02 -0.39110280242E+01 -0.34167481467E+02  0.40659134495E+02  0.00000000000E+00 0. -1.
         11    1    3    3    0    0 -0.10200003590E+02 -0.52851766886E+01  0.19442720877E+02  0.22583014883E+02  0.51100000000E-03 0. -1.
        -11    1    3    3    0    0 -0.13448475106E+02  0.18869942527E+01  0.28673476809E+01  0.13879622220E+02  0.51100000000E-03 0.  1.
        -12    1    3    3    0    0  0.19585665727E+01  0.73092104601E+01  0.11857412909E+02  0.14066228402E+02  0.00000000000E+00 0.  1.
</event>
<event>
 7    1  0.5849044E-013  0.5052886E+02  0.7816164E-02  0.1300439E+00
        -11   -1    0    0    0    0  0.00000000000E+00  0.00000000000E+00  0.45593999997E+02  0.45594000000E+02  0.51100000000E-03 0. -1.
         11   -1    0    0    0    0 -0.00000000000E+00 -0.00000000000E+00 -0.45593999997E+02  0.45594000000E+02  0.51100000000E-03 0.  1.
    9900012    2    1    2    0    0  0.30093320698E+02  0.25167161028E+02 -0.10685134578E+02  0.50528855324E+02  0.29999986244E+02 0.  0.
         12    1    1    2    0    0 -0.30093320698E+02 -0.25167161028E+02  0.10685134578E+02  0.40659144676E+02  0.00000000000E+00 0. -1.
         11    1    3    3    0    0  0.15121581809E+02  0.38504303985E+01  0.75390112696E+01  0.17329880030E+02  0.51100000000E-03 0. -1.
        -11    1    3    3    0    0  0.56845685581E+01  0.54875717592E+01 -0.10846322150E+02  0.13419033793E+02  0.51100000000E-03 0.  1.
         12    1    3    3    0    0  0.92871703306E+01  0.15829158870E+02 -0.73778236983E+01  0.19779941502E+02  0.00000000000E+00 0. -1.
</event>
<event>
 7    1  0.5849044E-013  0.5052886E+02  0.7816164E-02  0.1300439E+00
        -11   -1    0    0    0    0  0.00000000000E+00  0.00000000000E+00  0.45593999997E+02  0.45594000000E+02  0.51100000000E-03 0. -1.
         11   -1    0    0    0    0 -0.00000000000E+00 -0.00000000000E+00 -0.45593999997E+02  0.45594000000E+02  0.51100000000E-03 0.  1.
    9900012    2    1    2    0    0  0.26226297113E+02 -0.20343794613E+02 -0.23483542185E+02  0.50528863351E+02  0.30000010641E+02 0.  0.
         12    1    1    2    0    0 -0.26226297113E+02  0.20343794613E+02  0.23483542185E+02  0.40659136649E+02  0.00000000000E+00 0. -1.
         11    1    3    3    0    0  0.10728073671E+02 -0.79829249002E+01  0.44681140824E+01  0.14099031824E+02  0.51100000000E-03 0. -1.
        -11    1    3    3    0    0  0.17058108779E+02 -0.12093594078E+02 -0.22339573330E+02  0.30598866476E+02  0.51100000000E-03 0.  1.
         12    1    3    3    0    0 -0.15598853363E+01 -0.26727563534E+00 -0.56120829372E+01  0.58309650507E+01  0.00000000000E+00 0. -1.
</event>
<event>
 7    1  0.5849044E-013  0.5052886E+02  0.7816164E-02  0.1300439E+00
        -11   -1    0    0    0    0  0.00000000000E+00  0.00000000000E+00  0.45593999997E+02  0.45594000000E+02  0.51100000000E-03 0. -1.
         11   -1    0    0    0    0 -0.00000000000E+00 -0.00000000000E+00 -0.45593999997E+02  0.45594000000E+02  0.51100000000E-03 0.  1.
    9900012    2    1    2    0    0  0.36857970905E+02 -0.22386415822E+01 -0.17018936453E+02  0.50528859166E+02  0.29999997920E+02 0.  0.
         12    1    1    2    0    0 -0.36857970905E+02  0.22386415822E+01  0.17018936453E+02  0.40659140834E+02  0.00000000000E+00 0. -1.
         11    1    3    3    0    0  0.48687494106E+01  0.11197494347E+01  0.44117435789E+01  0.66649862181E+01  0.51100000000E-03 0. -1.
        -11    1    3    3    0    0  0.25736676109E+02  0.53683951757E+01 -0.20000413884E+02  0.33033509043E+02  0.51100000000E-03 0.  1.
        -12    1    3    3    0    0  0.62525453851E+01 -0.87267861926E+01 -0.14302661480E+01  0.10830363904E+02  0.00000000000E+00 0.  1.
</event>
<event>
 7    1  0.5849044E-013  0.5052883E+02  0.7816164E-02  0.1300439E+00
        -11   -1    0    0    0    0  0.00000000000E+00  0.00000000000E+00  0.45593999997E+02  0.45594000000E+02  0.51100000000E-03 0.  1.
         11   -1    0    0    0    0 -0.00000000000E+00 -0.00000000000E+00 -0.45593999997E+02  0.45594000000E+02  0.51100000000E-03 0. -1.
    9900012    2    1    2    0    0 -0.38560765510E+02 -0.12750954107E+02 -0.19102309299E+01  0.50528825764E+02  0.29999896393E+02 0.  0.
         12    1    1    2    0    0  0.38560765510E+02  0.12750954107E+02  0.19102309299E+01  0.40659174236E+02  0.00000000000E+00 0. -1.
         11    1    3    3    0    0 -0.11038335615E+02  0.45351873046E+01 -0.36142933495E+01  0.12468997302E+02  0.51100000000E-03 0. -1.
        -11    1    3    3    0    0 -0.29430773263E+02 -0.18975165638E+02  0.30993468012E+01  0.35154420443E+02  0.51100000000E-03 0.  1.
        -12    1    3    3    0    0  0.19083433685E+01  0.16890242270E+01 -0.13952843815E+01  0.29054080190E+01  0.00000000000E+00 0.  1.
</event>
<event>
 7    1  0.5849044E-013  0.5052885E+02  0.7816164E-02  0.1300439E+00
        -11   -1    0    0    0    0  0.00000000000E+00  0.00000000000E+00  0.45593999997E+02  0.45594000000E+02  0.51100000000E-03 0.  1.
         11   -1    0    0    0    0 -0.00000000000E+00 -0.00000000000E+00 -0.45593999997E+02  0.45594000000E+02  0.51100000000E-03 0. -1.
    9900012    2    1    2    0    0  0.16849626303E+02 -0.34039499156E+02  0.14510999280E+02  0.50528849622E+02  0.29999968910E+02 0.  0.
         12    1    1    2    0    0 -0.16849626303E+02  0.34039499156E+02 -0.14510999280E+02  0.40659150378E+02  0.00000000000E+00 0. -1.
         11    1    3    3    0    0 -0.59678017155E+01 -0.15356594337E+02  0.34498001605E+01  0.16832729082E+02  0.51100000000E-03 0. -1.
        -11    1    3    3    0    0  0.66686787214E+01 -0.44736038755E+01  0.90394736022E+01  0.12091174087E+02  0.51100000000E-03 0.  1.
         12    1    3    3    0    0  0.16148749297E+02 -0.14209300944E+02  0.20217255178E+01  0.21604946453E+02  0.00000000000E+00 0. -1.
</event>
<event>
 7    1  0.5849044E-013  0.5052886E+02  0.7816164E-02  0.1300439E+00
        -11   -1    0    0    0    0  0.00000000000E+00  0.00000000000E+00  0.45593999997E+02  0.45594000000E+02  0.51100000000E-03 0. -1.
         11   -1    0    0    0    0 -0.00000000000E+00 -0.00000000000E+00 -0.45593999997E+02  0.45594000000E+02  0.51100000000E-03 0.  1.
    9900012    2    1    2    0    0 -0.10065666364E+02  0.34859162585E+02 -0.18349035527E+02  0.50528856376E+02  0.29999989440E+02 0.  0.
         12    1    1    2    0    0  0.10065666364E+02 -0.34859162585E+02  0.18349035527E+02  0.40659143624E+02  0.00000000000E+00 0. -1.
         11    1    3    3    0    0 -0.70274575891E+01  0.10017623375E+02 -0.27613117812E+01  0.12544432282E+02  0.51100000000E-03 0. -1.
        -11    1    3    3    0    0  0.10152026397E+02  0.11306089397E+02 -0.36396552002E+01  0.15624928405E+02  0.51100000000E-03 0.  1.
        -12    1    3    3    0    0 -0.13190235172E+02  0.13535449812E+02 -0.11948068545E+02  0.22359495689E+02  0.00000000000E+00 0.  1.
</event>
<event>
 7    1  0.5849044E-013  0.5052880E+02  0.7816164E-02  0.1300439E+00
        -11   -1    0    0    0    0  0.00000000000E+00  0.00000000000E+00  0.45593999997E+02  0.45594000000E+02  0.51100000000E-03 0. -1.
         11   -1    0    0    0    0 -0.00000000000E+00 -0.00000000000E+00 -0.45593999997E+02  0.45594000000E+02  0.51100000000E-03 0.  1.
    9900012    2    1    2    0    0 -0.25603477572E+02  0.15765661280E+02 -0.27369255981E+02  0.50528802857E+02  0.29999826764E+02 0.  0.
         12    1    1    2    0    0  0.25603477572E+02 -0.15765661280E+02  0.27369255981E+02  0.40659197143E+02  0.00000000000E+00 0. -1.
         11    1    3    3    0    0 -0.66756105006E+01  0.12774513884E+01 -0.15877879556E+02  0.17271442240E+02  0.51100000000E-03 0. -1.
        -11    1    3    3    0    0 -0.13154067223E+02  0.47722749360E+01  0.35564385170E+01  0.14437878921E+02  0.51100000000E-03 0.  1.
         12    1    3    3    0    0 -0.57737998486E+01  0.97159349556E+01 -0.15047814942E+02  0.18819481695E+02  0.00000000000E+00 0. -1.
</event>
<event>
 7    1  0.5849044E-013  0.5052887E+02  0.7816164E-02  0.1300439E+00
        -11   -1    0    0    0    0  0.00000000000E+00  0.00000000000E+00  0.45593999997E+02  0.45594000000E+02  0.51100000000E-03 0.  1.
         11   -1    0    0    0    0 -0.00000000000E+00 -0.00000000000E+00 -0.45593999997E+02  0.45594000000E+02  0.51100000000E-03 0. -1.
    9900012    2    1    2    0    0  0.88399547709E+01 -0.41931899766E+01  0.39464380790E+02  0.50528868263E+02  0.30000025571E+02 0.  0.
         12    1    1    2    0    0 -0.88399547709E+01  0.41931899766E+01 -0.39464380790E+02  0.40659131737E+02  0.00000000000E+00 0. -1.
         11    1    3    3    0    0 -0.54757559062E+01 -0.34352218037E+01  0.57887637056E+01  0.86772367195E+01  0.51100000000E-03 0. -1.
        -11    1    3    3    0    0  0.84000606744E+01  0.87064391959E+01  0.10070842255E+02  0.15741186956E+02  0.51100000000E-03 0.  1.
        -12    1    3    3    0    0  0.59156500027E+01 -0.94644073687E+01  0.23604774829E+02  0.26110444587E+02  0.00000000000E+00 0.  1.
</event>
<event>
 7    1  0.5849044E-013  0.5052883E+02  0.7816164E-02  0.1300439E+00
        -11   -1    0    0    0    0  0.00000000000E+00  0.00000000000E+00  0.45593999997E+02  0.45594000000E+02  0.51100000000E-03 0.  1.
         11   -1    0    0    0    0 -0.00000000000E+00 -0.00000000000E+00 -0.45593999997E+02  0.45594000000E+02  0.51100000000E-03 0. -1.
    9900012    2    1    2    0    0  0.97803867487E+01 -0.37342276667E+02  0.12769735593E+02  0.50528834505E+02  0.29999922962E+02 0.  0.
         12    1    1    2    0    0 -0.97803867487E+01  0.37342276667E+02 -0.12769735593E+02  0.40659165495E+02  0.00000000000E+00 0. -1.
         11    1    3    3    0    0  0.49087562766E+01 -0.21754141085E+01 -0.36630744445E+01  0.64997253306E+01  0.51100000000E-03 0. -1.
        -11    1    3    3    0    0 -0.54573529461E+01 -0.26741416677E+02  0.13180247156E+02  0.30308496869E+02  0.51100000000E-03 0.  1.
        -12    1    3    3    0    0  0.10328983418E+02 -0.84254458818E+01  0.32525628807E+01  0.13720612306E+02  0.00000000000E+00 0.  1.
</event>
<event>
 7    1  0.5849044E-013  0.5052887E+02  0.7816164E-02  0.1300439E+00
        -11   -1    0    0    0    0  0.00000000000E+00  0.00000000000E+00  0.45593999997E+02  0.45594000000E+02  0.51100000000E-03 0. -1.
         11   -1    0    0    0    0 -0.00000000000E+00 -0.00000000000E+00 -0.45593999997E+02  0.45594000000E+02  0.51100000000E-03 0.  1.
    9900012    2    1    2    0    0 -0.74263946610E+01 -0.42146935578E+01 -0.39752359495E+02  0.50528867386E+02  0.30000022908E+02 0.  0.
         12    1    1    2    0    0  0.74263946610E+01  0.42146935578E+01  0.39752359495E+02  0.40659132614E+02  0.00000000000E+00 0. -1.
         11    1    3    3    0    0 -0.17887525899E+02 -0.15185811931E+01 -0.21324243755E+02  0.27874594950E+02  0.51100000000E-03 0.  1.
        -11    1    3    3    0    0  0.86453632135E+01  0.12011350798E+01 -0.13873995688E+02  0.16391241173E+02  0.51100000000E-03 0. -1.
         12    1    3    3    0    0  0.18157680243E+01 -0.38972474446E+01 -0.45541200522E+01  0.62630312639E+01  0.00000000000E+00 0. -1.
</event>
<event>
 7    1  0.5849044E-013  0.5052886E+02  0.7816164E-02  0.1300439E+00
        -11   -1    0    0    0    0  0.00000000000E+00  0.00000000000E+00  0.45593999997E+02  0.45594000000E+02  0.51100000000E-03 0.  1.
         11   -1    0    0    0    0 -0.00000000000E+00 -0.00000000000E+00 -0.45593999997E+02  0.45594000000E+02  0.51100000000E-03 0. -1.
    9900012    2    1    2    0    0 -0.34242875909E+02  0.12665894193E+02 -0.17893190628E+02  0.50528859612E+02  0.29999999278E+02 0.  0.
         12    1    1    2    0    0  0.34242875909E+02 -0.12665894193E+02  0.17893190628E+02  0.40659140388E+02  0.00000000000E+00 0. -1.
         11    1    3    3    0    0  0.39614496303E+01  0.11851970870E+01 -0.13691152984E+01  0.43557148976E+01  0.51100000000E-03 0. -1.
        -11    1    3    3    0    0 -0.35627431926E+02  0.91018616835E+01 -0.89778641459E+01  0.37851814178E+02  0.51100000000E-03 0.  1.
         12    1    3    3    0    0 -0.25768936134E+01  0.23788354229E+01 -0.75462111837E+01  0.83213305362E+01  0.00000000000E+00 0. -1.
</event>
<event>
 7    1  0.5849044E-013  0.5052885E+02  0.7816164E-02  0.1300439E+00
        -11   -1    0    0    0    0  0.00000000000E+00  0.00000000000E+00  0.45593999997E+02  0.45594000000E+02  0.51100000000E-03 0.  1.
         11   -1    0    0    0    0 -0.00000000000E+00 -0.00000000000E+00 -0.45593999997E+02  0.45594000000E+02  0.51100000000E-03 0. -1.
    9900012    2    1    2    0    0  0.26435983848E+01 -0.84925586622E+01  0.39674352570E+02  0.50528850761E+02  0.29999972372E+02 0.  0.
         12    1    1    2    0    0 -0.26435983848E+01  0.84925586622E+01 -0.39674352570E+02  0.40659149239E+02  0.00000000000E+00 0. -1.
         11    1    3    3    0    0 -0.60705252963E+01 -0.13284118743E+02  0.22655654292E+02  0.26955477362E+02  0.51100000000E-03 0. -1.
        -11    1    3    3    0    0  0.11910585287E+02  0.39237889027E+01  0.10898090825E+02  0.16614046621E+02  0.51100000000E-03 0.  1.
         12    1    3    3    0    0 -0.31964616054E+01  0.86777117846E+00  0.61206074523E+01  0.69593267777E+01  0.00000000000E+00 0. -1.
</event>
<event>
 7    1  0.5849044E-013  0.5052886E+02  0.7816164E-02  0.1300439E+00
        -11   -1    0    0    0    0  0.00000000000E+00  0.00000000000E+00  0.45593999997E+02  0.45594000000E+02  0.51100000000E-03 0. -1.
         11   -1    0    0    0    0 -0.00000000000E+00 -0.00000000000E+00 -0.45593999997E+02  0.45594000000E+02  0.51100000000E-03 0.  1.
    9900012    2    1    2    0    0  0.24678488992E+02  0.63010320990E+01 -0.31692816626E+02  0.50528862649E+02  0.30000008508E+02 0.  0.
         12    1    1    2    0    0 -0.24678488992E+02 -0.63010320990E+01  0.31692816626E+02  0.40659137351E+02  0.00000000000E+00 0. -1.
         11    1    3    3    0    0 -0.21476129412E+01 -0.16405368599E+01  0.15173099988E+00  0.27067739269E+01  0.51100000000E-03 0. -1.
        -11    1    3    3    0    0  0.26251742520E+02  0.49596638282E+01 -0.34605190765E+02  0.43718090978E+02  0.51100000000E-03 0.  1.
        -12    1    3    3    0    0  0.57435941254E+00  0.29819051306E+01  0.27606431388E+01  0.41039977439E+01  0.00000000000E+00 0.  1.
</event>
<event>
 7    1  0.5849044E-013  0.5052885E+02  0.7816164E-02  0.1300439E+00
        -11   -1    0    0    0    0  0.00000000000E+00  0.00000000000E+00  0.45593999997E+02  0.45594000000E+02  0.51100000000E-03 0.  1.
         11   -1    0    0    0    0 -0.00000000000E+00 -0.00000000000E+00 -0.45593999997E+02  0.45594000000E+02  0.51100000000E-03 0. -1.
    9900012    2    1    2    0    0 -0.49233499522E+01 -0.96814887521E+01  0.39181578290E+02  0.50528847568E+02  0.29999962667E+02 0.  0.
         12    1    1    2    0    0  0.49233499522E+01  0.96814887521E+01 -0.39181578290E+02  0.40659152432E+02  0.00000000000E+00 0. -1.
         11    1    3    3    0    0  0.33735039406E+01  0.19519036850E+01  0.10767748028E+02  0.11451412782E+02  0.51100000000E-03 0.  1.
        -11    1    3    3    0    0 -0.11002976792E+02 -0.31564853851E+01  0.25523394805E+01  0.11727887080E+02  0.51100000000E-03 0. -1.
        -12    1    3    3    0    0  0.27061228989E+01 -0.84769070520E+01  0.25861490781E+02  0.27349547706E+02  0.00000000000E+00 0.  1.
</event>
<event>
 7    1  0.5849044E-013  0.5052886E+02  0.7816164E-02  0.1300439E+00
        -11   -1    0    0    0    0  0.00000000000E+00  0.00000000000E+00  0.45593999997E+02  0.45594000000E+02  0.51100000000E-03 0. -1.
         11   -1    0    0    0    0 -0.00000000000E+00 -0.00000000000E+00 -0.45593999997E+02  0.45594000000E+02  0.51100000000E-03 0.  1.
    9900012    2    1    2    0    0  0.12538085536E+01 -0.40396202445E+02  0.44430266796E+01  0.50528859651E+02  0.29999999395E+02 0.  0.
         12    1    1    2    0    0 -0.12538085536E+01  0.40396202445E+02 -0.44430266796E+01  0.40659140349E+02  0.00000000000E+00 0. -1.
         11    1    3    3    0    0 -0.32707693143E+01 -0.65924159778E+01  0.73850669000E+01  0.10425789836E+02  0.51100000000E-03 0. -1.
        -11    1    3    3    0    0  0.12722312246E+02 -0.19647168134E+02 -0.38403908341E+01  0.23719549882E+02  0.51100000000E-03 0.  1.
        -12    1    3    3    0    0 -0.81977343785E+01 -0.14156618333E+02  0.89835061363E+00  0.16383519933E+02  0.00000000000E+00 0.  1.
</event>
<event>
 7    1  0.5849044E-013  0.5052887E+02  0.7816164E-02  0.1300439E+00
        -11   -1    0    0    0    0  0.00000000000E+00  0.00000000000E+00  0.45593999997E+02  0.45594000000E+02  0.51100000000E-03 0.  1.
         11   -1    0    0    0    0 -0.00000000000E+00 -0.00000000000E+00 -0.45593999997E+02  0.45594000000E+02  0.51100000000E-03 0. -1.
    9900012    2    1    2    0    0  0.34823186865E+02  0.17003285236E+02  0.12304433284E+02  0.50528866578E+02  0.30000020449E+02 0.  0.
         12    1    1    2    0    0 -0.34823186865E+02 -0.17003285236E+02 -0.12304433284E+02  0.40659133422E+02  0.00000000000E+00 0. -1.
         11    1    3    3    0    0  0.15058365565E+02  0.13325782814E+01  0.33695214020E+01  0.15488183015E+02  0.51100000000E-03 0. -1.
        -11    1    3    3    0    0  0.12891611689E+02  0.18803005205E+02 -0.68688365466E+00  0.22808298185E+02  0.51100000000E-03 0.  1.
        -12    1    3    3    0    0  0.68732096110E+01 -0.31322982505E+01  0.96217955368E+01  0.12232385378E+02  0.00000000000E+00 0.  1.
</event>
<event>
 7    1  0.5849044E-013  0.5052886E+02  0.7816164E-02  0.1300439E+00
        -11   -1    0    0    0    0  0.00000000000E+00  0.00000000000E+00  0.45593999997E+02  0.45594000000E+02  0.51100000000E-03 0.  1.
         11   -1    0    0    0    0 -0.00000000000E+00 -0.00000000000E+00 -0.45593999997E+02  0.45594000000E+02  0.51100000000E-03 0. -1.
    9900012    2    1    2    0    0 -0.19663159498E+02 -0.30126220847E+02  0.18945618037E+02  0.50528862445E+02  0.30000007888E+02 0.  0.
         12    1    1    2    0    0  0.19663159498E+02  0.30126220847E+02 -0.18945618037E+02  0.40659137555E+02  0.00000000000E+00 0. -1.
         11    1    3    3    0    0  0.64574057595E+01 -0.10597054778E+01  0.59886235276E+01  0.88704383690E+01  0.51100000000E-03 0. -1.
        -11    1    3    3    0    0 -0.23784794046E+02 -0.28380054633E+02  0.12936825881E+02  0.39223786060E+02  0.51100000000E-03 0.  1.
         12    1    3    3    0    0 -0.23357712114E+01 -0.68646073538E+00  0.20168628612E-01  0.24346380155E+01  0.00000000000E+00 0. -1.
</event>
<event>
 7    1  0.5849044E-013  0.5052882E+02  0.7816164E-02  0.1300439E+00
        -11   -1    0    0    0    0  0.00000000000E+00  0.00000000000E+00  0.45593999997E+02  0.45594000000E+02  0.51100000000E-03 0.  1.
         11   -1    0    0    0    0 -0.00000000000E+00 -0.00000000000E+00 -0.45593999997E+02  0.45594000000E+02  0.51100000000E-03 0. -1.
    9900012    2    1    2    0    0  0.31518123684E+02  0.24185817614E+02 -0.86500522457E+01  0.50528815329E+02  0.29999864675E+02 0.  0.
         12    1    1    2    0    0 -0.31518123684E+02 -0.24185817614E+02  0.86500522457E+01  0.40659184671E+02  0.00000000000E+00 0. -1.
         11    1    3    3    0    0  0.30856123047E+01  0.60707129462E+01 -0.25401971565E+01  0.72682295523E+01  0.51100000000E-03 0. -1.
        -11    1    3    3    0    0  0.93305065629E+01 -0.67124509582E+01 -0.19919592613E+01  0.11665472667E+02  0.51100000000E-03 0.  1.
        -12    1    3    3    0    0  0.19102004816E+02  0.24827555626E+02 -0.41178958279E+01  0.31595113110E+02  0.00000000000E+00 0.  1.
</event>
<event>
 7    1  0.5849044E-013  0.5052887E+02  0.7816164E-02  0.1300439E+00
        -11   -1    0    0    0    0  0.00000000000E+00  0.00000000000E+00  0.45593999997E+02  0.45594000000E+02  0.51100000000E-03 0.  1.
         11   -1    0    0    0    0 -0.00000000000E+00 -0.00000000000E+00 -0.45593999997E+02  0.45594000000E+02  0.51100000000E-03 0. -1.
    9900012    2    1    2    0    0 -0.16790268686E+02  0.35908374497E+02  0.90465838694E+01  0.50528866202E+02  0.30000019307E+02 0.  0.
         12    1    1    2    0    0  0.16790268686E+02 -0.35908374497E+02 -0.90465838694E+01  0.40659133798E+02  0.00000000000E+00 0. -1.
         11    1    3    3    0    0 -0.12984409479E+02  0.34650858458E+02  0.19040711732E+01  0.37052697185E+02  0.51100000000E-03 0. -1.
        -11    1    3    3    0    0  0.49654846020E+00  0.22717102970E+01  0.85315213318E+01  0.88427419132E+01  0.51100000000E-03 0.  1.
         12    1    3    3    0    0 -0.43024076672E+01 -0.10141942588E+01 -0.13890086357E+01  0.46334271031E+01  0.00000000000E+00 0. -1.
</event>
<event>
 7    1  0.5849044E-013  0.5052887E+02  0.7816164E-02  0.1300439E+00
        -11   -1    0    0    0    0  0.00000000000E+00  0.00000000000E+00  0.45593999997E+02  0.45594000000E+02  0.51100000000E-03 0.  1.
         11   -1    0    0    0    0 -0.00000000000E+00 -0.00000000000E+00 -0.45593999997E+02  0.45594000000E+02  0.51100000000E-03 0. -1.
    9900012    2    1    2    0    0  0.25720019486E+02 -0.29618784577E+02 -0.10694535403E+02  0.50528869541E+02  0.30000029457E+02 0.  0.
         12    1    1    2    0    0 -0.25720019486E+02  0.29618784577E+02  0.10694535403E+02  0.40659130459E+02  0.00000000000E+00 0. -1.
         11    1    3    3    0    0  0.14275903474E+00  0.59721684856E+00 -0.10177765892E+02  0.10196272207E+02  0.51100000000E-03 0. -1.
        -11    1    3    3    0    0  0.17352055710E+02 -0.14671363165E+02  0.33024554455E+00  0.22725575831E+02  0.51100000000E-03 0.  1.
         12    1    3    3    0    0  0.82252047415E+01 -0.15544638261E+02 -0.84701505558E+00  0.17607021503E+02  0.00000000000E+00 0. -1.
</event>
<event>
 7    1  0.5849044E-013  0.5052886E+02  0.7816164E-02  0.1300439E+00
        -11   -1    0    0    0    0  0.00000000000E+00  0.00000000000E+00  0.45593999997E+02  0.45594000000E+02  0.51100000000E-03 0.  1.
         11   -1    0    0    0    0 -0.00000000000E+00 -0.00000000000E+00 -0.45593999997E+02  0.45594000000E+02  0.51100000000E-03 0. -1.
    9900012    2    1    2    0    0  0.16101989730E+02  0.14012977435E+01  0.37308548343E+02  0.50528862182E+02  0.30000007088E+02 0.  0.
         12    1    1    2    0    0 -0.16101989730E+02 -0.14012977435E+01 -0.37308548343E+02  0.40659137818E+02  0.00000000000E+00 0. -1.
         11    1    3    3    0    0  0.16149632085E+02 -0.74561146284E+00  0.94611028846E+01  0.18731765026E+02  0.51100000000E-03 0. -1.
        -11    1    3    3    0    0  0.41872070235E+01  0.49828765757E+01  0.25252535114E+02  0.26077812247E+02  0.51100000000E-03 0.  1.
         12    1    3    3    0    0 -0.42348493785E+01 -0.28359673694E+01  0.25949103448E+01  0.57192849095E+01  0.00000000000E+00 0. -1.
</event>
<event>
 7    1  0.5849044E-013  0.5052886E+02  0.7816164E-02  0.1300439E+00
        -11   -1    0    0    0    0  0.00000000000E+00  0.00000000000E+00  0.45593999997E+02  0.45594000000E+02  0.51100000000E-03 0.  1.
         11   -1    0    0    0    0 -0.00000000000E+00 -0.00000000000E+00 -0.45593999997E+02  0.45594000000E+02  0.51100000000E-03 0. -1.
    9900012    2    1    2    0    0  0.11680576719E+02 -0.11619670630E+02  0.37171403504E+02  0.50528857651E+02  0.29999993317E+02 0.  0.
         12    1    1    2    0    0 -0.11680576719E+02  0.11619670630E+02 -0.37171403504E+02  0.40659142349E+02  0.00000000000E+00 0. -1.
         11    1    3    3    0    0  0.10994355689E+02 -0.62624033279E+01  0.27636718775E+01  0.12951117132E+02  0.51100000000E-03 0. -1.
        -11    1    3    3    0    0 -0.21485326193E+01 -0.96192203470E+01  0.24899372097E+02  0.26779177052E+02  0.51100000000E-03 0.  1.
         12    1    3    3    0    0  0.28347536494E+01  0.42619530452E+01  0.95083595304E+01  0.10798563468E+02  0.00000000000E+00 0. -1.
</event>
<event>
 7    1  0.5849044E-013  0.5052886E+02  0.7816164E-02  0.1300439E+00
        -11   -1    0    0    0    0  0.00000000000E+00  0.00000000000E+00  0.45593999997E+02  0.45594000000E+02  0.51100000000E-03 0. -1.
         11   -1    0    0    0    0 -0.00000000000E+00 -0.00000000000E+00 -0.45593999997E+02  0.45594000000E+02  0.51100000000E-03 0.  1.
    9900012    2    1    2    0    0  0.30514518859E+02  0.14392234125E+02  0.22691264691E+02  0.50528858868E+02  0.29999997016E+02 0.  0.
         12    1    1    2    0    0 -0.30514518859E+02 -0.14392234125E+02 -0.22691264691E+02  0.40659141132E+02  0.00000000000E+00 0. -1.
         11    1    3    3    0    0 -0.36806092641E+01  0.23305294967E+01  0.10800061087E+02  0.11645581653E+02  0.51100000000E-03 0. -1.
        -11    1    3    3    0    0  0.56001655152E+01 -0.81500377985E+00  0.17311875025E+01  0.59180313778E+01  0.51100000000E-03 0.  1.
         12    1    3    3    0    0  0.28594962608E+02  0.12876708408E+02  0.10160016102E+02  0.32965245838E+02  0.00000000000E+00 0. -1.
</event>
<event>
 7    1  0.5849044E-013  0.5052883E+02  0.7816164E-02  0.1300439E+00
        -11   -1    0    0    0    0  0.00000000000E+00  0.00000000000E+00  0.45593999997E+02  0.45594000000E+02  0.51100000000E-03 0.  1.
         11   -1    0    0    0    0 -0.00000000000E+00 -0.00000000000E+00 -0.45593999997E+02  0.45594000000E+02  0.51100000000E-03 0. -1.
    9900012    2    1    2    0    0  0.76501403478E+01  0.29392211419E+02  0.27032232519E+02  0.50528827180E+02  0.29999900696E+02 0.  0.
         12    1    1    2    0    0 -0.76501403478E+01 -0.29392211419E+02 -0.27032232519E+02  0.40659172820E+02  0.00000000000E+00 0. -1.
         11    1    3    3    0    0 -0.20459691932E+01  0.62127836783E+00 -0.43026090527E+00  0.21810780494E+01  0.51100000000E-03 0. -1.
        -11    1    3    3    0    0  0.16168582197E+02  0.28100039021E+02  0.18676703469E+02  0.37414629437E+02  0.51100000000E-03 0.  1.
        -12    1    3    3    0    0 -0.64724726555E+01  0.67089403032E+00  0.87857899559E+01  0.10933119693E+02  0.00000000000E+00 0.  1.
</event>
<event>
 7    1  0.5849044E-013  0.5052886E+02  0.7816164E-02  0.1300439E+00
        -11   -1    0    0    0    0  0.00000000000E+00  0.00000000000E+00  0.45593999997E+02  0.45594000000E+02  0.51100000000E-03 0. -1.
         11   -1    0    0    0    0 -0.00000000000E+00 -0.00000000000E+00 -0.45593999997E+02  0.45594000000E+02  0.51100000000E-03 0.  1.
    9900012    2    1    2    0    0 -0.27141689790E+02 -0.15664248049E+02  0.25906092098E+02  0.50528860813E+02  0.30000002928E+02 0.  0.
         12    1    1    2    0    0  0.27141689790E+02  0.15664248049E+02 -0.25906092098E+02  0.40659139187E+02  0.00000000000E+00 0. -1.
         11    1    3    3    0    0 -0.14646275783E+01 -0.94518848953E+01  0.21148831977E+02  0.23211125700E+02  0.51100000000E-03 0. -1.
        -11    1    3    3    0    0 -0.13065958179E+02 -0.10122788896E+01  0.87205392904E+00  0.13134094945E+02  0.51100000000E-03 0.  1.
         12    1    3    3    0    0 -0.12611104033E+02 -0.52000842639E+01  0.38852061916E+01  0.14183640168E+02  0.00000000000E+00 0. -1.
</event>
<event>
 7    1  0.5849044E-013  0.5052893E+02  0.7816164E-02  0.1300439E+00
        -11   -1    0    0    0    0  0.00000000000E+00  0.00000000000E+00  0.45593999997E+02  0.45594000000E+02  0.51100000000E-03 0.  1.
         11   -1    0    0    0    0 -0.00000000000E+00 -0.00000000000E+00 -0.45593999997E+02  0.45594000000E+02  0.51100000000E-03 0. -1.
    9900012    2    1    2    0    0  0.13149327288E+00  0.19588880700E+02  0.35628896724E+02  0.50528931893E+02  0.30000218981E+02 0.  0.
         12    1    1    2    0    0 -0.13149327288E+00 -0.19588880700E+02 -0.35628896724E+02  0.40659068107E+02  0.00000000000E+00 0. -1.
         11    1    3    3    0    0  0.19918319509E+01  0.23975206488E+02  0.25763411618E+02  0.35249557431E+02  0.51100000000E-03 0. -1.
        -11    1    3    3    0    0  0.75751692891E+00 -0.77767043947E+00  0.10690496770E+02  0.10745479266E+02  0.51100000000E-03 0.  1.
         12    1    3    3    0    0 -0.26178556069E+01 -0.36086553477E+01 -0.82501166428E+00  0.45338951954E+01  0.00000000000E+00 0. -1.
</event>
<event>
 7    1  0.5849044E-013  0.5052886E+02  0.7816164E-02  0.1300439E+00
        -11   -1    0    0    0    0  0.00000000000E+00  0.00000000000E+00  0.45593999997E+02  0.45594000000E+02  0.51100000000E-03 0. -1.
         11   -1    0    0    0    0 -0.00000000000E+00 -0.00000000000E+00 -0.45593999997E+02  0.45594000000E+02  0.51100000000E-03 0.  1.
    9900012    2    1    2    0    0 -0.31958893130E+02  0.20645767511E+02  0.14336927433E+02  0.50528855218E+02  0.29999985920E+02 0.  0.
         12    1    1    2    0    0  0.31958893130E+02 -0.20645767511E+02 -0.14336927433E+02  0.40659144782E+02  0.00000000000E+00 0. -1.
         11    1    3    3    0    0 -0.10645419379E+02 -0.18394332656E+01  0.10508874780E+02  0.15071327675E+02  0.51100000000E-03 0. -1.
        -11    1    3    3    0    0 -0.23579733607E+02  0.17110868075E+02  0.48535537837E+01  0.29535446972E+02  0.51100000000E-03 0.  1.
         12    1    3    3    0    0  0.22662598555E+01  0.53743327013E+01 -0.10255011308E+01  0.59220805707E+01  0.00000000000E+00 0. -1.
</event>
<event>
 7    1  0.5849044E-013  0.5052886E+02  0.7816164E-02  0.1300439E+00
        -11   -1    0    0    0    0  0.00000000000E+00  0.00000000000E+00  0.45593999997E+02  0.45594000000E+02  0.51100000000E-03 0.  1.
         11   -1    0    0    0    0 -0.00000000000E+00 -0.00000000000E+00 -0.45593999997E+02  0.45594000000E+02  0.51100000000E-03 0. -1.
    9900012    2    1    2    0    0  0.32627458260E+02  0.23398225344E+02 -0.64138807642E+01  0.50528857753E+02  0.29999993627E+02 0.  0.
         12    1    1    2    0    0 -0.32627458260E+02 -0.23398225344E+02  0.64138807642E+01  0.40659142247E+02  0.00000000000E+00 0. -1.
         11    1    3    3    0    0  0.20467572825E+02  0.25653012476E+02 -0.88332374134E+01  0.33985653884E+02  0.51100000000E-03 0. -1.
        -11    1    3    3    0    0  0.37006798680E+01  0.21375339612E+01  0.50884094436E+01  0.66449976560E+01  0.51100000000E-03 0.  1.
         12    1    3    3    0    0  0.84592055675E+01 -0.43923210934E+01 -0.26690527944E+01  0.98982062133E+01  0.00000000000E+00 0. -1.
</event>
<event>
 7    1  0.5849044E-013  0.5052887E+02  0.7816164E-02  0.1300439E+00
        -11   -1    0    0    0    0  0.00000000000E+00  0.00000000000E+00  0.45593999997E+02  0.45594000000E+02  0.51100000000E-03 0.  1.
         11   -1    0    0    0    0 -0.00000000000E+00 -0.00000000000E+00 -0.45593999997E+02  0.45594000000E+02  0.51100000000E-03 0. -1.
    9900012    2    1    2    0    0  0.74959013599E+01 -0.36933964261E+02 -0.15259698086E+02  0.50528872625E+02  0.30000038832E+02 0.  0.
         12    1    1    2    0    0 -0.74959013599E+01  0.36933964261E+02  0.15259698086E+02  0.40659127375E+02  0.00000000000E+00 0. -1.
         11    1    3    3    0    0  0.30780751423E+01  0.42802337030E+01 -0.48659489501E+01  0.71744272649E+01  0.51100000000E-03 0. -1.
        -11    1    3    3    0    0  0.26877275556E+01 -0.38503151998E+02 -0.10881967568E+02  0.40101543756E+02  0.51100000000E-03 0.  1.
         12    1    3    3    0    0  0.17300986620E+01 -0.27110459659E+01  0.48821843288E+00  0.32529016044E+01  0.00000000000E+00 0. -1.
</event>
<event>
 7    1  0.5849044E-013  0.5052886E+02  0.7816164E-02  0.1300439E+00
        -11   -1    0    0    0    0  0.00000000000E+00  0.00000000000E+00  0.45593999997E+02  0.45594000000E+02  0.51100000000E-03 0. -1.
         11   -1    0    0    0    0 -0.00000000000E+00 -0.00000000000E+00 -0.45593999997E+02  0.45594000000E+02  0.51100000000E-03 0.  1.
    9900012    2    1    2    0    0 -0.29003572090E+02 -0.46923454498E+01 -0.28105874131E+02  0.50528862522E+02  0.30000008121E+02 0.  0.
         12    1    1    2    0    0  0.29003572090E+02  0.46923454498E+01  0.28105874131E+02  0.40659137478E+02  0.00000000000E+00 0. -1.
         11    1    3    3    0    0 -0.89387605546E+01  0.70374908224E+01 -0.13631990871E+01  0.11458011579E+02  0.51100000000E-03 0. -1.
        -11    1    3    3    0    0 -0.11828689533E+02 -0.96929084202E+01 -0.55940388277E+01  0.16283845994E+02  0.51100000000E-03 0.  1.
        -12    1    3    3    0    0 -0.82361220025E+01 -0.20369278520E+01 -0.21148636216E+02  0.22787004949E+02  0.00000000000E+00 0.  1.
</event>
<event>
 7    1  0.5849044E-013  0.5052883E+02  0.7816164E-02  0.1300439E+00
        -11   -1    0    0    0    0  0.00000000000E+00  0.00000000000E+00  0.45593999997E+02  0.45594000000E+02  0.51100000000E-03 0.  1.
         11   -1    0    0    0    0 -0.00000000000E+00 -0.00000000000E+00 -0.45593999997E+02  0.45594000000E+02  0.51100000000E-03 0. -1.
    9900012    2    1    2    0    0 -0.83053216711E+01 -0.20480992087E+02  0.34127976907E+02  0.50528828677E+02  0.29999905246E+02 0.  0.
         12    1    1    2    0    0  0.83053216711E+01  0.20480992087E+02 -0.34127976907E+02  0.40659171323E+02  0.00000000000E+00 0. -1.
         11    1    3    3    0    0 -0.58058549542E+01 -0.21164986657E+02  0.11289761744E+02  0.24680424073E+02  0.51100000000E-03 0. -1.
        -11    1    3    3    0    0 -0.37970315229E+01 -0.49736024201E+01  0.12947474238E+02  0.14380238483E+02  0.51100000000E-03 0.  1.
         12    1    3    3    0    0  0.12975648060E+01  0.56575969901E+01  0.98907409254E+01  0.11468166121E+02  0.00000000000E+00 0. -1.
</event>
<event>
 7    1  0.5849044E-013  0.5052877E+02  0.7816164E-02  0.1300439E+00
        -11   -1    0    0    0    0  0.00000000000E+00  0.00000000000E+00  0.45593999997E+02  0.45594000000E+02  0.51100000000E-03 0. -1.
         11   -1    0    0    0    0 -0.00000000000E+00 -0.00000000000E+00 -0.45593999997E+02  0.45594000000E+02  0.51100000000E-03 0.  1.
    9900012    2    1    2    0    0 -0.35591295768E+02 -0.19657335165E+02 -0.14808358440E+00  0.50528768712E+02  0.29999722975E+02 0.  0.
         12    1    1    2    0    0  0.35591295768E+02  0.19657335165E+02  0.14808358440E+00  0.40659231288E+02  0.00000000000E+00 0. -1.
         11    1    3    3    0    0 -0.20957227796E+02 -0.28838872783E+01  0.55522527748E+01  0.21871207417E+02  0.51100000000E-03 0. -1.
        -11    1    3    3    0    0 -0.14141710526E+02 -0.57329841754E+01 -0.82053365384E+01  0.17325779409E+02  0.51100000000E-03 0.  1.
        -12    1    3    3    0    0 -0.49235744547E+00 -0.11040463711E+02  0.25050001792E+01  0.11331781886E+02  0.00000000000E+00 0.  1.
</event>
<event>
 7    1  0.5849044E-013  0.5052884E+02  0.7816164E-02  0.1300439E+00
        -11   -1    0    0    0    0  0.00000000000E+00  0.00000000000E+00  0.45593999997E+02  0.45594000000E+02  0.51100000000E-03 0.  1.
         11   -1    0    0    0    0 -0.00000000000E+00 -0.00000000000E+00 -0.45593999997E+02  0.45594000000E+02  0.51100000000E-03 0. -1.
    9900012    2    1    2    0    0  0.40078632597E+02 -0.53952391120E+01 -0.42144907790E+01  0.50528839551E+02  0.29999938299E+02 0.  0.
         12    1    1    2    0    0 -0.40078632597E+02  0.53952391120E+01  0.42144907790E+01  0.40659160449E+02  0.00000000000E+00 0. -1.
         11    1    3    3    0    0  0.36318047932E+01  0.54194153497E+01 -0.60216581093E+01  0.88780873748E+01  0.51100000000E-03 0. -1.
        -11    1    3    3    0    0  0.36835458432E+02 -0.90788748306E+01  0.47276329748E+01  0.38231236966E+02  0.51100000000E-03 0.  1.
        -12    1    3    3    0    0 -0.38863062875E+00 -0.17357796311E+01 -0.29204656445E+01  0.34195152104E+01  0.00000000000E+00 0.  1.
</event>
<event>
 7    1  0.5849044E-013  0.5052886E+02  0.7816164E-02  0.1300439E+00
        -11   -1    0    0    0    0  0.00000000000E+00  0.00000000000E+00  0.45593999997E+02  0.45594000000E+02  0.51100000000E-03 0. -1.
         11   -1    0    0    0    0 -0.00000000000E+00 -0.00000000000E+00 -0.45593999997E+02  0.45594000000E+02  0.51100000000E-03 0.  1.
    9900012    2    1    2    0    0  0.18412969146E+02  0.33678285026E+02 -0.13412720889E+02  0.50528863305E+02  0.30000010503E+02 0.  0.
         12    1    1    2    0    0 -0.18412969146E+02 -0.33678285026E+02  0.13412720889E+02  0.40659136695E+02  0.00000000000E+00 0. -1.
         11    1    3    3    0    0  0.24074057566E+02  0.34130174916E+02 -0.13730134745E+02  0.43965278208E+02  0.51100000000E-03 0.  1.
        -11    1    3    3    0    0 -0.51475546529E+01 -0.26980565285E+00 -0.89742184643E+00  0.52321582761E+01  0.51100000000E-03 0. -1.
         12    1    3    3    0    0 -0.51353376704E+00 -0.18208423710E+00  0.12148357016E+01  0.13314268215E+01  0.00000000000E+00 0. -1.
</event>
<event>
 7    1  0.5849044E-013  0.5052887E+02  0.7816164E-02  0.1300439E+00
        -11   -1    0    0    0    0  0.00000000000E+00  0.00000000000E+00  0.45593999997E+02  0.45594000000E+02  0.51100000000E-03 0.  1.
         11   -1    0    0    0    0 -0.00000000000E+00 -0.00000000000E+00 -0.45593999997E+02  0.45594000000E+02  0.51100000000E-03 0. -1.
    9900012    2    1    2    0    0  0.62303301700E+01  0.12017147748E+02  0.38339748340E+02  0.50528866257E+02  0.30000019474E+02 0.  0.
         12    1    1    2    0    0 -0.62303301700E+01 -0.12017147748E+02 -0.38339748340E+02  0.40659133743E+02  0.00000000000E+00 0. -1.
         11    1    3    3    0    0 -0.76013424488E+00  0.13105176196E+02  0.30291727860E+02  0.33013818685E+02  0.51100000000E-03 0. -1.
        -11    1    3    3    0    0  0.72853880854E+01 -0.27274282860E+01  0.11382978809E+02  0.13787238717E+02  0.51100000000E-03 0.  1.
         12    1    3    3    0    0 -0.29492367054E+00  0.16393998384E+01 -0.33349583289E+01  0.37278088547E+01  0.00000000000E+00 0. -1.
</event>
<event>
 7    1  0.5849044E-013  0.5052887E+02  0.7816164E-02  0.1300439E+00
        -11   -1    0    0    0    0  0.00000000000E+00  0.00000000000E+00  0.45593999997E+02  0.45594000000E+02  0.51100000000E-03 0. -1.
         11   -1    0    0    0    0 -0.00000000000E+00 -0.00000000000E+00 -0.45593999997E+02  0.45594000000E+02  0.51100000000E-03 0.  1.
    9900012    2    1    2    0    0 -0.35746633230E+02  0.18032714753E+02  0.70827005962E+01  0.50528865278E+02  0.30000016499E+02 0.  0.
         12    1    1    2    0    0  0.35746633230E+02 -0.18032714753E+02 -0.70827005962E+01  0.40659134722E+02  0.00000000000E+00 0. -1.
         11    1    3    3    0    0  0.38928457220E+01  0.11055397427E+01  0.36191939145E+01  0.54290911569E+01  0.51100000000E-03 0. -1.
        -11    1    3    3    0    0 -0.37908433030E+02  0.13718440758E+02  0.36639802795E+00  0.40315991361E+02  0.51100000000E-03 0.  1.
        -12    1    3    3    0    0 -0.17310459215E+01  0.32087342519E+01  0.30971086538E+01  0.47837827600E+01  0.00000000000E+00 0.  1.
</event>
<event>
 7    1  0.5849044E-013  0.5052885E+02  0.7816164E-02  0.1300439E+00
        -11   -1    0    0    0    0  0.00000000000E+00  0.00000000000E+00  0.45593999997E+02  0.45594000000E+02  0.51100000000E-03 0.  1.
         11   -1    0    0    0    0 -0.00000000000E+00 -0.00000000000E+00 -0.45593999997E+02  0.45594000000E+02  0.51100000000E-03 0. -1.
    9900012    2    1    2    0    0  0.97927835276E+01  0.49929073081E+01  0.39145096769E+02  0.50528851784E+02  0.29999975483E+02 0.  0.
         12    1    1    2    0    0 -0.97927835276E+01 -0.49929073081E+01 -0.39145096769E+02  0.40659148216E+02  0.00000000000E+00 0. -1.
         11    1    3    3    0    0  0.68007780393E+01 -0.68308969381E+01  0.39448285804E+01  0.10415056779E+02  0.51100000000E-03 0. -1.
        -11    1    3    3    0    0 -0.46359037179E-01  0.64699593890E+01  0.32918933324E+02  0.33548751021E+02  0.51100000000E-03 0.  1.
        -12    1    3    3    0    0  0.30383645255E+01  0.53538448572E+01  0.22813348648E+01  0.65650439839E+01  0.00000000000E+00 0.  1.
</event>
<event>
 7    1  0.5849044E-013  0.5052886E+02  0.7816164E-02  0.1300439E+00
        -11   -1    0    0    0    0  0.00000000000E+00  0.00000000000E+00  0.45593999997E+02  0.45594000000E+02  0.51100000000E-03 0. -1.
         11   -1    0    0    0    0 -0.00000000000E+00 -0.00000000000E+00 -0.45593999997E+02  0.45594000000E+02  0.51100000000E-03 0.  1.
    9900012    2    1    2    0    0  0.24642122326E+02  0.13214313122E+02 -0.29518013868E+02  0.50528863183E+02  0.30000010130E+02 0.  0.
         12    1    1    2    0    0 -0.24642122326E+02 -0.13214313122E+02  0.29518013868E+02  0.40659136817E+02  0.00000000000E+00 0. -1.
         11    1    3    3    0    0 -0.12660896228E+01  0.26450926270E+01 -0.87238156517E+01  0.92035024705E+01  0.51100000000E-03 0. -1.
        -11    1    3    3    0    0  0.11358916271E+02 -0.15465260129E+01  0.20599599194E+01  0.11647324014E+02  0.51100000000E-03 0.  1.
        -12    1    3    3    0    0  0.14549295678E+02  0.12115746508E+02 -0.22854158136E+02  0.29678036698E+02  0.00000000000E+00 0.  1.
</event>
<event>
 7    1  0.5849044E-013  0.5052886E+02  0.7816164E-02  0.1300439E+00
        -11   -1    0    0    0    0  0.00000000000E+00  0.00000000000E+00  0.45593999997E+02  0.45594000000E+02  0.51100000000E-03 0.  1.
         11   -1    0    0    0    0 -0.00000000000E+00 -0.00000000000E+00 -0.45593999997E+02  0.45594000000E+02  0.51100000000E-03 0. -1.
    9900012    2    1    2    0    0  0.85426428794E+01  0.31899871687E+02  0.23718917283E+02  0.50528860829E+02  0.30000002976E+02 0.  0.
         12    1    1    2    0    0 -0.85426428794E+01 -0.31899871687E+02 -0.23718917283E+02  0.40659139171E+02  0.00000000000E+00 0. -1.
         11    1    3    3    0    0  0.25418277185E+01  0.23505924246E+02  0.83994709351E+01  0.25090645171E+02  0.51100000000E-03 0. -1.
        -11    1    3    3    0    0 -0.11249638283E+00  0.21284659835E+01  0.16471597576E+02  0.16608929822E+02  0.51100000000E-03 0.  1.
         12    1    3    3    0    0  0.61133115437E+01  0.62654814575E+01 -0.11521512281E+01  0.88292858362E+01  0.00000000000E+00 0. -1.
</event>
<event>
 7    1  0.5849044E-013  0.5052886E+02  0.7816164E-02  0.1300439E+00
        -11   -1    0    0    0    0  0.00000000000E+00  0.00000000000E+00  0.45593999997E+02  0.45594000000E+02  0.51100000000E-03 0.  1.
         11   -1    0    0    0    0 -0.00000000000E+00 -0.00000000000E+00 -0.45593999997E+02  0.45594000000E+02  0.51100000000E-03 0. -1.
    9900012    2    1    2    0    0  0.24561559052E+02  0.27513402217E+02  0.17114552036E+02  0.50528863561E+02  0.30000011279E+02 0.  0.
         12    1    1    2    0    0 -0.24561559052E+02 -0.27513402217E+02 -0.17114552036E+02  0.40659136439E+02  0.00000000000E+00 0. -1.
         11    1    3    3    0    0  0.14410077565E+01  0.11098075084E+02  0.12669817503E+00  0.11191953655E+02  0.51100000000E-03 0. -1.
        -11    1    3    3    0    0  0.54990084948E+01 -0.51920824831E+01  0.29191598877E+01  0.81066830238E+01  0.51100000000E-03 0.  1.
        -12    1    3    3    0    0  0.17621542801E+02  0.21607409616E+02  0.14068693973E+02  0.31230226882E+02  0.00000000000E+00 0.  1.
</event>
<event>
 7    1  0.5849044E-013  0.5052886E+02  0.7816164E-02  0.1300439E+00
        -11   -1    0    0    0    0  0.00000000000E+00  0.00000000000E+00  0.45593999997E+02  0.45594000000E+02  0.51100000000E-03 0. -1.
         11   -1    0    0    0    0 -0.00000000000E+00 -0.00000000000E+00 -0.45593999997E+02  0.45594000000E+02  0.51100000000E-03 0.  1.
    9900012    2    1    2    0    0 -0.71791336187E+01 -0.31571599195E+02 -0.24593894208E+02  0.50528862434E+02  0.30000007855E+02 0.  0.
         12    1    1    2    0    0  0.71791336187E+01  0.31571599195E+02  0.24593894208E+02  0.40659137566E+02  0.00000000000E+00 0. -1.
         11    1    3    3    0    0 -0.69700595378E+00 -0.28344460927E+02 -0.92805567291E+01  0.29833253527E+02  0.51100000000E-03 0. -1.
        -11    1    3    3    0    0 -0.79424075055E+01 -0.35732192749E+01 -0.16582327524E+02  0.18730278144E+02  0.51100000000E-03 0.  1.
        -12    1    3    3    0    0  0.14602798406E+01  0.34608100619E+00  0.12689900452E+01  0.19653307636E+01  0.00000000000E+00 0.  1.
</event>
<event>
 7    1  0.5849044E-013  0.5052886E+02  0.7816164E-02  0.1300439E+00
        -11   -1    0    0    0    0  0.00000000000E+00  0.00000000000E+00  0.45593999997E+02  0.45594000000E+02  0.51100000000E-03 0.  1.
         11   -1    0    0    0    0 -0.00000000000E+00 -0.00000000000E+00 -0.45593999997E+02  0.45594000000E+02  0.51100000000E-03 0. -1.
    9900012    2    1    2    0    0 -0.16575709151E+02  0.18128652812E+01  0.37082681110E+02  0.50528857698E+02  0.29999993460E+02 0.  0.
         12    1    1    2    0    0  0.16575709151E+02 -0.18128652812E+01 -0.37082681110E+02  0.40659142302E+02  0.00000000000E+00 0. -1.
         11    1    3    3    0    0  0.79693093866E+01 -0.57358469245E+00  0.91102874594E+01  0.12117599983E+02  0.51100000000E-03 0. -1.
        -11    1    3    3    0    0 -0.18660992162E+02 -0.22426837696E+01  0.19001424579E+02  0.26726698173E+02  0.51100000000E-03 0.  1.
         12    1    3    3    0    0 -0.58840263765E+01  0.46291337432E+01  0.89709690717E+01  0.11684559542E+02  0.00000000000E+00 0. -1.
</event>
<event>
 7    1  0.5849044E-013  0.5052886E+02  0.7816164E-02  0.1300439E+00
        -11   -1    0    0    0    0  0.00000000000E+00  0.00000000000E+00  0.45593999997E+02  0.45594000000E+02  0.51100000000E-03 0. -1.
         11   -1    0    0    0    0 -0.00000000000E+00 -0.00000000000E+00 -0.45593999997E+02  0.45594000000E+02  0.51100000000E-03 0.  1.
    9900012    2    1    2    0    0 -0.40373659234E+01  0.39638782722E+02  0.81013907035E+01  0.50528856494E+02  0.29999989799E+02 0.  0.
         12    1    1    2    0    0  0.40373659234E+01 -0.39638782722E+02 -0.81013907035E+01  0.40659143506E+02  0.00000000000E+00 0. -1.
         11    1    3    3    0    0 -0.24973893597E+01  0.32015970617E+00 -0.22591883379E+01  0.33828077183E+01  0.51100000000E-03 0. -1.
        -11    1    3    3    0    0 -0.53179389437E+01  0.35841960516E+02  0.74079433244E+00  0.36241900953E+02  0.51100000000E-03 0.  1.
        -12    1    3    3    0    0  0.37779623800E+01  0.34766625007E+01  0.96197847089E+01  0.10904147823E+02  0.00000000000E+00 0.  1.
</event>
<event>
 7    1  0.5849044E-013  0.5052886E+02  0.7816164E-02  0.1300439E+00
        -11   -1    0    0    0    0  0.00000000000E+00  0.00000000000E+00  0.45593999997E+02  0.45594000000E+02  0.51100000000E-03 0.  1.
         11   -1    0    0    0    0 -0.00000000000E+00 -0.00000000000E+00 -0.45593999997E+02  0.45594000000E+02  0.51100000000E-03 0. -1.
    9900012    2    1    2    0    0  0.12453943395E+02 -0.19055588954E+02  0.33689014365E+02  0.50528857543E+02  0.29999992987E+02 0.  0.
         12    1    1    2    0    0 -0.12453943395E+02  0.19055588954E+02 -0.33689014365E+02  0.40659142457E+02  0.00000000000E+00 0. -1.
         11    1    3    3    0    0  0.12590977465E+02 -0.25382767826E+02  0.23949629463E+02  0.37099897139E+02  0.51100000000E-03 0. -1.
        -11    1    3    3    0    0 -0.56627264957E+00  0.33524454534E+01  0.98511319682E+01  0.10421341399E+02  0.51100000000E-03 0.  1.
         12    1    3    3    0    0  0.42923857914E+00  0.29747334190E+01 -0.11174706617E+00  0.30076190049E+01  0.00000000000E+00 0. -1.
</event>
<event>
 7    1  0.5849044E-013  0.5052885E+02  0.7816164E-02  0.1300439E+00
        -11   -1    0    0    0    0  0.00000000000E+00  0.00000000000E+00  0.45593999997E+02  0.45594000000E+02  0.51100000000E-03 0. -1.
         11   -1    0    0    0    0 -0.00000000000E+00 -0.00000000000E+00 -0.45593999997E+02  0.45594000000E+02  0.51100000000E-03 0.  1.
    9900012    2    1    2    0    0  0.18384570330E+01 -0.39930720001E+02 -0.74379942792E+01  0.50528854867E+02  0.29999984852E+02 0.  0.
         12    1    1    2    0    0 -0.18384570330E+01  0.39930720001E+02  0.74379942792E+01  0.40659145133E+02  0.00000000000E+00 0. -1.
         11    1    3    3    0    0  0.12004582417E+02 -0.18108296463E+02  0.38813504114E+01  0.22070008633E+02  0.51100000000E-03 0. -1.
        -11    1    3    3    0    0 -0.11385523593E+02 -0.16690212397E+02 -0.62642243043E+01  0.21152632076E+02  0.51100000000E-03 0.  1.
         12    1    3    3    0    0  0.12193982094E+01 -0.51322111407E+01 -0.50551203862E+01  0.73062141568E+01  0.00000000000E+00 0. -1.
</event>
<event>
 7    1  0.5849044E-013  0.5052885E+02  0.7816164E-02  0.1300439E+00
        -11   -1    0    0    0    0  0.00000000000E+00  0.00000000000E+00  0.45593999997E+02  0.45594000000E+02  0.51100000000E-03 0.  1.
         11   -1    0    0    0    0 -0.00000000000E+00 -0.00000000000E+00 -0.45593999997E+02  0.45594000000E+02  0.51100000000E-03 0. -1.
    9900012    2    1    2    0    0 -0.20972903328E+02  0.92392719889E+01  0.33584807594E+02  0.50528854386E+02  0.29999983392E+02 0.  0.
         12    1    1    2    0    0  0.20972903328E+02 -0.92392719889E+01 -0.33584807594E+02  0.40659145614E+02  0.00000000000E+00 0. -1.
         11    1    3    3    0    0  0.36581771386E+01 -0.81442604182E+00 -0.11885253836E+01  0.39316844486E+01  0.51100000000E-03 0. -1.
        -11    1    3    3    0    0 -0.17794077543E+02  0.92097631858E+01  0.13307023259E+02  0.24052563311E+02  0.51100000000E-03 0.  1.
        -12    1    3    3    0    0 -0.68370029235E+01  0.84393484486E+00  0.21466309719E+02  0.22544606627E+02  0.00000000000E+00 0.  1.
</event>
<event>
 7    1  0.5849044E-013  0.5052886E+02  0.7816164E-02  0.1300439E+00
        -11   -1    0    0    0    0  0.00000000000E+00  0.00000000000E+00  0.45593999997E+02  0.45594000000E+02  0.51100000000E-03 0.  1.
         11   -1    0    0    0    0 -0.00000000000E+00 -0.00000000000E+00 -0.45593999997E+02  0.45594000000E+02  0.51100000000E-03 0. -1.
    9900012    2    1    2    0    0 -0.78114559436E+01 -0.10824706020E+02  0.38405369346E+02  0.50528862049E+02  0.30000006683E+02 0.  0.
         12    1    1    2    0    0  0.78114559436E+01  0.10824706020E+02 -0.38405369346E+02  0.40659137951E+02  0.00000000000E+00 0. -1.
         11    1    3    3    0    0  0.71854282743E+01 -0.52038736417E+01  0.35766523005E+01  0.95657264389E+01  0.51100000000E-03 0. -1.
        -11    1    3    3    0    0 -0.16230571126E+02 -0.75103238777E+00  0.29219820771E+02  0.33433417637E+02  0.51100000000E-03 0.  1.
        -12    1    3    3    0    0  0.12336869084E+01 -0.48697999906E+01  0.56088962736E+01  0.75297179724E+01  0.00000000000E+00 0.  1.
</event>
<event>
 7    1  0.5849044E-013  0.5052886E+02  0.7816164E-02  0.1300439E+00
        -11   -1    0    0    0    0  0.00000000000E+00  0.00000000000E+00  0.45593999997E+02  0.45594000000E+02  0.51100000000E-03 0. -1.
         11   -1    0    0    0    0 -0.00000000000E+00 -0.00000000000E+00 -0.45593999997E+02  0.45594000000E+02  0.51100000000E-03 0.  1.
    9900012    2    1    2    0    0  0.80639908079E+01 -0.38434384613E+02  0.10532596276E+02  0.50528862618E+02  0.30000008413E+02 0.  0.
         12    1    1    2    0    0 -0.80639908079E+01  0.38434384613E+02 -0.10532596276E+02  0.40659137382E+02  0.00000000000E+00 0. -1.
         11    1    3    3    0    0 -0.16670982861E+01 -0.26024220355E+02  0.64055975607E+01  0.26852764143E+02  0.51100000000E-03 0. -1.
        -11    1    3    3    0    0  0.14376686187E+02 -0.64587686471E+01  0.26156786030E+01  0.15976438056E+02  0.51100000000E-03 0.  1.
        -12    1    3    3    0    0 -0.46455970930E+01 -0.59513956114E+01  0.15113201122E+01  0.76996604182E+01  0.00000000000E+00 0.  1.
</event>
<event>
 7    1  0.5849044E-013  0.5052886E+02  0.7816164E-02  0.1300439E+00
        -11   -1    0    0    0    0  0.00000000000E+00  0.00000000000E+00  0.45593999997E+02  0.45594000000E+02  0.51100000000E-03 0. -1.
         11   -1    0    0    0    0 -0.00000000000E+00 -0.00000000000E+00 -0.45593999997E+02  0.45594000000E+02  0.51100000000E-03 0.  1.
    9900012    2    1    2    0    0 -0.15563136851E+02 -0.20411827143E+02 -0.31532704582E+02  0.50528863583E+02  0.30000011347E+02 0.  0.
         12    1    1    2    0    0  0.15563136851E+02  0.20411827143E+02  0.31532704582E+02  0.40659136417E+02  0.00000000000E+00 0. -1.
         11    1    3    3    0    0 -0.12628335545E+02 -0.44067032638E+01 -0.47133611595E+01  0.14181313972E+02  0.51100000000E-03 0. -1.
        -11    1    3    3    0    0  0.71162002210E+01 -0.26482037708E+01 -0.61946833964E+01  0.97993566849E+01  0.51100000000E-03 0.  1.
        -12    1    3    3    0    0 -0.10051001527E+02 -0.13356920108E+02 -0.20624660026E+02  0.26548192926E+02  0.00000000000E+00 0.  1.
</event>
<event>
 7    1  0.5849044E-013  0.5052887E+02  0.7816164E-02  0.1300439E+00
        -11   -1    0    0    0    0  0.00000000000E+00  0.00000000000E+00  0.45593999997E+02  0.45594000000E+02  0.51100000000E-03 0.  1.
         11   -1    0    0    0    0 -0.00000000000E+00 -0.00000000000E+00 -0.45593999997E+02  0.45594000000E+02  0.51100000000E-03 0. -1.
    9900012    2    1    2    0    0  0.23453561835E+02  0.25318314926E+02  0.21496010382E+02  0.50528867007E+02  0.30000021755E+02 0.  0.
         12    1    1    2    0    0 -0.23453561835E+02 -0.25318314926E+02 -0.21496010382E+02  0.40659132993E+02  0.00000000000E+00 0. -1.
         11    1    3    3    0    0  0.28331560879E+01 -0.30139509278E+01  0.81430470337E+01  0.91334489033E+01  0.51100000000E-03 0. -1.
        -11    1    3    3    0    0  0.53942437858E+01  0.21919613660E+02  0.63388236105E+01  0.23446705825E+02  0.51100000000E-03 0.  1.
         12    1    3    3    0    0  0.15226161961E+02  0.64126521937E+01  0.70141397376E+01  0.17948712279E+02  0.00000000000E+00 0. -1.
</event>
<event>
 7    1  0.5849044E-013  0.5052885E+02  0.7816164E-02  0.1300439E+00
        -11   -1    0    0    0    0  0.00000000000E+00  0.00000000000E+00  0.45593999997E+02  0.45594000000E+02  0.51100000000E-03 0.  1.
         11   -1    0    0    0    0 -0.00000000000E+00 -0.00000000000E+00 -0.45593999997E+02  0.45594000000E+02  0.51100000000E-03 0. -1.
    9900012    2    1    2    0    0  0.18194462447E+02  0.35654651852E+02  0.71326082357E+01  0.50528846508E+02  0.29999959447E+02 0.  0.
         12    1    1    2    0    0 -0.18194462447E+02 -0.35654651852E+02 -0.71326082357E+01  0.40659153492E+02  0.00000000000E+00 0. -1.
         11    1    3    3    0    0  0.71260270642E+01  0.29564416648E+02 -0.39643257535E+01  0.30668401855E+02  0.51100000000E-03 0. -1.
        -11    1    3    3    0    0 -0.18511413813E+01  0.28065016377E+00  0.30216942366E+01  0.35547327957E+01  0.51100000000E-03 0.  1.
         12    1    3    3    0    0  0.12919576764E+02  0.58095850403E+01  0.80752397526E+01  0.16305711857E+02  0.00000000000E+00 0. -1.
</event>
<event>
 7    1  0.5849044E-013  0.5052892E+02  0.7816164E-02  0.1300439E+00
        -11   -1    0    0    0    0  0.00000000000E+00  0.00000000000E+00  0.45593999997E+02  0.45594000000E+02  0.51100000000E-03 0. -1.
         11   -1    0    0    0    0 -0.00000000000E+00 -0.00000000000E+00 -0.45593999997E+02  0.45594000000E+02  0.51100000000E-03 0.  1.
    9900012    2    1    2    0    0  0.28435500326E+02 -0.10774931438E+02 -0.26990449004E+02  0.50528915360E+02  0.30000168729E+02 0.  0.
         12    1    1    2    0    0 -0.28435500326E+02  0.10774931438E+02  0.26990449004E+02  0.40659084640E+02  0.00000000000E+00 0. -1.
         11    1    3    3    0    0 -0.15275324120E+01 -0.13083646840E+01  0.23198502926E+01  0.30703223051E+01  0.51100000000E-03 0. -1.
        -11    1    3    3    0    0  0.17929869719E+02 -0.87066674026E+01 -0.29256943116E+02  0.35401341870E+02  0.51100000000E-03 0.  1.
        -12    1    3    3    0    0  0.12033163019E+02 -0.75989935178E+00 -0.53356180579E-01  0.12057251186E+02  0.00000000000E+00 0.  1.
</event>
<event>
 7    1  0.5849044E-013  0.5052885E+02  0.7816164E-02  0.1300439E+00
        -11   -1    0    0    0    0  0.00000000000E+00  0.00000000000E+00  0.45593999997E+02  0.45594000000E+02  0.51100000000E-03 0.  1.
         11   -1    0    0    0    0 -0.00000000000E+00 -0.00000000000E+00 -0.45593999997E+02  0.45594000000E+02  0.51100000000E-03 0. -1.
    9900012    2    1    2    0    0 -0.28054494562E+02 -0.13395782197E+02  0.26204297609E+02  0.50528845324E+02  0.29999955847E+02 0.  0.
         12    1    1    2    0    0  0.28054494562E+02  0.13395782197E+02 -0.26204297609E+02  0.40659154676E+02  0.00000000000E+00 0. -1.
         11    1    3    3    0    0 -0.17885800456E+01  0.63844355174E+01  0.11147754250E+01  0.67232997824E+01  0.51100000000E-03 0. -1.
        -11    1    3    3    0    0 -0.13077571927E+02 -0.82552251159E+01  0.20537534887E+02  0.25709180630E+02  0.51100000000E-03 0.  1.
         12    1    3    3    0    0 -0.13188342589E+02 -0.11524992598E+02  0.45519872977E+01  0.18096364911E+02  0.00000000000E+00 0. -1.
</event>
<event>
 7    1  0.5849044E-013  0.5052884E+02  0.7816164E-02  0.1300439E+00
        -11   -1    0    0    0    0  0.00000000000E+00  0.00000000000E+00  0.45593999997E+02  0.45594000000E+02  0.51100000000E-03 0.  1.
         11   -1    0    0    0    0 -0.00000000000E+00 -0.00000000000E+00 -0.45593999997E+02  0.45594000000E+02  0.51100000000E-03 0. -1.
    9900012    2    1    2    0    0  0.20171471287E+02  0.12123159481E+02 -0.33155811146E+02  0.50528842822E+02  0.29999948242E+02 0.  0.
         12    1    1    2    0    0 -0.20171471287E+02 -0.12123159481E+02  0.33155811146E+02  0.40659157178E+02  0.00000000000E+00 0. -1.
         11    1    3    3    0    0 -0.41822344535E+01 -0.25319869119E+01 -0.68027925327E+01  0.83773521622E+01  0.51100000000E-03 0. -1.
        -11    1    3    3    0    0  0.76269160204E+01  0.14107781406E+02 -0.11065412288E+02  0.19484421817E+02  0.51100000000E-03 0.  1.
         12    1    3    3    0    0  0.16726789720E+02  0.54736498628E+00 -0.15287606325E+02  0.22667068843E+02  0.00000000000E+00 0. -1.
</event>
<event>
 7    1  0.5849044E-013  0.5052886E+02  0.7816164E-02  0.1300439E+00
        -11   -1    0    0    0    0  0.00000000000E+00  0.00000000000E+00  0.45593999997E+02  0.45594000000E+02  0.51100000000E-03 0. -1.
         11   -1    0    0    0    0 -0.00000000000E+00 -0.00000000000E+00 -0.45593999997E+02  0.45594000000E+02  0.51100000000E-03 0.  1.
    9900012    2    1    2    0    0 -0.13542842776E+02 -0.63304679975E+01 -0.37811142417E+02  0.50528857038E+02  0.29999991452E+02 0.  0.
         12    1    1    2    0    0  0.13542842776E+02  0.63304679975E+01  0.37811142417E+02  0.40659142962E+02  0.00000000000E+00 0. -1.
         11    1    3    3    0    0  0.52055346337E+01  0.21259858452E+01 -0.35801612483E+01  0.66659554050E+01  0.51100000000E-03 0. -1.
        -11    1    3    3    0    0 -0.13110806855E+02 -0.12918282718E+02 -0.16458372962E+02  0.24691158855E+02  0.51100000000E-03 0.  1.
        -12    1    3    3    0    0 -0.56375705547E+01  0.44618288757E+01 -0.17772608207E+02  0.19171742778E+02  0.00000000000E+00 0.  1.
</event>
<event>
 7    1  0.5849044E-013  0.5052886E+02  0.7816164E-02  0.1300439E+00
        -11   -1    0    0    0    0  0.00000000000E+00  0.00000000000E+00  0.45593999997E+02  0.45594000000E+02  0.51100000000E-03 0. -1.
         11   -1    0    0    0    0 -0.00000000000E+00 -0.00000000000E+00 -0.45593999997E+02  0.45594000000E+02  0.51100000000E-03 0.  1.
    9900012    2    1    2    0    0  0.17038586521E+02  0.32731061592E+02 -0.17074255578E+02  0.50528855553E+02  0.29999986940E+02 0.  0.
         12    1    1    2    0    0 -0.17038586521E+02 -0.32731061592E+02  0.17074255578E+02  0.40659144447E+02  0.00000000000E+00 0. -1.
         11    1    3    3    0    0  0.16231567233E+02  0.17527469142E+01 -0.77243036634E+01  0.18061028872E+02  0.51100000000E-03 0. -1.
        -11    1    3    3    0    0  0.79611247020E+00  0.23465068493E+02 -0.81873447048E+01  0.24865153287E+02  0.51100000000E-03 0.  1.
        -12    1    3    3    0    0  0.10906817424E-01  0.75132461857E+01 -0.11626072100E+01  0.76026733936E+01  0.00000000000E+00 0.  1.
</event>
<event>
 7    1  0.5849044E-013  0.5052886E+02  0.7816164E-02  0.1300439E+00
        -11   -1    0    0    0    0  0.00000000000E+00  0.00000000000E+00  0.45593999997E+02  0.45594000000E+02  0.51100000000E-03 0.  1.
         11   -1    0    0    0    0 -0.00000000000E+00 -0.00000000000E+00 -0.45593999997E+02  0.45594000000E+02  0.51100000000E-03 0. -1.
    9900012    2    1    2    0    0  0.15025457253E+02  0.27329146341E+00  0.37779976921E+02  0.50528859453E+02  0.29999998792E+02 0.  0.
         12    1    1    2    0    0 -0.15025457253E+02 -0.27329146341E+00 -0.37779976921E+02  0.40659140547E+02  0.00000000000E+00 0. -1.
         11    1    3    3    0    0 -0.66999657683E+01  0.32989160255E+01  0.19103697892E+01  0.77085602568E+01  0.51100000000E-03 0. -1.
        -11    1    3    3    0    0  0.20500538140E+02 -0.19233326748E+01  0.27861445372E+02  0.34644356122E+02  0.51100000000E-03 0.  1.
        -12    1    3    3    0    0  0.12248848813E+01 -0.11022918874E+01  0.80081617599E+01  0.81759430740E+01  0.00000000000E+00 0.  1.
</event>
<event>
 7    1  0.5849044E-013  0.5052887E+02  0.7816164E-02  0.1300439E+00
        -11   -1    0    0    0    0  0.00000000000E+00  0.00000000000E+00  0.45593999997E+02  0.45594000000E+02  0.51100000000E-03 0.  1.
         11   -1    0    0    0    0 -0.00000000000E+00 -0.00000000000E+00 -0.45593999997E+02  0.45594000000E+02  0.51100000000E-03 0. -1.
    9900012    2    1    2    0    0 -0.44393065425E+01 -0.22845123108E+02  0.33340029866E+02  0.50528872072E+02  0.30000037151E+02 0.  0.
         12    1    1    2    0    0  0.44393065425E+01  0.22845123108E+02 -0.33340029866E+02  0.40659127928E+02  0.00000000000E+00 0. -1.
         11    1    3    3    0    0 -0.17720231326E+01  0.34458598981E+01  0.33986490410E+01  0.51541082628E+01  0.51100000000E-03 0. -1.
        -11    1    3    3    0    0  0.30271544475E+01 -0.25288456178E+02  0.30299183110E+02  0.39581689925E+02  0.51100000000E-03 0.  1.
        -12    1    3    3    0    0 -0.56944378574E+01 -0.10025268280E+01 -0.35780228564E+00  0.57930738843E+01  0.00000000000E+00 0.  1.
</event>
<event>
 7    1  0.5849044E-013  0.5052886E+02  0.7816164E-02  0.1300439E+00
        -11   -1    0    0    0    0  0.00000000000E+00  0.00000000000E+00  0.45593999997E+02  0.45594000000E+02  0.51100000000E-03 0. -1.
         11   -1    0    0    0    0 -0.00000000000E+00 -0.00000000000E+00 -0.45593999997E+02  0.45594000000E+02  0.51100000000E-03 0.  1.
    9900012    2    1    2    0    0  0.23857578357E+02  0.50875185490E+01 -0.32528436071E+02  0.50528855355E+02  0.29999986336E+02 0.  0.
         12    1    1    2    0    0 -0.23857578357E+02 -0.50875185490E+01  0.32528436071E+02  0.40659144645E+02  0.00000000000E+00 0. -1.
         11    1    3    3    0    0  0.38107812125E+01 -0.46018435756E+01  0.10471404146E+01  0.60659311777E+01  0.51100000000E-03 0. -1.
        -11    1    3    3    0    0  0.23154400435E+02  0.11001058763E+02 -0.28140507143E+02  0.38066227760E+02  0.51100000000E-03 0.  1.
         12    1    3    3    0    0 -0.31076032900E+01 -0.13116966384E+01 -0.54350693431E+01  0.63966964164E+01  0.00000000000E+00 0. -1.
</event>
<event>
 7    1  0.5849044E-013  0.5052886E+02  0.7816164E-02  0.1300439E+00
        -11   -1    0    0    0    0  0.00000000000E+00  0.00000000000E+00  0.45593999997E+02  0.45594000000E+02  0.51100000000E-03 0.  1.
         11   -1    0    0    0    0 -0.00000000000E+00 -0.00000000000E+00 -0.45593999997E+02  0.45594000000E+02  0.51100000000E-03 0. -1.
    9900012    2    1    2    0    0  0.29659304950E+02 -0.10277434820E+01  0.27792721314E+02  0.50528856074E+02  0.29999988522E+02 0.  0.
         12    1    1    2    0    0 -0.29659304950E+02  0.10277434820E+01 -0.27792721314E+02  0.40659143926E+02  0.00000000000E+00 0. -1.
         11    1    3    3    0    0  0.10410270855E+02 -0.51293498021E+01  0.22125624368E+02  0.24984539672E+02  0.51100000000E-03 0. -1.
        -11    1    3    3    0    0  0.13439485750E+02  0.99057311315E+01  0.38194297708E+01  0.17126918302E+02  0.51100000000E-03 0.  1.
         12    1    3    3    0    0  0.58095483440E+01 -0.58041248114E+01  0.18476671752E+01  0.84173981003E+01  0.00000000000E+00 0. -1.
</event>
<event>
 7    1  0.5849044E-013  0.5052886E+02  0.7816164E-02  0.1300439E+00
        -11   -1    0    0    0    0  0.00000000000E+00  0.00000000000E+00  0.45593999997E+02  0.45594000000E+02  0.51100000000E-03 0. -1.
         11   -1    0    0    0    0 -0.00000000000E+00 -0.00000000000E+00 -0.45593999997E+02  0.45594000000E+02  0.51100000000E-03 0.  1.
    9900012    2    1    2    0    0  0.31607518052E+02  0.16440782492E+02 -0.19591608652E+02  0.50528860118E+02  0.30000000815E+02 0.  0.
         12    1    1    2    0    0 -0.31607518052E+02 -0.16440782492E+02  0.19591608652E+02  0.40659139882E+02  0.00000000000E+00 0. -1.
         11    1    3    3    0    0  0.18924824859E+02  0.13136826761E+02  0.13756549376E+01  0.23078510352E+02  0.51100000000E-03 0. -1.
        -11    1    3    3    0    0  0.75581985625E+01  0.72377574746E+01 -0.87943623176E+01  0.13669393096E+02  0.51100000000E-03 0.  1.
         12    1    3    3    0    0  0.51244946304E+01 -0.39338017435E+01 -0.12172901272E+02  0.13780956670E+02  0.00000000000E+00 0. -1.
</event>
<event>
 7    1  0.5849044E-013  0.5052887E+02  0.7816164E-02  0.1300439E+00
        -11   -1    0    0    0    0  0.00000000000E+00  0.00000000000E+00  0.45593999997E+02  0.45594000000E+02  0.51100000000E-03 0.  1.
         11   -1    0    0    0    0 -0.00000000000E+00 -0.00000000000E+00 -0.45593999997E+02  0.45594000000E+02  0.51100000000E-03 0. -1.
    9900012    2    1    2    0    0 -0.38138301520E+02  0.75624516016E+01  0.11893012677E+02  0.50528874732E+02  0.30000045235E+02 0.  0.
         12    1    1    2    0    0  0.38138301520E+02 -0.75624516016E+01 -0.11893012677E+02  0.40659125268E+02  0.00000000000E+00 0. -1.
         11    1    3    3    0    0 -0.14773286288E+02  0.69974891906E+00 -0.50337860227E+01  0.15623016299E+02  0.51100000000E-03 0. -1.
        -11    1    3    3    0    0 -0.22778023666E+02  0.85369232341E+01  0.19910339293E+02  0.31434678803E+02  0.51100000000E-03 0.  1.
        -12    1    3    3    0    0 -0.58699156652E+00 -0.16742205516E+01 -0.29835405932E+01  0.34711796303E+01  0.00000000000E+00 0.  1.
</event>
<event>
 7    1  0.5849044E-013  0.5052886E+02  0.7816164E-02  0.1300439E+00
        -11   -1    0    0    0    0  0.00000000000E+00  0.00000000000E+00  0.45593999997E+02  0.45594000000E+02  0.51100000000E-03 0.  1.
         11   -1    0    0    0    0 -0.00000000000E+00 -0.00000000000E+00 -0.45593999997E+02  0.45594000000E+02  0.51100000000E-03 0. -1.
    9900012    2    1    2    0    0  0.29840315451E+02 -0.21384936226E+02  0.17475858667E+02  0.50528861301E+02  0.30000004410E+02 0.  0.
         12    1    1    2    0    0 -0.29840315451E+02  0.21384936226E+02 -0.17475858667E+02  0.40659138699E+02  0.00000000000E+00 0. -1.
         11    1    3    3    0    0  0.42927559801E+01  0.31223608399E+01 -0.13631904793E+01  0.54804360833E+01  0.51100000000E-03 0. -1.
        -11    1    3    3    0    0  0.23224902622E+02 -0.23143841683E+02  0.23029332012E+02  0.40067239022E+02  0.51100000000E-03 0.  1.
        -12    1    3    3    0    0  0.23226568491E+01 -0.13634553828E+01 -0.41902828659E+01  0.49811861956E+01  0.00000000000E+00 0.  1.
</event>
<event>
 7    1  0.5849044E-013  0.5052889E+02  0.7816164E-02  0.1300439E+00
        -11   -1    0    0    0    0  0.00000000000E+00  0.00000000000E+00  0.45593999997E+02  0.45594000000E+02  0.51100000000E-03 0.  1.
         11   -1    0    0    0    0 -0.00000000000E+00 -0.00000000000E+00 -0.45593999997E+02  0.45594000000E+02  0.51100000000E-03 0. -1.
    9900012    2    1    2    0    0  0.23012179621E+02  0.16405861232E+02  0.29230992180E+02  0.50528885431E+02  0.30000077757E+02 0.  0.
         12    1    1    2    0    0 -0.23012179621E+02 -0.16405861232E+02 -0.29230992180E+02  0.40659114569E+02  0.00000000000E+00 0. -1.
         11    1    3    3    0    0 -0.16484297804E+01  0.79688816652E+01  0.26653852759E+01  0.85629828135E+01  0.51100000000E-03 0. -1.
        -11    1    3    3    0    0  0.19631471404E+02  0.63933010467E+01  0.29334704867E+02  0.35871909312E+02  0.51100000000E-03 0.  1.
        -12    1    3    3    0    0  0.50291379971E+01  0.20436785204E+01 -0.27690979626E+01  0.60939933062E+01  0.00000000000E+00 0.  1.
</event>
<event>
 7    1  0.5849044E-013  0.5052887E+02  0.7816164E-02  0.1300439E+00
        -11   -1    0    0    0    0  0.00000000000E+00  0.00000000000E+00  0.45593999997E+02  0.45594000000E+02  0.51100000000E-03 0. -1.
         11   -1    0    0    0    0 -0.00000000000E+00 -0.00000000000E+00 -0.45593999997E+02  0.45594000000E+02  0.51100000000E-03 0.  1.
    9900012    2    1    2    0    0 -0.15336473401E+02  0.37622625151E+02 -0.15796932388E+01  0.50528871008E+02  0.30000033915E+02 0.  0.
         12    1    1    2    0    0  0.15336473401E+02 -0.37622625151E+02  0.15796932388E+01  0.40659128992E+02  0.00000000000E+00 0. -1.
         11    1    3    3    0    0  0.70848597751E+01  0.62044438593E+01 -0.40607017897E+01  0.10255713574E+02  0.51100000000E-03 0. -1.
        -11    1    3    3    0    0 -0.15486685394E+02  0.13216677561E+02  0.39526732415E+01  0.20739855744E+02  0.51100000000E-03 0.  1.
        -12    1    3    3    0    0 -0.69346477820E+01  0.18201503731E+02 -0.14716646905E+01  0.19533301689E+02  0.00000000000E+00 0.  1.
</event>
<event>
 7    1  0.5849044E-013  0.5052890E+02  0.7816164E-02  0.1300439E+00
        -11   -1    0    0    0    0  0.00000000000E+00  0.00000000000E+00  0.45593999997E+02  0.45594000000E+02  0.51100000000E-03 0. -1.
         11   -1    0    0    0    0 -0.00000000000E+00 -0.00000000000E+00 -0.45593999997E+02  0.45594000000E+02  0.51100000000E-03 0.  1.
    9900012    2    1    2    0    0  0.31657295094E+02 -0.81037473993E+01 -0.24193133585E+02  0.50528895641E+02  0.30000108790E+02 0.  0.
         12    1    1    2    0    0 -0.31657295094E+02  0.81037473993E+01  0.24193133585E+02  0.40659104359E+02  0.00000000000E+00 0. -1.
         11    1    3    3    0    0  0.10800206446E+02  0.76253680629E+00 -0.12195902610E+02  0.16308462907E+02  0.51100000000E-03 0. -1.
        -11    1    3    3    0    0  0.11416496699E+01 -0.11416361918E+02 -0.78804104656E+01  0.13918963783E+02  0.51100000000E-03 0.  1.
        -12    1    3    3    0    0  0.19715438979E+02  0.25500777128E+01 -0.41168205097E+01  0.20301468951E+02  0.00000000000E+00 0.  1.
</event>
<event>
 7    1  0.5849044E-013  0.5052887E+02  0.7816164E-02  0.1300439E+00
        -11   -1    0    0    0    0  0.00000000000E+00  0.00000000000E+00  0.45593999997E+02  0.45594000000E+02  0.51100000000E-03 0.  1.
         11   -1    0    0    0    0 -0.00000000000E+00 -0.00000000000E+00 -0.45593999997E+02  0.45594000000E+02  0.51100000000E-03 0. -1.
    9900012    2    1    2    0    0 -0.84295311156E+01  0.32988082590E+01  0.39638692407E+02  0.50528867367E+02  0.30000022849E+02 0.  0.
         12    1    1    2    0    0  0.84295311156E+01 -0.32988082590E+01 -0.39638692407E+02  0.40659132633E+02  0.00000000000E+00 0. -1.
         11    1    3    3    0    0 -0.11276819698E+02 -0.23589888619E+01  0.22720489860E+02  0.25474539264E+02  0.51100000000E-03 0.  1.
        -11    1    3    3    0    0  0.87066310972E+01  0.38479189610E+01  0.32248008013E+01  0.10050435108E+02  0.51100000000E-03 0. -1.
         12    1    3    3    0    0 -0.58593425147E+01  0.18098781599E+01  0.13693401745E+02  0.15003892995E+02  0.00000000000E+00 0. -1.
</event>
<event>
 7    1  0.5849044E-013  0.5052886E+02  0.7816164E-02  0.1300439E+00
        -11   -1    0    0    0    0  0.00000000000E+00  0.00000000000E+00  0.45593999997E+02  0.45594000000E+02  0.51100000000E-03 0. -1.
         11   -1    0    0    0    0 -0.00000000000E+00 -0.00000000000E+00 -0.45593999997E+02  0.45594000000E+02  0.51100000000E-03 0.  1.
    9900012    2    1    2    0    0 -0.10738702610E+01 -0.17761305039E+02 -0.36558832219E+02  0.50528863668E+02  0.30000011607E+02 0.  0.
         12    1    1    2    0    0  0.10738702610E+01  0.17761305039E+02  0.36558832219E+02  0.40659136332E+02  0.00000000000E+00 0. -1.
         11    1    3    3    0    0 -0.94299988787E+01  0.17541397886E+01 -0.11063805941E+02  0.14642734970E+02  0.51100000000E-03 0. -1.
        -11    1    3    3    0    0  0.10433206211E+02 -0.14632711453E+02 -0.12617821287E+02  0.21958539355E+02  0.51100000000E-03 0.  1.
        -12    1    3    3    0    0 -0.20770775934E+01 -0.48827333746E+01 -0.12877204991E+02  0.13927589343E+02  0.00000000000E+00 0.  1.
</event>
<event>
 7    1  0.5849044E-013  0.5052885E+02  0.7816164E-02  0.1300439E+00
        -11   -1    0    0    0    0  0.00000000000E+00  0.00000000000E+00  0.45593999997E+02  0.45594000000E+02  0.51100000000E-03 0. -1.
         11   -1    0    0    0    0 -0.00000000000E+00 -0.00000000000E+00 -0.45593999997E+02  0.45594000000E+02  0.51100000000E-03 0.  1.
    9900012    2    1    2    0    0 -0.36556826628E+02  0.15730758172E+02 -0.83251432067E+01  0.50528851765E+02  0.29999975424E+02 0.  0.
         12    1    1    2    0    0  0.36556826628E+02 -0.15730758172E+02  0.83251432067E+01  0.40659148235E+02  0.00000000000E+00 0. -1.
         11    1    3    3    0    0 -0.36818323671E+01  0.62665502679E+01 -0.18358847558E+01  0.74964001318E+01  0.51100000000E-03 0. -1.
        -11    1    3    3    0    0 -0.22990272514E+01 -0.67426747775E+01 -0.43798354371E+01  0.83625443602E+01  0.51100000000E-03 0.  1.
        -12    1    3    3    0    0 -0.30575967010E+02  0.16206882682E+02 -0.21094230139E+01  0.34669907273E+02  0.00000000000E+00 0.  1.
</event>
<event>
 7    1  0.5849044E-013  0.5052886E+02  0.7816164E-02  0.1300439E+00
        -11   -1    0    0    0    0  0.00000000000E+00  0.00000000000E+00  0.45593999997E+02  0.45594000000E+02  0.51100000000E-03 0. -1.
         11   -1    0    0    0    0 -0.00000000000E+00 -0.00000000000E+00 -0.45593999997E+02  0.45594000000E+02  0.51100000000E-03 0.  1.
    9900012    2    1    2    0    0  0.26058841713E+02 -0.20653931597E+02 -0.23399092434E+02  0.50528860209E+02  0.30000001091E+02 0.  0.
         12    1    1    2    0    0 -0.26058841713E+02  0.20653931597E+02  0.23399092434E+02  0.40659139791E+02  0.00000000000E+00 0. -1.
         11    1    3    3    0    0  0.92295069358E+01 -0.58253317782E+01  0.38788351484E+01  0.11582903391E+02  0.51100000000E-03 0. -1.
        -11    1    3    3    0    0 -0.21475840930E+01 -0.96535157475E+00 -0.86286702649E+01  0.89441585351E+01  0.51100000000E-03 0.  1.
        -12    1    3    3    0    0  0.18976918870E+02 -0.13863248244E+02 -0.18649257318E+02  0.30001798282E+02  0.00000000000E+00 0.  1.
</event>
<event>
 7    1  0.5849044E-013  0.5052886E+02  0.7816164E-02  0.1300439E+00
        -11   -1    0    0    0    0  0.00000000000E+00  0.00000000000E+00  0.45593999997E+02  0.45594000000E+02  0.51100000000E-03 0.  1.
         11   -1    0    0    0    0 -0.00000000000E+00 -0.00000000000E+00 -0.45593999997E+02  0.45594000000E+02  0.51100000000E-03 0. -1.
    9900012    2    1    2    0    0 -0.16768341293E+02  0.18424091598E+00  0.37039900758E+02  0.50528862496E+02  0.30000008041E+02 0.  0.
         12    1    1    2    0    0  0.16768341293E+02 -0.18424091598E+00 -0.37039900758E+02  0.40659137504E+02  0.00000000000E+00 0. -1.
         11    1    3    3    0    0 -0.66859385336E+00 -0.11867334248E+02  0.61546931110E+01  0.13385099456E+02  0.51100000000E-03 0. -1.
        -11    1    3    3    0    0 -0.78720983026E+01  0.52876188424E+01  0.10533015891E+02  0.14172976707E+02  0.51100000000E-03 0.  1.
         12    1    3    3    0    0 -0.82276491368E+01  0.67639563220E+01  0.20352191756E+02  0.22970786333E+02  0.00000000000E+00 0. -1.
</event>
<event>
 7    1  0.5849044E-013  0.5052886E+02  0.7816164E-02  0.1300439E+00
        -11   -1    0    0    0    0  0.00000000000E+00  0.00000000000E+00  0.45593999997E+02  0.45594000000E+02  0.51100000000E-03 0.  1.
         11   -1    0    0    0    0 -0.00000000000E+00 -0.00000000000E+00 -0.45593999997E+02  0.45594000000E+02  0.51100000000E-03 0. -1.
    9900012    2    1    2    0    0 -0.18754028682E+01  0.30629370067E+02  0.26673773387E+02  0.50528860396E+02  0.30000001660E+02 0.  0.
         12    1    1    2    0    0  0.18754028682E+01 -0.30629370067E+02 -0.26673773387E+02  0.40659139604E+02  0.00000000000E+00 0. -1.
         11    1    3    3    0    0  0.10207376399E+02  0.72221505156E+01  0.63663825919E+01  0.14031422543E+02  0.51100000000E-03 0. -1.
        -11    1    3    3    0    0 -0.61729814181E+01  0.12924969140E+02  0.19820329776E+02  0.24454161191E+02  0.51100000000E-03 0.  1.
         12    1    3    3    0    0 -0.59097978493E+01  0.10482250411E+02  0.48706101911E+00  0.12043276661E+02  0.00000000000E+00 0. -1.
</event>
<event>
 7    1  0.5849044E-013  0.5052886E+02  0.7816164E-02  0.1300439E+00
        -11   -1    0    0    0    0  0.00000000000E+00  0.00000000000E+00  0.45593999997E+02  0.45594000000E+02  0.51100000000E-03 0. -1.
         11   -1    0    0    0    0 -0.00000000000E+00 -0.00000000000E+00 -0.45593999997E+02  0.45594000000E+02  0.51100000000E-03 0.  1.
    9900012    2    1    2    0    0  0.15082271693E+02 -0.24762439259E+02 -0.28504603243E+02  0.50528859287E+02  0.29999998289E+02 0.  0.
         12    1    1    2    0    0 -0.15082271693E+02  0.24762439259E+02  0.28504603243E+02  0.40659140713E+02  0.00000000000E+00 0. -1.
         11    1    3    3    0    0  0.86576755976E+01 -0.85847184568E+01 -0.27847382186E+02  0.30399497243E+02  0.51100000000E-03 0. -1.
        -11    1    3    3    0    0  0.21646069692E+01 -0.14124814106E+02 -0.33644110284E+01  0.14680434554E+02  0.51100000000E-03 0.  1.
         12    1    3    3    0    0  0.42599891258E+01 -0.20529066959E+01  0.27071899714E+01  0.54489274904E+01  0.00000000000E+00 0. -1.
</event>
<event>
 7    1  0.5849044E-013  0.5052885E+02  0.7816164E-02  0.1300439E+00
        -11   -1    0    0    0    0  0.00000000000E+00  0.00000000000E+00  0.45593999997E+02  0.45594000000E+02  0.51100000000E-03 0.  1.
         11   -1    0    0    0    0 -0.00000000000E+00 -0.00000000000E+00 -0.45593999997E+02  0.45594000000E+02  0.51100000000E-03 0. -1.
    9900012    2    1    2    0    0 -0.27817387557E+02  0.23413307072E+01  0.29561415879E+02  0.50528853566E+02  0.29999980899E+02 0.  0.
         12    1    1    2    0    0  0.27817387557E+02 -0.23413307072E+01 -0.29561415879E+02  0.40659146434E+02  0.00000000000E+00 0. -1.
         11    1    3    3    0    0 -0.12829821110E+02 -0.48062359617E+01 -0.15286610730E+01  0.13785536579E+02  0.51100000000E-03 0. -1.
        -11    1    3    3    0    0 -0.15199946917E+02  0.30947426860E+01  0.24100446336E+02  0.28660902505E+02  0.51100000000E-03 0.  1.
         12    1    3    3    0    0  0.21238046988E+00  0.40528239830E+01  0.69896306165E+01  0.80824144819E+01  0.00000000000E+00 0. -1.
</event>
<event>
 7    1  0.5849044E-013  0.5052884E+02  0.7816164E-02  0.1300439E+00
        -11   -1    0    0    0    0  0.00000000000E+00  0.00000000000E+00  0.45593999997E+02  0.45594000000E+02  0.51100000000E-03 0. -1.
         11   -1    0    0    0    0 -0.00000000000E+00 -0.00000000000E+00 -0.45593999997E+02  0.45594000000E+02  0.51100000000E-03 0.  1.
    9900012    2    1    2    0    0 -0.56896271819E+01 -0.37958232385E+02 -0.13415224421E+02  0.50528837323E+02  0.29999931528E+02 0.  0.
         12    1    1    2    0    0  0.56896271819E+01  0.37958232385E+02  0.13415224421E+02  0.40659162677E+02  0.00000000000E+00 0. -1.
         11    1    3    3    0    0  0.68300327549E+01 -0.18332890696E+02 -0.17304728969E+02  0.26118917927E+02  0.51100000000E-03 0. -1.
        -11    1    3    3    0    0 -0.86112990487E+01 -0.13344946743E+02 -0.34608789806E+00  0.15885901044E+02  0.51100000000E-03 0.  1.
         12    1    3    3    0    0 -0.39083608880E+01 -0.62803949461E+01  0.42355924456E+01  0.85240183526E+01  0.00000000000E+00 0. -1.
</event>
<event>
 7    1  0.5849044E-013  0.5052888E+02  0.7816164E-02  0.1300439E+00
        -11   -1    0    0    0    0  0.00000000000E+00  0.00000000000E+00  0.45593999997E+02  0.45594000000E+02  0.51100000000E-03 0.  1.
         11   -1    0    0    0    0 -0.00000000000E+00 -0.00000000000E+00 -0.45593999997E+02  0.45594000000E+02  0.51100000000E-03 0. -1.
    9900012    2    1    2    0    0 -0.30953878369E+02 -0.22781896448E+02  0.13266740943E+02  0.50528882854E+02  0.30000069923E+02 0.  0.
         12    1    1    2    0    0  0.30953878369E+02  0.22781896448E+02 -0.13266740943E+02  0.40659117146E+02  0.00000000000E+00 0. -1.
         11    1    3    3    0    0 -0.13665842122E+02 -0.16024611640E+02  0.15194313496E+02  0.25969416282E+02  0.51100000000E-03 0. -1.
        -11    1    3    3    0    0 -0.10083626675E+02 -0.51011142975E+01 -0.89102033578E+01  0.14390712913E+02  0.51100000000E-03 0.  1.
        -12    1    3    3    0    0 -0.72044095713E+01 -0.16561705110E+01  0.69826308048E+01  0.10168753660E+02  0.00000000000E+00 0.  1.
</event>
<event>
 7    1  0.5849044E-013  0.5052886E+02  0.7816164E-02  0.1300439E+00
        -11   -1    0    0    0    0  0.00000000000E+00  0.00000000000E+00  0.45593999997E+02  0.45594000000E+02  0.51100000000E-03 0.  1.
         11   -1    0    0    0    0 -0.00000000000E+00 -0.00000000000E+00 -0.45593999997E+02  0.45594000000E+02  0.51100000000E-03 0. -1.
    9900012    2    1    2    0    0 -0.40039398277E+02  0.68709122222E+01 -0.16741610450E+01  0.50528860014E+02  0.30000000500E+02 0.  0.
         12    1    1    2    0    0  0.40039398277E+02 -0.68709122222E+01  0.16741610450E+01  0.40659139986E+02  0.00000000000E+00 0. -1.
         11    1    3    3    0    0 -0.82075134647E+01 -0.34379369747E+01 -0.87732252281E+01  0.12496086150E+02  0.51100000000E-03 0. -1.
        -11    1    3    3    0    0 -0.25725261434E+02  0.60792441119E+01 -0.17349304240E+01  0.26490682677E+02  0.51100000000E-03 0.  1.
         12    1    3    3    0    0 -0.61066233780E+01  0.42296050850E+01  0.88339946071E+01  0.11542091187E+02  0.00000000000E+00 0. -1.
</event>
<event>
 7    1  0.5849044E-013  0.5052886E+02  0.7816164E-02  0.1300439E+00
        -11   -1    0    0    0    0  0.00000000000E+00  0.00000000000E+00  0.45593999997E+02  0.45594000000E+02  0.51100000000E-03 0. -1.
         11   -1    0    0    0    0 -0.00000000000E+00 -0.00000000000E+00 -0.45593999997E+02  0.45594000000E+02  0.51100000000E-03 0.  1.
    9900012    2    1    2    0    0 -0.61112461631E+01 -0.76975536610E+01 -0.39453341176E+02  0.50528858445E+02  0.29999995729E+02 0.  0.
         12    1    1    2    0    0  0.61112461631E+01  0.76975536610E+01  0.39453341176E+02  0.40659141555E+02  0.00000000000E+00 0. -1.
         11    1    3    3    0    0 -0.39705392298E+01  0.77320632747E+01 -0.17395027210E+02  0.19445743908E+02  0.51100000000E-03 0. -1.
        -11    1    3    3    0    0 -0.51188623813E+01 -0.85816011618E+01 -0.21361554743E+02  0.23583100981E+02  0.51100000000E-03 0.  1.
         12    1    3    3    0    0  0.29781554480E+01 -0.68480157740E+01 -0.69675922290E+00  0.75000135552E+01  0.00000000000E+00 0. -1.
</event>
<event>
 7    1  0.5849044E-013  0.5052886E+02  0.7816164E-02  0.1300439E+00
        -11   -1    0    0    0    0  0.00000000000E+00  0.00000000000E+00  0.45593999997E+02  0.45594000000E+02  0.51100000000E-03 0.  1.
         11   -1    0    0    0    0 -0.00000000000E+00 -0.00000000000E+00 -0.45593999997E+02  0.45594000000E+02  0.51100000000E-03 0. -1.
    9900012    2    1    2    0    0  0.14781734988E+02  0.33623930459E+02  0.17438386371E+02  0.50528859477E+02  0.29999998867E+02 0.  0.
         12    1    1    2    0    0 -0.14781734988E+02 -0.33623930459E+02 -0.17438386371E+02  0.40659140523E+02  0.00000000000E+00 0. -1.
         11    1    3    3    0    0 -0.37650150968E+01 -0.26348312088E+01  0.16326172294E+01  0.48767933580E+01  0.51100000000E-03 0. -1.
        -11    1    3    3    0    0  0.77828563919E+01  0.18006601191E+02  0.69967923860E+00  0.19629062417E+02  0.51100000000E-03 0.  1.
         12    1    3    3    0    0  0.10763893693E+02  0.18252160477E+02  0.15106089903E+02  0.26023003702E+02  0.00000000000E+00 0. -1.
</event>
<event>
 7    1  0.5849044E-013  0.5052885E+02  0.7816164E-02  0.1300439E+00
        -11   -1    0    0    0    0  0.00000000000E+00  0.00000000000E+00  0.45593999997E+02  0.45594000000E+02  0.51100000000E-03 0. -1.
         11   -1    0    0    0    0 -0.00000000000E+00 -0.00000000000E+00 -0.45593999997E+02  0.45594000000E+02  0.51100000000E-03 0.  1.
    9900012    2    1    2    0    0 -0.21168650808E+02  0.23330837314E+02 -0.25704603506E+02  0.50528851113E+02  0.29999973443E+02 0.  0.
         12    1    1    2    0    0  0.21168650808E+02 -0.23330837314E+02  0.25704603506E+02  0.40659148887E+02  0.00000000000E+00 0. -1.
         11    1    3    3    0    0 -0.21388618535E+02  0.10893539215E+02 -0.12183634155E+02  0.26918082045E+02  0.51100000000E-03 0. -1.
        -11    1    3    3    0    0  0.50249903149E+01 -0.71422930866E+00 -0.54585517813E+01  0.74536191867E+01  0.51100000000E-03 0.  1.
        -12    1    3    3    0    0 -0.48050225878E+01  0.13151527408E+02 -0.80624175694E+01  0.16157149882E+02  0.00000000000E+00 0.  1.
</event>
<event>
 7    1  0.5849044E-013  0.5052885E+02  0.7816164E-02  0.1300439E+00
        -11   -1    0    0    0    0  0.00000000000E+00  0.00000000000E+00  0.45593999997E+02  0.45594000000E+02  0.51100000000E-03 0.  1.
         11   -1    0    0    0    0 -0.00000000000E+00 -0.00000000000E+00 -0.45593999997E+02  0.45594000000E+02  0.51100000000E-03 0. -1.
    9900012    2    1    2    0    0  0.17754608583E+02  0.24035713117E+01  0.36498807458E+02  0.50528853098E+02  0.29999979476E+02 0.  0.
         12    1    1    2    0    0 -0.17754608583E+02 -0.24035713117E+01 -0.36498807458E+02  0.40659146902E+02  0.00000000000E+00 0. -1.
         11    1    3    3    0    0  0.20314785579E+01 -0.85605213282E+01  0.10007741417E+01  0.88549974413E+01  0.51100000000E-03 0. -1.
        -11    1    3    3    0    0  0.16111880176E+02  0.71966209244E+01  0.25752238216E+02  0.31217972530E+02  0.51100000000E-03 0.  1.
         12    1    3    3    0    0 -0.38875015099E+00  0.37674717155E+01  0.97457951004E+01  0.10455883126E+02  0.00000000000E+00 0. -1.
</event>
<event>
 7    1  0.5849044E-013  0.5052885E+02  0.7816164E-02  0.1300439E+00
        -11   -1    0    0    0    0  0.00000000000E+00  0.00000000000E+00  0.45593999997E+02  0.45594000000E+02  0.51100000000E-03 0.  1.
         11   -1    0    0    0    0 -0.00000000000E+00 -0.00000000000E+00 -0.45593999997E+02  0.45594000000E+02  0.51100000000E-03 0. -1.
    9900012    2    1    2    0    0 -0.12396594832E+01  0.24050234892E+02  0.32759970904E+02  0.50528852842E+02  0.29999978697E+02 0.  0.
         12    1    1    2    0    0  0.12396594832E+01 -0.24050234892E+02 -0.32759970904E+02  0.40659147158E+02  0.00000000000E+00 0. -1.
         11    1    3    3    0    0  0.62404129582E+00 -0.59666274126E+01  0.90848942895E+01  0.10886935966E+02  0.51100000000E-03 0. -1.
        -11    1    3    3    0    0  0.12759043242E+01  0.23687517658E+02  0.22060959597E+02  0.32394634791E+02  0.51100000000E-03 0.  1.
         12    1    3    3    0    0 -0.31396051032E+01  0.63293446469E+01  0.16141170181E+01  0.72472820844E+01  0.00000000000E+00 0. -1.
</event>
<event>
 7    1  0.5849044E-013  0.5052886E+02  0.7816164E-02  0.1300439E+00
        -11   -1    0    0    0    0  0.00000000000E+00  0.00000000000E+00  0.45593999997E+02  0.45594000000E+02  0.51100000000E-03 0.  1.
         11   -1    0    0    0    0 -0.00000000000E+00 -0.00000000000E+00 -0.45593999997E+02  0.45594000000E+02  0.51100000000E-03 0. -1.
    9900012    2    1    2    0    0 -0.21246717592E+02 -0.19866990653E+02  0.28408547576E+02  0.50528857100E+02  0.29999991640E+02 0.  0.
         12    1    1    2    0    0  0.21246717592E+02  0.19866990653E+02 -0.28408547576E+02  0.40659142900E+02  0.00000000000E+00 0. -1.
         11    1    3    3    0    0 -0.37218026100E+01  0.53356783158E+00  0.18078543056E+02  0.18465379189E+02  0.51100000000E-03 0. -1.
        -11    1    3    3    0    0 -0.17214294644E+02 -0.20798600999E+02  0.12560056613E+02  0.29776983830E+02  0.51100000000E-03 0.  1.
        -12    1    3    3    0    0 -0.31062033809E+00  0.39804251455E+00 -0.22300520942E+01  0.22864940806E+01  0.00000000000E+00 0.  1.
</event>
<event>
 7    1  0.5849044E-013  0.5052883E+02  0.7816164E-02  0.1300439E+00
        -11   -1    0    0    0    0  0.00000000000E+00  0.00000000000E+00  0.45593999997E+02  0.45594000000E+02  0.51100000000E-03 0.  1.
         11   -1    0    0    0    0 -0.00000000000E+00 -0.00000000000E+00 -0.45593999997E+02  0.45594000000E+02  0.51100000000E-03 0. -1.
    9900012    2    1    2    0    0 -0.89324256910E+01 -0.18764401631E+02  0.34946770552E+02  0.50528834130E+02  0.29999921820E+02 0.  0.
         12    1    1    2    0    0  0.89324256910E+01  0.18764401631E+02 -0.34946770552E+02  0.40659165870E+02  0.00000000000E+00 0. -1.
         11    1    3    3    0    0  0.77388051180E+00  0.21971602675E+01  0.21018145537E+00  0.23389272740E+01  0.51100000000E-03 0. -1.
        -11    1    3    3    0    0 -0.12183171786E+02 -0.24146501007E+02  0.34898611412E+02  0.44151967843E+02  0.51100000000E-03 0.  1.
        -12    1    3    3    0    0  0.24768655836E+01  0.31849391082E+01 -0.16202231575E+00  0.40379390130E+01  0.00000000000E+00 0.  1.
</event>
<event>
 7    1  0.5849044E-013  0.5052885E+02  0.7816164E-02  0.1300439E+00
        -11   -1    0    0    0    0  0.00000000000E+00  0.00000000000E+00  0.45593999997E+02  0.45594000000E+02  0.51100000000E-03 0. -1.
         11   -1    0    0    0    0 -0.00000000000E+00 -0.00000000000E+00 -0.45593999997E+02  0.45594000000E+02  0.51100000000E-03 0.  1.
    9900012    2    1    2    0    0 -0.33876443175E+02 -0.16860293200E+02 -0.14875602535E+02  0.50528850479E+02  0.29999971515E+02 0.  0.
         12    1    1    2    0    0  0.33876443175E+02  0.16860293200E+02  0.14875602535E+02  0.40659149521E+02  0.00000000000E+00 0. -1.
         11    1    3    3    0    0 -0.68313402944E+01 -0.17006326292E+02 -0.55533393135E+00  0.18335504908E+02  0.51100000000E-03 0. -1.
        -11    1    3    3    0    0 -0.23614611107E+02  0.32900369678E+01 -0.13701271186E+02  0.27499073318E+02  0.51100000000E-03 0.  1.
        -12    1    3    3    0    0 -0.34304917737E+01 -0.31440038758E+01 -0.61899741737E+00  0.46942722528E+01  0.00000000000E+00 0.  1.
</event>
<event>
 7    1  0.5849044E-013  0.5052885E+02  0.7816164E-02  0.1300439E+00
        -11   -1    0    0    0    0  0.00000000000E+00  0.00000000000E+00  0.45593999997E+02  0.45594000000E+02  0.51100000000E-03 0.  1.
         11   -1    0    0    0    0 -0.00000000000E+00 -0.00000000000E+00 -0.45593999997E+02  0.45594000000E+02  0.51100000000E-03 0. -1.
    9900012    2    1    2    0    0 -0.31481632497E+02 -0.90121336603E+01  0.24100922897E+02  0.50528853154E+02  0.29999979645E+02 0.  0.
         12    1    1    2    0    0  0.31481632497E+02  0.90121336603E+01 -0.24100922897E+02  0.40659146846E+02  0.00000000000E+00 0. -1.
         11    1    3    3    0    0 -0.22561440461E+02  0.39871398438E+00  0.92728546190E+00  0.22584008216E+02  0.51100000000E-03 0. -1.
        -11    1    3    3    0    0  0.15420619934E+00  0.13793296922E+01  0.11875420781E+01  0.18266325301E+01  0.51100000000E-03 0.  1.
         12    1    3    3    0    0 -0.90743982353E+01 -0.10790177337E+02  0.21986095357E+02  0.26118212407E+02  0.00000000000E+00 0. -1.
</event>
<event>
 7    1  0.5849044E-013  0.5052886E+02  0.7816164E-02  0.1300439E+00
        -11   -1    0    0    0    0  0.00000000000E+00  0.00000000000E+00  0.45593999997E+02  0.45594000000E+02  0.51100000000E-03 0.  1.
         11   -1    0    0    0    0 -0.00000000000E+00 -0.00000000000E+00 -0.45593999997E+02  0.45594000000E+02  0.51100000000E-03 0. -1.
    9900012    2    1    2    0    0 -0.43788906506E+00  0.88408734910E+01  0.39683913197E+02  0.50528858868E+02  0.29999997016E+02 0.  0.
         12    1    1    2    0    0  0.43788906506E+00 -0.88408734910E+01 -0.39683913197E+02  0.40659141132E+02  0.00000000000E+00 0. -1.
         11    1    3    3    0    0  0.85730648094E+01  0.30201045687E+01  0.20632652334E+01  0.93207046684E+01  0.51100000000E-03 0. -1.
        -11    1    3    3    0    0 -0.10987402388E+02  0.30729449592E+01  0.35316243968E+02  0.37113381552E+02  0.51100000000E-03 0.  1.
        -12    1    3    3    0    0  0.19764485135E+01  0.27478239631E+01  0.23044039958E+01  0.40947726475E+01  0.00000000000E+00 0.  1.
</event>
<event>
 7    1  0.5849044E-013  0.5052886E+02  0.7816164E-02  0.1300439E+00
        -11   -1    0    0    0    0  0.00000000000E+00  0.00000000000E+00  0.45593999997E+02  0.45594000000E+02  0.51100000000E-03 0.  1.
         11   -1    0    0    0    0 -0.00000000000E+00 -0.00000000000E+00 -0.45593999997E+02  0.45594000000E+02  0.51100000000E-03 0. -1.
    9900012    2    1    2    0    0  0.13653788453E+02  0.10927190914E+02  0.36706077174E+02  0.50528861521E+02  0.30000005078E+02 0.  0.
         12    1    1    2    0    0 -0.13653788453E+02 -0.10927190914E+02 -0.36706077174E+02  0.40659138479E+02  0.00000000000E+00 0. -1.
         11    1    3    3    0    0 -0.65963174412E+01 -0.36206804479E+01  0.29298812363E+01  0.80749572761E+01  0.51100000000E-03 0. -1.
        -11    1    3    3    0    0  0.18188161980E+02  0.13537677871E+02  0.32983415987E+02  0.40024788429E+02  0.51100000000E-03 0.  1.
        -12    1    3    3    0    0  0.20619439140E+01  0.10101934911E+01  0.79277995012E+00  0.24291158151E+01  0.00000000000E+00 0.  1.
</event>
<event>
 7    1  0.5849044E-013  0.5052886E+02  0.7816164E-02  0.1300439E+00
        -11   -1    0    0    0    0  0.00000000000E+00  0.00000000000E+00  0.45593999997E+02  0.45594000000E+02  0.51100000000E-03 0. -1.
         11   -1    0    0    0    0 -0.00000000000E+00 -0.00000000000E+00 -0.45593999997E+02  0.45594000000E+02  0.51100000000E-03 0.  1.
    9900012    2    1    2    0    0  0.11660890876E+02 -0.38256459552E+02 -0.73234317745E+01  0.50528859251E+02  0.29999998180E+02 0.  0.
         12    1    1    2    0    0 -0.11660890876E+02  0.38256459552E+02  0.73234317745E+01  0.40659140749E+02  0.00000000000E+00 0. -1.
         11    1    3    3    0    0 -0.67382596815E+01 -0.18106346233E+01 -0.66182350115E+01  0.96168381604E+01  0.51100000000E-03 0. -1.
        -11    1    3    3    0    0  0.17335524148E+02 -0.33058673483E+02 -0.22059845213E+00  0.37328875604E+02  0.51100000000E-03 0.  1.
         12    1    3    3    0    0  0.10636264096E+01 -0.33871514458E+01 -0.48459831088E+00  0.35831454867E+01  0.00000000000E+00 0. -1.
</event>
<event>
 7    1  0.5849044E-013  0.5052886E+02  0.7816164E-02  0.1300439E+00
        -11   -1    0    0    0    0  0.00000000000E+00  0.00000000000E+00  0.45593999997E+02  0.45594000000E+02  0.51100000000E-03 0.  1.
         11   -1    0    0    0    0 -0.00000000000E+00 -0.00000000000E+00 -0.45593999997E+02  0.45594000000E+02  0.51100000000E-03 0. -1.
    9900012    2    1    2    0    0 -0.14838744311E+02  0.37670810556E+02  0.37265680295E+01  0.50528860683E+02  0.30000002533E+02 0.  0.
         12    1    1    2    0    0  0.14838744311E+02 -0.37670810556E+02 -0.37265680295E+01  0.40659139317E+02  0.00000000000E+00 0. -1.
         11    1    3    3    0    0  0.23768211637E+00 -0.19499493239E+01 -0.28461355781E+01  0.34582196495E+01  0.51100000000E-03 0. -1.
        -11    1    3    3    0    0 -0.17135276769E+02  0.34874736270E+02  0.10866185987E+02  0.40347725314E+02  0.51100000000E-03 0.  1.
        -12    1    3    3    0    0  0.20588503419E+01  0.47460236105E+01 -0.42934823791E+01  0.67229157203E+01  0.00000000000E+00 0.  1.
</event>
<event>
 7    1  0.5849044E-013  0.5052888E+02  0.7816164E-02  0.1300439E+00
        -11   -1    0    0    0    0  0.00000000000E+00  0.00000000000E+00  0.45593999997E+02  0.45594000000E+02  0.51100000000E-03 0.  1.
         11   -1    0    0    0    0 -0.00000000000E+00 -0.00000000000E+00 -0.45593999997E+02  0.45594000000E+02  0.51100000000E-03 0. -1.
    9900012    2    1    2    0    0 -0.76427149413E+00 -0.38130882577E+02 -0.14093106350E+02  0.50528880930E+02  0.30000064073E+02 0.  0.
         12    1    1    2    0    0  0.76427149413E+00  0.38130882577E+02  0.14093106350E+02  0.40659119070E+02  0.00000000000E+00 0. -1.
         11    1    3    3    0    0  0.74001611283E+01 -0.28988678751E+02 -0.16584320336E+02  0.34207390455E+02  0.51100000000E-03 0. -1.
        -11    1    3    3    0    0 -0.65376742737E+01 -0.26460170806E+01 -0.29969298142E+01  0.76631703538E+01  0.51100000000E-03 0.  1.
         12    1    3    3    0    0 -0.16267583488E+01 -0.64961867448E+01  0.54881437999E+01  0.86583201210E+01  0.00000000000E+00 0. -1.
</event>
<event>
 7    1  0.5849044E-013  0.5052886E+02  0.7816164E-02  0.1300439E+00
        -11   -1    0    0    0    0  0.00000000000E+00  0.00000000000E+00  0.45593999997E+02  0.45594000000E+02  0.51100000000E-03 0. -1.
         11   -1    0    0    0    0 -0.00000000000E+00 -0.00000000000E+00 -0.45593999997E+02  0.45594000000E+02  0.51100000000E-03 0.  1.
    9900012    2    1    2    0    0  0.19286071860E+02  0.35488291730E+02 -0.46684325518E+01  0.50528859820E+02  0.29999999908E+02 0.  0.
         12    1    1    2    0    0 -0.19286071860E+02 -0.35488291730E+02  0.46684325518E+01  0.40659140180E+02  0.00000000000E+00 0. -1.
         11    1    3    3    0    0  0.13286550314E+02  0.10198387643E+02 -0.19203359023E+01  0.16859039711E+02  0.51100000000E-03 0. -1.
        -11    1    3    3    0    0 -0.79011844240E+01  0.11004942187E+02  0.11212848032E-01  0.13547604727E+02  0.51100000000E-03 0.  1.
        -12    1    3    3    0    0  0.13900705971E+02  0.14284961899E+02 -0.27593094975E+01  0.20122215381E+02  0.00000000000E+00 0.  1.
</event>
<event>
 7    1  0.5849044E-013  0.5052887E+02  0.7816164E-02  0.1300439E+00
        -11   -1    0    0    0    0  0.00000000000E+00  0.00000000000E+00  0.45593999997E+02  0.45594000000E+02  0.51100000000E-03 0.  1.
         11   -1    0    0    0    0 -0.00000000000E+00 -0.00000000000E+00 -0.45593999997E+02  0.45594000000E+02  0.51100000000E-03 0. -1.
    9900012    2    1    2    0    0 -0.40137517891E+02 -0.44022121573E+01  0.47712782065E+01  0.50528869291E+02  0.30000028696E+02 0.  0.
         12    1    1    2    0    0  0.40137517891E+02  0.44022121573E+01 -0.47712782065E+01  0.40659130709E+02  0.00000000000E+00 0. -1.
         11    1    3    3    0    0 -0.20790236621E+02 -0.13450197146E+02  0.23029429900E+01  0.24868560246E+02  0.51100000000E-03 0. -1.
        -11    1    3    3    0    0 -0.23900655484E+01  0.45505089845E+01  0.58569686068E+01  0.77925366130E+01  0.51100000000E-03 0.  1.
         12    1    3    3    0    0 -0.16957215721E+02  0.44974760038E+01 -0.33886333903E+01  0.17867772432E+02  0.00000000000E+00 0. -1.
</event>
<event>
 7    1  0.5849044E-013  0.5052887E+02  0.7816164E-02  0.1300439E+00
        -11   -1    0    0    0    0  0.00000000000E+00  0.00000000000E+00  0.45593999997E+02  0.45594000000E+02  0.51100000000E-03 0.  1.
         11   -1    0    0    0    0 -0.00000000000E+00 -0.00000000000E+00 -0.45593999997E+02  0.45594000000E+02  0.51100000000E-03 0. -1.
    9900012    2    1    2    0    0 -0.18883275361E+02  0.22028902515E+02  0.28483572889E+02  0.50528873609E+02  0.30000041822E+02 0.  0.
         12    1    1    2    0    0  0.18883275361E+02 -0.22028902515E+02 -0.28483572889E+02  0.40659126391E+02  0.00000000000E+00 0. -1.
         11    1    3    3    0    0 -0.49057249223E+01  0.48049110640E+01 -0.44033280241E+01  0.81573650951E+01  0.51100000000E-03 0. -1.
        -11    1    3    3    0    0 -0.13992502009E+02  0.17353938600E+02  0.21457811090E+02  0.30941670194E+02  0.51100000000E-03 0.  1.
         12    1    3    3    0    0  0.14951570901E-01 -0.12994714921E+00  0.11429089824E+02  0.11429838319E+02  0.00000000000E+00 0. -1.
</event>
<event>
 7    1  0.5849044E-013  0.5052890E+02  0.7816164E-02  0.1300439E+00
        -11   -1    0    0    0    0  0.00000000000E+00  0.00000000000E+00  0.45593999997E+02  0.45594000000E+02  0.51100000000E-03 0. -1.
         11   -1    0    0    0    0 -0.00000000000E+00 -0.00000000000E+00 -0.45593999997E+02  0.45594000000E+02  0.51100000000E-03 0.  1.
    9900012    2    1    2    0    0  0.28376344408E+02 -0.10825385111E+02 -0.27032514711E+02  0.50528896021E+02  0.30000109945E+02 0.  0.
         12    1    1    2    0    0 -0.28376344408E+02  0.10825385111E+02  0.27032514711E+02  0.40659103979E+02  0.00000000000E+00 0. -1.
         11    1    3    3    0    0  0.94480322558E+01  0.18208376767E+01 -0.24516528975E+02  0.26337064312E+02  0.51100000000E-03 0. -1.
        -11    1    3    3    0    0  0.11571115093E+02 -0.11942576579E+02 -0.23927723996E+01  0.16800035710E+02  0.51100000000E-03 0.  1.
         12    1    3    3    0    0  0.73571970599E+01 -0.70364620902E+00 -0.12321333636E+00  0.73917959991E+01  0.00000000000E+00 0. -1.
</event>
<event>
 7    1  0.5849044E-013  0.5052886E+02  0.7816164E-02  0.1300439E+00
        -11   -1    0    0    0    0  0.00000000000E+00  0.00000000000E+00  0.45593999997E+02  0.45594000000E+02  0.51100000000E-03 0. -1.
         11   -1    0    0    0    0 -0.00000000000E+00 -0.00000000000E+00 -0.45593999997E+02  0.45594000000E+02  0.51100000000E-03 0.  1.
    9900012    2    1    2    0    0 -0.25483951025E+02 -0.63354416122E+01 -0.31041840857E+02  0.50528862477E+02  0.30000007986E+02 0.  0.
         12    1    1    2    0    0  0.25483951025E+02  0.63354416122E+01  0.31041840857E+02  0.40659137523E+02  0.00000000000E+00 0. -1.
         11    1    3    3    0    0 -0.14388572301E+02 -0.28340834505E+01 -0.37032715722E+01  0.15125384705E+02  0.51100000000E-03 0.  1.
        -11    1    3    3    0    0  0.48227821032E+00 -0.93979824805E+01 -0.13075957787E+02  0.16110100536E+02  0.51100000000E-03 0. -1.
         12    1    3    3    0    0 -0.11577656934E+02  0.58966243189E+01 -0.14262611498E+02  0.19293377236E+02  0.00000000000E+00 0. -1.
</event>
<event>
 7    1  0.5849044E-013  0.5052886E+02  0.7816164E-02  0.1300439E+00
        -11   -1    0    0    0    0  0.00000000000E+00  0.00000000000E+00  0.45593999997E+02  0.45594000000E+02  0.51100000000E-03 0.  1.
         11   -1    0    0    0    0 -0.00000000000E+00 -0.00000000000E+00 -0.45593999997E+02  0.45594000000E+02  0.51100000000E-03 0. -1.
    9900012    2    1    2    0    0  0.30148578603E+02 -0.27037352699E+02  0.36345957060E+01  0.50528861806E+02  0.30000005945E+02 0.  0.
         12    1    1    2    0    0 -0.30148578603E+02  0.27037352699E+02 -0.36345957060E+01  0.40659138194E+02  0.00000000000E+00 0. -1.
         11    1    3    3    0    0  0.12338656012E+01 -0.52215695723E+01  0.32914800438E+01  0.62945257375E+01  0.51100000000E-03 0. -1.
        -11    1    3    3    0    0  0.11557690371E+02 -0.15483483275E+02 -0.11312012115E+02  0.22389284923E+02  0.51100000000E-03 0.  1.
        -12    1    3    3    0    0  0.17357022631E+02 -0.63322998522E+01  0.11655127777E+02  0.21845051145E+02  0.00000000000E+00 0.  1.
</event>
<event>
 7    1  0.5849044E-013  0.5052884E+02  0.7816164E-02  0.1300439E+00
        -11   -1    0    0    0    0  0.00000000000E+00  0.00000000000E+00  0.45593999997E+02  0.45594000000E+02  0.51100000000E-03 0.  1.
         11   -1    0    0    0    0 -0.00000000000E+00 -0.00000000000E+00 -0.45593999997E+02  0.45594000000E+02  0.51100000000E-03 0. -1.
    9900012    2    1    2    0    0  0.19282035784E+02  0.45757240349E+01  0.35502580175E+02  0.50528839242E+02  0.29999937361E+02 0.  0.
         12    1    1    2    0    0 -0.19282035784E+02 -0.45757240349E+01 -0.35502580175E+02  0.40659160758E+02  0.00000000000E+00 0. -1.
         11    1    3    3    0    0 -0.14737777865E+01 -0.88036432531E+00  0.18481736917E+01  0.25224608153E+01  0.51100000000E-03 0. -1.
        -11    1    3    3    0    0  0.18589463048E+02 -0.78040125009E+01  0.24591648750E+02  0.31799684527E+02  0.51100000000E-03 0.  1.
        -12    1    3    3    0    0  0.21663505225E+01  0.13260100861E+02  0.90627577337E+01  0.16206693900E+02  0.00000000000E+00 0.  1.
</event>
<event>
 7    1  0.5849044E-013  0.5052884E+02  0.7816164E-02  0.1300439E+00
        -11   -1    0    0    0    0  0.00000000000E+00  0.00000000000E+00  0.45593999997E+02  0.45594000000E+02  0.51100000000E-03 0.  1.
         11   -1    0    0    0    0 -0.00000000000E+00 -0.00000000000E+00 -0.45593999997E+02  0.45594000000E+02  0.51100000000E-03 0. -1.
    9900012    2    1    2    0    0  0.36039303069E+02  0.43398516861E+01  0.18316703273E+02  0.50528839936E+02  0.29999939468E+02 0.  0.
         12    1    1    2    0    0 -0.36039303069E+02 -0.43398516861E+01 -0.18316703273E+02  0.40659160064E+02  0.00000000000E+00 0. -1.
         11    1    3    3    0    0  0.14981777187E+02  0.12618808466E+02 -0.46119507848E+00  0.19593383474E+02  0.51100000000E-03 0. -1.
        -11    1    3    3    0    0  0.17780861838E+02 -0.25799329715E+01  0.14547473458E+02  0.23118046762E+02  0.51100000000E-03 0.  1.
         12    1    3    3    0    0  0.32766640440E+01 -0.56990238087E+01  0.42304248938E+01  0.78174096996E+01  0.00000000000E+00 0. -1.
</event>
<event>
 7    1  0.5849044E-013  0.5052885E+02  0.7816164E-02  0.1300439E+00
        -11   -1    0    0    0    0  0.00000000000E+00  0.00000000000E+00  0.45593999997E+02  0.45594000000E+02  0.51100000000E-03 0. -1.
         11   -1    0    0    0    0 -0.00000000000E+00 -0.00000000000E+00 -0.45593999997E+02  0.45594000000E+02  0.51100000000E-03 0.  1.
    9900012    2    1    2    0    0  0.10650783703E+02  0.51768717192E+01 -0.38896361729E+02  0.50528854042E+02  0.29999982345E+02 0.  0.
         12    1    1    2    0    0 -0.10650783703E+02 -0.51768717192E+01  0.38896361729E+02  0.40659145958E+02  0.00000000000E+00 0. -1.
         11    1    3    3    0    0 -0.59422645258E+00 -0.47008615142E+01 -0.58109029386E+01  0.74978528444E+01  0.51100000000E-03 0. -1.
        -11    1    3    3    0    0  0.11103103797E+02  0.14948379163E+02 -0.33077248867E+02  0.37958363327E+02  0.51100000000E-03 0.  1.
        -12    1    3    3    0    0  0.14190635813E+00 -0.50706459301E+01 -0.82099235722E-02  0.50726378705E+01  0.00000000000E+00 0.  1.
</event>
<event>
 7    1  0.5849044E-013  0.5052886E+02  0.7816164E-02  0.1300439E+00
        -11   -1    0    0    0    0  0.00000000000E+00  0.00000000000E+00  0.45593999997E+02  0.45594000000E+02  0.51100000000E-03 0.  1.
         11   -1    0    0    0    0 -0.00000000000E+00 -0.00000000000E+00 -0.45593999997E+02  0.45594000000E+02  0.51100000000E-03 0. -1.
    9900012    2    1    2    0    0 -0.11566506281E+02  0.67969981380E+01  0.38382063278E+02  0.50528855485E+02  0.29999986731E+02 0.  0.
         12    1    1    2    0    0  0.11566506281E+02 -0.67969981380E+01 -0.38382063278E+02  0.40659144515E+02  0.00000000000E+00 0. -1.
         11    1    3    3    0    0  0.41870853371E+00  0.50802106269E+01 -0.36684578010E+01  0.62802420136E+01  0.51100000000E-03 0. -1.
        -11    1    3    3    0    0 -0.20003461037E+01  0.79580951005E+00  0.18868302521E+02  0.18990722409E+02  0.51100000000E-03 0.  1.
         12    1    3    3    0    0 -0.99848687108E+01  0.92097800106E+00  0.23182218558E+02  0.25257891063E+02  0.00000000000E+00 0. -1.
</event>
<event>
 7    1  0.5849044E-013  0.5052886E+02  0.7816164E-02  0.1300439E+00
        -11   -1    0    0    0    0  0.00000000000E+00  0.00000000000E+00  0.45593999997E+02  0.45594000000E+02  0.51100000000E-03 0. -1.
         11   -1    0    0    0    0 -0.00000000000E+00 -0.00000000000E+00 -0.45593999997E+02  0.45594000000E+02  0.51100000000E-03 0.  1.
    9900012    2    1    2    0    0  0.19620191654E+02  0.23273438109E+02 -0.26954785211E+02  0.50528864646E+02  0.30000014578E+02 0.  0.
         12    1    1    2    0    0 -0.19620191654E+02 -0.23273438109E+02  0.26954785211E+02  0.40659135354E+02  0.00000000000E+00 0. -1.
         11    1    3    3    0    0  0.19064877299E+02  0.76789414917E+01 -0.11712045973E+02  0.23656029041E+02  0.51100000000E-03 0. -1.
        -11    1    3    3    0    0 -0.69413555544E+01  0.44621124277E+01 -0.85236946019E+01  0.11863651806E+02  0.51100000000E-03 0.  1.
        -12    1    3    3    0    0  0.74966699089E+01  0.11132384189E+02 -0.67190446367E+01  0.15009183798E+02  0.00000000000E+00 0.  1.
</event>
<event>
 7    1  0.5849044E-013  0.5052886E+02  0.7816164E-02  0.1300439E+00
        -11   -1    0    0    0    0  0.00000000000E+00  0.00000000000E+00  0.45593999997E+02  0.45594000000E+02  0.51100000000E-03 0.  1.
         11   -1    0    0    0    0 -0.00000000000E+00 -0.00000000000E+00 -0.45593999997E+02  0.45594000000E+02  0.51100000000E-03 0. -1.
    9900012    2    1    2    0    0 -0.18521825981E+02 -0.34482779435E+02  0.11002081092E+02  0.50528857072E+02  0.29999991557E+02 0.  0.
         12    1    1    2    0    0  0.18521825981E+02  0.34482779435E+02 -0.11002081092E+02  0.40659142928E+02  0.00000000000E+00 0. -1.
         11    1    3    3    0    0 -0.82909548488E+01  0.29060926545E+01  0.67526904490E+01  0.11080800304E+02  0.51100000000E-03 0. -1.
        -11    1    3    3    0    0 -0.50274051728E+01 -0.26660095793E+02  0.46085193021E+01  0.27518611173E+02  0.51100000000E-03 0.  1.
         12    1    3    3    0    0 -0.52034659597E+01 -0.10728776296E+02 -0.35912865919E+00  0.11929445595E+02  0.00000000000E+00 0. -1.
</event>
<event>
 7    1  0.5849044E-013  0.5052886E+02  0.7816164E-02  0.1300439E+00
        -11   -1    0    0    0    0  0.00000000000E+00  0.00000000000E+00  0.45593999997E+02  0.45594000000E+02  0.51100000000E-03 0. -1.
         11   -1    0    0    0    0 -0.00000000000E+00 -0.00000000000E+00 -0.45593999997E+02  0.45594000000E+02  0.51100000000E-03 0.  1.
    9900012    2    1    2    0    0 -0.80119667082E+01  0.13616604740E+02 -0.37464144782E+02  0.50528859829E+02  0.29999999936E+02 0.  0.
         12    1    1    2    0    0  0.80119667082E+01 -0.13616604740E+02  0.37464144782E+02  0.40659140171E+02  0.00000000000E+00 0. -1.
         11    1    3    3    0    0 -0.12140371907E+02  0.13866813330E+02 -0.10960522267E+02  0.21443185178E+02  0.51100000000E-03 0. -1.
        -11    1    3    3    0    0  0.84512890364E+00  0.24096179969E+01 -0.24078927337E+02  0.24213947297E+02  0.51100000000E-03 0.  1.
         12    1    3    3    0    0  0.32832762950E+01 -0.26598265863E+01 -0.24246951784E+01  0.48717273535E+01  0.00000000000E+00 0. -1.
</event>
<event>
 7    1  0.5849044E-013  0.5052886E+02  0.7816164E-02  0.1300439E+00
        -11   -1    0    0    0    0  0.00000000000E+00  0.00000000000E+00  0.45593999997E+02  0.45594000000E+02  0.51100000000E-03 0.  1.
         11   -1    0    0    0    0 -0.00000000000E+00 -0.00000000000E+00 -0.45593999997E+02  0.45594000000E+02  0.51100000000E-03 0. -1.
    9900012    2    1    2    0    0 -0.10624603344E+02  0.50299549745E+01  0.38922782819E+02  0.50528859999E+02  0.30000000452E+02 0.  0.
         12    1    1    2    0    0  0.10624603344E+02 -0.50299549745E+01 -0.38922782819E+02  0.40659140001E+02  0.00000000000E+00 0. -1.
         11    1    3    3    0    0 -0.13821241591E+02 -0.53661045467E+01  0.85324250329E+01  0.17106258338E+02  0.51100000000E-03 0. -1.
        -11    1    3    3    0    0  0.50946616713E+00  0.10548121464E+02  0.27573558362E+02  0.29526658179E+02  0.51100000000E-03 0.  1.
         12    1    3    3    0    0  0.26871720798E+01 -0.15206194241E+00  0.28167994238E+01  0.38959434820E+01  0.00000000000E+00 0. -1.
</event>
<event>
 7    1  0.5849044E-013  0.5052887E+02  0.7816164E-02  0.1300439E+00
        -11   -1    0    0    0    0  0.00000000000E+00  0.00000000000E+00  0.45593999997E+02  0.45594000000E+02  0.51100000000E-03 0. -1.
         11   -1    0    0    0    0 -0.00000000000E+00 -0.00000000000E+00 -0.45593999997E+02  0.45594000000E+02  0.51100000000E-03 0.  1.
    9900012    2    1    2    0    0 -0.37239475496E+02  0.11665333265E+02 -0.11415189181E+02  0.50528867208E+02  0.30000022364E+02 0.  0.
         12    1    1    2    0    0  0.37239475496E+02 -0.11665333265E+02  0.11415189181E+02  0.40659132792E+02  0.00000000000E+00 0. -1.
         11    1    3    3    0    0  0.34690380744E+01  0.47282492486E+01 -0.56261662503E+01  0.81267652271E+01  0.51100000000E-03 0. -1.
        -11    1    3    3    0    0 -0.35457816026E+02  0.32863010606E+01 -0.49450015234E+01  0.35951488597E+02  0.51100000000E-03 0.  1.
         12    1    3    3    0    0 -0.52506975440E+01  0.36507829556E+01 -0.84402140762E+00  0.64506133835E+01  0.00000000000E+00 0. -1.
</event>
<event>
 7    1  0.5849044E-013  0.5052886E+02  0.7816164E-02  0.1300439E+00
        -11   -1    0    0    0    0  0.00000000000E+00  0.00000000000E+00  0.45593999997E+02  0.45594000000E+02  0.51100000000E-03 0. -1.
         11   -1    0    0    0    0 -0.00000000000E+00 -0.00000000000E+00 -0.45593999997E+02  0.45594000000E+02  0.51100000000E-03 0.  1.
    9900012    2    1    2    0    0 -0.20816905659E+02 -0.18028584827E+02 -0.29913073258E+02  0.50528863464E+02  0.30000010985E+02 0.  0.
         12    1    1    2    0    0  0.20816905659E+02  0.18028584827E+02  0.29913073258E+02  0.40659136536E+02  0.00000000000E+00 0. -1.
         11    1    3    3    0    0 -0.79160273392E+01 -0.28381798240E+01  0.41631578485E+01  0.93835300970E+01  0.51100000000E-03 0. -1.
        -11    1    3    3    0    0 -0.10041384143E+02 -0.16384797718E+02 -0.24856469261E+02  0.31418705514E+02  0.51100000000E-03 0.  1.
        -12    1    3    3    0    0 -0.28594941766E+01  0.11943927149E+01 -0.92197618461E+01  0.97266278536E+01  0.00000000000E+00 0.  1.
</event>
<event>
 7    1  0.5849044E-013  0.5052886E+02  0.7816164E-02  0.1300439E+00
        -11   -1    0    0    0    0  0.00000000000E+00  0.00000000000E+00  0.45593999997E+02  0.45594000000E+02  0.51100000000E-03 0.  1.
         11   -1    0    0    0    0 -0.00000000000E+00 -0.00000000000E+00 -0.45593999997E+02  0.45594000000E+02  0.51100000000E-03 0. -1.
    9900012    2    1    2    0    0  0.34823311321E+02  0.97182711902E+01  0.18602635996E+02  0.50528857457E+02  0.29999992726E+02 0.  0.
         12    1    1    2    0    0 -0.34823311321E+02 -0.97182711902E+01 -0.18602635996E+02  0.40659142543E+02  0.00000000000E+00 0. -1.
         11    1    3    3    0    0  0.81301292522E+01  0.98779989263E+01  0.19064310493E+02  0.22959133243E+02  0.51100000000E-03 0. -1.
        -11    1    3    3    0    0  0.97389559125E+01  0.11140864099E+01  0.29335597935E+01  0.10232019552E+02  0.51100000000E-03 0.  1.
         12    1    3    3    0    0  0.16954226157E+02 -0.12738141461E+01 -0.33952342899E+01  0.17337704662E+02  0.00000000000E+00 0. -1.
</event>
<event>
 7    1  0.5849044E-013  0.5052886E+02  0.7816164E-02  0.1300439E+00
        -11   -1    0    0    0    0  0.00000000000E+00  0.00000000000E+00  0.45593999997E+02  0.45594000000E+02  0.51100000000E-03 0.  1.
         11   -1    0    0    0    0 -0.00000000000E+00 -0.00000000000E+00 -0.45593999997E+02  0.45594000000E+02  0.51100000000E-03 0. -1.
    9900012    2    1    2    0    0 -0.16291751663E+02  0.11187289564E+02  0.35532929168E+02  0.50528859880E+02  0.30000000092E+02 0.  0.
         12    1    1    2    0    0  0.16291751663E+02 -0.11187289564E+02 -0.35532929168E+02  0.40659140120E+02  0.00000000000E+00 0. -1.
         11    1    3    3    0    0  0.14018647706E+01  0.24833001520E+01 -0.11989787325E+01  0.30934696931E+01  0.51100000000E-03 0. -1.
        -11    1    3    3    0    0 -0.14857921390E+02 -0.31054878565E+01  0.29820537746E+02  0.33461415908E+02  0.51100000000E-03 0.  1.
        -12    1    3    3    0    0 -0.28356950434E+01  0.11809477269E+02  0.69113701541E+01  0.13973974279E+02  0.00000000000E+00 0.  1.
</event>
<event>
 7    1  0.5849044E-013  0.5052886E+02  0.7816164E-02  0.1300439E+00
        -11   -1    0    0    0    0  0.00000000000E+00  0.00000000000E+00  0.45593999997E+02  0.45594000000E+02  0.51100000000E-03 0.  1.
         11   -1    0    0    0    0 -0.00000000000E+00 -0.00000000000E+00 -0.45593999997E+02  0.45594000000E+02  0.51100000000E-03 0. -1.
    9900012    2    1    2    0    0 -0.16908833050E+02 -0.35977732567E+02  0.85357928827E+01  0.50528860364E+02  0.30000001563E+02 0.  0.
         12    1    1    2    0    0  0.16908833050E+02  0.35977732567E+02 -0.85357928827E+01  0.40659139636E+02  0.00000000000E+00 0. -1.
         11    1    3    3    0    0 -0.70275449051E+01 -0.14240828621E+01 -0.45205135469E+01  0.84764050387E+01  0.51100000000E-03 0. -1.
        -11    1    3    3    0    0  0.21357035672E+01 -0.20475417905E+02  0.11237044775E+02  0.23453680812E+02  0.51100000000E-03 0.  1.
        -12    1    3    3    0    0 -0.12016991712E+02 -0.14078231800E+02  0.18192616544E+01  0.18598774513E+02  0.00000000000E+00 0.  1.
</event>
<event>
 7    1  0.5849044E-013  0.5052886E+02  0.7816164E-02  0.1300439E+00
        -11   -1    0    0    0    0  0.00000000000E+00  0.00000000000E+00  0.45593999997E+02  0.45594000000E+02  0.51100000000E-03 0.  1.
         11   -1    0    0    0    0 -0.00000000000E+00 -0.00000000000E+00 -0.45593999997E+02  0.45594000000E+02  0.51100000000E-03 0. -1.
    9900012    2    1    2    0    0 -0.16233146692E+02  0.11298754300E+02  0.35524481207E+02  0.50528860003E+02  0.30000000466E+02 0.  0.
         12    1    1    2    0    0  0.16233146692E+02 -0.11298754300E+02 -0.35524481207E+02  0.40659139997E+02  0.00000000000E+00 0. -1.
         11    1    3    3    0    0 -0.13963397056E+02 -0.33590605399E+01  0.96216303256E+01  0.17286859618E+02  0.51100000000E-03 0. -1.
        -11    1    3    3    0    0 -0.73792853974E+01  0.13717999507E+02  0.20499676732E+02  0.25746341678E+02  0.51100000000E-03 0.  1.
         12    1    3    3    0    0  0.51095357619E+01  0.93981533222E+00  0.54031741498E+01  0.74956587072E+01  0.00000000000E+00 0. -1.
</event>
<event>
 7    1  0.5849044E-013  0.5052886E+02  0.7816164E-02  0.1300439E+00
        -11   -1    0    0    0    0  0.00000000000E+00  0.00000000000E+00  0.45593999997E+02  0.45594000000E+02  0.51100000000E-03 0. -1.
         11   -1    0    0    0    0 -0.00000000000E+00 -0.00000000000E+00 -0.45593999997E+02  0.45594000000E+02  0.51100000000E-03 0.  1.
    9900012    2    1    2    0    0  0.31488194489E+02  0.23938523685E+02  0.94131115350E+01  0.50528856167E+02  0.29999988807E+02 0.  0.
         12    1    1    2    0    0 -0.31488194489E+02 -0.23938523685E+02 -0.94131115350E+01  0.40659143833E+02  0.00000000000E+00 0. -1.
         11    1    3    3    0    0  0.13386070929E+02 -0.51730290645E+01  0.64696849946E+01  0.15741789886E+02  0.51100000000E-03 0. -1.
        -11    1    3    3    0    0  0.13684321693E+02  0.18839980374E+02  0.37121254977E+01  0.23579342583E+02  0.51100000000E-03 0.  1.
         12    1    3    3    0    0  0.44178018672E+01  0.10271572376E+02 -0.76869895730E+00  0.11207723699E+02  0.00000000000E+00 0. -1.
</event>
<event>
 7    1  0.5849044E-013  0.5052885E+02  0.7816164E-02  0.1300439E+00
        -11   -1    0    0    0    0  0.00000000000E+00  0.00000000000E+00  0.45593999997E+02  0.45594000000E+02  0.51100000000E-03 0. -1.
         11   -1    0    0    0    0 -0.00000000000E+00 -0.00000000000E+00 -0.45593999997E+02  0.45594000000E+02  0.51100000000E-03 0.  1.
    9900012    2    1    2    0    0  0.34009008698E+02  0.22283168946E+02  0.11920481206E+00  0.50528849730E+02  0.29999969240E+02 0.  0.
         12    1    1    2    0    0 -0.34009008698E+02 -0.22283168946E+02 -0.11920481206E+00  0.40659150270E+02  0.00000000000E+00 0. -1.
         11    1    3    3    0    0  0.14172463868E+02  0.10912876349E+02  0.96283341597E+01  0.20313897244E+02  0.51100000000E-03 0. -1.
        -11    1    3    3    0    0  0.35834665261E+01  0.11046805958E+02 -0.75243139491E+01  0.13837935355E+02  0.51100000000E-03 0.  1.
         12    1    3    3    0    0  0.16253078304E+02  0.32348663848E+00 -0.19848153986E+01  0.16377017132E+02  0.00000000000E+00 0. -1.
</event>
<event>
 7    1  0.5849044E-013  0.5052885E+02  0.7816164E-02  0.1300439E+00
        -11   -1    0    0    0    0  0.00000000000E+00  0.00000000000E+00  0.45593999997E+02  0.45594000000E+02  0.51100000000E-03 0.  1.
         11   -1    0    0    0    0 -0.00000000000E+00 -0.00000000000E+00 -0.45593999997E+02  0.45594000000E+02  0.51100000000E-03 0. -1.
    9900012    2    1    2    0    0 -0.18566538594E+02 -0.35776906758E+02  0.53350676029E+01  0.50528851474E+02  0.29999974539E+02 0.  0.
         12    1    1    2    0    0  0.18566538594E+02  0.35776906758E+02 -0.53350676029E+01  0.40659148526E+02  0.00000000000E+00 0. -1.
         11    1    3    3    0    0 -0.11401885253E+01  0.30657396717E+01  0.33977098138E+01  0.47162720286E+01  0.51100000000E-03 0. -1.
        -11    1    3    3    0    0 -0.52419920318E+01 -0.24655983872E+02  0.75049599500E+01  0.26300578801E+02  0.51100000000E-03 0.  1.
        -12    1    3    3    0    0 -0.12184358037E+02 -0.14186662558E+02 -0.55676021610E+01  0.19512000644E+02  0.00000000000E+00 0.  1.
</event>
<event>
 7    1  0.5849044E-013  0.5052886E+02  0.7816164E-02  0.1300439E+00
        -11   -1    0    0    0    0  0.00000000000E+00  0.00000000000E+00  0.45593999997E+02  0.45594000000E+02  0.51100000000E-03 0. -1.
         11   -1    0    0    0    0 -0.00000000000E+00 -0.00000000000E+00 -0.45593999997E+02  0.45594000000E+02  0.51100000000E-03 0.  1.
    9900012    2    1    2    0    0 -0.24601966641E+02 -0.11502429572E+02 -0.30258938973E+02  0.50528855439E+02  0.29999986592E+02 0.  0.
         12    1    1    2    0    0  0.24601966641E+02  0.11502429572E+02  0.30258938973E+02  0.40659144561E+02  0.00000000000E+00 0. -1.
         11    1    3    3    0    0 -0.52202753737E+01 -0.13647533884E+02 -0.80201054018E+01  0.16668189674E+02  0.51100000000E-03 0. -1.
        -11    1    3    3    0    0 -0.79176057221E+01  0.48832888261E+01 -0.19725742814E+02  0.21809170547E+02  0.51100000000E-03 0.  1.
         12    1    3    3    0    0 -0.11464085545E+02 -0.27381845139E+01 -0.25130907575E+01  0.12051495218E+02  0.00000000000E+00 0. -1.
</event>
<event>
 7    1  0.5849044E-013  0.5052885E+02  0.7816164E-02  0.1300439E+00
        -11   -1    0    0    0    0  0.00000000000E+00  0.00000000000E+00  0.45593999997E+02  0.45594000000E+02  0.51100000000E-03 0. -1.
         11   -1    0    0    0    0 -0.00000000000E+00 -0.00000000000E+00 -0.45593999997E+02  0.45594000000E+02  0.51100000000E-03 0.  1.
    9900012    2    1    2    0    0 -0.40164815356E+02  0.58304245425E+01 -0.24413484244E+01  0.50528850660E+02  0.29999972067E+02 0.  0.
         12    1    1    2    0    0  0.40164815356E+02 -0.58304245425E+01  0.24413484244E+01  0.40659149340E+02  0.00000000000E+00 0. -1.
         11    1    3    3    0    0 -0.21496205376E+02  0.98669137777E+01 -0.12117361274E+02  0.26575802482E+02  0.51100000000E-03 0.  1.
        -11    1    3    3    0    0 -0.24087564702E+01 -0.30156943395E+01  0.61864069872E+01  0.72916494536E+01  0.51100000000E-03 0. -1.
         12    1    3    3    0    0 -0.16259853510E+02 -0.10207948956E+01  0.34896058628E+01  0.16661398724E+02  0.00000000000E+00 0. -1.
</event>
<event>
 7    1  0.5849044E-013  0.5052886E+02  0.7816164E-02  0.1300439E+00
        -11   -1    0    0    0    0  0.00000000000E+00  0.00000000000E+00  0.45593999997E+02  0.45594000000E+02  0.51100000000E-03 0.  1.
         11   -1    0    0    0    0 -0.00000000000E+00 -0.00000000000E+00 -0.45593999997E+02  0.45594000000E+02  0.51100000000E-03 0. -1.
    9900012    2    1    2    0    0  0.14978686275E+02  0.74450166571E+00  0.37792202785E+02  0.50528856912E+02  0.29999991071E+02 0.  0.
         12    1    1    2    0    0 -0.14978686275E+02 -0.74450166571E+00 -0.37792202785E+02  0.40659143088E+02  0.00000000000E+00 0. -1.
         11    1    3    3    0    0 -0.20225831651E+01  0.47348361268E+01  0.19394063923E+01  0.55018917858E+01  0.51100000000E-03 0. -1.
        -11    1    3    3    0    0  0.12923729320E+02 -0.44971351023E+01  0.60830535378E+01  0.14974997305E+02  0.51100000000E-03 0.  1.
        -12    1    3    3    0    0  0.40775401201E+01  0.50680064118E+00  0.29769742855E+02  0.30051967822E+02  0.00000000000E+00 0.  1.
</event>
<event>
 7    1  0.5849044E-013  0.5052886E+02  0.7816164E-02  0.1300439E+00
        -11   -1    0    0    0    0  0.00000000000E+00  0.00000000000E+00  0.45593999997E+02  0.45594000000E+02  0.51100000000E-03 0.  1.
         11   -1    0    0    0    0 -0.00000000000E+00 -0.00000000000E+00 -0.45593999997E+02  0.45594000000E+02  0.51100000000E-03 0. -1.
    9900012    2    1    2    0    0 -0.15180142008E+02 -0.58355207109E+01  0.37264939742E+02  0.50528858994E+02  0.29999997400E+02 0.  0.
         12    1    1    2    0    0  0.15180142008E+02  0.58355207109E+01 -0.37264939742E+02  0.40659141006E+02  0.00000000000E+00 0. -1.
         11    1    3    3    0    0 -0.34168042714E+01  0.28695398992E+01 -0.40695028474E+01  0.60390118685E+01  0.51100000000E-03 0. -1.
        -11    1    3    3    0    0 -0.57403039234E+01 -0.85598984168E+01  0.23360436533E+02  0.25532977603E+02  0.51100000000E-03 0.  1.
         12    1    3    3    0    0 -0.60230338131E+01 -0.14516219335E+00  0.17974006057E+02  0.18956869523E+02  0.00000000000E+00 0. -1.
</event>
<event>
 7    1  0.5849044E-013  0.5052882E+02  0.7816164E-02  0.1300439E+00
        -11   -1    0    0    0    0  0.00000000000E+00  0.00000000000E+00  0.45593999997E+02  0.45594000000E+02  0.51100000000E-03 0. -1.
         11   -1    0    0    0    0 -0.00000000000E+00 -0.00000000000E+00 -0.45593999997E+02  0.45594000000E+02  0.51100000000E-03 0.  1.
    9900012    2    1    2    0    0 -0.39378375610E+02  0.71533752471E+01  0.71653195593E+01  0.50528818411E+02  0.29999874043E+02 0.  0.
         12    1    1    2    0    0  0.39378375610E+02 -0.71533752471E+01 -0.71653195593E+01  0.40659181589E+02  0.00000000000E+00 0. -1.
         11    1    3    3    0    0 -0.16914563491E+02 -0.61484146440E+01  0.75916904204E+01  0.19533029064E+02  0.51100000000E-03 0. -1.
        -11    1    3    3    0    0 -0.85523737396E+01  0.11716419810E+02 -0.62967151280E+01  0.15813481951E+02  0.51100000000E-03 0.  1.
        -12    1    3    3    0    0 -0.13911438379E+02  0.15853700815E+01  0.58703442670E+01  0.15182307396E+02  0.00000000000E+00 0.  1.
</event>
<event>
 7    1  0.5849044E-013  0.5052887E+02  0.7816164E-02  0.1300439E+00
        -11   -1    0    0    0    0  0.00000000000E+00  0.00000000000E+00  0.45593999997E+02  0.45594000000E+02  0.51100000000E-03 0. -1.
         11   -1    0    0    0    0 -0.00000000000E+00 -0.00000000000E+00 -0.45593999997E+02  0.45594000000E+02  0.51100000000E-03 0.  1.
    9900012    2    1    2    0    0  0.21133134375E+02 -0.86079866722E+01 -0.33652011383E+02  0.50528872203E+02  0.30000037548E+02 0.  0.
         12    1    1    2    0    0 -0.21133134375E+02  0.86079866722E+01  0.33652011383E+02  0.40659127797E+02  0.00000000000E+00 0. -1.
         11    1    3    3    0    0  0.71197261065E+01  0.32302314534E+01  0.30667302128E+01  0.83981979932E+01  0.51100000000E-03 0. -1.
        -11    1    3    3    0    0  0.13161543573E+02 -0.55698512088E+01 -0.24219031779E+02  0.28121361494E+02  0.51100000000E-03 0.  1.
         12    1    3    3    0    0  0.85186469629E+00 -0.62683669169E+01 -0.12499709817E+02  0.14009312716E+02  0.00000000000E+00 0. -1.
</event>
<event>
 7    1  0.5849044E-013  0.5052885E+02  0.7816164E-02  0.1300439E+00
        -11   -1    0    0    0    0  0.00000000000E+00  0.00000000000E+00  0.45593999997E+02  0.45594000000E+02  0.51100000000E-03 0. -1.
         11   -1    0    0    0    0 -0.00000000000E+00 -0.00000000000E+00 -0.45593999997E+02  0.45594000000E+02  0.51100000000E-03 0.  1.
    9900012    2    1    2    0    0 -0.20901727706E+02 -0.34312983972E+02 -0.62372906287E+01  0.50528845010E+02  0.29999954892E+02 0.  0.
         12    1    1    2    0    0  0.20901727706E+02  0.34312983972E+02  0.62372906287E+01  0.40659154990E+02  0.00000000000E+00 0. -1.
         11    1    3    3    0    0 -0.61325145165E+01  0.15956818839E+01  0.54425432328E+01  0.83531558151E+01  0.51100000000E-03 0. -1.
        -11    1    3    3    0    0 -0.73370288586E+01 -0.17897577385E+02 -0.11861986331E+02  0.22690570480E+02  0.51100000000E-03 0.  1.
         12    1    3    3    0    0 -0.74321843305E+01 -0.18011088471E+02  0.18215246946E+00  0.19485118715E+02  0.00000000000E+00 0. -1.
</event>
<event>
 7    1  0.5849044E-013  0.5052886E+02  0.7816164E-02  0.1300439E+00
        -11   -1    0    0    0    0  0.00000000000E+00  0.00000000000E+00  0.45593999997E+02  0.45594000000E+02  0.51100000000E-03 0. -1.
         11   -1    0    0    0    0 -0.00000000000E+00 -0.00000000000E+00 -0.45593999997E+02  0.45594000000E+02  0.51100000000E-03 0.  1.
    9900012    2    1    2    0    0 -0.10273534599E+02 -0.32420560435E+02 -0.22282894884E+02  0.50528860111E+02  0.30000000794E+02 0.  0.
         12    1    1    2    0    0  0.10273534599E+02  0.32420560435E+02  0.22282894884E+02  0.40659139889E+02  0.00000000000E+00 0. -1.
         11    1    3    3    0    0  0.42334136864E+01 -0.13823877358E+02 -0.16518657597E+01  0.14551633496E+02  0.51100000000E-03 0. -1.
        -11    1    3    3    0    0 -0.11065894182E+02 -0.21576891144E+02 -0.14208765412E+02  0.28105253251E+02  0.51100000000E-03 0.  1.
         12    1    3    3    0    0 -0.34410541032E+01  0.29802080666E+01 -0.64222637125E+01  0.78719733646E+01  0.00000000000E+00 0. -1.
</event>
<event>
 7    1  0.5849044E-013  0.5052886E+02  0.7816164E-02  0.1300439E+00
        -11   -1    0    0    0    0  0.00000000000E+00  0.00000000000E+00  0.45593999997E+02  0.45594000000E+02  0.51100000000E-03 0.  1.
         11   -1    0    0    0    0 -0.00000000000E+00 -0.00000000000E+00 -0.45593999997E+02  0.45594000000E+02  0.51100000000E-03 0. -1.
    9900012    2    1    2    0    0 -0.33809300629E+02 -0.20621646539E+02  0.92111033134E+01  0.50528861553E+02  0.30000005176E+02 0.  0.
         12    1    1    2    0    0  0.33809300629E+02  0.20621646539E+02 -0.92111033134E+01  0.40659138447E+02  0.00000000000E+00 0. -1.
         11    1    3    3    0    0  0.95545308797E+00 -0.65678900277E+01 -0.59396363425E+01  0.89067025414E+01  0.51100000000E-03 0. -1.
        -11    1    3    3    0    0  0.12369481318E-01 -0.18416448155E+01  0.22326813869E+00  0.18551704918E+01  0.51100000000E-03 0.  1.
         12    1    3    3    0    0 -0.34777123198E+02 -0.12212111696E+02  0.14927471517E+02  0.39766988520E+02  0.00000000000E+00 0. -1.
</event>
<event>
 7    1  0.5849044E-013  0.5052886E+02  0.7816164E-02  0.1300439E+00
        -11   -1    0    0    0    0  0.00000000000E+00  0.00000000000E+00  0.45593999997E+02  0.45594000000E+02  0.51100000000E-03 0.  1.
         11   -1    0    0    0    0 -0.00000000000E+00 -0.00000000000E+00 -0.45593999997E+02  0.45594000000E+02  0.51100000000E-03 0. -1.
    9900012    2    1    2    0    0 -0.63574474499E+01 -0.32055842129E+02  0.24190323371E+02  0.50528857148E+02  0.29999991788E+02 0.  0.
         12    1    1    2    0    0  0.63574474499E+01  0.32055842129E+02 -0.24190323371E+02  0.40659142852E+02  0.00000000000E+00 0. -1.
         11    1    3    3    0    0  0.67801386135E+01 -0.16633612693E+02 -0.46879097763E-01  0.17962448295E+02  0.51100000000E-03 0. -1.
        -11    1    3    3    0    0 -0.75320463947E+01 -0.10074995333E+02  0.89818573411E+01  0.15456746599E+02  0.51100000000E-03 0.  1.
         12    1    3    3    0    0 -0.56055396686E+01 -0.53472341021E+01  0.15255345127E+02  0.17109662255E+02  0.00000000000E+00 0. -1.
</event>
<event>
 7    1  0.5849044E-013  0.5052886E+02  0.7816164E-02  0.1300439E+00
        -11   -1    0    0    0    0  0.00000000000E+00  0.00000000000E+00  0.45593999997E+02  0.45594000000E+02  0.51100000000E-03 0.  1.
         11   -1    0    0    0    0 -0.00000000000E+00 -0.00000000000E+00 -0.45593999997E+02  0.45594000000E+02  0.51100000000E-03 0. -1.
    9900012    2    1    2    0    0  0.29238483543E+02  0.13801237046E+02  0.24653653509E+02  0.50528859635E+02  0.29999999347E+02 0.  0.
         12    1    1    2    0    0 -0.29238483543E+02 -0.13801237046E+02 -0.24653653509E+02  0.40659140365E+02  0.00000000000E+00 0. -1.
         11    1    3    3    0    0 -0.31573874605E+01 -0.10648429931E+01 -0.15340938111E+01  0.36683007317E+01  0.51100000000E-03 0. -1.
        -11    1    3    3    0    0  0.24564337565E+02  0.46147641978E+01  0.22000566620E+02  0.33297562380E+02  0.51100000000E-03 0.  1.
        -12    1    3    3    0    0  0.78315334381E+01  0.10251315842E+02  0.41871806994E+01  0.13562996523E+02  0.00000000000E+00 0.  1.
</event>
<event>
 7    1  0.5849044E-013  0.5052875E+02  0.7816164E-02  0.1300439E+00
        -11   -1    0    0    0    0  0.00000000000E+00  0.00000000000E+00  0.45593999997E+02  0.45594000000E+02  0.51100000000E-03 0.  1.
         11   -1    0    0    0    0 -0.00000000000E+00 -0.00000000000E+00 -0.45593999997E+02  0.45594000000E+02  0.51100000000E-03 0. -1.
    9900012    2    1    2    0    0 -0.29957565852E+02  0.25402438943E+02  0.10508797771E+02  0.50528751524E+02  0.29999670730E+02 0.  0.
         12    1    1    2    0    0  0.29957565852E+02 -0.25402438943E+02 -0.10508797771E+02  0.40659248476E+02  0.00000000000E+00 0. -1.
         11    1    3    3    0    0 -0.60328505463E+01 -0.14485669245E+01  0.86473738443E+01  0.10642871159E+02  0.51100000000E-03 0. -1.
        -11    1    3    3    0    0 -0.10807852921E+02  0.21031907450E+02  0.69728148252E+01  0.24653011228E+02  0.51100000000E-03 0.  1.
        -12    1    3    3    0    0 -0.13116862385E+02  0.58190984175E+01 -0.51113908990E+01  0.15232869137E+02  0.00000000000E+00 0.  1.
</event>
<event>
 7    1  0.5849044E-013  0.5052890E+02  0.7816164E-02  0.1300439E+00
        -11   -1    0    0    0    0  0.00000000000E+00  0.00000000000E+00  0.45593999997E+02  0.45594000000E+02  0.51100000000E-03 0.  1.
         11   -1    0    0    0    0 -0.00000000000E+00 -0.00000000000E+00 -0.45593999997E+02  0.45594000000E+02  0.51100000000E-03 0. -1.
    9900012    2    1    2    0    0  0.39512695567E+02 -0.56312734431E+01  0.77587660434E+01  0.50528895213E+02  0.30000107489E+02 0.  0.
         12    1    1    2    0    0 -0.39512695567E+02  0.56312734431E+01 -0.77587660434E+01  0.40659104787E+02  0.00000000000E+00 0. -1.
         11    1    3    3    0    0  0.94809295510E+01  0.83014620676E+00 -0.75443020279E+01  0.12144696835E+02  0.51100000000E-03 0. -1.
        -11    1    3    3    0    0  0.13111772689E+02  0.22791660538E+01  0.13968362883E+02  0.19293220127E+02  0.51100000000E-03 0.  1.
        -12    1    3    3    0    0  0.16919993327E+02 -0.87405857037E+01  0.13347051878E+01  0.19090978251E+02  0.00000000000E+00 0.  1.
</event>
<event>
 7    1  0.5849044E-013  0.5052886E+02  0.7816164E-02  0.1300439E+00
        -11   -1    0    0    0    0  0.00000000000E+00  0.00000000000E+00  0.45593999997E+02  0.45594000000E+02  0.51100000000E-03 0. -1.
         11   -1    0    0    0    0 -0.00000000000E+00 -0.00000000000E+00 -0.45593999997E+02  0.45594000000E+02  0.51100000000E-03 0.  1.
    9900012    2    1    2    0    0  0.26414010631E+02 -0.65696227153E+01 -0.30204399011E+02  0.50528860562E+02  0.30000002164E+02 0.  0.
         12    1    1    2    0    0 -0.26414010631E+02  0.65696227153E+01  0.30204399011E+02  0.40659139438E+02  0.00000000000E+00 0. -1.
         11    1    3    3    0    0  0.12340224596E+02 -0.13744029163E+02 -0.46565718237E+01  0.19048966957E+02  0.51100000000E-03 0. -1.
        -11    1    3    3    0    0  0.10348635538E+02  0.51361729689E-01 -0.13991239616E+02  0.17402634335E+02  0.51100000000E-03 0.  1.
         12    1    3    3    0    0  0.37251504961E+01  0.71230447176E+01 -0.11556587572E+02  0.14077259270E+02  0.00000000000E+00 0. -1.
</event>
<event>
 7    1  0.5849044E-013  0.5052886E+02  0.7816164E-02  0.1300439E+00
        -11   -1    0    0    0    0  0.00000000000E+00  0.00000000000E+00  0.45593999997E+02  0.45594000000E+02  0.51100000000E-03 0.  1.
         11   -1    0    0    0    0 -0.00000000000E+00 -0.00000000000E+00 -0.45593999997E+02  0.45594000000E+02  0.51100000000E-03 0. -1.
    9900012    2    1    2    0    0 -0.32924271846E+02  0.12925141276E+02  0.20052397934E+02  0.50528860603E+02  0.30000002289E+02 0.  0.
         12    1    1    2    0    0  0.32924271846E+02 -0.12925141276E+02 -0.20052397934E+02  0.40659139397E+02  0.00000000000E+00 0. -1.
         11    1    3    3    0    0 -0.21379231339E+02 -0.50229995435E+01  0.12905453668E+01  0.21999262821E+02  0.51100000000E-03 0. -1.
        -11    1    3    3    0    0 -0.50241085372E+01  0.98921094617E+01  0.89063049250E+01  0.14227359694E+02  0.51100000000E-03 0.  1.
         12    1    3    3    0    0 -0.65209319706E+01  0.80560313580E+01  0.98555476419E+01  0.14302238088E+02  0.00000000000E+00 0. -1.
</event>
<event>
 7    1  0.5849044E-013  0.5052886E+02  0.7816164E-02  0.1300439E+00
        -11   -1    0    0    0    0  0.00000000000E+00  0.00000000000E+00  0.45593999997E+02  0.45594000000E+02  0.51100000000E-03 0. -1.
         11   -1    0    0    0    0 -0.00000000000E+00 -0.00000000000E+00 -0.45593999997E+02  0.45594000000E+02  0.51100000000E-03 0.  1.
    9900012    2    1    2    0    0 -0.26516637800E+02  0.28271252697E+02 -0.12278848821E+02  0.50528856653E+02  0.29999990284E+02 0.  0.
         12    1    1    2    0    0  0.26516637800E+02 -0.28271252697E+02  0.12278848821E+02  0.40659143347E+02  0.00000000000E+00 0. -1.
         11    1    3    3    0    0  0.41791540913E+00  0.15329768244E+02 -0.92677419253E+01  0.17918356185E+02  0.51100000000E-03 0. -1.
        -11    1    3    3    0    0 -0.11558966183E+02  0.11152164598E+02 -0.54056774011E+01  0.16947029913E+02  0.51100000000E-03 0.  1.
         12    1    3    3    0    0 -0.15375587026E+02  0.17893198552E+01  0.23945705051E+01  0.15663470556E+02  0.00000000000E+00 0. -1.
</event>
<event>
 7    1  0.5849044E-013  0.5052887E+02  0.7816164E-02  0.1300439E+00
        -11   -1    0    0    0    0  0.00000000000E+00  0.00000000000E+00  0.45593999997E+02  0.45594000000E+02  0.51100000000E-03 0.  1.
         11   -1    0    0    0    0 -0.00000000000E+00 -0.00000000000E+00 -0.45593999997E+02  0.45594000000E+02  0.51100000000E-03 0. -1.
    9900012    2    1    2    0    0  0.10910558927E+02  0.15349788115E+02  0.36034828244E+02  0.50528866489E+02  0.30000020180E+02 0.  0.
         12    1    1    2    0    0 -0.10910558927E+02 -0.15349788115E+02 -0.36034828244E+02  0.40659133511E+02  0.00000000000E+00 0. -1.
         11    1    3    3    0    0  0.92474466729E+00  0.75552904597E+01 -0.36778737550E+01  0.84536573298E+01  0.51100000000E-03 0. -1.
        -11    1    3    3    0    0  0.15023599066E+01  0.40934137553E+00  0.12974531841E+02  0.13067636450E+02  0.51100000000E-03 0.  1.
         12    1    3    3    0    0  0.84834543526E+01  0.73851562799E+01  0.26738170159E+02  0.29007572709E+02  0.00000000000E+00 0. -1.
</event>
<event>
 7    1  0.5849044E-013  0.5052886E+02  0.7816164E-02  0.1300439E+00
        -11   -1    0    0    0    0  0.00000000000E+00  0.00000000000E+00  0.45593999997E+02  0.45594000000E+02  0.51100000000E-03 0.  1.
         11   -1    0    0    0    0 -0.00000000000E+00 -0.00000000000E+00 -0.45593999997E+02  0.45594000000E+02  0.51100000000E-03 0. -1.
    9900012    2    1    2    0    0 -0.19358170214E+02  0.33533491987E+02  0.12406932748E+02  0.50528858112E+02  0.29999994717E+02 0.  0.
         12    1    1    2    0    0  0.19358170214E+02 -0.33533491987E+02 -0.12406932748E+02  0.40659141888E+02  0.00000000000E+00 0. -1.
         11    1    3    3    0    0  0.28304871786E+01 -0.18297760359E+01  0.49925812088E+01  0.60237534310E+01  0.51100000000E-03 0. -1.
        -11    1    3    3    0    0 -0.10899926810E+02  0.71421224808E+01  0.51957200037E+01  0.14029035056E+02  0.51100000000E-03 0.  1.
         12    1    3    3    0    0 -0.11288730583E+02  0.28221145542E+02  0.22186315354E+01  0.30476069625E+02  0.00000000000E+00 0. -1.
</event>
<event>
 7    1  0.5849044E-013  0.5052877E+02  0.7816164E-02  0.1300439E+00
        -11   -1    0    0    0    0  0.00000000000E+00  0.00000000000E+00  0.45593999997E+02  0.45594000000E+02  0.51100000000E-03 0.  1.
         11   -1    0    0    0    0 -0.00000000000E+00 -0.00000000000E+00 -0.45593999997E+02  0.45594000000E+02  0.51100000000E-03 0. -1.
    9900012    2    1    2    0    0 -0.30074742623E+02  0.29653343336E+01  0.27200907806E+02  0.50528773040E+02  0.29999736130E+02 0.  0.
         12    1    1    2    0    0  0.30074742623E+02 -0.29653343336E+01 -0.27200907806E+02  0.40659226960E+02  0.00000000000E+00 0. -1.
         11    1    3    3    0    0 -0.15477791390E+02  0.98068697370E+01  0.94738187541E+01  0.20627408039E+02  0.51100000000E-03 0.  1.
        -11    1    3    3    0    0  0.17748759851E+01 -0.44456124519E+01  0.11080193850E+02  0.12069977252E+02  0.51100000000E-03 0. -1.
         12    1    3    3    0    0 -0.16371827218E+02 -0.23959229516E+01  0.66468952020E+01  0.17831387749E+02  0.00000000000E+00 0. -1.
</event>
<event>
 7    1  0.5849044E-013  0.5052887E+02  0.7816164E-02  0.1300439E+00
        -11   -1    0    0    0    0  0.00000000000E+00  0.00000000000E+00  0.45593999997E+02  0.45594000000E+02  0.51100000000E-03 0.  1.
         11   -1    0    0    0    0 -0.00000000000E+00 -0.00000000000E+00 -0.45593999997E+02  0.45594000000E+02  0.51100000000E-03 0. -1.
    9900012    2    1    2    0    0 -0.69925294201E+01  0.55076858841E+01  0.39672847764E+02  0.50528869153E+02  0.30000028279E+02 0.  0.
         12    1    1    2    0    0  0.69925294201E+01 -0.55076858841E+01 -0.39672847764E+02  0.40659130847E+02  0.00000000000E+00 0. -1.
         11    1    3    3    0    0  0.23712254428E+01  0.29421138264E+01 -0.16940130525E+01  0.41410656058E+01  0.51100000000E-03 0. -1.
        -11    1    3    3    0    0 -0.77935901962E+01 -0.48374715236E+01  0.35896487941E+02  0.37049953113E+02  0.51100000000E-03 0.  1.
        -12    1    3    3    0    0 -0.15701646667E+01  0.74030435813E+01  0.54703728756E+01  0.93378504349E+01  0.00000000000E+00 0.  1.
</event>
<event>
 7    1  0.5849044E-013  0.5052886E+02  0.7816164E-02  0.1300439E+00
        -11   -1    0    0    0    0  0.00000000000E+00  0.00000000000E+00  0.45593999997E+02  0.45594000000E+02  0.51100000000E-03 0.  1.
         11   -1    0    0    0    0 -0.00000000000E+00 -0.00000000000E+00 -0.45593999997E+02  0.45594000000E+02  0.51100000000E-03 0. -1.
    9900012    2    1    2    0    0  0.37800135859E+02 -0.42641532838E+01  0.14357316587E+02  0.50528858177E+02  0.29999994916E+02 0.  0.
         12    1    1    2    0    0 -0.37800135859E+02  0.42641532838E+01 -0.14357316587E+02  0.40659141823E+02  0.00000000000E+00 0. -1.
         11    1    3    3    0    0  0.80330207850E+01 -0.79652772661E+01  0.43447058252E+01  0.12118231465E+02  0.51100000000E-03 0.  1.
        -11    1    3    3    0    0  0.19779928232E+02  0.88531560645E+01  0.14750932340E+02  0.26214765654E+02  0.51100000000E-03 0. -1.
        -12    1    3    3    0    0  0.99871868420E+01 -0.51520320821E+01 -0.47383215776E+01  0.12195861059E+02  0.00000000000E+00 0.  1.
</event>
<event>
 7    1  0.5849044E-013  0.5052886E+02  0.7816164E-02  0.1300439E+00
        -11   -1    0    0    0    0  0.00000000000E+00  0.00000000000E+00  0.45593999997E+02  0.45594000000E+02  0.51100000000E-03 0.  1.
         11   -1    0    0    0    0 -0.00000000000E+00 -0.00000000000E+00 -0.45593999997E+02  0.45594000000E+02  0.51100000000E-03 0. -1.
    9900012    2    1    2    0    0 -0.55670329981E+01 -0.15457587709E+02  0.37191890965E+02  0.50528860465E+02  0.30000001869E+02 0.  0.
         12    1    1    2    0    0  0.55670329981E+01  0.15457587709E+02 -0.37191890965E+02  0.40659139535E+02  0.00000000000E+00 0. -1.
         11    1    3    3    0    0 -0.23893756084E+01 -0.16663177027E+02  0.95110518264E+01  0.19334701744E+02  0.51100000000E-03 0. -1.
        -11    1    3    3    0    0 -0.79496603038E+01  0.27186713858E+00  0.23402729897E+02  0.24717580334E+02  0.51100000000E-03 0.  1.
        -12    1    3    3    0    0  0.47720029141E+01  0.93372217912E+00  0.42781092416E+01  0.64765783870E+01  0.00000000000E+00 0.  1.
</event>
<event>
 7    1  0.5849044E-013  0.5052886E+02  0.7816164E-02  0.1300439E+00
        -11   -1    0    0    0    0  0.00000000000E+00  0.00000000000E+00  0.45593999997E+02  0.45594000000E+02  0.51100000000E-03 0. -1.
         11   -1    0    0    0    0 -0.00000000000E+00 -0.00000000000E+00 -0.45593999997E+02  0.45594000000E+02  0.51100000000E-03 0.  1.
    9900012    2    1    2    0    0  0.40314239498E+02 -0.44235639649E+01 -0.28913254917E+01  0.50528860959E+02  0.30000003370E+02 0.  0.
         12    1    1    2    0    0 -0.40314239498E+02  0.44235639649E+01  0.28913254917E+01  0.40659139041E+02  0.00000000000E+00 0. -1.
         11    1    3    3    0    0  0.17056324475E+01  0.44213092250E+01  0.40246085434E+01  0.62172848976E+01  0.51100000000E-03 0. -1.
        -11    1    3    3    0    0  0.35762376951E+02 -0.13405870485E+02 -0.46393936529E+01  0.38473223706E+02  0.51100000000E-03 0.  1.
        -12    1    3    3    0    0  0.28462301001E+01  0.45609972951E+01 -0.22765403822E+01  0.58383523549E+01  0.00000000000E+00 0.  1.
</event>
<event>
 7    1  0.5849044E-013  0.5052889E+02  0.7816164E-02  0.1300439E+00
        -11   -1    0    0    0    0  0.00000000000E+00  0.00000000000E+00  0.45593999997E+02  0.45594000000E+02  0.51100000000E-03 0. -1.
         11   -1    0    0    0    0 -0.00000000000E+00 -0.00000000000E+00 -0.45593999997E+02  0.45594000000E+02  0.51100000000E-03 0.  1.
    9900012    2    1    2    0    0  0.37928797482E+02  0.21051442967E+01 -0.14496143722E+02  0.50528886707E+02  0.30000081634E+02 0.  0.
         12    1    1    2    0    0 -0.37928797482E+02 -0.21051442967E+01  0.14496143722E+02  0.40659113293E+02  0.00000000000E+00 0. -1.
         11    1    3    3    0    0  0.74615800186E+01 -0.42797824299E+01  0.59291706912E+01  0.10447333601E+02  0.51100000000E-03 0. -1.
        -11    1    3    3    0    0  0.21327125071E+02  0.79841586657E+01 -0.20733830314E+02  0.30797479980E+02  0.51100000000E-03 0.  1.
        -12    1    3    3    0    0  0.91400923927E+01 -0.15992319390E+01  0.30851590037E+00  0.92840731257E+01  0.00000000000E+00 0.  1.
</event>
<event>
 7    1  0.5849044E-013  0.5052883E+02  0.7816164E-02  0.1300439E+00
        -11   -1    0    0    0    0  0.00000000000E+00  0.00000000000E+00  0.45593999997E+02  0.45594000000E+02  0.51100000000E-03 0.  1.
         11   -1    0    0    0    0 -0.00000000000E+00 -0.00000000000E+00 -0.45593999997E+02  0.45594000000E+02  0.51100000000E-03 0. -1.
    9900012    2    1    2    0    0  0.21220067947E+02  0.32947248726E+02  0.10833068510E+02  0.50528833068E+02  0.29999918593E+02 0.  0.
         12    1    1    2    0    0 -0.21220067947E+02 -0.32947248726E+02 -0.10833068510E+02  0.40659166932E+02  0.00000000000E+00 0. -1.
         11    1    3    3    0    0  0.12971022223E+02  0.14954250580E+02  0.10122282443E+02  0.22233704820E+02  0.51100000000E-03 0.  1.
        -11    1    3    3    0    0 -0.54431959854E+01  0.23644810315E+01  0.41400674359E+01  0.72359734466E+01  0.51100000000E-03 0. -1.
         12    1    3    3    0    0  0.13692241709E+02  0.15628517114E+02 -0.34292813696E+01  0.21059154801E+02  0.00000000000E+00 0. -1.
</event>
<event>
 7    1  0.5849044E-013  0.5052886E+02  0.7816164E-02  0.1300439E+00
        -11   -1    0    0    0    0  0.00000000000E+00  0.00000000000E+00  0.45593999997E+02  0.45594000000E+02  0.51100000000E-03 0.  1.
         11   -1    0    0    0    0 -0.00000000000E+00 -0.00000000000E+00 -0.45593999997E+02  0.45594000000E+02  0.51100000000E-03 0. -1.
    9900012    2    1    2    0    0  0.11651866778E+02 -0.22449120239E+02  0.31834515060E+02  0.50528863905E+02  0.30000012324E+02 0.  0.
         12    1    1    2    0    0 -0.11651866778E+02  0.22449120239E+02 -0.31834515060E+02  0.40659136095E+02  0.00000000000E+00 0. -1.
         11    1    3    3    0    0  0.22073941376E+01  0.52034434179E+01  0.78316781422E+01  0.96583432878E+01  0.51100000000E-03 0. -1.
        -11    1    3    3    0    0  0.93618477053E+01 -0.15729262489E+02  0.22261226149E+02  0.28820410838E+02  0.51100000000E-03 0.  1.
         12    1    3    3    0    0  0.82624935356E-01 -0.11923301168E+02  0.17416107683E+01  0.12050109779E+02  0.00000000000E+00 0. -1.
</event>
<event>
 7    1  0.5849044E-013  0.5052887E+02  0.7816164E-02  0.1300439E+00
        -11   -1    0    0    0    0  0.00000000000E+00  0.00000000000E+00  0.45593999997E+02  0.45594000000E+02  0.51100000000E-03 0.  1.
         11   -1    0    0    0    0 -0.00000000000E+00 -0.00000000000E+00 -0.45593999997E+02  0.45594000000E+02  0.51100000000E-03 0. -1.
    9900012    2    1    2    0    0 -0.16500847035E+02 -0.36636087497E+02  0.62196773443E+01  0.50528865157E+02  0.30000016131E+02 0.  0.
         12    1    1    2    0    0  0.16500847035E+02  0.36636087497E+02 -0.62196773443E+01  0.40659134843E+02  0.00000000000E+00 0. -1.
         11    1    3    3    0    0  0.80833889975E+01 -0.15736101292E+02  0.35151320207E+01  0.18036690798E+02  0.51100000000E-03 0. -1.
        -11    1    3    3    0    0 -0.13617938614E+02 -0.13219526961E+02  0.20209175189E+01  0.19086336816E+02  0.51100000000E-03 0.  1.
         12    1    3    3    0    0 -0.10966297418E+02 -0.76804592438E+01  0.68362780466E+00  0.13405837543E+02  0.00000000000E+00 0. -1.
</event>
<event>
 7    1  0.5849044E-013  0.5052888E+02  0.7816164E-02  0.1300439E+00
        -11   -1    0    0    0    0  0.00000000000E+00  0.00000000000E+00  0.45593999997E+02  0.45594000000E+02  0.51100000000E-03 0. -1.
         11   -1    0    0    0    0 -0.00000000000E+00 -0.00000000000E+00 -0.45593999997E+02  0.45594000000E+02  0.51100000000E-03 0.  1.
    9900012    2    1    2    0    0 -0.10776407055E+02  0.35109311901E+02 -0.17446174624E+02  0.50528883677E+02  0.30000072424E+02 0.  0.
         12    1    1    2    0    0  0.10776407055E+02 -0.35109311901E+02  0.17446174624E+02  0.40659116323E+02  0.00000000000E+00 0. -1.
         11    1    3    3    0    0 -0.10234142333E+02  0.24601469074E+02  0.54137589830E+00  0.26650760552E+02  0.51100000000E-03 0. -1.
        -11    1    3    3    0    0  0.44992604573E+01  0.94891439735E+01 -0.13020700260E+02  0.16727995503E+02  0.51100000000E-03 0.  1.
         12    1    3    3    0    0 -0.50415251793E+01  0.10186988538E+01 -0.49668502621E+01  0.71501276223E+01  0.00000000000E+00 0. -1.
</event>
<event>
 7    1  0.5849044E-013  0.5052885E+02  0.7816164E-02  0.1300439E+00
        -11   -1    0    0    0    0  0.00000000000E+00  0.00000000000E+00  0.45593999997E+02  0.45594000000E+02  0.51100000000E-03 0.  1.
         11   -1    0    0    0    0 -0.00000000000E+00 -0.00000000000E+00 -0.45593999997E+02  0.45594000000E+02  0.51100000000E-03 0. -1.
    9900012    2    1    2    0    0  0.12207426593E+02  0.34368095591E+02  0.17971612503E+02  0.50528854478E+02  0.29999983671E+02 0.  0.
         12    1    1    2    0    0 -0.12207426593E+02 -0.34368095591E+02 -0.17971612503E+02  0.40659145522E+02  0.00000000000E+00 0. -1.
         11    1    3    3    0    0 -0.13276125124E+01 -0.15965156568E+01 -0.19973293457E+01  0.28811008316E+01  0.51100000000E-03 0. -1.
        -11    1    3    3    0    0  0.10275319421E+02  0.34542787299E+02  0.23185409945E+02  0.42852649604E+02  0.51100000000E-03 0.  1.
        -12    1    3    3    0    0  0.32597196842E+01  0.14218239497E+01 -0.32164680955E+01  0.47951040419E+01  0.00000000000E+00 0.  1.
</event>
<event>
 7    1  0.5849044E-013  0.5052875E+02  0.7816164E-02  0.1300439E+00
        -11   -1    0    0    0    0  0.00000000000E+00  0.00000000000E+00  0.45593999997E+02  0.45594000000E+02  0.51100000000E-03 0. -1.
         11   -1    0    0    0    0 -0.00000000000E+00 -0.00000000000E+00 -0.45593999997E+02  0.45594000000E+02  0.51100000000E-03 0.  1.
    9900012    2    1    2    0    0 -0.28714617172E+02  0.24300470492E+02 -0.15431529641E+02  0.50528754895E+02  0.29999680976E+02 0.  0.
         12    1    1    2    0    0  0.28714617172E+02 -0.24300470492E+02  0.15431529641E+02  0.40659245105E+02  0.00000000000E+00 0. -1.
         11    1    3    3    0    0 -0.31399688268E+02  0.18082204738E+02 -0.13664893016E+02  0.38725132058E+02  0.51100000000E-03 0.  1.
        -11    1    3    3    0    0 -0.80966035356E+00 -0.90703384931E+00  0.25096481002E+01  0.27886545393E+01  0.51100000000E-03 0. -1.
         12    1    3    3    0    0  0.34947314499E+01  0.71252996031E+01 -0.42762847256E+01  0.90149682970E+01  0.00000000000E+00 0. -1.
</event>
<event>
 7    1  0.5849044E-013  0.5052886E+02  0.7816164E-02  0.1300439E+00
        -11   -1    0    0    0    0  0.00000000000E+00  0.00000000000E+00  0.45593999997E+02  0.45594000000E+02  0.51100000000E-03 0. -1.
         11   -1    0    0    0    0 -0.00000000000E+00 -0.00000000000E+00 -0.45593999997E+02  0.45594000000E+02  0.51100000000E-03 0.  1.
    9900012    2    1    2    0    0  0.15754727295E+02 -0.15008442314E+02 -0.34346770113E+02  0.50528863388E+02  0.30000010755E+02 0.  0.
         12    1    1    2    0    0 -0.15754727295E+02  0.15008442314E+02  0.34346770113E+02  0.40659136612E+02  0.00000000000E+00 0. -1.
         11    1    3    3    0    0  0.19670551045E+01 -0.61610107566E+01  0.35594867899E+01  0.73822290533E+01  0.51100000000E-03 0. -1.
        -11    1    3    3    0    0 -0.11211853247E+01 -0.10045949288E+01 -0.12947852644E+02  0.13035074064E+02  0.51100000000E-03 0.  1.
         12    1    3    3    0    0  0.14908857516E+02 -0.78428366289E+01 -0.24958404259E+02  0.30111560271E+02  0.00000000000E+00 0. -1.
</event>
<event>
 7    1  0.5849044E-013  0.5052887E+02  0.7816164E-02  0.1300439E+00
        -11   -1    0    0    0    0  0.00000000000E+00  0.00000000000E+00  0.45593999997E+02  0.45594000000E+02  0.51100000000E-03 0. -1.
         11   -1    0    0    0    0 -0.00000000000E+00 -0.00000000000E+00 -0.45593999997E+02  0.45594000000E+02  0.51100000000E-03 0.  1.
    9900012    2    1    2    0    0  0.23804561786E+02  0.32952629866E+02  0.79515317821E+00  0.50528865165E+02  0.30000016156E+02 0.  0.
         12    1    1    2    0    0 -0.23804561786E+02 -0.32952629866E+02 -0.79515317821E+00  0.40659134835E+02  0.00000000000E+00 0. -1.
         11    1    3    3    0    0  0.42960970958E+01  0.56734111842E+01  0.72774829747E+01  0.10178693601E+02  0.51100000000E-03 0. -1.
        -11    1    3    3    0    0  0.80262669955E+01  0.22539310425E+02 -0.11989911114E+02  0.26761902868E+02  0.51100000000E-03 0.  1.
        -12    1    3    3    0    0  0.11482197695E+02  0.47399082571E+01  0.55075813178E+01  0.13588268696E+02  0.00000000000E+00 0.  1.
</event>
<event>
 7    1  0.5849044E-013  0.5052887E+02  0.7816164E-02  0.1300439E+00
        -11   -1    0    0    0    0  0.00000000000E+00  0.00000000000E+00  0.45593999997E+02  0.45594000000E+02  0.51100000000E-03 0. -1.
         11   -1    0    0    0    0 -0.00000000000E+00 -0.00000000000E+00 -0.45593999997E+02  0.45594000000E+02  0.51100000000E-03 0.  1.
    9900012    2    1    2    0    0  0.67108918914E+01 -0.38562503936E+02  0.11002818077E+02  0.50528870823E+02  0.30000033354E+02 0.  0.
         12    1    1    2    0    0 -0.67108918914E+01  0.38562503936E+02 -0.11002818077E+02  0.40659129177E+02  0.00000000000E+00 0. -1.
         11    1    3    3    0    0  0.70491725709E+00  0.31143741310E+01 -0.32961958921E+01  0.45892420057E+01  0.51100000000E-03 0. -1.
        -11    1    3    3    0    0 -0.31352209276E+00 -0.28531865947E+02  0.59963434462E+01  0.29156848346E+02  0.51100000000E-03 0.  1.
         12    1    3    3    0    0  0.63194967271E+01 -0.13145012120E+02  0.83026705233E+01  0.16782780471E+02  0.00000000000E+00 0. -1.
</event>
<event>
 7    1  0.5849044E-013  0.5052889E+02  0.7816164E-02  0.1300439E+00
        -11   -1    0    0    0    0  0.00000000000E+00  0.00000000000E+00  0.45593999997E+02  0.45594000000E+02  0.51100000000E-03 0. -1.
         11   -1    0    0    0    0 -0.00000000000E+00 -0.00000000000E+00 -0.45593999997E+02  0.45594000000E+02  0.51100000000E-03 0.  1.
    9900012    2    1    2    0    0 -0.36462657646E+02  0.75114960455E+01 -0.16346709106E+02  0.50528894328E+02  0.30000104799E+02 0.  0.
         12    1    1    2    0    0  0.36462657646E+02 -0.75114960455E+01  0.16346709106E+02  0.40659105672E+02  0.00000000000E+00 0. -1.
         11    1    3    3    0    0 -0.27917599718E+02  0.10526669540E+02 -0.17044472222E+02  0.34361565436E+02  0.51100000000E-03 0. -1.
        -11    1    3    3    0    0 -0.58888848326E+01 -0.57762044965E+01 -0.47412869883E+01  0.95143736275E+01  0.51100000000E-03 0.  1.
         12    1    3    3    0    0 -0.26561730952E+01  0.27610310019E+01  0.54390501045E+01  0.66529552640E+01  0.00000000000E+00 0. -1.
</event>
<event>
 7    1  0.5849044E-013  0.5052887E+02  0.7816164E-02  0.1300439E+00
        -11   -1    0    0    0    0  0.00000000000E+00  0.00000000000E+00  0.45593999997E+02  0.45594000000E+02  0.51100000000E-03 0. -1.
         11   -1    0    0    0    0 -0.00000000000E+00 -0.00000000000E+00 -0.45593999997E+02  0.45594000000E+02  0.51100000000E-03 0.  1.
    9900012    2    1    2    0    0  0.32844872553E+02 -0.41748549493E+01  0.23599788070E+02  0.50528867400E+02  0.30000022948E+02 0.  0.
         12    1    1    2    0    0 -0.32844872553E+02  0.41748549493E+01 -0.23599788070E+02  0.40659132600E+02  0.00000000000E+00 0. -1.
         11    1    3    3    0    0 -0.82990128241E-01  0.26951877451E-01  0.38366452194E+00  0.39346218573E+00  0.51100000000E-03 0. -1.
        -11    1    3    3    0    0  0.28056616046E+02  0.58015549351E+01  0.25974969663E+02  0.38672093205E+02  0.51100000000E-03 0.  1.
        -12    1    3    3    0    0  0.48712466350E+01 -0.10003361762E+02 -0.27588461151E+01  0.11463312008E+02  0.00000000000E+00 0.  1.
</event>
<event>
 7    1  0.5849044E-013  0.5052888E+02  0.7816164E-02  0.1300439E+00
        -11   -1    0    0    0    0  0.00000000000E+00  0.00000000000E+00  0.45593999997E+02  0.45594000000E+02  0.51100000000E-03 0.  1.
         11   -1    0    0    0    0 -0.00000000000E+00 -0.00000000000E+00 -0.45593999997E+02  0.45594000000E+02  0.51100000000E-03 0. -1.
    9900012    2    1    2    0    0  0.11947468086E+02  0.38074768585E+01  0.38677187965E+02  0.50528883647E+02  0.30000072334E+02 0.  0.
         12    1    1    2    0    0 -0.11947468086E+02 -0.38074768585E+01 -0.38677187965E+02  0.40659116353E+02  0.00000000000E+00 0. -1.
         11    1    3    3    0    0  0.11279021305E+02 -0.66887282729E+01  0.68442195846E+01  0.14791847399E+02  0.51100000000E-03 0. -1.
        -11    1    3    3    0    0 -0.52573929945E+01  0.61203356746E+01  0.22127663685E+02  0.23552753348E+02  0.51100000000E-03 0.  1.
         12    1    3    3    0    0  0.59258397761E+01  0.43758694567E+01  0.97053046958E+01  0.12184282900E+02  0.00000000000E+00 0. -1.
</event>
<event>
 7    1  0.5849044E-013  0.5052887E+02  0.7816164E-02  0.1300439E+00
        -11   -1    0    0    0    0  0.00000000000E+00  0.00000000000E+00  0.45593999997E+02  0.45594000000E+02  0.51100000000E-03 0. -1.
         11   -1    0    0    0    0 -0.00000000000E+00 -0.00000000000E+00 -0.45593999997E+02  0.45594000000E+02  0.51100000000E-03 0.  1.
    9900012    2    1    2    0    0  0.31688110217E+02 -0.25382969195E+02 -0.21756887568E+01  0.50528867252E+02  0.30000022499E+02 0.  0.
         12    1    1    2    0    0 -0.31688110217E+02  0.25382969195E+02  0.21756887568E+01  0.40659132748E+02  0.00000000000E+00 0. -1.
         11    1    3    3    0    0 -0.30110759882E+01 -0.91250185106E+01 -0.27699394483E+01  0.10000255308E+02  0.51100000000E-03 0. -1.
        -11    1    3    3    0    0  0.15989489098E+02 -0.14515381135E+02 -0.13505899684E+01  0.21637563278E+02  0.51100000000E-03 0.  1.
         12    1    3    3    0    0  0.18709697107E+02 -0.17425695490E+01  0.19448406599E+01  0.18891048665E+02  0.00000000000E+00 0. -1.
</event>
<event>
 7    1  0.5849044E-013  0.5052885E+02  0.7816164E-02  0.1300439E+00
        -11   -1    0    0    0    0  0.00000000000E+00  0.00000000000E+00  0.45593999997E+02  0.45594000000E+02  0.51100000000E-03 0. -1.
         11   -1    0    0    0    0 -0.00000000000E+00 -0.00000000000E+00 -0.45593999997E+02  0.45594000000E+02  0.51100000000E-03 0.  1.
    9900012    2    1    2    0    0 -0.22035499421E+02  0.31956684118E+02  0.12098498842E+02  0.50528848893E+02  0.29999966694E+02 0.  0.
         12    1    1    2    0    0  0.22035499421E+02 -0.31956684118E+02 -0.12098498842E+02  0.40659151107E+02  0.00000000000E+00 0. -1.
         11    1    3    3    0    0 -0.10665668797E+02  0.14186838164E+02  0.10836080921E+02  0.20795276338E+02  0.51100000000E-03 0. -1.
        -11    1    3    3    0    0 -0.64272719555E+01  0.22262041065E+01 -0.83745161739E+01  0.10788805815E+02  0.51100000000E-03 0.  1.
        -12    1    3    3    0    0 -0.49425586677E+01  0.15543641847E+02  0.96369340946E+01  0.18944766739E+02  0.00000000000E+00 0.  1.
</event>
<event>
 7    1  0.5849044E-013  0.5052886E+02  0.7816164E-02  0.1300439E+00
        -11   -1    0    0    0    0  0.00000000000E+00  0.00000000000E+00  0.45593999997E+02  0.45594000000E+02  0.51100000000E-03 0. -1.
         11   -1    0    0    0    0 -0.00000000000E+00 -0.00000000000E+00 -0.45593999997E+02  0.45594000000E+02  0.51100000000E-03 0.  1.
    9900012    2    1    2    0    0  0.21445244371E+02  0.11238825416E+02 -0.32664288618E+02  0.50528862604E+02  0.30000008371E+02 0.  0.
         12    1    1    2    0    0 -0.21445244371E+02 -0.11238825416E+02  0.32664288618E+02  0.40659137396E+02  0.00000000000E+00 0. -1.
         11    1    3    3    0    0 -0.97380623874E+00 -0.13347863121E+01  0.12531601839E+01  0.20737318528E+01  0.51100000000E-03 0. -1.
        -11    1    3    3    0    0  0.24719784366E+02  0.72717375691E+01 -0.17759135199E+02  0.31294293244E+02  0.51100000000E-03 0.  1.
        -12    1    3    3    0    0 -0.23007337570E+01  0.53018741594E+01 -0.16158313603E+02  0.17160837507E+02  0.00000000000E+00 0.  1.
</event>
<event>
 7    1  0.5849044E-013  0.5052886E+02  0.7816164E-02  0.1300439E+00
        -11   -1    0    0    0    0  0.00000000000E+00  0.00000000000E+00  0.45593999997E+02  0.45594000000E+02  0.51100000000E-03 0. -1.
         11   -1    0    0    0    0 -0.00000000000E+00 -0.00000000000E+00 -0.45593999997E+02  0.45594000000E+02  0.51100000000E-03 0.  1.
    9900012    2    1    2    0    0  0.19057069765E+02 -0.24380973628E+01 -0.35833635233E+02  0.50528860304E+02  0.30000001380E+02 0.  0.
         12    1    1    2    0    0 -0.19057069765E+02  0.24380973628E+01  0.35833635233E+02  0.40659139696E+02  0.00000000000E+00 0. -1.
         11    1    3    3    0    0 -0.10804420766E+01 -0.65677886792E+01 -0.24569088206E+00  0.66605981328E+01  0.51100000000E-03 0.  1.
        -11    1    3    3    0    0  0.20596723326E+02  0.19615921332E+00 -0.33663700274E+02  0.39465278494E+02  0.51100000000E-03 0. -1.
         12    1    3    3    0    0 -0.45921148382E+00  0.39335321032E+01 -0.19242440775E+01  0.44029836774E+01  0.00000000000E+00 0. -1.
</event>
<event>
 7    1  0.5849044E-013  0.5052886E+02  0.7816164E-02  0.1300439E+00
        -11   -1    0    0    0    0  0.00000000000E+00  0.00000000000E+00  0.45593999997E+02  0.45594000000E+02  0.51100000000E-03 0. -1.
         11   -1    0    0    0    0 -0.00000000000E+00 -0.00000000000E+00 -0.45593999997E+02  0.45594000000E+02  0.51100000000E-03 0.  1.
    9900012    2    1    2    0    0  0.15377591234E+02  0.37184771209E+02 -0.58299318339E+01  0.50528860471E+02  0.30000001889E+02 0.  0.
         12    1    1    2    0    0 -0.15377591234E+02 -0.37184771209E+02  0.58299318339E+01  0.40659139529E+02  0.00000000000E+00 0. -1.
         11    1    3    3    0    0  0.51205305206E+01 -0.28874441374E+01 -0.61834838198E+01  0.85318602233E+01  0.51100000000E-03 0. -1.
        -11    1    3    3    0    0  0.42243761332E+01  0.86052698955E+01  0.24311121917E+01  0.98897083091E+01  0.51100000000E-03 0.  1.
         12    1    3    3    0    0  0.60326845807E+01  0.31466945451E+02 -0.20775602057E+01  0.32107291939E+02  0.00000000000E+00 0. -1.
</event>
<event>
 7    1  0.5849044E-013  0.5052887E+02  0.7816164E-02  0.1300439E+00
        -11   -1    0    0    0    0  0.00000000000E+00  0.00000000000E+00  0.45593999997E+02  0.45594000000E+02  0.51100000000E-03 0. -1.
         11   -1    0    0    0    0 -0.00000000000E+00 -0.00000000000E+00 -0.45593999997E+02  0.45594000000E+02  0.51100000000E-03 0.  1.
    9900012    2    1    2    0    0  0.18725500220E+01 -0.36665652994E+02 -0.17472496761E+02  0.50528871921E+02  0.30000036691E+02 0.  0.
         12    1    1    2    0    0 -0.18725500220E+01  0.36665652994E+02  0.17472496761E+02  0.40659128079E+02  0.00000000000E+00 0. -1.
         11    1    3    3    0    0 -0.39353382805E+01  0.23918526001E+01 -0.39480392134E+00  0.46220900727E+01  0.51100000000E-03 0. -1.
        -11    1    3    3    0    0  0.87463817553E+01 -0.34848704882E+02 -0.18724604270E+02  0.40515950329E+02  0.51100000000E-03 0.  1.
        -12    1    3    3    0    0 -0.29384934527E+01 -0.42088007125E+01  0.16469114305E+01  0.53908315193E+01  0.00000000000E+00 0.  1.
</event>
<event>
 7    1  0.5849044E-013  0.5052886E+02  0.7816164E-02  0.1300439E+00
        -11   -1    0    0    0    0  0.00000000000E+00  0.00000000000E+00  0.45593999997E+02  0.45594000000E+02  0.51100000000E-03 0.  1.
         11   -1    0    0    0    0 -0.00000000000E+00 -0.00000000000E+00 -0.45593999997E+02  0.45594000000E+02  0.51100000000E-03 0. -1.
    9900012    2    1    2    0    0  0.36645667456E+02 -0.11095778228E+02  0.13680063255E+02  0.50528863654E+02  0.30000011562E+02 0.  0.
         12    1    1    2    0    0 -0.36645667456E+02  0.11095778228E+02 -0.13680063255E+02  0.40659136346E+02  0.00000000000E+00 0. -1.
         11    1    3    3    0    0  0.24156012484E+01 -0.14922646505E+01 -0.26170635509E+01  0.38614770579E+01  0.51100000000E-03 0. -1.
        -11    1    3    3    0    0  0.24275519064E+02 -0.17969932591E+02  0.14622714427E+02  0.33556565388E+02  0.51100000000E-03 0.  1.
        -12    1    3    3    0    0  0.99545471430E+01  0.83664190132E+01  0.16744123781E+01  0.13110821208E+02  0.00000000000E+00 0.  1.
</event>
<event>
 7    1  0.5849044E-013  0.5052886E+02  0.7816164E-02  0.1300439E+00
        -11   -1    0    0    0    0  0.00000000000E+00  0.00000000000E+00  0.45593999997E+02  0.45594000000E+02  0.51100000000E-03 0. -1.
         11   -1    0    0    0    0 -0.00000000000E+00 -0.00000000000E+00 -0.45593999997E+02  0.45594000000E+02  0.51100000000E-03 0.  1.
    9900012    2    1    2    0    0 -0.32175661231E+02  0.12163587271E+02 -0.21678087588E+02  0.50528861883E+02  0.30000006181E+02 0.  0.
         12    1    1    2    0    0  0.32175661231E+02 -0.12163587271E+02  0.21678087588E+02  0.40659138117E+02  0.00000000000E+00 0. -1.
         11    1    3    3    0    0 -0.17273975423E+02  0.17610730455E+02 -0.27468078468E+01  0.24820818030E+02  0.51100000000E-03 0. -1.
        -11    1    3    3    0    0 -0.56834547672E+01 -0.34890106386E+01 -0.12892824649E+02  0.14515501404E+02  0.51100000000E-03 0.  1.
         12    1    3    3    0    0 -0.92182310400E+01 -0.19581325456E+01 -0.60384550924E+01  0.11192542449E+02  0.00000000000E+00 0. -1.
</event>
<event>
 7    1  0.5849044E-013  0.5052887E+02  0.7816164E-02  0.1300439E+00
        -11   -1    0    0    0    0  0.00000000000E+00  0.00000000000E+00  0.45593999997E+02  0.45594000000E+02  0.51100000000E-03 0.  1.
         11   -1    0    0    0    0 -0.00000000000E+00 -0.00000000000E+00 -0.45593999997E+02  0.45594000000E+02  0.51100000000E-03 0. -1.
    9900012    2    1    2    0    0  0.40074821687E+02  0.47234022082E+00  0.68520659597E+01  0.50528865154E+02  0.30000016121E+02 0.  0.
         12    1    1    2    0    0 -0.40074821687E+02 -0.47234022082E+00 -0.68520659597E+01  0.40659134846E+02  0.00000000000E+00 0. -1.
         11    1    3    3    0    0  0.49822957550E+01 -0.89731226842E+00 -0.22375660601E+01  0.55349022061E+01  0.51100000000E-03 0. -1.
        -11    1    3    3    0    0  0.27528251248E+02 -0.74046173401E+01  0.14754082919E+02  0.32098534822E+02  0.51100000000E-03 0.  1.
        -12    1    3    3    0    0  0.75642746846E+01  0.87742698293E+01 -0.56644508992E+01  0.12895428125E+02  0.00000000000E+00 0.  1.
</event>
<event>
 7    1  0.5849044E-013  0.5052884E+02  0.7816164E-02  0.1300439E+00
        -11   -1    0    0    0    0  0.00000000000E+00  0.00000000000E+00  0.45593999997E+02  0.45594000000E+02  0.51100000000E-03 0. -1.
         11   -1    0    0    0    0 -0.00000000000E+00 -0.00000000000E+00 -0.45593999997E+02  0.45594000000E+02  0.51100000000E-03 0.  1.
    9900012    2    1    2    0    0 -0.18556387172E+01 -0.23944558724E+02 -0.32808262721E+02  0.50528838790E+02  0.29999935986E+02 0.  0.
         12    1    1    2    0    0  0.18556387172E+01  0.23944558724E+02  0.32808262721E+02  0.40659161210E+02  0.00000000000E+00 0. -1.
         11    1    3    3    0    0 -0.67269392371E+01 -0.15969054184E+02 -0.16592166610E+02  0.23990881520E+02  0.51100000000E-03 0.  1.
        -11    1    3    3    0    0  0.86935334525E+01 -0.17687470184E+01 -0.17031138864E+02  0.19203272668E+02  0.51100000000E-03 0. -1.
        -12    1    3    3    0    0 -0.38222329326E+01 -0.62067575214E+01  0.81504275259E+00  0.73346846019E+01  0.00000000000E+00 0.  1.
</event>
<event>
 7    1  0.5849044E-013  0.5052886E+02  0.7816164E-02  0.1300439E+00
        -11   -1    0    0    0    0  0.00000000000E+00  0.00000000000E+00  0.45593999997E+02  0.45594000000E+02  0.51100000000E-03 0.  1.
         11   -1    0    0    0    0 -0.00000000000E+00 -0.00000000000E+00 -0.45593999997E+02  0.45594000000E+02  0.51100000000E-03 0. -1.
    9900012    2    1    2    0    0 -0.14698312921E+02  0.19174708843E+02  0.32702531627E+02  0.50528862813E+02  0.30000009008E+02 0.  0.
         12    1    1    2    0    0  0.14698312921E+02 -0.19174708843E+02 -0.32702531627E+02  0.40659137187E+02  0.00000000000E+00 0. -1.
         11    1    3    3    0    0 -0.39747905495E+01  0.39935718627E+01 -0.42628236703E+01  0.70653550541E+01  0.51100000000E-03 0. -1.
        -11    1    3    3    0    0 -0.48284694145E+01  0.12328434421E+02  0.33569915984E+02  0.36086613468E+02  0.51100000000E-03 0.  1.
         12    1    3    3    0    0 -0.58950529567E+01  0.28527025589E+01  0.33954393136E+01  0.73768942913E+01  0.00000000000E+00 0. -1.
</event>
<event>
 7    1  0.5849044E-013  0.5052886E+02  0.7816164E-02  0.1300439E+00
        -11   -1    0    0    0    0  0.00000000000E+00  0.00000000000E+00  0.45593999997E+02  0.45594000000E+02  0.51100000000E-03 0.  1.
         11   -1    0    0    0    0 -0.00000000000E+00 -0.00000000000E+00 -0.45593999997E+02  0.45594000000E+02  0.51100000000E-03 0. -1.
    9900012    2    1    2    0    0 -0.70201876432E+01  0.15922682312E+00  0.40048186657E+02  0.50528860287E+02  0.30000001327E+02 0.  0.
         12    1    1    2    0    0  0.70201876432E+01 -0.15922682312E+00 -0.40048186657E+02  0.40659139713E+02  0.00000000000E+00 0. -1.
         11    1    3    3    0    0 -0.10138296291E+02  0.53628121241E+01  0.77871890533E+01  0.13863084764E+02  0.51100000000E-03 0. -1.
        -11    1    3    3    0    0 -0.10497788707E-01 -0.20588709092E+01  0.32162937080E+02  0.32228769470E+02  0.51100000000E-03 0.  1.
         12    1    3    3    0    0  0.31286064370E+01 -0.31447143918E+01  0.98060523166E-01  0.44370060525E+01  0.00000000000E+00 0. -1.
</event>
<event>
 7    1  0.5849044E-013  0.5052886E+02  0.7816164E-02  0.1300439E+00
        -11   -1    0    0    0    0  0.00000000000E+00  0.00000000000E+00  0.45593999997E+02  0.45594000000E+02  0.51100000000E-03 0.  1.
         11   -1    0    0    0    0 -0.00000000000E+00 -0.00000000000E+00 -0.45593999997E+02  0.45594000000E+02  0.51100000000E-03 0. -1.
    9900012    2    1    2    0    0 -0.19989115067E+02 -0.29130580993E+02  0.20124869996E+02  0.50528857578E+02  0.29999993095E+02 0.  0.
         12    1    1    2    0    0  0.19989115067E+02  0.29130580993E+02 -0.20124869996E+02  0.40659142422E+02  0.00000000000E+00 0. -1.
         11    1    3    3    0    0 -0.23803352379E+01 -0.38183529405E+00  0.12596820285E+01  0.27200354980E+01  0.51100000000E-03 0. -1.
        -11    1    3    3    0    0  0.41999891867E+01 -0.17532864808E+02  0.13953800725E+02  0.22798022118E+02  0.51100000000E-03 0.  1.
        -12    1    3    3    0    0 -0.21808769015E+02 -0.11215880891E+02  0.49113872422E+01  0.25010799962E+02  0.00000000000E+00 0.  1.
</event>
<event>
 7    1  0.5849044E-013  0.5052873E+02  0.7816164E-02  0.1300439E+00
        -11   -1    0    0    0    0  0.00000000000E+00  0.00000000000E+00  0.45593999997E+02  0.45594000000E+02  0.51100000000E-03 0. -1.
         11   -1    0    0    0    0 -0.00000000000E+00 -0.00000000000E+00 -0.45593999997E+02  0.45594000000E+02  0.51100000000E-03 0.  1.
    9900012    2    1    2    0    0  0.10361083592E+02  0.34227246896E+02 -0.19347342315E+02  0.50528731218E+02  0.29999609007E+02 0.  0.
         12    1    1    2    0    0 -0.10361083592E+02 -0.34227246896E+02  0.19347342315E+02  0.40659268782E+02  0.00000000000E+00 0. -1.
         11    1    3    3    0    0  0.10131745688E+02  0.87069711948E+01  0.50839094287E+01  0.14293696282E+02  0.51100000000E-03 0. -1.
        -11    1    3    3    0    0  0.34311190670E+01  0.20622218955E+02 -0.18882763598E+02  0.28171035729E+02  0.51100000000E-03 0.  1.
         12    1    3    3    0    0 -0.32017811626E+01  0.48980567461E+01 -0.55484881460E+01  0.80639992069E+01  0.00000000000E+00 0. -1.
</event>
<event>
 7    1  0.5849044E-013  0.5052886E+02  0.7816164E-02  0.1300439E+00
        -11   -1    0    0    0    0  0.00000000000E+00  0.00000000000E+00  0.45593999997E+02  0.45594000000E+02  0.51100000000E-03 0. -1.
         11   -1    0    0    0    0 -0.00000000000E+00 -0.00000000000E+00 -0.45593999997E+02  0.45594000000E+02  0.51100000000E-03 0.  1.
    9900012    2    1    2    0    0  0.73340971185E+01 -0.23512565704E+02 -0.32350213231E+02  0.50528855608E+02  0.29999987107E+02 0.  0.
         12    1    1    2    0    0 -0.73340971185E+01  0.23512565704E+02  0.32350213231E+02  0.40659144392E+02  0.00000000000E+00 0. -1.
         11    1    3    3    0    0 -0.75079198170E+01 -0.11006727336E+02 -0.69636618146E+01  0.15033612099E+02  0.51100000000E-03 0. -1.
        -11    1    3    3    0    0  0.15203570380E+02 -0.15437904508E+02 -0.23621294972E+02  0.32053752109E+02  0.51100000000E-03 0.  1.
        -12    1    3    3    0    0 -0.36155344458E+00  0.29320661390E+01 -0.17652564449E+01  0.34414913995E+01  0.00000000000E+00 0.  1.
</event>
<event>
 7    1  0.5849044E-013  0.5052883E+02  0.7816164E-02  0.1300439E+00
        -11   -1    0    0    0    0  0.00000000000E+00  0.00000000000E+00  0.45593999997E+02  0.45594000000E+02  0.51100000000E-03 0.  1.
         11   -1    0    0    0    0 -0.00000000000E+00 -0.00000000000E+00 -0.45593999997E+02  0.45594000000E+02  0.51100000000E-03 0. -1.
    9900012    2    1    2    0    0 -0.72553815098E+01 -0.16501548997E+02  0.36444838970E+02  0.50528831690E+02  0.29999914404E+02 0.  0.
         12    1    1    2    0    0  0.72553815098E+01  0.16501548997E+02 -0.36444838970E+02  0.40659168310E+02  0.00000000000E+00 0. -1.
         11    1    3    3    0    0 -0.43979589266E+01  0.50712340091E+01  0.23379013841E+02  0.24323604699E+02  0.51100000000E-03 0. -1.
        -11    1    3    3    0    0 -0.29262193531E+01 -0.16572231851E+02  0.12895487652E+02  0.21201302561E+02  0.51100000000E-03 0.  1.
         12    1    3    3    0    0  0.68796769823E-01 -0.50005511549E+01  0.17033747654E+00  0.50039244303E+01  0.00000000000E+00 0. -1.
</event>
<event>
 7    1  0.5849044E-013  0.5052886E+02  0.7816164E-02  0.1300439E+00
        -11   -1    0    0    0    0  0.00000000000E+00  0.00000000000E+00  0.45593999997E+02  0.45594000000E+02  0.51100000000E-03 0.  1.
         11   -1    0    0    0    0 -0.00000000000E+00 -0.00000000000E+00 -0.45593999997E+02  0.45594000000E+02  0.51100000000E-03 0. -1.
    9900012    2    1    2    0    0 -0.25200506593E+02 -0.15095900569E+02  0.28110737276E+02  0.50528864535E+02  0.30000014240E+02 0.  0.
         12    1    1    2    0    0  0.25200506593E+02  0.15095900569E+02 -0.28110737276E+02  0.40659135465E+02  0.00000000000E+00 0. -1.
         11    1    3    3    0    0  0.33367387668E+01 -0.56632296431E+01  0.87679658274E+01  0.10958248975E+02  0.51100000000E-03 0. -1.
        -11    1    3    3    0    0 -0.25408528864E+02 -0.13474185786E+02  0.18955345854E+02  0.34444914840E+02  0.51100000000E-03 0.  1.
         12    1    3    3    0    0 -0.31287164963E+01  0.40415148600E+01  0.38742559504E+00  0.51257007198E+01  0.00000000000E+00 0. -1.
</event>
<event>
 7    1  0.5849044E-013  0.5052889E+02  0.7816164E-02  0.1300439E+00
        -11   -1    0    0    0    0  0.00000000000E+00  0.00000000000E+00  0.45593999997E+02  0.45594000000E+02  0.51100000000E-03 0. -1.
         11   -1    0    0    0    0 -0.00000000000E+00 -0.00000000000E+00 -0.45593999997E+02  0.45594000000E+02  0.51100000000E-03 0.  1.
    9900012    2    1    2    0    0 -0.27152001071E+02 -0.23177269735E+02 -0.19461410466E+02  0.50528886731E+02  0.30000081707E+02 0.  0.
         12    1    1    2    0    0  0.27152001071E+02  0.23177269735E+02  0.19461410466E+02  0.40659113269E+02  0.00000000000E+00 0. -1.
         11    1    3    3    0    0 -0.12042867741E+02  0.34399836069E+01  0.11201361769E+01  0.12574532037E+02  0.51100000000E-03 0. -1.
        -11    1    3    3    0    0 -0.15439450415E+02 -0.23840532183E+02 -0.16035791757E+02  0.32617391395E+02  0.51100000000E-03 0.  1.
         12    1    3    3    0    0  0.33031708473E+00 -0.27767211584E+01 -0.45457548857E+01  0.53369632984E+01  0.00000000000E+00 0. -1.
</event>
<event>
 7    1  0.5849044E-013  0.5052887E+02  0.7816164E-02  0.1300439E+00
        -11   -1    0    0    0    0  0.00000000000E+00  0.00000000000E+00  0.45593999997E+02  0.45594000000E+02  0.51100000000E-03 0.  1.
         11   -1    0    0    0    0 -0.00000000000E+00 -0.00000000000E+00 -0.45593999997E+02  0.45594000000E+02  0.51100000000E-03 0. -1.
    9900012    2    1    2    0    0 -0.20031168322E+02 -0.35139514935E+02 -0.41390836719E+01  0.50528865383E+02  0.30000016817E+02 0.  0.
         12    1    1    2    0    0  0.20031168322E+02  0.35139514935E+02  0.41390836719E+01  0.40659134617E+02  0.00000000000E+00 0. -1.
         11    1    3    3    0    0 -0.12217565973E+02 -0.20342422364E+02 -0.13913315586E+02  0.27507515642E+02  0.51100000000E-03 0. -1.
        -11    1    3    3    0    0 -0.31785789121E+01 -0.61347928950E+01  0.11133663053E+02  0.13103339308E+02  0.51100000000E-03 0.  1.
        -12    1    3    3    0    0 -0.46350234363E+01 -0.86622996760E+01 -0.13594311390E+01  0.99180104332E+01  0.00000000000E+00 0.  1.
</event>
<event>
 7    1  0.5849044E-013  0.5052886E+02  0.7816164E-02  0.1300439E+00
        -11   -1    0    0    0    0  0.00000000000E+00  0.00000000000E+00  0.45593999997E+02  0.45594000000E+02  0.51100000000E-03 0.  1.
         11   -1    0    0    0    0 -0.00000000000E+00 -0.00000000000E+00 -0.45593999997E+02  0.45594000000E+02  0.51100000000E-03 0. -1.
    9900012    2    1    2    0    0 -0.16281101714E+02 -0.88853821250E+01  0.36182063572E+02  0.50528855729E+02  0.29999987474E+02 0.  0.
         12    1    1    2    0    0  0.16281101714E+02  0.88853821250E+01 -0.36182063572E+02  0.40659144271E+02  0.00000000000E+00 0. -1.
         11    1    3    3    0    0  0.21148689118E+01  0.59258152563E+01  0.49949839036E+01  0.80335435160E+01  0.51100000000E-03 0. -1.
        -11    1    3    3    0    0 -0.82400364847E+01 -0.16619093089E+02  0.19968664175E+02  0.27255091370E+02  0.51100000000E-03 0.  1.
         12    1    3    3    0    0 -0.10155934141E+02  0.18078957082E+01  0.11218415493E+02  0.15240220843E+02  0.00000000000E+00 0. -1.
</event>
<event>
 7    1  0.5849044E-013  0.5052886E+02  0.7816164E-02  0.1300439E+00
        -11   -1    0    0    0    0  0.00000000000E+00  0.00000000000E+00  0.45593999997E+02  0.45594000000E+02  0.51100000000E-03 0.  1.
         11   -1    0    0    0    0 -0.00000000000E+00 -0.00000000000E+00 -0.45593999997E+02  0.45594000000E+02  0.51100000000E-03 0. -1.
    9900012    2    1    2    0    0  0.10036845725E+02 -0.11721459967E+01  0.39383411376E+02  0.50528864618E+02  0.30000014494E+02 0.  0.
         12    1    1    2    0    0 -0.10036845725E+02  0.11721459967E+01 -0.39383411376E+02  0.40659135382E+02  0.00000000000E+00 0. -1.
         11    1    3    3    0    0  0.53505364075E+01 -0.48452188280E-01 -0.23357757513E+01  0.58383590233E+01  0.51100000000E-03 0. -1.
        -11    1    3    3    0    0  0.38425149489E+01  0.32349175674E+01  0.39328964412E+02  0.39648418062E+02  0.51100000000E-03 0.  1.
        -12    1    3    3    0    0  0.84379436852E+00 -0.43586113759E+01  0.23902227156E+01  0.50420875332E+01  0.00000000000E+00 0.  1.
</event>
<event>
 7    1  0.5849044E-013  0.5052886E+02  0.7816164E-02  0.1300439E+00
        -11   -1    0    0    0    0  0.00000000000E+00  0.00000000000E+00  0.45593999997E+02  0.45594000000E+02  0.51100000000E-03 0.  1.
         11   -1    0    0    0    0 -0.00000000000E+00 -0.00000000000E+00 -0.45593999997E+02  0.45594000000E+02  0.51100000000E-03 0. -1.
    9900012    2    1    2    0    0 -0.78633988946E+01  0.32560493646E+02  0.23046619805E+02  0.50528862367E+02  0.30000007650E+02 0.  0.
         12    1    1    2    0    0  0.78633988946E+01 -0.32560493646E+02 -0.23046619805E+02  0.40659137633E+02  0.00000000000E+00 0. -1.
         11    1    3    3    0    0 -0.82500874708E+01  0.10493061674E+02  0.20702896389E+01  0.13507567731E+02  0.51100000000E-03 0. -1.
        -11    1    3    3    0    0  0.10553283782E+02  0.85442582670E+01  0.89130908589E+01  0.16242516333E+02  0.51100000000E-03 0.  1.
        -12    1    3    3    0    0 -0.10166595206E+02  0.13523173705E+02  0.12063239307E+02  0.20778778302E+02  0.00000000000E+00 0.  1.
</event>
<event>
 7    1  0.5849044E-013  0.5052885E+02  0.7816164E-02  0.1300439E+00
        -11   -1    0    0    0    0  0.00000000000E+00  0.00000000000E+00  0.45593999997E+02  0.45594000000E+02  0.51100000000E-03 0.  1.
         11   -1    0    0    0    0 -0.00000000000E+00 -0.00000000000E+00 -0.45593999997E+02  0.45594000000E+02  0.51100000000E-03 0. -1.
    9900012    2    1    2    0    0  0.20682846845E+02  0.96454694699E+01  0.33650421788E+02  0.50528854394E+02  0.29999983415E+02 0.  0.
         12    1    1    2    0    0 -0.20682846845E+02 -0.96454694699E+01 -0.33650421788E+02  0.40659145606E+02  0.00000000000E+00 0. -1.
         11    1    3    3    0    0  0.28710146885E+01  0.10760241471E+02  0.20220072980E+02  0.23084126006E+02  0.51100000000E-03 0. -1.
        -11    1    3    3    0    0  0.11700247265E+02 -0.29962287566E+01  0.16421769742E+02  0.20384986989E+02  0.51100000000E-03 0.  1.
         12    1    3    3    0    0  0.61115848923E+01  0.18814567560E+01 -0.29914209342E+01  0.70597413994E+01  0.00000000000E+00 0. -1.
</event>
<event>
 7    1  0.5849044E-013  0.5052886E+02  0.7816164E-02  0.1300439E+00
        -11   -1    0    0    0    0  0.00000000000E+00  0.00000000000E+00  0.45593999997E+02  0.45594000000E+02  0.51100000000E-03 0. -1.
         11   -1    0    0    0    0 -0.00000000000E+00 -0.00000000000E+00 -0.45593999997E+02  0.45594000000E+02  0.51100000000E-03 0.  1.
    9900012    2    1    2    0    0 -0.14830209605E+02 -0.20180632063E+02 -0.32030808257E+02  0.50528859515E+02  0.29999998982E+02 0.  0.
         12    1    1    2    0    0  0.14830209605E+02  0.20180632063E+02  0.32030808257E+02  0.40659140485E+02  0.00000000000E+00 0. -1.
         11    1    3    3    0    0 -0.19717650167E+01 -0.10232711643E+01  0.35778165916E+01  0.42113789881E+01  0.51100000000E-03 0. -1.
        -11    1    3    3    0    0 -0.17244188975E+02 -0.13457614618E+02 -0.30336824925E+02  0.37400433037E+02  0.51100000000E-03 0.  1.
        -12    1    3    3    0    0  0.43857443869E+01 -0.56997462816E+01 -0.52717999236E+01  0.89170474899E+01  0.00000000000E+00 0.  1.
</event>
<event>
 7    1  0.5849044E-013  0.5052886E+02  0.7816164E-02  0.1300439E+00
        -11   -1    0    0    0    0  0.00000000000E+00  0.00000000000E+00  0.45593999997E+02  0.45594000000E+02  0.51100000000E-03 0.  1.
         11   -1    0    0    0    0 -0.00000000000E+00 -0.00000000000E+00 -0.45593999997E+02  0.45594000000E+02  0.51100000000E-03 0. -1.
    9900012    2    1    2    0    0  0.89121969680E+01  0.39568824391E+02 -0.28366251056E+01  0.50528861292E+02  0.30000004383E+02 0.  0.
         12    1    1    2    0    0 -0.89121969680E+01 -0.39568824391E+02  0.28366251056E+01  0.40659138708E+02  0.00000000000E+00 0. -1.
         11    1    3    3    0    0  0.29366919622E+01 -0.19386468157E+01  0.20885166748E+00  0.35250716925E+01  0.51100000000E-03 0. -1.
        -11    1    3    3    0    0  0.81641253739E+01  0.39276981219E+02  0.29687167620E+01  0.40226203851E+02  0.51100000000E-03 0.  1.
        -12    1    3    3    0    0 -0.21886203681E+01  0.22304899879E+01 -0.60141935350E+01  0.67775857485E+01  0.00000000000E+00 0.  1.
</event>
<event>
 7    1  0.5849044E-013  0.5052886E+02  0.7816164E-02  0.1300439E+00
        -11   -1    0    0    0    0  0.00000000000E+00  0.00000000000E+00  0.45593999997E+02  0.45594000000E+02  0.51100000000E-03 0. -1.
         11   -1    0    0    0    0 -0.00000000000E+00 -0.00000000000E+00 -0.45593999997E+02  0.45594000000E+02  0.51100000000E-03 0.  1.
    9900012    2    1    2    0    0  0.33772916379E+02 -0.22314909746E+02  0.38210414889E+01  0.50528862825E+02  0.30000009043E+02 0.  0.
         12    1    1    2    0    0 -0.33772916379E+02  0.22314909746E+02 -0.38210414889E+01  0.40659137175E+02  0.00000000000E+00 0. -1.
         11    1    3    3    0    0 -0.33405717813E+01  0.19056579196E+01 -0.79210647082E+00  0.39266251228E+01  0.51100000000E-03 0. -1.
        -11    1    3    3    0    0  0.23666533204E+02 -0.22358443457E+02  0.54075755148E+01  0.33003737075E+02  0.51100000000E-03 0.  1.
         12    1    3    3    0    0  0.13446954957E+02 -0.18621242093E+01 -0.79442755507E+00  0.13598500628E+02  0.00000000000E+00 0. -1.
</event>
<event>
 7    1  0.5849044E-013  0.5052892E+02  0.7816164E-02  0.1300439E+00
        -11   -1    0    0    0    0  0.00000000000E+00  0.00000000000E+00  0.45593999997E+02  0.45594000000E+02  0.51100000000E-03 0.  1.
         11   -1    0    0    0    0 -0.00000000000E+00 -0.00000000000E+00 -0.45593999997E+02  0.45594000000E+02  0.51100000000E-03 0. -1.
    9900012    2    1    2    0    0 -0.40159112372E+02  0.59461589768E+00 -0.63287264907E+01  0.50528921634E+02  0.30000187800E+02 0.  0.
         12    1    1    2    0    0  0.40159112372E+02 -0.59461589768E+00  0.63287264907E+01  0.40659078366E+02  0.00000000000E+00 0. -1.
         11    1    3    3    0    0  0.15436104419E+01  0.49472928138E+00  0.13455840690E+01  0.21066767683E+01  0.51100000000E-03 0. -1.
        -11    1    3    3    0    0 -0.42336483402E+02  0.51097172538E+01 -0.58022594195E+01  0.43036650101E+02  0.51100000000E-03 0.  1.
        -12    1    3    3    0    0  0.63376058898E+00 -0.50098306375E+01 -0.18720511403E+01  0.53855947650E+01  0.00000000000E+00 0.  1.
</event>
<event>
 7    1  0.5849044E-013  0.5052886E+02  0.7816164E-02  0.1300439E+00
        -11   -1    0    0    0    0  0.00000000000E+00  0.00000000000E+00  0.45593999997E+02  0.45594000000E+02  0.51100000000E-03 0. -1.
         11   -1    0    0    0    0 -0.00000000000E+00 -0.00000000000E+00 -0.45593999997E+02  0.45594000000E+02  0.51100000000E-03 0.  1.
    9900012    2    1    2    0    0 -0.81158676340E+01  0.39543095587E+02  0.48622689229E+01  0.50528863571E+02  0.30000011310E+02 0.  0.
         12    1    1    2    0    0  0.81158676340E+01 -0.39543095587E+02 -0.48622689229E+01  0.40659136429E+02  0.00000000000E+00 0. -1.
         11    1    3    3    0    0  0.37326571197E+01  0.16889854474E+02 -0.10306003628E+01  0.17328071176E+02  0.51100000000E-03 0. -1.
        -11    1    3    3    0    0 -0.15276257786E+02  0.16217348996E+02  0.10443492019E+02  0.24605547875E+02  0.51100000000E-03 0.  1.
        -12    1    3    3    0    0  0.34277330324E+01  0.64358921174E+01 -0.45506227335E+01  0.85952445196E+01  0.00000000000E+00 0.  1.
</event>
<event>
 7    1  0.5849044E-013  0.5052887E+02  0.7816164E-02  0.1300439E+00
        -11   -1    0    0    0    0  0.00000000000E+00  0.00000000000E+00  0.45593999997E+02  0.45594000000E+02  0.51100000000E-03 0. -1.
         11   -1    0    0    0    0 -0.00000000000E+00 -0.00000000000E+00 -0.45593999997E+02  0.45594000000E+02  0.51100000000E-03 0.  1.
    9900012    2    1    2    0    0  0.99803434697E+01 -0.39361636890E+02  0.20541460726E+01  0.50528865350E+02  0.30000016717E+02 0.  0.
         12    1    1    2    0    0 -0.99803434697E+01  0.39361636890E+02 -0.20541460726E+01  0.40659134650E+02  0.00000000000E+00 0. -1.
         11    1    3    3    0    0  0.45243897886E+01 -0.25779553599E+02 -0.86303450741E+01  0.27559723204E+02  0.51100000000E-03 0.  1.
        -11    1    3    3    0    0  0.96709811265E+00 -0.13726983528E+02  0.12032858634E+02  0.18279908170E+02  0.51100000000E-03 0. -1.
        -12    1    3    3    0    0  0.44888555685E+01  0.14490023748E+00 -0.13483674873E+01  0.46892339753E+01  0.00000000000E+00 0.  1.
</event>
<event>
 7    1  0.5849044E-013  0.5052883E+02  0.7816164E-02  0.1300439E+00
        -11   -1    0    0    0    0  0.00000000000E+00  0.00000000000E+00  0.45593999997E+02  0.45594000000E+02  0.51100000000E-03 0.  1.
         11   -1    0    0    0    0 -0.00000000000E+00 -0.00000000000E+00 -0.45593999997E+02  0.45594000000E+02  0.51100000000E-03 0. -1.
    9900012    2    1    2    0    0 -0.87883576480E+01  0.32278474320E+00  0.39696710039E+02  0.50528828734E+02  0.29999905420E+02 0.  0.
         12    1    1    2    0    0  0.87883576480E+01 -0.32278474320E+00 -0.39696710039E+02  0.40659171266E+02  0.00000000000E+00 0. -1.
         11    1    3    3    0    0 -0.60252197420E+01  0.29514834806E+01  0.70074563185E+01  0.97014932867E+01  0.51100000000E-03 0.  1.
        -11    1    3    3    0    0  0.84054511127E+01 -0.17792522036E+01  0.30081327778E+01  0.91030879311E+01  0.51100000000E-03 0. -1.
        -12    1    3    3    0    0 -0.11168589019E+02 -0.84944653377E+00  0.29681120942E+02  0.31724247516E+02  0.00000000000E+00 0.  1.
</event>
<event>
 7    1  0.5849044E-013  0.5052886E+02  0.7816164E-02  0.1300439E+00
        -11   -1    0    0    0    0  0.00000000000E+00  0.00000000000E+00  0.45593999997E+02  0.45594000000E+02  0.51100000000E-03 0.  1.
         11   -1    0    0    0    0 -0.00000000000E+00 -0.00000000000E+00 -0.45593999997E+02  0.45594000000E+02  0.51100000000E-03 0. -1.
    9900012    2    1    2    0    0  0.34126939532E+02 -0.10410533680E+02  0.19497147772E+02  0.50528856077E+02  0.29999988532E+02 0.  0.
         12    1    1    2    0    0 -0.34126939532E+02  0.10410533680E+02 -0.19497147772E+02  0.40659143923E+02  0.00000000000E+00 0. -1.
         11    1    3    3    0    0  0.10017486779E+01 -0.17064709309E+01 -0.47239832679E+01  0.51216756660E+01  0.51100000000E-03 0. -1.
        -11    1    3    3    0    0  0.26568470652E+02  0.18628585624E+00  0.12708925537E+02  0.29452251591E+02  0.51100000000E-03 0.  1.
        -12    1    3    3    0    0  0.65567202017E+01 -0.88903486049E+01  0.11512205503E+02  0.15954928820E+02  0.00000000000E+00 0.  1.
</event>
<event>
 7    1  0.5849044E-013  0.5052885E+02  0.7816164E-02  0.1300439E+00
        -11   -1    0    0    0    0  0.00000000000E+00  0.00000000000E+00  0.45593999997E+02  0.45594000000E+02  0.51100000000E-03 0.  1.
         11   -1    0    0    0    0 -0.00000000000E+00 -0.00000000000E+00 -0.45593999997E+02  0.45594000000E+02  0.51100000000E-03 0. -1.
    9900012    2    1    2    0    0 -0.34395438186E+02  0.92395545184E+01  0.19615059927E+02  0.50528854514E+02  0.29999983781E+02 0.  0.
         12    1    1    2    0    0  0.34395438186E+02 -0.92395545184E+01 -0.19615059927E+02  0.40659145486E+02  0.00000000000E+00 0. -1.
         11    1    3    3    0    0  0.14120918558E+01 -0.24812300855E+01  0.10372501815E+02  0.10758220127E+02  0.51100000000E-03 0. -1.
        -11    1    3    3    0    0 -0.23576544983E+02  0.40938388732E+01  0.82916230150E+01  0.25325165400E+02  0.51100000000E-03 0.  1.
         12    1    3    3    0    0 -0.12230985059E+02  0.76269457307E+01  0.95093509705E+00  0.14445468987E+02  0.00000000000E+00 0. -1.
</event>
<event>
 7    1  0.5849044E-013  0.5052886E+02  0.7816164E-02  0.1300439E+00
        -11   -1    0    0    0    0  0.00000000000E+00  0.00000000000E+00  0.45593999997E+02  0.45594000000E+02  0.51100000000E-03 0.  1.
         11   -1    0    0    0    0 -0.00000000000E+00 -0.00000000000E+00 -0.45593999997E+02  0.45594000000E+02  0.51100000000E-03 0. -1.
    9900012    2    1    2    0    0 -0.21848614060E+02 -0.34173971784E+02  0.28184262409E+01  0.50528858219E+02  0.29999995044E+02 0.  0.
         12    1    1    2    0    0  0.21848614060E+02  0.34173971784E+02 -0.28184262409E+01  0.40659141781E+02  0.00000000000E+00 0. -1.
         11    1    3    3    0    0 -0.14829037789E+00 -0.73197854861E+01 -0.58458622349E+01  0.93688502566E+01  0.51100000000E-03 0. -1.
        -11    1    3    3    0    0 -0.69659729003E+01  0.44001090067E+00  0.73187995641E+01  0.10113516469E+02  0.51100000000E-03 0.  1.
        -12    1    3    3    0    0 -0.14734350782E+02 -0.27294197199E+02  0.13454889117E+01  0.31046491494E+02  0.00000000000E+00 0.  1.
</event>
<event>
 7    1  0.5849044E-013  0.5052886E+02  0.7816164E-02  0.1300439E+00
        -11   -1    0    0    0    0  0.00000000000E+00  0.00000000000E+00  0.45593999997E+02  0.45594000000E+02  0.51100000000E-03 0.  1.
         11   -1    0    0    0    0 -0.00000000000E+00 -0.00000000000E+00 -0.45593999997E+02  0.45594000000E+02  0.51100000000E-03 0. -1.
    9900012    2    1    2    0    0  0.11568317658E+01  0.33836011646E+02  0.22515586398E+02  0.50528861117E+02  0.30000003853E+02 0.  0.
         12    1    1    2    0    0 -0.11568317658E+01 -0.33836011646E+02 -0.22515586398E+02  0.40659138883E+02  0.00000000000E+00 0. -1.
         11    1    3    3    0    0 -0.30382429361E+01  0.33845622704E+02  0.99867031249E+01  0.35418799188E+02  0.51100000000E-03 0.  1.
        -11    1    3    3    0    0  0.24174738360E+00  0.24012429837E+01  0.89161545189E+01  0.92370028326E+01  0.51100000000E-03 0. -1.
         12    1    3    3    0    0  0.39533273183E+01 -0.24108540423E+01  0.36127287544E+01  0.58730590966E+01  0.00000000000E+00 0. -1.
</event>
<event>
 7    1  0.5849044E-013  0.5052885E+02  0.7816164E-02  0.1300439E+00
        -11   -1    0    0    0    0  0.00000000000E+00  0.00000000000E+00  0.45593999997E+02  0.45594000000E+02  0.51100000000E-03 0.  1.
         11   -1    0    0    0    0 -0.00000000000E+00 -0.00000000000E+00 -0.45593999997E+02  0.45594000000E+02  0.51100000000E-03 0. -1.
    9900012    2    1    2    0    0  0.32570929559E+02 -0.46563424506E+01  0.23887643043E+02  0.50528850138E+02  0.29999970479E+02 0.  0.
         12    1    1    2    0    0 -0.32570929559E+02  0.46563424506E+01 -0.23887643043E+02  0.40659149862E+02  0.00000000000E+00 0. -1.
         11    1    3    3    0    0 -0.81507235153E+00 -0.87832115574E+01  0.10083350838E+02  0.13397130759E+02  0.51100000000E-03 0. -1.
        -11    1    3    3    0    0  0.33368920431E+02  0.42894410212E+01  0.12614303180E+02  0.35930555242E+02  0.51100000000E-03 0.  1.
        -12    1    3    3    0    0  0.17081479547E-01 -0.16257191435E+00  0.11899890247E+01  0.12011641367E+01  0.00000000000E+00 0.  1.
</event>
<event>
 7    1  0.5849044E-013  0.5052886E+02  0.7816164E-02  0.1300439E+00
        -11   -1    0    0    0    0  0.00000000000E+00  0.00000000000E+00  0.45593999997E+02  0.45594000000E+02  0.51100000000E-03 0. -1.
         11   -1    0    0    0    0 -0.00000000000E+00 -0.00000000000E+00 -0.45593999997E+02  0.45594000000E+02  0.51100000000E-03 0.  1.
    9900012    2    1    2    0    0 -0.35585423998E+02 -0.18236376115E+01 -0.19583600554E+02  0.50528862455E+02  0.30000007918E+02 0.  0.
         12    1    1    2    0    0  0.35585423998E+02  0.18236376115E+01  0.19583600554E+02  0.40659137545E+02  0.00000000000E+00 0. -1.
         11    1    3    3    0    0 -0.11268251293E+02  0.85250642977E+01 -0.30700891179E+01  0.14459448673E+02  0.51100000000E-03 0. -1.
        -11    1    3    3    0    0 -0.26706790862E+02 -0.67515027830E+01 -0.15592292640E+02  0.31653673689E+02  0.51100000000E-03 0.  1.
        -12    1    3    3    0    0  0.23896181574E+01 -0.35971991262E+01 -0.92121879608E+00  0.44157400922E+01  0.00000000000E+00 0.  1.
</event>
<event>
 7    1  0.5849044E-013  0.5052886E+02  0.7816164E-02  0.1300439E+00
        -11   -1    0    0    0    0  0.00000000000E+00  0.00000000000E+00  0.45593999997E+02  0.45594000000E+02  0.51100000000E-03 0.  1.
         11   -1    0    0    0    0 -0.00000000000E+00 -0.00000000000E+00 -0.45593999997E+02  0.45594000000E+02  0.51100000000E-03 0. -1.
    9900012    2    1    2    0    0 -0.29850684802E+00  0.15864510861E+02  0.37435190113E+02  0.50528864864E+02  0.30000015242E+02 0.  0.
         12    1    1    2    0    0  0.29850684802E+00 -0.15864510861E+02 -0.37435190113E+02  0.40659135136E+02  0.00000000000E+00 0. -1.
         11    1    3    3    0    0  0.28055067458E+01  0.90316914323E+00  0.95662614974E+01  0.10009992103E+02  0.51100000000E-03 0. -1.
        -11    1    3    3    0    0  0.36814487942E+01  0.12778726223E+02  0.17120594845E+01  0.13408208569E+02  0.51100000000E-03 0.  1.
        -12    1    3    3    0    0 -0.67854623880E+01  0.21826154949E+01  0.26156869131E+02  0.27110664192E+02  0.00000000000E+00 0.  1.
</event>
<event>
 7    1  0.5849044E-013  0.5052890E+02  0.7816164E-02  0.1300439E+00
        -11   -1    0    0    0    0  0.00000000000E+00  0.00000000000E+00  0.45593999997E+02  0.45594000000E+02  0.51100000000E-03 0.  1.
         11   -1    0    0    0    0 -0.00000000000E+00 -0.00000000000E+00 -0.45593999997E+02  0.45594000000E+02  0.51100000000E-03 0. -1.
    9900012    2    1    2    0    0 -0.19293879012E+02 -0.18851679626E+02  0.30422405061E+02  0.50528901120E+02  0.30000125444E+02 0.  0.
         12    1    1    2    0    0  0.19293879012E+02  0.18851679626E+02 -0.30422405061E+02  0.40659098880E+02  0.00000000000E+00 0. -1.
         11    1    3    3    0    0 -0.10106597823E+02 -0.12380668520E+01  0.42088569304E+00  0.10190842659E+02  0.51100000000E-03 0. -1.
        -11    1    3    3    0    0  0.54067967342E+01 -0.73369201479E+01  0.99804721203E+01  0.13515682454E+02  0.51100000000E-03 0.  1.
        -12    1    3    3    0    0 -0.14594077923E+02 -0.10276692626E+02  0.20021047248E+02  0.26822376007E+02  0.00000000000E+00 0.  1.
</event>
<event>
 7    1  0.5849044E-013  0.5052887E+02  0.7816164E-02  0.1300439E+00
        -11   -1    0    0    0    0  0.00000000000E+00  0.00000000000E+00  0.45593999997E+02  0.45594000000E+02  0.51100000000E-03 0.  1.
         11   -1    0    0    0    0 -0.00000000000E+00 -0.00000000000E+00 -0.45593999997E+02  0.45594000000E+02  0.51100000000E-03 0. -1.
    9900012    2    1    2    0    0 -0.23459680391E+02 -0.27622205987E+02  0.18434251638E+02  0.50528874320E+02  0.30000043983E+02 0.  0.
         12    1    1    2    0    0  0.23459680391E+02  0.27622205987E+02 -0.18434251638E+02  0.40659125680E+02  0.00000000000E+00 0. -1.
         11    1    3    3    0    0 -0.97279341243E+01 -0.90821571474E+00  0.14536122302E+02  0.17514462879E+02  0.51100000000E-03 0. -1.
        -11    1    3    3    0    0 -0.14133248422E+02 -0.19869210961E+02  0.71725336680E+01  0.25416126665E+02  0.51100000000E-03 0.  1.
         12    1    3    3    0    0  0.40150215605E+00 -0.68447793108E+01 -0.32744043321E+01  0.75982847752E+01  0.00000000000E+00 0. -1.
</event>
<event>
 7    1  0.5849044E-013  0.5052883E+02  0.7816164E-02  0.1300439E+00
        -11   -1    0    0    0    0  0.00000000000E+00  0.00000000000E+00  0.45593999997E+02  0.45594000000E+02  0.51100000000E-03 0.  1.
         11   -1    0    0    0    0 -0.00000000000E+00 -0.00000000000E+00 -0.45593999997E+02  0.45594000000E+02  0.51100000000E-03 0. -1.
    9900012    2    1    2    0    0  0.12095440280E+02 -0.29755788586E+02  0.24929131602E+02  0.50528828435E+02  0.29999904511E+02 0.  0.
         12    1    1    2    0    0 -0.12095440280E+02  0.29755788586E+02 -0.24929131602E+02  0.40659171565E+02  0.00000000000E+00 0. -1.
         11    1    3    3    0    0  0.14492414013E+02 -0.35863402055E+01  0.61054653177E+01  0.16129742930E+02  0.51100000000E-03 0. -1.
        -11    1    3    3    0    0  0.44099961819E+01 -0.14061863240E+02  0.78507056230E+01  0.16697833487E+02  0.51100000000E-03 0.  1.
         12    1    3    3    0    0 -0.68069699143E+01 -0.12107585140E+02  0.10972960661E+02  0.17701252018E+02  0.00000000000E+00 0. -1.
</event>
<event>
 7    1  0.5849044E-013  0.5052886E+02  0.7816164E-02  0.1300439E+00
        -11   -1    0    0    0    0  0.00000000000E+00  0.00000000000E+00  0.45593999997E+02  0.45594000000E+02  0.51100000000E-03 0.  1.
         11   -1    0    0    0    0 -0.00000000000E+00 -0.00000000000E+00 -0.45593999997E+02  0.45594000000E+02  0.51100000000E-03 0. -1.
    9900012    2    1    2    0    0 -0.78041428011E+01 -0.28135545159E+00  0.39902157024E+02  0.50528856614E+02  0.29999990163E+02 0.  0.
         12    1    1    2    0    0  0.78041428011E+01  0.28135545159E+00 -0.39902157024E+02  0.40659143386E+02  0.00000000000E+00 0. -1.
         11    1    3    3    0    0 -0.12035108987E+01 -0.10445407562E+01 -0.31493091941E+01  0.35295399893E+01  0.51100000000E-03 0. -1.
        -11    1    3    3    0    0  0.16546688846E+01  0.14383436067E+01  0.36154497937E+02  0.36220912231E+02  0.51100000000E-03 0.  1.
        -12    1    3    3    0    0 -0.82553007870E+01 -0.67515830209E+00  0.68969682805E+01  0.10778404394E+02  0.00000000000E+00 0.  1.
</event>
<event>
 7    1  0.5849044E-013  0.5052886E+02  0.7816164E-02  0.1300439E+00
        -11   -1    0    0    0    0  0.00000000000E+00  0.00000000000E+00  0.45593999997E+02  0.45594000000E+02  0.51100000000E-03 0. -1.
         11   -1    0    0    0    0 -0.00000000000E+00 -0.00000000000E+00 -0.45593999997E+02  0.45594000000E+02  0.51100000000E-03 0.  1.
    9900012    2    1    2    0    0  0.10498008533E+02  0.11784543965E+02 -0.37471084292E+02  0.50528858130E+02  0.29999994771E+02 0.  0.
         12    1    1    2    0    0 -0.10498008533E+02 -0.11784543965E+02  0.37471084292E+02  0.40659141870E+02  0.00000000000E+00 0. -1.
         11    1    3    3    0    0  0.13042780277E+01 -0.30734511133E+01 -0.75309660203E+01  0.82378815468E+01  0.51100000000E-03 0. -1.
        -11    1    3    3    0    0  0.57216938376E+01  0.17387841341E+02 -0.80735772695E+01  0.20006435391E+02  0.51100000000E-03 0.  1.
        -12    1    3    3    0    0  0.34720366681E+01 -0.25298462626E+01 -0.21866541002E+02  0.22284541192E+02  0.00000000000E+00 0.  1.
</event>
<event>
 7    1  0.5849044E-013  0.5052886E+02  0.7816164E-02  0.1300439E+00
        -11   -1    0    0    0    0  0.00000000000E+00  0.00000000000E+00  0.45593999997E+02  0.45594000000E+02  0.51100000000E-03 0.  1.
         11   -1    0    0    0    0 -0.00000000000E+00 -0.00000000000E+00 -0.45593999997E+02  0.45594000000E+02  0.51100000000E-03 0. -1.
    9900012    2    1    2    0    0  0.11458955167E+02  0.33136081852E+02  0.20587818571E+02  0.50528857762E+02  0.29999993654E+02 0.  0.
         12    1    1    2    0    0 -0.11458955167E+02 -0.33136081852E+02 -0.20587818571E+02  0.40659142238E+02  0.00000000000E+00 0. -1.
         11    1    3    3    0    0 -0.45605158968E+01  0.89593120346E+00  0.50348450499E+01  0.68520553780E+01  0.51100000000E-03 0. -1.
        -11    1    3    3    0    0  0.18441451179E+02  0.32404596639E+02  0.11617190342E+02  0.39052581434E+02  0.51100000000E-03 0.  1.
        -12    1    3    3    0    0 -0.24219801158E+01 -0.16444599051E+00  0.39357831792E+01  0.46242209505E+01  0.00000000000E+00 0.  1.
</event>
<event>
 7    1  0.5849044E-013  0.5052885E+02  0.7816164E-02  0.1300439E+00
        -11   -1    0    0    0    0  0.00000000000E+00  0.00000000000E+00  0.45593999997E+02  0.45594000000E+02  0.51100000000E-03 0.  1.
         11   -1    0    0    0    0 -0.00000000000E+00 -0.00000000000E+00 -0.45593999997E+02  0.45594000000E+02  0.51100000000E-03 0. -1.
    9900012    2    1    2    0    0  0.20502537844E+02 -0.73677668748E+01  0.34329698339E+02  0.50528852999E+02  0.29999979176E+02 0.  0.
         12    1    1    2    0    0 -0.20502537844E+02  0.73677668748E+01 -0.34329698339E+02  0.40659147001E+02  0.00000000000E+00 0. -1.
         11    1    3    3    0    0 -0.62725431886E+01 -0.36625243796E+01  0.86577112692E+00  0.73149465336E+01  0.51100000000E-03 0. -1.
        -11    1    3    3    0    0  0.19740771988E+02 -0.18238256353E+01  0.26858529710E+02  0.33382705658E+02  0.51100000000E-03 0.  1.
         12    1    3    3    0    0  0.70343090454E+01 -0.18814168599E+01  0.66053975030E+01  0.98312008076E+01  0.00000000000E+00 0. -1.
</event>
<event>
 7    1  0.5849044E-013  0.5052886E+02  0.7816164E-02  0.1300439E+00
        -11   -1    0    0    0    0  0.00000000000E+00  0.00000000000E+00  0.45593999997E+02  0.45594000000E+02  0.51100000000E-03 0.  1.
         11   -1    0    0    0    0 -0.00000000000E+00 -0.00000000000E+00 -0.45593999997E+02  0.45594000000E+02  0.51100000000E-03 0. -1.
    9900012    2    1    2    0    0 -0.47501830976E+01 -0.74294547554E+01  0.39691370728E+02  0.50528856531E+02  0.29999989910E+02 0.  0.
         12    1    1    2    0    0  0.47501830976E+01  0.74294547554E+01 -0.39691370728E+02  0.40659143469E+02  0.00000000000E+00 0. -1.
         11    1    3    3    0    0  0.12629550505E+01  0.31417381587E+01 -0.11492504781E+01  0.35758007551E+01  0.51100000000E-03 0. -1.
        -11    1    3    3    0    0  0.46808002723E+01 -0.10065205724E+02  0.28669403990E+02  0.30743340464E+02  0.51100000000E-03 0.  1.
        -12    1    3    3    0    0 -0.10693938420E+02 -0.50598718969E+00  0.12171217216E+02  0.16209715312E+02  0.00000000000E+00 0.  1.
</event>
<event>
 7    1  0.5849044E-013  0.5052886E+02  0.7816164E-02  0.1300439E+00
        -11   -1    0    0    0    0  0.00000000000E+00  0.00000000000E+00  0.45593999997E+02  0.45594000000E+02  0.51100000000E-03 0.  1.
         11   -1    0    0    0    0 -0.00000000000E+00 -0.00000000000E+00 -0.45593999997E+02  0.45594000000E+02  0.51100000000E-03 0. -1.
    9900012    2    1    2    0    0  0.39560505263E+02 -0.75465718337E+01  0.55840410964E+01  0.50528857878E+02  0.29999994007E+02 0.  0.
         12    1    1    2    0    0 -0.39560505263E+02  0.75465718337E+01 -0.55840410964E+01  0.40659142122E+02  0.00000000000E+00 0. -1.
         11    1    3    3    0    0 -0.27487505355E+01 -0.21329749177E+01  0.38648197686E+01  0.52001964973E+01  0.51100000000E-03 0. -1.
        -11    1    3    3    0    0  0.29936898762E+02 -0.10453609290E+02  0.32778477224E+01  0.31878521620E+02  0.51100000000E-03 0.  1.
        -12    1    3    3    0    0  0.12372357036E+02  0.50400123742E+01 -0.15586263946E+01  0.13450139761E+02  0.00000000000E+00 0.  1.
</event>
<event>
 7    1  0.5849044E-013  0.5052886E+02  0.7816164E-02  0.1300439E+00
        -11   -1    0    0    0    0  0.00000000000E+00  0.00000000000E+00  0.45593999997E+02  0.45594000000E+02  0.51100000000E-03 0.  1.
         11   -1    0    0    0    0 -0.00000000000E+00 -0.00000000000E+00 -0.45593999997E+02  0.45594000000E+02  0.51100000000E-03 0. -1.
    9900012    2    1    2    0    0  0.31999581675E+02  0.59514439823E+01  0.24367456703E+02  0.50528857620E+02  0.29999993223E+02 0.  0.
         12    1    1    2    0    0 -0.31999581675E+02 -0.59514439823E+01 -0.24367456703E+02  0.40659142380E+02  0.00000000000E+00 0. -1.
         11    1    3    3    0    0  0.87057895454E+01 -0.93623083323E+01 -0.45560295291E+00  0.12792621437E+02  0.51100000000E-03 0. -1.
        -11    1    3    3    0    0  0.21510614891E+02  0.11934591516E+02  0.21327802284E+02  0.32557889646E+02  0.51100000000E-03 0.  1.
         12    1    3    3    0    0  0.17831772389E+01  0.33791607990E+01  0.34952573717E+01  0.51783465378E+01  0.00000000000E+00 0. -1.
</event>
<event>
 7    1  0.5849044E-013  0.5052886E+02  0.7816164E-02  0.1300439E+00
        -11   -1    0    0    0    0  0.00000000000E+00  0.00000000000E+00  0.45593999997E+02  0.45594000000E+02  0.51100000000E-03 0. -1.
         11   -1    0    0    0    0 -0.00000000000E+00 -0.00000000000E+00 -0.45593999997E+02  0.45594000000E+02  0.51100000000E-03 0.  1.
    9900012    2    1    2    0    0  0.30473084857E+02  0.17967150685E+02 -0.20043405631E+02  0.50528861866E+02  0.30000006129E+02 0.  0.
         12    1    1    2    0    0 -0.30473084857E+02 -0.17967150685E+02  0.20043405631E+02  0.40659138134E+02  0.00000000000E+00 0. -1.
         11    1    3    3    0    0 -0.51448177955E+01  0.40421160012E+01 -0.26561831148E+00  0.65481604489E+01  0.51100000000E-03 0. -1.
        -11    1    3    3    0    0  0.61164256398E+01  0.43651977914E+01 -0.75300649771E+01  0.10638021112E+02  0.51100000000E-03 0.  1.
         12    1    3    3    0    0  0.29501477013E+02  0.95598368926E+01 -0.12247722342E+02  0.33342680305E+02  0.00000000000E+00 0. -1.
</event>
<event>
 7    1  0.5849044E-013  0.5052886E+02  0.7816164E-02  0.1300439E+00
        -11   -1    0    0    0    0  0.00000000000E+00  0.00000000000E+00  0.45593999997E+02  0.45594000000E+02  0.51100000000E-03 0. -1.
         11   -1    0    0    0    0 -0.00000000000E+00 -0.00000000000E+00 -0.45593999997E+02  0.45594000000E+02  0.51100000000E-03 0.  1.
    9900012    2    1    2    0    0 -0.39060989207E+02  0.10685348418E+02 -0.36370130623E+01  0.50528863110E+02  0.30000009908E+02 0.  0.
         12    1    1    2    0    0  0.39060989207E+02 -0.10685348418E+02  0.36370130623E+01  0.40659136890E+02  0.00000000000E+00 0. -1.
         11    1    3    3    0    0 -0.12134912314E+02 -0.11916939555E+01  0.57561189333E+01  0.13483661846E+02  0.51100000000E-03 0. -1.
        -11    1    3    3    0    0 -0.26533636923E+01  0.80463642059E+01 -0.91508725397E+01  0.12470877448E+02  0.51100000000E-03 0.  1.
        -12    1    3    3    0    0 -0.24272713201E+02  0.38306781675E+01 -0.24225945595E+00  0.24574323816E+02  0.00000000000E+00 0.  1.
</event>
<event>
 7    1  0.5849044E-013  0.5052886E+02  0.7816164E-02  0.1300439E+00
        -11   -1    0    0    0    0  0.00000000000E+00  0.00000000000E+00  0.45593999997E+02  0.45594000000E+02  0.51100000000E-03 0.  1.
         11   -1    0    0    0    0 -0.00000000000E+00 -0.00000000000E+00 -0.45593999997E+02  0.45594000000E+02  0.51100000000E-03 0. -1.
    9900012    2    1    2    0    0  0.23205309818E+02  0.27111092828E+02  0.19485076943E+02  0.50528856114E+02  0.29999988645E+02 0.  0.
         12    1    1    2    0    0 -0.23205309818E+02 -0.27111092828E+02 -0.19485076943E+02  0.40659143886E+02  0.00000000000E+00 0. -1.
         11    1    3    3    0    0 -0.29166675095E+01  0.13609876587E+02  0.30983088993E+01  0.14259565504E+02  0.51100000000E-03 0. -1.
        -11    1    3    3    0    0  0.11399487684E+02 -0.93960658962E+00  0.82344133971E+01  0.14093854840E+02  0.51100000000E-03 0.  1.
        -12    1    3    3    0    0  0.14722489643E+02  0.14440822830E+02  0.81523546464E+01  0.22175435770E+02  0.00000000000E+00 0.  1.
</event>
<event>
 7    1  0.5849044E-013  0.5052887E+02  0.7816164E-02  0.1300439E+00
        -11   -1    0    0    0    0  0.00000000000E+00  0.00000000000E+00  0.45593999997E+02  0.45594000000E+02  0.51100000000E-03 0.  1.
         11   -1    0    0    0    0 -0.00000000000E+00 -0.00000000000E+00 -0.45593999997E+02  0.45594000000E+02  0.51100000000E-03 0. -1.
    9900012    2    1    2    0    0  0.13339072894E+02  0.36820078573E+02  0.10932332921E+02  0.50528868739E+02  0.30000027019E+02 0.  0.
         12    1    1    2    0    0 -0.13339072894E+02 -0.36820078573E+02 -0.10932332921E+02  0.40659131261E+02  0.00000000000E+00 0. -1.
         11    1    3    3    0    0  0.16712787484E+01  0.30249395183E+01 -0.83432104474E+01  0.90306474062E+01  0.51100000000E-03 0. -1.
        -11    1    3    3    0    0  0.92543594440E+01  0.19580014990E+02  0.15380750577E+02  0.26562899772E+02  0.51100000000E-03 0.  1.
         12    1    3    3    0    0  0.24134347013E+01  0.14215124065E+02  0.38947927917E+01  0.14935321561E+02  0.00000000000E+00 0. -1.
</event>
<event>
 7    1  0.5849044E-013  0.5052886E+02  0.7816164E-02  0.1300439E+00
        -11   -1    0    0    0    0  0.00000000000E+00  0.00000000000E+00  0.45593999997E+02  0.45594000000E+02  0.51100000000E-03 0. -1.
         11   -1    0    0    0    0 -0.00000000000E+00 -0.00000000000E+00 -0.45593999997E+02  0.45594000000E+02  0.51100000000E-03 0.  1.
    9900012    2    1    2    0    0 -0.16708432131E+02 -0.12881574564E+02 -0.34757146887E+02  0.50528856782E+02  0.29999990674E+02 0.  0.
         12    1    1    2    0    0  0.16708432131E+02  0.12881574564E+02  0.34757146887E+02  0.40659143218E+02  0.00000000000E+00 0. -1.
         11    1    3    3    0    0 -0.25676206726E+01  0.79313795988E+01 -0.13581600700E+02  0.15936101659E+02  0.51100000000E-03 0. -1.
        -11    1    3    3    0    0 -0.73958349093E+01 -0.68600684734E+01 -0.26309427862E+01  0.10425007130E+02  0.51100000000E-03 0.  1.
         12    1    3    3    0    0 -0.67449765488E+01 -0.13952885690E+02 -0.18544603401E+02  0.24167747992E+02  0.00000000000E+00 0. -1.
</event>
<event>
 7    1  0.5849044E-013  0.5052889E+02  0.7816164E-02  0.1300439E+00
        -11   -1    0    0    0    0  0.00000000000E+00  0.00000000000E+00  0.45593999997E+02  0.45594000000E+02  0.51100000000E-03 0.  1.
         11   -1    0    0    0    0 -0.00000000000E+00 -0.00000000000E+00 -0.45593999997E+02  0.45594000000E+02  0.51100000000E-03 0. -1.
    9900012    2    1    2    0    0 -0.18810146177E+02 -0.17563270631E+02  0.31478136565E+02  0.50528890860E+02  0.30000094257E+02 0.  0.
         12    1    1    2    0    0  0.18810146177E+02  0.17563270631E+02 -0.31478136565E+02  0.40659109140E+02  0.00000000000E+00 0. -1.
         11    1    3    3    0    0 -0.13983006650E+02  0.50979291690E+01  0.10875616126E+02  0.18433458253E+02  0.51100000000E-03 0. -1.
        -11    1    3    3    0    0 -0.50365770133E+01 -0.16029479089E+02  0.18811997958E+02  0.25223056423E+02  0.51100000000E-03 0.  1.
         12    1    3    3    0    0  0.20943748685E+00 -0.66317207107E+01  0.17905224811E+01  0.68723761830E+01  0.00000000000E+00 0. -1.
</event>
<event>
 7    1  0.5849044E-013  0.5052886E+02  0.7816164E-02  0.1300439E+00
        -11   -1    0    0    0    0  0.00000000000E+00  0.00000000000E+00  0.45593999997E+02  0.45594000000E+02  0.51100000000E-03 0. -1.
         11   -1    0    0    0    0 -0.00000000000E+00 -0.00000000000E+00 -0.45593999997E+02  0.45594000000E+02  0.51100000000E-03 0.  1.
    9900012    2    1    2    0    0  0.21325095028E+02  0.30390421236E+02 -0.16577943646E+02  0.50528860850E+02  0.30000003040E+02 0.  0.
         12    1    1    2    0    0 -0.21325095028E+02 -0.30390421236E+02  0.16577943646E+02  0.40659139150E+02  0.00000000000E+00 0. -1.
         11    1    3    3    0    0  0.23437652912E+01  0.45473794109E+01 -0.33066197955E-01  0.51159543471E+01  0.51100000000E-03 0. -1.
        -11    1    3    3    0    0  0.11675338082E+00  0.23056499540E+02 -0.11048852795E+02  0.25567419712E+02  0.51100000000E-03 0.  1.
        -12    1    3    3    0    0  0.18864576356E+02  0.27865422858E+01 -0.54960246534E+01  0.19845486791E+02  0.00000000000E+00 0.  1.
</event>
<event>
 7    1  0.5849044E-013  0.5052887E+02  0.7816164E-02  0.1300439E+00
        -11   -1    0    0    0    0  0.00000000000E+00  0.00000000000E+00  0.45593999997E+02  0.45594000000E+02  0.51100000000E-03 0.  1.
         11   -1    0    0    0    0 -0.00000000000E+00 -0.00000000000E+00 -0.45593999997E+02  0.45594000000E+02  0.51100000000E-03 0. -1.
    9900012    2    1    2    0    0 -0.16117585180E+01  0.24470579494E+02  0.32430821669E+02  0.50528865474E+02  0.30000017093E+02 0.  0.
         12    1    1    2    0    0  0.16117585180E+01 -0.24470579494E+02 -0.32430821669E+02  0.40659134526E+02  0.00000000000E+00 0. -1.
         11    1    3    3    0    0 -0.12000080997E+02  0.54392351428E+01  0.51596717332E+01  0.14149538350E+02  0.51100000000E-03 0. -1.
        -11    1    3    3    0    0  0.73938955568E+01  0.16205488941E+02  0.14522778852E+02  0.22982573163E+02  0.51100000000E-03 0.  1.
        -12    1    3    3    0    0  0.29944269221E+01  0.28258554102E+01  0.12748371084E+02  0.13396753961E+02  0.00000000000E+00 0.  1.
</event>
<event>
 7    1  0.5849044E-013  0.5052885E+02  0.7816164E-02  0.1300439E+00
        -11   -1    0    0    0    0  0.00000000000E+00  0.00000000000E+00  0.45593999997E+02  0.45594000000E+02  0.51100000000E-03 0. -1.
         11   -1    0    0    0    0 -0.00000000000E+00 -0.00000000000E+00 -0.45593999997E+02  0.45594000000E+02  0.51100000000E-03 0.  1.
    9900012    2    1    2    0    0 -0.16565355687E+02 -0.35175098720E+02 -0.11894025085E+02  0.50528850824E+02  0.29999972564E+02 0.  0.
         12    1    1    2    0    0  0.16565355687E+02  0.35175098720E+02  0.11894025085E+02  0.40659149176E+02  0.00000000000E+00 0. -1.
         11    1    3    3    0    0 -0.74742197308E+01 -0.17305549393E+02  0.15844093676E+01  0.18917091575E+02  0.51100000000E-03 0. -1.
        -11    1    3    3    0    0 -0.24311318007E+01  0.33114627041E+01 -0.76066442028E+01  0.86450693093E+01  0.51100000000E-03 0.  1.
        -12    1    3    3    0    0 -0.66600041559E+01 -0.21181012031E+02 -0.58717902497E+01  0.22966689939E+02  0.00000000000E+00 0.  1.
</event>
<event>
 7    1  0.5849044E-013  0.5052886E+02  0.7816164E-02  0.1300439E+00
        -11   -1    0    0    0    0  0.00000000000E+00  0.00000000000E+00  0.45593999997E+02  0.45594000000E+02  0.51100000000E-03 0. -1.
         11   -1    0    0    0    0 -0.00000000000E+00 -0.00000000000E+00 -0.45593999997E+02  0.45594000000E+02  0.51100000000E-03 0.  1.
    9900012    2    1    2    0    0  0.11402140582E+02 -0.29277563109E+02 -0.25806609254E+02  0.50528860897E+02  0.30000003182E+02 0.  0.
         12    1    1    2    0    0 -0.11402140582E+02  0.29277563109E+02  0.25806609254E+02  0.40659139103E+02  0.00000000000E+00 0. -1.
         11    1    3    3    0    0  0.99182611624E+01 -0.23747466523E+01 -0.11414494498E+01  0.10262272324E+02  0.51100000000E-03 0. -1.
        -11    1    3    3    0    0  0.11769897092E+01 -0.13396784882E+02 -0.23015714242E+02  0.26656748719E+02  0.51100000000E-03 0.  1.
        -12    1    3    3    0    0  0.30688971075E+00 -0.13506031574E+02 -0.16494455619E+01  0.13609839853E+02  0.00000000000E+00 0.  1.
</event>
<event>
 7    1  0.5849044E-013  0.5052883E+02  0.7816164E-02  0.1300439E+00
        -11   -1    0    0    0    0  0.00000000000E+00  0.00000000000E+00  0.45593999997E+02  0.45594000000E+02  0.51100000000E-03 0. -1.
         11   -1    0    0    0    0 -0.00000000000E+00 -0.00000000000E+00 -0.45593999997E+02  0.45594000000E+02  0.51100000000E-03 0.  1.
    9900012    2    1    2    0    0 -0.23237677041E+01 -0.39556853589E+02 -0.91117326787E+01  0.50528828407E+02  0.29999904425E+02 0.  0.
         12    1    1    2    0    0  0.23237677041E+01  0.39556853589E+02  0.91117326787E+01  0.40659171593E+02  0.00000000000E+00 0. -1.
         11    1    3    3    0    0  0.87592050897E+01 -0.82446346268E+01  0.25362664433E+01  0.12293507297E+02  0.51100000000E-03 0. -1.
        -11    1    3    3    0    0 -0.37490863095E+01 -0.17179806819E+02 -0.13551241168E+02  0.22199944773E+02  0.51100000000E-03 0.  1.
         12    1    3    3    0    0 -0.73338864843E+01 -0.14132412144E+02  0.19032420456E+01  0.16035376336E+02  0.00000000000E+00 0. -1.
</event>
<event>
 7    1  0.5849044E-013  0.5052886E+02  0.7816164E-02  0.1300439E+00
        -11   -1    0    0    0    0  0.00000000000E+00  0.00000000000E+00  0.45593999997E+02  0.45594000000E+02  0.51100000000E-03 0. -1.
         11   -1    0    0    0    0 -0.00000000000E+00 -0.00000000000E+00 -0.45593999997E+02  0.45594000000E+02  0.51100000000E-03 0.  1.
    9900012    2    1    2    0    0 -0.15652491365E+02 -0.34290423914E+02 -0.15242431754E+02  0.50528863464E+02  0.30000010984E+02 0.  0.
         12    1    1    2    0    0  0.15652491365E+02  0.34290423914E+02  0.15242431754E+02  0.40659136536E+02  0.00000000000E+00 0. -1.
         11    1    3    3    0    0 -0.43549555570E+01 -0.52589743159E+01  0.56091785339E+00  0.68510639946E+01  0.51100000000E-03 0. -1.
        -11    1    3    3    0    0 -0.39741752856E+01  0.14590903655E+01 -0.11213402128E+02  0.11985966854E+02  0.51100000000E-03 0.  1.
        -12    1    3    3    0    0 -0.73233605221E+01 -0.30490539964E+02 -0.45899474792E+01  0.31691832615E+02  0.00000000000E+00 0.  1.
</event>
<event>
 7    1  0.5849044E-013  0.5052886E+02  0.7816164E-02  0.1300439E+00
        -11   -1    0    0    0    0  0.00000000000E+00  0.00000000000E+00  0.45593999997E+02  0.45594000000E+02  0.51100000000E-03 0.  1.
         11   -1    0    0    0    0 -0.00000000000E+00 -0.00000000000E+00 -0.45593999997E+02  0.45594000000E+02  0.51100000000E-03 0. -1.
    9900012    2    1    2    0    0 -0.25488041852E+02  0.28351333919E+02  0.14132503292E+02  0.50528855128E+02  0.29999985646E+02 0.  0.
         12    1    1    2    0    0  0.25488041852E+02 -0.28351333919E+02 -0.14132503292E+02  0.40659144872E+02  0.00000000000E+00 0. -1.
         11    1    3    3    0    0 -0.81053620171E+01  0.24994849652E+02  0.18205979289E+02  0.31967125061E+02  0.51100000000E-03 0. -1.
        -11    1    3    3    0    0 -0.65814928370E+01 -0.26333796888E+00 -0.42640016419E+00  0.66005463569E+01  0.51100000000E-03 0.  1.
         12    1    3    3    0    0 -0.10801186998E+02  0.36198222359E+01 -0.36470758332E+01  0.11961183709E+02  0.00000000000E+00 0. -1.
</event>
<event>
 7    1  0.5849044E-013  0.5052886E+02  0.7816164E-02  0.1300439E+00
        -11   -1    0    0    0    0  0.00000000000E+00  0.00000000000E+00  0.45593999997E+02  0.45594000000E+02  0.51100000000E-03 0.  1.
         11   -1    0    0    0    0 -0.00000000000E+00 -0.00000000000E+00 -0.45593999997E+02  0.45594000000E+02  0.51100000000E-03 0. -1.
    9900012    2    1    2    0    0 -0.13064201310E+02 -0.93562781453E+01  0.37349061683E+02  0.50528859512E+02  0.29999998973E+02 0.  0.
         12    1    1    2    0    0  0.13064201310E+02  0.93562781453E+01 -0.37349061683E+02  0.40659140488E+02  0.00000000000E+00 0. -1.
         11    1    3    3    0    0  0.10600389187E+01 -0.23219766414E+01  0.22481934232E+02  0.22626370127E+02  0.51100000000E-03 0.  1.
        -11    1    3    3    0    0 -0.12858155341E+02  0.14166612897E+01  0.30007004755E+01  0.13279431147E+02  0.51100000000E-03 0. -1.
         12    1    3    3    0    0 -0.12660848877E+01 -0.84509627936E+01  0.11866426976E+02  0.14623058239E+02  0.00000000000E+00 0. -1.
</event>
<event>
 7    1  0.6645227E-013  0.5052885E+02  0.7816164E-02  0.1300439E+00
        -11   -1    0    0    0    0  0.00000000000E+00  0.00000000000E+00  0.45593999997E+02  0.45594000000E+02  0.51100000000E-03 0. -1.
         11   -1    0    0    0    0 -0.00000000000E+00 -0.00000000000E+00 -0.45593999997E+02  0.45594000000E+02  0.51100000000E-03 0.  1.
    9900012    2    1    2    0    0  0.13937448376E+02 -0.34318689423E+02 -0.16767279425E+02  0.50528848874E+02  0.29999966637E+02 0.  0.
         12    1    1    2    0    0 -0.13937448376E+02  0.34318689423E+02  0.16767279425E+02  0.40659151126E+02  0.00000000000E+00 0. -1.
         11    1    3    3    0    0 -0.14755933905E+01 -0.47363088754E+01  0.57421467248E+01  0.75882967053E+01  0.51100000000E-03 0. -1.
        -11    1    3    3    0    0  0.63206994608E+01 -0.24818218332E+02 -0.12113168267E+02  0.28330620335E+02  0.51100000000E-03 0.  1.
         12    1    3    3    0    0  0.90923423061E+01 -0.47641622163E+01 -0.10396257882E+02  0.14609931834E+02  0.00000000000E+00 0. -1.
</event>
<event>
 7    1  0.5849044E-013  0.5052886E+02  0.7816164E-02  0.1300439E+00
        -11   -1    0    0    0    0  0.00000000000E+00  0.00000000000E+00  0.45593999997E+02  0.45594000000E+02  0.51100000000E-03 0.  1.
         11   -1    0    0    0    0 -0.00000000000E+00 -0.00000000000E+00 -0.45593999997E+02  0.45594000000E+02  0.51100000000E-03 0. -1.
    9900012    2    1    2    0    0 -0.25867241936E+02 -0.19274449336E+02  0.24749690460E+02  0.50528858587E+02  0.29999996162E+02 0.  0.
         12    1    1    2    0    0  0.25867241936E+02  0.19274449336E+02 -0.24749690460E+02  0.40659141413E+02  0.00000000000E+00 0. -1.
         11    1    3    3    0    0 -0.57672948268E+00 -0.14050545689E+02  0.15959781918E+02  0.21271226814E+02  0.51100000000E-03 0.  1.
        -11    1    3    3    0    0 -0.17727056031E+02  0.82934909615E+00  0.30774516579E+01  0.18011303241E+02  0.51100000000E-03 0. -1.
         12    1    3    3    0    0 -0.75634564218E+01 -0.60532527434E+01  0.57124568836E+01  0.11246328533E+02  0.00000000000E+00 0. -1.
</event>
<event>
 7    1  0.5849044E-013  0.5052885E+02  0.7816164E-02  0.1300439E+00
        -11   -1    0    0    0    0  0.00000000000E+00  0.00000000000E+00  0.45593999997E+02  0.45594000000E+02  0.51100000000E-03 0.  1.
         11   -1    0    0    0    0 -0.00000000000E+00 -0.00000000000E+00 -0.45593999997E+02  0.45594000000E+02  0.51100000000E-03 0. -1.
    9900012    2    1    2    0    0 -0.26871048493E+02 -0.25666861643E+02  0.16502297353E+02  0.50528845414E+02  0.29999956120E+02 0.  0.
         12    1    1    2    0    0  0.26871048493E+02  0.25666861643E+02 -0.16502297353E+02  0.40659154586E+02  0.00000000000E+00 0. -1.
         11    1    3    3    0    0 -0.73306555090E+01  0.14950661491E+01 -0.54958814464E+01  0.92832346796E+01  0.51100000000E-03 0. -1.
        -11    1    3    3    0    0 -0.12082421408E+02 -0.21412513387E+02  0.11499900219E+02  0.27142740133E+02  0.51100000000E-03 0.  1.
        -12    1    3    3    0    0 -0.74579715762E+01 -0.57494144048E+01  0.10498278580E+02  0.14102870601E+02  0.00000000000E+00 0.  1.
</event>
<event>
 7    1  0.5849044E-013  0.5052886E+02  0.7816164E-02  0.1300439E+00
        -11   -1    0    0    0    0  0.00000000000E+00  0.00000000000E+00  0.45593999997E+02  0.45594000000E+02  0.51100000000E-03 0. -1.
         11   -1    0    0    0    0 -0.00000000000E+00 -0.00000000000E+00 -0.45593999997E+02  0.45594000000E+02  0.51100000000E-03 0.  1.
    9900012    2    1    2    0    0  0.12086944610E+02  0.34394179075E+02 -0.18003101775E+02  0.50528862555E+02  0.30000008222E+02 0.  0.
         12    1    1    2    0    0 -0.12086944610E+02 -0.34394179075E+02  0.18003101775E+02  0.40659137445E+02  0.00000000000E+00 0. -1.
         11    1    3    3    0    0  0.11531083046E+02  0.33984039011E+02 -0.81367144780E+01  0.36797919867E+02  0.51100000000E-03 0. -1.
        -11    1    3    3    0    0  0.21904729909E+01 -0.39149799212E+01 -0.28063375351E+01  0.52915754109E+01  0.51100000000E-03 0.  1.
         12    1    3    3    0    0 -0.16346114270E+01  0.43251199846E+01 -0.70600497622E+01  0.84393672775E+01  0.00000000000E+00 0. -1.
</event>
<event>
 7    1  0.5849044E-013  0.5052886E+02  0.7816164E-02  0.1300439E+00
        -11   -1    0    0    0    0  0.00000000000E+00  0.00000000000E+00  0.45593999997E+02  0.45594000000E+02  0.51100000000E-03 0.  1.
         11   -1    0    0    0    0 -0.00000000000E+00 -0.00000000000E+00 -0.45593999997E+02  0.45594000000E+02  0.51100000000E-03 0. -1.
    9900012    2    1    2    0    0 -0.16274590672E+01 -0.44216003475E+01  0.40385223093E+02  0.50528863057E+02  0.30000009749E+02 0.  0.
         12    1    1    2    0    0  0.16274590672E+01  0.44216003475E+01 -0.40385223093E+02  0.40659136943E+02  0.00000000000E+00 0. -1.
         11    1    3    3    0    0 -0.23031049674E+01  0.18623797825E+01  0.10357214837E+01  0.31377492249E+01  0.51100000000E-03 0. -1.
        -11    1    3    3    0    0 -0.86662956509E+01 -0.59392297518E+01  0.35934061115E+02  0.37438427836E+02  0.51100000000E-03 0.  1.
        -12    1    3    3    0    0  0.93419415511E+01 -0.34475037816E+00  0.34154404939E+01  0.99526859960E+01  0.00000000000E+00 0.  1.
</event>
<event>
 7    1  0.5849044E-013  0.5052884E+02  0.7816164E-02  0.1300439E+00
        -11   -1    0    0    0    0  0.00000000000E+00  0.00000000000E+00  0.45593999997E+02  0.45594000000E+02  0.51100000000E-03 0.  1.
         11   -1    0    0    0    0 -0.00000000000E+00 -0.00000000000E+00 -0.45593999997E+02  0.45594000000E+02  0.51100000000E-03 0. -1.
    9900012    2    1    2    0    0 -0.27188327378E+02 -0.25446060641E+02  0.16323606677E+02  0.50528840113E+02  0.29999940007E+02 0.  0.
         12    1    1    2    0    0  0.27188327378E+02  0.25446060641E+02 -0.16323606677E+02  0.40659159887E+02  0.00000000000E+00 0. -1.
         11    1    3    3    0    0 -0.14525688289E+02 -0.68165124319E+01  0.81708952315E+01  0.18006220902E+02  0.51100000000E-03 0. -1.
        -11    1    3    3    0    0 -0.94028911645E+01 -0.19112973719E+02 -0.24298361461E+01  0.21438848630E+02  0.51100000000E-03 0.  1.
        -12    1    3    3    0    0 -0.32597479246E+01  0.48342551022E+00  0.10582547592E+02  0.11083770581E+02  0.00000000000E+00 0.  1.
</event>
<event>
 7    1  0.5849044E-013  0.5052887E+02  0.7816164E-02  0.1300439E+00
        -11   -1    0    0    0    0  0.00000000000E+00  0.00000000000E+00  0.45593999997E+02  0.45594000000E+02  0.51100000000E-03 0. -1.
         11   -1    0    0    0    0 -0.00000000000E+00 -0.00000000000E+00 -0.45593999997E+02  0.45594000000E+02  0.51100000000E-03 0.  1.
    9900012    2    1    2    0    0 -0.36421120632E+01  0.48032670304E+01 -0.40209806849E+02  0.50528869152E+02  0.30000028276E+02 0.  0.
         12    1    1    2    0    0  0.36421120632E+01 -0.48032670304E+01  0.40209806849E+02  0.40659130848E+02  0.00000000000E+00 0. -1.
         11    1    3    3    0    0 -0.11624207609E+02  0.40988602390E+01 -0.38465649964E+02  0.40392190894E+02  0.51100000000E-03 0. -1.
        -11    1    3    3    0    0  0.34353843823E+01  0.77326297222E+00 -0.37698592489E+01  0.51586471576E+01  0.51100000000E-03 0.  1.
         12    1    3    3    0    0  0.45467111630E+01 -0.68856180839E-01  0.20257023641E+01  0.49780311009E+01  0.00000000000E+00 0. -1.
</event>
<event>
 7    1  0.5849044E-013  0.5052888E+02  0.7816164E-02  0.1300439E+00
        -11   -1    0    0    0    0  0.00000000000E+00  0.00000000000E+00  0.45593999997E+02  0.45594000000E+02  0.51100000000E-03 0. -1.
         11   -1    0    0    0    0 -0.00000000000E+00 -0.00000000000E+00 -0.45593999997E+02  0.45594000000E+02  0.51100000000E-03 0.  1.
    9900012    2    1    2    0    0 -0.40367901533E+02  0.43678179740E+01  0.21258084195E+01  0.50528875938E+02  0.30000048901E+02 0.  0.
         12    1    1    2    0    0  0.40367901533E+02 -0.43678179740E+01 -0.21258084195E+01  0.40659124062E+02  0.00000000000E+00 0. -1.
         11    1    3    3    0    0 -0.72191986650E+01 -0.46448533160E+01 -0.46003380751E+01  0.97393327470E+01  0.51100000000E-03 0. -1.
        -11    1    3    3    0    0 -0.20218098239E+02  0.13411354417E+01  0.13449232973E+02  0.24319786358E+02  0.51100000000E-03 0.  1.
        -12    1    3    3    0    0 -0.12930604630E+02  0.76715358483E+01 -0.67230864782E+01  0.16469756833E+02  0.00000000000E+00 0.  1.
</event>
<event>
 7    1  0.5849044E-013  0.5052886E+02  0.7816164E-02  0.1300439E+00
        -11   -1    0    0    0    0  0.00000000000E+00  0.00000000000E+00  0.45593999997E+02  0.45594000000E+02  0.51100000000E-03 0.  1.
         11   -1    0    0    0    0 -0.00000000000E+00 -0.00000000000E+00 -0.45593999997E+02  0.45594000000E+02  0.51100000000E-03 0. -1.
    9900012    2    1    2    0    0  0.22264468001E+02 -0.33925717110E+02 -0.25504607922E+01  0.50528859981E+02  0.30000000399E+02 0.  0.
         12    1    1    2    0    0 -0.22264468001E+02  0.33925717110E+02  0.25504607922E+01  0.40659140019E+02  0.00000000000E+00 0. -1.
         11    1    3    3    0    0 -0.24973428216E+01 -0.53187998657E+01  0.35304790179E+01  0.68549715927E+01  0.51100000000E-03 0. -1.
        -11    1    3    3    0    0  0.95837548501E+01 -0.18668713791E+02 -0.12504414726E+02  0.24428049851E+02  0.51100000000E-03 0.  1.
        -12    1    3    3    0    0  0.15178055973E+02 -0.99382034534E+01  0.64234749163E+01  0.19245838537E+02  0.00000000000E+00 0.  1.
</event>
<event>
 7    1  0.5849044E-013  0.5052886E+02  0.7816164E-02  0.1300439E+00
        -11   -1    0    0    0    0  0.00000000000E+00  0.00000000000E+00  0.45593999997E+02  0.45594000000E+02  0.51100000000E-03 0.  1.
         11   -1    0    0    0    0 -0.00000000000E+00 -0.00000000000E+00 -0.45593999997E+02  0.45594000000E+02  0.51100000000E-03 0. -1.
    9900012    2    1    2    0    0  0.50623779571E+00  0.34324197738E+02  0.21788963999E+02  0.50528858602E+02  0.29999996206E+02 0.  0.
         12    1    1    2    0    0 -0.50623779571E+00 -0.34324197738E+02 -0.21788963999E+02  0.40659141398E+02  0.00000000000E+00 0. -1.
         11    1    3    3    0    0  0.60008246668E+01  0.56260032485E+00 -0.26677685137E+01  0.65911611201E+01  0.51100000000E-03 0. -1.
        -11    1    3    3    0    0 -0.46753132929E+01  0.20957035949E+02  0.22245282226E+02  0.30917769838E+02  0.51100000000E-03 0.  1.
         12    1    3    3    0    0 -0.81927357813E+00  0.12804561464E+02  0.22114502873E+01  0.13019927644E+02  0.00000000000E+00 0. -1.
</event>
<event>
 7    1  0.5849044E-013  0.5052885E+02  0.7816164E-02  0.1300439E+00
        -11   -1    0    0    0    0  0.00000000000E+00  0.00000000000E+00  0.45593999997E+02  0.45594000000E+02  0.51100000000E-03 0. -1.
         11   -1    0    0    0    0 -0.00000000000E+00 -0.00000000000E+00 -0.45593999997E+02  0.45594000000E+02  0.51100000000E-03 0.  1.
    9900012    2    1    2    0    0 -0.13208539149E+02  0.44164515733E+01 -0.38199421738E+02  0.50528851311E+02  0.29999974046E+02 0.  0.
         12    1    1    2    0    0  0.13208539149E+02 -0.44164515733E+01  0.38199421738E+02  0.40659148689E+02  0.00000000000E+00 0. -1.
         11    1    3    3    0    0 -0.10009546507E+02 -0.10301307404E+02 -0.17954589421E+02  0.22992938852E+02  0.51100000000E-03 0. -1.
        -11    1    3    3    0    0 -0.71114197039E+01  0.83295607945E+01 -0.98999274578E+01  0.14763550967E+02  0.51100000000E-03 0.  1.
         12    1    3    3    0    0  0.39124270620E+01  0.63881981828E+01 -0.10344904859E+02  0.12772361492E+02  0.00000000000E+00 0. -1.
</event>
<event>
 7    1  0.5849044E-013  0.5052886E+02  0.7816164E-02  0.1300439E+00
        -11   -1    0    0    0    0  0.00000000000E+00  0.00000000000E+00  0.45593999997E+02  0.45594000000E+02  0.51100000000E-03 0.  1.
         11   -1    0    0    0    0 -0.00000000000E+00 -0.00000000000E+00 -0.45593999997E+02  0.45594000000E+02  0.51100000000E-03 0. -1.
    9900012    2    1    2    0    0 -0.56626227127E+01 -0.92108059150E+01  0.39195169949E+02  0.50528860942E+02  0.30000003320E+02 0.  0.
         12    1    1    2    0    0  0.56626227127E+01  0.92108059150E+01 -0.39195169949E+02  0.40659139058E+02  0.00000000000E+00 0. -1.
         11    1    3    3    0    0 -0.63660969418E+00  0.88597850949E+01  0.40780090744E+01  0.97740074740E+01  0.51100000000E-03 0. -1.
        -11    1    3    3    0    0 -0.25403318620E+00 -0.14525939980E+02  0.27403430329E+02  0.31016374051E+02  0.51100000000E-03 0.  1.
         12    1    3    3    0    0 -0.47719798323E+01 -0.35446510297E+01  0.77137305453E+01  0.97384794176E+01  0.00000000000E+00 0. -1.
</event>
<event>
 7    1  0.5849044E-013  0.5052887E+02  0.7816164E-02  0.1300439E+00
        -11   -1    0    0    0    0  0.00000000000E+00  0.00000000000E+00  0.45593999997E+02  0.45594000000E+02  0.51100000000E-03 0. -1.
         11   -1    0    0    0    0 -0.00000000000E+00 -0.00000000000E+00 -0.45593999997E+02  0.45594000000E+02  0.51100000000E-03 0.  1.
    9900012    2    1    2    0    0 -0.20690602509E+01  0.22571404486E+02 -0.33755232589E+02  0.50528867718E+02  0.30000023914E+02 0.  0.
         12    1    1    2    0    0  0.20690602509E+01 -0.22571404486E+02  0.33755232589E+02  0.40659132282E+02  0.00000000000E+00 0. -1.
         11    1    3    3    0    0  0.96085416369E+01 -0.14887537349E+01 -0.12679423383E+02  0.15978367803E+02  0.51100000000E-03 0. -1.
        -11    1    3    3    0    0 -0.47800083664E+01  0.16122216547E+02 -0.13931730141E+02  0.21837294965E+02  0.51100000000E-03 0.  1.
         12    1    3    3    0    0 -0.68975935214E+01  0.79379416737E+01 -0.71440790646E+01  0.12713204949E+02  0.00000000000E+00 0. -1.
</event>
<event>
 7    1  0.5849044E-013  0.5052886E+02  0.7816164E-02  0.1300439E+00
        -11   -1    0    0    0    0  0.00000000000E+00  0.00000000000E+00  0.45593999997E+02  0.45594000000E+02  0.51100000000E-03 0.  1.
         11   -1    0    0    0    0 -0.00000000000E+00 -0.00000000000E+00 -0.45593999997E+02  0.45594000000E+02  0.51100000000E-03 0. -1.
    9900012    2    1    2    0    0  0.49318894722E+01 -0.18073772970E+02  0.36085741754E+02  0.50528861285E+02  0.30000004361E+02 0.  0.
         12    1    1    2    0    0 -0.49318894722E+01  0.18073772970E+02 -0.36085741754E+02  0.40659138715E+02  0.00000000000E+00 0. -1.
         11    1    3    3    0    0  0.18479227160E+01 -0.46225557474E+01 -0.38344878309E+01  0.62837995822E+01  0.51100000000E-03 0. -1.
        -11    1    3    3    0    0  0.69553570136E+01 -0.12699889440E+02  0.35396846845E+02  0.38243966188E+02  0.51100000000E-03 0.  1.
         12    1    3    3    0    0 -0.38713902574E+01 -0.75132778230E+00  0.45233827399E+01  0.60010955145E+01  0.00000000000E+00 0. -1.
</event>
<event>
 7    1  0.5849044E-013  0.5052885E+02  0.7816164E-02  0.1300439E+00
        -11   -1    0    0    0    0  0.00000000000E+00  0.00000000000E+00  0.45593999997E+02  0.45594000000E+02  0.51100000000E-03 0. -1.
         11   -1    0    0    0    0 -0.00000000000E+00 -0.00000000000E+00 -0.45593999997E+02  0.45594000000E+02  0.51100000000E-03 0.  1.
    9900012    2    1    2    0    0  0.18055559016E+02 -0.35007185607E+02  0.10082665447E+02  0.50528850992E+02  0.29999973075E+02 0.  0.
         12    1    1    2    0    0 -0.18055559016E+02  0.35007185607E+02 -0.10082665447E+02  0.40659149008E+02  0.00000000000E+00 0. -1.
         11    1    3    3    0    0 -0.71062666925E+01 -0.59560245976E+01 -0.18100013848E+01  0.94471879725E+01  0.51100000000E-03 0.  1.
        -11    1    3    3    0    0  0.98540119367E+00 -0.14661332681E+01 -0.11992671666E+01  0.21351356562E+01  0.51100000000E-03 0. -1.
         12    1    3    3    0    0  0.24176424515E+02 -0.27585027742E+02  0.13091933999E+02  0.38946527363E+02  0.00000000000E+00 0. -1.
</event>
<event>
 7    1  0.5849044E-013  0.5052886E+02  0.7816164E-02  0.1300439E+00
        -11   -1    0    0    0    0  0.00000000000E+00  0.00000000000E+00  0.45593999997E+02  0.45594000000E+02  0.51100000000E-03 0.  1.
         11   -1    0    0    0    0 -0.00000000000E+00 -0.00000000000E+00 -0.45593999997E+02  0.45594000000E+02  0.51100000000E-03 0. -1.
    9900012    2    1    2    0    0 -0.39181542514E+01  0.35955938231E+02  0.18573762216E+02  0.50528855031E+02  0.29999985352E+02 0.  0.
         12    1    1    2    0    0  0.39181542514E+01 -0.35955938231E+02 -0.18573762216E+02  0.40659144969E+02  0.00000000000E+00 0. -1.
         11    1    3    3    0    0  0.68952494549E+01  0.10030103857E+02  0.15330631047E+02  0.19574874124E+02  0.51100000000E-03 0. -1.
        -11    1    3    3    0    0 -0.12813871381E+02  0.15243343202E+02  0.19404921384E+01  0.20008006441E+02  0.51100000000E-03 0.  1.
         12    1    3    3    0    0  0.20004676750E+01  0.10682491172E+02  0.13026390304E+01  0.10945974466E+02  0.00000000000E+00 0. -1.
</event>
<event>
 7    1  0.5849044E-013  0.5052886E+02  0.7816164E-02  0.1300439E+00
        -11   -1    0    0    0    0  0.00000000000E+00  0.00000000000E+00  0.45593999997E+02  0.45594000000E+02  0.51100000000E-03 0.  1.
         11   -1    0    0    0    0 -0.00000000000E+00 -0.00000000000E+00 -0.45593999997E+02  0.45594000000E+02  0.51100000000E-03 0. -1.
    9900012    2    1    2    0    0  0.29980994360E+02 -0.39643867971E+01  0.27176991896E+02  0.50528864815E+02  0.30000015090E+02 0.  0.
         12    1    1    2    0    0 -0.29980994360E+02  0.39643867971E+01 -0.27176991896E+02  0.40659135185E+02  0.00000000000E+00 0. -1.
         11    1    3    3    0    0  0.27341109116E+02 -0.68354401972E+01  0.28230574837E+02  0.39890159768E+02  0.51100000000E-03 0.  1.
        -11    1    3    3    0    0  0.28892220527E+01  0.14740564985E+00  0.39739074516E+01  0.49154118028E+01  0.51100000000E-03 0. -1.
         12    1    3    3    0    0 -0.24933680848E+00  0.27236477503E+01 -0.50274903927E+01  0.57232932443E+01  0.00000000000E+00 0. -1.
</event>
<event>
 7    1  0.5849044E-013  0.5052887E+02  0.7816164E-02  0.1300439E+00
        -11   -1    0    0    0    0  0.00000000000E+00  0.00000000000E+00  0.45593999997E+02  0.45594000000E+02  0.51100000000E-03 0.  1.
         11   -1    0    0    0    0 -0.00000000000E+00 -0.00000000000E+00 -0.45593999997E+02  0.45594000000E+02  0.51100000000E-03 0. -1.
    9900012    2    1    2    0    0  0.99886373381E+01  0.39529744177E+01  0.39214362527E+02  0.50528866819E+02  0.30000021183E+02 0.  0.
         12    1    1    2    0    0 -0.99886373381E+01 -0.39529744177E+01 -0.39214362527E+02  0.40659133181E+02  0.00000000000E+00 0. -1.
         11    1    3    3    0    0 -0.93576963383E+01 -0.12103449644E+01  0.89238531657E+01  0.12987169487E+02  0.51100000000E-03 0. -1.
        -11    1    3    3    0    0  0.36432303421E+01 -0.36997351042E+00  0.13132449375E+02  0.13633460110E+02  0.51100000000E-03 0.  1.
         12    1    3    3    0    0  0.15703103334E+02  0.55332928925E+01  0.17158059986E+02  0.23908237222E+02  0.00000000000E+00 0. -1.
</event>
<event>
 7    1  0.5849044E-013  0.5052886E+02  0.7816164E-02  0.1300439E+00
        -11   -1    0    0    0    0  0.00000000000E+00  0.00000000000E+00  0.45593999997E+02  0.45594000000E+02  0.51100000000E-03 0.  1.
         11   -1    0    0    0    0 -0.00000000000E+00 -0.00000000000E+00 -0.45593999997E+02  0.45594000000E+02  0.51100000000E-03 0. -1.
    9900012    2    1    2    0    0 -0.37436607629E+02 -0.10387273499E+02  0.11990448328E+02  0.50528857207E+02  0.29999991968E+02 0.  0.
         12    1    1    2    0    0  0.37436607629E+02  0.10387273499E+02 -0.11990448328E+02  0.40659142793E+02  0.00000000000E+00 0. -1.
         11    1    3    3    0    0 -0.86379741691E+01 -0.12729859609E+02  0.23755542220E+01  0.15566219243E+02  0.51100000000E-03 0. -1.
        -11    1    3    3    0    0 -0.17622112995E+02 -0.10308096066E+01  0.13960578000E+02  0.22505536501E+02  0.51100000000E-03 0.  1.
        -12    1    3    3    0    0 -0.11176520465E+02  0.33733957158E+01 -0.43456838940E+01  0.12457101463E+02  0.00000000000E+00 0.  1.
</event>
<event>
 7    1  0.5849044E-013  0.5052886E+02  0.7816164E-02  0.1300439E+00
        -11   -1    0    0    0    0  0.00000000000E+00  0.00000000000E+00  0.45593999997E+02  0.45594000000E+02  0.51100000000E-03 0.  1.
         11   -1    0    0    0    0 -0.00000000000E+00 -0.00000000000E+00 -0.45593999997E+02  0.45594000000E+02  0.51100000000E-03 0. -1.
    9900012    2    1    2    0    0  0.22836969034E+02 -0.16641669941E+02  0.29235143909E+02  0.50528856226E+02  0.29999988983E+02 0.  0.
         12    1    1    2    0    0 -0.22836969034E+02  0.16641669941E+02 -0.29235143909E+02  0.40659143774E+02  0.00000000000E+00 0. -1.
         11    1    3    3    0    0 -0.26814869927E+01 -0.10884993023E+02  0.14924535177E+02  0.18665883213E+02  0.51100000000E-03 0. -1.
        -11    1    3    3    0    0  0.88737820229E+01 -0.32428769877E+00  0.10841564918E+02  0.14013875268E+02  0.51100000000E-03 0.  1.
         12    1    3    3    0    0  0.16644674004E+02 -0.54323892187E+01  0.34690438146E+01  0.17849097745E+02  0.00000000000E+00 0. -1.
</event>
<event>
 7    1  0.5849044E-013  0.5052886E+02  0.7816164E-02  0.1300439E+00
        -11   -1    0    0    0    0  0.00000000000E+00  0.00000000000E+00  0.45593999997E+02  0.45594000000E+02  0.51100000000E-03 0.  1.
         11   -1    0    0    0    0 -0.00000000000E+00 -0.00000000000E+00 -0.45593999997E+02  0.45594000000E+02  0.51100000000E-03 0. -1.
    9900012    2    1    2    0    0  0.30215652678E+02 -0.24513974991E+02  0.11800204096E+02  0.50528862609E+02  0.30000008387E+02 0.  0.
         12    1    1    2    0    0 -0.30215652678E+02  0.24513974991E+02 -0.11800204096E+02  0.40659137391E+02  0.00000000000E+00 0. -1.
         11    1    3    3    0    0  0.26599072474E+01 -0.79014951421E+01 -0.43087295145E+01  0.93847686352E+01  0.51100000000E-03 0. -1.
        -11    1    3    3    0    0  0.23575839622E+02 -0.17968875664E+02  0.19718772876E+02  0.35602397539E+02  0.51100000000E-03 0.  1.
         12    1    3    3    0    0  0.39799058089E+01  0.13563958145E+01 -0.36098392660E+01  0.55416964352E+01  0.00000000000E+00 0. -1.
</event>
<event>
 7    1  0.5849044E-013  0.5052887E+02  0.7816164E-02  0.1300439E+00
        -11   -1    0    0    0    0  0.00000000000E+00  0.00000000000E+00  0.45593999997E+02  0.45594000000E+02  0.51100000000E-03 0.  1.
         11   -1    0    0    0    0 -0.00000000000E+00 -0.00000000000E+00 -0.45593999997E+02  0.45594000000E+02  0.51100000000E-03 0. -1.
    9900012    2    1    2    0    0  0.13249391242E+02 -0.30847544563E+02  0.22935732142E+02  0.50528865937E+02  0.30000018503E+02 0.  0.
         12    1    1    2    0    0 -0.13249391242E+02  0.30847544563E+02 -0.22935732142E+02  0.40659134063E+02  0.00000000000E+00 0. -1.
         11    1    3    3    0    0 -0.33701170987E+01 -0.12074566387E+02  0.48299144227E+01  0.13434318602E+02  0.51100000000E-03 0. -1.
        -11    1    3    3    0    0  0.21175489305E+02 -0.17841104858E+02  0.14874399858E+02  0.31431737802E+02  0.51100000000E-03 0.  1.
        -12    1    3    3    0    0 -0.45559809639E+01 -0.93187331790E+00  0.32314178615E+01  0.56628095341E+01  0.00000000000E+00 0.  1.
</event>
<event>
 7    1  0.5849044E-013  0.5052899E+02  0.7816164E-02  0.1300438E+00
        -11   -1    0    0    0    0  0.00000000000E+00  0.00000000000E+00  0.45593999997E+02  0.45594000000E+02  0.51100000000E-03 0.  1.
         11   -1    0    0    0    0 -0.00000000000E+00 -0.00000000000E+00 -0.45593999997E+02  0.45594000000E+02  0.51100000000E-03 0. -1.
    9900012    2    1    2    0    0  0.36329486803E+02 -0.17348417809E+02  0.56882060684E+01  0.50528992387E+02  0.30000402856E+02 0.  0.
         12    1    1    2    0    0 -0.36329486803E+02  0.17348417809E+02 -0.56882060684E+01  0.40659007613E+02  0.00000000000E+00 0. -1.
         11    1    3    3    0    0 -0.18349603690E+01  0.18218506047E+01 -0.22349724283E+01  0.34177947858E+01  0.51100000000E-03 0. -1.
        -11    1    3    3    0    0  0.27963710932E+02 -0.10935589530E+02  0.13429086676E+02  0.32892196897E+02  0.51100000000E-03 0.  1.
        -12    1    3    3    0    0  0.10200736239E+02 -0.82346788832E+01 -0.55059081797E+01  0.14219000704E+02  0.00000000000E+00 0.  1.
</event>
<event>
 7    1  0.5849044E-013  0.5052884E+02  0.7816164E-02  0.1300439E+00
        -11   -1    0    0    0    0  0.00000000000E+00  0.00000000000E+00  0.45593999997E+02  0.45594000000E+02  0.51100000000E-03 0.  1.
         11   -1    0    0    0    0 -0.00000000000E+00 -0.00000000000E+00 -0.45593999997E+02  0.45594000000E+02  0.51100000000E-03 0. -1.
    9900012    2    1    2    0    0  0.61120459283E+01 -0.31245229363E+02  0.25289241950E+02  0.50528840862E+02  0.29999942285E+02 0.  0.
         12    1    1    2    0    0 -0.61120459283E+01  0.31245229363E+02 -0.25289241950E+02  0.40659159138E+02  0.00000000000E+00 0. -1.
         11    1    3    3    0    0  0.36722480781E+01 -0.22724784942E+01  0.13005987535E+02  0.13704206525E+02  0.51100000000E-03 0. -1.
        -11    1    3    3    0    0 -0.18900795610E+00 -0.18263209779E+02 -0.24433205615E+01  0.18426892604E+02  0.51100000000E-03 0.  1.
        -12    1    3    3    0    0  0.26288058063E+01 -0.10709541090E+02  0.14726574976E+02  0.18397741733E+02  0.00000000000E+00 0.  1.
</event>
<event>
 7    1  0.5849044E-013  0.5052886E+02  0.7816164E-02  0.1300439E+00
        -11   -1    0    0    0    0  0.00000000000E+00  0.00000000000E+00  0.45593999997E+02  0.45594000000E+02  0.51100000000E-03 0.  1.
         11   -1    0    0    0    0 -0.00000000000E+00 -0.00000000000E+00 -0.45593999997E+02  0.45594000000E+02  0.51100000000E-03 0. -1.
    9900012    2    1    2    0    0  0.44478766540E+01 -0.29859307140E+02  0.27236074088E+02  0.50528861282E+02  0.30000004351E+02 0.  0.
         12    1    1    2    0    0 -0.44478766540E+01  0.29859307140E+02 -0.27236074088E+02  0.40659138718E+02  0.00000000000E+00 0. -1.
         11    1    3    3    0    0 -0.32638012072E+01 -0.28531677372E+01 -0.16406345892E+01  0.46351533495E+01  0.51100000000E-03 0. -1.
        -11    1    3    3    0    0 -0.15763877438E+00 -0.27605581906E+02  0.24255938442E+02  0.36748381629E+02  0.51100000000E-03 0.  1.
        -12    1    3    3    0    0  0.78693166356E+01  0.59944250366E+00  0.46207702348E+01  0.91453263030E+01  0.00000000000E+00 0.  1.
</event>
<event>
 7    1  0.5849044E-013  0.5052886E+02  0.7816164E-02  0.1300439E+00
        -11   -1    0    0    0    0  0.00000000000E+00  0.00000000000E+00  0.45593999997E+02  0.45594000000E+02  0.51100000000E-03 0. -1.
         11   -1    0    0    0    0 -0.00000000000E+00 -0.00000000000E+00 -0.45593999997E+02  0.45594000000E+02  0.51100000000E-03 0.  1.
    9900012    2    1    2    0    0  0.16634297488E+02 -0.25439494586E+01 -0.37013429762E+02  0.50528861858E+02  0.30000006102E+02 0.  0.
         12    1    1    2    0    0 -0.16634297488E+02  0.25439494586E+01  0.37013429762E+02  0.40659138142E+02  0.00000000000E+00 0. -1.
         11    1    3    3    0    0 -0.68876950074E+00 -0.52193597302E+01 -0.14417908492E+02  0.15349013160E+02  0.51100000000E-03 0. -1.
        -11    1    3    3    0    0  0.20321367412E+02  0.25032590526E+01 -0.24260623557E+02  0.31745899499E+02  0.51100000000E-03 0.  1.
        -12    1    3    3    0    0 -0.29983004233E+01  0.17215121889E+00  0.16651022878E+01  0.34339491987E+01  0.00000000000E+00 0.  1.
</event>
<event>
 7    1  0.5849044E-013  0.5052888E+02  0.7816164E-02  0.1300439E+00
        -11   -1    0    0    0    0  0.00000000000E+00  0.00000000000E+00  0.45593999997E+02  0.45594000000E+02  0.51100000000E-03 0. -1.
         11   -1    0    0    0    0 -0.00000000000E+00 -0.00000000000E+00 -0.45593999997E+02  0.45594000000E+02  0.51100000000E-03 0.  1.
    9900012    2    1    2    0    0  0.57030875577E+01  0.34274851307E+02 -0.21115715287E+02  0.50528879597E+02  0.30000060024E+02 0.  0.
         12    1    1    2    0    0 -0.57030875577E+01 -0.34274851307E+02  0.21115715287E+02  0.40659120403E+02  0.00000000000E+00 0. -1.
         11    1    3    3    0    0  0.99082681116E+01  0.48977198935E+01 -0.14521207217E+02  0.18249024533E+02  0.51100000000E-03 0.  1.
        -11    1    3    3    0    0 -0.37256479119E+01  0.17054337701E+02 -0.91146963840E+01  0.19692855994E+02  0.51100000000E-03 0. -1.
         12    1    3    3    0    0 -0.47953264194E+00  0.12322793713E+02  0.25201883136E+01  0.12586999070E+02  0.00000000000E+00 0. -1.
</event>
<event>
 7    1  0.5849044E-013  0.5052886E+02  0.7816164E-02  0.1300439E+00
        -11   -1    0    0    0    0  0.00000000000E+00  0.00000000000E+00  0.45593999997E+02  0.45594000000E+02  0.51100000000E-03 0.  1.
         11   -1    0    0    0    0 -0.00000000000E+00 -0.00000000000E+00 -0.45593999997E+02  0.45594000000E+02  0.51100000000E-03 0. -1.
    9900012    2    1    2    0    0  0.15211632548E+02  0.76765817893E+01  0.36916688742E+02  0.50528861047E+02  0.30000003639E+02 0.  0.
         12    1    1    2    0    0 -0.15211632548E+02 -0.76765817893E+01 -0.36916688742E+02  0.40659138953E+02  0.00000000000E+00 0. -1.
         11    1    3    3    0    0  0.78898995408E+01  0.58994481866E+01  0.28537720388E+02  0.30190321112E+02  0.51100000000E-03 0. -1.
        -11    1    3    3    0    0  0.12839505941E+02  0.19933236591E+01  0.54777244248E+01  0.14100770091E+02  0.51100000000E-03 0.  1.
         12    1    3    3    0    0 -0.55177729341E+01 -0.21619005647E+00  0.29012439289E+01  0.62377698441E+01  0.00000000000E+00 0. -1.
</event>
<event>
 7    1  0.5849044E-013  0.5052886E+02  0.7816164E-02  0.1300439E+00
        -11   -1    0    0    0    0  0.00000000000E+00  0.00000000000E+00  0.45593999997E+02  0.45594000000E+02  0.51100000000E-03 0. -1.
         11   -1    0    0    0    0 -0.00000000000E+00 -0.00000000000E+00 -0.45593999997E+02  0.45594000000E+02  0.51100000000E-03 0.  1.
    9900012    2    1    2    0    0  0.24892424165E+02  0.11402748879E+02 -0.30058443615E+02  0.50528862092E+02  0.30000006816E+02 0.  0.
         12    1    1    2    0    0 -0.24892424165E+02 -0.11402748879E+02  0.30058443615E+02  0.40659137908E+02  0.00000000000E+00 0. -1.
         11    1    3    3    0    0  0.11726277219E+02 -0.68550424821E+01 -0.18917081971E+02  0.23288477310E+02  0.51100000000E-03 0. -1.
        -11    1    3    3    0    0  0.13697783975E+02  0.18869022066E+02 -0.11858029413E+02  0.26158787077E+02  0.51100000000E-03 0.  1.
         12    1    3    3    0    0 -0.53163702877E+00 -0.61123070552E+00  0.71666776811E+00  0.10815977051E+01  0.00000000000E+00 0. -1.
</event>
<event>
 7    1  0.5849044E-013  0.5052886E+02  0.7816164E-02  0.1300439E+00
        -11   -1    0    0    0    0  0.00000000000E+00  0.00000000000E+00  0.45593999997E+02  0.45594000000E+02  0.51100000000E-03 0.  1.
         11   -1    0    0    0    0 -0.00000000000E+00 -0.00000000000E+00 -0.45593999997E+02  0.45594000000E+02  0.51100000000E-03 0. -1.
    9900012    2    1    2    0    0  0.16768451898E+02  0.85389977935E+01  0.36042619008E+02  0.50528857765E+02  0.29999993662E+02 0.  0.
         12    1    1    2    0    0 -0.16768451898E+02 -0.85389977935E+01 -0.36042619008E+02  0.40659142235E+02  0.00000000000E+00 0. -1.
         11    1    3    3    0    0  0.97842220036E+01 -0.43794642270E+01  0.97075877895E+01  0.14461948972E+02  0.51100000000E-03 0. -1.
        -11    1    3    3    0    0 -0.10257498566E+01  0.15948580004E+02  0.15585199061E+02  0.22322808894E+02  0.51100000000E-03 0.  1.
        -12    1    3    3    0    0  0.80099797508E+01 -0.30301179833E+01  0.10749832157E+02  0.13744099898E+02  0.00000000000E+00 0.  1.
</event>
<event>
 7    1  0.5849044E-013  0.5052886E+02  0.7816164E-02  0.1300439E+00
        -11   -1    0    0    0    0  0.00000000000E+00  0.00000000000E+00  0.45593999997E+02  0.45594000000E+02  0.51100000000E-03 0.  1.
         11   -1    0    0    0    0 -0.00000000000E+00 -0.00000000000E+00 -0.45593999997E+02  0.45594000000E+02  0.51100000000E-03 0. -1.
    9900012    2    1    2    0    0 -0.33352605113E+02  0.23178920860E+02 -0.18726441629E+01  0.50528862820E+02  0.30000009028E+02 0.  0.
         12    1    1    2    0    0  0.33352605113E+02 -0.23178920860E+02  0.18726441629E+01  0.40659137180E+02  0.00000000000E+00 0. -1.
         11    1    3    3    0    0 -0.42608024924E+01  0.97510911969E+01 -0.11903816157E+02  0.15966811102E+02  0.51100000000E-03 0. -1.
        -11    1    3    3    0    0 -0.26717359711E+02  0.11967065584E+02  0.63695552092E+01  0.29959959987E+02  0.51100000000E-03 0.  1.
         12    1    3    3    0    0 -0.23744429097E+01  0.14607640790E+01  0.36616167844E+01  0.46020917311E+01  0.00000000000E+00 0. -1.
</event>
<event>
 7    1  0.5849044E-013  0.5052885E+02  0.7816164E-02  0.1300439E+00
        -11   -1    0    0    0    0  0.00000000000E+00  0.00000000000E+00  0.45593999997E+02  0.45594000000E+02  0.51100000000E-03 0.  1.
         11   -1    0    0    0    0 -0.00000000000E+00 -0.00000000000E+00 -0.45593999997E+02  0.45594000000E+02  0.51100000000E-03 0. -1.
    9900012    2    1    2    0    0  0.83028779065E+01  0.30527071383E+02  0.25540682963E+02  0.50528851522E+02  0.29999974687E+02 0.  0.
         12    1    1    2    0    0 -0.83028779065E+01 -0.30527071383E+02 -0.25540682963E+02  0.40659148478E+02  0.00000000000E+00 0. -1.
         11    1    3    3    0    0 -0.39664595602E+01  0.71331604741E+01  0.14898363278E+02  0.16987525082E+02  0.51100000000E-03 0. -1.
        -11    1    3    3    0    0  0.64694006194E+01  0.24880879178E+02  0.75028810527E+01  0.26780674327E+02  0.51100000000E-03 0.  1.
        -12    1    3    3    0    0  0.57999368473E+01 -0.14869682696E+01  0.31394386318E+01  0.67606521129E+01  0.00000000000E+00 0.  1.
</event>
<event>
 7    1  0.5849044E-013  0.5052889E+02  0.7816164E-02  0.1300439E+00
        -11   -1    0    0    0    0  0.00000000000E+00  0.00000000000E+00  0.45593999997E+02  0.45594000000E+02  0.51100000000E-03 0.  1.
         11   -1    0    0    0    0 -0.00000000000E+00 -0.00000000000E+00 -0.45593999997E+02  0.45594000000E+02  0.51100000000E-03 0. -1.
    9900012    2    1    2    0    0  0.29892543805E+02  0.63941276690E+00  0.27553410424E+02  0.50528887247E+02  0.30000083277E+02 0.  0.
         12    1    1    2    0    0 -0.29892543805E+02 -0.63941276690E+00 -0.27553410424E+02  0.40659112753E+02  0.00000000000E+00 0. -1.
         11    1    3    3    0    0  0.42530155471E+01  0.73622338331E+01 -0.30717678279E+01  0.90402647144E+01  0.51100000000E-03 0. -1.
        -11    1    3    3    0    0  0.12769702641E+02 -0.33050406096E+01  0.85849151375E+01  0.15738150055E+02  0.51100000000E-03 0.  1.
         12    1    3    3    0    0  0.12869825617E+02 -0.34177804566E+01  0.22040263115E+02  0.25750472478E+02  0.00000000000E+00 0. -1.
</event>
<event>
 7    1  0.5849044E-013  0.5052886E+02  0.7816164E-02  0.1300439E+00
        -11   -1    0    0    0    0  0.00000000000E+00  0.00000000000E+00  0.45593999997E+02  0.45594000000E+02  0.51100000000E-03 0.  1.
         11   -1    0    0    0    0 -0.00000000000E+00 -0.00000000000E+00 -0.45593999997E+02  0.45594000000E+02  0.51100000000E-03 0. -1.
    9900012    2    1    2    0    0  0.14074722042E+02 -0.15545547014E+02  0.34833948185E+02  0.50528858608E+02  0.29999996225E+02 0.  0.
         12    1    1    2    0    0 -0.14074722042E+02  0.15545547014E+02 -0.34833948185E+02  0.40659141392E+02  0.00000000000E+00 0. -1.
         11    1    3    3    0    0 -0.34752538672E+00  0.20273373372E+01 -0.41868151203E+01  0.46647927806E+01  0.51100000000E-03 0. -1.
        -11    1    3    3    0    0  0.34741910020E+01 -0.10248043124E+02  0.19776983224E+02  0.22543767580E+02  0.51100000000E-03 0.  1.
         12    1    3    3    0    0  0.10948056427E+02 -0.73248412278E+01  0.19243780082E+02  0.23320298248E+02  0.00000000000E+00 0. -1.
</event>
<event>
 7    1  0.5849044E-013  0.5052886E+02  0.7816164E-02  0.1300439E+00
        -11   -1    0    0    0    0  0.00000000000E+00  0.00000000000E+00  0.45593999997E+02  0.45594000000E+02  0.51100000000E-03 0.  1.
         11   -1    0    0    0    0 -0.00000000000E+00 -0.00000000000E+00 -0.45593999997E+02  0.45594000000E+02  0.51100000000E-03 0. -1.
    9900012    2    1    2    0    0  0.15134498206E+02 -0.34268237590E+02  0.15805083930E+02  0.50528858082E+02  0.29999994627E+02 0.  0.
         12    1    1    2    0    0 -0.15134498206E+02  0.34268237590E+02 -0.15805083930E+02  0.40659141918E+02  0.00000000000E+00 0. -1.
         11    1    3    3    0    0 -0.70704550907E+01 -0.57295788375E+01 -0.19286151310E+01  0.93026321775E+01  0.51100000000E-03 0. -1.
        -11    1    3    3    0    0  0.11321891299E+01 -0.53101151461E+01  0.49865101404E+01  0.73718694191E+01  0.51100000000E-03 0.  1.
         12    1    3    3    0    0  0.21072764166E+02 -0.23228543606E+02  0.12747188921E+02  0.33854356486E+02  0.00000000000E+00 0. -1.
</event>
<event>
 7    1  0.5849044E-013  0.5052886E+02  0.7816164E-02  0.1300439E+00
        -11   -1    0    0    0    0  0.00000000000E+00  0.00000000000E+00  0.45593999997E+02  0.45594000000E+02  0.51100000000E-03 0.  1.
         11   -1    0    0    0    0 -0.00000000000E+00 -0.00000000000E+00 -0.45593999997E+02  0.45594000000E+02  0.51100000000E-03 0. -1.
    9900012    2    1    2    0    0  0.46755316386E+01  0.34089161145E+01  0.40245304392E+02  0.50528857968E+02  0.29999994279E+02 0.  0.
         12    1    1    2    0    0 -0.46755316386E+01 -0.34089161145E+01 -0.40245304392E+02  0.40659142032E+02  0.00000000000E+00 0. -1.
         11    1    3    3    0    0  0.43054456446E+01  0.55683512248E+00  0.27603831056E+01  0.51445741032E+01  0.51100000000E-03 0. -1.
        -11    1    3    3    0    0 -0.71317528873E+01  0.86885436011E+01  0.33024097993E+02  0.34884720691E+02  0.51100000000E-03 0.  1.
        -12    1    3    3    0    0  0.75018388813E+01 -0.58364626090E+01  0.44608232934E+01  0.10499563174E+02  0.00000000000E+00 0.  1.
</event>
<event>
 7    1  0.5849044E-013  0.5052887E+02  0.7816164E-02  0.1300439E+00
        -11   -1    0    0    0    0  0.00000000000E+00  0.00000000000E+00  0.45593999997E+02  0.45594000000E+02  0.51100000000E-03 0.  1.
         11   -1    0    0    0    0 -0.00000000000E+00 -0.00000000000E+00 -0.45593999997E+02  0.45594000000E+02  0.51100000000E-03 0. -1.
    9900012    2    1    2    0    0 -0.30046039453E+02 -0.25381351664E+01  0.27275600833E+02  0.50528867966E+02  0.30000024669E+02 0.  0.
         12    1    1    2    0    0  0.30046039453E+02  0.25381351664E+01 -0.27275600833E+02  0.40659132034E+02  0.00000000000E+00 0. -1.
         11    1    3    3    0    0  0.28780421454E+01 -0.44150357204E+01  0.30949014439E+01  0.61117986070E+01  0.51100000000E-03 0. -1.
        -11    1    3    3    0    0 -0.30454829519E+02  0.51225024508E+01  0.25584948976E+02  0.40103943531E+02  0.51100000000E-03 0.  1.
        -12    1    3    3    0    0 -0.24692520792E+01 -0.32456018968E+01 -0.14042495861E+01  0.43131258274E+01  0.00000000000E+00 0.  1.
</event>
<event>
 7    1  0.5849044E-013  0.5052886E+02  0.7816164E-02  0.1300439E+00
        -11   -1    0    0    0    0  0.00000000000E+00  0.00000000000E+00  0.45593999997E+02  0.45594000000E+02  0.51100000000E-03 0.  1.
         11   -1    0    0    0    0 -0.00000000000E+00 -0.00000000000E+00 -0.45593999997E+02  0.45594000000E+02  0.51100000000E-03 0. -1.
    9900012    2    1    2    0    0 -0.68047885456E+01  0.12188833967E+02  0.38187604793E+02  0.50528856128E+02  0.29999988686E+02 0.  0.
         12    1    1    2    0    0  0.68047885456E+01 -0.12188833967E+02 -0.38187604793E+02  0.40659143872E+02  0.00000000000E+00 0. -1.
         11    1    3    3    0    0 -0.36125716949E+01  0.12528852998E+02  0.92116050865E+01  0.15964852027E+02  0.51100000000E-03 0.  1.
        -11    1    3    3    0    0 -0.67646859086E+01 -0.77964998648E+01  0.18850892803E+02  0.21491918139E+02  0.51100000000E-03 0. -1.
         12    1    3    3    0    0  0.35724690579E+01  0.74564808333E+01  0.10125106903E+02  0.13072085962E+02  0.00000000000E+00 0. -1.
</event>
<event>
 7    1  0.5849044E-013  0.5052886E+02  0.7816164E-02  0.1300439E+00
        -11   -1    0    0    0    0  0.00000000000E+00  0.00000000000E+00  0.45593999997E+02  0.45594000000E+02  0.51100000000E-03 0.  1.
         11   -1    0    0    0    0 -0.00000000000E+00 -0.00000000000E+00 -0.45593999997E+02  0.45594000000E+02  0.51100000000E-03 0. -1.
    9900012    2    1    2    0    0  0.38154431328E+02  0.45516251395E+01  0.13292400024E+02  0.50528858103E+02  0.29999994691E+02 0.  0.
         12    1    1    2    0    0 -0.38154431328E+02 -0.45516251395E+01 -0.13292400024E+02  0.40659141897E+02  0.00000000000E+00 0. -1.
         11    1    3    3    0    0 -0.20610905792E+00  0.34384788706E+01  0.36157493954E+01  0.49939224903E+01  0.51100000000E-03 0. -1.
        -11    1    3    3    0    0  0.18584851577E+02 -0.99017646425E+01  0.37345212275E+00  0.21061365528E+02  0.51100000000E-03 0.  1.
        -12    1    3    3    0    0  0.19775688809E+02  0.11014910911E+02  0.93031985053E+01  0.24473570085E+02  0.00000000000E+00 0.  1.
</event>
<event>
 7    1  0.5849044E-013  0.5052887E+02  0.7816164E-02  0.1300439E+00
        -11   -1    0    0    0    0  0.00000000000E+00  0.00000000000E+00  0.45593999997E+02  0.45594000000E+02  0.51100000000E-03 0. -1.
         11   -1    0    0    0    0 -0.00000000000E+00 -0.00000000000E+00 -0.45593999997E+02  0.45594000000E+02  0.51100000000E-03 0.  1.
    9900012    2    1    2    0    0  0.27836663431E+02 -0.21586513491E+02 -0.20305348850E+02  0.50528873256E+02  0.30000040748E+02 0.  0.
         12    1    1    2    0    0 -0.27836663431E+02  0.21586513491E+02  0.20305348850E+02  0.40659126744E+02  0.00000000000E+00 0. -1.
         11    1    3    3    0    0  0.18222788042E+01  0.41202040002E+01  0.27276435339E+01  0.52665757901E+01  0.51100000000E-03 0. -1.
        -11    1    3    3    0    0  0.19762432087E+02 -0.26048378421E+02 -0.19610483012E+02  0.38126667630E+02  0.51100000000E-03 0.  1.
        -12    1    3    3    0    0  0.62519525399E+01  0.34166092933E+00 -0.34225093721E+01  0.71356298358E+01  0.00000000000E+00 0.  1.
</event>
<event>
 7    1  0.5849044E-013  0.5052887E+02  0.7816164E-02  0.1300439E+00
        -11   -1    0    0    0    0  0.00000000000E+00  0.00000000000E+00  0.45593999997E+02  0.45594000000E+02  0.51100000000E-03 0. -1.
         11   -1    0    0    0    0 -0.00000000000E+00 -0.00000000000E+00 -0.45593999997E+02  0.45594000000E+02  0.51100000000E-03 0.  1.
    9900012    2    1    2    0    0 -0.32937791724E+02  0.23309412573E+02 -0.49938332253E+01  0.50528865621E+02  0.30000017543E+02 0.  0.
         12    1    1    2    0    0  0.32937791724E+02 -0.23309412573E+02  0.49938332253E+01  0.40659134379E+02  0.00000000000E+00 0. -1.
         11    1    3    3    0    0  0.15936592111E+01  0.27341762036E-01 -0.22067368872E+01  0.27221655356E+01  0.51100000000E-03 0. -1.
        -11    1    3    3    0    0 -0.31823761841E+02  0.14695997880E+02 -0.97970811029E+01  0.36396524144E+02  0.51100000000E-03 0.  1.
        -12    1    3    3    0    0 -0.27076890938E+01  0.85860729314E+01  0.70099847648E+01  0.11410175941E+02  0.00000000000E+00 0.  1.
</event>
<event>
 7    1  0.5849044E-013  0.5052887E+02  0.7816164E-02  0.1300439E+00
        -11   -1    0    0    0    0  0.00000000000E+00  0.00000000000E+00  0.45593999997E+02  0.45594000000E+02  0.51100000000E-03 0.  1.
         11   -1    0    0    0    0 -0.00000000000E+00 -0.00000000000E+00 -0.45593999997E+02  0.45594000000E+02  0.51100000000E-03 0. -1.
    9900012    2    1    2    0    0  0.39251863857E+02 -0.61752070377E+01  0.86210797649E+01  0.50528868005E+02  0.30000024789E+02 0.  0.
         12    1    1    2    0    0 -0.39251863857E+02  0.61752070377E+01 -0.86210797649E+01  0.40659131995E+02  0.00000000000E+00 0. -1.
         11    1    3    3    0    0  0.18464829095E+02  0.16898833006E+01  0.19448019890E+01  0.18643708700E+02  0.51100000000E-03 0.  1.
        -11    1    3    3    0    0  0.11864283647E+02 -0.12992448246E+02 -0.28951537039E+01  0.17831064273E+02  0.51100000000E-03 0. -1.
        -12    1    3    3    0    0  0.89227511158E+01  0.51273579080E+01  0.95714314798E+01  0.14054095032E+02  0.00000000000E+00 0.  1.
</event>
<event>
 7    1  0.5849044E-013  0.5052888E+02  0.7816164E-02  0.1300439E+00
        -11   -1    0    0    0    0  0.00000000000E+00  0.00000000000E+00  0.45593999997E+02  0.45594000000E+02  0.51100000000E-03 0. -1.
         11   -1    0    0    0    0 -0.00000000000E+00 -0.00000000000E+00 -0.45593999997E+02  0.45594000000E+02  0.51100000000E-03 0.  1.
    9900012    2    1    2    0    0 -0.18585680412E+02 -0.31348727546E+02 -0.18027579230E+02  0.50528882350E+02  0.30000068392E+02 0.  0.
         12    1    1    2    0    0  0.18585680412E+02  0.31348727546E+02  0.18027579230E+02  0.40659117650E+02  0.00000000000E+00 0. -1.
         11    1    3    3    0    0 -0.15920922997E+02 -0.13773766242E+02 -0.64743797300E+01  0.22025213250E+02  0.51100000000E-03 0. -1.
        -11    1    3    3    0    0  0.78632106062E+01 -0.95350558858E+01 -0.82228859821E+01  0.14844636268E+02  0.51100000000E-03 0.  1.
        -12    1    3    3    0    0 -0.10527968021E+02 -0.80399054188E+01 -0.33303135183E+01  0.13659032833E+02  0.00000000000E+00 0.  1.
</event>
<event>
 7    1  0.5849044E-013  0.5052886E+02  0.7816164E-02  0.1300439E+00
        -11   -1    0    0    0    0  0.00000000000E+00  0.00000000000E+00  0.45593999997E+02  0.45594000000E+02  0.51100000000E-03 0. -1.
         11   -1    0    0    0    0 -0.00000000000E+00 -0.00000000000E+00 -0.45593999997E+02  0.45594000000E+02  0.51100000000E-03 0.  1.
    9900012    2    1    2    0    0  0.34349993196E+01 -0.38767352122E+02  0.11766850294E+02  0.50528861092E+02  0.30000003776E+02 0.  0.
         12    1    1    2    0    0 -0.34349993196E+01  0.38767352122E+02 -0.11766850294E+02  0.40659138908E+02  0.00000000000E+00 0. -1.
         11    1    3    3    0    0  0.11116038618E+02 -0.35725781194E+01  0.20867387771E+01  0.11861033174E+02  0.51100000000E-03 0. -1.
        -11    1    3    3    0    0 -0.83665747185E+01 -0.15247000441E+02  0.32072339622E+01  0.17684935536E+02  0.51100000000E-03 0.  1.
         12    1    3    3    0    0  0.68553542038E+00 -0.19947773562E+02  0.64728775542E+01  0.20982892382E+02  0.00000000000E+00 0. -1.
</event>
<event>
 7    1  0.5849044E-013  0.5052887E+02  0.7816164E-02  0.1300439E+00
        -11   -1    0    0    0    0  0.00000000000E+00  0.00000000000E+00  0.45593999997E+02  0.45594000000E+02  0.51100000000E-03 0.  1.
         11   -1    0    0    0    0 -0.00000000000E+00 -0.00000000000E+00 -0.45593999997E+02  0.45594000000E+02  0.51100000000E-03 0. -1.
    9900012    2    1    2    0    0 -0.14639826892E+02 -0.22454125204E+02  0.30572088828E+02  0.50528869594E+02  0.30000029616E+02 0.  0.
         12    1    1    2    0    0  0.14639826892E+02  0.22454125204E+02 -0.30572088828E+02  0.40659130406E+02  0.00000000000E+00 0. -1.
         11    1    3    3    0    0 -0.11412810243E+02 -0.32686687460E+01  0.46780753947E+01  0.12760126280E+02  0.51100000000E-03 0.  1.
        -11    1    3    3    0    0  0.74453648694E+00 -0.14181192763E+02  0.27701450519E+02  0.31129261538E+02  0.51100000000E-03 0. -1.
        -12    1    3    3    0    0 -0.39715531359E+01 -0.50042636947E+01 -0.18074370856E+01  0.66394817762E+01  0.00000000000E+00 0.  1.
</event>
<event>
 7    1  0.5849044E-013  0.5052884E+02  0.7816164E-02  0.1300439E+00
        -11   -1    0    0    0    0  0.00000000000E+00  0.00000000000E+00  0.45593999997E+02  0.45594000000E+02  0.51100000000E-03 0. -1.
         11   -1    0    0    0    0 -0.00000000000E+00 -0.00000000000E+00 -0.45593999997E+02  0.45594000000E+02  0.51100000000E-03 0.  1.
    9900012    2    1    2    0    0 -0.38385629908E+02 -0.11744417873E+02 -0.64636671117E+01  0.50528844486E+02  0.29999953300E+02 0.  0.
         12    1    1    2    0    0  0.38385629908E+02  0.11744417873E+02  0.64636671117E+01  0.40659155514E+02  0.00000000000E+00 0. -1.
         11    1    3    3    0    0 -0.11361971066E+02 -0.10055083454E+02  0.47509871573E+01  0.15898772563E+02  0.51100000000E-03 0. -1.
        -11    1    3    3    0    0 -0.19376619929E+02  0.63844663083E+01 -0.11664555408E+02  0.23500567292E+02  0.51100000000E-03 0.  1.
        -12    1    3    3    0    0 -0.76470389123E+01 -0.80738007267E+01  0.44990113864E+00  0.11129504631E+02  0.00000000000E+00 0.  1.
</event>
<event>
 7    1  0.5849044E-013  0.5052892E+02  0.7816164E-02  0.1300439E+00
        -11   -1    0    0    0    0  0.00000000000E+00  0.00000000000E+00  0.45593999997E+02  0.45594000000E+02  0.51100000000E-03 0.  1.
         11   -1    0    0    0    0 -0.00000000000E+00 -0.00000000000E+00 -0.45593999997E+02  0.45594000000E+02  0.51100000000E-03 0. -1.
    9900012    2    1    2    0    0 -0.15747101487E+02 -0.32645544096E+02  0.18424395058E+02  0.50528916294E+02  0.30000171567E+02 0.  0.
         12    1    1    2    0    0  0.15747101487E+02  0.32645544096E+02 -0.18424395058E+02  0.40659083706E+02  0.00000000000E+00 0. -1.
         11    1    3    3    0    0  0.36211383857E+01 -0.10250060759E+01  0.10059920577E+02  0.10740823197E+02  0.51100000000E-03 0. -1.
        -11    1    3    3    0    0 -0.12013991721E+02 -0.16330689076E+02  0.10249043788E+02  0.22717180758E+02  0.51100000000E-03 0.  1.
         12    1    3    3    0    0 -0.73542481523E+01 -0.15289848944E+02 -0.18845693074E+01  0.17070912339E+02  0.00000000000E+00 0. -1.
</event>
<event>
 7    1  0.5849044E-013  0.5052887E+02  0.7816164E-02  0.1300439E+00
        -11   -1    0    0    0    0  0.00000000000E+00  0.00000000000E+00  0.45593999997E+02  0.45594000000E+02  0.51100000000E-03 0. -1.
         11   -1    0    0    0    0 -0.00000000000E+00 -0.00000000000E+00 -0.45593999997E+02  0.45594000000E+02  0.51100000000E-03 0.  1.
    9900012    2    1    2    0    0 -0.39143434281E+02  0.79166735069E+01  0.76343186423E+01  0.50528868333E+02  0.30000025786E+02 0.  0.
         12    1    1    2    0    0  0.39143434281E+02 -0.79166735069E+01 -0.76343186423E+01  0.40659131667E+02  0.00000000000E+00 0. -1.
         11    1    3    3    0    0 -0.14666763305E+02  0.68093731316E+01  0.16278131815E+02  0.22944696205E+02  0.51100000000E-03 0. -1.
        -11    1    3    3    0    0 -0.19606415122E+02  0.32627748913E+01 -0.97592085292E+01  0.22142704561E+02  0.51100000000E-03 0.  1.
         12    1    3    3    0    0 -0.48702558549E+01 -0.21554745160E+01  0.11153953567E+01  0.54414675671E+01  0.00000000000E+00 0. -1.
</event>
<event>
 7    1  0.5849044E-013  0.5052886E+02  0.7816164E-02  0.1300439E+00
        -11   -1    0    0    0    0  0.00000000000E+00  0.00000000000E+00  0.45593999997E+02  0.45594000000E+02  0.51100000000E-03 0. -1.
         11   -1    0    0    0    0 -0.00000000000E+00 -0.00000000000E+00 -0.45593999997E+02  0.45594000000E+02  0.51100000000E-03 0.  1.
    9900012    2    1    2    0    0 -0.20051205301E+02  0.29448585245E+02 -0.19593256997E+02  0.50528859248E+02  0.29999998171E+02 0.  0.
         12    1    1    2    0    0  0.20051205301E+02 -0.29448585245E+02  0.19593256997E+02  0.40659140752E+02  0.00000000000E+00 0. -1.
         11    1    3    3    0    0 -0.37912756696E+01 -0.28819149485E+01 -0.21448192330E+01  0.52229737484E+01  0.51100000000E-03 0. -1.
        -11    1    3    3    0    0 -0.25218843349E+01  0.26763129982E+02 -0.12779064214E+02  0.29764568021E+02  0.51100000000E-03 0.  1.
        -12    1    3    3    0    0 -0.13738045297E+02  0.55673702115E+01 -0.46693735498E+01  0.15541317479E+02  0.00000000000E+00 0.  1.
</event>
<event>
 7    1  0.5849044E-013  0.5052889E+02  0.7816164E-02  0.1300439E+00
        -11   -1    0    0    0    0  0.00000000000E+00  0.00000000000E+00  0.45593999997E+02  0.45594000000E+02  0.51100000000E-03 0. -1.
         11   -1    0    0    0    0 -0.00000000000E+00 -0.00000000000E+00 -0.45593999997E+02  0.45594000000E+02  0.51100000000E-03 0.  1.
    9900012    2    1    2    0    0 -0.13667656916E+02  0.37736795541E+02 -0.65032576935E+01  0.50528893469E+02  0.30000102189E+02 0.  0.
         12    1    1    2    0    0  0.13667656916E+02 -0.37736795541E+02  0.65032576935E+01  0.40659106531E+02  0.00000000000E+00 0. -1.
         11    1    3    3    0    0 -0.24535939702E+01  0.84639139122E+00  0.32867278726E+00  0.26162048505E+01  0.51100000000E-03 0. -1.
        -11    1    3    3    0    0 -0.66828708673E+01  0.22298720560E+02  0.98627011661E+01  0.25281743931E+02  0.51100000000E-03 0.  1.
        -12    1    3    3    0    0 -0.45311920783E+01  0.14591683590E+02 -0.16694631647E+02  0.22630944688E+02  0.00000000000E+00 0.  1.
</event>
<event>
 7    1  0.5849044E-013  0.5052886E+02  0.7816164E-02  0.1300439E+00
        -11   -1    0    0    0    0  0.00000000000E+00  0.00000000000E+00  0.45593999997E+02  0.45594000000E+02  0.51100000000E-03 0.  1.
         11   -1    0    0    0    0 -0.00000000000E+00 -0.00000000000E+00 -0.45593999997E+02  0.45594000000E+02  0.51100000000E-03 0. -1.
    9900012    2    1    2    0    0 -0.20266573791E+02  0.12997825531E+02  0.32764132292E+02  0.50528857774E+02  0.29999993689E+02 0.  0.
         12    1    1    2    0    0  0.20266573791E+02 -0.12997825531E+02 -0.32764132292E+02  0.40659142226E+02  0.00000000000E+00 0. -1.
         11    1    3    3    0    0 -0.61089662234E+01  0.22345311267E+01  0.19640444784E+02  0.20689602926E+02  0.51100000000E-03 0. -1.
        -11    1    3    3    0    0  0.24919883168E+01  0.75279879640E+01 -0.69702848340E+00  0.79603051151E+01  0.51100000000E-03 0.  1.
         12    1    3    3    0    0 -0.16649595884E+02  0.32353064401E+01  0.13820715991E+02  0.21878949732E+02  0.00000000000E+00 0. -1.
</event>
<event>
 7    1  0.5849044E-013  0.5052885E+02  0.7816164E-02  0.1300439E+00
        -11   -1    0    0    0    0  0.00000000000E+00  0.00000000000E+00  0.45593999997E+02  0.45594000000E+02  0.51100000000E-03 0. -1.
         11   -1    0    0    0    0 -0.00000000000E+00 -0.00000000000E+00 -0.45593999997E+02  0.45594000000E+02  0.51100000000E-03 0.  1.
    9900012    2    1    2    0    0 -0.35338804002E+02  0.15567672098E+02  0.12727268546E+02  0.50528845465E+02  0.29999956276E+02 0.  0.
         12    1    1    2    0    0  0.35338804002E+02 -0.15567672098E+02 -0.12727268546E+02  0.40659154535E+02  0.00000000000E+00 0. -1.
         11    1    3    3    0    0  0.35695277322E+01  0.52629403115E+01  0.41663122354E+01  0.76025145089E+01  0.51100000000E-03 0. -1.
        -11    1    3    3    0    0 -0.22571689706E+02  0.11585763163E+02  0.26646267640E+01  0.25511003906E+02  0.51100000000E-03 0.  1.
        -12    1    3    3    0    0 -0.16336642028E+02 -0.12810313765E+01  0.58963295465E+01  0.17415327050E+02  0.00000000000E+00 0.  1.
</event>
<event>
 7    1  0.5849044E-013  0.5052886E+02  0.7816164E-02  0.1300439E+00
        -11   -1    0    0    0    0  0.00000000000E+00  0.00000000000E+00  0.45593999997E+02  0.45594000000E+02  0.51100000000E-03 0.  1.
         11   -1    0    0    0    0 -0.00000000000E+00 -0.00000000000E+00 -0.45593999997E+02  0.45594000000E+02  0.51100000000E-03 0. -1.
    9900012    2    1    2    0    0  0.27943384488E+02  0.28970754650E+02  0.57470008799E+01  0.50528863502E+02  0.30000011100E+02 0.  0.
         12    1    1    2    0    0 -0.27943384488E+02 -0.28970754650E+02 -0.57470008799E+01  0.40659136498E+02  0.00000000000E+00 0. -1.
         11    1    3    3    0    0  0.23124500412E+02  0.22845740190E+02  0.11314077833E+02  0.34419162129E+02  0.51100000000E-03 0. -1.
        -11    1    3    3    0    0 -0.24149567012E+00 -0.25449167507E+01  0.22350198312E+01  0.33956200220E+01  0.51100000000E-03 0.  1.
         12    1    3    3    0    0  0.50603797462E+01  0.86699312107E+01 -0.78020967843E+01  0.12714081351E+02  0.00000000000E+00 0. -1.
</event>
<event>
 7    1  0.5849044E-013  0.5052883E+02  0.7816164E-02  0.1300439E+00
        -11   -1    0    0    0    0  0.00000000000E+00  0.00000000000E+00  0.45593999997E+02  0.45594000000E+02  0.51100000000E-03 0.  1.
         11   -1    0    0    0    0 -0.00000000000E+00 -0.00000000000E+00 -0.45593999997E+02  0.45594000000E+02  0.51100000000E-03 0. -1.
    9900012    2    1    2    0    0  0.70426424981E+01 -0.12382684323E+02  0.38081995884E+02  0.50528830125E+02  0.29999909648E+02 0.  0.
         12    1    1    2    0    0 -0.70426424981E+01  0.12382684323E+02 -0.38081995884E+02  0.40659169875E+02  0.00000000000E+00 0. -1.
         11    1    3    3    0    0 -0.59264535579E+01 -0.12294887461E+02  0.20268736817E+02  0.24435809826E+02  0.51100000000E-03 0. -1.
        -11    1    3    3    0    0  0.10980674662E+02 -0.57697140882E+01  0.86240032762E+01  0.15107556039E+02  0.51100000000E-03 0.  1.
         12    1    3    3    0    0  0.19884213940E+01  0.56819172268E+01  0.91892557914E+01  0.10985464260E+02  0.00000000000E+00 0. -1.
</event>
<event>
 7    1  0.5849044E-013  0.5052886E+02  0.7816164E-02  0.1300439E+00
        -11   -1    0    0    0    0  0.00000000000E+00  0.00000000000E+00  0.45593999997E+02  0.45594000000E+02  0.51100000000E-03 0.  1.
         11   -1    0    0    0    0 -0.00000000000E+00 -0.00000000000E+00 -0.45593999997E+02  0.45594000000E+02  0.51100000000E-03 0. -1.
    9900012    2    1    2    0    0  0.26890260401E+01 -0.18215643299E-02  0.40570119257E+02  0.50528862762E+02  0.30000008852E+02 0.  0.
         12    1    1    2    0    0 -0.26890260401E+01  0.18215643299E-02 -0.40570119257E+02  0.40659137238E+02  0.00000000000E+00 0. -1.
         11    1    3    3    0    0  0.12248420228E+02 -0.50548834291E+01  0.31317377922E+02  0.34005202612E+02  0.51100000000E-03 0. -1.
        -11    1    3    3    0    0  0.61217290043E+00  0.32946567481E+01  0.26232453643E+01  0.42556944498E+01  0.51100000000E-03 0.  1.
         12    1    3    3    0    0 -0.10171567088E+02  0.17584051167E+01  0.66294959714E+01  0.12267965700E+02  0.00000000000E+00 0. -1.
</event>
<event>
 7    1  0.5849044E-013  0.5052886E+02  0.7816164E-02  0.1300439E+00
        -11   -1    0    0    0    0  0.00000000000E+00  0.00000000000E+00  0.45593999997E+02  0.45594000000E+02  0.51100000000E-03 0.  1.
         11   -1    0    0    0    0 -0.00000000000E+00 -0.00000000000E+00 -0.45593999997E+02  0.45594000000E+02  0.51100000000E-03 0. -1.
    9900012    2    1    2    0    0 -0.29321927210E+01  0.36961119318E+02  0.16686637302E+02  0.50528856381E+02  0.29999989456E+02 0.  0.
         12    1    1    2    0    0  0.29321927210E+01 -0.36961119318E+02 -0.16686637302E+02  0.40659143619E+02  0.00000000000E+00 0. -1.
         11    1    3    3    0    0  0.45721769754E+01 -0.24177728442E+01  0.19702458388E+01  0.55346451329E+01  0.51100000000E-03 0. -1.
        -11    1    3    3    0    0 -0.11118972666E+02  0.23249730294E+02  0.67258684873E+01  0.26634917290E+02  0.51100000000E-03 0.  1.
         12    1    3    3    0    0  0.36146029701E+01  0.16129161868E+02  0.79905229759E+01  0.18359293958E+02  0.00000000000E+00 0. -1.
</event>
<event>
 7    1  0.5849044E-013  0.5052886E+02  0.7816164E-02  0.1300439E+00
        -11   -1    0    0    0    0  0.00000000000E+00  0.00000000000E+00  0.45593999997E+02  0.45594000000E+02  0.51100000000E-03 0.  1.
         11   -1    0    0    0    0 -0.00000000000E+00 -0.00000000000E+00 -0.45593999997E+02  0.45594000000E+02  0.51100000000E-03 0. -1.
    9900012    2    1    2    0    0 -0.21408152066E+02 -0.17860470144E+02  0.29594936853E+02  0.50528860118E+02  0.30000000814E+02 0.  0.
         12    1    1    2    0    0  0.21408152066E+02  0.17860470144E+02 -0.29594936853E+02  0.40659139882E+02  0.00000000000E+00 0. -1.
         11    1    3    3    0    0 -0.37000277091E+01 -0.89705815987E+00 -0.27841938078E+01  0.47166358573E+01  0.51100000000E-03 0. -1.
        -11    1    3    3    0    0 -0.20694727199E+02 -0.16222436998E+02  0.33455337640E+02  0.42552306787E+02  0.51100000000E-03 0.  1.
        -12    1    3    3    0    0  0.29866028426E+01 -0.74097498622E+00 -0.10762069801E+01  0.32599174734E+01  0.00000000000E+00 0.  1.
</event>
<event>
 7    1  0.5849044E-013  0.5052882E+02  0.7816164E-02  0.1300439E+00
        -11   -1    0    0    0    0  0.00000000000E+00  0.00000000000E+00  0.45593999997E+02  0.45594000000E+02  0.51100000000E-03 0.  1.
         11   -1    0    0    0    0 -0.00000000000E+00 -0.00000000000E+00 -0.45593999997E+02  0.45594000000E+02  0.51100000000E-03 0. -1.
    9900012    2    1    2    0    0  0.23988594546E+02 -0.39439216068E+01  0.32590820100E+02  0.50528822184E+02  0.29999885510E+02 0.  0.
         12    1    1    2    0    0 -0.23988594546E+02  0.39439216068E+01 -0.32590820100E+02  0.40659177816E+02  0.00000000000E+00 0. -1.
         11    1    3    3    0    0  0.48045486558E+01 -0.12960936908E+02  0.10720867050E+02  0.17493043300E+02  0.51100000000E-03 0. -1.
        -11    1    3    3    0    0  0.23484415523E+01  0.56301686405E+01  0.11381461947E+02  0.12913235573E+02  0.51100000000E-03 0.  1.
         12    1    3    3    0    0  0.16835604338E+02  0.33868466606E+01  0.10488491102E+02  0.20122543311E+02  0.00000000000E+00 0. -1.
</event>
<event>
 7    1  0.5849044E-013  0.5052884E+02  0.7816164E-02  0.1300439E+00
        -11   -1    0    0    0    0  0.00000000000E+00  0.00000000000E+00  0.45593999997E+02  0.45594000000E+02  0.51100000000E-03 0.  1.
         11   -1    0    0    0    0 -0.00000000000E+00 -0.00000000000E+00 -0.45593999997E+02  0.45594000000E+02  0.51100000000E-03 0. -1.
    9900012    2    1    2    0    0 -0.77090902405E+01 -0.39895896560E+02  0.14334983706E+01  0.50528836798E+02  0.29999929932E+02 0.  0.
         12    1    1    2    0    0  0.77090902405E+01  0.39895896560E+02 -0.14334983706E+01  0.40659163202E+02  0.00000000000E+00 0. -1.
         11    1    3    3    0    0 -0.25556827418E+01 -0.13516942237E+02  0.13209260899E+02  0.19071544654E+02  0.51100000000E-03 0. -1.
        -11    1    3    3    0    0 -0.48444180551E+00 -0.17540411488E+02 -0.12330025075E+02  0.21445984185E+02  0.51100000000E-03 0.  1.
        -12    1    3    3    0    0 -0.46689656931E+01 -0.88385428351E+01  0.55426254704E+00  0.10011307960E+02  0.00000000000E+00 0.  1.
</event>
<event>
 7    1  0.5849044E-013  0.5052888E+02  0.7816164E-02  0.1300439E+00
        -11   -1    0    0    0    0  0.00000000000E+00  0.00000000000E+00  0.45593999997E+02  0.45594000000E+02  0.51100000000E-03 0. -1.
         11   -1    0    0    0    0 -0.00000000000E+00 -0.00000000000E+00 -0.45593999997E+02  0.45594000000E+02  0.51100000000E-03 0.  1.
    9900012    2    1    2    0    0  0.26292064002E+02 -0.21454046815E+02 -0.22396767304E+02  0.50528881221E+02  0.30000064959E+02 0.  0.
         12    1    1    2    0    0 -0.26292064002E+02  0.21454046815E+02  0.22396767304E+02  0.40659118779E+02  0.00000000000E+00 0. -1.
         11    1    3    3    0    0 -0.30345277052E+01 -0.68020133256E+01 -0.51126549630E+01  0.90341012119E+01  0.51100000000E-03 0. -1.
        -11    1    3    3    0    0  0.10398735317E+02  0.80934138079E+00  0.16741263159E+01  0.10563684436E+02  0.51100000000E-03 0.  1.
        -12    1    3    3    0    0  0.18927856390E+02 -0.15461374870E+02 -0.18958238657E+02  0.30931095573E+02  0.00000000000E+00 0.  1.
</event>
<event>
 7    1  0.5849044E-013  0.5052890E+02  0.7816164E-02  0.1300439E+00
        -11   -1    0    0    0    0  0.00000000000E+00  0.00000000000E+00  0.45593999997E+02  0.45594000000E+02  0.51100000000E-03 0. -1.
         11   -1    0    0    0    0 -0.00000000000E+00 -0.00000000000E+00 -0.45593999997E+02  0.45594000000E+02  0.51100000000E-03 0.  1.
    9900012    2    1    2    0    0 -0.23487033597E+02 -0.17776844435E+02 -0.28026876023E+02  0.50528896163E+02  0.30000110376E+02 0.  0.
         12    1    1    2    0    0  0.23487033597E+02  0.17776844435E+02  0.28026876023E+02  0.40659103837E+02  0.00000000000E+00 0. -1.
         11    1    3    3    0    0  0.33242851060E+01  0.24767044416E+01 -0.69519616844E+01  0.80941156329E+01  0.51100000000E-03 0. -1.
        -11    1    3    3    0    0 -0.24523251407E+02 -0.17478356345E+02 -0.23412744876E+02  0.38144979000E+02  0.51100000000E-03 0.  1.
        -12    1    3    3    0    0 -0.22880672962E+01 -0.27751925321E+01  0.23378305371E+01  0.42898015295E+01  0.00000000000E+00 0.  1.
</event>
<event>
 7    1  0.5849044E-013  0.5052886E+02  0.7816164E-02  0.1300439E+00
        -11   -1    0    0    0    0  0.00000000000E+00  0.00000000000E+00  0.45593999997E+02  0.45594000000E+02  0.51100000000E-03 0. -1.
         11   -1    0    0    0    0 -0.00000000000E+00 -0.00000000000E+00 -0.45593999997E+02  0.45594000000E+02  0.51100000000E-03 0.  1.
    9900012    2    1    2    0    0 -0.77813264930E+01 -0.38125519027E+02  0.11792435823E+02  0.50528858523E+02  0.29999995966E+02 0.  0.
         12    1    1    2    0    0  0.77813264930E+01  0.38125519027E+02 -0.11792435823E+02  0.40659141477E+02  0.00000000000E+00 0. -1.
         11    1    3    3    0    0 -0.80068516195E+01 -0.60302005526E+01 -0.41862478831E+01  0.10862672929E+02  0.51100000000E-03 0. -1.
        -11    1    3    3    0    0 -0.23681636719E+01 -0.33343209769E+02  0.14718113800E+02  0.36523974469E+02  0.51100000000E-03 0.  1.
        -12    1    3    3    0    0  0.25936887983E+01  0.12478912953E+01  0.12605699057E+01  0.31422111251E+01  0.00000000000E+00 0.  1.
</event>
<event>
 7    1  0.5849044E-013  0.5052886E+02  0.7816164E-02  0.1300439E+00
        -11   -1    0    0    0    0  0.00000000000E+00  0.00000000000E+00  0.45593999997E+02  0.45594000000E+02  0.51100000000E-03 0. -1.
         11   -1    0    0    0    0 -0.00000000000E+00 -0.00000000000E+00 -0.45593999997E+02  0.45594000000E+02  0.51100000000E-03 0.  1.
    9900012    2    1    2    0    0  0.37895289015E+02  0.75678491420E+01 -0.12642806126E+02  0.50528858138E+02  0.29999994797E+02 0.  0.
         12    1    1    2    0    0 -0.37895289015E+02 -0.75678491420E+01  0.12642806126E+02  0.40659141862E+02  0.00000000000E+00 0. -1.
         11    1    3    3    0    0  0.34125513439E+02  0.78595285000E+01  0.11667682411E+01  0.35038324790E+02  0.51100000000E-03 0. -1.
        -11    1    3    3    0    0  0.42570766562E+01  0.12459650007E+01 -0.12894347523E+02  0.13635957200E+02  0.51100000000E-03 0.  1.
         12    1    3    3    0    0 -0.48730107948E+00 -0.15376443587E+01 -0.91522684363E+00  0.18545761487E+01  0.00000000000E+00 0. -1.
</event>
<event>
 7    1  0.5849044E-013  0.5052885E+02  0.7816164E-02  0.1300439E+00
        -11   -1    0    0    0    0  0.00000000000E+00  0.00000000000E+00  0.45593999997E+02  0.45594000000E+02  0.51100000000E-03 0.  1.
         11   -1    0    0    0    0 -0.00000000000E+00 -0.00000000000E+00 -0.45593999997E+02  0.45594000000E+02  0.51100000000E-03 0. -1.
    9900012    2    1    2    0    0 -0.28631310299E+02 -0.21690776014E+02  0.19050580143E+02  0.50528852231E+02  0.29999976840E+02 0.  0.
         12    1    1    2    0    0  0.28631310299E+02  0.21690776014E+02 -0.19050580143E+02  0.40659147769E+02  0.00000000000E+00 0. -1.
         11    1    3    3    0    0 -0.14787192636E+02  0.47375108646E+01  0.56577954054E+01  0.16526213250E+02  0.51100000000E-03 0. -1.
        -11    1    3    3    0    0 -0.12155321020E+02 -0.19658061939E+02  0.13960997441E+02  0.27001864345E+02  0.51100000000E-03 0.  1.
        -12    1    3    3    0    0 -0.16887966427E+01 -0.67702249396E+01 -0.56821270250E+00  0.70007746364E+01  0.00000000000E+00 0.  1.
</event>
<event>
 7    1  0.5849044E-013  0.5052886E+02  0.7816164E-02  0.1300439E+00
        -11   -1    0    0    0    0  0.00000000000E+00  0.00000000000E+00  0.45593999997E+02  0.45594000000E+02  0.51100000000E-03 0.  1.
         11   -1    0    0    0    0 -0.00000000000E+00 -0.00000000000E+00 -0.45593999997E+02  0.45594000000E+02  0.51100000000E-03 0. -1.
    9900012    2    1    2    0    0  0.39411599997E+02  0.98859172331E+01  0.14698532555E+01  0.50528855365E+02  0.29999986368E+02 0.  0.
         12    1    1    2    0    0 -0.39411599997E+02 -0.98859172331E+01 -0.14698532555E+01  0.40659144635E+02  0.00000000000E+00 0. -1.
         11    1    3    3    0    0  0.44742599470E+01  0.20477180828E+01 -0.11404164371E+02  0.12420431421E+02  0.51100000000E-03 0. -1.
        -11    1    3    3    0    0  0.15688595911E+02  0.24748213482E+01  0.54411246599E+01  0.16788764701E+02  0.51100000000E-03 0.  1.
         12    1    3    3    0    0  0.19248744139E+02  0.53633778021E+01  0.74328929669E+01  0.21319659243E+02  0.00000000000E+00 0. -1.
</event>
<event>
 7    1  0.5849044E-013  0.5052886E+02  0.7816164E-02  0.1300439E+00
        -11   -1    0    0    0    0  0.00000000000E+00  0.00000000000E+00  0.45593999997E+02  0.45594000000E+02  0.51100000000E-03 0. -1.
         11   -1    0    0    0    0 -0.00000000000E+00 -0.00000000000E+00 -0.45593999997E+02  0.45594000000E+02  0.51100000000E-03 0.  1.
    9900012    2    1    2    0    0  0.27732607588E+02 -0.20521751020E+02 -0.21515705425E+02  0.50528863653E+02  0.30000011559E+02 0.  0.
         12    1    1    2    0    0 -0.27732607588E+02  0.20521751020E+02  0.21515705425E+02  0.40659136347E+02  0.00000000000E+00 0. -1.
         11    1    3    3    0    0  0.10765657715E+02 -0.15155486653E+02 -0.18597584536E+01  0.18682795923E+02  0.51100000000E-03 0. -1.
        -11    1    3    3    0    0  0.16343178822E+02 -0.26989402387E+01 -0.22472125887E+02  0.27917381943E+02  0.51100000000E-03 0.  1.
        -12    1    3    3    0    0  0.62377105108E+00 -0.26673241282E+01  0.28161789155E+01  0.39286857870E+01  0.00000000000E+00 0.  1.
</event>
<event>
 7    1  0.5849044E-013  0.5052886E+02  0.7816164E-02  0.1300439E+00
        -11   -1    0    0    0    0  0.00000000000E+00  0.00000000000E+00  0.45593999997E+02  0.45594000000E+02  0.51100000000E-03 0. -1.
         11   -1    0    0    0    0 -0.00000000000E+00 -0.00000000000E+00 -0.45593999997E+02  0.45594000000E+02  0.51100000000E-03 0.  1.
    9900012    2    1    2    0    0 -0.20042724242E+02  0.21934308101E+02 -0.27755014518E+02  0.50528862063E+02  0.30000006727E+02 0.  0.
         12    1    1    2    0    0  0.20042724242E+02 -0.21934308101E+02  0.27755014518E+02  0.40659137937E+02  0.00000000000E+00 0. -1.
         11    1    3    3    0    0  0.22727033150E+01  0.14807137923E+02 -0.20881840521E+02  0.25699567655E+02  0.51100000000E-03 0. -1.
        -11    1    3    3    0    0 -0.18293559610E+02  0.75195702999E+01 -0.51641102274E+01  0.20441778186E+02  0.51100000000E-03 0.  1.
         12    1    3    3    0    0 -0.40218679462E+01 -0.39240012220E+00 -0.17090637689E+01  0.43875162220E+01  0.00000000000E+00 0. -1.
</event>
<event>
 7    1  0.5849044E-013  0.5052887E+02  0.7816164E-02  0.1300439E+00
        -11   -1    0    0    0    0  0.00000000000E+00  0.00000000000E+00  0.45593999997E+02  0.45594000000E+02  0.51100000000E-03 0.  1.
         11   -1    0    0    0    0 -0.00000000000E+00 -0.00000000000E+00 -0.45593999997E+02  0.45594000000E+02  0.51100000000E-03 0. -1.
    9900012    2    1    2    0    0 -0.22075990424E+02  0.23838013933E+02  0.24445138436E+02  0.50528867513E+02  0.30000023293E+02 0.  0.
         12    1    1    2    0    0  0.22075990424E+02 -0.23838013933E+02 -0.24445138436E+02  0.40659132487E+02  0.00000000000E+00 0. -1.
         11    1    3    3    0    0  0.26434441731E+01  0.50838801613E+01  0.98499088433E+01  0.11395364807E+02  0.51100000000E-03 0. -1.
        -11    1    3    3    0    0 -0.22684992417E+02  0.19947486125E+02  0.17870056476E+02  0.35097720758E+02  0.51100000000E-03 0.  1.
         12    1    3    3    0    0 -0.20344421798E+01 -0.11933523539E+01 -0.32748268833E+01  0.40357819489E+01  0.00000000000E+00 0. -1.
</event>
<event>
 7    1  0.5849044E-013  0.5052886E+02  0.7816164E-02  0.1300439E+00
        -11   -1    0    0    0    0  0.00000000000E+00  0.00000000000E+00  0.45593999997E+02  0.45594000000E+02  0.51100000000E-03 0.  1.
         11   -1    0    0    0    0 -0.00000000000E+00 -0.00000000000E+00 -0.45593999997E+02  0.45594000000E+02  0.51100000000E-03 0. -1.
    9900012    2    1    2    0    0 -0.40288732991E+02  0.15879609993E+01 -0.52404492485E+01  0.50528856693E+02  0.29999990403E+02 0.  0.
         12    1    1    2    0    0  0.40288732991E+02 -0.15879609993E+01  0.52404492485E+01  0.40659143307E+02  0.00000000000E+00 0. -1.
         11    1    3    3    0    0  0.28229166705E+01  0.28818160047E+00 -0.97670381952E+00  0.30009761372E+01  0.51100000000E-03 0. -1.
        -11    1    3    3    0    0 -0.26866504580E+02  0.10165807983E+02 -0.41262281331E+01  0.29020311493E+02  0.51100000000E-03 0.  1.
        -12    1    3    3    0    0 -0.16245145082E+02 -0.88660285845E+01 -0.13751729591E+00  0.18507569062E+02  0.00000000000E+00 0.  1.
</event>
<event>
 7    1  0.5849044E-013  0.5052886E+02  0.7816164E-02  0.1300439E+00
        -11   -1    0    0    0    0  0.00000000000E+00  0.00000000000E+00  0.45593999997E+02  0.45594000000E+02  0.51100000000E-03 0.  1.
         11   -1    0    0    0    0 -0.00000000000E+00 -0.00000000000E+00 -0.45593999997E+02  0.45594000000E+02  0.51100000000E-03 0. -1.
    9900012    2    1    2    0    0 -0.39874655077E+02 -0.20649335106E+01  0.76755149747E+01  0.50528860830E+02  0.30000002979E+02 0.  0.
         12    1    1    2    0    0  0.39874655077E+02  0.20649335106E+01 -0.76755149747E+01  0.40659139170E+02  0.00000000000E+00 0. -1.
         11    1    3    3    0    0 -0.27016712039E+02 -0.14393739395E+02  0.85573951800E+01  0.31785397209E+02  0.51100000000E-03 0. -1.
        -11    1    3    3    0    0 -0.95377830389E+01  0.53335206881E+01  0.17032501611E+00  0.10929078603E+02  0.51100000000E-03 0.  1.
         12    1    3    3    0    0 -0.33201599988E+01  0.69952851964E+01 -0.10522052214E+01  0.78143850189E+01  0.00000000000E+00 0. -1.
</event>
<event>
 7    1  0.5849044E-013  0.5052886E+02  0.7816164E-02  0.1300439E+00
        -11   -1    0    0    0    0  0.00000000000E+00  0.00000000000E+00  0.45593999997E+02  0.45594000000E+02  0.51100000000E-03 0. -1.
         11   -1    0    0    0    0 -0.00000000000E+00 -0.00000000000E+00 -0.45593999997E+02  0.45594000000E+02  0.51100000000E-03 0.  1.
    9900012    2    1    2    0    0  0.18405141794E+02  0.21971737821E+02 -0.28838499204E+02  0.50528861499E+02  0.30000005011E+02 0.  0.
         12    1    1    2    0    0 -0.18405141794E+02 -0.21971737821E+02  0.28838499204E+02  0.40659138501E+02  0.00000000000E+00 0. -1.
         11    1    3    3    0    0  0.90490152421E+01  0.12581027927E+02 -0.99527018397E+01  0.18418013322E+02  0.51100000000E-03 0. -1.
        -11    1    3    3    0    0 -0.54139112459E+01 -0.29965503142E+01 -0.20545311219E+01  0.65200342910E+01  0.51100000000E-03 0.  1.
        -12    1    3    3    0    0  0.14770037798E+02  0.12387260208E+02 -0.16831266242E+02  0.25590813886E+02  0.00000000000E+00 0.  1.
</event>
<event>
 7    1  0.5849044E-013  0.5052886E+02  0.7816164E-02  0.1300439E+00
        -11   -1    0    0    0    0  0.00000000000E+00  0.00000000000E+00  0.45593999997E+02  0.45594000000E+02  0.51100000000E-03 0.  1.
         11   -1    0    0    0    0 -0.00000000000E+00 -0.00000000000E+00 -0.45593999997E+02  0.45594000000E+02  0.51100000000E-03 0. -1.
    9900012    2    1    2    0    0  0.35486420247E+01  0.13047146783E+02  0.38345078481E+02  0.50528856587E+02  0.29999990081E+02 0.  0.
         12    1    1    2    0    0 -0.35486420247E+01 -0.13047146783E+02 -0.38345078481E+02  0.40659143413E+02  0.00000000000E+00 0. -1.
         11    1    3    3    0    0  0.45843448607E+00 -0.17141981096E+01 -0.27115929692E+01  0.32405823595E+01  0.51100000000E-03 0. -1.
        -11    1    3    3    0    0  0.93888951621E+01  0.14235636805E+02  0.31720089451E+02  0.36013452801E+02  0.51100000000E-03 0.  1.
        -12    1    3    3    0    0 -0.62986876235E+01  0.52570808753E+00  0.93365819994E+01  0.11274821427E+02  0.00000000000E+00 0.  1.
</event>
<event>
 7    1  0.5849044E-013  0.5052885E+02  0.7816164E-02  0.1300439E+00
        -11   -1    0    0    0    0  0.00000000000E+00  0.00000000000E+00  0.45593999997E+02  0.45594000000E+02  0.51100000000E-03 0.  1.
         11   -1    0    0    0    0 -0.00000000000E+00 -0.00000000000E+00 -0.45593999997E+02  0.45594000000E+02  0.51100000000E-03 0. -1.
    9900012    2    1    2    0    0  0.32199102511E+02 -0.19062363975E+02 -0.15906299979E+02  0.50528852175E+02  0.29999976671E+02 0.  0.
         12    1    1    2    0    0 -0.32199102511E+02  0.19062363975E+02  0.15906299979E+02  0.40659147825E+02  0.00000000000E+00 0. -1.
         11    1    3    3    0    0  0.39725989274E+01  0.41370354412E+01 -0.39973625055E+01  0.69911023266E+01  0.51100000000E-03 0. -1.
        -11    1    3    3    0    0  0.30829453125E+02 -0.23244417255E+02 -0.12964122886E+02  0.40728694994E+02  0.51100000000E-03 0.  1.
         12    1    3    3    0    0 -0.26029495406E+01  0.45017838559E-01  0.10551854130E+01  0.28090548539E+01  0.00000000000E+00 0. -1.
</event>
<event>
 7    1  0.5849044E-013  0.5052886E+02  0.7816164E-02  0.1300439E+00
        -11   -1    0    0    0    0  0.00000000000E+00  0.00000000000E+00  0.45593999997E+02  0.45594000000E+02  0.51100000000E-03 0. -1.
         11   -1    0    0    0    0 -0.00000000000E+00 -0.00000000000E+00 -0.45593999997E+02  0.45594000000E+02  0.51100000000E-03 0.  1.
    9900012    2    1    2    0    0 -0.14810434124E+02  0.36758461148E+02 -0.90902347539E+01  0.50528858435E+02  0.29999995700E+02 0.  0.
         12    1    1    2    0    0  0.14810434124E+02 -0.36758461148E+02  0.90902347539E+01  0.40659141565E+02  0.00000000000E+00 0. -1.
         11    1    3    3    0    0  0.71366396392E+01  0.15699987197E+02 -0.11497822590E+00  0.17246287820E+02  0.51100000000E-03 0. -1.
        -11    1    3    3    0    0 -0.22476385713E+02  0.19181127195E+02 -0.67237595052E+01  0.30303671351E+02  0.51100000000E-03 0.  1.
        -12    1    3    3    0    0  0.52931195046E+00  0.18773467558E+01 -0.22514970227E+01  0.29788992641E+01  0.00000000000E+00 0.  1.
</event>
<event>
 7    1  0.5849044E-013  0.5052886E+02  0.7816164E-02  0.1300439E+00
        -11   -1    0    0    0    0  0.00000000000E+00  0.00000000000E+00  0.45593999997E+02  0.45594000000E+02  0.51100000000E-03 0.  1.
         11   -1    0    0    0    0 -0.00000000000E+00 -0.00000000000E+00 -0.45593999997E+02  0.45594000000E+02  0.51100000000E-03 0. -1.
    9900012    2    1    2    0    0 -0.13310836647E+02 -0.16326673698E+02  0.34776817893E+02  0.50528859465E+02  0.29999998829E+02 0.  0.
         12    1    1    2    0    0  0.13310836647E+02  0.16326673698E+02 -0.34776817893E+02  0.40659140535E+02  0.00000000000E+00 0. -1.
         11    1    3    3    0    0  0.31602062328E+01 -0.12322947313E+02  0.18033315706E+02  0.22069037349E+02  0.51100000000E-03 0. -1.
        -11    1    3    3    0    0 -0.15888100639E+02 -0.10610074489E+01  0.55369411853E+01  0.16858683124E+02  0.51100000000E-03 0.  1.
        -12    1    3    3    0    0 -0.58294224022E+00 -0.29427189362E+01  0.11206561002E+02  0.11601138991E+02  0.00000000000E+00 0.  1.
</event>
<event>
 7    1  0.5849044E-013  0.5052886E+02  0.7816164E-02  0.1300439E+00
        -11   -1    0    0    0    0  0.00000000000E+00  0.00000000000E+00  0.45593999997E+02  0.45594000000E+02  0.51100000000E-03 0.  1.
         11   -1    0    0    0    0 -0.00000000000E+00 -0.00000000000E+00 -0.45593999997E+02  0.45594000000E+02  0.51100000000E-03 0. -1.
    9900012    2    1    2    0    0 -0.34035991308E+02 -0.21526261064E+02  0.55979642386E+01  0.50528858060E+02  0.29999994558E+02 0.  0.
         12    1    1    2    0    0  0.34035991308E+02  0.21526261064E+02 -0.55979642386E+01  0.40659141940E+02  0.00000000000E+00 0. -1.
         11    1    3    3    0    0 -0.59180575532E+01  0.35952207726E+01  0.64649352750E+01  0.94733524150E+01  0.51100000000E-03 0. -1.
        -11    1    3    3    0    0 -0.17921442282E+02 -0.24142315140E+02  0.27492875458E+01  0.30192516557E+02  0.51100000000E-03 0.  1.
        -12    1    3    3    0    0 -0.10196491473E+02 -0.97916669655E+00 -0.36162585823E+01  0.10862989087E+02  0.00000000000E+00 0.  1.
</event>
<event>
 7    1  0.5849044E-013  0.5052886E+02  0.7816164E-02  0.1300439E+00
        -11   -1    0    0    0    0  0.00000000000E+00  0.00000000000E+00  0.45593999997E+02  0.45594000000E+02  0.51100000000E-03 0.  1.
         11   -1    0    0    0    0 -0.00000000000E+00 -0.00000000000E+00 -0.45593999997E+02  0.45594000000E+02  0.51100000000E-03 0. -1.
    9900012    2    1    2    0    0  0.57679200187E+01  0.24091406427E+02  0.32241292881E+02  0.50528859187E+02  0.29999997985E+02 0.  0.
         12    1    1    2    0    0 -0.57679200187E+01 -0.24091406427E+02 -0.32241292881E+02  0.40659140813E+02  0.00000000000E+00 0. -1.
         11    1    3    3    0    0  0.15589041028E+01  0.61324207681E+01 -0.29282776900E+01  0.69722002961E+01  0.51100000000E-03 0. -1.
        -11    1    3    3    0    0  0.86940669037E+00 -0.83659542224E+00  0.17508789802E+02  0.17550312832E+02  0.51100000000E-03 0.  1.
        -12    1    3    3    0    0  0.33396092256E+01  0.18795581081E+02  0.17660780769E+02  0.26006346059E+02  0.00000000000E+00 0.  1.
</event>
<event>
 7    1  0.5849044E-013  0.5052886E+02  0.7816164E-02  0.1300439E+00
        -11   -1    0    0    0    0  0.00000000000E+00  0.00000000000E+00  0.45593999997E+02  0.45594000000E+02  0.51100000000E-03 0.  1.
         11   -1    0    0    0    0 -0.00000000000E+00 -0.00000000000E+00 -0.45593999997E+02  0.45594000000E+02  0.51100000000E-03 0. -1.
    9900012    2    1    2    0    0 -0.12676214950E+02 -0.30479385907E+02  0.23737861862E+02  0.50528862325E+02  0.30000007522E+02 0.  0.
         12    1    1    2    0    0  0.12676214950E+02  0.30479385907E+02 -0.23737861862E+02  0.40659137675E+02  0.00000000000E+00 0. -1.
         11    1    3    3    0    0  0.48112878790E+01 -0.15646304993E+02  0.10911078244E+02  0.19672492971E+02  0.51100000000E-03 0.  1.
        -11    1    3    3    0    0 -0.12057160833E+02 -0.41129752531E+00  0.87881410691E+01  0.14925673074E+02  0.51100000000E-03 0. -1.
        -12    1    3    3    0    0 -0.54303419958E+01 -0.14421783389E+02  0.40386425490E+01  0.15930696279E+02  0.00000000000E+00 0.  1.
</event>
<event>
 7    1  0.5849044E-013  0.5052885E+02  0.7816164E-02  0.1300439E+00
        -11   -1    0    0    0    0  0.00000000000E+00  0.00000000000E+00  0.45593999997E+02  0.45594000000E+02  0.51100000000E-03 0. -1.
         11   -1    0    0    0    0 -0.00000000000E+00 -0.00000000000E+00 -0.45593999997E+02  0.45594000000E+02  0.51100000000E-03 0.  1.
    9900012    2    1    2    0    0 -0.28302414730E+02  0.29191046438E+02  0.14916489109E+00  0.50528854388E+02  0.29999983399E+02 0.  0.
         12    1    1    2    0    0  0.28302414730E+02 -0.29191046438E+02 -0.14916489109E+00  0.40659145612E+02  0.00000000000E+00 0. -1.
         11    1    3    3    0    0  0.31263462875E+00  0.42764481832E+01  0.84027505440E+01  0.94335553446E+01  0.51100000000E-03 0. -1.
        -11    1    3    3    0    0 -0.13735355881E+02  0.13944150818E+02  0.24626595674E+01  0.19727240953E+02  0.51100000000E-03 0.  1.
         12    1    3    3    0    0 -0.14879693478E+02  0.10970447437E+02 -0.10716245220E+02  0.21368058091E+02  0.00000000000E+00 0. -1.
</event>
<event>
 7    1  0.5849044E-013  0.5052889E+02  0.7816164E-02  0.1300439E+00
        -11   -1    0    0    0    0  0.00000000000E+00  0.00000000000E+00  0.45593999997E+02  0.45594000000E+02  0.51100000000E-03 0.  1.
         11   -1    0    0    0    0 -0.00000000000E+00 -0.00000000000E+00 -0.45593999997E+02  0.45594000000E+02  0.51100000000E-03 0. -1.
    9900012    2    1    2    0    0  0.38293097196E+02  0.73716685166E+01  0.11509157790E+02  0.50528886598E+02  0.30000081304E+02 0.  0.
         12    1    1    2    0    0 -0.38293097196E+02 -0.73716685166E+01 -0.11509157790E+02  0.40659113402E+02  0.00000000000E+00 0. -1.
         11    1    3    3    0    0  0.67986628956E+01  0.83089783470E+01 -0.31846154592E+00  0.10740686959E+02  0.51100000000E-03 0. -1.
        -11    1    3    3    0    0  0.19571647853E+02 -0.10096028285E+02  0.11281762376E+02  0.24743834574E+02  0.51100000000E-03 0.  1.
        -12    1    3    3    0    0  0.11922786447E+02  0.91587184550E+01  0.54585696046E+00  0.15044365065E+02  0.00000000000E+00 0.  1.
</event>
<event>
 7    1  0.5849044E-013  0.5052886E+02  0.7816164E-02  0.1300439E+00
        -11   -1    0    0    0    0  0.00000000000E+00  0.00000000000E+00  0.45593999997E+02  0.45594000000E+02  0.51100000000E-03 0.  1.
         11   -1    0    0    0    0 -0.00000000000E+00 -0.00000000000E+00 -0.45593999997E+02  0.45594000000E+02  0.51100000000E-03 0. -1.
    9900012    2    1    2    0    0 -0.13874174682E+02 -0.45137718195E+01  0.37951273729E+02  0.50528855434E+02  0.29999986577E+02 0.  0.
         12    1    1    2    0    0  0.13874174682E+02  0.45137718195E+01 -0.37951273729E+02  0.40659144566E+02  0.00000000000E+00 0. -1.
         11    1    3    3    0    0  0.24377750151E+01 -0.60790438354E+01  0.34587632342E+01  0.74067917717E+01  0.51100000000E-03 0. -1.
        -11    1    3    3    0    0 -0.77084310160E+01  0.15535548539E+01  0.33559099014E+02  0.34468051414E+02  0.51100000000E-03 0.  1.
        -12    1    3    3    0    0 -0.86035186815E+01  0.11717162034E-01  0.93341148131E+00  0.86540122479E+01  0.00000000000E+00 0.  1.
</event>
<event>
 7    1  0.5849044E-013  0.5052888E+02  0.7816164E-02  0.1300439E+00
        -11   -1    0    0    0    0  0.00000000000E+00  0.00000000000E+00  0.45593999997E+02  0.45594000000E+02  0.51100000000E-03 0. -1.
         11   -1    0    0    0    0 -0.00000000000E+00 -0.00000000000E+00 -0.45593999997E+02  0.45594000000E+02  0.51100000000E-03 0.  1.
    9900012    2    1    2    0    0 -0.47743642440E+01 -0.32192110592E+02 -0.24372879043E+02  0.50528883296E+02  0.30000071266E+02 0.  0.
         12    1    1    2    0    0  0.47743642440E+01  0.32192110592E+02  0.24372879043E+02  0.40659116704E+02  0.00000000000E+00 0. -1.
         11    1    3    3    0    0  0.64474040765E+01 -0.18764588144E+02 -0.10407158211E+02  0.22405082679E+02  0.51100000000E-03 0.  1.
        -11    1    3    3    0    0 -0.68768561719E+01  0.16781197592E+01  0.28471234923E-01  0.70787038084E+01  0.51100000000E-03 0. -1.
        -12    1    3    3    0    0 -0.43449121486E+01 -0.15105642207E+02 -0.13994192067E+02  0.21045096809E+02  0.00000000000E+00 0.  1.
</event>
<event>
 7    1  0.5849044E-013  0.5052885E+02  0.7816164E-02  0.1300439E+00
        -11   -1    0    0    0    0  0.00000000000E+00  0.00000000000E+00  0.45593999997E+02  0.45594000000E+02  0.51100000000E-03 0.  1.
         11   -1    0    0    0    0 -0.00000000000E+00 -0.00000000000E+00 -0.45593999997E+02  0.45594000000E+02  0.51100000000E-03 0. -1.
    9900012    2    1    2    0    0 -0.67356894614E+01  0.31669024996E+02  0.24594100921E+02  0.50528850270E+02  0.29999970880E+02 0.  0.
         12    1    1    2    0    0  0.67356894614E+01 -0.31669024996E+02 -0.24594100921E+02  0.40659149730E+02  0.00000000000E+00 0. -1.
         11    1    3    3    0    0 -0.60836621516E+00 -0.31931925393E+01 -0.13909876946E+01  0.35357368500E+01  0.51100000000E-03 0. -1.
        -11    1    3    3    0    0  0.31708122222E+01  0.25922554820E+02  0.15488171780E+02  0.30363075666E+02  0.51100000000E-03 0.  1.
        -12    1    3    3    0    0 -0.92981354685E+01  0.89396627154E+01  0.10496916835E+02  0.16630037754E+02  0.00000000000E+00 0.  1.
</event>
<event>
 7    1  0.5849044E-013  0.5052885E+02  0.7816164E-02  0.1300439E+00
        -11   -1    0    0    0    0  0.00000000000E+00  0.00000000000E+00  0.45593999997E+02  0.45594000000E+02  0.51100000000E-03 0.  1.
         11   -1    0    0    0    0 -0.00000000000E+00 -0.00000000000E+00 -0.45593999997E+02  0.45594000000E+02  0.51100000000E-03 0. -1.
    9900012    2    1    2    0    0  0.20424121494E+02 -0.18678460605E+02  0.29784838803E+02  0.50528852789E+02  0.29999978538E+02 0.  0.
         12    1    1    2    0    0 -0.20424121494E+02  0.18678460605E+02 -0.29784838803E+02  0.40659147211E+02  0.00000000000E+00 0. -1.
         11    1    3    3    0    0 -0.95415939672E+00 -0.28617520865E+01 -0.12885728311E+01  0.32803148266E+01  0.51100000000E-03 0. -1.
        -11    1    3    3    0    0  0.23997413869E+02 -0.66551061660E+01  0.16630640579E+02  0.29945692792E+02  0.51100000000E-03 0.  1.
        -12    1    3    3    0    0 -0.26191329788E+01 -0.91616023522E+01  0.14442771056E+02  0.17302845170E+02  0.00000000000E+00 0.  1.
</event>
<event>
 7    1  0.5849044E-013  0.5052886E+02  0.7816164E-02  0.1300439E+00
        -11   -1    0    0    0    0  0.00000000000E+00  0.00000000000E+00  0.45593999997E+02  0.45594000000E+02  0.51100000000E-03 0.  1.
         11   -1    0    0    0    0 -0.00000000000E+00 -0.00000000000E+00 -0.45593999997E+02  0.45594000000E+02  0.51100000000E-03 0. -1.
    9900012    2    1    2    0    0 -0.95513623600E+01 -0.11164322874E+01  0.39505582150E+02  0.50528856318E+02  0.29999989264E+02 0.  0.
         12    1    1    2    0    0  0.95513623600E+01  0.11164322874E+01 -0.39505582150E+02  0.40659143682E+02  0.00000000000E+00 0. -1.
         11    1    3    3    0    0 -0.18939351074E+00 -0.13132966754E+02  0.12197586909E+02  0.17924614705E+02  0.51100000000E-03 0. -1.
        -11    1    3    3    0    0 -0.45829904691E+01  0.62785999864E+01  0.22292276523E+02  0.23608689338E+02  0.51100000000E-03 0.  1.
         12    1    3    3    0    0 -0.47789783802E+01  0.57379344806E+01  0.50157187173E+01  0.89955522739E+01  0.00000000000E+00 0. -1.
</event>
<event>
 7    1  0.5849044E-013  0.5052886E+02  0.7816164E-02  0.1300439E+00
        -11   -1    0    0    0    0  0.00000000000E+00  0.00000000000E+00  0.45593999997E+02  0.45594000000E+02  0.51100000000E-03 0. -1.
         11   -1    0    0    0    0 -0.00000000000E+00 -0.00000000000E+00 -0.45593999997E+02  0.45594000000E+02  0.51100000000E-03 0.  1.
    9900012    2    1    2    0    0 -0.18267666265E+02 -0.35735914792E+02 -0.65116897463E+01  0.50528864001E+02  0.30000012619E+02 0.  0.
         12    1    1    2    0    0  0.18267666265E+02  0.35735914792E+02  0.65116897463E+01  0.40659135999E+02  0.00000000000E+00 0. -1.
         11    1    3    3    0    0  0.11406191455E+01 -0.29913255041E+01 -0.55296279715E+01  0.63895090634E+01  0.51100000000E-03 0. -1.
        -11    1    3    3    0    0 -0.12449247045E+02 -0.33929229394E+02  0.25787922913E+01  0.36232948116E+02  0.51100000000E-03 0.  1.
        -12    1    3    3    0    0 -0.69590383656E+01  0.11846401059E+01 -0.35608540660E+01  0.79064068220E+01  0.00000000000E+00 0.  1.
</event>
<event>
 7    1  0.5849044E-013  0.5052886E+02  0.7816164E-02  0.1300439E+00
        -11   -1    0    0    0    0  0.00000000000E+00  0.00000000000E+00  0.45593999997E+02  0.45594000000E+02  0.51100000000E-03 0.  1.
         11   -1    0    0    0    0 -0.00000000000E+00 -0.00000000000E+00 -0.45593999997E+02  0.45594000000E+02  0.51100000000E-03 0. -1.
    9900012    2    1    2    0    0 -0.25721791213E+02  0.28607438829E+02 -0.13159392634E+02  0.50528859404E+02  0.29999998643E+02 0.  0.
         12    1    1    2    0    0  0.25721791213E+02 -0.28607438829E+02  0.13159392634E+02  0.40659140596E+02  0.00000000000E+00 0. -1.
         11    1    3    3    0    0 -0.28049357330E+01  0.19720365240E+01 -0.62665887429E+01  0.71432994654E+01  0.51100000000E-03 0. -1.
        -11    1    3    3    0    0 -0.20363929225E+01  0.11020631588E+02  0.76133730213E+01  0.13548603831E+02  0.51100000000E-03 0.  1.
        -12    1    3    3    0    0 -0.20880462557E+02  0.15614770717E+02 -0.14506176913E+02  0.29836956108E+02  0.00000000000E+00 0.  1.
</event>
<event>
 7    1  0.5849044E-013  0.5052887E+02  0.7816164E-02  0.1300439E+00
        -11   -1    0    0    0    0  0.00000000000E+00  0.00000000000E+00  0.45593999997E+02  0.45594000000E+02  0.51100000000E-03 0.  1.
         11   -1    0    0    0    0 -0.00000000000E+00 -0.00000000000E+00 -0.45593999997E+02  0.45594000000E+02  0.51100000000E-03 0. -1.
    9900012    2    1    2    0    0 -0.56478335816E+01 -0.18281778149E+02  0.35875391513E+02  0.50528866307E+02  0.30000019627E+02 0.  0.
         12    1    1    2    0    0  0.56478335816E+01  0.18281778149E+02 -0.35875391513E+02  0.40659133693E+02  0.00000000000E+00 0. -1.
         11    1    3    3    0    0 -0.17067616929E+01  0.20810403852E+01  0.11824437667E+01  0.29397173476E+01  0.51100000000E-03 0. -1.
        -11    1    3    3    0    0 -0.48586486939E+01 -0.20750682048E+02  0.38309169877E+02  0.43838222700E+02  0.51100000000E-03 0.  1.
        -12    1    3    3    0    0  0.91757680522E+00  0.38786351366E+00 -0.36162221311E+01  0.37509262590E+01  0.00000000000E+00 0.  1.
</event>
<event>
 7    1  0.5849044E-013  0.5052886E+02  0.7816164E-02  0.1300439E+00
        -11   -1    0    0    0    0  0.00000000000E+00  0.00000000000E+00  0.45593999997E+02  0.45594000000E+02  0.51100000000E-03 0. -1.
         11   -1    0    0    0    0 -0.00000000000E+00 -0.00000000000E+00 -0.45593999997E+02  0.45594000000E+02  0.51100000000E-03 0.  1.
    9900012    2    1    2    0    0  0.14062460680E+02 -0.35811689666E+02 -0.13150497755E+02  0.50528861933E+02  0.30000006332E+02 0.  0.
         12    1    1    2    0    0 -0.14062460680E+02  0.35811689666E+02  0.13150497755E+02  0.40659138067E+02  0.00000000000E+00 0. -1.
         11    1    3    3    0    0  0.19943738801E+02 -0.17436166824E+02 -0.96997089545E+01  0.28210937328E+02  0.51100000000E-03 0. -1.
        -11    1    3    3    0    0  0.42549026204E+00 -0.73408502590E+01 -0.58342429922E+01  0.93865603946E+01  0.51100000000E-03 0.  1.
         12    1    3    3    0    0 -0.63067683826E+01 -0.11034672583E+02  0.23834541919E+01  0.12931364210E+02  0.00000000000E+00 0. -1.
</event>
<event>
 7    1  0.5849044E-013  0.5052886E+02  0.7816164E-02  0.1300439E+00
        -11   -1    0    0    0    0  0.00000000000E+00  0.00000000000E+00  0.45593999997E+02  0.45594000000E+02  0.51100000000E-03 0.  1.
         11   -1    0    0    0    0 -0.00000000000E+00 -0.00000000000E+00 -0.45593999997E+02  0.45594000000E+02  0.51100000000E-03 0. -1.
    9900012    2    1    2    0    0  0.24249928085E+02 -0.13650003397E+02  0.29644293273E+02  0.50528859225E+02  0.29999998102E+02 0.  0.
         12    1    1    2    0    0 -0.24249928085E+02  0.13650003397E+02 -0.29644293273E+02  0.40659140775E+02  0.00000000000E+00 0. -1.
         11    1    3    3    0    0  0.30552434725E+01  0.78174406716E+01  0.14760528231E+01  0.85220668577E+01  0.51100000000E-03 0. -1.
        -11    1    3    3    0    0  0.55138029792E+01 -0.70684422643E+01  0.40508277750E+01  0.98373830495E+01  0.51100000000E-03 0.  1.
         12    1    3    3    0    0  0.15680881634E+02 -0.14399001805E+02  0.24117412675E+02  0.32169409318E+02  0.00000000000E+00 0. -1.
</event>
<event>
 7    1  0.5849044E-013  0.5052886E+02  0.7816164E-02  0.1300439E+00
        -11   -1    0    0    0    0  0.00000000000E+00  0.00000000000E+00  0.45593999997E+02  0.45594000000E+02  0.51100000000E-03 0.  1.
         11   -1    0    0    0    0 -0.00000000000E+00 -0.00000000000E+00 -0.45593999997E+02  0.45594000000E+02  0.51100000000E-03 0. -1.
    9900012    2    1    2    0    0  0.30766982912E+02 -0.13840702055E+02  0.22693465456E+02  0.50528860249E+02  0.30000001214E+02 0.  0.
         12    1    1    2    0    0 -0.30766982912E+02  0.13840702055E+02 -0.22693465456E+02  0.40659139751E+02  0.00000000000E+00 0. -1.
         11    1    3    3    0    0  0.65452213993E+01  0.71784206803E+00  0.59395420039E+01  0.88675464407E+01  0.51100000000E-03 0. -1.
        -11    1    3    3    0    0 -0.33829360867E+01 -0.92409901756E+01  0.62126822729E+01  0.11637765132E+02  0.51100000000E-03 0.  1.
        -12    1    3    3    0    0  0.27604697599E+02 -0.53175539476E+01  0.10541241179E+02  0.30023548676E+02  0.00000000000E+00 0.  1.
</event>
<event>
 7    1  0.5849044E-013  0.5052886E+02  0.7816164E-02  0.1300439E+00
        -11   -1    0    0    0    0  0.00000000000E+00  0.00000000000E+00  0.45593999997E+02  0.45594000000E+02  0.51100000000E-03 0. -1.
         11   -1    0    0    0    0 -0.00000000000E+00 -0.00000000000E+00 -0.45593999997E+02  0.45594000000E+02  0.51100000000E-03 0.  1.
    9900012    2    1    2    0    0 -0.28167967191E+01  0.28824428722E+02 -0.28537406671E+02  0.50528860629E+02  0.30000002368E+02 0.  0.
         12    1    1    2    0    0  0.28167967191E+01 -0.28824428722E+02  0.28537406671E+02  0.40659139371E+02  0.00000000000E+00 0. -1.
         11    1    3    3    0    0  0.44152087850E+01 -0.24029260837E+01 -0.35637496267E+01  0.61618531338E+01  0.51100000000E-03 0. -1.
        -11    1    3    3    0    0 -0.53550352409E+01  0.16446451427E+02 -0.23800184515E+02  0.29421266970E+02  0.51100000000E-03 0.  1.
         12    1    3    3    0    0 -0.18769702633E+01  0.14780903379E+02 -0.11734725297E+01  0.14945740525E+02  0.00000000000E+00 0. -1.
</event>
<event>
 7    1  0.5849044E-013  0.5052884E+02  0.7816164E-02  0.1300439E+00
        -11   -1    0    0    0    0  0.00000000000E+00  0.00000000000E+00  0.45593999997E+02  0.45594000000E+02  0.51100000000E-03 0.  1.
         11   -1    0    0    0    0 -0.00000000000E+00 -0.00000000000E+00 -0.45593999997E+02  0.45594000000E+02  0.51100000000E-03 0. -1.
    9900012    2    1    2    0    0 -0.61692397937E+01  0.12993739389E+02  0.38029858955E+02  0.50528844142E+02  0.29999952253E+02 0.  0.
         12    1    1    2    0    0  0.61692397937E+01 -0.12993739389E+02 -0.38029858955E+02  0.40659155858E+02  0.00000000000E+00 0. -1.
         11    1    3    3    0    0 -0.93390518344E+01  0.11097791177E+02  0.11378743120E+02  0.18435147231E+02  0.51100000000E-03 0. -1.
        -11    1    3    3    0    0 -0.71913791126E-01  0.74604330223E+01  0.23993973677E+02  0.25127156735E+02  0.51100000000E-03 0.  1.
         12    1    3    3    0    0  0.32417258319E+01 -0.55644848106E+01  0.26571421582E+01  0.69665401761E+01  0.00000000000E+00 0. -1.
</event>
<event>
 7    1  0.5849044E-013  0.5052886E+02  0.7816164E-02  0.1300439E+00
        -11   -1    0    0    0    0  0.00000000000E+00  0.00000000000E+00  0.45593999997E+02  0.45594000000E+02  0.51100000000E-03 0.  1.
         11   -1    0    0    0    0 -0.00000000000E+00 -0.00000000000E+00 -0.45593999997E+02  0.45594000000E+02  0.51100000000E-03 0. -1.
    9900012    2    1    2    0    0  0.28649901947E+02 -0.11741205993E+02  0.26353230295E+02  0.50528861461E+02  0.30000004897E+02 0.  0.
         12    1    1    2    0    0 -0.28649901947E+02  0.11741205993E+02 -0.26353230295E+02  0.40659138539E+02  0.00000000000E+00 0. -1.
         11    1    3    3    0    0  0.32517080106E+01 -0.38738395180E+01 -0.38829455072E+00  0.50725743481E+01  0.51100000000E-03 0. -1.
        -11    1    3    3    0    0  0.19773455490E+02  0.50463033040E+01  0.23267254617E+02  0.30948664862E+02  0.51100000000E-03 0.  1.
        -12    1    3    3    0    0  0.56247384462E+01 -0.12913669779E+02  0.34742702288E+01  0.14507622251E+02  0.00000000000E+00 0.  1.
</event>
<event>
 7    1  0.5849044E-013  0.5052886E+02  0.7816164E-02  0.1300439E+00
        -11   -1    0    0    0    0  0.00000000000E+00  0.00000000000E+00  0.45593999997E+02  0.45594000000E+02  0.51100000000E-03 0. -1.
         11   -1    0    0    0    0 -0.00000000000E+00 -0.00000000000E+00 -0.45593999997E+02  0.45594000000E+02  0.51100000000E-03 0.  1.
    9900012    2    1    2    0    0 -0.33145480410E+02 -0.21769644856E+02 -0.89791721992E+01  0.50528857828E+02  0.29999993854E+02 0.  0.
         12    1    1    2    0    0  0.33145480410E+02  0.21769644856E+02  0.89791721992E+01  0.40659142172E+02  0.00000000000E+00 0. -1.
         11    1    3    3    0    0 -0.53174001217E+01 -0.15813606718E+02 -0.61578263771E+01  0.17783805201E+02  0.51100000000E-03 0.  1.
        -11    1    3    3    0    0 -0.17691011847E+02 -0.47298160791E+01  0.59803880837E+01  0.19264166273E+02  0.51100000000E-03 0. -1.
         12    1    3    3    0    0 -0.10137068442E+02 -0.12262220586E+01 -0.88017339058E+01  0.13480886354E+02  0.00000000000E+00 0. -1.
</event>
<event>
 7    1  0.5849044E-013  0.5052883E+02  0.7816164E-02  0.1300439E+00
        -11   -1    0    0    0    0  0.00000000000E+00  0.00000000000E+00  0.45593999997E+02  0.45594000000E+02  0.51100000000E-03 0.  1.
         11   -1    0    0    0    0 -0.00000000000E+00 -0.00000000000E+00 -0.45593999997E+02  0.45594000000E+02  0.51100000000E-03 0. -1.
    9900012    2    1    2    0    0  0.18613184777E+02  0.26562187810E+02  0.24518724602E+02  0.50528827297E+02  0.29999901052E+02 0.  0.
         12    1    1    2    0    0 -0.18613184777E+02 -0.26562187810E+02 -0.24518724602E+02  0.40659172703E+02  0.00000000000E+00 0. -1.
         11    1    3    3    0    0  0.66534236687E+01  0.25459354528E+01 -0.47322421011E+01  0.85524235986E+01  0.51100000000E-03 0. -1.
        -11    1    3    3    0    0  0.14560467293E+02  0.20603146031E+02  0.27561215671E+02  0.37364655005E+02  0.51100000000E-03 0.  1.
         12    1    3    3    0    0 -0.26007061852E+01  0.34131063265E+01  0.16897510322E+01  0.46117486931E+01  0.00000000000E+00 0. -1.
</event>
<event>
 7    1  0.5849044E-013  0.5052891E+02  0.7816164E-02  0.1300439E+00
        -11   -1    0    0    0    0  0.00000000000E+00  0.00000000000E+00  0.45593999997E+02  0.45594000000E+02  0.51100000000E-03 0.  1.
         11   -1    0    0    0    0 -0.00000000000E+00 -0.00000000000E+00 -0.45593999997E+02  0.45594000000E+02  0.51100000000E-03 0. -1.
    9900012    2    1    2    0    0 -0.13952405966E+02 -0.59466945891E+01  0.37724382524E+02  0.50528906975E+02  0.30000143241E+02 0.  0.
         12    1    1    2    0    0  0.13952405966E+02  0.59466945891E+01 -0.37724382524E+02  0.40659093025E+02  0.00000000000E+00 0. -1.
         11    1    3    3    0    0 -0.26781738326E+01  0.53917696150E+01  0.10190391815E+01  0.61059180942E+01  0.51100000000E-03 0. -1.
        -11    1    3    3    0    0 -0.91210282653E+01 -0.16810580998E+02  0.27381462991E+02  0.33399600385E+02  0.51100000000E-03 0.  1.
        -12    1    3    3    0    0 -0.21532038682E+01  0.54721167942E+01  0.93238803522E+01  0.11023388496E+02  0.00000000000E+00 0.  1.
</event>
<event>
 7    1  0.5849044E-013  0.5052885E+02  0.7816164E-02  0.1300439E+00
        -11   -1    0    0    0    0  0.00000000000E+00  0.00000000000E+00  0.45593999997E+02  0.45594000000E+02  0.51100000000E-03 0.  1.
         11   -1    0    0    0    0 -0.00000000000E+00 -0.00000000000E+00 -0.45593999997E+02  0.45594000000E+02  0.51100000000E-03 0. -1.
    9900012    2    1    2    0    0 -0.35110851508E+02 -0.12220651242E+02  0.16463600390E+02  0.50528851605E+02  0.29999974939E+02 0.  0.
         12    1    1    2    0    0  0.35110851508E+02  0.12220651242E+02 -0.16463600390E+02  0.40659148395E+02  0.00000000000E+00 0. -1.
         11    1    3    3    0    0 -0.35565364676E+02 -0.31670040542E+01  0.16872051480E+02  0.39491659887E+02  0.51100000000E-03 0. -1.
        -11    1    3    3    0    0 -0.26516685760E+01 -0.20983058970E+01  0.25422820727E+00  0.33909978055E+01  0.51100000000E-03 0.  1.
         12    1    3    3    0    0  0.31061817441E+01 -0.69553412910E+01 -0.66267929733E+00  0.76461939129E+01  0.00000000000E+00 0. -1.
</event>
<event>
 7    1  0.5849044E-013  0.5052894E+02  0.7816164E-02  0.1300439E+00
        -11   -1    0    0    0    0  0.00000000000E+00  0.00000000000E+00  0.45593999997E+02  0.45594000000E+02  0.51100000000E-03 0.  1.
         11   -1    0    0    0    0 -0.00000000000E+00 -0.00000000000E+00 -0.45593999997E+02  0.45594000000E+02  0.51100000000E-03 0. -1.
    9900012    2    1    2    0    0  0.17691110338E+02  0.36598998235E+02  0.83497032759E+00  0.50528939113E+02  0.30000240927E+02 0.  0.
         12    1    1    2    0    0 -0.17691110338E+02 -0.36598998235E+02 -0.83497032759E+00  0.40659060887E+02  0.00000000000E+00 0. -1.
         11    1    3    3    0    0 -0.51240555030E+01  0.11234826616E+02  0.37209806007E+01  0.12896626334E+02  0.51100000000E-03 0. -1.
        -11    1    3    3    0    0  0.21991475436E+02  0.21243678309E+02  0.26399338790E+01  0.30690195684E+02  0.51100000000E-03 0.  1.
        -12    1    3    3    0    0  0.82369040423E+00  0.41204933093E+01 -0.55259441521E+01  0.69421170954E+01  0.00000000000E+00 0.  1.
</event>
<event>
 7    1  0.5849044E-013  0.5052886E+02  0.7816164E-02  0.1300439E+00
        -11   -1    0    0    0    0  0.00000000000E+00  0.00000000000E+00  0.45593999997E+02  0.45594000000E+02  0.51100000000E-03 0. -1.
         11   -1    0    0    0    0 -0.00000000000E+00 -0.00000000000E+00 -0.45593999997E+02  0.45594000000E+02  0.51100000000E-03 0.  1.
    9900012    2    1    2    0    0 -0.26395402761E+02 -0.19323887292E+02 -0.24146137934E+02  0.50528857312E+02  0.29999992287E+02 0.  0.
         12    1    1    2    0    0  0.26395402761E+02  0.19323887292E+02  0.24146137934E+02  0.40659142688E+02  0.00000000000E+00 0. -1.
         11    1    3    3    0    0 -0.77352013303E+01 -0.60362997427E+01 -0.15562727782E+02  0.18397520227E+02  0.51100000000E-03 0.  1.
        -11    1    3    3    0    0 -0.15359115629E+02  0.16709092438E+01 -0.61122906354E+01  0.16614886929E+02  0.51100000000E-03 0. -1.
         12    1    3    3    0    0 -0.33010858016E+01 -0.14958496794E+02 -0.24711195157E+01  0.15516450156E+02  0.00000000000E+00 0. -1.
</event>
<event>
 7    1  0.5849044E-013  0.5052887E+02  0.7816164E-02  0.1300439E+00
        -11   -1    0    0    0    0  0.00000000000E+00  0.00000000000E+00  0.45593999997E+02  0.45594000000E+02  0.51100000000E-03 0.  1.
         11   -1    0    0    0    0 -0.00000000000E+00 -0.00000000000E+00 -0.45593999997E+02  0.45594000000E+02  0.51100000000E-03 0. -1.
    9900012    2    1    2    0    0  0.19883747050E+02 -0.18991106270E+02  0.29952288104E+02  0.50528867240E+02  0.30000022463E+02 0.  0.
         12    1    1    2    0    0 -0.19883747050E+02  0.18991106270E+02 -0.29952288104E+02  0.40659132760E+02  0.00000000000E+00 0. -1.
         11    1    3    3    0    0 -0.52268969122E+01 -0.27865288778E+00  0.98573464234E+01  0.11160886055E+02  0.51100000000E-03 0. -1.
        -11    1    3    3    0    0  0.14928395883E+02 -0.31560892699E+01  0.88308173493E+01  0.17629555821E+02  0.51100000000E-03 0.  1.
         12    1    3    3    0    0  0.10182248079E+02 -0.15556364113E+02  0.11264124331E+02  0.21738425364E+02  0.00000000000E+00 0. -1.
</event>
<event>
 7    1  0.5849044E-013  0.5052874E+02  0.7816164E-02  0.1300439E+00
        -11   -1    0    0    0    0  0.00000000000E+00  0.00000000000E+00  0.45593999997E+02  0.45594000000E+02  0.51100000000E-03 0. -1.
         11   -1    0    0    0    0 -0.00000000000E+00 -0.00000000000E+00 -0.45593999997E+02  0.45594000000E+02  0.51100000000E-03 0.  1.
    9900012    2    1    2    0    0 -0.10045351092E+02  0.33894215828E+02 -0.20086026684E+02  0.50528740131E+02  0.29999636099E+02 0.  0.
         12    1    1    2    0    0  0.10045351092E+02 -0.33894215828E+02  0.20086026684E+02  0.40659259869E+02  0.00000000000E+00 0. -1.
         11    1    3    3    0    0 -0.10940228406E+01 -0.23550709585E+01  0.14829191565E+01  0.29903669810E+01  0.51100000000E-03 0. -1.
        -11    1    3    3    0    0 -0.92696866394E+01  0.28501324755E+02 -0.25028523347E+02  0.39047145662E+02  0.51100000000E-03 0.  1.
        -12    1    3    3    0    0  0.31835838763E+00  0.77479620319E+01  0.34595775070E+01  0.84912274871E+01  0.00000000000E+00 0.  1.
</event>
<event>
 7    1  0.5849044E-013  0.5052886E+02  0.7816164E-02  0.1300439E+00
        -11   -1    0    0    0    0  0.00000000000E+00  0.00000000000E+00  0.45593999997E+02  0.45594000000E+02  0.51100000000E-03 0.  1.
         11   -1    0    0    0    0 -0.00000000000E+00 -0.00000000000E+00 -0.45593999997E+02  0.45594000000E+02  0.51100000000E-03 0. -1.
    9900012    2    1    2    0    0  0.46427949566E+01  0.26728868370E+02  0.30284937344E+02  0.50528863520E+02  0.30000011156E+02 0.  0.
         12    1    1    2    0    0 -0.46427949566E+01 -0.26728868370E+02 -0.30284937344E+02  0.40659136480E+02  0.00000000000E+00 0. -1.
         11    1    3    3    0    0  0.81461736894E+01 -0.37398738214E+01  0.55103786714E+01  0.10521933061E+02  0.51100000000E-03 0. -1.
        -11    1    3    3    0    0  0.13729234839E+01  0.14460474290E+02  0.95534398766E+01  0.17385581650E+02  0.51100000000E-03 0.  1.
         12    1    3    3    0    0 -0.48763022167E+01  0.16008267902E+02  0.15221118796E+02  0.22621348809E+02  0.00000000000E+00 0. -1.
</event>
<event>
 7    1  0.5849044E-013  0.5052883E+02  0.7816164E-02  0.1300439E+00
        -11   -1    0    0    0    0  0.00000000000E+00  0.00000000000E+00  0.45593999997E+02  0.45594000000E+02  0.51100000000E-03 0.  1.
         11   -1    0    0    0    0 -0.00000000000E+00 -0.00000000000E+00 -0.45593999997E+02  0.45594000000E+02  0.51100000000E-03 0. -1.
    9900012    2    1    2    0    0  0.65398361613E+01 -0.38947834367E+02  0.96677199282E+01  0.50528830463E+02  0.29999910674E+02 0.  0.
         12    1    1    2    0    0 -0.65398361613E+01  0.38947834367E+02 -0.96677199282E+01  0.40659169537E+02  0.00000000000E+00 0. -1.
         11    1    3    3    0    0 -0.41329899595E+01 -0.10106189181E+01  0.66226077842E+01  0.78715875608E+01  0.51100000000E-03 0. -1.
        -11    1    3    3    0    0  0.50334933723E+01 -0.36167934001E+02  0.14955516487E+01  0.36547122738E+02  0.51100000000E-03 0.  1.
        -12    1    3    3    0    0  0.56393327486E+01 -0.17692814478E+01  0.15495604954E+01  0.61101201641E+01  0.00000000000E+00 0.  1.
</event>
<event>
 7    1  0.5849044E-013  0.5052884E+02  0.7816164E-02  0.1300439E+00
        -11   -1    0    0    0    0  0.00000000000E+00  0.00000000000E+00  0.45593999997E+02  0.45594000000E+02  0.51100000000E-03 0.  1.
         11   -1    0    0    0    0 -0.00000000000E+00 -0.00000000000E+00 -0.45593999997E+02  0.45594000000E+02  0.51100000000E-03 0. -1.
    9900012    2    1    2    0    0 -0.92039024998E+01  0.29724030988E+02  0.26171314176E+02  0.50528837132E+02  0.29999930947E+02 0.  0.
         12    1    1    2    0    0  0.92039024998E+01 -0.29724030988E+02 -0.26171314176E+02  0.40659162868E+02  0.00000000000E+00 0. -1.
         11    1    3    3    0    0  0.10005307927E+02  0.84140441893E+01  0.10731770303E+02  0.16913699194E+02  0.51100000000E-03 0. -1.
        -11    1    3    3    0    0 -0.14052435016E+02  0.96955033824E+01  0.76348495809E+01  0.18701995725E+02  0.51100000000E-03 0.  1.
         12    1    3    3    0    0 -0.51567754105E+01  0.11614483416E+02  0.78046942925E+01  0.14913142213E+02  0.00000000000E+00 0. -1.
</event>
<event>
 7    1  0.5849044E-013  0.5052886E+02  0.7816164E-02  0.1300439E+00
        -11   -1    0    0    0    0  0.00000000000E+00  0.00000000000E+00  0.45593999997E+02  0.45594000000E+02  0.51100000000E-03 0.  1.
         11   -1    0    0    0    0 -0.00000000000E+00 -0.00000000000E+00 -0.45593999997E+02  0.45594000000E+02  0.51100000000E-03 0. -1.
    9900012    2    1    2    0    0  0.38414764505E+02 -0.67799576787E+01  0.11467502554E+02  0.50528861139E+02  0.30000003918E+02 0.  0.
         12    1    1    2    0    0 -0.38414764505E+02  0.67799576787E+01 -0.11467502554E+02  0.40659138861E+02  0.00000000000E+00 0. -1.
         11    1    3    3    0    0  0.96165863043E+01 -0.11512087472E+02  0.78907101330E+01  0.16949047075E+02  0.51100000000E-03 0. -1.
        -11    1    3    3    0    0  0.27944082463E+02  0.93923030935E-01  0.49996565024E+00  0.27948712531E+02  0.51100000000E-03 0.  1.
        -12    1    3    3    0    0  0.85409573782E+00  0.46382067620E+01  0.30768267706E+01  0.56311015328E+01  0.00000000000E+00 0.  1.
</event>
<event>
 7    1  0.5849044E-013  0.5052886E+02  0.7816164E-02  0.1300439E+00
        -11   -1    0    0    0    0  0.00000000000E+00  0.00000000000E+00  0.45593999997E+02  0.45594000000E+02  0.51100000000E-03 0. -1.
         11   -1    0    0    0    0 -0.00000000000E+00 -0.00000000000E+00 -0.45593999997E+02  0.45594000000E+02  0.51100000000E-03 0.  1.
    9900012    2    1    2    0    0  0.23369114820E+02  0.30332404584E+02 -0.13674625019E+02  0.50528860010E+02  0.30000000485E+02 0.  0.
         12    1    1    2    0    0 -0.23369114820E+02 -0.30332404584E+02  0.13674625019E+02  0.40659139990E+02  0.00000000000E+00 0. -1.
         11    1    3    3    0    0  0.19086645358E+02  0.10801149025E+02 -0.80986943547E+01  0.23378488014E+02  0.51100000000E-03 0.  1.
        -11    1    3    3    0    0 -0.57919531696E+01  0.26962548949E+01 -0.38413304852E+01  0.74546852472E+01  0.51100000000E-03 0. -1.
        -12    1    3    3    0    0  0.10074422632E+02  0.16835000664E+02 -0.17346001789E+01  0.19695686749E+02  0.00000000000E+00 0.  1.
</event>
<event>
 7    1  0.5849044E-013  0.5052884E+02  0.7816164E-02  0.1300439E+00
        -11   -1    0    0    0    0  0.00000000000E+00  0.00000000000E+00  0.45593999997E+02  0.45594000000E+02  0.51100000000E-03 0.  1.
         11   -1    0    0    0    0 -0.00000000000E+00 -0.00000000000E+00 -0.45593999997E+02  0.45594000000E+02  0.51100000000E-03 0. -1.
    9900012    2    1    2    0    0  0.39245398965E+02 -0.98857794519E+01  0.39035021466E+01  0.50528839847E+02  0.29999939200E+02 0.  0.
         12    1    1    2    0    0 -0.39245398965E+02  0.98857794519E+01 -0.39035021466E+01  0.40659160153E+02  0.00000000000E+00 0. -1.
         11    1    3    3    0    0  0.13736214355E+02  0.54979168927E+01 -0.81655284849E+01  0.16899305627E+02  0.51100000000E-03 0. -1.
        -11    1    3    3    0    0  0.20700910426E+02 -0.72986406178E+01  0.91452316725E+01  0.23778837438E+02  0.51100000000E-03 0.  1.
         12    1    3    3    0    0  0.48082741844E+01 -0.80850557269E+01  0.29237989589E+01  0.98506967820E+01  0.00000000000E+00 0. -1.
</event>
<event>
 7    1  0.5849044E-013  0.5052885E+02  0.7816164E-02  0.1300439E+00
        -11   -1    0    0    0    0  0.00000000000E+00  0.00000000000E+00  0.45593999997E+02  0.45594000000E+02  0.51100000000E-03 0.  1.
         11   -1    0    0    0    0 -0.00000000000E+00 -0.00000000000E+00 -0.45593999997E+02  0.45594000000E+02  0.51100000000E-03 0. -1.
    9900012    2    1    2    0    0 -0.11461212604E+02 -0.14341622237E+02  0.36278433525E+02  0.50528852668E+02  0.29999978170E+02 0.  0.
         12    1    1    2    0    0  0.11461212604E+02  0.14341622237E+02 -0.36278433525E+02  0.40659147332E+02  0.00000000000E+00 0. -1.
         11    1    3    3    0    0 -0.11914711051E+02  0.24631063176E+00  0.10384233824E+02  0.15806749215E+02  0.51100000000E-03 0. -1.
        -11    1    3    3    0    0  0.84620625062E+01 -0.77262751046E+01  0.80824784804E+01  0.14022420886E+02  0.51100000000E-03 0.  1.
        -12    1    3    3    0    0 -0.80085640584E+01 -0.68616577640E+01  0.17811721221E+02  0.20699682568E+02  0.00000000000E+00 0.  1.
</event>
<event>
 7    1  0.5849044E-013  0.5052886E+02  0.7816164E-02  0.1300439E+00
        -11   -1    0    0    0    0  0.00000000000E+00  0.00000000000E+00  0.45593999997E+02  0.45594000000E+02  0.51100000000E-03 0. -1.
         11   -1    0    0    0    0 -0.00000000000E+00 -0.00000000000E+00 -0.45593999997E+02  0.45594000000E+02  0.51100000000E-03 0.  1.
    9900012    2    1    2    0    0 -0.54088951250E+01  0.11964080748E+02 -0.38480776215E+02  0.50528861879E+02  0.30000006167E+02 0.  0.
         12    1    1    2    0    0  0.54088951250E+01 -0.11964080748E+02  0.38480776215E+02  0.40659138121E+02  0.00000000000E+00 0. -1.
         11    1    3    3    0    0 -0.82896186496E+01 -0.21499577693E+01 -0.32370931579E+02  0.33484583129E+02  0.51100000000E-03 0. -1.
        -11    1    3    3    0    0  0.34897001858E+01  0.53126384614E+01 -0.51288766638E+01  0.81674666147E+01  0.51100000000E-03 0.  1.
         12    1    3    3    0    0 -0.60897666117E+00  0.88014000561E+01 -0.98096797256E+00  0.88768121353E+01  0.00000000000E+00 0. -1.
</event>
<event>
 7    1  0.5849044E-013  0.5052887E+02  0.7816164E-02  0.1300439E+00
        -11   -1    0    0    0    0  0.00000000000E+00  0.00000000000E+00  0.45593999997E+02  0.45594000000E+02  0.51100000000E-03 0. -1.
         11   -1    0    0    0    0 -0.00000000000E+00 -0.00000000000E+00 -0.45593999997E+02  0.45594000000E+02  0.51100000000E-03 0.  1.
    9900012    2    1    2    0    0 -0.39213442717E+02  0.97630655090E+01  0.44892416344E+01  0.50528870296E+02  0.30000031751E+02 0.  0.
         12    1    1    2    0    0  0.39213442717E+02 -0.97630655090E+01 -0.44892416344E+01  0.40659129704E+02  0.00000000000E+00 0. -1.
         11    1    3    3    0    0 -0.17347917254E+02 -0.58187300218E+01  0.11483106434E+02  0.21602536558E+02  0.51100000000E-03 0.  1.
        -11    1    3    3    0    0 -0.12297355083E+02  0.13447808960E+02 -0.37888664083E+01  0.18612469390E+02  0.51100000000E-03 0. -1.
        -12    1    3    3    0    0 -0.95681703799E+01  0.21339865707E+01 -0.32049983909E+01  0.10313864348E+02  0.00000000000E+00 0.  1.
</event>
<event>
 7    1  0.5849044E-013  0.5052886E+02  0.7816164E-02  0.1300439E+00
        -11   -1    0    0    0    0  0.00000000000E+00  0.00000000000E+00  0.45593999997E+02  0.45594000000E+02  0.51100000000E-03 0.  1.
         11   -1    0    0    0    0 -0.00000000000E+00 -0.00000000000E+00 -0.45593999997E+02  0.45594000000E+02  0.51100000000E-03 0. -1.
    9900012    2    1    2    0    0  0.14033338547E-01 -0.10544823124E+02  0.39267954414E+02  0.50528859139E+02  0.29999997840E+02 0.  0.
         12    1    1    2    0    0 -0.14033338547E-01  0.10544823124E+02 -0.39267954414E+02  0.40659140861E+02  0.00000000000E+00 0. -1.
         11    1    3    3    0    0 -0.62426436604E+01  0.77091501793E+00  0.38081733147E+01  0.73530329858E+01  0.51100000000E-03 0. -1.
        -11    1    3    3    0    0  0.10797310865E+01 -0.16810699903E+02  0.27126017847E+02  0.31930961384E+02  0.51100000000E-03 0.  1.
        -12    1    3    3    0    0  0.51769459124E+01  0.54949617606E+01  0.83337632527E+01  0.11244864769E+02  0.00000000000E+00 0.  1.
</event>
<event>
 7    1  0.5849044E-013  0.5052886E+02  0.7816164E-02  0.1300439E+00
        -11   -1    0    0    0    0  0.00000000000E+00  0.00000000000E+00  0.45593999997E+02  0.45594000000E+02  0.51100000000E-03 0.  1.
         11   -1    0    0    0    0 -0.00000000000E+00 -0.00000000000E+00 -0.45593999997E+02  0.45594000000E+02  0.51100000000E-03 0. -1.
    9900012    2    1    2    0    0 -0.18689860231E+02  0.35713764781E+02  0.53274567671E+01  0.50528859996E+02  0.30000000443E+02 0.  0.
         12    1    1    2    0    0  0.18689860231E+02 -0.35713764781E+02 -0.53274567671E+01  0.40659140004E+02  0.00000000000E+00 0. -1.
         11    1    3    3    0    0 -0.23915667724E+01  0.13097504055E+02 -0.47147369580E+01  0.14124197284E+02  0.51100000000E-03 0. -1.
        -11    1    3    3    0    0 -0.18908472215E+02  0.21586904841E+02  0.13695958871E+02  0.31797862692E+02  0.51100000000E-03 0.  1.
        -12    1    3    3    0    0  0.26101787561E+01  0.10293558850E+01 -0.36537651458E+01  0.46068000192E+01  0.00000000000E+00 0.  1.
</event>
<event>
 7    1  0.5849044E-013  0.5052891E+02  0.7816164E-02  0.1300439E+00
        -11   -1    0    0    0    0  0.00000000000E+00  0.00000000000E+00  0.45593999997E+02  0.45594000000E+02  0.51100000000E-03 0.  1.
         11   -1    0    0    0    0 -0.00000000000E+00 -0.00000000000E+00 -0.45593999997E+02  0.45594000000E+02  0.51100000000E-03 0. -1.
    9900012    2    1    2    0    0  0.26783262839E+02 -0.24336744588E+02  0.18534866754E+02  0.50528910105E+02  0.30000152755E+02 0.  0.
         12    1    1    2    0    0 -0.26783262839E+02  0.24336744588E+02 -0.18534866754E+02  0.40659089895E+02  0.00000000000E+00 0. -1.
         11    1    3    3    0    0  0.37066035473E-01 -0.90859527136E+01 -0.92150750492E+00  0.91326385534E+01  0.51100000000E-03 0. -1.
        -11    1    3    3    0    0  0.26188999544E+02 -0.64266713269E+01  0.10879274133E+02  0.29077902390E+02  0.51100000000E-03 0.  1.
         12    1    3    3    0    0  0.55719725943E+00 -0.88241205479E+01  0.85771001267E+01  0.12318369162E+02  0.00000000000E+00 0. -1.
</event>
<event>
 7    1  0.5849044E-013  0.5052885E+02  0.7816164E-02  0.1300439E+00
        -11   -1    0    0    0    0  0.00000000000E+00  0.00000000000E+00  0.45593999997E+02  0.45594000000E+02  0.51100000000E-03 0.  1.
         11   -1    0    0    0    0 -0.00000000000E+00 -0.00000000000E+00 -0.45593999997E+02  0.45594000000E+02  0.51100000000E-03 0. -1.
    9900012    2    1    2    0    0  0.12680904485E+02 -0.30509847073E+02  0.23696201826E+02  0.50528854806E+02  0.29999984667E+02 0.  0.
         12    1    1    2    0    0 -0.12680904485E+02  0.30509847073E+02 -0.23696201826E+02  0.40659145194E+02  0.00000000000E+00 0. -1.
         11    1    3    3    0    0  0.73850195593E+00  0.16742465207E+01 -0.18038916884E+01  0.25695353735E+01  0.51100000000E-03 0. -1.
        -11    1    3    3    0    0  0.49871518288E+01 -0.27519589412E+02  0.27634037120E+02  0.39317165368E+02  0.51100000000E-03 0.  1.
        -12    1    3    3    0    0  0.69552507003E+01 -0.46645041814E+01 -0.21339436049E+01  0.86421540643E+01  0.00000000000E+00 0.  1.
</event>
<event>
 7    1  0.5849044E-013  0.5052887E+02  0.7816164E-02  0.1300439E+00
        -11   -1    0    0    0    0  0.00000000000E+00  0.00000000000E+00  0.45593999997E+02  0.45594000000E+02  0.51100000000E-03 0.  1.
         11   -1    0    0    0    0 -0.00000000000E+00 -0.00000000000E+00 -0.45593999997E+02  0.45594000000E+02  0.51100000000E-03 0. -1.
    9900012    2    1    2    0    0  0.11663460527E+02  0.73684367170E+01  0.38247024452E+02  0.50528867562E+02  0.30000023443E+02 0.  0.
         12    1    1    2    0    0 -0.11663460527E+02 -0.73684367170E+01 -0.38247024452E+02  0.40659132438E+02  0.00000000000E+00 0. -1.
         11    1    3    3    0    0  0.12478842186E+02  0.43439438913E+01  0.31592370140E+02  0.34244257945E+02  0.51100000000E-03 0.  1.
        -11    1    3    3    0    0 -0.11075366714E+01 -0.41210021163E+01 -0.22817422142E+01  0.48389713487E+01  0.51100000000E-03 0. -1.
        -12    1    3    3    0    0  0.29215501296E+00  0.71454949419E+01  0.89363965261E+01  0.11445638269E+02  0.00000000000E+00 0.  1.
</event>
<event>
 7    1  0.5849044E-013  0.5052887E+02  0.7816164E-02  0.1300439E+00
        -11   -1    0    0    0    0  0.00000000000E+00  0.00000000000E+00  0.45593999997E+02  0.45594000000E+02  0.51100000000E-03 0.  1.
         11   -1    0    0    0    0 -0.00000000000E+00 -0.00000000000E+00 -0.45593999997E+02  0.45594000000E+02  0.51100000000E-03 0. -1.
    9900012    2    1    2    0    0 -0.17904140478E+02  0.28078006983E+02  0.23328782205E+02  0.50528870625E+02  0.30000032751E+02 0.  0.
         12    1    1    2    0    0  0.17904140478E+02 -0.28078006983E+02 -0.23328782205E+02  0.40659129375E+02  0.00000000000E+00 0. -1.
         11    1    3    3    0    0 -0.10948071762E+01  0.17642269191E+02 -0.89385642652E+00  0.17698792177E+02  0.51100000000E-03 0. -1.
        -11    1    3    3    0    0 -0.43812700609E+01  0.66411850735E+01  0.14717198071E+02  0.16730116134E+02  0.51100000000E-03 0.  1.
         12    1    3    3    0    0 -0.12428063241E+02  0.37945527187E+01  0.95054405608E+01  0.16099962314E+02  0.00000000000E+00 0. -1.
</event>
<event>
 7    1  0.5849044E-013  0.5052886E+02  0.7816164E-02  0.1300439E+00
        -11   -1    0    0    0    0  0.00000000000E+00  0.00000000000E+00  0.45593999997E+02  0.45594000000E+02  0.51100000000E-03 0.  1.
         11   -1    0    0    0    0 -0.00000000000E+00 -0.00000000000E+00 -0.45593999997E+02  0.45594000000E+02  0.51100000000E-03 0. -1.
    9900012    2    1    2    0    0 -0.30754378849E+02 -0.26859960859E+01  0.26459768512E+02  0.50528859046E+02  0.29999997558E+02 0.  0.
         12    1    1    2    0    0  0.30754378849E+02  0.26859960859E+01 -0.26459768512E+02  0.40659140954E+02  0.00000000000E+00 0. -1.
         11    1    3    3    0    0 -0.23183387173E+02 -0.12520090767E+02  0.26805603985E+02  0.37586733283E+02  0.51100000000E-03 0. -1.
        -11    1    3    3    0    0 -0.52498618436E+01  0.38860081801E+01 -0.54293785184E+00  0.65541506486E+01  0.51100000000E-03 0.  1.
         12    1    3    3    0    0 -0.23211298325E+01  0.59480865005E+01  0.19710237840E+00  0.63879751146E+01  0.00000000000E+00 0. -1.
</event>
<event>
 7    1  0.5849044E-013  0.5052886E+02  0.7816164E-02  0.1300439E+00
        -11   -1    0    0    0    0  0.00000000000E+00  0.00000000000E+00  0.45593999997E+02  0.45594000000E+02  0.51100000000E-03 0.  1.
         11   -1    0    0    0    0 -0.00000000000E+00 -0.00000000000E+00 -0.45593999997E+02  0.45594000000E+02  0.51100000000E-03 0. -1.
    9900012    2    1    2    0    0 -0.18534578440E+02  0.15445003570E+01  0.36155905884E+02  0.50528860688E+02  0.30000002547E+02 0.  0.
         12    1    1    2    0    0  0.18534578440E+02 -0.15445003570E+01 -0.36155905884E+02  0.40659139312E+02  0.00000000000E+00 0. -1.
         11    1    3    3    0    0 -0.10454578631E+02 -0.20151475870E+01  0.11012851818E+02  0.15318026621E+02  0.51100000000E-03 0. -1.
        -11    1    3    3    0    0 -0.38460187835E+01  0.13177381084E+02  0.17373053054E+02  0.22141775118E+02  0.51100000000E-03 0.  1.
        -12    1    3    3    0    0 -0.42339810262E+01 -0.96177331395E+01  0.77700010122E+01  0.13069058949E+02  0.00000000000E+00 0.  1.
</event>
<event>
 7    1  0.5849044E-013  0.5052886E+02  0.7816164E-02  0.1300439E+00
        -11   -1    0    0    0    0  0.00000000000E+00  0.00000000000E+00  0.45593999997E+02  0.45594000000E+02  0.51100000000E-03 0.  1.
         11   -1    0    0    0    0 -0.00000000000E+00 -0.00000000000E+00 -0.45593999997E+02  0.45594000000E+02  0.51100000000E-03 0. -1.
    9900012    2    1    2    0    0 -0.31998554025E+02 -0.23558176039E+01  0.24974159102E+02  0.50528856390E+02  0.29999989482E+02 0.  0.
         12    1    1    2    0    0  0.31998554025E+02  0.23558176039E+01 -0.24974159102E+02  0.40659143610E+02  0.00000000000E+00 0. -1.
         11    1    3    3    0    0 -0.29868836711E+02  0.73670071700E+01  0.17686039848E+02  0.35485436547E+02  0.51100000000E-03 0. -1.
        -11    1    3    3    0    0 -0.54249026494E+01 -0.71640092551E+01  0.50931963673E+01  0.10329242318E+02  0.51100000000E-03 0.  1.
         12    1    3    3    0    0  0.32951853361E+01 -0.25588155187E+01  0.21949228871E+01  0.47141775251E+01  0.00000000000E+00 0. -1.
</event>
<event>
 7    1  0.5849044E-013  0.5052880E+02  0.7816164E-02  0.1300439E+00
        -11   -1    0    0    0    0  0.00000000000E+00  0.00000000000E+00  0.45593999997E+02  0.45594000000E+02  0.51100000000E-03 0.  1.
         11   -1    0    0    0    0 -0.00000000000E+00 -0.00000000000E+00 -0.45593999997E+02  0.45594000000E+02  0.51100000000E-03 0. -1.
    9900012    2    1    2    0    0 -0.16176966461E+02  0.22678773238E+02  0.29616704647E+02  0.50528804317E+02  0.29999831202E+02 0.  0.
         12    1    1    2    0    0  0.16176966461E+02 -0.22678773238E+02 -0.29616704647E+02  0.40659195683E+02  0.00000000000E+00 0. -1.
         11    1    3    3    0    0 -0.49304739466E+00 -0.13147045789E+01 -0.24494506067E+01  0.28233583547E+01  0.51100000000E-03 0. -1.
        -11    1    3    3    0    0 -0.10599838150E+02  0.22227576060E+02  0.34004632142E+02  0.41984958184E+02  0.51100000000E-03 0.  1.
        -12    1    3    3    0    0 -0.50840809165E+01  0.17659017566E+01 -0.19384768884E+01  0.57204877787E+01  0.00000000000E+00 0.  1.
</event>
<event>
 7    1  0.5849044E-013  0.5052886E+02  0.7816164E-02  0.1300439E+00
        -11   -1    0    0    0    0  0.00000000000E+00  0.00000000000E+00  0.45593999997E+02  0.45594000000E+02  0.51100000000E-03 0. -1.
         11   -1    0    0    0    0 -0.00000000000E+00 -0.00000000000E+00 -0.45593999997E+02  0.45594000000E+02  0.51100000000E-03 0.  1.
    9900012    2    1    2    0    0 -0.37707470217E+02  0.14690814213E+02  0.39360689626E+01  0.50528856241E+02  0.29999989029E+02 0.  0.
         12    1    1    2    0    0  0.37707470217E+02 -0.14690814213E+02 -0.39360689626E+01  0.40659143759E+02  0.00000000000E+00 0. -1.
         11    1    3    3    0    0 -0.19661256390E+01 -0.29879256729E+01  0.15462402294E+01  0.38966920539E+01  0.51100000000E-03 0. -1.
        -11    1    3    3    0    0 -0.10013145271E+02  0.17651853120E+02  0.46009036189E+01  0.20809116059E+02  0.51100000000E-03 0.  1.
        -12    1    3    3    0    0 -0.25728199306E+02  0.26886765490E-01 -0.22110748857E+01  0.25823048127E+02  0.00000000000E+00 0.  1.
</event>
<event>
 7    1  0.5849044E-013  0.5052886E+02  0.7816164E-02  0.1300439E+00
        -11   -1    0    0    0    0  0.00000000000E+00  0.00000000000E+00  0.45593999997E+02  0.45594000000E+02  0.51100000000E-03 0.  1.
         11   -1    0    0    0    0 -0.00000000000E+00 -0.00000000000E+00 -0.45593999997E+02  0.45594000000E+02  0.51100000000E-03 0. -1.
    9900012    2    1    2    0    0 -0.21549988434E+02  0.26400511784E+02  0.22176035759E+02  0.50528860979E+02  0.30000003431E+02 0.  0.
         12    1    1    2    0    0  0.21549988434E+02 -0.26400511784E+02 -0.22176035759E+02  0.40659139021E+02  0.00000000000E+00 0. -1.
         11    1    3    3    0    0 -0.20938297490E+02  0.13580623418E+02  0.10521331356E+02  0.27084018312E+02  0.51100000000E-03 0. -1.
        -11    1    3    3    0    0  0.55464644070E+01  0.10336378352E+02  0.22691726073E+01  0.11947934108E+02  0.51100000000E-03 0.  1.
        -12    1    3    3    0    0 -0.61581553516E+01  0.24835100139E+01  0.93855317955E+01  0.11496908559E+02  0.00000000000E+00 0.  1.
</event>
<event>
 7    1  0.5849044E-013  0.5052887E+02  0.7816164E-02  0.1300439E+00
        -11   -1    0    0    0    0  0.00000000000E+00  0.00000000000E+00  0.45593999997E+02  0.45594000000E+02  0.51100000000E-03 0.  1.
         11   -1    0    0    0    0 -0.00000000000E+00 -0.00000000000E+00 -0.45593999997E+02  0.45594000000E+02  0.51100000000E-03 0. -1.
    9900012    2    1    2    0    0  0.33882963989E+02 -0.16988935807E+02  0.14713459917E+02  0.50528867062E+02  0.30000021923E+02 0.  0.
         12    1    1    2    0    0 -0.33882963989E+02  0.16988935807E+02 -0.14713459917E+02  0.40659132938E+02  0.00000000000E+00 0. -1.
         11    1    3    3    0    0  0.24915889776E+01 -0.53808294852E+01 -0.35293236708E+01  0.69005410959E+01  0.51100000000E-03 0. -1.
        -11    1    3    3    0    0  0.25403163652E+02  0.93481739272E+00  0.14365204830E+02  0.29198522516E+02  0.51100000000E-03 0.  1.
         12    1    3    3    0    0  0.59882113595E+01 -0.12542923714E+02  0.38775787584E+01  0.14429803450E+02  0.00000000000E+00 0. -1.
</event>
<event>
 7    1  0.5849044E-013  0.5052886E+02  0.7816164E-02  0.1300439E+00
        -11   -1    0    0    0    0  0.00000000000E+00  0.00000000000E+00  0.45593999997E+02  0.45594000000E+02  0.51100000000E-03 0.  1.
         11   -1    0    0    0    0 -0.00000000000E+00 -0.00000000000E+00 -0.45593999997E+02  0.45594000000E+02  0.51100000000E-03 0. -1.
    9900012    2    1    2    0    0 -0.39004843856E+02 -0.44185186281E+01 -0.10595509901E+02  0.50528856119E+02  0.29999988659E+02 0.  0.
         12    1    1    2    0    0  0.39004843856E+02  0.44185186281E+01  0.10595509901E+02  0.40659143881E+02  0.00000000000E+00 0. -1.
         11    1    3    3    0    0 -0.60902000591E+00  0.27396191496E+01 -0.64201940466E+01  0.70068045719E+01  0.51100000000E-03 0. -1.
        -11    1    3    3    0    0 -0.24753294939E+02  0.26128224007E+01  0.33794992247E+01  0.25119185228E+02  0.51100000000E-03 0.  1.
        -12    1    3    3    0    0 -0.13642528911E+02 -0.97709601784E+01 -0.75548150787E+01  0.18402866319E+02  0.00000000000E+00 0.  1.
</event>
<event>
 7    1  0.5849044E-013  0.5052886E+02  0.7816164E-02  0.1300439E+00
        -11   -1    0    0    0    0  0.00000000000E+00  0.00000000000E+00  0.45593999997E+02  0.45594000000E+02  0.51100000000E-03 0.  1.
         11   -1    0    0    0    0 -0.00000000000E+00 -0.00000000000E+00 -0.45593999997E+02  0.45594000000E+02  0.51100000000E-03 0. -1.
    9900012    2    1    2    0    0  0.13079928761E+02  0.36578867663E+02 -0.12002809055E+02  0.50528861776E+02  0.30000005854E+02 0.  0.
         12    1    1    2    0    0 -0.13079928761E+02 -0.36578867663E+02  0.12002809055E+02  0.40659138224E+02  0.00000000000E+00 0. -1.
         11    1    3    3    0    0  0.40814161795E+01  0.12495296101E+02  0.84328720369E+01  0.15617416999E+02  0.51100000000E-03 0.  1.
        -11    1    3    3    0    0 -0.78071144446E+00  0.11761026220E+02 -0.12881146864E+02  0.17460102889E+02  0.51100000000E-03 0. -1.
         12    1    3    3    0    0  0.97792240256E+01  0.12322545342E+02 -0.75545342283E+01  0.17451341887E+02  0.00000000000E+00 0. -1.
</event>
<event>
 7    1  0.5849044E-013  0.5052887E+02  0.7816164E-02  0.1300439E+00
        -11   -1    0    0    0    0  0.00000000000E+00  0.00000000000E+00  0.45593999997E+02  0.45594000000E+02  0.51100000000E-03 0. -1.
         11   -1    0    0    0    0 -0.00000000000E+00 -0.00000000000E+00 -0.45593999997E+02  0.45594000000E+02  0.51100000000E-03 0.  1.
    9900012    2    1    2    0    0 -0.28817779737E+02 -0.17756020182E+02 -0.22526085049E+02  0.50528865856E+02  0.30000018256E+02 0.  0.
         12    1    1    2    0    0  0.28817779737E+02  0.17756020182E+02  0.22526085049E+02  0.40659134144E+02  0.00000000000E+00 0. -1.
         11    1    3    3    0    0 -0.21520893180E+01 -0.11609794464E+02  0.36694250376E+01  0.12364606597E+02  0.51100000000E-03 0. -1.
        -11    1    3    3    0    0 -0.15308875791E+02 -0.40217794032E+01 -0.18165514127E+02  0.24094030201E+02  0.51100000000E-03 0.  1.
         12    1    3    3    0    0 -0.11356814629E+02 -0.21244463149E+01 -0.80299959594E+01  0.14070229059E+02  0.00000000000E+00 0. -1.
</event>
<event>
 7    1  0.5849044E-013  0.5052886E+02  0.7816164E-02  0.1300439E+00
        -11   -1    0    0    0    0  0.00000000000E+00  0.00000000000E+00  0.45593999997E+02  0.45594000000E+02  0.51100000000E-03 0.  1.
         11   -1    0    0    0    0 -0.00000000000E+00 -0.00000000000E+00 -0.45593999997E+02  0.45594000000E+02  0.51100000000E-03 0. -1.
    9900012    2    1    2    0    0  0.35475444459E+02  0.34965918381E+01  0.19555878243E+02  0.50528859725E+02  0.29999999620E+02 0.  0.
         12    1    1    2    0    0 -0.35475444459E+02 -0.34965918381E+01 -0.19555878243E+02  0.40659140275E+02  0.00000000000E+00 0. -1.
         11    1    3    3    0    0  0.34041361478E+01  0.12430477811E+02  0.40641388568E+01  0.13513776172E+02  0.51100000000E-03 0. -1.
        -11    1    3    3    0    0  0.90398274662E+00 -0.22431645815E+00  0.14841381998E+01  0.17521898118E+01  0.51100000000E-03 0.  1.
         12    1    3    3    0    0  0.31167325565E+02 -0.87095695146E+01  0.14007601187E+02  0.35262893741E+02  0.00000000000E+00 0. -1.
</event>
<event>
 7    1  0.5849044E-013  0.5052887E+02  0.7816164E-02  0.1300439E+00
        -11   -1    0    0    0    0  0.00000000000E+00  0.00000000000E+00  0.45593999997E+02  0.45594000000E+02  0.51100000000E-03 0.  1.
         11   -1    0    0    0    0 -0.00000000000E+00 -0.00000000000E+00 -0.45593999997E+02  0.45594000000E+02  0.51100000000E-03 0. -1.
    9900012    2    1    2    0    0 -0.28209369840E+00 -0.17380956309E+02  0.36755788984E+02  0.50528865197E+02  0.30000016254E+02 0.  0.
         12    1    1    2    0    0  0.28209369840E+00  0.17380956309E+02 -0.36755788984E+02  0.40659134803E+02  0.00000000000E+00 0. -1.
         11    1    3    3    0    0  0.92985338838E+01  0.25307092642E+01  0.17130394076E+02  0.19654964341E+02  0.51100000000E-03 0. -1.
        -11    1    3    3    0    0 -0.32662839565E+01 -0.15151622494E+02  0.15638158355E+02  0.22017998821E+02  0.51100000000E-03 0.  1.
         12    1    3    3    0    0 -0.63143436256E+01 -0.47600430790E+01  0.39872365524E+01  0.88559020355E+01  0.00000000000E+00 0. -1.
</event>
<event>
 7    1  0.5849044E-013  0.5052884E+02  0.7816164E-02  0.1300439E+00
        -11   -1    0    0    0    0  0.00000000000E+00  0.00000000000E+00  0.45593999997E+02  0.45594000000E+02  0.51100000000E-03 0. -1.
         11   -1    0    0    0    0 -0.00000000000E+00 -0.00000000000E+00 -0.45593999997E+02  0.45594000000E+02  0.51100000000E-03 0.  1.
    9900012    2    1    2    0    0 -0.13299315633E+02  0.14903836841E+02 -0.35414273909E+02  0.50528844262E+02  0.29999952618E+02 0.  0.
         12    1    1    2    0    0  0.13299315633E+02 -0.14903836841E+02  0.35414273909E+02  0.40659155738E+02  0.00000000000E+00 0. -1.
         11    1    3    3    0    0  0.51853174952E+01 -0.38075797952E+01 -0.14354423929E+02  0.15730056198E+02  0.51100000000E-03 0. -1.
        -11    1    3    3    0    0 -0.11804724395E+02  0.93528773873E+01 -0.16735412209E+02  0.22514481018E+02  0.51100000000E-03 0.  1.
         12    1    3    3    0    0 -0.66799087331E+01  0.93585392484E+01 -0.43244377715E+01  0.12284307045E+02  0.00000000000E+00 0. -1.
</event>
<event>
 7    1  0.5849044E-013  0.5052885E+02  0.7816164E-02  0.1300439E+00
        -11   -1    0    0    0    0  0.00000000000E+00  0.00000000000E+00  0.45593999997E+02  0.45594000000E+02  0.51100000000E-03 0. -1.
         11   -1    0    0    0    0 -0.00000000000E+00 -0.00000000000E+00 -0.45593999997E+02  0.45594000000E+02  0.51100000000E-03 0.  1.
    9900012    2    1    2    0    0  0.37735969112E+02 -0.10112665459E+02 -0.11264869271E+02  0.50528847929E+02  0.29999963764E+02 0.  0.
         12    1    1    2    0    0 -0.37735969112E+02  0.10112665459E+02  0.11264869271E+02  0.40659152071E+02  0.00000000000E+00 0. -1.
         11    1    3    3    0    0  0.66769753705E+01 -0.81332049096E+01 -0.69865264447E+01  0.12631016357E+02  0.51100000000E-03 0. -1.
        -11    1    3    3    0    0  0.26635360239E+02 -0.27580916750E+01  0.53194438464E+01  0.27301025033E+02  0.51100000000E-03 0.  1.
        -12    1    3    3    0    0  0.44236335020E+01  0.77863112563E+00 -0.95977866729E+01  0.10596806538E+02  0.00000000000E+00 0.  1.
</event>
<event>
 7    1  0.5849044E-013  0.5052886E+02  0.7816164E-02  0.1300439E+00
        -11   -1    0    0    0    0  0.00000000000E+00  0.00000000000E+00  0.45593999997E+02  0.45594000000E+02  0.51100000000E-03 0.  1.
         11   -1    0    0    0    0 -0.00000000000E+00 -0.00000000000E+00 -0.45593999997E+02  0.45594000000E+02  0.51100000000E-03 0. -1.
    9900012    2    1    2    0    0 -0.31879735606E+01  0.40214027449E+02 -0.50827912723E+01  0.50528856548E+02  0.29999989964E+02 0.  0.
         12    1    1    2    0    0  0.31879735606E+01 -0.40214027449E+02  0.50827912723E+01  0.40659143452E+02  0.00000000000E+00 0. -1.
         11    1    3    3    0    0 -0.41042943609E+01  0.62983455869E+01  0.36748919604E+00  0.75265820864E+01  0.51100000000E-03 0. -1.
        -11    1    3    3    0    0 -0.41930652356E+01  0.11243174798E+02 -0.13817705280E+02  0.18300812962E+02  0.51100000000E-03 0.  1.
        -12    1    3    3    0    0  0.51093860359E+01  0.22672507065E+02  0.83674248113E+01  0.24701461500E+02  0.00000000000E+00 0.  1.
</event>
<event>
 7    1  0.5849044E-013  0.5052888E+02  0.7816164E-02  0.1300439E+00
        -11   -1    0    0    0    0  0.00000000000E+00  0.00000000000E+00  0.45593999997E+02  0.45594000000E+02  0.51100000000E-03 0.  1.
         11   -1    0    0    0    0 -0.00000000000E+00 -0.00000000000E+00 -0.45593999997E+02  0.45594000000E+02  0.51100000000E-03 0. -1.
    9900012    2    1    2    0    0 -0.12302545206E+02  0.46029958086E+01  0.38478874684E+02  0.50528880655E+02  0.30000063239E+02 0.  0.
         12    1    1    2    0    0  0.12302545206E+02 -0.46029958086E+01 -0.38478874684E+02  0.40659119345E+02  0.00000000000E+00 0. -1.
         11    1    3    3    0    0  0.27144933109E+01 -0.16514511967E+01 -0.87839956340E+00  0.32965665539E+01  0.51100000000E-03 0. -1.
        -11    1    3    3    0    0 -0.18391120338E+02  0.19191192129E+01  0.36775015608E+02  0.41162095416E+02  0.51100000000E-03 0.  1.
        -12    1    3    3    0    0  0.33740818208E+01  0.43353277924E+01  0.25822586394E+01  0.60702186849E+01  0.00000000000E+00 0.  1.
</event>
<event>
 7    1  0.5849044E-013  0.5052885E+02  0.7816164E-02  0.1300439E+00
        -11   -1    0    0    0    0  0.00000000000E+00  0.00000000000E+00  0.45593999997E+02  0.45594000000E+02  0.51100000000E-03 0.  1.
         11   -1    0    0    0    0 -0.00000000000E+00 -0.00000000000E+00 -0.45593999997E+02  0.45594000000E+02  0.51100000000E-03 0. -1.
    9900012    2    1    2    0    0 -0.21502976021E+01 -0.16474243685E+02  0.37109862571E+02  0.50528851154E+02  0.29999973569E+02 0.  0.
         12    1    1    2    0    0  0.21502976021E+01  0.16474243685E+02 -0.37109862571E+02  0.40659148846E+02  0.00000000000E+00 0. -1.
         11    1    3    3    0    0  0.18135510829E+01  0.38146584208E+00 -0.17134908655E+01  0.25239918634E+01  0.51100000000E-03 0. -1.
        -11    1    3    3    0    0 -0.82973971187E+01 -0.20779381163E+02  0.31388775594E+02  0.38547175176E+02  0.51100000000E-03 0.  1.
        -12    1    3    3    0    0  0.43335484337E+01  0.39236716355E+01  0.74345778426E+01  0.94576841155E+01  0.00000000000E+00 0.  1.
</event>
<event>
 7    1  0.5849044E-013  0.5052886E+02  0.7816164E-02  0.1300439E+00
        -11   -1    0    0    0    0  0.00000000000E+00  0.00000000000E+00  0.45593999997E+02  0.45594000000E+02  0.51100000000E-03 0. -1.
         11   -1    0    0    0    0 -0.00000000000E+00 -0.00000000000E+00 -0.45593999997E+02  0.45594000000E+02  0.51100000000E-03 0.  1.
    9900012    2    1    2    0    0 -0.39884209437E+02 -0.37985235876E+01  0.69272586564E+01  0.50528857654E+02  0.29999993325E+02 0.  0.
         12    1    1    2    0    0  0.39884209437E+02  0.37985235876E+01 -0.69272586564E+01  0.40659142346E+02  0.00000000000E+00 0. -1.
         11    1    3    3    0    0 -0.38260580518E+00 -0.89883811293E+00 -0.85262218671E+00  0.12966348791E+01  0.51100000000E-03 0. -1.
        -11    1    3    3    0    0 -0.33402837062E+01 -0.41692108666E+01 -0.81115525525E+01  0.97127287392E+01  0.51100000000E-03 0.  1.
        -12    1    3    3    0    0 -0.36161319925E+02  0.12695253919E+01  0.15891433396E+02  0.39519494036E+02  0.00000000000E+00 0.  1.
</event>
<event>
 7    1  0.5849044E-013  0.5052886E+02  0.7816164E-02  0.1300439E+00
        -11   -1    0    0    0    0  0.00000000000E+00  0.00000000000E+00  0.45593999997E+02  0.45594000000E+02  0.51100000000E-03 0. -1.
         11   -1    0    0    0    0 -0.00000000000E+00 -0.00000000000E+00 -0.45593999997E+02  0.45594000000E+02  0.51100000000E-03 0.  1.
    9900012    2    1    2    0    0  0.51164414695E+01 -0.25503165140E+02 -0.31250218664E+02  0.50528861150E+02  0.30000003950E+02 0.  0.
         12    1    1    2    0    0 -0.51164414695E+01  0.25503165140E+02  0.31250218664E+02  0.40659138850E+02  0.00000000000E+00 0. -1.
         11    1    3    3    0    0 -0.82096664539E+01 -0.29230577045E+01 -0.16678132873E+02  0.18817624877E+02  0.51100000000E-03 0. -1.
        -11    1    3    3    0    0  0.78473668961E+01 -0.19158468102E+02 -0.14455896688E+02  0.25250762691E+02  0.51100000000E-03 0.  1.
         12    1    3    3    0    0  0.54787410273E+01 -0.34216393343E+01 -0.11618910357E+00  0.64604735806E+01  0.00000000000E+00 0. -1.
</event>
<event>
 7    1  0.5849044E-013  0.5052886E+02  0.7816164E-02  0.1300439E+00
        -11   -1    0    0    0    0  0.00000000000E+00  0.00000000000E+00  0.45593999997E+02  0.45594000000E+02  0.51100000000E-03 0.  1.
         11   -1    0    0    0    0 -0.00000000000E+00 -0.00000000000E+00 -0.45593999997E+02  0.45594000000E+02  0.51100000000E-03 0. -1.
    9900012    2    1    2    0    0  0.26791383366E+02 -0.23659290900E+02  0.19381052726E+02  0.50528862364E+02  0.30000007641E+02 0.  0.
         12    1    1    2    0    0 -0.26791383366E+02  0.23659290900E+02 -0.19381052726E+02  0.40659137636E+02  0.00000000000E+00 0. -1.
         11    1    3    3    0    0  0.11451689468E+01 -0.70491458505E+01  0.96860756448E+00  0.72069459560E+01  0.51100000000E-03 0. -1.
        -11    1    3    3    0    0  0.35449737716E+01 -0.58363789456E+00  0.15448847181E+02  0.15861095540E+02  0.51100000000E-03 0.  1.
        -12    1    3    3    0    0  0.22101240647E+02 -0.16026507155E+02  0.29635979804E+01  0.27460820868E+02  0.00000000000E+00 0.  1.
</event>
<event>
 7    1  0.5849044E-013  0.5052886E+02  0.7816164E-02  0.1300439E+00
        -11   -1    0    0    0    0  0.00000000000E+00  0.00000000000E+00  0.45593999997E+02  0.45594000000E+02  0.51100000000E-03 0. -1.
         11   -1    0    0    0    0 -0.00000000000E+00 -0.00000000000E+00 -0.45593999997E+02  0.45594000000E+02  0.51100000000E-03 0.  1.
    9900012    2    1    2    0    0  0.75088218237E+01  0.39913716216E+02 -0.19179175687E+01  0.50528861357E+02  0.30000004582E+02 0.  0.
         12    1    1    2    0    0 -0.75088218237E+01 -0.39913716216E+02  0.19179175687E+01  0.40659138643E+02  0.00000000000E+00 0. -1.
         11    1    3    3    0    0 -0.14862955811E+01 -0.27857397946E+01 -0.14497472048E+01  0.34743615207E+01  0.51100000000E-03 0. -1.
        -11    1    3    3    0    0  0.12778735029E+02  0.40529686556E+02  0.82738025475E+00  0.42504542341E+02  0.51100000000E-03 0.  1.
        -12    1    3    3    0    0 -0.37836176238E+01  0.21697694548E+01 -0.12955506186E+01  0.45499574960E+01  0.00000000000E+00 0.  1.
</event>
<event>
 7    1  0.5849044E-013  0.5052886E+02  0.7816164E-02  0.1300439E+00
        -11   -1    0    0    0    0  0.00000000000E+00  0.00000000000E+00  0.45593999997E+02  0.45594000000E+02  0.51100000000E-03 0. -1.
         11   -1    0    0    0    0 -0.00000000000E+00 -0.00000000000E+00 -0.45593999997E+02  0.45594000000E+02  0.51100000000E-03 0.  1.
    9900012    2    1    2    0    0 -0.39338685602E+02 -0.18177692490E+01 -0.10115798155E+02  0.50528857826E+02  0.29999993849E+02 0.  0.
         12    1    1    2    0    0  0.39338685602E+02  0.18177692490E+01  0.10115798155E+02  0.40659142174E+02  0.00000000000E+00 0. -1.
         11    1    3    3    0    0 -0.35116829101E+00  0.86582261040E-01 -0.93826930568E+01  0.93896615975E+01  0.51100000000E-03 0. -1.
        -11    1    3    3    0    0 -0.24192719709E+02 -0.13401805194E+01  0.58656539841E+01  0.24929694496E+02  0.51100000000E-03 0.  1.
         12    1    3    3    0    0 -0.14794797603E+02 -0.56417099064E+00 -0.65987590825E+01  0.16209501733E+02  0.00000000000E+00 0. -1.
</event>
<event>
 7    1  0.5849044E-013  0.5052886E+02  0.7816164E-02  0.1300439E+00
        -11   -1    0    0    0    0  0.00000000000E+00  0.00000000000E+00  0.45593999997E+02  0.45594000000E+02  0.51100000000E-03 0.  1.
         11   -1    0    0    0    0 -0.00000000000E+00 -0.00000000000E+00 -0.45593999997E+02  0.45594000000E+02  0.51100000000E-03 0. -1.
    9900012    2    1    2    0    0 -0.29488194630E+02 -0.12573545667E+02  0.25010359755E+02  0.50528858736E+02  0.29999996615E+02 0.  0.
         12    1    1    2    0    0  0.29488194630E+02  0.12573545667E+02 -0.25010359755E+02  0.40659141264E+02  0.00000000000E+00 0. -1.
         11    1    3    3    0    0 -0.28238356704E+01  0.17596107522E+01 -0.46521759696E+01  0.57195296491E+01  0.51100000000E-03 0. -1.
        -11    1    3    3    0    0 -0.23741371800E+02 -0.56256378049E+01  0.21328443161E+02  0.32406836063E+02  0.51100000000E-03 0.  1.
         12    1    3    3    0    0 -0.29229871595E+01 -0.87075186146E+01  0.83340925642E+01  0.12402493025E+02  0.00000000000E+00 0. -1.
</event>
<event>
 7    1  0.5849044E-013  0.5052883E+02  0.7816164E-02  0.1300439E+00
        -11   -1    0    0    0    0  0.00000000000E+00  0.00000000000E+00  0.45593999997E+02  0.45594000000E+02  0.51100000000E-03 0. -1.
         11   -1    0    0    0    0 -0.00000000000E+00 -0.00000000000E+00 -0.45593999997E+02  0.45594000000E+02  0.51100000000E-03 0.  1.
    9900012    2    1    2    0    0 -0.35526527304E+02 -0.19214715519E+02 -0.46721153797E+01  0.50528830101E+02  0.29999909575E+02 0.  0.
         12    1    1    2    0    0  0.35526527304E+02  0.19214715519E+02  0.46721153797E+01  0.40659169899E+02  0.00000000000E+00 0. -1.
         11    1    3    3    0    0 -0.25480353472E+02 -0.25089028371E+01 -0.11483755357E+02  0.28060998626E+02  0.51100000000E-03 0. -1.
        -11    1    3    3    0    0 -0.29750358047E+01 -0.64154091115E+01 -0.18038841963E+01  0.72981032167E+01  0.51100000000E-03 0.  1.
         12    1    3    3    0    0 -0.70711380268E+01 -0.10290403571E+02  0.86155241739E+01  0.15169728258E+02  0.00000000000E+00 0. -1.
</event>
<event>
 7    1  0.5849044E-013  0.5052885E+02  0.7816164E-02  0.1300439E+00
        -11   -1    0    0    0    0  0.00000000000E+00  0.00000000000E+00  0.45593999997E+02  0.45594000000E+02  0.51100000000E-03 0.  1.
         11   -1    0    0    0    0 -0.00000000000E+00 -0.00000000000E+00 -0.45593999997E+02  0.45594000000E+02  0.51100000000E-03 0. -1.
    9900012    2    1    2    0    0 -0.37356928303E+02 -0.15836768066E+00  0.16049964459E+02  0.50528849349E+02  0.29999968081E+02 0.  0.
         12    1    1    2    0    0  0.37356928303E+02  0.15836768066E+00 -0.16049964459E+02  0.40659150651E+02  0.00000000000E+00 0. -1.
         11    1    3    3    0    0 -0.87518358726E+01  0.66168430441E+01  0.17966550972E+01  0.11117788126E+02  0.51100000000E-03 0.  1.
        -11    1    3    3    0    0 -0.74658539526E+01 -0.10691901997E+02  0.12125778014E+02  0.17807027721E+02  0.51100000000E-03 0. -1.
        -12    1    3    3    0    0 -0.21139238478E+02  0.39166912720E+01  0.21275313473E+01  0.21604033502E+02  0.00000000000E+00 0.  1.
</event>
<event>
 7    1  0.5849044E-013  0.5052886E+02  0.7816164E-02  0.1300439E+00
        -11   -1    0    0    0    0  0.00000000000E+00  0.00000000000E+00  0.45593999997E+02  0.45594000000E+02  0.51100000000E-03 0.  1.
         11   -1    0    0    0    0 -0.00000000000E+00 -0.00000000000E+00 -0.45593999997E+02  0.45594000000E+02  0.51100000000E-03 0. -1.
    9900012    2    1    2    0    0  0.31816100924E+02  0.16306660684E+02  0.19364762884E+02  0.50528862008E+02  0.30000006561E+02 0.  0.
         12    1    1    2    0    0 -0.31816100924E+02 -0.16306660684E+02 -0.19364762884E+02  0.40659137992E+02  0.00000000000E+00 0. -1.
         11    1    3    3    0    0  0.15999754887E+01 -0.49920555109E+01  0.53669511768E+01  0.75023133088E+01  0.51100000000E-03 0. -1.
        -11    1    3    3    0    0  0.21095031443E+02  0.15995219358E+02  0.17699378934E+02  0.31845178737E+02  0.51100000000E-03 0.  1.
         12    1    3    3    0    0  0.91210939918E+01  0.53034968370E+01 -0.37015672263E+01  0.11181369962E+02  0.00000000000E+00 0. -1.
</event>
<event>
 7    1  0.5849044E-013  0.5052886E+02  0.7816164E-02  0.1300439E+00
        -11   -1    0    0    0    0  0.00000000000E+00  0.00000000000E+00  0.45593999997E+02  0.45594000000E+02  0.51100000000E-03 0.  1.
         11   -1    0    0    0    0 -0.00000000000E+00 -0.00000000000E+00 -0.45593999997E+02  0.45594000000E+02  0.51100000000E-03 0. -1.
    9900012    2    1    2    0    0 -0.32444354256E+02  0.12380607328E+02  0.21148283662E+02  0.50528862493E+02  0.30000008035E+02 0.  0.
         12    1    1    2    0    0  0.32444354256E+02 -0.12380607328E+02 -0.21148283662E+02  0.40659137507E+02  0.00000000000E+00 0. -1.
         11    1    3    3    0    0 -0.24132325944E+02  0.97263116284E+01  0.20494501328E+02  0.33120913005E+02  0.51100000000E-03 0.  1.
        -11    1    3    3    0    0 -0.15943475944E+01  0.80502582185E+01  0.25335760689E+01  0.85888072277E+01  0.51100000000E-03 0. -1.
         12    1    3    3    0    0 -0.67176807183E+01 -0.53959625186E+01 -0.18797937341E+01  0.88191422609E+01  0.00000000000E+00 0. -1.
</event>
<event>
 7    1  0.5849044E-013  0.5052886E+02  0.7816164E-02  0.1300439E+00
        -11   -1    0    0    0    0  0.00000000000E+00  0.00000000000E+00  0.45593999997E+02  0.45594000000E+02  0.51100000000E-03 0. -1.
         11   -1    0    0    0    0 -0.00000000000E+00 -0.00000000000E+00 -0.45593999997E+02  0.45594000000E+02  0.51100000000E-03 0.  1.
    9900012    2    1    2    0    0  0.10183848442E+02  0.38266376734E+02 -0.92271095989E+01  0.50528857006E+02  0.29999991356E+02 0.  0.
         12    1    1    2    0    0 -0.10183848442E+02 -0.38266376734E+02  0.92271095989E+01  0.40659142994E+02  0.00000000000E+00 0. -1.
         11    1    3    3    0    0  0.88767895780E+01  0.10119090269E+01 -0.72864252458E+01  0.11528805064E+02  0.51100000000E-03 0. -1.
        -11    1    3    3    0    0  0.45572118699E+01  0.22337552775E+02 -0.52137038249E+01  0.23386259895E+02  0.51100000000E-03 0.  1.
         12    1    3    3    0    0 -0.32501530057E+01  0.14916914932E+02  0.32730194717E+01  0.15613792047E+02  0.00000000000E+00 0. -1.
</event>
<event>
 7    1  0.5849044E-013  0.5052886E+02  0.7816164E-02  0.1300439E+00
        -11   -1    0    0    0    0  0.00000000000E+00  0.00000000000E+00  0.45593999997E+02  0.45594000000E+02  0.51100000000E-03 0.  1.
         11   -1    0    0    0    0 -0.00000000000E+00 -0.00000000000E+00 -0.45593999997E+02  0.45594000000E+02  0.51100000000E-03 0. -1.
    9900012    2    1    2    0    0 -0.36452593545E+02  0.19979377297E+01  0.17899223094E+02  0.50528861806E+02  0.30000005944E+02 0.  0.
         12    1    1    2    0    0  0.36452593545E+02 -0.19979377297E+01 -0.17899223094E+02  0.40659138194E+02  0.00000000000E+00 0. -1.
         11    1    3    3    0    0  0.19562488639E+01 -0.30580718991E+01  0.60079745378E+01  0.70195777413E+01  0.51100000000E-03 0. -1.
        -11    1    3    3    0    0 -0.22256540615E+02 -0.20858655362E+01  0.12918870674E+02  0.25818629997E+02  0.51100000000E-03 0.  1.
         12    1    3    3    0    0 -0.16152301794E+02  0.71418751650E+01 -0.10276221172E+01  0.17690654068E+02  0.00000000000E+00 0. -1.
</event>
<event>
 7    1  0.5849044E-013  0.5052885E+02  0.7816164E-02  0.1300439E+00
        -11   -1    0    0    0    0  0.00000000000E+00  0.00000000000E+00  0.45593999997E+02  0.45594000000E+02  0.51100000000E-03 0.  1.
         11   -1    0    0    0    0 -0.00000000000E+00 -0.00000000000E+00 -0.45593999997E+02  0.45594000000E+02  0.51100000000E-03 0. -1.
    9900012    2    1    2    0    0 -0.62189064014E+01  0.20954277112E+01  0.40126061700E+02  0.50528850456E+02  0.29999971445E+02 0.  0.
         12    1    1    2    0    0  0.62189064014E+01 -0.20954277112E+01 -0.40126061700E+02  0.40659149544E+02  0.00000000000E+00 0. -1.
         11    1    3    3    0    0 -0.39726457866E+01 -0.29267841827E+01 -0.12562108311E+01  0.50917625741E+01  0.51100000000E-03 0. -1.
        -11    1    3    3    0    0 -0.41343125074E+00  0.58321789386E+01  0.42661145251E+02  0.43059941372E+02  0.51100000000E-03 0.  1.
        -12    1    3    3    0    0 -0.18328293641E+01 -0.80996704471E+00 -0.12788727202E+01  0.23771465091E+01  0.00000000000E+00 0.  1.
</event>
<event>
 7    1  0.5849044E-013  0.5052887E+02  0.7816164E-02  0.1300439E+00
        -11   -1    0    0    0    0  0.00000000000E+00  0.00000000000E+00  0.45593999997E+02  0.45594000000E+02  0.51100000000E-03 0. -1.
         11   -1    0    0    0    0 -0.00000000000E+00 -0.00000000000E+00 -0.45593999997E+02  0.45594000000E+02  0.51100000000E-03 0.  1.
    9900012    2    1    2    0    0  0.53985733880E+01  0.38301136198E+02 -0.12531681216E+02  0.50528872331E+02  0.30000037938E+02 0.  0.
         12    1    1    2    0    0 -0.53985733880E+01 -0.38301136198E+02  0.12531681216E+02  0.40659127669E+02  0.00000000000E+00 0. -1.
         11    1    3    3    0    0 -0.32083347723E+01  0.89996843001E+01 -0.16162495463E+02  0.18775355905E+02  0.51100000000E-03 0. -1.
        -11    1    3    3    0    0  0.30069757081E+01  0.61875049192E+01  0.40195974858E+01  0.79677025699E+01  0.51100000000E-03 0.  1.
         12    1    3    3    0    0  0.55999324523E+01  0.23113946979E+02 -0.38878323886E+00  0.23785813856E+02  0.00000000000E+00 0. -1.
</event>
<event>
 7    1  0.5849044E-013  0.5052886E+02  0.7816164E-02  0.1300439E+00
        -11   -1    0    0    0    0  0.00000000000E+00  0.00000000000E+00  0.45593999997E+02  0.45594000000E+02  0.51100000000E-03 0.  1.
         11   -1    0    0    0    0 -0.00000000000E+00 -0.00000000000E+00 -0.45593999997E+02  0.45594000000E+02  0.51100000000E-03 0. -1.
    9900012    2    1    2    0    0 -0.35664057391E+02 -0.19482960543E+02  0.12864729189E+01  0.50528858916E+02  0.29999997162E+02 0.  0.
         12    1    1    2    0    0  0.35664057391E+02  0.19482960543E+02 -0.12864729189E+01  0.40659141084E+02  0.00000000000E+00 0. -1.
         11    1    3    3    0    0 -0.29001930756E+02 -0.26141801594E+02 -0.10087328741E+01  0.39057948236E+02  0.51100000000E-03 0. -1.
        -11    1    3    3    0    0 -0.19467838249E+01  0.61900972150E+01  0.15806717392E+01  0.66787569352E+01  0.51100000000E-03 0.  1.
         12    1    3    3    0    0 -0.47153428099E+01  0.46874383593E+00  0.71453405385E+00  0.47921537447E+01  0.00000000000E+00 0. -1.
</event>
<event>
 7    1  0.5849044E-013  0.5052886E+02  0.7816164E-02  0.1300439E+00
        -11   -1    0    0    0    0  0.00000000000E+00  0.00000000000E+00  0.45593999997E+02  0.45594000000E+02  0.51100000000E-03 0.  1.
         11   -1    0    0    0    0 -0.00000000000E+00 -0.00000000000E+00 -0.45593999997E+02  0.45594000000E+02  0.51100000000E-03 0. -1.
    9900012    2    1    2    0    0  0.12767891022E+02  0.12664246895E+02  0.36465926958E+02  0.50528855647E+02  0.29999987226E+02 0.  0.
         12    1    1    2    0    0 -0.12767891022E+02 -0.12664246895E+02 -0.36465926958E+02  0.40659144353E+02  0.00000000000E+00 0. -1.
         11    1    3    3    0    0  0.20368433628E+01  0.72606973587E+01  0.13147414659E+00  0.75421311797E+01  0.51100000000E-03 0. -1.
        -11    1    3    3    0    0  0.16415502755E+02  0.52232906094E+01  0.28581202855E+02  0.33371194950E+02  0.51100000000E-03 0.  1.
         12    1    3    3    0    0 -0.56844550955E+01  0.18025892658E+00  0.77532499565E+01  0.96155295175E+01  0.00000000000E+00 0. -1.
</event>
<event>
 7    1  0.5849044E-013  0.5052887E+02  0.7816164E-02  0.1300439E+00
        -11   -1    0    0    0    0  0.00000000000E+00  0.00000000000E+00  0.45593999997E+02  0.45594000000E+02  0.51100000000E-03 0.  1.
         11   -1    0    0    0    0 -0.00000000000E+00 -0.00000000000E+00 -0.45593999997E+02  0.45594000000E+02  0.51100000000E-03 0. -1.
    9900012    2    1    2    0    0  0.72645542861E+01 -0.98037818746E+01  0.38785008190E+02  0.50528871279E+02  0.30000034740E+02 0.  0.
         12    1    1    2    0    0 -0.72645542861E+01  0.98037818746E+01 -0.38785008190E+02  0.40659128721E+02  0.00000000000E+00 0. -1.
         11    1    3    3    0    0 -0.77322833497E+01 -0.26950824180E+01  0.27156545497E+01  0.86270768476E+01  0.51100000000E-03 0. -1.
        -11    1    3    3    0    0  0.12152763379E+02  0.71531777884E+00  0.15482340618E+02  0.19695283916E+02  0.51100000000E-03 0.  1.
        -12    1    3    3    0    0  0.28440742573E+01 -0.78240172355E+01  0.20587013023E+02  0.22206510516E+02  0.00000000000E+00 0.  1.
</event>
<event>
 7    1  0.5849044E-013  0.5052885E+02  0.7816164E-02  0.1300439E+00
        -11   -1    0    0    0    0  0.00000000000E+00  0.00000000000E+00  0.45593999997E+02  0.45594000000E+02  0.51100000000E-03 0.  1.
         11   -1    0    0    0    0 -0.00000000000E+00 -0.00000000000E+00 -0.45593999997E+02  0.45594000000E+02  0.51100000000E-03 0. -1.
    9900012    2    1    2    0    0 -0.33697910169E+02 -0.14785137522E+02  0.17292117917E+02  0.50528846253E+02  0.29999958672E+02 0.  0.
         12    1    1    2    0    0  0.33697910169E+02  0.14785137522E+02 -0.17292117917E+02  0.40659153747E+02  0.00000000000E+00 0. -1.
         11    1    3    3    0    0  0.39117673439E+01 -0.51284350621E+00  0.27244031642E+01  0.47945078034E+01  0.51100000000E-03 0. -1.
        -11    1    3    3    0    0 -0.32586125076E+02 -0.86749483449E+01  0.17086269141E+02  0.37802789178E+02  0.51100000000E-03 0.  1.
        -12    1    3    3    0    0 -0.50235524375E+01 -0.55973456708E+01 -0.25185543876E+01  0.79315492720E+01  0.00000000000E+00 0.  1.
</event>
<event>
 7    1  0.5849044E-013  0.5052886E+02  0.7816164E-02  0.1300439E+00
        -11   -1    0    0    0    0  0.00000000000E+00  0.00000000000E+00  0.45593999997E+02  0.45594000000E+02  0.51100000000E-03 0.  1.
         11   -1    0    0    0    0 -0.00000000000E+00 -0.00000000000E+00 -0.45593999997E+02  0.45594000000E+02  0.51100000000E-03 0. -1.
    9900012    2    1    2    0    0 -0.29309147647E+02  0.73540923241E+01  0.27203982853E+02  0.50528862125E+02  0.30000006914E+02 0.  0.
         12    1    1    2    0    0  0.29309147647E+02 -0.73540923241E+01 -0.27203982853E+02  0.40659137875E+02  0.00000000000E+00 0. -1.
         11    1    3    3    0    0 -0.23403285366E+02 -0.50386637300E+00  0.13299698963E+02  0.26923031776E+02  0.51100000000E-03 0. -1.
        -11    1    3    3    0    0 -0.18424826697E+01  0.10169246567E+02  0.15531732711E+02  0.18655911647E+02  0.51100000000E-03 0.  1.
        -12    1    3    3    0    0 -0.40633796120E+01 -0.23112878703E+01 -0.16274488207E+01  0.49499187018E+01  0.00000000000E+00 0.  1.
</event>
<event>
 7    1  0.5849044E-013  0.5052883E+02  0.7816164E-02  0.1300439E+00
        -11   -1    0    0    0    0  0.00000000000E+00  0.00000000000E+00  0.45593999997E+02  0.45594000000E+02  0.51100000000E-03 0. -1.
         11   -1    0    0    0    0 -0.00000000000E+00 -0.00000000000E+00 -0.45593999997E+02  0.45594000000E+02  0.51100000000E-03 0.  1.
    9900012    2    1    2    0    0 -0.75396940823E+01 -0.37435550801E+02 -0.13960669704E+02  0.50528834376E+02  0.29999922570E+02 0.  0.
         12    1    1    2    0    0  0.75396940823E+01  0.37435550801E+02  0.13960669704E+02  0.40659165624E+02  0.00000000000E+00 0. -1.
         11    1    3    3    0    0  0.80378733714E+01 -0.11010049957E+02 -0.98323922316E+01  0.16807871538E+02  0.51100000000E-03 0. -1.
        -11    1    3    3    0    0 -0.12406942964E+02 -0.95461543453E+01  0.13017289333E+01  0.15708462527E+02  0.51100000000E-03 0.  1.
         12    1    3    3    0    0 -0.31706244895E+01 -0.16879346499E+02 -0.54300064059E+01  0.18012500311E+02  0.00000000000E+00 0. -1.
</event>
<event>
 7    1  0.5849044E-013  0.5052884E+02  0.7816164E-02  0.1300439E+00
        -11   -1    0    0    0    0  0.00000000000E+00  0.00000000000E+00  0.45593999997E+02  0.45594000000E+02  0.51100000000E-03 0.  1.
         11   -1    0    0    0    0 -0.00000000000E+00 -0.00000000000E+00 -0.45593999997E+02  0.45594000000E+02  0.51100000000E-03 0. -1.
    9900012    2    1    2    0    0 -0.36014147180E+02 -0.88661344088E+01  0.16659547841E+02  0.50528835341E+02  0.29999925503E+02 0.  0.
         12    1    1    2    0    0  0.36014147180E+02  0.88661344088E+01 -0.16659547841E+02  0.40659164659E+02  0.00000000000E+00 0. -1.
         11    1    3    3    0    0 -0.14918482918E+02 -0.17911159638E+01 -0.38511976039E+01  0.15511316908E+02  0.51100000000E-03 0. -1.
        -11    1    3    3    0    0  0.18604025568E+01 -0.39002547761E+01  0.69005966852E+01  0.81419481615E+01  0.51100000000E-03 0.  1.
        -12    1    3    3    0    0 -0.22956066819E+02 -0.31747636689E+01  0.13610148760E+02  0.26875570272E+02  0.00000000000E+00 0.  1.
</event>
<event>
 7    1  0.5849044E-013  0.5052887E+02  0.7816164E-02  0.1300439E+00
        -11   -1    0    0    0    0  0.00000000000E+00  0.00000000000E+00  0.45593999997E+02  0.45594000000E+02  0.51100000000E-03 0. -1.
         11   -1    0    0    0    0 -0.00000000000E+00 -0.00000000000E+00 -0.45593999997E+02  0.45594000000E+02  0.51100000000E-03 0.  1.
    9900012    2    1    2    0    0  0.17065587323E+01 -0.61679430181E+01 -0.40152324467E+02  0.50528867890E+02  0.30000024440E+02 0.  0.
         12    1    1    2    0    0 -0.17065587323E+01  0.61679430181E+01  0.40152324467E+02  0.40659132110E+02  0.00000000000E+00 0. -1.
         11    1    3    3    0    0 -0.22437701912E+00 -0.13199626898E+00  0.34647831910E+01  0.34745490187E+01  0.51100000000E-03 0. -1.
        -11    1    3    3    0    0 -0.31917221110E+01  0.25644629001E+01 -0.29299980185E+02  0.29584664931E+02  0.51100000000E-03 0.  1.
        -12    1    3    3    0    0  0.51226578624E+01 -0.86004096492E+01 -0.14317127474E+02  0.17469653941E+02  0.00000000000E+00 0.  1.
</event>
<event>
 7    1  0.5849044E-013  0.5052883E+02  0.7816164E-02  0.1300439E+00
        -11   -1    0    0    0    0  0.00000000000E+00  0.00000000000E+00  0.45593999997E+02  0.45594000000E+02  0.51100000000E-03 0. -1.
         11   -1    0    0    0    0 -0.00000000000E+00 -0.00000000000E+00 -0.45593999997E+02  0.45594000000E+02  0.51100000000E-03 0.  1.
    9900012    2    1    2    0    0  0.19201243696E+02 -0.35652797094E+02  0.36549062130E+01  0.50528830806E+02  0.29999911719E+02 0.  0.
         12    1    1    2    0    0 -0.19201243696E+02  0.35652797094E+02 -0.36549062130E+01  0.40659169194E+02  0.00000000000E+00 0. -1.
         11    1    3    3    0    0 -0.51139212575E+01 -0.35399078853E+01 -0.46144543331E+01  0.77444384896E+01  0.51100000000E-03 0. -1.
        -11    1    3    3    0    0  0.89210558024E+01 -0.14568866690E+02  0.92436048767E+01  0.19423731481E+02  0.51100000000E-03 0.  1.
         12    1    3    3    0    0  0.15394109151E+02 -0.17544022518E+02 -0.97424433052E+00  0.23360660836E+02  0.00000000000E+00 0. -1.
</event>
<event>
 7    1  0.5849044E-013  0.5052884E+02  0.7816164E-02  0.1300439E+00
        -11   -1    0    0    0    0  0.00000000000E+00  0.00000000000E+00  0.45593999997E+02  0.45594000000E+02  0.51100000000E-03 0.  1.
         11   -1    0    0    0    0 -0.00000000000E+00 -0.00000000000E+00 -0.45593999997E+02  0.45594000000E+02  0.51100000000E-03 0. -1.
    9900012    2    1    2    0    0 -0.64102533817E+01 -0.26604212643E+02  0.30071444211E+02  0.50528840691E+02  0.29999941763E+02 0.  0.
         12    1    1    2    0    0  0.64102533817E+01  0.26604212643E+02 -0.30071444211E+02  0.40659159309E+02  0.00000000000E+00 0. -1.
         11    1    3    3    0    0  0.33724822414E+01 -0.23816803860E+02  0.29116685112E+02  0.37767646667E+02  0.51100000000E-03 0. -1.
        -11    1    3    3    0    0 -0.61906257880E+01 -0.16524760910E+01  0.43054287049E+01  0.77195363509E+01  0.51100000000E-03 0.  1.
         12    1    3    3    0    0 -0.35921098350E+01 -0.11349326927E+01 -0.33506696059E+01  0.50416576730E+01  0.00000000000E+00 0. -1.
</event>
<event>
 7    1  0.5849044E-013  0.5052886E+02  0.7816164E-02  0.1300439E+00
        -11   -1    0    0    0    0  0.00000000000E+00  0.00000000000E+00  0.45593999997E+02  0.45594000000E+02  0.51100000000E-03 0. -1.
         11   -1    0    0    0    0 -0.00000000000E+00 -0.00000000000E+00 -0.45593999997E+02  0.45594000000E+02  0.51100000000E-03 0.  1.
    9900012    2    1    2    0    0  0.28089293131E+02  0.23330713708E+02 -0.17883930701E+02  0.50528861199E+02  0.30000004100E+02 0.  0.
         12    1    1    2    0    0 -0.28089293131E+02 -0.23330713708E+02  0.17883930701E+02  0.40659138801E+02  0.00000000000E+00 0. -1.
         11    1    3    3    0    0  0.14864048951E+02  0.10790953370E+02  0.41626570613E+01  0.18833808429E+02  0.51100000000E-03 0. -1.
        -11    1    3    3    0    0  0.14913139344E+02  0.13816272979E+02 -0.21316330878E+02  0.29456359016E+02  0.51100000000E-03 0.  1.
        -12    1    3    3    0    0 -0.16878951649E+01 -0.12765126400E+01 -0.73025688458E+00  0.22386937542E+01  0.00000000000E+00 0.  1.
</event>
<event>
 7    1  0.5849044E-013  0.5052886E+02  0.7816164E-02  0.1300439E+00
        -11   -1    0    0    0    0  0.00000000000E+00  0.00000000000E+00  0.45593999997E+02  0.45594000000E+02  0.51100000000E-03 0.  1.
         11   -1    0    0    0    0 -0.00000000000E+00 -0.00000000000E+00 -0.45593999997E+02  0.45594000000E+02  0.51100000000E-03 0. -1.
    9900012    2    1    2    0    0  0.77491551433E+01 -0.23934520013E+02  0.31941435703E+02  0.50528856275E+02  0.29999989133E+02 0.  0.
         12    1    1    2    0    0 -0.77491551433E+01  0.23934520013E+02 -0.31941435703E+02  0.40659143725E+02  0.00000000000E+00 0. -1.
         11    1    3    3    0    0  0.35218802458E+01  0.40922352621E+01  0.82385693914E+01  0.98500789735E+01  0.51100000000E-03 0. -1.
        -11    1    3    3    0    0  0.74548670811E+01 -0.28430950998E+02  0.19138219295E+02  0.35073714601E+02  0.51100000000E-03 0.  1.
        -12    1    3    3    0    0 -0.32275921835E+01  0.40419572339E+00  0.45646470167E+01  0.56050627002E+01  0.00000000000E+00 0.  1.
</event>
<event>
 7    1  0.5849044E-013  0.5052886E+02  0.7816164E-02  0.1300439E+00
        -11   -1    0    0    0    0  0.00000000000E+00  0.00000000000E+00  0.45593999997E+02  0.45594000000E+02  0.51100000000E-03 0.  1.
         11   -1    0    0    0    0 -0.00000000000E+00 -0.00000000000E+00 -0.45593999997E+02  0.45594000000E+02  0.51100000000E-03 0. -1.
    9900012    2    1    2    0    0  0.18145770660E+02 -0.68388299321E+00  0.36378959190E+02  0.50528863751E+02  0.30000011857E+02 0.  0.
         12    1    1    2    0    0 -0.18145770660E+02  0.68388299321E+00 -0.36378959190E+02  0.40659136249E+02  0.00000000000E+00 0. -1.
         11    1    3    3    0    0 -0.28473508211E+01  0.14770841390E+01  0.17399431747E+02  0.17692637159E+02  0.51100000000E-03 0. -1.
        -11    1    3    3    0    0  0.22282640114E+02  0.17646129708E+00  0.11882075898E+02  0.25253334769E+02  0.51100000000E-03 0.  1.
        -12    1    3    3    0    0 -0.12895186329E+01 -0.23374284293E+01  0.70974515447E+01  0.75828918228E+01  0.00000000000E+00 0.  1.
</event>
<event>
 7    1  0.5849044E-013  0.5052885E+02  0.7816164E-02  0.1300439E+00
        -11   -1    0    0    0    0  0.00000000000E+00  0.00000000000E+00  0.45593999997E+02  0.45594000000E+02  0.51100000000E-03 0.  1.
         11   -1    0    0    0    0 -0.00000000000E+00 -0.00000000000E+00 -0.45593999997E+02  0.45594000000E+02  0.51100000000E-03 0. -1.
    9900012    2    1    2    0    0 -0.18263726062E+02 -0.19187974442E+02  0.30845174565E+02  0.50528845473E+02  0.29999956301E+02 0.  0.
         12    1    1    2    0    0  0.18263726062E+02  0.19187974442E+02 -0.30845174565E+02  0.40659154527E+02  0.00000000000E+00 0. -1.
         11    1    3    3    0    0 -0.31625910628E+01 -0.18929735908E+02  0.20571890987E+02  0.28134313264E+02  0.51100000000E-03 0. -1.
        -11    1    3    3    0    0 -0.11855120720E+02  0.45578221120E+01  0.29345625948E+01  0.13035692831E+02  0.51100000000E-03 0.  1.
        -12    1    3    3    0    0 -0.32460142789E+01 -0.48160606469E+01  0.73387209831E+01  0.93588393789E+01  0.00000000000E+00 0.  1.
</event>
<event>
 7    1  0.5849044E-013  0.5052885E+02  0.7816164E-02  0.1300439E+00
        -11   -1    0    0    0    0  0.00000000000E+00  0.00000000000E+00  0.45593999997E+02  0.45594000000E+02  0.51100000000E-03 0. -1.
         11   -1    0    0    0    0 -0.00000000000E+00 -0.00000000000E+00 -0.45593999997E+02  0.45594000000E+02  0.51100000000E-03 0.  1.
    9900012    2    1    2    0    0  0.12486058355E+02  0.37089534672E+02 -0.11028639665E+02  0.50528854309E+02  0.29999983159E+02 0.  0.
         12    1    1    2    0    0 -0.12486058355E+02 -0.37089534672E+02  0.11028639665E+02  0.40659145691E+02  0.00000000000E+00 0. -1.
         11    1    3    3    0    0  0.13997988511E+01 -0.35080377463E+01 -0.73626238356E+01  0.82749015498E+01  0.51100000000E-03 0. -1.
        -11    1    3    3    0    0  0.91212514042E+01  0.31946126999E+02 -0.28655950729E+01  0.33346122605E+02  0.51100000000E-03 0.  1.
         12    1    3    3    0    0  0.19650080997E+01  0.86514454195E+01 -0.80042075684E+00  0.89078301548E+01  0.00000000000E+00 0. -1.
</event>
<event>
 7    1  0.5849044E-013  0.5052886E+02  0.7816164E-02  0.1300439E+00
        -11   -1    0    0    0    0  0.00000000000E+00  0.00000000000E+00  0.45593999997E+02  0.45594000000E+02  0.51100000000E-03 0. -1.
         11   -1    0    0    0    0 -0.00000000000E+00 -0.00000000000E+00 -0.45593999997E+02  0.45594000000E+02  0.51100000000E-03 0.  1.
    9900012    2    1    2    0    0  0.22709430406E+02 -0.27774299404E+02 -0.19132058905E+02  0.50528860625E+02  0.30000002356E+02 0.  0.
         12    1    1    2    0    0 -0.22709430406E+02  0.27774299404E+02  0.19132058905E+02  0.40659139375E+02  0.00000000000E+00 0. -1.
         11    1    3    3    0    0  0.14385218037E+02 -0.24238872399E+01 -0.12936772409E+02  0.19497943685E+02  0.51100000000E-03 0. -1.
        -11    1    3    3    0    0  0.11179559722E+02 -0.11385058735E+02 -0.15153362101E+01  0.16028049228E+02  0.51100000000E-03 0.  1.
         12    1    3    3    0    0 -0.28553473524E+01 -0.13965353429E+02 -0.46799502852E+01  0.15002867712E+02  0.00000000000E+00 0. -1.
</event>
<event>
 7    1  0.5849044E-013  0.5052886E+02  0.7816164E-02  0.1300439E+00
        -11   -1    0    0    0    0  0.00000000000E+00  0.00000000000E+00  0.45593999997E+02  0.45594000000E+02  0.51100000000E-03 0.  1.
         11   -1    0    0    0    0 -0.00000000000E+00 -0.00000000000E+00 -0.45593999997E+02  0.45594000000E+02  0.51100000000E-03 0. -1.
    9900012    2    1    2    0    0  0.25590545985E+02 -0.11955179447E+02  0.29246595208E+02  0.50528859691E+02  0.29999999516E+02 0.  0.
         12    1    1    2    0    0 -0.25590545985E+02  0.11955179447E+02 -0.29246595208E+02  0.40659140309E+02  0.00000000000E+00 0. -1.
         11    1    3    3    0    0  0.14870247168E+02 -0.29699202715E+01  0.23674378572E+01  0.15347619996E+02  0.51100000000E-03 0.  1.
        -11    1    3    3    0    0 -0.43891679439E+01 -0.42108986713E+01  0.11957142361E+02  0.13415279220E+02  0.51100000000E-03 0. -1.
        -12    1    3    3    0    0  0.15109466761E+02 -0.47743605046E+01  0.14922014990E+02  0.21765960475E+02  0.00000000000E+00 0.  1.
</event>
<event>
 7    1  0.5849044E-013  0.5052886E+02  0.7816164E-02  0.1300439E+00
        -11   -1    0    0    0    0  0.00000000000E+00  0.00000000000E+00  0.45593999997E+02  0.45594000000E+02  0.51100000000E-03 0.  1.
         11   -1    0    0    0    0 -0.00000000000E+00 -0.00000000000E+00 -0.45593999997E+02  0.45594000000E+02  0.51100000000E-03 0. -1.
    9900012    2    1    2    0    0  0.11800217114E+02 -0.36687190337E+02  0.12960346788E+02  0.50528860220E+02  0.30000001124E+02 0.  0.
         12    1    1    2    0    0 -0.11800217114E+02  0.36687190337E+02 -0.12960346788E+02  0.40659139780E+02  0.00000000000E+00 0. -1.
         11    1    3    3    0    0  0.13287149900E+02 -0.15577510469E+02  0.17663444830E+02  0.27040792673E+02  0.51100000000E-03 0. -1.
        -11    1    3    3    0    0  0.19605754708E+01 -0.11255029133E+02  0.12119168976E+01  0.11488615225E+02  0.51100000000E-03 0.  1.
         12    1    3    3    0    0 -0.34475082561E+01 -0.98546507352E+01 -0.59150149392E+01  0.11999452322E+02  0.00000000000E+00 0. -1.
</event>
<event>
 7    1  0.5849044E-013  0.5052887E+02  0.7816164E-02  0.1300439E+00
        -11   -1    0    0    0    0  0.00000000000E+00  0.00000000000E+00  0.45593999997E+02  0.45594000000E+02  0.51100000000E-03 0.  1.
         11   -1    0    0    0    0 -0.00000000000E+00 -0.00000000000E+00 -0.45593999997E+02  0.45594000000E+02  0.51100000000E-03 0. -1.
    9900012    2    1    2    0    0 -0.13468209210E+02  0.31637908593E+02  0.21698277820E+02  0.50528865973E+02  0.30000018611E+02 0.  0.
         12    1    1    2    0    0  0.13468209210E+02 -0.31637908593E+02 -0.21698277820E+02  0.40659134027E+02  0.00000000000E+00 0. -1.
         11    1    3    3    0    0 -0.12440299635E+02  0.18608247049E+02 -0.22159084416E+01  0.22493069237E+02  0.51100000000E-03 0. -1.
        -11    1    3    3    0    0 -0.14691519573E+01  0.93729627910E+01  0.10619103626E+02  0.14239950879E+02  0.51100000000E-03 0.  1.
         12    1    3    3    0    0  0.44124238217E+00  0.36566987536E+01  0.13295082635E+02  0.13795845856E+02  0.00000000000E+00 0. -1.
</event>
<event>
 7    1  0.5849044E-013  0.5052886E+02  0.7816164E-02  0.1300439E+00
        -11   -1    0    0    0    0  0.00000000000E+00  0.00000000000E+00  0.45593999997E+02  0.45594000000E+02  0.51100000000E-03 0.  1.
         11   -1    0    0    0    0 -0.00000000000E+00 -0.00000000000E+00 -0.45593999997E+02  0.45594000000E+02  0.51100000000E-03 0. -1.
    9900012    2    1    2    0    0 -0.34197044962E+02 -0.18761235069E+02  0.11477961809E+02  0.50528862863E+02  0.30000009158E+02 0.  0.
         12    1    1    2    0    0  0.34197044962E+02  0.18761235069E+02 -0.11477961809E+02  0.40659137137E+02  0.00000000000E+00 0. -1.
         11    1    3    3    0    0  0.23264304414E+01 -0.58160113042E+01  0.27235131137E+01  0.68305043760E+01  0.51100000000E-03 0. -1.
        -11    1    3    3    0    0 -0.23866297452E+02  0.55787412553E+00  0.79913749487E+01  0.25174857525E+02  0.51100000000E-03 0.  1.
         12    1    3    3    0    0 -0.12657177951E+02 -0.13503097891E+02  0.76307374678E+00  0.18523500962E+02  0.00000000000E+00 0. -1.
</event>
<event>
 7    1  0.5849044E-013  0.5052886E+02  0.7816164E-02  0.1300439E+00
        -11   -1    0    0    0    0  0.00000000000E+00  0.00000000000E+00  0.45593999997E+02  0.45594000000E+02  0.51100000000E-03 0.  1.
         11   -1    0    0    0    0 -0.00000000000E+00 -0.00000000000E+00 -0.45593999997E+02  0.45594000000E+02  0.51100000000E-03 0. -1.
    9900012    2    1    2    0    0  0.36827093529E+01  0.22413004305E+02  0.33723297736E+02  0.50528856867E+02  0.29999990932E+02 0.  0.
         12    1    1    2    0    0 -0.36827093529E+01 -0.22413004305E+02 -0.33723297736E+02  0.40659143133E+02  0.00000000000E+00 0. -1.
         11    1    3    3    0    0  0.89830583289E+01  0.26512630778E+01  0.11037454064E+02  0.14475839365E+02  0.51100000000E-03 0. -1.
        -11    1    3    3    0    0 -0.10008310865E+02  0.14182949837E+02  0.22917481903E+02  0.28749492682E+02  0.51100000000E-03 0.  1.
         12    1    3    3    0    0  0.47079618893E+01  0.55787913905E+01 -0.23163823056E+00  0.73035248202E+01  0.00000000000E+00 0. -1.
</event>
<event>
 7    1  0.5849044E-013  0.5052886E+02  0.7816164E-02  0.1300439E+00
        -11   -1    0    0    0    0  0.00000000000E+00  0.00000000000E+00  0.45593999997E+02  0.45594000000E+02  0.51100000000E-03 0.  1.
         11   -1    0    0    0    0 -0.00000000000E+00 -0.00000000000E+00 -0.45593999997E+02  0.45594000000E+02  0.51100000000E-03 0. -1.
    9900012    2    1    2    0    0  0.16003679681E+02 -0.29254703455E+02  0.23263923373E+02  0.50528861196E+02  0.30000004092E+02 0.  0.
         12    1    1    2    0    0 -0.16003679681E+02  0.29254703455E+02 -0.23263923373E+02  0.40659138804E+02  0.00000000000E+00 0. -1.
         11    1    3    3    0    0  0.68612440087E+01 -0.70977689058E+01 -0.17966877745E+00  0.98735643978E+01  0.51100000000E-03 0. -1.
        -11    1    3    3    0    0  0.15031773918E+02 -0.22198778661E+02  0.21763098698E+02  0.34530746681E+02  0.51100000000E-03 0.  1.
        -12    1    3    3    0    0 -0.58893382453E+01  0.41844111332E-01  0.16804934517E+01  0.61245501172E+01  0.00000000000E+00 0.  1.
</event>
<event>
 7    1  0.5849044E-013  0.5052886E+02  0.7816164E-02  0.1300439E+00
        -11   -1    0    0    0    0  0.00000000000E+00  0.00000000000E+00  0.45593999997E+02  0.45594000000E+02  0.51100000000E-03 0.  1.
         11   -1    0    0    0    0 -0.00000000000E+00 -0.00000000000E+00 -0.45593999997E+02  0.45594000000E+02  0.51100000000E-03 0. -1.
    9900012    2    1    2    0    0  0.14078179102E+02  0.81801793143E+01  0.37256617806E+02  0.50528855508E+02  0.29999986803E+02 0.  0.
         12    1    1    2    0    0 -0.14078179102E+02 -0.81801793143E+01 -0.37256617806E+02  0.40659144492E+02  0.00000000000E+00 0. -1.
         11    1    3    3    0    0  0.16706493770E+02  0.77951645900E+01  0.15742129739E+02  0.24242239460E+02  0.51100000000E-03 0. -1.
        -11    1    3    3    0    0 -0.75060444411E+01  0.25375576400E+01  0.61702644918E+01  0.10042512937E+02  0.51100000000E-03 0.  1.
         12    1    3    3    0    0  0.48777297727E+01 -0.21525429158E+01  0.15344223576E+02  0.16244103111E+02  0.00000000000E+00 0. -1.
</event>
<event>
 7    1  0.5849044E-013  0.5052886E+02  0.7816164E-02  0.1300439E+00
        -11   -1    0    0    0    0  0.00000000000E+00  0.00000000000E+00  0.45593999997E+02  0.45594000000E+02  0.51100000000E-03 0.  1.
         11   -1    0    0    0    0 -0.00000000000E+00 -0.00000000000E+00 -0.45593999997E+02  0.45594000000E+02  0.51100000000E-03 0. -1.
    9900012    2    1    2    0    0  0.23773950183E+02 -0.22860667141E+02  0.23777186071E+02  0.50528863427E+02  0.30000010872E+02 0.  0.
         12    1    1    2    0    0 -0.23773950183E+02  0.22860667141E+02 -0.23777186071E+02  0.40659136573E+02  0.00000000000E+00 0. -1.
         11    1    3    3    0    0 -0.64355543616E+01 -0.41103038710E+01  0.17963043149E+01  0.78445947828E+01  0.51100000000E-03 0. -1.
        -11    1    3    3    0    0  0.27299510868E+02 -0.14115500029E+02  0.20729048419E+02  0.37070258744E+02  0.51100000000E-03 0.  1.
         12    1    3    3    0    0  0.29099936770E+01 -0.46348632403E+01  0.12518333372E+01  0.56140099002E+01  0.00000000000E+00 0. -1.
</event>
<event>
 7    1  0.5849044E-013  0.5052887E+02  0.7816164E-02  0.1300439E+00
        -11   -1    0    0    0    0  0.00000000000E+00  0.00000000000E+00  0.45593999997E+02  0.45594000000E+02  0.51100000000E-03 0.  1.
         11   -1    0    0    0    0 -0.00000000000E+00 -0.00000000000E+00 -0.45593999997E+02  0.45594000000E+02  0.51100000000E-03 0. -1.
    9900012    2    1    2    0    0 -0.27631558660E+01  0.63978540568E+00  0.40560089683E+02  0.50528865347E+02  0.30000016707E+02 0.  0.
         12    1    1    2    0    0  0.27631558660E+01 -0.63978540568E+00 -0.40560089683E+02  0.40659134653E+02  0.00000000000E+00 0. -1.
         11    1    3    3    0    0 -0.57319043365E+01 -0.10430690804E+02  0.26695914872E+02  0.29228854050E+02  0.51100000000E-03 0. -1.
        -11    1    3    3    0    0 -0.15582964729E+01  0.10768679881E+02  0.65719398578E+01  0.12711536021E+02  0.51100000000E-03 0.  1.
        -12    1    3    3    0    0  0.45270449434E+01  0.30179632874E+00  0.72922349526E+01  0.85884752749E+01  0.00000000000E+00 0.  1.
</event>
<event>
 7    1  0.5849044E-013  0.5052886E+02  0.7816164E-02  0.1300439E+00
        -11   -1    0    0    0    0  0.00000000000E+00  0.00000000000E+00  0.45593999997E+02  0.45594000000E+02  0.51100000000E-03 0.  1.
         11   -1    0    0    0    0 -0.00000000000E+00 -0.00000000000E+00 -0.45593999997E+02  0.45594000000E+02  0.51100000000E-03 0. -1.
    9900012    2    1    2    0    0 -0.37498691695E+02  0.32606383936E+01  0.15374712559E+02  0.50528862923E+02  0.30000009340E+02 0.  0.
         12    1    1    2    0    0  0.37498691695E+02 -0.32606383936E+01 -0.15374712559E+02  0.40659137077E+02  0.00000000000E+00 0. -1.
         11    1    3    3    0    0 -0.34408299630E+01  0.95456336408E+00 -0.16373148256E+01  0.39282696126E+01  0.51100000000E-03 0. -1.
        -11    1    3    3    0    0 -0.19564665631E+02 -0.71204220599E+01 -0.19844444988E+01  0.20914458439E+02  0.51100000000E-03 0.  1.
        -12    1    3    3    0    0 -0.14493196101E+02  0.94264970894E+01  0.18996471883E+02  0.25686134871E+02  0.00000000000E+00 0.  1.
</event>
<event>
 7    1  0.5849044E-013  0.5052886E+02  0.7816164E-02  0.1300439E+00
        -11   -1    0    0    0    0  0.00000000000E+00  0.00000000000E+00  0.45593999997E+02  0.45594000000E+02  0.51100000000E-03 0. -1.
         11   -1    0    0    0    0 -0.00000000000E+00 -0.00000000000E+00 -0.45593999997E+02  0.45594000000E+02  0.51100000000E-03 0.  1.
    9900012    2    1    2    0    0  0.30889574651E+02 -0.25594855088E+02 -0.66259229319E+01  0.50528864694E+02  0.30000014725E+02 0.  0.
         12    1    1    2    0    0 -0.30889574651E+02  0.25594855088E+02  0.66259229319E+01  0.40659135306E+02  0.00000000000E+00 0. -1.
         11    1    3    3    0    0  0.77983730058E+00 -0.30750476274E+01 -0.36451576993E+01  0.48323119766E+01  0.51100000000E-03 0. -1.
        -11    1    3    3    0    0  0.20956903558E+02 -0.57900456096E+01  0.86051896137E+01  0.23383022120E+02  0.51100000000E-03 0.  1.
        -12    1    3    3    0    0  0.91528337918E+01 -0.16729761852E+02 -0.11585954846E+02  0.22313530598E+02  0.00000000000E+00 0.  1.
</event>
<event>
 7    1  0.5849044E-013  0.5052886E+02  0.7816164E-02  0.1300439E+00
        -11   -1    0    0    0    0  0.00000000000E+00  0.00000000000E+00  0.45593999997E+02  0.45594000000E+02  0.51100000000E-03 0.  1.
         11   -1    0    0    0    0 -0.00000000000E+00 -0.00000000000E+00 -0.45593999997E+02  0.45594000000E+02  0.51100000000E-03 0. -1.
    9900012    2    1    2    0    0  0.15564127202E+02  0.29247044311E+02  0.23569771907E+02  0.50528858295E+02  0.29999995273E+02 0.  0.
         12    1    1    2    0    0 -0.15564127202E+02 -0.29247044311E+02 -0.23569771907E+02  0.40659141705E+02  0.00000000000E+00 0. -1.
         11    1    3    3    0    0 -0.60294566641E+00  0.25019814317E+02  0.20763343019E+02  0.32518780198E+02  0.51100000000E-03 0. -1.
        -11    1    3    3    0    0  0.13247443856E+02  0.45974521023E+01  0.43566799224E+01  0.14683732317E+02  0.51100000000E-03 0.  1.
         12    1    3    3    0    0  0.29196290125E+01 -0.37022210839E+00 -0.15502510352E+01  0.33263457806E+01  0.00000000000E+00 0. -1.
</event>
<event>
 7    1  0.5849044E-013  0.5052884E+02  0.7816164E-02  0.1300439E+00
        -11   -1    0    0    0    0  0.00000000000E+00  0.00000000000E+00  0.45593999997E+02  0.45594000000E+02  0.51100000000E-03 0.  1.
         11   -1    0    0    0    0 -0.00000000000E+00 -0.00000000000E+00 -0.45593999997E+02  0.45594000000E+02  0.51100000000E-03 0. -1.
    9900012    2    1    2    0    0  0.22694818296E+01 -0.40584409323E+02  0.96024099059E+00  0.50528844935E+02  0.29999954664E+02 0.  0.
         12    1    1    2    0    0 -0.22694818296E+01  0.40584409323E+02 -0.96024099059E+00  0.40659155065E+02  0.00000000000E+00 0. -1.
         11    1    3    3    0    0  0.19000042967E+01 -0.15659209739E+02 -0.88759486702E+01  0.18099815773E+02  0.51100000000E-03 0. -1.
        -11    1    3    3    0    0  0.11382944198E+01 -0.27585769675E+02  0.10571016006E+02  0.29563774833E+02  0.51100000000E-03 0.  1.
         12    1    3    3    0    0 -0.76881688692E+00  0.26605700904E+01 -0.73482634489E+00  0.28652543288E+01  0.00000000000E+00 0. -1.
</event>
<event>
 7    1  0.5849044E-013  0.5052889E+02  0.7816164E-02  0.1300439E+00
        -11   -1    0    0    0    0  0.00000000000E+00  0.00000000000E+00  0.45593999997E+02  0.45594000000E+02  0.51100000000E-03 0. -1.
         11   -1    0    0    0    0 -0.00000000000E+00 -0.00000000000E+00 -0.45593999997E+02  0.45594000000E+02  0.51100000000E-03 0.  1.
    9900012    2    1    2    0    0  0.46707651947E+01 -0.17543250900E+02 -0.36381065267E+02  0.50528885283E+02  0.30000077305E+02 0.  0.
         12    1    1    2    0    0 -0.46707651947E+01  0.17543250900E+02  0.36381065267E+02  0.40659114717E+02  0.00000000000E+00 0. -1.
         11    1    3    3    0    0  0.64410983124E+01 -0.39292569090E+01 -0.29847886227E+02  0.30786736102E+02  0.51100000000E-03 0.  1.
        -11    1    3    3    0    0  0.39288375618E+01 -0.35080438607E+01  0.16784102684E+01  0.55280374100E+01  0.51100000000E-03 0. -1.
        -12    1    3    3    0    0 -0.56991706796E+01 -0.10105950130E+02 -0.82115893082E+01  0.14214111771E+02  0.00000000000E+00 0.  1.
</event>
<event>
 7    1  0.5849044E-013  0.5052886E+02  0.7816164E-02  0.1300439E+00
        -11   -1    0    0    0    0  0.00000000000E+00  0.00000000000E+00  0.45593999997E+02  0.45594000000E+02  0.51100000000E-03 0.  1.
         11   -1    0    0    0    0 -0.00000000000E+00 -0.00000000000E+00 -0.45593999997E+02  0.45594000000E+02  0.51100000000E-03 0. -1.
    9900012    2    1    2    0    0  0.28395127955E+02  0.21396211381E+02  0.19725218296E+02  0.50528863390E+02  0.30000010759E+02 0.  0.
         12    1    1    2    0    0 -0.28395127955E+02 -0.21396211381E+02 -0.19725218296E+02  0.40659136610E+02  0.00000000000E+00 0. -1.
         11    1    3    3    0    0 -0.60689001807E+01  0.32126956208E+01  0.57931023820E+00  0.68911946112E+01  0.51100000000E-03 0. -1.
        -11    1    3    3    0    0  0.10530352678E+02  0.48568533613E+01  0.78651692468E+01  0.14012074780E+02  0.51100000000E-03 0.  1.
         12    1    3    3    0    0  0.23933675458E+02  0.13326662399E+02  0.11280738811E+02  0.29625593999E+02  0.00000000000E+00 0. -1.
</event>
<event>
 7    1  0.5849044E-013  0.5052886E+02  0.7816164E-02  0.1300439E+00
        -11   -1    0    0    0    0  0.00000000000E+00  0.00000000000E+00  0.45593999997E+02  0.45594000000E+02  0.51100000000E-03 0.  1.
         11   -1    0    0    0    0 -0.00000000000E+00 -0.00000000000E+00 -0.45593999997E+02  0.45594000000E+02  0.51100000000E-03 0. -1.
    9900012    2    1    2    0    0 -0.35319859946E+02 -0.67065662710E+01  0.18991972690E+02  0.50528861244E+02  0.30000004237E+02 0.  0.
         12    1    1    2    0    0  0.35319859946E+02  0.67065662710E+01 -0.18991972690E+02  0.40659138756E+02  0.00000000000E+00 0. -1.
         11    1    3    3    0    0 -0.30062243259E+02  0.25678924760E+01  0.87726941720E+01  0.31421214248E+02  0.51100000000E-03 0.  1.
        -11    1    3    3    0    0 -0.63386700833E+01 -0.10036814711E+02  0.36686506229E+01  0.12424789158E+02  0.51100000000E-03 0. -1.
         12    1    3    3    0    0  0.10810533963E+01  0.76235596369E+00  0.65506278956E+01  0.66828578384E+01  0.00000000000E+00 0. -1.
</event>
<event>
 7    1  0.5849044E-013  0.5052887E+02  0.7816164E-02  0.1300439E+00
        -11   -1    0    0    0    0  0.00000000000E+00  0.00000000000E+00  0.45593999997E+02  0.45594000000E+02  0.51100000000E-03 0. -1.
         11   -1    0    0    0    0 -0.00000000000E+00 -0.00000000000E+00 -0.45593999997E+02  0.45594000000E+02  0.51100000000E-03 0.  1.
    9900012    2    1    2    0    0 -0.36865320327E+02 -0.59086298527E+01 -0.16099735391E+02  0.50528865366E+02  0.30000016766E+02 0.  0.
         12    1    1    2    0    0  0.36865320327E+02  0.59086298527E+01  0.16099735391E+02  0.40659134634E+02  0.00000000000E+00 0. -1.
         11    1    3    3    0    0  0.31601660136E+01 -0.46453226902E+01 -0.62946097705E+01  0.84372853782E+01  0.51100000000E-03 0. -1.
        -11    1    3    3    0    0 -0.19973960605E+02  0.59472364003E+00 -0.90590017742E+01  0.21940335273E+02  0.51100000000E-03 0.  1.
         12    1    3    3    0    0 -0.20051525735E+02 -0.18580308026E+01 -0.74612384607E+00  0.20151244715E+02  0.00000000000E+00 0. -1.
</event>
<event>
 7    1  0.5849044E-013  0.5052885E+02  0.7816164E-02  0.1300439E+00
        -11   -1    0    0    0    0  0.00000000000E+00  0.00000000000E+00  0.45593999997E+02  0.45594000000E+02  0.51100000000E-03 0. -1.
         11   -1    0    0    0    0 -0.00000000000E+00 -0.00000000000E+00 -0.45593999997E+02  0.45594000000E+02  0.51100000000E-03 0.  1.
    9900012    2    1    2    0    0 -0.14487750613E+02  0.25281217377E+02 -0.28357208605E+02  0.50528854045E+02  0.29999982356E+02 0.  0.
         12    1    1    2    0    0  0.14487750613E+02 -0.25281217377E+02  0.28357208605E+02  0.40659145955E+02  0.00000000000E+00 0. -1.
         11    1    3    3    0    0 -0.18462459898E+02  0.12115193253E+02 -0.62698369816E+01  0.22955417423E+02  0.51100000000E-03 0. -1.
        -11    1    3    3    0    0  0.23544352722E+01  0.13748718043E+02 -0.15902022090E+02  0.21152893894E+02  0.51100000000E-03 0.  1.
        -12    1    3    3    0    0  0.16202740123E+01 -0.58269391840E+00 -0.61853495336E+01  0.64205427286E+01  0.00000000000E+00 0.  1.
</event>
<event>
 7    1  0.5849044E-013  0.5052886E+02  0.7816164E-02  0.1300439E+00
        -11   -1    0    0    0    0  0.00000000000E+00  0.00000000000E+00  0.45593999997E+02  0.45594000000E+02  0.51100000000E-03 0.  1.
         11   -1    0    0    0    0 -0.00000000000E+00 -0.00000000000E+00 -0.45593999997E+02  0.45594000000E+02  0.51100000000E-03 0. -1.
    9900012    2    1    2    0    0  0.15293194231E+02  0.80998100527E+01  0.36792347189E+02  0.50528861736E+02  0.30000005733E+02 0.  0.
         12    1    1    2    0    0 -0.15293194231E+02 -0.80998100527E+01 -0.36792347189E+02  0.40659138264E+02  0.00000000000E+00 0. -1.
         11    1    3    3    0    0 -0.34367607127E+01 -0.69929399928E+01  0.28901635521E+01  0.83105703510E+01  0.51100000000E-03 0. -1.
        -11    1    3    3    0    0  0.60948652110E+01  0.60267371152E+01  0.66787986172E+01  0.10866245599E+02  0.51100000000E-03 0.  1.
         12    1    3    3    0    0  0.12635089733E+02  0.90660129304E+01  0.27223385020E+02  0.31352045786E+02  0.00000000000E+00 0. -1.
</event>
<event>
 7    1  0.5849044E-013  0.5052887E+02  0.7816164E-02  0.1300439E+00
        -11   -1    0    0    0    0  0.00000000000E+00  0.00000000000E+00  0.45593999997E+02  0.45594000000E+02  0.51100000000E-03 0.  1.
         11   -1    0    0    0    0 -0.00000000000E+00 -0.00000000000E+00 -0.45593999997E+02  0.45594000000E+02  0.51100000000E-03 0. -1.
    9900012    2    1    2    0    0  0.77652734072E+01  0.12204069468E+02  0.37999032139E+02  0.50528865403E+02  0.30000016880E+02 0.  0.
         12    1    1    2    0    0 -0.77652734072E+01 -0.12204069468E+02 -0.37999032139E+02  0.40659134597E+02  0.00000000000E+00 0. -1.
         11    1    3    3    0    0  0.10160248807E+02  0.67350903600E+01  0.11204234996E+01  0.12241219182E+02  0.51100000000E-03 0. -1.
        -11    1    3    3    0    0  0.17113103765E+01  0.23198263187E+01  0.36138252287E+01  0.46227600412E+01  0.51100000000E-03 0.  1.
         12    1    3    3    0    0 -0.41062857764E+01  0.31491527897E+01  0.33264783410E+02  0.33664886180E+02  0.00000000000E+00 0. -1.
</event>
<event>
 7    1  0.5849044E-013  0.5052886E+02  0.7816164E-02  0.1300439E+00
        -11   -1    0    0    0    0  0.00000000000E+00  0.00000000000E+00  0.45593999997E+02  0.45594000000E+02  0.51100000000E-03 0. -1.
         11   -1    0    0    0    0 -0.00000000000E+00 -0.00000000000E+00 -0.45593999997E+02  0.45594000000E+02  0.51100000000E-03 0.  1.
    9900012    2    1    2    0    0 -0.30261729086E+02  0.34292206190E+01 -0.26937597018E+02  0.50528856693E+02  0.29999990405E+02 0.  0.
         12    1    1    2    0    0  0.30261729086E+02 -0.34292206190E+01  0.26937597018E+02  0.40659143307E+02  0.00000000000E+00 0. -1.
         11    1    3    3    0    0 -0.10511978747E+02  0.87042474066E+01 -0.26328518433E+02  0.29655631897E+02  0.51100000000E-03 0. -1.
        -11    1    3    3    0    0 -0.95196742962E+01 -0.18370792294E+01 -0.22603716351E+01  0.99553171215E+01  0.51100000000E-03 0.  1.
         12    1    3    3    0    0 -0.10230076043E+02 -0.34379475582E+01  0.16512930493E+01  0.10917907675E+02  0.00000000000E+00 0. -1.
</event>
<event>
 7    1  0.5849044E-013  0.5052887E+02  0.7816164E-02  0.1300439E+00
        -11   -1    0    0    0    0  0.00000000000E+00  0.00000000000E+00  0.45593999997E+02  0.45594000000E+02  0.51100000000E-03 0.  1.
         11   -1    0    0    0    0 -0.00000000000E+00 -0.00000000000E+00 -0.45593999997E+02  0.45594000000E+02  0.51100000000E-03 0. -1.
    9900012    2    1    2    0    0 -0.31043736279E+02 -0.14509514320E+02  0.21884370238E+02  0.50528865372E+02  0.30000016785E+02 0.  0.
         12    1    1    2    0    0  0.31043736279E+02  0.14509514320E+02 -0.21884370238E+02  0.40659134628E+02  0.00000000000E+00 0. -1.
         11    1    3    3    0    0  0.13465434477E+01 -0.11133465320E+02  0.78260128266E+01  0.13675295474E+02  0.51100000000E-03 0. -1.
        -11    1    3    3    0    0 -0.16560085229E+02 -0.56689719891E+01  0.39879147917E+01  0.17952078734E+02  0.51100000000E-03 0.  1.
         12    1    3    3    0    0 -0.15830194498E+02  0.22929229893E+01  0.10070442620E+02  0.18901491164E+02  0.00000000000E+00 0. -1.
</event>
<event>
 7    1  0.5849044E-013  0.5052886E+02  0.7816164E-02  0.1300439E+00
        -11   -1    0    0    0    0  0.00000000000E+00  0.00000000000E+00  0.45593999997E+02  0.45594000000E+02  0.51100000000E-03 0. -1.
         11   -1    0    0    0    0 -0.00000000000E+00 -0.00000000000E+00 -0.45593999997E+02  0.45594000000E+02  0.51100000000E-03 0.  1.
    9900012    2    1    2    0    0  0.21606470553E+02  0.32847132933E+02 -0.10363005850E+02  0.50528860782E+02  0.30000002833E+02 0.  0.
         12    1    1    2    0    0 -0.21606470553E+02 -0.32847132933E+02  0.10363005850E+02  0.40659139218E+02  0.00000000000E+00 0. -1.
         11    1    3    3    0    0 -0.23041402581E+01 -0.15120321746E+01 -0.72195835546E+01  0.77277222122E+01  0.51100000000E-03 0. -1.
        -11    1    3    3    0    0  0.12440333210E+02  0.22753785985E+02 -0.48938984713E+01  0.26390280589E+02  0.51100000000E-03 0.  1.
         12    1    3    3    0    0  0.11470277601E+02  0.11605379123E+02  0.17504761755E+01  0.16410857981E+02  0.00000000000E+00 0. -1.
</event>
<event>
 7    1  0.5849044E-013  0.5052884E+02  0.7816164E-02  0.1300439E+00
        -11   -1    0    0    0    0  0.00000000000E+00  0.00000000000E+00  0.45593999997E+02  0.45594000000E+02  0.51100000000E-03 0. -1.
         11   -1    0    0    0    0 -0.00000000000E+00 -0.00000000000E+00 -0.45593999997E+02  0.45594000000E+02  0.51100000000E-03 0.  1.
    9900012    2    1    2    0    0 -0.51898876001E+01  0.22170598818E+02 -0.33685264568E+02  0.50528838249E+02  0.29999934341E+02 0.  0.
         12    1    1    2    0    0  0.51898876001E+01 -0.22170598818E+02  0.33685264568E+02  0.40659161751E+02  0.00000000000E+00 0. -1.
         11    1    3    3    0    0 -0.16233104399E+01 -0.14596237993E+01  0.12981674840E+01  0.25398577710E+01  0.51100000000E-03 0. -1.
        -11    1    3    3    0    0  0.80501597244E+01  0.12707842924E+02 -0.24998098209E+02  0.29175319325E+02  0.51100000000E-03 0.  1.
        -12    1    3    3    0    0 -0.11616736885E+02  0.10922379694E+02 -0.99853338432E+01  0.18813661153E+02  0.00000000000E+00 0.  1.
</event>
<event>
 7    1  0.5849044E-013  0.5052884E+02  0.7816164E-02  0.1300439E+00
        -11   -1    0    0    0    0  0.00000000000E+00  0.00000000000E+00  0.45593999997E+02  0.45594000000E+02  0.51100000000E-03 0.  1.
         11   -1    0    0    0    0 -0.00000000000E+00 -0.00000000000E+00 -0.45593999997E+02  0.45594000000E+02  0.51100000000E-03 0. -1.
    9900012    2    1    2    0    0  0.17297840172E+02 -0.39020992863E+01  0.36588598812E+02  0.50528840927E+02  0.29999942482E+02 0.  0.
         12    1    1    2    0    0 -0.17297840172E+02  0.39020992863E+01 -0.36588598812E+02  0.40659159073E+02  0.00000000000E+00 0. -1.
         11    1    3    3    0    0  0.57644543957E+01 -0.84423550383E+01  0.40066280913E+01  0.10979770580E+02  0.51100000000E-03 0. -1.
        -11    1    3    3    0    0  0.15042278185E+02  0.61317878589E-01  0.29413062122E+02  0.33036375657E+02  0.51100000000E-03 0.  1.
        -12    1    3    3    0    0 -0.35088924094E+01  0.44789378734E+01  0.31689085988E+01  0.65126946898E+01  0.00000000000E+00 0.  1.
</event>
<event>
 7    1  0.5849044E-013  0.5052885E+02  0.7816164E-02  0.1300439E+00
        -11   -1    0    0    0    0  0.00000000000E+00  0.00000000000E+00  0.45593999997E+02  0.45594000000E+02  0.51100000000E-03 0.  1.
         11   -1    0    0    0    0 -0.00000000000E+00 -0.00000000000E+00 -0.45593999997E+02  0.45594000000E+02  0.51100000000E-03 0. -1.
    9900012    2    1    2    0    0  0.78246979950E+01  0.34005060605E+02  0.20870939694E+02  0.50528853807E+02  0.29999981632E+02 0.  0.
         12    1    1    2    0    0 -0.78246979950E+01 -0.34005060605E+02 -0.20870939694E+02  0.40659146193E+02  0.00000000000E+00 0. -1.
         11    1    3    3    0    0  0.69202647685E+01  0.11558540766E+02 -0.53557345832E+01  0.14497372944E+02  0.51100000000E-03 0. -1.
        -11    1    3    3    0    0  0.10773217459E+01  0.20295020285E+02  0.26950714718E+02  0.33754844016E+02  0.51100000000E-03 0.  1.
        -12    1    3    3    0    0 -0.17288851935E+00  0.21514995540E+01 -0.72404044086E+00  0.22766368465E+01  0.00000000000E+00 0.  1.
</event>
<event>
 7    1  0.5849044E-013  0.5052886E+02  0.7816164E-02  0.1300439E+00
        -11   -1    0    0    0    0  0.00000000000E+00  0.00000000000E+00  0.45593999997E+02  0.45594000000E+02  0.51100000000E-03 0.  1.
         11   -1    0    0    0    0 -0.00000000000E+00 -0.00000000000E+00 -0.45593999997E+02  0.45594000000E+02  0.51100000000E-03 0. -1.
    9900012    2    1    2    0    0  0.25261985336E+02  0.31043503855E+02  0.71623288481E+01  0.50528856019E+02  0.29999988357E+02 0.  0.
         12    1    1    2    0    0 -0.25261985336E+02 -0.31043503855E+02 -0.71623288481E+01  0.40659143981E+02  0.00000000000E+00 0. -1.
         11    1    3    3    0    0  0.68821780651E+01  0.10690947537E+02 -0.30632419045E+01  0.13078386192E+02  0.51100000000E-03 0. -1.
        -11    1    3    3    0    0 -0.35843104613E+01 -0.13304637272E+01  0.47618366749E+01  0.61067588778E+01  0.51100000000E-03 0.  1.
        -12    1    3    3    0    0  0.21964117732E+02  0.21683020045E+02  0.54637340776E+01  0.31343710950E+02  0.00000000000E+00 0.  1.
</event>
<event>
 7    1  0.5849044E-013  0.5052878E+02  0.7816164E-02  0.1300439E+00
        -11   -1    0    0    0    0  0.00000000000E+00  0.00000000000E+00  0.45593999997E+02  0.45594000000E+02  0.51100000000E-03 0. -1.
         11   -1    0    0    0    0 -0.00000000000E+00 -0.00000000000E+00 -0.45593999997E+02  0.45594000000E+02  0.51100000000E-03 0.  1.
    9900012    2    1    2    0    0 -0.25669088328E+02  0.23096402085E+02 -0.21466855766E+02  0.50528784792E+02  0.29999771852E+02 0.  0.
         12    1    1    2    0    0  0.25669088328E+02 -0.23096402085E+02  0.21466855766E+02  0.40659215208E+02  0.00000000000E+00 0. -1.
         11    1    3    3    0    0 -0.77472192685E+00  0.16236270249E+02 -0.39929925888E+01  0.16738000351E+02  0.51100000000E-03 0. -1.
        -11    1    3    3    0    0 -0.13882958020E+02 -0.23172328891E+01 -0.11826563265E+02  0.18384060775E+02  0.51100000000E-03 0.  1.
        -12    1    3    3    0    0 -0.11011408381E+02  0.91773647252E+01 -0.56472999127E+01  0.15406723667E+02  0.00000000000E+00 0.  1.
</event>
<event>
 7    1  0.5849044E-013  0.5052874E+02  0.7816164E-02  0.1300439E+00
        -11   -1    0    0    0    0  0.00000000000E+00  0.00000000000E+00  0.45593999997E+02  0.45594000000E+02  0.51100000000E-03 0.  1.
         11   -1    0    0    0    0 -0.00000000000E+00 -0.00000000000E+00 -0.45593999997E+02  0.45594000000E+02  0.51100000000E-03 0. -1.
    9900012    2    1    2    0    0  0.15642251132E+02 -0.11002107330E-01  0.37529923556E+02  0.50528741477E+02  0.29999640191E+02 0.  0.
         12    1    1    2    0    0 -0.15642251132E+02  0.11002107330E-01 -0.37529923556E+02  0.40659258523E+02  0.00000000000E+00 0. -1.
         11    1    3    3    0    0  0.22910833742E+02  0.28077832096E+00  0.25086565330E+02  0.33975298373E+02  0.51100000000E-03 0. -1.
        -11    1    3    3    0    0 -0.57920468869E+01 -0.36126539459E+01  0.10229101374E+02  0.12297706732E+02  0.51100000000E-03 0.  1.
         12    1    3    3    0    0 -0.14765357230E+01  0.33208735176E+01  0.22142568517E+01  0.42557363718E+01  0.00000000000E+00 0. -1.
</event>
<event>
 7    1  0.5849044E-013  0.5052886E+02  0.7816164E-02  0.1300439E+00
        -11   -1    0    0    0    0  0.00000000000E+00  0.00000000000E+00  0.45593999997E+02  0.45594000000E+02  0.51100000000E-03 0. -1.
         11   -1    0    0    0    0 -0.00000000000E+00 -0.00000000000E+00 -0.45593999997E+02  0.45594000000E+02  0.51100000000E-03 0.  1.
    9900012    2    1    2    0    0 -0.31157636858E+02 -0.12181062351E+02 -0.23108209473E+02  0.50528856383E+02  0.29999989463E+02 0.  0.
         12    1    1    2    0    0  0.31157636858E+02  0.12181062351E+02  0.23108209473E+02  0.40659143617E+02  0.00000000000E+00 0. -1.
         11    1    3    3    0    0  0.16374503506E+01  0.60947013719E+01 -0.17679140459E+00  0.63133100609E+01  0.51100000000E-03 0. -1.
        -11    1    3    3    0    0 -0.24610128636E+02 -0.15752676697E+02 -0.18319019981E+02  0.34487559321E+02  0.51100000000E-03 0.  1.
         12    1    3    3    0    0 -0.81849585724E+01 -0.25230870263E+01 -0.46123980877E+01  0.97279870011E+01  0.00000000000E+00 0. -1.
</event>
<event>
 7    1  0.5849044E-013  0.5052885E+02  0.7816164E-02  0.1300439E+00
        -11   -1    0    0    0    0  0.00000000000E+00  0.00000000000E+00  0.45593999997E+02  0.45594000000E+02  0.51100000000E-03 0.  1.
         11   -1    0    0    0    0 -0.00000000000E+00 -0.00000000000E+00 -0.45593999997E+02  0.45594000000E+02  0.51100000000E-03 0. -1.
    9900012    2    1    2    0    0  0.15507358249E+02 -0.28321429404E+02  0.24710012845E+02  0.50528852713E+02  0.29999978306E+02 0.  0.
         12    1    1    2    0    0 -0.15507358249E+02  0.28321429404E+02 -0.24710012845E+02  0.40659147287E+02  0.00000000000E+00 0. -1.
         11    1    3    3    0    0  0.81461050027E+01 -0.26781587444E+02  0.22641362024E+02  0.36003384943E+02  0.51100000000E-03 0. -1.
        -11    1    3    3    0    0 -0.13286996716E+01 -0.28146361582E+01  0.44453003879E+01  0.54266301993E+01  0.51100000000E-03 0.  1.
         12    1    3    3    0    0  0.86899529182E+01  0.12747941991E+01 -0.23766495675E+01  0.90988375706E+01  0.00000000000E+00 0. -1.
</event>
<event>
 7    1  0.5849044E-013  0.5052886E+02  0.7816164E-02  0.1300439E+00
        -11   -1    0    0    0    0  0.00000000000E+00  0.00000000000E+00  0.45593999997E+02  0.45594000000E+02  0.51100000000E-03 0.  1.
         11   -1    0    0    0    0 -0.00000000000E+00 -0.00000000000E+00 -0.45593999997E+02  0.45594000000E+02  0.51100000000E-03 0. -1.
    9900012    2    1    2    0    0 -0.20144417845E+01 -0.10437134460E+02  0.39245054556E+02  0.50528855167E+02  0.29999985766E+02 0.  0.
         12    1    1    2    0    0  0.20144417845E+01  0.10437134460E+02 -0.39245054556E+02  0.40659144833E+02  0.00000000000E+00 0. -1.
         11    1    3    3    0    0  0.71679601660E+01 -0.11511547753E+02  0.93381902014E+01  0.16465029035E+02  0.51100000000E-03 0. -1.
        -11    1    3    3    0    0 -0.93770431365E+01  0.48036735113E+01  0.12919596026E+02  0.16670938153E+02  0.51100000000E-03 0.  1.
         12    1    3    3    0    0  0.19464118609E+00 -0.37292602187E+01  0.16987268329E+02  0.17392887979E+02  0.00000000000E+00 0. -1.
</event>
<event>
 7    1  0.5849044E-013  0.5052894E+02  0.7816164E-02  0.1300438E+00
        -11   -1    0    0    0    0  0.00000000000E+00  0.00000000000E+00  0.45593999997E+02  0.45594000000E+02  0.51100000000E-03 0. -1.
         11   -1    0    0    0    0 -0.00000000000E+00 -0.00000000000E+00 -0.45593999997E+02  0.45594000000E+02  0.51100000000E-03 0.  1.
    9900012    2    1    2    0    0 -0.38827205894E+02 -0.63510062414E+01 -0.10260197620E+02  0.50528943776E+02  0.30000255101E+02 0.  0.
         12    1    1    2    0    0  0.38827205894E+02  0.63510062414E+01  0.10260197620E+02  0.40659056224E+02  0.00000000000E+00 0. -1.
         11    1    3    3    0    0 -0.10350081315E+02  0.27875407803E+01  0.31172720924E+01  0.11162972381E+02  0.51100000000E-03 0. -1.
        -11    1    3    3    0    0  0.12673183137E+01 -0.38630517206E+01 -0.75865629756E+01  0.86072761282E+01  0.51100000000E-03 0.  1.
        -12    1    3    3    0    0 -0.29744442893E+02 -0.52754953012E+01 -0.57909067370E+01  0.30758695267E+02  0.00000000000E+00 0.  1.
</event>
<event>
 7    1  0.5849044E-013  0.5052887E+02  0.7816164E-02  0.1300439E+00
        -11   -1    0    0    0    0  0.00000000000E+00  0.00000000000E+00  0.45593999997E+02  0.45594000000E+02  0.51100000000E-03 0.  1.
         11   -1    0    0    0    0 -0.00000000000E+00 -0.00000000000E+00 -0.45593999997E+02  0.45594000000E+02  0.51100000000E-03 0. -1.
    9900012    2    1    2    0    0 -0.27127818880E+02  0.12708903461E+02  0.27490544593E+02  0.50528870320E+02  0.30000031823E+02 0.  0.
         12    1    1    2    0    0  0.27127818880E+02 -0.12708903461E+02 -0.27490544593E+02  0.40659129680E+02  0.00000000000E+00 0. -1.
         11    1    3    3    0    0  0.33371516150E+00  0.43887025686E+01 -0.10702907644E+01  0.45296355952E+01  0.51100000000E-03 0. -1.
        -11    1    3    3    0    0 -0.26022624736E+02  0.73432914393E+01  0.32151366735E+02  0.42009657348E+02  0.51100000000E-03 0.  1.
        -12    1    3    3    0    0 -0.14389093051E+01  0.97690945281E+00 -0.35905313776E+01  0.39895773762E+01  0.00000000000E+00 0.  1.
</event>
<event>
 7    1  0.5849044E-013  0.5052886E+02  0.7816164E-02  0.1300439E+00
        -11   -1    0    0    0    0  0.00000000000E+00  0.00000000000E+00  0.45593999997E+02  0.45594000000E+02  0.51100000000E-03 0.  1.
         11   -1    0    0    0    0 -0.00000000000E+00 -0.00000000000E+00 -0.45593999997E+02  0.45594000000E+02  0.51100000000E-03 0. -1.
    9900012    2    1    2    0    0 -0.29495743481E+02 -0.86953430077E+01  0.26599965292E+02  0.50528855554E+02  0.29999986942E+02 0.  0.
         12    1    1    2    0    0  0.29495743481E+02  0.86953430077E+01 -0.26599965292E+02  0.40659144446E+02  0.00000000000E+00 0. -1.
         11    1    3    3    0    0 -0.26977784902E+02 -0.98537522351E+01  0.59887736779E+01  0.29338758013E+02  0.51100000000E-03 0. -1.
        -11    1    3    3    0    0 -0.21202902792E+01 -0.12086413150E+01  0.85043049856E+01  0.88475786657E+01  0.51100000000E-03 0.  1.
         12    1    3    3    0    0 -0.39766830028E+00  0.23670505424E+01  0.12106886629E+02  0.12342518875E+02  0.00000000000E+00 0. -1.
</event>
<event>
 7    1  0.5849044E-013  0.5052886E+02  0.7816164E-02  0.1300439E+00
        -11   -1    0    0    0    0  0.00000000000E+00  0.00000000000E+00  0.45593999997E+02  0.45594000000E+02  0.51100000000E-03 0.  1.
         11   -1    0    0    0    0 -0.00000000000E+00 -0.00000000000E+00 -0.45593999997E+02  0.45594000000E+02  0.51100000000E-03 0. -1.
    9900012    2    1    2    0    0  0.37126322706E+02  0.85904925039E+01  0.14177621313E+02  0.50528863939E+02  0.30000012429E+02 0.  0.
         12    1    1    2    0    0 -0.37126322706E+02 -0.85904925039E+01 -0.14177621313E+02  0.40659136061E+02  0.00000000000E+00 0. -1.
         11    1    3    3    0    0 -0.16333270214E+01  0.64574929543E+01  0.21386992676E+01  0.69957849618E+01  0.51100000000E-03 0. -1.
        -11    1    3    3    0    0  0.28911334375E+02  0.75908758991E+01  0.51454113362E+01  0.30330873880E+02  0.51100000000E-03 0.  1.
         12    1    3    3    0    0  0.98483153525E+01 -0.54578763496E+01  0.68935107087E+01  0.13202205097E+02  0.00000000000E+00 0. -1.
</event>
<event>
 7    1  0.5849044E-013  0.5052885E+02  0.7816164E-02  0.1300439E+00
        -11   -1    0    0    0    0  0.00000000000E+00  0.00000000000E+00  0.45593999997E+02  0.45594000000E+02  0.51100000000E-03 0.  1.
         11   -1    0    0    0    0 -0.00000000000E+00 -0.00000000000E+00 -0.45593999997E+02  0.45594000000E+02  0.51100000000E-03 0. -1.
    9900012    2    1    2    0    0 -0.36840767290E+02 -0.49366774241E+01  0.16478882760E+02  0.50528849793E+02  0.29999969431E+02 0.  0.
         12    1    1    2    0    0  0.36840767290E+02  0.49366774241E+01 -0.16478882760E+02  0.40659150207E+02  0.00000000000E+00 0. -1.
         11    1    3    3    0    0  0.15168222581E-01 -0.92208856996E+01  0.41420939778E+01  0.10108506613E+02  0.51100000000E-03 0. -1.
        -11    1    3    3    0    0 -0.13300342463E+02 -0.32745368258E+01  0.33622048177E+01  0.14104117220E+02  0.51100000000E-03 0.  1.
         12    1    3    3    0    0 -0.23555593050E+02  0.75587451014E+01  0.89745839648E+01  0.26316225960E+02  0.00000000000E+00 0. -1.
</event>
<event>
 7    1  0.5849044E-013  0.5052886E+02  0.7816164E-02  0.1300439E+00
        -11   -1    0    0    0    0  0.00000000000E+00  0.00000000000E+00  0.45593999997E+02  0.45594000000E+02  0.51100000000E-03 0.  1.
         11   -1    0    0    0    0 -0.00000000000E+00 -0.00000000000E+00 -0.45593999997E+02  0.45594000000E+02  0.51100000000E-03 0. -1.
    9900012    2    1    2    0    0 -0.88841740063E+01  0.39660103064E+02 -0.11458925649E+01  0.50528863356E+02  0.30000010658E+02 0.  0.
         12    1    1    2    0    0  0.88841740063E+01 -0.39660103064E+02  0.11458925649E+01  0.40659136644E+02  0.00000000000E+00 0. -1.
         11    1    3    3    0    0  0.32563016483E-01 -0.62808629691E+00 -0.34641420442E+01  0.35207716640E+01  0.51100000000E-03 0. -1.
        -11    1    3    3    0    0  0.33904579760E+01  0.31432420101E+02  0.34570881517E+01  0.31803202628E+02  0.51100000000E-03 0.  1.
        -12    1    3    3    0    0 -0.12307194999E+02  0.88557692605E+01 -0.11388386723E+01  0.15204889064E+02  0.00000000000E+00 0.  1.
</event>
<event>
 7    1  0.5849044E-013  0.5052885E+02  0.7816164E-02  0.1300439E+00
        -11   -1    0    0    0    0  0.00000000000E+00  0.00000000000E+00  0.45593999997E+02  0.45594000000E+02  0.51100000000E-03 0.  1.
         11   -1    0    0    0    0 -0.00000000000E+00 -0.00000000000E+00 -0.45593999997E+02  0.45594000000E+02  0.51100000000E-03 0. -1.
    9900012    2    1    2    0    0  0.36166149822E+02  0.16870111942E+01  0.18502154089E+02  0.50528854588E+02  0.29999984005E+02 0.  0.
         12    1    1    2    0    0 -0.36166149822E+02 -0.16870111942E+01 -0.18502154089E+02  0.40659145412E+02  0.00000000000E+00 0. -1.
         11    1    3    3    0    0  0.18654737361E+02  0.44257880333E+01 -0.59837197426E+01  0.20084614209E+02  0.51100000000E-03 0. -1.
        -11    1    3    3    0    0  0.11369890279E+02 -0.22182547549E+01  0.18658084858E+02  0.21961766549E+02  0.51100000000E-03 0.  1.
         12    1    3    3    0    0  0.61415221821E+01 -0.52052208414E+00  0.58277889737E+01  0.84824738300E+01  0.00000000000E+00 0. -1.
</event>
<event>
 7    1  0.5849044E-013  0.5052886E+02  0.7816164E-02  0.1300439E+00
        -11   -1    0    0    0    0  0.00000000000E+00  0.00000000000E+00  0.45593999997E+02  0.45594000000E+02  0.51100000000E-03 0.  1.
         11   -1    0    0    0    0 -0.00000000000E+00 -0.00000000000E+00 -0.45593999997E+02  0.45594000000E+02  0.51100000000E-03 0. -1.
    9900012    2    1    2    0    0 -0.61743102116E+01  0.20531221986E+02  0.34547254514E+02  0.50528856167E+02  0.29999988805E+02 0.  0.
         12    1    1    2    0    0  0.61743102116E+01 -0.20531221986E+02 -0.34547254514E+02  0.40659143833E+02  0.00000000000E+00 0. -1.
         11    1    3    3    0    0 -0.26574883150E+01 -0.16223276563E+01  0.20015371305E+02  0.20256092415E+02  0.51100000000E-03 0. -1.
        -11    1    3    3    0    0  0.16739535565E+01  0.59459705127E+01 -0.20532539556E+01  0.65094191688E+01  0.51100000000E-03 0.  1.
        -12    1    3    3    0    0 -0.51907754532E+01  0.16207579129E+02  0.16585137164E+02  0.23763344583E+02  0.00000000000E+00 0.  1.
</event>
<event>
 7    1  0.5849044E-013  0.5052885E+02  0.7816164E-02  0.1300439E+00
        -11   -1    0    0    0    0  0.00000000000E+00  0.00000000000E+00  0.45593999997E+02  0.45594000000E+02  0.51100000000E-03 0. -1.
         11   -1    0    0    0    0 -0.00000000000E+00 -0.00000000000E+00 -0.45593999997E+02  0.45594000000E+02  0.51100000000E-03 0.  1.
    9900012    2    1    2    0    0 -0.50227546864E+00 -0.16126640571E+02 -0.37320844220E+02  0.50528853059E+02  0.29999979357E+02 0.  0.
         12    1    1    2    0    0  0.50227546864E+00  0.16126640571E+02  0.37320844220E+02  0.40659146941E+02  0.00000000000E+00 0. -1.
         11    1    3    3    0    0 -0.29454417768E+00 -0.39766669117E+01  0.17907569434E+01  0.43712065486E+01  0.51100000000E-03 0. -1.
        -11    1    3    3    0    0  0.15936222355E+01 -0.14422262924E+01 -0.34153392900E+02  0.34220956961E+02  0.51100000000E-03 0.  1.
        -12    1    3    3    0    0 -0.18013535264E+01 -0.10707747367E+02 -0.49582082630E+01  0.11936689549E+02  0.00000000000E+00 0.  1.
</event>
<event>
 7    1  0.5849044E-013  0.5052886E+02  0.7816164E-02  0.1300439E+00
        -11   -1    0    0    0    0  0.00000000000E+00  0.00000000000E+00  0.45593999997E+02  0.45594000000E+02  0.51100000000E-03 0. -1.
         11   -1    0    0    0    0 -0.00000000000E+00 -0.00000000000E+00 -0.45593999997E+02  0.45594000000E+02  0.51100000000E-03 0.  1.
    9900012    2    1    2    0    0  0.12523111259E+02 -0.35604319441E+02  0.15121833389E+02  0.50528859287E+02  0.29999998290E+02 0.  0.
         12    1    1    2    0    0 -0.12523111259E+02  0.35604319441E+02 -0.15121833389E+02  0.40659140713E+02  0.00000000000E+00 0. -1.
         11    1    3    3    0    0  0.59918898144E+01 -0.73912801175E+01  0.16587997961E+02  0.19123165061E+02  0.51100000000E-03 0. -1.
        -11    1    3    3    0    0  0.56176152987E+01 -0.10501080762E+02 -0.56528104477E+01  0.13182737388E+02  0.51100000000E-03 0.  1.
         12    1    3    3    0    0  0.91360614596E+00 -0.17711958561E+02  0.41866458756E+01  0.18222956839E+02  0.00000000000E+00 0. -1.
</event>
<event>
 7    1  0.5849044E-013  0.5052885E+02  0.7816164E-02  0.1300439E+00
        -11   -1    0    0    0    0  0.00000000000E+00  0.00000000000E+00  0.45593999997E+02  0.45594000000E+02  0.51100000000E-03 0.  1.
         11   -1    0    0    0    0 -0.00000000000E+00 -0.00000000000E+00 -0.45593999997E+02  0.45594000000E+02  0.51100000000E-03 0. -1.
    9900012    2    1    2    0    0 -0.62964869052E+01 -0.21938480056E+02  0.33648529971E+02  0.50528853136E+02  0.29999979592E+02 0.  0.
         12    1    1    2    0    0  0.62964869052E+01  0.21938480056E+02 -0.33648529971E+02  0.40659146864E+02  0.00000000000E+00 0. -1.
         11    1    3    3    0    0  0.30120202395E+01 -0.47509821177E+01 -0.27186817370E+01  0.62478258342E+01  0.51100000000E-03 0. -1.
        -11    1    3    3    0    0 -0.12300521928E+02 -0.60414494417E+01  0.20585630518E+02  0.24729944099E+02  0.51100000000E-03 0.  1.
        -12    1    3    3    0    0  0.29920147830E+01 -0.11146048497E+02  0.15781581189E+02  0.19551083203E+02  0.00000000000E+00 0.  1.
</event>
<event>
 7    1  0.5849044E-013  0.5052887E+02  0.7816164E-02  0.1300439E+00
        -11   -1    0    0    0    0  0.00000000000E+00  0.00000000000E+00  0.45593999997E+02  0.45594000000E+02  0.51100000000E-03 0.  1.
         11   -1    0    0    0    0 -0.00000000000E+00 -0.00000000000E+00 -0.45593999997E+02  0.45594000000E+02  0.51100000000E-03 0. -1.
    9900012    2    1    2    0    0 -0.73414829079E+01 -0.31941537829E+02  0.24062529894E+02  0.50528873656E+02  0.30000041966E+02 0.  0.
         12    1    1    2    0    0  0.73414829079E+01  0.31941537829E+02 -0.24062529894E+02  0.40659126344E+02  0.00000000000E+00 0. -1.
         11    1    3    3    0    0 -0.74672729250E+01 -0.24374692013E+01  0.15539514046E+02  0.17412004999E+02  0.51100000000E-03 0. -1.
        -11    1    3    3    0    0  0.50157394934E+01 -0.17792729744E+02  0.13418477707E+01  0.18534816700E+02  0.51100000000E-03 0.  1.
        -12    1    3    3    0    0 -0.48899494763E+01 -0.11711338883E+02  0.71811680769E+01  0.14582051957E+02  0.00000000000E+00 0.  1.
</event>
<event>
 7    1  0.5849044E-013  0.5052886E+02  0.7816164E-02  0.1300439E+00
        -11   -1    0    0    0    0  0.00000000000E+00  0.00000000000E+00  0.45593999997E+02  0.45594000000E+02  0.51100000000E-03 0. -1.
         11   -1    0    0    0    0 -0.00000000000E+00 -0.00000000000E+00 -0.45593999997E+02  0.45594000000E+02  0.51100000000E-03 0.  1.
    9900012    2    1    2    0    0 -0.91678615540E+01  0.15109524840E+02 -0.36617190551E+02  0.50528855023E+02  0.29999985329E+02 0.  0.
         12    1    1    2    0    0  0.91678615540E+01 -0.15109524840E+02  0.36617190551E+02  0.40659144977E+02  0.00000000000E+00 0. -1.
         11    1    3    3    0    0 -0.52428818479E+01 -0.62264313969E+00  0.23937499774E+01  0.57970280114E+01  0.51100000000E-03 0. -1.
        -11    1    3    3    0    0 -0.63841309872E+00  0.15043847638E+02 -0.18060352286E+02  0.23513852257E+02  0.51100000000E-03 0.  1.
        -12    1    3    3    0    0 -0.32865666075E+01  0.68832034183E+00 -0.20950588243E+02  0.21217974755E+02  0.00000000000E+00 0.  1.
</event>
<event>
 7    1  0.5849044E-013  0.5052886E+02  0.7816164E-02  0.1300439E+00
        -11   -1    0    0    0    0  0.00000000000E+00  0.00000000000E+00  0.45593999997E+02  0.45594000000E+02  0.51100000000E-03 0.  1.
         11   -1    0    0    0    0 -0.00000000000E+00 -0.00000000000E+00 -0.45593999997E+02  0.45594000000E+02  0.51100000000E-03 0. -1.
    9900012    2    1    2    0    0 -0.38210373089E+02  0.10031456420E+02  0.96178560804E+01  0.50528857300E+02  0.29999992250E+02 0.  0.
         12    1    1    2    0    0  0.38210373089E+02 -0.10031456420E+02 -0.96178560804E+01  0.40659142700E+02  0.00000000000E+00 0. -1.
         11    1    3    3    0    0 -0.34518896123E+02  0.17487886770E+01  0.12931978165E+01  0.34587350466E+02  0.51100000000E-03 0. -1.
        -11    1    3    3    0    0 -0.32546678847E+01  0.73706107031E+01  0.10679921891E+02  0.13378321907E+02  0.51100000000E-03 0.  1.
         12    1    3    3    0    0 -0.43680908061E+00  0.91205703941E+00 -0.23552636275E+01  0.25631849272E+01  0.00000000000E+00 0. -1.
</event>
<event>
 7    1  0.5849044E-013  0.5052886E+02  0.7816164E-02  0.1300439E+00
        -11   -1    0    0    0    0  0.00000000000E+00  0.00000000000E+00  0.45593999997E+02  0.45594000000E+02  0.51100000000E-03 0.  1.
         11   -1    0    0    0    0 -0.00000000000E+00 -0.00000000000E+00 -0.45593999997E+02  0.45594000000E+02  0.51100000000E-03 0. -1.
    9900012    2    1    2    0    0 -0.13419057493E+02  0.21212687283E+02  0.31986186779E+02  0.50528863876E+02  0.30000012236E+02 0.  0.
         12    1    1    2    0    0  0.13419057493E+02 -0.21212687283E+02 -0.31986186779E+02  0.40659136124E+02  0.00000000000E+00 0. -1.
         11    1    3    3    0    0 -0.25735176191E+01 -0.12978362672E+01 -0.44982264878E+01  0.53424164672E+01  0.51100000000E-03 0. -1.
        -11    1    3    3    0    0 -0.24832937636E+01  0.11078877431E+02  0.22905983438E+02  0.25565452286E+02  0.51100000000E-03 0.  1.
         12    1    3    3    0    0 -0.83622461100E+01  0.11431646119E+02  0.13578429828E+02  0.19620995122E+02  0.00000000000E+00 0. -1.
</event>
<event>
 7    1  0.5849044E-013  0.5052888E+02  0.7816164E-02  0.1300439E+00
        -11   -1    0    0    0    0  0.00000000000E+00  0.00000000000E+00  0.45593999997E+02  0.45594000000E+02  0.51100000000E-03 0.  1.
         11   -1    0    0    0    0 -0.00000000000E+00 -0.00000000000E+00 -0.45593999997E+02  0.45594000000E+02  0.51100000000E-03 0. -1.
    9900012    2    1    2    0    0  0.60844861387E+01 -0.25053810866E+02  0.31439622752E+02  0.50528876925E+02  0.30000051900E+02 0.  0.
         12    1    1    2    0    0 -0.60844861387E+01  0.25053810866E+02 -0.31439622752E+02  0.40659123075E+02  0.00000000000E+00 0. -1.
         11    1    3    3    0    0  0.78659046059E+01 -0.26876391770E+01 -0.34459205772E+01  0.89983458758E+01  0.51100000000E-03 0. -1.
        -11    1    3    3    0    0 -0.17208307077E+01 -0.96202802263E+01  0.14390821065E+02  0.17395596602E+02  0.51100000000E-03 0.  1.
         12    1    3    3    0    0 -0.60587759478E-01 -0.12745891462E+02  0.20494722264E+02  0.24134934447E+02  0.00000000000E+00 0. -1.
</event>
<event>
 7    1  0.5849044E-013  0.5052886E+02  0.7816164E-02  0.1300439E+00
        -11   -1    0    0    0    0  0.00000000000E+00  0.00000000000E+00  0.45593999997E+02  0.45594000000E+02  0.51100000000E-03 0.  1.
         11   -1    0    0    0    0 -0.00000000000E+00 -0.00000000000E+00 -0.45593999997E+02  0.45594000000E+02  0.51100000000E-03 0. -1.
    9900012    2    1    2    0    0 -0.15220534859E+02  0.50253322211E+01  0.37366389424E+02  0.50528859528E+02  0.29999999022E+02 0.  0.
         12    1    1    2    0    0  0.15220534859E+02 -0.50253322211E+01 -0.37366389424E+02  0.40659140472E+02  0.00000000000E+00 0. -1.
         11    1    3    3    0    0 -0.76548864314E+00  0.10960833991E+01 -0.35278649846E+01  0.37726917833E+01  0.51100000000E-03 0. -1.
        -11    1    3    3    0    0 -0.17096047068E+02  0.62113717436E+01  0.38324013222E+02  0.42421527012E+02  0.51100000000E-03 0.  1.
        -12    1    3    3    0    0  0.26410008520E+01 -0.22821229216E+01  0.25702411861E+01  0.43346407330E+01  0.00000000000E+00 0.  1.
</event>
<event>
 7    1  0.5849044E-013  0.5052886E+02  0.7816164E-02  0.1300439E+00
        -11   -1    0    0    0    0  0.00000000000E+00  0.00000000000E+00  0.45593999997E+02  0.45594000000E+02  0.51100000000E-03 0.  1.
         11   -1    0    0    0    0 -0.00000000000E+00 -0.00000000000E+00 -0.45593999997E+02  0.45594000000E+02  0.51100000000E-03 0. -1.
    9900012    2    1    2    0    0 -0.16196350693E+01  0.28732106714E+02  0.28722962345E+02  0.50528859086E+02  0.29999997677E+02 0.  0.
         12    1    1    2    0    0  0.16196350693E+01 -0.28732106714E+02 -0.28722962345E+02  0.40659140914E+02  0.00000000000E+00 0. -1.
         11    1    3    3    0    0  0.20015763839E+00  0.87412577737E+01 -0.18131898279E+01  0.89295749148E+01  0.51100000000E-03 0. -1.
        -11    1    3    3    0    0 -0.72790146460E+01  0.11458945296E+01  0.14479919501E+02  0.16247005801E+02  0.51100000000E-03 0.  1.
        -12    1    3    3    0    0  0.54592219383E+01  0.18844954411E+02  0.16056232672E+02  0.25352278370E+02  0.00000000000E+00 0.  1.
</event>
<event>
 7    1  0.5849044E-013  0.5052886E+02  0.7816164E-02  0.1300439E+00
        -11   -1    0    0    0    0  0.00000000000E+00  0.00000000000E+00  0.45593999997E+02  0.45594000000E+02  0.51100000000E-03 0. -1.
         11   -1    0    0    0    0 -0.00000000000E+00 -0.00000000000E+00 -0.45593999997E+02  0.45594000000E+02  0.51100000000E-03 0.  1.
    9900012    2    1    2    0    0  0.18834852624E+02  0.16867370241E+01 -0.35994008358E+02  0.50528863354E+02  0.30000010651E+02 0.  0.
         12    1    1    2    0    0 -0.18834852624E+02 -0.16867370241E+01  0.35994008358E+02  0.40659136646E+02  0.00000000000E+00 0. -1.
         11    1    3    3    0    0  0.78198325485E+00 -0.60502997019E+01  0.28094071236E+01  0.67164270964E+01  0.51100000000E-03 0. -1.
        -11    1    3    3    0    0  0.10195631890E+02  0.70952983761E+01 -0.25022303265E+02  0.27935816251E+02  0.51100000000E-03 0.  1.
         12    1    3    3    0    0  0.78572374791E+01  0.64173834990E+00 -0.13781112217E+02  0.15876620007E+02  0.00000000000E+00 0. -1.
</event>
<event>
 7    1  0.5849044E-013  0.5052886E+02  0.7816164E-02  0.1300439E+00
        -11   -1    0    0    0    0  0.00000000000E+00  0.00000000000E+00  0.45593999997E+02  0.45594000000E+02  0.51100000000E-03 0.  1.
         11   -1    0    0    0    0 -0.00000000000E+00 -0.00000000000E+00 -0.45593999997E+02  0.45594000000E+02  0.51100000000E-03 0. -1.
    9900012    2    1    2    0    0  0.12345498065E+02 -0.26858706421E+02  0.27917099930E+02  0.50528857097E+02  0.29999991633E+02 0.  0.
         12    1    1    2    0    0 -0.12345498065E+02  0.26858706421E+02 -0.27917099930E+02  0.40659142903E+02  0.00000000000E+00 0. -1.
         11    1    3    3    0    0  0.42346121621E+01 -0.28416514737E+01 -0.43495556963E+01  0.67026530775E+01  0.51100000000E-03 0. -1.
        -11    1    3    3    0    0  0.10551254494E+02 -0.19764410365E+02  0.17996915825E+02  0.28737603726E+02  0.51100000000E-03 0.  1.
        -12    1    3    3    0    0 -0.24403685917E+01 -0.42526445826E+01  0.14269739801E+02  0.15088600293E+02  0.00000000000E+00 0.  1.
</event>
<event>
 7    1  0.5849044E-013  0.5052884E+02  0.7816164E-02  0.1300439E+00
        -11   -1    0    0    0    0  0.00000000000E+00  0.00000000000E+00  0.45593999997E+02  0.45594000000E+02  0.51100000000E-03 0.  1.
         11   -1    0    0    0    0 -0.00000000000E+00 -0.00000000000E+00 -0.45593999997E+02  0.45594000000E+02  0.51100000000E-03 0. -1.
    9900012    2    1    2    0    0 -0.22998744497E+02  0.55624887292E+01  0.33064841931E+02  0.50528839885E+02  0.29999939315E+02 0.  0.
         12    1    1    2    0    0  0.22998744497E+02 -0.55624887292E+01 -0.33064841931E+02  0.40659160115E+02  0.00000000000E+00 0. -1.
         11    1    3    3    0    0 -0.43896558905E+01  0.88855722917E+01  0.16241212098E+01  0.10042920081E+02  0.51100000000E-03 0. -1.
        -11    1    3    3    0    0 -0.14290188460E+02 -0.69365619435E+01  0.31005791002E+02  0.34837974306E+02  0.51100000000E-03 0.  1.
        -12    1    3    3    0    0 -0.43189001469E+01  0.36134783810E+01  0.43492971926E+00  0.56479454981E+01  0.00000000000E+00 0.  1.
</event>
<event>
 7    1  0.5849044E-013  0.5052885E+02  0.7816164E-02  0.1300439E+00
        -11   -1    0    0    0    0  0.00000000000E+00  0.00000000000E+00  0.45593999997E+02  0.45594000000E+02  0.51100000000E-03 0.  1.
         11   -1    0    0    0    0 -0.00000000000E+00 -0.00000000000E+00 -0.45593999997E+02  0.45594000000E+02  0.51100000000E-03 0. -1.
    9900012    2    1    2    0    0  0.38845470512E+02 -0.96876841627E+01  0.70953825543E+01  0.50528852722E+02  0.29999978334E+02 0.  0.
         12    1    1    2    0    0 -0.38845470512E+02  0.96876841627E+01 -0.70953825543E+01  0.40659147278E+02  0.00000000000E+00 0. -1.
         11    1    3    3    0    0  0.26397961728E+01  0.15530885743E+01 -0.36283107501E+00  0.30841943200E+01  0.51100000000E-03 0. -1.
        -11    1    3    3    0    0  0.35668894152E+02 -0.25313229813E+01  0.11856361269E+02  0.37672946645E+02  0.51100000000E-03 0.  1.
        -12    1    3    3    0    0  0.53678018713E+00 -0.87094497557E+01 -0.43981476392E+01  0.97717117576E+01  0.00000000000E+00 0.  1.
</event>
<event>
 7    1  0.5849044E-013  0.5052895E+02  0.7816164E-02  0.1300438E+00
        -11   -1    0    0    0    0  0.00000000000E+00  0.00000000000E+00  0.45593999997E+02  0.45594000000E+02  0.51100000000E-03 0.  1.
         11   -1    0    0    0    0 -0.00000000000E+00 -0.00000000000E+00 -0.45593999997E+02  0.45594000000E+02  0.51100000000E-03 0. -1.
    9900012    2    1    2    0    0 -0.13127838139E+02  0.37235219965E+02  0.97137304365E+01  0.50528950588E+02  0.30000275807E+02 0.  0.
         12    1    1    2    0    0  0.13127838139E+02 -0.37235219965E+02 -0.97137304365E+01  0.40659049412E+02  0.00000000000E+00 0. -1.
         11    1    3    3    0    0 -0.45649025588E-01  0.95017415904E+01 -0.49448429782E+01  0.10711519473E+02  0.51100000000E-03 0. -1.
        -11    1    3    3    0    0 -0.13556521312E+02  0.96716753602E+01  0.13969414140E+02  0.21736262467E+02  0.51100000000E-03 0.  1.
        -12    1    3    3    0    0  0.47433219785E+00  0.18061803015E+02  0.68915927439E+00  0.18081168648E+02  0.00000000000E+00 0.  1.
</event>
<event>
 7    1  0.5849044E-013  0.5052885E+02  0.7816164E-02  0.1300439E+00
        -11   -1    0    0    0    0  0.00000000000E+00  0.00000000000E+00  0.45593999997E+02  0.45594000000E+02  0.51100000000E-03 0.  1.
         11   -1    0    0    0    0 -0.00000000000E+00 -0.00000000000E+00 -0.45593999997E+02  0.45594000000E+02  0.51100000000E-03 0. -1.
    9900012    2    1    2    0    0 -0.29807424443E+02 -0.35765713820E+01  0.27420646911E+02  0.50528852299E+02  0.29999977047E+02 0.  0.
         12    1    1    2    0    0  0.29807424443E+02  0.35765713820E+01 -0.27420646911E+02  0.40659147701E+02  0.00000000000E+00 0. -1.
         11    1    3    3    0    0 -0.21012452554E+01  0.94015796153E+01  0.62393827916E+01  0.11477579395E+02  0.51100000000E-03 0. -1.
        -11    1    3    3    0    0 -0.23154321204E+02 -0.12525351214E+02  0.22116456261E+02  0.34382330510E+02  0.51100000000E-03 0.  1.
        -12    1    3    3    0    0 -0.45518579829E+01 -0.45279978298E+00 -0.93519214095E+00  0.46689423942E+01  0.00000000000E+00 0.  1.
</event>
<event>
 7    1  0.5849044E-013  0.5052886E+02  0.7816164E-02  0.1300439E+00
        -11   -1    0    0    0    0  0.00000000000E+00  0.00000000000E+00  0.45593999997E+02  0.45594000000E+02  0.51100000000E-03 0.  1.
         11   -1    0    0    0    0 -0.00000000000E+00 -0.00000000000E+00 -0.45593999997E+02  0.45594000000E+02  0.51100000000E-03 0. -1.
    9900012    2    1    2    0    0  0.15730283470E+02  0.15669084658E+02  0.34061760899E+02  0.50528860959E+02  0.30000003370E+02 0.  0.
         12    1    1    2    0    0 -0.15730283470E+02 -0.15669084658E+02 -0.34061760899E+02  0.40659139041E+02  0.00000000000E+00 0. -1.
         11    1    3    3    0    0  0.91694007427E+00 -0.62577613559E+00 -0.21185666694E+01  0.23917984584E+01  0.51100000000E-03 0. -1.
        -11    1    3    3    0    0  0.21024155309E+02  0.13035467859E+02  0.28218962036E+02  0.37526635173E+02  0.51100000000E-03 0.  1.
        -12    1    3    3    0    0 -0.62108119137E+01  0.32593929353E+01  0.79613655319E+01  0.10610427327E+02  0.00000000000E+00 0.  1.
</event>
<event>
 7    1  0.5849044E-013  0.5052887E+02  0.7816164E-02  0.1300439E+00
        -11   -1    0    0    0    0  0.00000000000E+00  0.00000000000E+00  0.45593999997E+02  0.45594000000E+02  0.51100000000E-03 0.  1.
         11   -1    0    0    0    0 -0.00000000000E+00 -0.00000000000E+00 -0.45593999997E+02  0.45594000000E+02  0.51100000000E-03 0. -1.
    9900012    2    1    2    0    0  0.32332123427E+02  0.22974227460E+02 -0.89433654349E+01  0.50528866734E+02  0.30000020925E+02 0.  0.
         12    1    1    2    0    0 -0.32332123427E+02 -0.22974227460E+02  0.89433654349E+01  0.40659133266E+02  0.00000000000E+00 0. -1.
         11    1    3    3    0    0  0.37694753807E+01  0.19310085832E+01 -0.95439565435E+00  0.43414986030E+01  0.51100000000E-03 0. -1.
        -11    1    3    3    0    0  0.15538614326E+02 -0.22120133702E+01 -0.11284003461E+02  0.19330552829E+02  0.51100000000E-03 0.  1.
        -12    1    3    3    0    0  0.13024033720E+02  0.23255232247E+02  0.32950336804E+01  0.26856815302E+02  0.00000000000E+00 0.  1.
</event>
<event>
 7    1  0.5849044E-013  0.5052885E+02  0.7816164E-02  0.1300439E+00
        -11   -1    0    0    0    0  0.00000000000E+00  0.00000000000E+00  0.45593999997E+02  0.45594000000E+02  0.51100000000E-03 0.  1.
         11   -1    0    0    0    0 -0.00000000000E+00 -0.00000000000E+00 -0.45593999997E+02  0.45594000000E+02  0.51100000000E-03 0. -1.
    9900012    2    1    2    0    0 -0.15710936426E+02 -0.35539538065E+02  0.11969721192E+02  0.50528849558E+02  0.29999968716E+02 0.  0.
         12    1    1    2    0    0  0.15710936426E+02  0.35539538065E+02 -0.11969721192E+02  0.40659150442E+02  0.00000000000E+00 0. -1.
         11    1    3    3    0    0 -0.55060920431E+00 -0.19378725843E+02 -0.90650157810E+00  0.19407728645E+02  0.51100000000E-03 0. -1.
        -11    1    3    3    0    0 -0.11391700036E+02  0.21231134221E+00  0.37121735864E+01  0.11983160636E+02  0.51100000000E-03 0.  1.
        -12    1    3    3    0    0 -0.37686271849E+01 -0.16373123564E+02  0.91640491841E+01  0.19137960277E+02  0.00000000000E+00 0.  1.
</event>
<event>
 7    1  0.5849044E-013  0.5052886E+02  0.7816164E-02  0.1300439E+00
        -11   -1    0    0    0    0  0.00000000000E+00  0.00000000000E+00  0.45593999997E+02  0.45594000000E+02  0.51100000000E-03 0.  1.
         11   -1    0    0    0    0 -0.00000000000E+00 -0.00000000000E+00 -0.45593999997E+02  0.45594000000E+02  0.51100000000E-03 0. -1.
    9900012    2    1    2    0    0 -0.67862383477E+01 -0.32467652647E+01  0.39957115720E+02  0.50528860656E+02  0.30000002449E+02 0.  0.
         12    1    1    2    0    0  0.67862383477E+01  0.32467652647E+01 -0.39957115720E+02  0.40659139344E+02  0.00000000000E+00 0. -1.
         11    1    3    3    0    0  0.34700187775E+01 -0.28359458041E+01 -0.26530627987E+01  0.52079133437E+01  0.51100000000E-03 0. -1.
        -11    1    3    3    0    0 -0.14794279354E+01  0.48506429501E+01  0.17058370476E+02  0.17796220037E+02  0.51100000000E-03 0.  1.
         12    1    3    3    0    0 -0.87768291898E+01 -0.52614624106E+01  0.25551808042E+02  0.27524727275E+02  0.00000000000E+00 0. -1.
</event>
<event>
 7    1  0.5849044E-013  0.5052886E+02  0.7816164E-02  0.1300439E+00
        -11   -1    0    0    0    0  0.00000000000E+00  0.00000000000E+00  0.45593999997E+02  0.45594000000E+02  0.51100000000E-03 0.  1.
         11   -1    0    0    0    0 -0.00000000000E+00 -0.00000000000E+00 -0.45593999997E+02  0.45594000000E+02  0.51100000000E-03 0. -1.
    9900012    2    1    2    0    0  0.33962280878E+02 -0.27445971179E+01  0.22185505282E+02  0.50528856128E+02  0.29999988687E+02 0.  0.
         12    1    1    2    0    0 -0.33962280878E+02  0.27445971179E+01 -0.22185505282E+02  0.40659143872E+02  0.00000000000E+00 0. -1.
         11    1    3    3    0    0 -0.16635874279E+01 -0.48157590391E+00  0.81325272674E+01  0.83148925728E+01  0.51100000000E-03 0. -1.
        -11    1    3    3    0    0  0.35919217553E+02 -0.16741831940E+01  0.89320778261E+01  0.37050979657E+02  0.51100000000E-03 0.  1.
        -12    1    3    3    0    0 -0.29334924700E+00 -0.58883802002E+00  0.51209001880E+01  0.51629838979E+01  0.00000000000E+00 0.  1.
</event>
<event>
 7    1  0.5849044E-013  0.5052886E+02  0.7816164E-02  0.1300439E+00
        -11   -1    0    0    0    0  0.00000000000E+00  0.00000000000E+00  0.45593999997E+02  0.45594000000E+02  0.51100000000E-03 0.  1.
         11   -1    0    0    0    0 -0.00000000000E+00 -0.00000000000E+00 -0.45593999997E+02  0.45594000000E+02  0.51100000000E-03 0. -1.
    9900012    2    1    2    0    0  0.26373246257E+02  0.17514595387E+02  0.25511885141E+02  0.50528862612E+02  0.30000008395E+02 0.  0.
         12    1    1    2    0    0 -0.26373246257E+02 -0.17514595387E+02 -0.25511885141E+02  0.40659137388E+02  0.00000000000E+00 0. -1.
         11    1    3    3    0    0  0.41574943102E+01  0.11365809918E+02  0.40065422399E+01  0.12748285179E+02  0.51100000000E-03 0. -1.
        -11    1    3    3    0    0  0.51318154289E+01 -0.69209334335E+01  0.22350806310E+01  0.89011479527E+01  0.51100000000E-03 0.  1.
        -12    1    3    3    0    0  0.17083936517E+02  0.13069718903E+02  0.19270262270E+02  0.28879429480E+02  0.00000000000E+00 0.  1.
</event>
<event>
 7    1  0.5849044E-013  0.5052887E+02  0.7816164E-02  0.1300439E+00
        -11   -1    0    0    0    0  0.00000000000E+00  0.00000000000E+00  0.45593999997E+02  0.45594000000E+02  0.51100000000E-03 0.  1.
         11   -1    0    0    0    0 -0.00000000000E+00 -0.00000000000E+00 -0.45593999997E+02  0.45594000000E+02  0.51100000000E-03 0. -1.
    9900012    2    1    2    0    0  0.36473055257E+02 -0.76686294846E+01 -0.16250337316E+02  0.50528866944E+02  0.30000021564E+02 0.  0.
         12    1    1    2    0    0 -0.36473055257E+02  0.76686294846E+01  0.16250337316E+02  0.40659133056E+02  0.00000000000E+00 0. -1.
         11    1    3    3    0    0  0.54708510304E+01 -0.36257076599E+01 -0.64552716246E+00  0.65948974677E+01  0.51100000000E-03 0. -1.
        -11    1    3    3    0    0 -0.37703407226E+01  0.34117082106E+01 -0.41765065993E+01  0.65801542318E+01  0.51100000000E-03 0.  1.
        -12    1    3    3    0    0  0.34772544949E+02 -0.74546300354E+01 -0.11428303554E+02  0.37353815245E+02  0.00000000000E+00 0.  1.
</event>
<event>
 7    1  0.5849044E-013  0.5052885E+02  0.7816164E-02  0.1300439E+00
        -11   -1    0    0    0    0  0.00000000000E+00  0.00000000000E+00  0.45593999997E+02  0.45594000000E+02  0.51100000000E-03 0.  1.
         11   -1    0    0    0    0 -0.00000000000E+00 -0.00000000000E+00 -0.45593999997E+02  0.45594000000E+02  0.51100000000E-03 0. -1.
    9900012    2    1    2    0    0 -0.22747693218E+02 -0.32368657548E+02  0.93796955055E+01  0.50528853108E+02  0.29999979507E+02 0.  0.
         12    1    1    2    0    0  0.22747693218E+02  0.32368657548E+02 -0.93796955055E+01  0.40659146892E+02  0.00000000000E+00 0. -1.
         11    1    3    3    0    0 -0.25839744402E+02 -0.21817458695E+02  0.56435603324E+01  0.34286202300E+02  0.51100000000E-03 0. -1.
        -11    1    3    3    0    0  0.78269398989E+00 -0.63172374452E+01  0.77066933741E+01  0.99956601505E+01  0.51100000000E-03 0.  1.
         12    1    3    3    0    0  0.23093571935E+01 -0.42339614080E+01 -0.39705582010E+01  0.62469906579E+01  0.00000000000E+00 0. -1.
</event>
<event>
 7    1  0.5849044E-013  0.5052886E+02  0.7816164E-02  0.1300439E+00
        -11   -1    0    0    0    0  0.00000000000E+00  0.00000000000E+00  0.45593999997E+02  0.45594000000E+02  0.51100000000E-03 0.  1.
         11   -1    0    0    0    0 -0.00000000000E+00 -0.00000000000E+00 -0.45593999997E+02  0.45594000000E+02  0.51100000000E-03 0. -1.
    9900012    2    1    2    0    0  0.14289478151E+02 -0.30335160851E+02  0.22994656582E+02  0.50528863253E+02  0.30000010343E+02 0.  0.
         12    1    1    2    0    0 -0.14289478151E+02  0.30335160851E+02 -0.22994656582E+02  0.40659136747E+02  0.00000000000E+00 0. -1.
         11    1    3    3    0    0  0.63736628274E+01 -0.69519166207E+00  0.11864260436E+02  0.13485827570E+02  0.51100000000E-03 0. -1.
        -11    1    3    3    0    0  0.94475413571E+01 -0.31516001537E+02  0.10168355068E+02  0.34437041621E+02  0.51100000000E-03 0.  1.
         12    1    3    3    0    0 -0.15317260333E+01  0.18760323482E+01  0.96204107854E+00  0.26059940616E+01  0.00000000000E+00 0. -1.
</event>
<event>
 7    1  0.5849044E-013  0.5052886E+02  0.7816164E-02  0.1300439E+00
        -11   -1    0    0    0    0  0.00000000000E+00  0.00000000000E+00  0.45593999997E+02  0.45594000000E+02  0.51100000000E-03 0.  1.
         11   -1    0    0    0    0 -0.00000000000E+00 -0.00000000000E+00 -0.45593999997E+02  0.45594000000E+02  0.51100000000E-03 0. -1.
    9900012    2    1    2    0    0  0.26191893214E+02  0.13538315800E+02  0.27997574544E+02  0.50528862710E+02  0.30000008693E+02 0.  0.
         12    1    1    2    0    0 -0.26191893214E+02 -0.13538315800E+02 -0.27997574544E+02  0.40659137290E+02  0.00000000000E+00 0. -1.
         11    1    3    3    0    0  0.12658569534E+02  0.20933500975E+02  0.17144883386E+02  0.29873029179E+02  0.51100000000E-03 0. -1.
        -11    1    3    3    0    0  0.83598381030E+01 -0.63540627228E+01  0.11218383693E+02  0.15365973420E+02  0.51100000000E-03 0.  1.
         12    1    3    3    0    0  0.51734855763E+01 -0.10411224524E+01 -0.36569253481E+00  0.52898601115E+01  0.00000000000E+00 0. -1.
</event>
<event>
 7    1  0.5849044E-013  0.5052882E+02  0.7816164E-02  0.1300439E+00
        -11   -1    0    0    0    0  0.00000000000E+00  0.00000000000E+00  0.45593999997E+02  0.45594000000E+02  0.51100000000E-03 0.  1.
         11   -1    0    0    0    0 -0.00000000000E+00 -0.00000000000E+00 -0.45593999997E+02  0.45594000000E+02  0.51100000000E-03 0. -1.
    9900012    2    1    2    0    0  0.57989921516E+01 -0.34504499143E+02  0.20711827699E+02  0.50528824188E+02  0.29999891601E+02 0.  0.
         12    1    1    2    0    0 -0.57989921516E+01  0.34504499143E+02 -0.20711827699E+02  0.40659175812E+02  0.00000000000E+00 0. -1.
         11    1    3    3    0    0 -0.50087889772E+01 -0.93984855168E+01  0.18128348526E+02  0.21025140132E+02  0.51100000000E-03 0. -1.
        -11    1    3    3    0    0  0.61894929163E+00 -0.14259813580E+02  0.31299005907E+01  0.14612380352E+02  0.51100000000E-03 0.  1.
         12    1    3    3    0    0  0.10188831837E+02 -0.10846200046E+02 -0.54642141766E+00  0.14891303704E+02  0.00000000000E+00 0. -1.
</event>
<event>
 7    1  0.5849044E-013  0.5052887E+02  0.7816164E-02  0.1300439E+00
        -11   -1    0    0    0    0  0.00000000000E+00  0.00000000000E+00  0.45593999997E+02  0.45594000000E+02  0.51100000000E-03 0.  1.
         11   -1    0    0    0    0 -0.00000000000E+00 -0.00000000000E+00 -0.45593999997E+02  0.45594000000E+02  0.51100000000E-03 0. -1.
    9900012    2    1    2    0    0 -0.22020812644E+02  0.22066140645E+02  0.26102370409E+02  0.50528874414E+02  0.30000044267E+02 0.  0.
         12    1    1    2    0    0  0.22020812644E+02 -0.22066140645E+02 -0.26102370409E+02  0.40659125586E+02  0.00000000000E+00 0. -1.
         11    1    3    3    0    0  0.72964226222E+00  0.17191509113E+01 -0.41122842606E+01  0.45164964063E+01  0.51100000000E-03 0. -1.
        -11    1    3    3    0    0 -0.17105030010E+02  0.20768572854E+02  0.30069179855E+02  0.40349364895E+02  0.51100000000E-03 0.  1.
        -12    1    3    3    0    0 -0.56454248963E+01 -0.42158311993E+00  0.14547481473E+00  0.56630131121E+01  0.00000000000E+00 0.  1.
</event>
<event>
 7    1  0.5849044E-013  0.5052887E+02  0.7816164E-02  0.1300439E+00
        -11   -1    0    0    0    0  0.00000000000E+00  0.00000000000E+00  0.45593999997E+02  0.45594000000E+02  0.51100000000E-03 0.  1.
         11   -1    0    0    0    0 -0.00000000000E+00 -0.00000000000E+00 -0.45593999997E+02  0.45594000000E+02  0.51100000000E-03 0. -1.
    9900012    2    1    2    0    0  0.29473330144E+02 -0.18175951614E+02  0.21310146747E+02  0.50528871121E+02  0.30000034258E+02 0.  0.
         12    1    1    2    0    0 -0.29473330144E+02  0.18175951614E+02 -0.21310146747E+02  0.40659128879E+02  0.00000000000E+00 0. -1.
         11    1    3    3    0    0  0.96877506552E+01  0.46483970197E+01  0.30356892360E+01  0.11165819137E+02  0.51100000000E-03 0. -1.
        -11    1    3    3    0    0 -0.95877654941E+00 -0.10564785753E+02  0.38840233046E+01  0.11296883985E+02  0.51100000000E-03 0.  1.
        -12    1    3    3    0    0  0.20744356038E+02 -0.12259562881E+02  0.14390434206E+02  0.28066167998E+02  0.00000000000E+00 0.  1.
</event>
<event>
 7    1  0.5849044E-013  0.5052886E+02  0.7816164E-02  0.1300439E+00
        -11   -1    0    0    0    0  0.00000000000E+00  0.00000000000E+00  0.45593999997E+02  0.45594000000E+02  0.51100000000E-03 0.  1.
         11   -1    0    0    0    0 -0.00000000000E+00 -0.00000000000E+00 -0.45593999997E+02  0.45594000000E+02  0.51100000000E-03 0. -1.
    9900012    2    1    2    0    0 -0.41936537242E+01 -0.85969937992E+01  0.39517976576E+02  0.50528861954E+02  0.30000006397E+02 0.  0.
         12    1    1    2    0    0  0.41936537242E+01  0.85969937992E+01 -0.39517976576E+02  0.40659138046E+02  0.00000000000E+00 0. -1.
         11    1    3    3    0    0 -0.28408512428E+01  0.43580272113E+01  0.96836842146E+01  0.10992569180E+02  0.51100000000E-03 0. -1.
        -11    1    3    3    0    0  0.85380371879E+01 -0.24074819382E+01  0.35851654408E+01  0.95680436769E+01  0.51100000000E-03 0.  1.
        -12    1    3    3    0    0 -0.98908396692E+01 -0.10547539072E+02  0.26249126921E+02  0.29968249097E+02  0.00000000000E+00 0.  1.
</event>
<event>
 7    1  0.5849044E-013  0.5052886E+02  0.7816164E-02  0.1300439E+00
        -11   -1    0    0    0    0  0.00000000000E+00  0.00000000000E+00  0.45593999997E+02  0.45594000000E+02  0.51100000000E-03 0.  1.
         11   -1    0    0    0    0 -0.00000000000E+00 -0.00000000000E+00 -0.45593999997E+02  0.45594000000E+02  0.51100000000E-03 0. -1.
    9900012    2    1    2    0    0 -0.20525205044E+02  0.88772253343E+01  0.33956982679E+02  0.50528857800E+02  0.29999993770E+02 0.  0.
         12    1    1    2    0    0  0.20525205044E+02 -0.88772253343E+01 -0.33956982679E+02  0.40659142200E+02  0.00000000000E+00 0. -1.
         11    1    3    3    0    0 -0.88767353852E+01  0.48451651870E+01 -0.31716570327E+01  0.10598653942E+02  0.51100000000E-03 0. -1.
        -11    1    3    3    0    0 -0.39611223400E+01  0.95223716523E+00  0.24446773403E+02  0.24783905582E+02  0.51100000000E-03 0.  1.
        -12    1    3    3    0    0 -0.76873473191E+01  0.30798229821E+01  0.12681866308E+02  0.15146298276E+02  0.00000000000E+00 0.  1.
</event>
<event>
 7    1  0.5849044E-013  0.5052886E+02  0.7816164E-02  0.1300439E+00
        -11   -1    0    0    0    0  0.00000000000E+00  0.00000000000E+00  0.45593999997E+02  0.45594000000E+02  0.51100000000E-03 0.  1.
         11   -1    0    0    0    0 -0.00000000000E+00 -0.00000000000E+00 -0.45593999997E+02  0.45594000000E+02  0.51100000000E-03 0. -1.
    9900012    2    1    2    0    0  0.10004997141E+02  0.31024413839E+01  0.39286649254E+02  0.50528856872E+02  0.29999990947E+02 0.  0.
         12    1    1    2    0    0 -0.10004997141E+02 -0.31024413839E+01 -0.39286649254E+02  0.40659143128E+02  0.00000000000E+00 0. -1.
         11    1    3    3    0    0  0.76844260613E+01  0.16318430628E+00  0.37566922548E+02  0.38345152275E+02  0.51100000000E-03 0. -1.
        -11    1    3    3    0    0  0.59137017521E+01 -0.94514551677E+00  0.30599215645E+01  0.67251980419E+01  0.51100000000E-03 0.  1.
         12    1    3    3    0    0 -0.35931306720E+01  0.38844025944E+01 -0.13401948590E+01  0.54585065541E+01  0.00000000000E+00 0. -1.
</event>
<event>
 7    1  0.5849044E-013  0.5052886E+02  0.7816164E-02  0.1300439E+00
        -11   -1    0    0    0    0  0.00000000000E+00  0.00000000000E+00  0.45593999997E+02  0.45594000000E+02  0.51100000000E-03 0. -1.
         11   -1    0    0    0    0 -0.00000000000E+00 -0.00000000000E+00 -0.45593999997E+02  0.45594000000E+02  0.51100000000E-03 0.  1.
    9900012    2    1    2    0    0 -0.26483766006E+02 -0.28157872254E+02  0.12605949570E+02  0.50528860852E+02  0.30000003045E+02 0.  0.
         12    1    1    2    0    0  0.26483766006E+02  0.28157872254E+02 -0.12605949570E+02  0.40659139148E+02  0.00000000000E+00 0. -1.
         11    1    3    3    0    0 -0.21360832392E+02 -0.19353454065E+02  0.56190871901E+01  0.29366911412E+02  0.51100000000E-03 0. -1.
        -11    1    3    3    0    0 -0.75430429672E+01  0.27950311556E+01  0.37699087762E+01  0.88838003583E+01  0.51100000000E-03 0.  1.
         12    1    3    3    0    0  0.24201093540E+01 -0.11599449345E+02  0.32169536035E+01  0.12278149082E+02  0.00000000000E+00 0. -1.
</event>
<event>
 7    1  0.5849044E-013  0.5052886E+02  0.7816164E-02  0.1300439E+00
        -11   -1    0    0    0    0  0.00000000000E+00  0.00000000000E+00  0.45593999997E+02  0.45594000000E+02  0.51100000000E-03 0. -1.
         11   -1    0    0    0    0 -0.00000000000E+00 -0.00000000000E+00 -0.45593999997E+02  0.45594000000E+02  0.51100000000E-03 0.  1.
    9900012    2    1    2    0    0 -0.25477255059E+02  0.19772169817E+02 -0.24761589620E+02  0.50528861481E+02  0.30000004957E+02 0.  0.
         12    1    1    2    0    0  0.25477255059E+02 -0.19772169817E+02  0.24761589620E+02  0.40659138519E+02  0.00000000000E+00 0. -1.
         11    1    3    3    0    0 -0.36490334760E+01  0.91380805641E+01  0.50093877702E+01  0.11041464024E+02  0.51100000000E-03 0. -1.
        -11    1    3    3    0    0 -0.94476448188E+01  0.80998235656E+01 -0.19818185886E+02  0.23401402233E+02  0.51100000000E-03 0.  1.
         12    1    3    3    0    0 -0.12380576765E+02  0.25342656875E+01 -0.99527915040E+01  0.16085995223E+02  0.00000000000E+00 0. -1.
</event>
<event>
 7    1  0.5849044E-013  0.5052887E+02  0.7816164E-02  0.1300439E+00
        -11   -1    0    0    0    0  0.00000000000E+00  0.00000000000E+00  0.45593999997E+02  0.45594000000E+02  0.51100000000E-03 0. -1.
         11   -1    0    0    0    0 -0.00000000000E+00 -0.00000000000E+00 -0.45593999997E+02  0.45594000000E+02  0.51100000000E-03 0.  1.
    9900012    2    1    2    0    0 -0.24540296417E+02  0.25920166322E+02 -0.19470065772E+02  0.50528872715E+02  0.30000039104E+02 0.  0.
         12    1    1    2    0    0  0.24540296417E+02 -0.25920166322E+02  0.19470065772E+02  0.40659127285E+02  0.00000000000E+00 0. -1.
         11    1    3    3    0    0 -0.16216877066E+01 -0.10563235430E+01  0.22451683181E+01  0.29641982867E+01  0.51100000000E-03 0. -1.
        -11    1    3    3    0    0 -0.21271465417E+02  0.31202808025E+02 -0.18939675740E+02  0.42246914527E+02  0.51100000000E-03 0.  1.
        -12    1    3    3    0    0 -0.16471432928E+01 -0.42263181595E+01 -0.27755583501E+01  0.53177599012E+01  0.00000000000E+00 0.  1.
</event>
<event>
 7    1  0.5849044E-013  0.5052887E+02  0.7816164E-02  0.1300439E+00
        -11   -1    0    0    0    0  0.00000000000E+00  0.00000000000E+00  0.45593999997E+02  0.45594000000E+02  0.51100000000E-03 0. -1.
         11   -1    0    0    0    0 -0.00000000000E+00 -0.00000000000E+00 -0.45593999997E+02  0.45594000000E+02  0.51100000000E-03 0.  1.
    9900012    2    1    2    0    0  0.24719872704E+02 -0.20528623073E+02 -0.24913216491E+02  0.50528870303E+02  0.30000031774E+02 0.  0.
         12    1    1    2    0    0 -0.24719872704E+02  0.20528623073E+02  0.24913216491E+02  0.40659129697E+02  0.00000000000E+00 0. -1.
         11    1    3    3    0    0  0.19250396940E+02 -0.74555298515E+01 -0.22124552778E+02  0.30259850356E+02  0.51100000000E-03 0. -1.
        -11    1    3    3    0    0  0.83262600370E+01 -0.10642446989E+02  0.25433990952E+01  0.13749805938E+02  0.51100000000E-03 0.  1.
        -12    1    3    3    0    0 -0.28567842736E+01 -0.24306462326E+01 -0.53320628091E+01  0.65192140089E+01  0.00000000000E+00 0.  1.
</event>
<event>
 7    1  0.5849044E-013  0.5052886E+02  0.7816164E-02  0.1300439E+00
        -11   -1    0    0    0    0  0.00000000000E+00  0.00000000000E+00  0.45593999997E+02  0.45594000000E+02  0.51100000000E-03 0. -1.
         11   -1    0    0    0    0 -0.00000000000E+00 -0.00000000000E+00 -0.45593999997E+02  0.45594000000E+02  0.51100000000E-03 0.  1.
    9900012    2    1    2    0    0 -0.68546973595E+01 -0.25096329577E+02 -0.31246653746E+02  0.50528855833E+02  0.29999987789E+02 0.  0.
         12    1    1    2    0    0  0.68546973595E+01  0.25096329577E+02  0.31246653746E+02  0.40659144167E+02  0.00000000000E+00 0. -1.
         11    1    3    3    0    0  0.15404774294E+01 -0.73881264462E+01  0.36621008891E+01  0.83885914359E+01  0.51100000000E-03 0. -1.
        -11    1    3    3    0    0 -0.29049117733E+01 -0.30493175973E+01 -0.20289041469E+02  0.20721536000E+02  0.51100000000E-03 0.  1.
         12    1    3    3    0    0 -0.54902630156E+01 -0.14658885534E+02 -0.14619713166E+02  0.21418728396E+02  0.00000000000E+00 0. -1.
</event>
<event>
 7    1  0.5849044E-013  0.5052886E+02  0.7816164E-02  0.1300439E+00
        -11   -1    0    0    0    0  0.00000000000E+00  0.00000000000E+00  0.45593999997E+02  0.45594000000E+02  0.51100000000E-03 0.  1.
         11   -1    0    0    0    0 -0.00000000000E+00 -0.00000000000E+00 -0.45593999997E+02  0.45594000000E+02  0.51100000000E-03 0. -1.
    9900012    2    1    2    0    0 -0.38887839279E+02 -0.66289612404E+01  0.98467433562E+01  0.50528861720E+02  0.30000005684E+02 0.  0.
         12    1    1    2    0    0  0.38887839279E+02  0.66289612404E+01 -0.98467433562E+01  0.40659138280E+02  0.00000000000E+00 0. -1.
         11    1    3    3    0    0 -0.20601718418E+02  0.44435589521E+01  0.41130258609E+01  0.21473076163E+02  0.51100000000E-03 0. -1.
        -11    1    3    3    0    0 -0.38317985813E+01 -0.52479829658E+01 -0.65397932774E+01  0.92191595034E+01  0.51100000000E-03 0.  1.
        -12    1    3    3    0    0 -0.14454322280E+02 -0.58245372267E+01  0.12273510773E+02  0.19836626053E+02  0.00000000000E+00 0.  1.
</event>
<event>
 7    1  0.5849044E-013  0.5052886E+02  0.7816164E-02  0.1300439E+00
        -11   -1    0    0    0    0  0.00000000000E+00  0.00000000000E+00  0.45593999997E+02  0.45594000000E+02  0.51100000000E-03 0.  1.
         11   -1    0    0    0    0 -0.00000000000E+00 -0.00000000000E+00 -0.45593999997E+02  0.45594000000E+02  0.51100000000E-03 0. -1.
    9900012    2    1    2    0    0  0.20559478805E+02 -0.81844626078E+01  0.34109940293E+02  0.50528860514E+02  0.30000002019E+02 0.  0.
         12    1    1    2    0    0 -0.20559478805E+02  0.81844626078E+01 -0.34109940293E+02  0.40659139486E+02  0.00000000000E+00 0. -1.
         11    1    3    3    0    0  0.11676321677E+01 -0.11205739022E+02  0.78257166207E+01  0.13717645308E+02  0.51100000000E-03 0. -1.
        -11    1    3    3    0    0  0.21843555041E+02  0.16591292467E+01  0.25990515423E+02  0.33991182664E+02  0.51100000000E-03 0.  1.
        -12    1    3    3    0    0 -0.24517084035E+01  0.13621471677E+01  0.29370824952E+00  0.28200325421E+01  0.00000000000E+00 0.  1.
</event>
<event>
 7    1  0.5849044E-013  0.5052888E+02  0.7816164E-02  0.1300439E+00
        -11   -1    0    0    0    0  0.00000000000E+00  0.00000000000E+00  0.45593999997E+02  0.45594000000E+02  0.51100000000E-03 0.  1.
         11   -1    0    0    0    0 -0.00000000000E+00 -0.00000000000E+00 -0.45593999997E+02  0.45594000000E+02  0.51100000000E-03 0. -1.
    9900012    2    1    2    0    0  0.68006899640E+01 -0.29354908419E+01  0.39978718493E+02  0.50528875282E+02  0.30000046907E+02 0.  0.
         12    1    1    2    0    0 -0.68006899640E+01  0.29354908419E+01 -0.39978718493E+02  0.40659124718E+02  0.00000000000E+00 0. -1.
         11    1    3    3    0    0  0.27490488435E+01  0.86774383087E+01  0.72155020147E+01  0.11615449829E+02  0.51100000000E-03 0. -1.
        -11    1    3    3    0    0 -0.58996261636E+01 -0.86334540398E+01  0.14102251637E+02  0.17556070717E+02  0.51100000000E-03 0.  1.
         12    1    3    3    0    0  0.99512672841E+01 -0.29794751108E+01  0.18660964842E+02  0.21357354736E+02  0.00000000000E+00 0. -1.
</event>
<event>
 7    1  0.5849044E-013  0.5052886E+02  0.7816164E-02  0.1300439E+00
        -11   -1    0    0    0    0  0.00000000000E+00  0.00000000000E+00  0.45593999997E+02  0.45594000000E+02  0.51100000000E-03 0. -1.
         11   -1    0    0    0    0 -0.00000000000E+00 -0.00000000000E+00 -0.45593999997E+02  0.45594000000E+02  0.51100000000E-03 0.  1.
    9900012    2    1    2    0    0  0.39644708673E+02 -0.25077172797E+01  0.86702842942E+01  0.50528863247E+02  0.30000010326E+02 0.  0.
         12    1    1    2    0    0 -0.39644708673E+02  0.25077172797E+01 -0.86702842942E+01  0.40659136753E+02  0.00000000000E+00 0. -1.
         11    1    3    3    0    0  0.82469467754E+01  0.78412306402E+01  0.12154293275E+02  0.16650041272E+02  0.51100000000E-03 0. -1.
        -11    1    3    3    0    0  0.13508630850E+02 -0.35454592736E+01  0.16492709224E+01  0.14063196071E+02  0.51100000000E-03 0.  1.
         12    1    3    3    0    0  0.17889131048E+02 -0.68034886463E+01 -0.51332799034E+01  0.19815625904E+02  0.00000000000E+00 0. -1.
</event>
<event>
 7    1  0.5849044E-013  0.5052886E+02  0.7816164E-02  0.1300439E+00
        -11   -1    0    0    0    0  0.00000000000E+00  0.00000000000E+00  0.45593999997E+02  0.45594000000E+02  0.51100000000E-03 0. -1.
         11   -1    0    0    0    0 -0.00000000000E+00 -0.00000000000E+00 -0.45593999997E+02  0.45594000000E+02  0.51100000000E-03 0.  1.
    9900012    2    1    2    0    0  0.29270785220E+02 -0.58642770671E+01 -0.27604295476E+02  0.50528859064E+02  0.29999997611E+02 0.  0.
         12    1    1    2    0    0 -0.29270785220E+02  0.58642770671E+01  0.27604295476E+02  0.40659140936E+02  0.00000000000E+00 0. -1.
         11    1    3    3    0    0  0.13607232796E+02  0.22733235156E+01 -0.65743379772E+01  0.15282234924E+02  0.51100000000E-03 0. -1.
        -11    1    3    3    0    0 -0.17014332694E+00 -0.10425115568E+02 -0.24166394871E+01  0.10702902879E+02  0.51100000000E-03 0.  1.
        -12    1    3    3    0    0  0.15833695751E+02  0.22875149858E+01 -0.18613318011E+02  0.24543721261E+02  0.00000000000E+00 0.  1.
</event>
<event>
 7    1  0.5849044E-013  0.5052886E+02  0.7816164E-02  0.1300439E+00
        -11   -1    0    0    0    0  0.00000000000E+00  0.00000000000E+00  0.45593999997E+02  0.45594000000E+02  0.51100000000E-03 0.  1.
         11   -1    0    0    0    0 -0.00000000000E+00 -0.00000000000E+00 -0.45593999997E+02  0.45594000000E+02  0.51100000000E-03 0. -1.
    9900012    2    1    2    0    0  0.11661763164E+02  0.81397102542E+01  0.38090867184E+02  0.50528858765E+02  0.29999996702E+02 0.  0.
         12    1    1    2    0    0 -0.11661763164E+02 -0.81397102542E+01 -0.38090867184E+02  0.40659141235E+02  0.00000000000E+00 0. -1.
         11    1    3    3    0    0 -0.17502149717E+01 -0.16305480837E+01  0.13568939174E+02  0.13778172958E+02  0.51100000000E-03 0. -1.
        -11    1    3    3    0    0  0.17849949068E+02  0.14875353168E+01  0.17264571288E+02  0.24877678048E+02  0.51100000000E-03 0.  1.
        -12    1    3    3    0    0 -0.44379709322E+01  0.82827230211E+01  0.72573567223E+01  0.11873007759E+02  0.00000000000E+00 0.  1.
</event>
<event>
 7    1  0.5849044E-013  0.5052886E+02  0.7816164E-02  0.1300439E+00
        -11   -1    0    0    0    0  0.00000000000E+00  0.00000000000E+00  0.45593999997E+02  0.45594000000E+02  0.51100000000E-03 0. -1.
         11   -1    0    0    0    0 -0.00000000000E+00 -0.00000000000E+00 -0.45593999997E+02  0.45594000000E+02  0.51100000000E-03 0.  1.
    9900012    2    1    2    0    0  0.16992530649E+02  0.34309336243E+02 -0.13685348223E+02  0.50528863176E+02  0.30000010111E+02 0.  0.
         12    1    1    2    0    0 -0.16992530649E+02 -0.34309336243E+02  0.13685348223E+02  0.40659136824E+02  0.00000000000E+00 0. -1.
         11    1    3    3    0    0  0.19391244384E+02  0.18298931890E+02 -0.11919100137E+02  0.29205071742E+02  0.51100000000E-03 0. -1.
        -11    1    3    3    0    0 -0.28781583563E+01  0.11791693709E+02 -0.74404856216E+01  0.14236876855E+02  0.51100000000E-03 0.  1.
         12    1    3    3    0    0  0.47944462102E+00  0.42187106438E+01  0.56742375360E+01  0.70869145795E+01  0.00000000000E+00 0. -1.
</event>
<event>
 7    1  0.5849044E-013  0.5052886E+02  0.7816164E-02  0.1300439E+00
        -11   -1    0    0    0    0  0.00000000000E+00  0.00000000000E+00  0.45593999997E+02  0.45594000000E+02  0.51100000000E-03 0.  1.
         11   -1    0    0    0    0 -0.00000000000E+00 -0.00000000000E+00 -0.45593999997E+02  0.45594000000E+02  0.51100000000E-03 0. -1.
    9900012    2    1    2    0    0  0.30984484804E+02 -0.12434488803E+02  0.23205831626E+02  0.50528862874E+02  0.30000009191E+02 0.  0.
         12    1    1    2    0    0 -0.30984484804E+02  0.12434488803E+02 -0.23205831626E+02  0.40659137126E+02  0.00000000000E+00 0. -1.
         11    1    3    3    0    0  0.15118653791E+02  0.65244532405E+01  0.43133767054E+01  0.17021968200E+02  0.51100000000E-03 0. -1.
        -11    1    3    3    0    0  0.17292849109E+02 -0.13625628015E+02  0.16381284910E+02  0.27441699376E+02  0.51100000000E-03 0.  1.
         12    1    3    3    0    0 -0.14270180954E+01 -0.53333140285E+01  0.25111700113E+01  0.60651952975E+01  0.00000000000E+00 0. -1.
</event>
<event>
 7    1  0.5849044E-013  0.5052885E+02  0.7816164E-02  0.1300439E+00
        -11   -1    0    0    0    0  0.00000000000E+00  0.00000000000E+00  0.45593999997E+02  0.45594000000E+02  0.51100000000E-03 0.  1.
         11   -1    0    0    0    0 -0.00000000000E+00 -0.00000000000E+00 -0.45593999997E+02  0.45594000000E+02  0.51100000000E-03 0. -1.
    9900012    2    1    2    0    0  0.36102126087E+02 -0.93239772192E+01  0.16213152388E+02  0.50528851342E+02  0.29999974140E+02 0.  0.
         12    1    1    2    0    0 -0.36102126087E+02  0.93239772192E+01 -0.16213152388E+02  0.40659148658E+02  0.00000000000E+00 0. -1.
         11    1    3    3    0    0 -0.95798437489E+00  0.39338635325E+01 -0.35311321138E+01  0.53723282309E+01  0.51100000000E-03 0. -1.
        -11    1    3    3    0    0  0.12615812025E+02  0.25985620205E+00  0.50205580772E+01  0.13580583270E+02  0.51100000000E-03 0.  1.
         12    1    3    3    0    0  0.24444298438E+02 -0.13517696954E+02  0.14723726424E+02  0.31575939841E+02  0.00000000000E+00 0. -1.
</event>
<event>
 7    1  0.5849044E-013  0.5052887E+02  0.7816164E-02  0.1300439E+00
        -11   -1    0    0    0    0  0.00000000000E+00  0.00000000000E+00  0.45593999997E+02  0.45594000000E+02  0.51100000000E-03 0.  1.
         11   -1    0    0    0    0 -0.00000000000E+00 -0.00000000000E+00 -0.45593999997E+02  0.45594000000E+02  0.51100000000E-03 0. -1.
    9900012    2    1    2    0    0 -0.29766121175E+02  0.45535517988E+01  0.27320471283E+02  0.50528868739E+02  0.30000027018E+02 0.  0.
         12    1    1    2    0    0  0.29766121175E+02 -0.45535517988E+01 -0.27320471283E+02  0.40659131261E+02  0.00000000000E+00 0. -1.
         11    1    3    3    0    0 -0.75721049746E+01  0.70777242237E+01  0.16438228033E+02  0.19433123657E+02  0.51100000000E-03 0. -1.
        -11    1    3    3    0    0 -0.12240532177E+02 -0.51620458357E+00 -0.41675548339E+01  0.12940850385E+02  0.51100000000E-03 0.  1.
        -12    1    3    3    0    0 -0.99534840237E+01 -0.20079678413E+01  0.15049798084E+02  0.18154894696E+02  0.00000000000E+00 0.  1.
</event>
<event>
 7    1  0.5849044E-013  0.5052885E+02  0.7816164E-02  0.1300439E+00
        -11   -1    0    0    0    0  0.00000000000E+00  0.00000000000E+00  0.45593999997E+02  0.45594000000E+02  0.51100000000E-03 0.  1.
         11   -1    0    0    0    0 -0.00000000000E+00 -0.00000000000E+00 -0.45593999997E+02  0.45594000000E+02  0.51100000000E-03 0. -1.
    9900012    2    1    2    0    0 -0.13783268031E+02 -0.34705274970E+02  0.16085132964E+02  0.50528854770E+02  0.29999984559E+02 0.  0.
         12    1    1    2    0    0  0.13783268031E+02  0.34705274970E+02 -0.16085132964E+02  0.40659145230E+02  0.00000000000E+00 0. -1.
         11    1    3    3    0    0 -0.11974153215E+01  0.27220577960E+01  0.28299381142E+01  0.41051129203E+01  0.51100000000E-03 0.  1.
        -11    1    3    3    0    0  0.31185008257E+01 -0.16849006582E+02 -0.43435529864E+00  0.17140674870E+02  0.51100000000E-03 0. -1.
        -12    1    3    3    0    0 -0.15704353536E+02 -0.20578326184E+02  0.13689550149E+02  0.29283066980E+02  0.00000000000E+00 0.  1.
</event>
<event>
 7    1  0.5849044E-013  0.5052886E+02  0.7816164E-02  0.1300439E+00
        -11   -1    0    0    0    0  0.00000000000E+00  0.00000000000E+00  0.45593999997E+02  0.45594000000E+02  0.51100000000E-03 0.  1.
         11   -1    0    0    0    0 -0.00000000000E+00 -0.00000000000E+00 -0.45593999997E+02  0.45594000000E+02  0.51100000000E-03 0. -1.
    9900012    2    1    2    0    0  0.76752565869E+01  0.15377581455E+02  0.36848145855E+02  0.50528862921E+02  0.30000009335E+02 0.  0.
         12    1    1    2    0    0 -0.76752565869E+01 -0.15377581455E+02 -0.36848145855E+02  0.40659137079E+02  0.00000000000E+00 0. -1.
         11    1    3    3    0    0  0.11881753652E+02  0.12610013317E+02  0.89109778099E+01  0.19483173034E+02  0.51100000000E-03 0. -1.
        -11    1    3    3    0    0  0.63039060735E+00 -0.12255536580E+01  0.23058116061E+02  0.23099266019E+02  0.51100000000E-03 0.  1.
         12    1    3    3    0    0 -0.48368876720E+01  0.39931217951E+01  0.48790519841E+01  0.79464238678E+01  0.00000000000E+00 0. -1.
</event>
<event>
 7    1  0.5849044E-013  0.5052886E+02  0.7816164E-02  0.1300439E+00
        -11   -1    0    0    0    0  0.00000000000E+00  0.00000000000E+00  0.45593999997E+02  0.45594000000E+02  0.51100000000E-03 0.  1.
         11   -1    0    0    0    0 -0.00000000000E+00 -0.00000000000E+00 -0.45593999997E+02  0.45594000000E+02  0.51100000000E-03 0. -1.
    9900012    2    1    2    0    0 -0.25819481427E+02 -0.52095086927E+01  0.30973874085E+02  0.50528862309E+02  0.30000007473E+02 0.  0.
         12    1    1    2    0    0  0.25819481427E+02  0.52095086927E+01 -0.30973874085E+02  0.40659137691E+02  0.00000000000E+00 0. -1.
         11    1    3    3    0    0 -0.16472249220E+02 -0.11460314582E+01  0.10497668249E+02  0.19566538308E+02  0.51100000000E-03 0. -1.
        -11    1    3    3    0    0  0.28874620609E+01 -0.42713286037E+01 -0.18706608516E+01  0.54846200850E+01  0.51100000000E-03 0.  1.
        -12    1    3    3    0    0 -0.12234694269E+02  0.20785136918E+00  0.22346866687E+02  0.25477703915E+02  0.00000000000E+00 0.  1.
</event>
<event>
 7    1  0.5849044E-013  0.5052886E+02  0.7816164E-02  0.1300439E+00
        -11   -1    0    0    0    0  0.00000000000E+00  0.00000000000E+00  0.45593999997E+02  0.45594000000E+02  0.51100000000E-03 0.  1.
         11   -1    0    0    0    0 -0.00000000000E+00 -0.00000000000E+00 -0.45593999997E+02  0.45594000000E+02  0.51100000000E-03 0. -1.
    9900012    2    1    2    0    0  0.18603872979E+02  0.13617903070E+02  0.33490513779E+02  0.50528857277E+02  0.29999992178E+02 0.  0.
         12    1    1    2    0    0 -0.18603872979E+02 -0.13617903070E+02 -0.33490513779E+02  0.40659142723E+02  0.00000000000E+00 0. -1.
         11    1    3    3    0    0 -0.62566268251E+00 -0.14032006037E+01 -0.46922176894E+01  0.49373406640E+01  0.51100000000E-03 0. -1.
        -11    1    3    3    0    0  0.95093414584E+01  0.73023715619E+01  0.23368510689E+02  0.26264795782E+02  0.51100000000E-03 0.  1.
         12    1    3    3    0    0  0.97201942030E+01  0.77187321119E+01  0.14814220779E+02  0.19326720830E+02  0.00000000000E+00 0. -1.
</event>
<event>
 7    1  0.5849044E-013  0.5052887E+02  0.7816164E-02  0.1300439E+00
        -11   -1    0    0    0    0  0.00000000000E+00  0.00000000000E+00  0.45593999997E+02  0.45594000000E+02  0.51100000000E-03 0.  1.
         11   -1    0    0    0    0 -0.00000000000E+00 -0.00000000000E+00 -0.45593999997E+02  0.45594000000E+02  0.51100000000E-03 0. -1.
    9900012    2    1    2    0    0  0.12533685062E+02 -0.17945578520E+02  0.34264084744E+02  0.50528873681E+02  0.30000042041E+02 0.  0.
         12    1    1    2    0    0 -0.12533685062E+02  0.17945578520E+02 -0.34264084744E+02  0.40659126319E+02  0.00000000000E+00 0. -1.
         11    1    3    3    0    0  0.97929603983E+01 -0.12455800712E+02  0.40227829874E+01  0.16347226920E+02  0.51100000000E-03 0. -1.
        -11    1    3    3    0    0 -0.24805953704E+01  0.40756408269E+01  0.65437761424E+01  0.80984694853E+01  0.51100000000E-03 0.  1.
        -12    1    3    3    0    0  0.52213200340E+01 -0.95654186352E+01  0.23697525614E+02  0.26083177276E+02  0.00000000000E+00 0.  1.
</event>
<event>
 7    1  0.5849044E-013  0.5052886E+02  0.7816164E-02  0.1300439E+00
        -11   -1    0    0    0    0  0.00000000000E+00  0.00000000000E+00  0.45593999997E+02  0.45594000000E+02  0.51100000000E-03 0.  1.
         11   -1    0    0    0    0 -0.00000000000E+00 -0.00000000000E+00 -0.45593999997E+02  0.45594000000E+02  0.51100000000E-03 0. -1.
    9900012    2    1    2    0    0  0.26251362501E+02  0.76659668580E+01  0.30087608893E+02  0.50528864619E+02  0.30000014495E+02 0.  0.
         12    1    1    2    0    0 -0.26251362501E+02 -0.76659668580E+01 -0.30087608893E+02  0.40659135381E+02  0.00000000000E+00 0. -1.
         11    1    3    3    0    0  0.28486774486E+01  0.14505014168E+02  0.11046517436E+02  0.18453616094E+02  0.51100000000E-03 0. -1.
        -11    1    3    3    0    0  0.79902342115E+01  0.16386736999E+01  0.49891247622E+01  0.95614047296E+01  0.51100000000E-03 0.  1.
         12    1    3    3    0    0  0.15412450841E+02 -0.84777210095E+01  0.14051966695E+02  0.22513843796E+02  0.00000000000E+00 0. -1.
</event>
<event>
 7    1  0.5849044E-013  0.5052886E+02  0.7816164E-02  0.1300439E+00
        -11   -1    0    0    0    0  0.00000000000E+00  0.00000000000E+00  0.45593999997E+02  0.45594000000E+02  0.51100000000E-03 0.  1.
         11   -1    0    0    0    0 -0.00000000000E+00 -0.00000000000E+00 -0.45593999997E+02  0.45594000000E+02  0.51100000000E-03 0. -1.
    9900012    2    1    2    0    0 -0.16032925939E+02  0.27949746605E+02  0.24797632163E+02  0.50528860679E+02  0.30000002519E+02 0.  0.
         12    1    1    2    0    0  0.16032925939E+02 -0.27949746605E+02 -0.24797632163E+02  0.40659139321E+02  0.00000000000E+00 0. -1.
         11    1    3    3    0    0  0.29973692744E+01 -0.10172387199E+01  0.27167992285E+01  0.41713301822E+01  0.51100000000E-03 0. -1.
        -11    1    3    3    0    0 -0.18204448268E+02  0.28045415348E+02  0.25931442915E+02  0.42312964807E+02  0.51100000000E-03 0.  1.
        -12    1    3    3    0    0 -0.82584694531E+00  0.92156997596E+00 -0.38506099804E+01  0.40445656898E+01  0.00000000000E+00 0.  1.
</event>
<event>
 7    1  0.5849044E-013  0.5052886E+02  0.7816164E-02  0.1300439E+00
        -11   -1    0    0    0    0  0.00000000000E+00  0.00000000000E+00  0.45593999997E+02  0.45594000000E+02  0.51100000000E-03 0. -1.
         11   -1    0    0    0    0 -0.00000000000E+00 -0.00000000000E+00 -0.45593999997E+02  0.45594000000E+02  0.51100000000E-03 0.  1.
    9900012    2    1    2    0    0  0.69387713491E+01 -0.38807160960E+02 -0.99510373079E+01  0.50528862858E+02  0.30000009144E+02 0.  0.
         12    1    1    2    0    0 -0.69387713491E+01  0.38807160960E+02  0.99510373079E+01  0.40659137142E+02  0.00000000000E+00 0. -1.
         11    1    3    3    0    0  0.92804567655E+01 -0.13010385335E+02  0.27482823561E+01  0.16215734967E+02  0.51100000000E-03 0. -1.
        -11    1    3    3    0    0  0.61240268373E-01 -0.15838906583E+02 -0.16971415603E+02  0.23214298610E+02  0.51100000000E-03 0.  1.
         12    1    3    3    0    0 -0.24029256848E+01 -0.99578690416E+01  0.42720959393E+01  0.11098829281E+02  0.00000000000E+00 0. -1.
</event>
<event>
 7    1  0.5849044E-013  0.5052886E+02  0.7816164E-02  0.1300439E+00
        -11   -1    0    0    0    0  0.00000000000E+00  0.00000000000E+00  0.45593999997E+02  0.45594000000E+02  0.51100000000E-03 0.  1.
         11   -1    0    0    0    0 -0.00000000000E+00 -0.00000000000E+00 -0.45593999997E+02  0.45594000000E+02  0.51100000000E-03 0. -1.
    9900012    2    1    2    0    0 -0.20063976718E+02  0.32421430531E+02  0.14122785810E+02  0.50528863285E+02  0.30000010441E+02 0.  0.
         12    1    1    2    0    0  0.20063976718E+02 -0.32421430531E+02 -0.14122785810E+02  0.40659136715E+02  0.00000000000E+00 0. -1.
         11    1    3    3    0    0 -0.10088592754E+02  0.23523097725E+02  0.17390025181E+02  0.30943962357E+02  0.51100000000E-03 0. -1.
        -11    1    3    3    0    0 -0.11731386967E+02  0.20187537442E+01 -0.37166595027E+01  0.12470539883E+02  0.51100000000E-03 0.  1.
         12    1    3    3    0    0  0.17560030029E+01  0.68795790619E+01  0.44942013123E+00  0.71143610444E+01  0.00000000000E+00 0. -1.
</event>
<event>
 7    1  0.5849044E-013  0.5052879E+02  0.7816164E-02  0.1300439E+00
        -11   -1    0    0    0    0  0.00000000000E+00  0.00000000000E+00  0.45593999997E+02  0.45594000000E+02  0.51100000000E-03 0.  1.
         11   -1    0    0    0    0 -0.00000000000E+00 -0.00000000000E+00 -0.45593999997E+02  0.45594000000E+02  0.51100000000E-03 0. -1.
    9900012    2    1    2    0    0 -0.18303319853E+02  0.36265694562E+02  0.17203556237E+01  0.50528785261E+02  0.29999773278E+02 0.  0.
         12    1    1    2    0    0  0.18303319853E+02 -0.36265694562E+02 -0.17203556237E+01  0.40659214739E+02  0.00000000000E+00 0. -1.
         11    1    3    3    0    0 -0.25403918172E+01 -0.15956108023E+01 -0.66416596524E+01  0.72877436575E+01  0.51100000000E-03 0. -1.
        -11    1    3    3    0    0 -0.16621733498E+02  0.28663610864E+02  0.56424141843E+01  0.33611329196E+02  0.51100000000E-03 0.  1.
        -12    1    3    3    0    0  0.85880546207E+00  0.91976945006E+01  0.27196010918E+01  0.96297124073E+01  0.00000000000E+00 0.  1.
</event>
<event>
 7    1  0.5849044E-013  0.5052882E+02  0.7816164E-02  0.1300439E+00
        -11   -1    0    0    0    0  0.00000000000E+00  0.00000000000E+00  0.45593999997E+02  0.45594000000E+02  0.51100000000E-03 0. -1.
         11   -1    0    0    0    0 -0.00000000000E+00 -0.00000000000E+00 -0.45593999997E+02  0.45594000000E+02  0.51100000000E-03 0.  1.
    9900012    2    1    2    0    0 -0.19733471579E+01 -0.40567700798E+02  0.18806029209E+01  0.50528817588E+02  0.29999871541E+02 0.  0.
         12    1    1    2    0    0  0.19733471579E+01  0.40567700798E+02 -0.18806029209E+01  0.40659182412E+02  0.00000000000E+00 0. -1.
         11    1    3    3    0    0  0.39987087087E+01  0.35856052923E+01  0.15090389112E+01  0.55788381717E+01  0.51100000000E-03 0. -1.
        -11    1    3    3    0    0 -0.26542053708E+01 -0.12464396937E+02  0.26134509149E+01  0.13009078487E+02  0.51100000000E-03 0.  1.
         12    1    3    3    0    0 -0.33178504958E+01 -0.31688909154E+02 -0.22418869052E+01  0.31940900929E+02  0.00000000000E+00 0. -1.
</event>
<event>
 7    1  0.5849044E-013  0.5052885E+02  0.7816164E-02  0.1300439E+00
        -11   -1    0    0    0    0  0.00000000000E+00  0.00000000000E+00  0.45593999997E+02  0.45594000000E+02  0.51100000000E-03 0. -1.
         11   -1    0    0    0    0 -0.00000000000E+00 -0.00000000000E+00 -0.45593999997E+02  0.45594000000E+02  0.51100000000E-03 0.  1.
    9900012    2    1    2    0    0 -0.21796322735E+02 -0.28865141165E+02 -0.18571218108E+02  0.50528853412E+02  0.29999980431E+02 0.  0.
         12    1    1    2    0    0  0.21796322735E+02  0.28865141165E+02  0.18571218108E+02  0.40659146588E+02  0.00000000000E+00 0. -1.
         11    1    3    3    0    0  0.58603597551E+00 -0.53791151563E+01  0.26152696852E+01  0.60098214463E+01  0.51100000000E-03 0. -1.
        -11    1    3    3    0    0 -0.22532088668E+02 -0.10132535728E+02 -0.18580638262E+02  0.30912835821E+02  0.51100000000E-03 0.  1.
        -12    1    3    3    0    0  0.14972995710E+00 -0.13353490281E+02 -0.26058495306E+01  0.13606196144E+02  0.00000000000E+00 0.  1.
</event>
<event>
 7    1  0.5849044E-013  0.5052886E+02  0.7816164E-02  0.1300439E+00
        -11   -1    0    0    0    0  0.00000000000E+00  0.00000000000E+00  0.45593999997E+02  0.45594000000E+02  0.51100000000E-03 0.  1.
         11   -1    0    0    0    0 -0.00000000000E+00 -0.00000000000E+00 -0.45593999997E+02  0.45594000000E+02  0.51100000000E-03 0. -1.
    9900012    2    1    2    0    0  0.14997355693E+01  0.38345240313E+02  0.13437233522E+02  0.50528857041E+02  0.29999991461E+02 0.  0.
         12    1    1    2    0    0 -0.14997355693E+01 -0.38345240313E+02 -0.13437233522E+02  0.40659142959E+02  0.00000000000E+00 0. -1.
         11    1    3    3    0    0  0.28469402654E+01  0.36020272032E+02  0.80347992921E+01  0.37015173457E+02  0.51100000000E-03 0. -1.
        -11    1    3    3    0    0  0.35173683355E+01  0.90158254866E+00  0.72584386706E+01  0.81160127708E+01  0.51100000000E-03 0.  1.
         12    1    3    3    0    0 -0.48645730315E+01  0.14233857332E+01 -0.18560044409E+01  0.53976708133E+01  0.00000000000E+00 0. -1.
</event>
<event>
 7    1  0.5849044E-013  0.5052879E+02  0.7816164E-02  0.1300439E+00
        -11   -1    0    0    0    0  0.00000000000E+00  0.00000000000E+00  0.45593999997E+02  0.45594000000E+02  0.51100000000E-03 0.  1.
         11   -1    0    0    0    0 -0.00000000000E+00 -0.00000000000E+00 -0.45593999997E+02  0.45594000000E+02  0.51100000000E-03 0. -1.
    9900012    2    1    2    0    0 -0.29775620630E+02  0.82553011553E+01  0.26427896979E+02  0.50528790468E+02  0.29999789105E+02 0.  0.
         12    1    1    2    0    0  0.29775620630E+02 -0.82553011553E+01 -0.26427896979E+02  0.40659209532E+02  0.00000000000E+00 0. -1.
         11    1    3    3    0    0 -0.25233831413E+01 -0.95883704569E+01  0.91949867172E+01  0.13522281297E+02  0.51100000000E-03 0. -1.
        -11    1    3    3    0    0 -0.12910042196E+02  0.71142496300E+01  0.92030237815E+01  0.17377496491E+02  0.51100000000E-03 0.  1.
         12    1    3    3    0    0 -0.14342195293E+02  0.10729421982E+02  0.80298864798E+01  0.19629012679E+02  0.00000000000E+00 0. -1.
</event>
<event>
 7    1  0.5849044E-013  0.5052886E+02  0.7816164E-02  0.1300439E+00
        -11   -1    0    0    0    0  0.00000000000E+00  0.00000000000E+00  0.45593999997E+02  0.45594000000E+02  0.51100000000E-03 0.  1.
         11   -1    0    0    0    0 -0.00000000000E+00 -0.00000000000E+00 -0.45593999997E+02  0.45594000000E+02  0.51100000000E-03 0. -1.
    9900012    2    1    2    0    0  0.27712247229E+02  0.26133814423E+02  0.14220446955E+02  0.50528855710E+02  0.29999987416E+02 0.  0.
         12    1    1    2    0    0 -0.27712247229E+02 -0.26133814423E+02 -0.14220446955E+02  0.40659144290E+02  0.00000000000E+00 0. -1.
         11    1    3    3    0    0 -0.97752706206E+00  0.88158477523E+01  0.95865453071E+01  0.13060497002E+02  0.51100000000E-03 0. -1.
        -11    1    3    3    0    0  0.29794392538E+02  0.12782552493E+02  0.49188117461E+01  0.32791678582E+02  0.51100000000E-03 0.  1.
        -12    1    3    3    0    0 -0.11046182468E+01  0.45354141782E+01 -0.28491009872E+00  0.46766801263E+01  0.00000000000E+00 0.  1.
</event>
<event>
 7    1  0.5849044E-013  0.5052886E+02  0.7816164E-02  0.1300439E+00
        -11   -1    0    0    0    0  0.00000000000E+00  0.00000000000E+00  0.45593999997E+02  0.45594000000E+02  0.51100000000E-03 0.  1.
         11   -1    0    0    0    0 -0.00000000000E+00 -0.00000000000E+00 -0.45593999997E+02  0.45594000000E+02  0.51100000000E-03 0. -1.
    9900012    2    1    2    0    0  0.39585220282E+02 -0.82966302805E+01 -0.41643289640E+01  0.50528863579E+02  0.30000011334E+02 0.  0.
         12    1    1    2    0    0 -0.39585220282E+02  0.82966302805E+01  0.41643289640E+01  0.40659136421E+02  0.00000000000E+00 0. -1.
         11    1    3    3    0    0  0.50246360627E+01 -0.39098330605E+01 -0.10664056501E+02  0.12419978400E+02  0.51100000000E-03 0. -1.
        -11    1    3    3    0    0  0.31733639260E+02 -0.18628326377E+01  0.14846129944E+01  0.31822917561E+02  0.51100000000E-03 0.  1.
        -12    1    3    3    0    0  0.28269449593E+01 -0.25239645823E+01  0.50151145427E+01  0.62859676178E+01  0.00000000000E+00 0.  1.
</event>
<event>
 7    1  0.5849044E-013  0.5052886E+02  0.7816164E-02  0.1300439E+00
        -11   -1    0    0    0    0  0.00000000000E+00  0.00000000000E+00  0.45593999997E+02  0.45594000000E+02  0.51100000000E-03 0.  1.
         11   -1    0    0    0    0 -0.00000000000E+00 -0.00000000000E+00 -0.45593999997E+02  0.45594000000E+02  0.51100000000E-03 0. -1.
    9900012    2    1    2    0    0  0.10717568687E+02 -0.10566781057E+02  0.37770918748E+02  0.50528862730E+02  0.30000008754E+02 0.  0.
         12    1    1    2    0    0 -0.10717568687E+02  0.10566781057E+02 -0.37770918748E+02  0.40659137270E+02  0.00000000000E+00 0. -1.
         11    1    3    3    0    0 -0.21296546169E+01  0.44662759726E+01  0.12002234348E+02  0.12982167749E+02  0.51100000000E-03 0. -1.
        -11    1    3    3    0    0  0.62706859964E+01 -0.18651807709E+02  0.20200209547E+02  0.28200352829E+02  0.51100000000E-03 0.  1.
        -12    1    3    3    0    0  0.65765373077E+01  0.36187506791E+01  0.55684748524E+01  0.93463421518E+01  0.00000000000E+00 0.  1.
</event>
<event>
 7    1  0.5849044E-013  0.5052886E+02  0.7816164E-02  0.1300439E+00
        -11   -1    0    0    0    0  0.00000000000E+00  0.00000000000E+00  0.45593999997E+02  0.45594000000E+02  0.51100000000E-03 0. -1.
         11   -1    0    0    0    0 -0.00000000000E+00 -0.00000000000E+00 -0.45593999997E+02  0.45594000000E+02  0.51100000000E-03 0.  1.
    9900012    2    1    2    0    0  0.32613155912E+02 -0.10507841266E+02 -0.21889102909E+02  0.50528862125E+02  0.30000006915E+02 0.  0.
         12    1    1    2    0    0 -0.32613155912E+02  0.10507841266E+02  0.21889102909E+02  0.40659137875E+02  0.00000000000E+00 0. -1.
         11    1    3    3    0    0  0.23829649519E+02 -0.16534418228E+02 -0.35182161662E+01  0.29216725134E+02  0.51100000000E-03 0. -1.
        -11    1    3    3    0    0  0.39061328813E+01  0.35339909946E+01 -0.78991524158E+01  0.94943970628E+01  0.51100000000E-03 0.  1.
         12    1    3    3    0    0  0.48773735112E+01  0.24925859676E+01 -0.10471734327E+02  0.11817739928E+02  0.00000000000E+00 0. -1.
</event>
<event>
 7    1  0.5849044E-013  0.5052886E+02  0.7816164E-02  0.1300439E+00
        -11   -1    0    0    0    0  0.00000000000E+00  0.00000000000E+00  0.45593999997E+02  0.45594000000E+02  0.51100000000E-03 0.  1.
         11   -1    0    0    0    0 -0.00000000000E+00 -0.00000000000E+00 -0.45593999997E+02  0.45594000000E+02  0.51100000000E-03 0. -1.
    9900012    2    1    2    0    0 -0.11791131665E+02 -0.27049521447E+02 -0.27972453261E+02  0.50528861570E+02  0.30000005228E+02 0.  0.
         12    1    1    2    0    0  0.11791131665E+02  0.27049521447E+02  0.27972453261E+02  0.40659138430E+02  0.00000000000E+00 0. -1.
         11    1    3    3    0    0  0.21247756829E+01 -0.11420765059E+02 -0.11018694502E+02  0.16011251513E+02  0.51100000000E-03 0. -1.
        -11    1    3    3    0    0 -0.10403879063E+02 -0.34317246124E+01  0.25494187096E+01  0.11247976235E+02  0.51100000000E-03 0.  1.
        -12    1    3    3    0    0 -0.35120282846E+01 -0.12197031775E+02 -0.19503177469E+02  0.23269633822E+02  0.00000000000E+00 0.  1.
</event>
<event>
 7    1  0.6317236E-013  0.5052886E+02  0.7816164E-02  0.1300439E+00
        -11   -1    0    0    0    0  0.00000000000E+00  0.00000000000E+00  0.45593999997E+02  0.45594000000E+02  0.51100000000E-03 0. -1.
         11   -1    0    0    0    0 -0.00000000000E+00 -0.00000000000E+00 -0.45593999997E+02  0.45594000000E+02  0.51100000000E-03 0.  1.
    9900012    2    1    2    0    0  0.31135946026E+02  0.52527128716E+01 -0.25614987848E+02  0.50528859208E+02  0.29999998049E+02 0.  0.
         12    1    1    2    0    0 -0.31135946026E+02 -0.52527128716E+01  0.25614987848E+02  0.40659140792E+02  0.00000000000E+00 0. -1.
         11    1    3    3    0    0 -0.25824969848E+01  0.98869247521E+00  0.33456813485E+01  0.43405515127E+01  0.51100000000E-03 0. -1.
        -11    1    3    3    0    0  0.14328436491E+02  0.19782653773E+01 -0.20059888105E+02  0.24730886300E+02  0.51100000000E-03 0.  1.
         12    1    3    3    0    0  0.19390006521E+02  0.22857550191E+01 -0.89007810925E+01  0.21457421395E+02  0.00000000000E+00 0. -1.
</event>
<event>
 7    1  0.5849044E-013  0.5052887E+02  0.7816164E-02  0.1300439E+00
        -11   -1    0    0    0    0  0.00000000000E+00  0.00000000000E+00  0.45593999997E+02  0.45594000000E+02  0.51100000000E-03 0.  1.
         11   -1    0    0    0    0 -0.00000000000E+00 -0.00000000000E+00 -0.45593999997E+02  0.45594000000E+02  0.51100000000E-03 0. -1.
    9900012    2    1    2    0    0 -0.29195992330E+02 -0.13717924200E+02  0.24750308553E+02  0.50528865898E+02  0.30000018382E+02 0.  0.
         12    1    1    2    0    0  0.29195992330E+02  0.13717924200E+02 -0.24750308553E+02  0.40659134102E+02  0.00000000000E+00 0. -1.
         11    1    3    3    0    0 -0.16427323269E+01 -0.13221537077E+02  0.16315482367E+02  0.21064248796E+02  0.51100000000E-03 0. -1.
        -11    1    3    3    0    0 -0.82689081853E+01 -0.25446874299E+01  0.41892509904E+01  0.96124971165E+01  0.51100000000E-03 0.  1.
         12    1    3    3    0    0 -0.19284351818E+02  0.20483003069E+01  0.42455751948E+01  0.19852119985E+02  0.00000000000E+00 0. -1.
</event>
<event>
 7    1  0.5849044E-013  0.5052883E+02  0.7816164E-02  0.1300439E+00
        -11   -1    0    0    0    0  0.00000000000E+00  0.00000000000E+00  0.45593999997E+02  0.45594000000E+02  0.51100000000E-03 0.  1.
         11   -1    0    0    0    0 -0.00000000000E+00 -0.00000000000E+00 -0.45593999997E+02  0.45594000000E+02  0.51100000000E-03 0. -1.
    9900012    2    1    2    0    0  0.73304756076E+01  0.34391944115E+02 -0.20411433334E+02  0.50528827561E+02  0.29999901856E+02 0.  0.
         12    1    1    2    0    0 -0.73304756076E+01 -0.34391944115E+02  0.20411433334E+02  0.40659172439E+02  0.00000000000E+00 0. -1.
         11    1    3    3    0    0  0.59770652835E+01  0.21248271819E+01 -0.13837421869E+02  0.15222169497E+02  0.51100000000E-03 0. -1.
        -11    1    3    3    0    0  0.26794674759E+01  0.31651219334E+02 -0.85061689289E+01  0.32883645500E+02  0.51100000000E-03 0.  1.
        -12    1    3    3    0    0 -0.13260571518E+01  0.61589759893E+00  0.19321574635E+01  0.24230125641E+01  0.00000000000E+00 0.  1.
</event>
<event>
 7    1  0.5849044E-013  0.5052886E+02  0.7816164E-02  0.1300439E+00
        -11   -1    0    0    0    0  0.00000000000E+00  0.00000000000E+00  0.45593999997E+02  0.45594000000E+02  0.51100000000E-03 0.  1.
         11   -1    0    0    0    0 -0.00000000000E+00 -0.00000000000E+00 -0.45593999997E+02  0.45594000000E+02  0.51100000000E-03 0. -1.
    9900012    2    1    2    0    0 -0.22012197083E+02  0.75416441316E+01  0.33342949845E+02  0.50528861777E+02  0.30000005858E+02 0.  0.
         12    1    1    2    0    0  0.22012197083E+02 -0.75416441316E+01 -0.33342949845E+02  0.40659138223E+02  0.00000000000E+00 0. -1.
         11    1    3    3    0    0  0.30896248793E+01 -0.64188103288E+01  0.27602082205E+01  0.76397419861E+01  0.51100000000E-03 0. -1.
        -11    1    3    3    0    0 -0.31920958094E+01  0.45806508541E+01  0.26791875113E+01  0.61927283071E+01  0.51100000000E-03 0.  1.
         12    1    3    3    0    0 -0.21909726153E+02  0.93798036063E+01  0.27903554113E+02  0.36696391484E+02  0.00000000000E+00 0. -1.
</event>
<event>
 7    1  0.5849044E-013  0.5052888E+02  0.7816164E-02  0.1300439E+00
        -11   -1    0    0    0    0  0.00000000000E+00  0.00000000000E+00  0.45593999997E+02  0.45594000000E+02  0.51100000000E-03 0.  1.
         11   -1    0    0    0    0 -0.00000000000E+00 -0.00000000000E+00 -0.45593999997E+02  0.45594000000E+02  0.51100000000E-03 0. -1.
    9900012    2    1    2    0    0  0.13521216849E+02 -0.63111506594E+01  0.37822086454E+02  0.50528878619E+02  0.30000057050E+02 0.  0.
         12    1    1    2    0    0 -0.13521216849E+02  0.63111506594E+01 -0.37822086454E+02  0.40659121381E+02  0.00000000000E+00 0. -1.
         11    1    3    3    0    0  0.18736468182E+01  0.75128008819E+00 -0.21611616090E+01  0.29572950363E+01  0.51100000000E-03 0. -1.
        -11    1    3    3    0    0  0.15039270002E+02 -0.85885467578E+01  0.40275099752E+02  0.43840921955E+02  0.51100000000E-03 0.  1.
        -12    1    3    3    0    0 -0.33916999711E+01  0.15261160102E+01 -0.29185168845E+00  0.37306616275E+01  0.00000000000E+00 0.  1.
</event>
<event>
 7    1  0.5849044E-013  0.5052886E+02  0.7816164E-02  0.1300439E+00
        -11   -1    0    0    0    0  0.00000000000E+00  0.00000000000E+00  0.45593999997E+02  0.45594000000E+02  0.51100000000E-03 0. -1.
         11   -1    0    0    0    0 -0.00000000000E+00 -0.00000000000E+00 -0.45593999997E+02  0.45594000000E+02  0.51100000000E-03 0.  1.
    9900012    2    1    2    0    0  0.13501893433E+00  0.40407347570E+02 -0.45159562060E+01  0.50528857999E+02  0.29999994375E+02 0.  0.
         12    1    1    2    0    0 -0.13501893433E+00 -0.40407347570E+02  0.45159562060E+01  0.40659142001E+02  0.00000000000E+00 0. -1.
         11    1    3    3    0    0 -0.42386264461E+01  0.25223492142E+02  0.10020503511E+02  0.27470001835E+02  0.51100000000E-03 0. -1.
        -11    1    3    3    0    0  0.42609315965E+01  0.71844283936E+01 -0.12086313508E+02  0.14691852296E+02  0.51100000000E-03 0.  1.
         12    1    3    3    0    0  0.11271378392E+00  0.79994270350E+01 -0.24501462088E+01  0.83670038682E+01  0.00000000000E+00 0. -1.
</event>
<event>
 7    1  0.5849044E-013  0.5052886E+02  0.7816164E-02  0.1300439E+00
        -11   -1    0    0    0    0  0.00000000000E+00  0.00000000000E+00  0.45593999997E+02  0.45594000000E+02  0.51100000000E-03 0. -1.
         11   -1    0    0    0    0 -0.00000000000E+00 -0.00000000000E+00 -0.45593999997E+02  0.45594000000E+02  0.51100000000E-03 0.  1.
    9900012    2    1    2    0    0 -0.21566672167E+02 -0.25176161716E+02 -0.23541563538E+02  0.50528859811E+02  0.29999999882E+02 0.  0.
         12    1    1    2    0    0  0.21566672167E+02  0.25176161716E+02  0.23541563538E+02  0.40659140189E+02  0.00000000000E+00 0. -1.
         11    1    3    3    0    0  0.14156806263E+00 -0.28077530414E+01 -0.80928828201E+01  0.85672791047E+01  0.51100000000E-03 0. -1.
        -11    1    3    3    0    0 -0.14440674345E+02 -0.32578521907E+01  0.21825083111E+01  0.14963623199E+02  0.51100000000E-03 0.  1.
        -12    1    3    3    0    0 -0.72675658839E+01 -0.19110556484E+02 -0.17631189029E+02  0.26997957508E+02  0.00000000000E+00 0.  1.
</event>
<event>
 7    1  0.5849044E-013  0.5052886E+02  0.7816164E-02  0.1300439E+00
        -11   -1    0    0    0    0  0.00000000000E+00  0.00000000000E+00  0.45593999997E+02  0.45594000000E+02  0.51100000000E-03 0.  1.
         11   -1    0    0    0    0 -0.00000000000E+00 -0.00000000000E+00 -0.45593999997E+02  0.45594000000E+02  0.51100000000E-03 0. -1.
    9900012    2    1    2    0    0  0.83083915541E+01 -0.35131939453E+02  0.18705162690E+02  0.50528860176E+02  0.30000000992E+02 0.  0.
         12    1    1    2    0    0 -0.83083915541E+01  0.35131939453E+02 -0.18705162690E+02  0.40659139824E+02  0.00000000000E+00 0. -1.
         11    1    3    3    0    0 -0.38911737779E+01 -0.13814802434E+02 -0.41808687236E+01  0.14948901739E+02  0.51100000000E-03 0. -1.
        -11    1    3    3    0    0  0.66432611811E+01 -0.95279708979E+01  0.18470947521E+02  0.21819510791E+02  0.51100000000E-03 0.  1.
         12    1    3    3    0    0  0.55563041508E+01 -0.11789166122E+02  0.44150838916E+01  0.13760447647E+02  0.00000000000E+00 0. -1.
</event>
<event>
 7    1  0.5849044E-013  0.5052886E+02  0.7816164E-02  0.1300439E+00
        -11   -1    0    0    0    0  0.00000000000E+00  0.00000000000E+00  0.45593999997E+02  0.45594000000E+02  0.51100000000E-03 0.  1.
         11   -1    0    0    0    0 -0.00000000000E+00 -0.00000000000E+00 -0.45593999997E+02  0.45594000000E+02  0.51100000000E-03 0. -1.
    9900012    2    1    2    0    0  0.26328073212E+02  0.50734695156E+01  0.30565639468E+02  0.50528857755E+02  0.29999993633E+02 0.  0.
         12    1    1    2    0    0 -0.26328073212E+02 -0.50734695156E+01 -0.30565639468E+02  0.40659142245E+02  0.00000000000E+00 0. -1.
         11    1    3    3    0    0  0.28097283569E+02  0.37491465215E+01  0.13816772282E+02  0.31534372361E+02  0.51100000000E-03 0. -1.
        -11    1    3    3    0    0  0.19997366410E+01  0.26572073277E+01  0.24054274433E+01  0.41043609566E+01  0.51100000000E-03 0.  1.
         12    1    3    3    0    0 -0.37689469987E+01 -0.13328843336E+01  0.14343439743E+02  0.14890124438E+02  0.00000000000E+00 0. -1.
</event>
<event>
 7    1  0.5849044E-013  0.5052886E+02  0.7816164E-02  0.1300439E+00
        -11   -1    0    0    0    0  0.00000000000E+00  0.00000000000E+00  0.45593999997E+02  0.45594000000E+02  0.51100000000E-03 0. -1.
         11   -1    0    0    0    0 -0.00000000000E+00 -0.00000000000E+00 -0.45593999997E+02  0.45594000000E+02  0.51100000000E-03 0.  1.
    9900012    2    1    2    0    0  0.39506882136E+02 -0.63877088542E+01 -0.71811911435E+01  0.50528855067E+02  0.29999985460E+02 0.  0.
         12    1    1    2    0    0 -0.39506882136E+02  0.63877088542E+01  0.71811911435E+01  0.40659144933E+02  0.00000000000E+00 0. -1.
         11    1    3    3    0    0 -0.21172149096E+01 -0.33825023297E+01 -0.30141855355E+01  0.50009234835E+01  0.51100000000E-03 0. -1.
        -11    1    3    3    0    0  0.27038924228E+02  0.62525139694E+01 -0.51439626938E+01  0.28225125453E+02  0.51100000000E-03 0.  1.
        -12    1    3    3    0    0  0.14585172817E+02 -0.92577204939E+01  0.97695708585E+00  0.17302806131E+02  0.00000000000E+00 0.  1.
</event>
<event>
 7    1  0.5849044E-013  0.5052886E+02  0.7816164E-02  0.1300439E+00
        -11   -1    0    0    0    0  0.00000000000E+00  0.00000000000E+00  0.45593999997E+02  0.45594000000E+02  0.51100000000E-03 0.  1.
         11   -1    0    0    0    0 -0.00000000000E+00 -0.00000000000E+00 -0.45593999997E+02  0.45594000000E+02  0.51100000000E-03 0. -1.
    9900012    2    1    2    0    0  0.30936619606E+02 -0.21222903128E+02  0.15674161411E+02  0.50528863440E+02  0.30000010912E+02 0.  0.
         12    1    1    2    0    0 -0.30936619606E+02  0.21222903128E+02 -0.15674161411E+02  0.40659136560E+02  0.00000000000E+00 0. -1.
         11    1    3    3    0    0 -0.36600250403E+01 -0.78499542409E+01 -0.95825460773E+00  0.87141159640E+01  0.51100000000E-03 0. -1.
        -11    1    3    3    0    0  0.65427087746E+01 -0.68097632812E+01  0.27668422942E+01  0.98404944285E+01  0.51100000000E-03 0.  1.
         12    1    3    3    0    0  0.28053935872E+02 -0.65631856060E+01  0.13865573725E+02  0.31974253047E+02  0.00000000000E+00 0. -1.
</event>
<event>
 7    1  0.5849044E-013  0.5052886E+02  0.7816164E-02  0.1300439E+00
        -11   -1    0    0    0    0  0.00000000000E+00  0.00000000000E+00  0.45593999997E+02  0.45594000000E+02  0.51100000000E-03 0. -1.
         11   -1    0    0    0    0 -0.00000000000E+00 -0.00000000000E+00 -0.45593999997E+02  0.45594000000E+02  0.51100000000E-03 0.  1.
    9900012    2    1    2    0    0 -0.31688052196E+02  0.21062215643E+02  0.14332341754E+02  0.50528860807E+02  0.30000002909E+02 0.  0.
         12    1    1    2    0    0  0.31688052196E+02 -0.21062215643E+02 -0.14332341754E+02  0.40659139193E+02  0.00000000000E+00 0. -1.
         11    1    3    3    0    0 -0.38625480907E+01  0.14623322168E+02  0.15571852603E+02  0.21708141853E+02  0.51100000000E-03 0. -1.
        -11    1    3    3    0    0 -0.83200968855E+01  0.19370666380E+01 -0.20536466660E+01  0.87859947777E+01  0.51100000000E-03 0.  1.
         12    1    3    3    0    0 -0.19505407220E+02  0.45018268370E+01  0.81413581715E+00  0.20034724176E+02  0.00000000000E+00 0. -1.
</event>
<event>
 7    1  0.5849044E-013  0.5052886E+02  0.7816164E-02  0.1300439E+00
        -11   -1    0    0    0    0  0.00000000000E+00  0.00000000000E+00  0.45593999997E+02  0.45594000000E+02  0.51100000000E-03 0.  1.
         11   -1    0    0    0    0 -0.00000000000E+00 -0.00000000000E+00 -0.45593999997E+02  0.45594000000E+02  0.51100000000E-03 0. -1.
    9900012    2    1    2    0    0 -0.25536956204E+02  0.30244163907E+02 -0.92908728295E+01  0.50528857110E+02  0.29999991672E+02 0.  0.
         12    1    1    2    0    0  0.25536956204E+02 -0.30244163907E+02  0.92908728295E+01  0.40659142890E+02  0.00000000000E+00 0. -1.
         11    1    3    3    0    0 -0.30284169142E+02  0.28142874353E+02 -0.12259765686E+02  0.43121388340E+02  0.51100000000E-03 0. -1.
        -11    1    3    3    0    0  0.40920451753E+01  0.31503746703E+01  0.32980655929E+01  0.61275550750E+01  0.51100000000E-03 0.  1.
         12    1    3    3    0    0  0.65516776273E+00 -0.10490851154E+01 -0.32917273688E+00  0.12799136953E+01  0.00000000000E+00 0. -1.
</event>
<event>
 7    1  0.5849044E-013  0.5052886E+02  0.7816164E-02  0.1300439E+00
        -11   -1    0    0    0    0  0.00000000000E+00  0.00000000000E+00  0.45593999997E+02  0.45594000000E+02  0.51100000000E-03 0. -1.
         11   -1    0    0    0    0 -0.00000000000E+00 -0.00000000000E+00 -0.45593999997E+02  0.45594000000E+02  0.51100000000E-03 0.  1.
    9900012    2    1    2    0    0 -0.34340322280E+02 -0.18086330631E+02  0.12115806967E+02  0.50528857505E+02  0.29999992871E+02 0.  0.
         12    1    1    2    0    0  0.34340322280E+02  0.18086330631E+02 -0.12115806967E+02  0.40659142495E+02  0.00000000000E+00 0. -1.
         11    1    3    3    0    0 -0.11327653274E+02 -0.10672322262E+02  0.11261328875E+02  0.19210198318E+02  0.51100000000E-03 0. -1.
        -11    1    3    3    0    0 -0.12468977529E+02 -0.35205227448E+01 -0.94766710836E+01  0.16052313731E+02  0.51100000000E-03 0.  1.
        -12    1    3    3    0    0 -0.10543691477E+02 -0.38934856242E+01  0.10331149176E+02  0.15266345456E+02  0.00000000000E+00 0.  1.
</event>
<event>
 7    1  0.5849044E-013  0.5052886E+02  0.7816164E-02  0.1300439E+00
        -11   -1    0    0    0    0  0.00000000000E+00  0.00000000000E+00  0.45593999997E+02  0.45594000000E+02  0.51100000000E-03 0.  1.
         11   -1    0    0    0    0 -0.00000000000E+00 -0.00000000000E+00 -0.45593999997E+02  0.45594000000E+02  0.51100000000E-03 0. -1.
    9900012    2    1    2    0    0  0.76799947598E+01 -0.37427599489E+02 -0.13905328579E+02  0.50528859750E+02  0.29999999696E+02 0.  0.
         12    1    1    2    0    0 -0.76799947598E+01  0.37427599489E+02  0.13905328579E+02  0.40659140250E+02  0.00000000000E+00 0. -1.
         11    1    3    3    0    0  0.13100928034E+02 -0.15446530393E+02 -0.46051261619E-01  0.20254178273E+02  0.51100000000E-03 0.  1.
        -11    1    3    3    0    0 -0.29857929981E+01  0.19287742555E+00 -0.58543663814E+01  0.65746305993E+01  0.51100000000E-03 0. -1.
        -12    1    3    3    0    0 -0.24351402765E+01 -0.22173946522E+02 -0.80049109361E+01  0.23700050878E+02  0.00000000000E+00 0.  1.
</event>
<event>
 7    1  0.5849044E-013  0.5052886E+02  0.7816164E-02  0.1300439E+00
        -11   -1    0    0    0    0  0.00000000000E+00  0.00000000000E+00  0.45593999997E+02  0.45594000000E+02  0.51100000000E-03 0. -1.
         11   -1    0    0    0    0 -0.00000000000E+00 -0.00000000000E+00 -0.45593999997E+02  0.45594000000E+02  0.51100000000E-03 0.  1.
    9900012    2    1    2    0    0  0.35250412700E+02 -0.14649905658E+02  0.13998359840E+02  0.50528863149E+02  0.30000010028E+02 0.  0.
         12    1    1    2    0    0 -0.35250412700E+02  0.14649905658E+02 -0.13998359840E+02  0.40659136851E+02  0.00000000000E+00 0. -1.
         11    1    3    3    0    0 -0.10331625564E+01 -0.40575484185E+01 -0.45242529007E+01  0.61644130788E+01  0.51100000000E-03 0. -1.
        -11    1    3    3    0    0  0.32486778327E+02 -0.90709724362E+01  0.10443952615E+02  0.35309339466E+02  0.51100000000E-03 0.  1.
         12    1    3    3    0    0  0.37967969288E+01 -0.15213848030E+01  0.80786601256E+01  0.90551106046E+01  0.00000000000E+00 0. -1.
</event>
<event>
 7    1  0.5849044E-013  0.5052890E+02  0.7816164E-02  0.1300439E+00
        -11   -1    0    0    0    0  0.00000000000E+00  0.00000000000E+00  0.45593999997E+02  0.45594000000E+02  0.51100000000E-03 0. -1.
         11   -1    0    0    0    0 -0.00000000000E+00 -0.00000000000E+00 -0.45593999997E+02  0.45594000000E+02  0.51100000000E-03 0.  1.
    9900012    2    1    2    0    0 -0.45392819418E+01 -0.40336438023E+02  0.23514042642E+01  0.50528899973E+02  0.30000121959E+02 0.  0.
         12    1    1    2    0    0  0.45392819418E+01  0.40336438023E+02 -0.23514042642E+01  0.40659100027E+02  0.00000000000E+00 0. -1.
         11    1    3    3    0    0  0.19779910906E+01 -0.11182466639E+02  0.13145843714E+02  0.17371620998E+02  0.51100000000E-03 0. -1.
        -11    1    3    3    0    0 -0.48457850601E+00 -0.13795251884E+02 -0.71698366643E+00  0.13822367985E+02  0.51100000000E-03 0.  1.
         12    1    3    3    0    0 -0.60326945264E+01 -0.15358719499E+02 -0.10077455784E+02  0.19334910990E+02  0.00000000000E+00 0. -1.
</event>
<event>
 7    1  0.5849044E-013  0.5052884E+02  0.7816164E-02  0.1300439E+00
        -11   -1    0    0    0    0  0.00000000000E+00  0.00000000000E+00  0.45593999997E+02  0.45594000000E+02  0.51100000000E-03 0.  1.
         11   -1    0    0    0    0 -0.00000000000E+00 -0.00000000000E+00 -0.45593999997E+02  0.45594000000E+02  0.51100000000E-03 0. -1.
    9900012    2    1    2    0    0 -0.11233727722E+02  0.36143716898E+02  0.14852680279E+02  0.50528843328E+02  0.29999949781E+02 0.  0.
         12    1    1    2    0    0  0.11233727722E+02 -0.36143716898E+02 -0.14852680279E+02  0.40659156672E+02  0.00000000000E+00 0. -1.
         11    1    3    3    0    0 -0.82722053118E+01  0.16036338687E+02  0.17024762360E+01  0.18124347293E+02  0.51100000000E-03 0. -1.
        -11    1    3    3    0    0  0.43169547441E+00 -0.25325499585E+01  0.87153126917E+01  0.90860797845E+01  0.51100000000E-03 0.  1.
        -12    1    3    3    0    0 -0.33932178849E+01  0.22639928170E+02  0.44348913513E+01  0.23318416251E+02  0.00000000000E+00 0.  1.
</event>
<event>
 7    1  0.5849044E-013  0.5052886E+02  0.7816164E-02  0.1300439E+00
        -11   -1    0    0    0    0  0.00000000000E+00  0.00000000000E+00  0.45593999997E+02  0.45594000000E+02  0.51100000000E-03 0. -1.
         11   -1    0    0    0    0 -0.00000000000E+00 -0.00000000000E+00 -0.45593999997E+02  0.45594000000E+02  0.51100000000E-03 0.  1.
    9900012    2    1    2    0    0 -0.31266360473E+02 -0.24122577075E+02 -0.96789336063E+01  0.50528858621E+02  0.29999996263E+02 0.  0.
         12    1    1    2    0    0  0.31266360473E+02  0.24122577075E+02  0.96789336063E+01  0.40659141379E+02  0.00000000000E+00 0. -1.
         11    1    3    3    0    0 -0.34582070527E+01 -0.74137672807E+01  0.69355114934E+01  0.10724945746E+02  0.51100000000E-03 0. -1.
        -11    1    3    3    0    0 -0.21684881091E+02 -0.66385707300E+01 -0.16451410925E+02  0.28017023592E+02  0.51100000000E-03 0.  1.
        -12    1    3    3    0    0 -0.61232723290E+01 -0.10070239064E+02 -0.16303417450E+00  0.11786889283E+02  0.00000000000E+00 0.  1.
</event>
<event>
 7    1  0.5849044E-013  0.5052885E+02  0.7816164E-02  0.1300439E+00
        -11   -1    0    0    0    0  0.00000000000E+00  0.00000000000E+00  0.45593999997E+02  0.45594000000E+02  0.51100000000E-03 0.  1.
         11   -1    0    0    0    0 -0.00000000000E+00 -0.00000000000E+00 -0.45593999997E+02  0.45594000000E+02  0.51100000000E-03 0. -1.
    9900012    2    1    2    0    0 -0.28132792966E+02 -0.25311399361E+02 -0.14867589092E+02  0.50528853636E+02  0.29999981111E+02 0.  0.
         12    1    1    2    0    0  0.28132792966E+02  0.25311399361E+02  0.14867589092E+02  0.40659146364E+02  0.00000000000E+00 0. -1.
         11    1    3    3    0    0 -0.10862311109E+02 -0.15298862590E+02 -0.17619813828E+02  0.25739130498E+02  0.51100000000E-03 0. -1.
        -11    1    3    3    0    0 -0.17339597586E+02 -0.12950647452E+02  0.18775415917E+01  0.21723399286E+02  0.51100000000E-03 0.  1.
         12    1    3    3    0    0  0.69115728733E-01  0.29381106813E+01  0.87468314457E+00  0.30663238516E+01  0.00000000000E+00 0. -1.
</event>
<event>
 7    1  0.5849044E-013  0.5052886E+02  0.7816164E-02  0.1300439E+00
        -11   -1    0    0    0    0  0.00000000000E+00  0.00000000000E+00  0.45593999997E+02  0.45594000000E+02  0.51100000000E-03 0.  1.
         11   -1    0    0    0    0 -0.00000000000E+00 -0.00000000000E+00 -0.45593999997E+02  0.45594000000E+02  0.51100000000E-03 0. -1.
    9900012    2    1    2    0    0  0.45146699486E+01 -0.36056752719E+02  0.18239901452E+02  0.50528859989E+02  0.30000000424E+02 0.  0.
         12    1    1    2    0    0 -0.45146699486E+01  0.36056752719E+02 -0.18239901452E+02  0.40659140011E+02  0.00000000000E+00 0. -1.
         11    1    3    3    0    0  0.13222100988E+02 -0.22121767806E+02  0.12397827345E+02  0.28598998034E+02  0.51100000000E-03 0. -1.
        -11    1    3    3    0    0 -0.30675967407E+01 -0.11786540314E+02  0.89760080974E+01  0.15129487895E+02  0.51100000000E-03 0.  1.
         12    1    3    3    0    0 -0.56398342985E+01 -0.21484445989E+01 -0.31339339899E+01  0.68003740604E+01  0.00000000000E+00 0. -1.
</event>
<event>
 7    1  0.5849044E-013  0.5052886E+02  0.7816164E-02  0.1300439E+00
        -11   -1    0    0    0    0  0.00000000000E+00  0.00000000000E+00  0.45593999997E+02  0.45594000000E+02  0.51100000000E-03 0.  1.
         11   -1    0    0    0    0 -0.00000000000E+00 -0.00000000000E+00 -0.45593999997E+02  0.45594000000E+02  0.51100000000E-03 0. -1.
    9900012    2    1    2    0    0 -0.17300146444E+02 -0.34524380567E+02  0.12725467241E+02  0.50528862810E+02  0.30000008998E+02 0.  0.
         12    1    1    2    0    0  0.17300146444E+02  0.34524380567E+02 -0.12725467241E+02  0.40659137190E+02  0.00000000000E+00 0. -1.
         11    1    3    3    0    0 -0.22306082418E+01 -0.13872624793E+02 -0.22426806136E+01  0.14228666430E+02  0.51100000000E-03 0. -1.
        -11    1    3    3    0    0 -0.11324676290E+02 -0.32652975801E+01  0.14260954543E+02  0.18500953654E+02  0.51100000000E-03 0.  1.
        -12    1    3    3    0    0 -0.37448619114E+01 -0.17386458194E+02  0.70719331210E+00  0.17799242727E+02  0.00000000000E+00 0.  1.
</event>
<event>
 7    1  0.5849044E-013  0.5052886E+02  0.7816164E-02  0.1300439E+00
        -11   -1    0    0    0    0  0.00000000000E+00  0.00000000000E+00  0.45593999997E+02  0.45594000000E+02  0.51100000000E-03 0. -1.
         11   -1    0    0    0    0 -0.00000000000E+00 -0.00000000000E+00 -0.45593999997E+02  0.45594000000E+02  0.51100000000E-03 0.  1.
    9900012    2    1    2    0    0  0.14971935111E+02  0.37726803448E+02  0.23864750213E+01  0.50528858317E+02  0.29999995339E+02 0.  0.
         12    1    1    2    0    0 -0.14971935111E+02 -0.37726803448E+02 -0.23864750213E+01  0.40659141683E+02  0.00000000000E+00 0. -1.
         11    1    3    3    0    0  0.74595013655E+01  0.19453867258E+01 -0.27314828384E+01  0.81786116727E+01  0.51100000000E-03 0. -1.
        -11    1    3    3    0    0 -0.14814457941E+01  0.19161333684E+02  0.11509202035E+02  0.22401185726E+02  0.51100000000E-03 0.  1.
        -12    1    3    3    0    0  0.89938795400E+01  0.16620083038E+02 -0.63912441755E+01  0.19949060917E+02  0.00000000000E+00 0.  1.
</event>
<event>
 7    1  0.5849044E-013  0.5052885E+02  0.7816164E-02  0.1300439E+00
        -11   -1    0    0    0    0  0.00000000000E+00  0.00000000000E+00  0.45593999997E+02  0.45594000000E+02  0.51100000000E-03 0.  1.
         11   -1    0    0    0    0 -0.00000000000E+00 -0.00000000000E+00 -0.45593999997E+02  0.45594000000E+02  0.51100000000E-03 0. -1.
    9900012    2    1    2    0    0  0.90901033286E+01  0.21635833693E+02  0.33202815092E+02  0.50528853327E+02  0.29999980172E+02 0.  0.
         12    1    1    2    0    0 -0.90901033286E+01 -0.21635833693E+02 -0.33202815092E+02  0.40659146673E+02  0.00000000000E+00 0. -1.
         11    1    3    3    0    0  0.46602901200E+01 -0.50584030447E+01  0.40190089705E+01  0.79660641933E+01  0.51100000000E-03 0. -1.
        -11    1    3    3    0    0  0.21901769882E+00  0.73181440288E+01  0.50007111247E-01  0.73215914767E+01  0.51100000000E-03 0.  1.
         12    1    3    3    0    0  0.42107955098E+01  0.19376092709E+02  0.29133799011E+02  0.35241197657E+02  0.00000000000E+00 0. -1.
</event>
<event>
 7    1  0.5849044E-013  0.5052886E+02  0.7816164E-02  0.1300439E+00
        -11   -1    0    0    0    0  0.00000000000E+00  0.00000000000E+00  0.45593999997E+02  0.45594000000E+02  0.51100000000E-03 0. -1.
         11   -1    0    0    0    0 -0.00000000000E+00 -0.00000000000E+00 -0.45593999997E+02  0.45594000000E+02  0.51100000000E-03 0.  1.
    9900012    2    1    2    0    0 -0.37665576592E+02 -0.53245872699E+01 -0.14356831343E+02  0.50528862087E+02  0.30000006799E+02 0.  0.
         12    1    1    2    0    0  0.37665576592E+02  0.53245872699E+01  0.14356831343E+02  0.40659137913E+02  0.00000000000E+00 0. -1.
         11    1    3    3    0    0 -0.11382735854E+02 -0.14993812742E+02 -0.26829421969E+01  0.19015237973E+02  0.51100000000E-03 0. -1.
        -11    1    3    3    0    0 -0.12324518070E+02  0.63948127305E+01 -0.99310765443E+01  0.17070842308E+02  0.51100000000E-03 0.  1.
        -12    1    3    3    0    0 -0.13958322668E+02  0.32744127420E+01 -0.17428126022E+01  0.14442781806E+02  0.00000000000E+00 0.  1.
</event>
<event>
 7    1  0.5849044E-013  0.5052885E+02  0.7816164E-02  0.1300439E+00
        -11   -1    0    0    0    0  0.00000000000E+00  0.00000000000E+00  0.45593999997E+02  0.45594000000E+02  0.51100000000E-03 0.  1.
         11   -1    0    0    0    0 -0.00000000000E+00 -0.00000000000E+00 -0.45593999997E+02  0.45594000000E+02  0.51100000000E-03 0. -1.
    9900012    2    1    2    0    0  0.13400691536E+02 -0.65804320148E+00  0.38381695694E+02  0.50528854426E+02  0.29999983512E+02 0.  0.
         12    1    1    2    0    0 -0.13400691536E+02  0.65804320148E+00 -0.38381695694E+02  0.40659145574E+02  0.00000000000E+00 0. -1.
         11    1    3    3    0    0  0.13168477222E+02  0.38319958019E+01  0.24752950203E+02  0.28298436851E+02  0.51100000000E-03 0.  1.
        -11    1    3    3    0    0 -0.74062437509E+01  0.79181061256E+00  0.94878418190E+01  0.12062278109E+02  0.51100000000E-03 0. -1.
        -12    1    3    3    0    0  0.76384580644E+01 -0.52818496159E+01  0.41409036717E+01  0.10168139465E+02  0.00000000000E+00 0.  1.
</event>
<event>
 7    1  0.5849044E-013  0.5052886E+02  0.7816164E-02  0.1300439E+00
        -11   -1    0    0    0    0  0.00000000000E+00  0.00000000000E+00  0.45593999997E+02  0.45594000000E+02  0.51100000000E-03 0.  1.
         11   -1    0    0    0    0 -0.00000000000E+00 -0.00000000000E+00 -0.45593999997E+02  0.45594000000E+02  0.51100000000E-03 0. -1.
    9900012    2    1    2    0    0  0.33993795176E+02 -0.26281957707E+01  0.22151297657E+02  0.50528861896E+02  0.30000006220E+02 0.  0.
         12    1    1    2    0    0 -0.33993795176E+02  0.26281957707E+01 -0.22151297657E+02  0.40659138104E+02  0.00000000000E+00 0. -1.
         11    1    3    3    0    0  0.87998290102E+00 -0.54486206484E+01  0.13923810592E+02  0.14977794849E+02  0.51100000000E-03 0. -1.
        -11    1    3    3    0    0  0.27791274226E+02  0.16290813629E+01  0.10346763123E+02  0.29699567952E+02  0.51100000000E-03 0.  1.
         12    1    3    3    0    0  0.53225380489E+01  0.11913435148E+01 -0.21192760578E+01  0.58514990952E+01  0.00000000000E+00 0. -1.
</event>
<event>
 7    1  0.5849044E-013  0.5052886E+02  0.7816164E-02  0.1300439E+00
        -11   -1    0    0    0    0  0.00000000000E+00  0.00000000000E+00  0.45593999997E+02  0.45594000000E+02  0.51100000000E-03 0. -1.
         11   -1    0    0    0    0 -0.00000000000E+00 -0.00000000000E+00 -0.45593999997E+02  0.45594000000E+02  0.51100000000E-03 0.  1.
    9900012    2    1    2    0    0  0.23863682027E+02 -0.10380115542E+02  0.31240094196E+02  0.50528860758E+02  0.30000002760E+02 0.  0.
         12    1    1    2    0    0 -0.23863682027E+02  0.10380115542E+02 -0.31240094196E+02  0.40659139242E+02  0.00000000000E+00 0. -1.
         11    1    3    3    0    0 -0.33308992306E+01 -0.49122547294E+01  0.99328094754E+01  0.11570904915E+02  0.51100000000E-03 0. -1.
        -11    1    3    3    0    0  0.12316386005E+02  0.51655735535E+01  0.44259987459E+01  0.14070038363E+02  0.51100000000E-03 0.  1.
        -12    1    3    3    0    0  0.14878195252E+02 -0.10633434366E+02  0.16881285975E+02  0.24887917481E+02  0.00000000000E+00 0.  1.
</event>
<event>
 7    1  0.5849044E-013  0.5052883E+02  0.7816164E-02  0.1300439E+00
        -11   -1    0    0    0    0  0.00000000000E+00  0.00000000000E+00  0.45593999997E+02  0.45594000000E+02  0.51100000000E-03 0.  1.
         11   -1    0    0    0    0 -0.00000000000E+00 -0.00000000000E+00 -0.45593999997E+02  0.45594000000E+02  0.51100000000E-03 0. -1.
    9900012    2    1    2    0    0  0.13367606954E+02 -0.10967821962E+02  0.36799208542E+02  0.50528833954E+02  0.29999921285E+02 0.  0.
         12    1    1    2    0    0 -0.13367606954E+02  0.10967821962E+02 -0.36799208542E+02  0.40659166046E+02  0.00000000000E+00 0. -1.
         11    1    3    3    0    0 -0.27520296235E+00  0.20992696694E+01 -0.32228882646E+01  0.38561222546E+01  0.51100000000E-03 0. -1.
        -11    1    3    3    0    0  0.29576270237E+01 -0.12792224443E+02  0.19087195027E+02  0.23166993290E+02  0.51100000000E-03 0.  1.
         12    1    3    3    0    0  0.10685182893E+02 -0.27486718763E+00  0.20934901779E+02  0.23505718409E+02  0.00000000000E+00 0. -1.
</event>
<event>
 7    1  0.5849044E-013  0.5052887E+02  0.7816164E-02  0.1300439E+00
        -11   -1    0    0    0    0  0.00000000000E+00  0.00000000000E+00  0.45593999997E+02  0.45594000000E+02  0.51100000000E-03 0.  1.
         11   -1    0    0    0    0 -0.00000000000E+00 -0.00000000000E+00 -0.45593999997E+02  0.45594000000E+02  0.51100000000E-03 0. -1.
    9900012    2    1    2    0    0  0.34267925620E+02 -0.18422139291E+02  0.11810956539E+02  0.50528872652E+02  0.30000038913E+02 0.  0.
         12    1    1    2    0    0 -0.34267925620E+02  0.18422139291E+02 -0.11810956539E+02  0.40659127348E+02  0.00000000000E+00 0. -1.
         11    1    3    3    0    0  0.45835092157E+01 -0.10426218822E+02  0.11661114993E+02  0.16300190146E+02  0.51100000000E-03 0.  1.
        -11    1    3    3    0    0  0.22860076830E+02 -0.10326789077E+02 -0.47232028417E+01  0.25525170531E+02  0.51100000000E-03 0. -1.
        -12    1    3    3    0    0  0.68243395743E+01  0.23308686077E+01  0.48730443884E+01  0.87035119752E+01  0.00000000000E+00 0.  1.
</event>
<event>
 7    1  0.5849044E-013  0.5052888E+02  0.7816164E-02  0.1300439E+00
        -11   -1    0    0    0    0  0.00000000000E+00  0.00000000000E+00  0.45593999997E+02  0.45594000000E+02  0.51100000000E-03 0.  1.
         11   -1    0    0    0    0 -0.00000000000E+00 -0.00000000000E+00 -0.45593999997E+02  0.45594000000E+02  0.51100000000E-03 0. -1.
    9900012    2    1    2    0    0  0.33428773184E+02 -0.22042978617E+02  0.70560666465E+01  0.50528882211E+02  0.30000067967E+02 0.  0.
         12    1    1    2    0    0 -0.33428773184E+02  0.22042978617E+02 -0.70560666465E+01  0.40659117789E+02  0.00000000000E+00 0. -1.
         11    1    3    3    0    0 -0.34988669550E+01  0.66725204419E+00  0.10014564879E+01  0.37000284617E+01  0.51100000000E-03 0. -1.
        -11    1    3    3    0    0  0.28570126709E+02 -0.17389143809E+02  0.11690661410E+02  0.35430298151E+02  0.51100000000E-03 0.  1.
        -12    1    3    3    0    0  0.83575134295E+01 -0.53210868521E+01 -0.56360512514E+01  0.11398555598E+02  0.00000000000E+00 0.  1.
</event>
<event>
 7    1  0.5849044E-013  0.5052886E+02  0.7816164E-02  0.1300439E+00
        -11   -1    0    0    0    0  0.00000000000E+00  0.00000000000E+00  0.45593999997E+02  0.45594000000E+02  0.51100000000E-03 0. -1.
         11   -1    0    0    0    0 -0.00000000000E+00 -0.00000000000E+00 -0.45593999997E+02  0.45594000000E+02  0.51100000000E-03 0.  1.
    9900012    2    1    2    0    0 -0.25154283013E+02  0.14985356538E+02 -0.28211107626E+02  0.50528862553E+02  0.30000008216E+02 0.  0.
         12    1    1    2    0    0  0.25154283013E+02 -0.14985356538E+02  0.28211107626E+02  0.40659137447E+02  0.00000000000E+00 0. -1.
         11    1    3    3    0    0 -0.19857908031E+01  0.75664653985E+01 -0.12551727278E+02  0.14789882408E+02  0.51100000000E-03 0. -1.
        -11    1    3    3    0    0 -0.26441759748E+02  0.37860449045E+01 -0.15420815406E+02  0.30843189567E+02  0.51100000000E-03 0.  1.
        -12    1    3    3    0    0  0.32732675391E+01  0.36328462349E+01 -0.23856494296E+00  0.48957905777E+01  0.00000000000E+00 0.  1.
</event>
<event>
 7    1  0.5849044E-013  0.5052886E+02  0.7816164E-02  0.1300439E+00
        -11   -1    0    0    0    0  0.00000000000E+00  0.00000000000E+00  0.45593999997E+02  0.45594000000E+02  0.51100000000E-03 0.  1.
         11   -1    0    0    0    0 -0.00000000000E+00 -0.00000000000E+00 -0.45593999997E+02  0.45594000000E+02  0.51100000000E-03 0. -1.
    9900012    2    1    2    0    0 -0.11551653895E+02  0.19426153868E+02  0.33798667133E+02  0.50528855127E+02  0.29999985645E+02 0.  0.
         12    1    1    2    0    0  0.11551653895E+02 -0.19426153868E+02 -0.33798667133E+02  0.40659144873E+02  0.00000000000E+00 0. -1.
         11    1    3    3    0    0  0.60700570583E+01  0.57165009524E+01  0.16630364841E+02  0.18603575216E+02  0.51100000000E-03 0. -1.
        -11    1    3    3    0    0 -0.12919624791E+02  0.39344453707E+01  0.16116510509E+02  0.21027089108E+02  0.51100000000E-03 0.  1.
         12    1    3    3    0    0 -0.47020861628E+01  0.97752075449E+01  0.10517917834E+01  0.10898190803E+02  0.00000000000E+00 0. -1.
</event>
<event>
 7    1  0.5849044E-013  0.5052885E+02  0.7816164E-02  0.1300439E+00
        -11   -1    0    0    0    0  0.00000000000E+00  0.00000000000E+00  0.45593999997E+02  0.45594000000E+02  0.51100000000E-03 0.  1.
         11   -1    0    0    0    0 -0.00000000000E+00 -0.00000000000E+00 -0.45593999997E+02  0.45594000000E+02  0.51100000000E-03 0. -1.
    9900012    2    1    2    0    0  0.13716272870E+02 -0.36795494379E+02  0.10541428739E+02  0.50528852593E+02  0.29999977941E+02 0.  0.
         12    1    1    2    0    0 -0.13716272870E+02  0.36795494379E+02 -0.10541428739E+02  0.40659147407E+02  0.00000000000E+00 0. -1.
         11    1    3    3    0    0  0.12424739152E+02 -0.81427357760E+01 -0.46144001108E+01  0.15555416342E+02  0.51100000000E-03 0. -1.
        -11    1    3    3    0    0 -0.12008751018E+01 -0.24486759811E+02  0.16942035347E+02  0.29800605179E+02  0.51100000000E-03 0.  1.
        -12    1    3    3    0    0  0.24924088198E+01 -0.41659987917E+01 -0.17862064969E+01  0.51728310727E+01  0.00000000000E+00 0.  1.
</event>
<event>
 7    1  0.5849044E-013  0.5052886E+02  0.7816164E-02  0.1300439E+00
        -11   -1    0    0    0    0  0.00000000000E+00  0.00000000000E+00  0.45593999997E+02  0.45594000000E+02  0.51100000000E-03 0. -1.
         11   -1    0    0    0    0 -0.00000000000E+00 -0.00000000000E+00 -0.45593999997E+02  0.45594000000E+02  0.51100000000E-03 0.  1.
    9900012    2    1    2    0    0  0.90758722184E+01  0.20405518256E+02 -0.33976591893E+02  0.50528862915E+02  0.30000009317E+02 0.  0.
         12    1    1    2    0    0 -0.90758722184E+01 -0.20405518256E+02  0.33976591893E+02  0.40659137085E+02  0.00000000000E+00 0. -1.
         11    1    3    3    0    0 -0.85199847038E+01  0.32452285309E+01 -0.13077501928E+01  0.92104211847E+01  0.51100000000E-03 0. -1.
        -11    1    3    3    0    0  0.15766620566E+02  0.17240991592E+02 -0.29202151893E+02  0.37397911580E+02  0.51100000000E-03 0.  1.
         12    1    3    3    0    0  0.18292363564E+01 -0.80701866851E-01 -0.34666898075E+01  0.39205301504E+01  0.00000000000E+00 0. -1.
</event>
<event>
 7    1  0.5849044E-013  0.5052886E+02  0.7816164E-02  0.1300439E+00
        -11   -1    0    0    0    0  0.00000000000E+00  0.00000000000E+00  0.45593999997E+02  0.45594000000E+02  0.51100000000E-03 0.  1.
         11   -1    0    0    0    0 -0.00000000000E+00 -0.00000000000E+00 -0.45593999997E+02  0.45594000000E+02  0.51100000000E-03 0. -1.
    9900012    2    1    2    0    0 -0.57013875560E+01 -0.37636215797E+02  0.14288990809E+02  0.50528858126E+02  0.29999994759E+02 0.  0.
         12    1    1    2    0    0  0.57013875560E+01  0.37636215797E+02 -0.14288990809E+02  0.40659141874E+02  0.00000000000E+00 0. -1.
         11    1    3    3    0    0 -0.12686700927E+01 -0.10724789164E+02 -0.67250126569E+01  0.12722280531E+02  0.51100000000E-03 0. -1.
        -11    1    3    3    0    0 -0.45575153162E+01 -0.17790293012E+02  0.21969915634E+02  0.28634640988E+02  0.51100000000E-03 0.  1.
        -12    1    3    3    0    0  0.12479785283E+00 -0.91211336208E+01 -0.95591216798E+00  0.91719366061E+01  0.00000000000E+00 0.  1.
</event>
<event>
 7    1  0.5849044E-013  0.5052886E+02  0.7816164E-02  0.1300439E+00
        -11   -1    0    0    0    0  0.00000000000E+00  0.00000000000E+00  0.45593999997E+02  0.45594000000E+02  0.51100000000E-03 0.  1.
         11   -1    0    0    0    0 -0.00000000000E+00 -0.00000000000E+00 -0.45593999997E+02  0.45594000000E+02  0.51100000000E-03 0. -1.
    9900012    2    1    2    0    0 -0.15250871945E+02 -0.29571843890E+02  0.23368407389E+02  0.50528861912E+02  0.30000006268E+02 0.  0.
         12    1    1    2    0    0  0.15250871945E+02  0.29571843890E+02 -0.23368407389E+02  0.40659138088E+02  0.00000000000E+00 0. -1.
         11    1    3    3    0    0  0.58311292425E+01  0.52177507990E+00  0.61819811938E+01  0.85141769548E+01  0.51100000000E-03 0. -1.
        -11    1    3    3    0    0 -0.12341943663E+02 -0.18359052927E+02  0.16065473321E+02  0.27340040802E+02  0.51100000000E-03 0.  1.
        -12    1    3    3    0    0 -0.87400575241E+01 -0.11734566043E+02  0.11209528744E+01  0.14674644155E+02  0.00000000000E+00 0.  1.
</event>
<event>
 7    1  0.5849044E-013  0.5052885E+02  0.7816164E-02  0.1300439E+00
        -11   -1    0    0    0    0  0.00000000000E+00  0.00000000000E+00  0.45593999997E+02  0.45594000000E+02  0.51100000000E-03 0.  1.
         11   -1    0    0    0    0 -0.00000000000E+00 -0.00000000000E+00 -0.45593999997E+02  0.45594000000E+02  0.51100000000E-03 0. -1.
    9900012    2    1    2    0    0 -0.34490550796E+01 -0.74740050362E+01  0.39817205190E+02  0.50528848984E+02  0.29999966972E+02 0.  0.
         12    1    1    2    0    0  0.34490550796E+01  0.74740050362E+01 -0.39817205190E+02  0.40659151016E+02  0.00000000000E+00 0. -1.
         11    1    3    3    0    0  0.91560306980E+00 -0.14676949879E+02  0.12120630397E+02  0.19056780111E+02  0.51100000000E-03 0. -1.
        -11    1    3    3    0    0  0.10954935908E+01  0.72577008494E+01  0.23399282967E+02  0.24523473886E+02  0.51100000000E-03 0.  1.
        -12    1    3    3    0    0 -0.54601517402E+01 -0.54756006465E-01  0.42972918263E+01  0.69485949865E+01  0.00000000000E+00 0.  1.
</event>
<event>
 7    1  0.5849044E-013  0.5052886E+02  0.7816164E-02  0.1300439E+00
        -11   -1    0    0    0    0  0.00000000000E+00  0.00000000000E+00  0.45593999997E+02  0.45594000000E+02  0.51100000000E-03 0.  1.
         11   -1    0    0    0    0 -0.00000000000E+00 -0.00000000000E+00 -0.45593999997E+02  0.45594000000E+02  0.51100000000E-03 0. -1.
    9900012    2    1    2    0    0 -0.24604180310E+02  0.16634208182E+02  0.27768739616E+02  0.50528862399E+02  0.30000007748E+02 0.  0.
         12    1    1    2    0    0  0.24604180310E+02 -0.16634208182E+02 -0.27768739616E+02  0.40659137601E+02  0.00000000000E+00 0. -1.
         11    1    3    3    0    0 -0.43904246277E+00  0.11149026505E+01  0.23560076339E+01  0.26432060904E+01  0.51100000000E-03 0. -1.
        -11    1    3    3    0    0 -0.13959926669E+02 -0.48740561450E+00  0.25302519733E+02  0.28902156009E+02  0.51100000000E-03 0.  1.
        -12    1    3    3    0    0 -0.10205211179E+02  0.16006711146E+02  0.11021224901E+00  0.18983500300E+02  0.00000000000E+00 0.  1.
</event>
<event>
 7    1  0.5849044E-013  0.5052885E+02  0.7816164E-02  0.1300439E+00
        -11   -1    0    0    0    0  0.00000000000E+00  0.00000000000E+00  0.45593999997E+02  0.45594000000E+02  0.51100000000E-03 0. -1.
         11   -1    0    0    0    0 -0.00000000000E+00 -0.00000000000E+00 -0.45593999997E+02  0.45594000000E+02  0.51100000000E-03 0.  1.
    9900012    2    1    2    0    0 -0.39606080044E+02 -0.37230646263E+01  0.84061845425E+01  0.50528846968E+02  0.29999960845E+02 0.  0.
         12    1    1    2    0    0  0.39606080044E+02  0.37230646263E+01 -0.84061845425E+01  0.40659153032E+02  0.00000000000E+00 0. -1.
         11    1    3    3    0    0  0.12266631215E+01 -0.29856880640E+01  0.54069006423E+01  0.62971112779E+01  0.51100000000E-03 0. -1.
        -11    1    3    3    0    0 -0.37343283897E+02 -0.56507934524E+01  0.68033956977E+00  0.37774530852E+02  0.51100000000E-03 0.  1.
        -12    1    3    3    0    0 -0.34894592687E+01  0.49134168901E+01  0.23189443304E+01  0.64572048389E+01  0.00000000000E+00 0.  1.
</event>
<event>
 7    1  0.5849044E-013  0.5052897E+02  0.7816164E-02  0.1300438E+00
        -11   -1    0    0    0    0  0.00000000000E+00  0.00000000000E+00  0.45593999997E+02  0.45594000000E+02  0.51100000000E-03 0.  1.
         11   -1    0    0    0    0 -0.00000000000E+00 -0.00000000000E+00 -0.45593999997E+02  0.45594000000E+02  0.51100000000E-03 0. -1.
    9900012    2    1    2    0    0  0.24308757152E+02 -0.27198752355E+02  0.17957416223E+02  0.50528971466E+02  0.30000339266E+02 0.  0.
         12    1    1    2    0    0 -0.24308757152E+02  0.27198752355E+02 -0.17957416223E+02  0.40659028534E+02  0.00000000000E+00 0. -1.
         11    1    3    3    0    0 -0.20503474276E+01 -0.36672248657E+01 -0.41674969840E+01  0.59178116025E+01  0.51100000000E-03 0. -1.
        -11    1    3    3    0    0  0.12052295092E+02 -0.20854379419E+02  0.15302161183E+02  0.28536276825E+02  0.51100000000E-03 0.  1.
        -12    1    3    3    0    0  0.14306809488E+02 -0.26771480703E+01  0.68227520244E+01  0.16074883038E+02  0.00000000000E+00 0.  1.
</event>
<event>
 7    1  0.5849044E-013  0.5052887E+02  0.7816164E-02  0.1300439E+00
        -11   -1    0    0    0    0  0.00000000000E+00  0.00000000000E+00  0.45593999997E+02  0.45594000000E+02  0.51100000000E-03 0. -1.
         11   -1    0    0    0    0 -0.00000000000E+00 -0.00000000000E+00 -0.45593999997E+02  0.45594000000E+02  0.51100000000E-03 0.  1.
    9900012    2    1    2    0    0  0.16566584064E+01  0.11406004869E+02 -0.38991329476E+02  0.50528865252E+02  0.30000016420E+02 0.  0.
         12    1    1    2    0    0 -0.16566584064E+01 -0.11406004869E+02  0.38991329476E+02  0.40659134748E+02  0.00000000000E+00 0. -1.
         11    1    3    3    0    0 -0.79298472809E+01 -0.91361235150E+00 -0.42475747651E+01  0.90420715035E+01  0.51100000000E-03 0. -1.
        -11    1    3    3    0    0  0.57438209931E+01  0.82245270624E+01 -0.34430747972E+02  0.35862386022E+02  0.51100000000E-03 0.  1.
        -12    1    3    3    0    0  0.38426846942E+01  0.40950901578E+01 -0.31300673880E+00  0.56244077268E+01  0.00000000000E+00 0.  1.
</event>
<event>
 7    1  0.5849044E-013  0.5052886E+02  0.7816164E-02  0.1300439E+00
        -11   -1    0    0    0    0  0.00000000000E+00  0.00000000000E+00  0.45593999997E+02  0.45594000000E+02  0.51100000000E-03 0.  1.
         11   -1    0    0    0    0 -0.00000000000E+00 -0.00000000000E+00 -0.45593999997E+02  0.45594000000E+02  0.51100000000E-03 0. -1.
    9900012    2    1    2    0    0 -0.70216073687E+01  0.36896121626E+02 -0.15573654248E+02  0.50528862433E+02  0.30000007852E+02 0.  0.
         12    1    1    2    0    0  0.70216073687E+01 -0.36896121626E+02  0.15573654248E+02  0.40659137567E+02  0.00000000000E+00 0. -1.
         11    1    3    3    0    0  0.80746085875E+00  0.80907729634E+01  0.63731891342E+01  0.10331028031E+02  0.51100000000E-03 0. -1.
        -11    1    3    3    0    0 -0.81203104668E+01  0.30670706355E+02 -0.20110665123E+02  0.37564218644E+02  0.51100000000E-03 0.  1.
        -12    1    3    3    0    0  0.29124223933E+00 -0.18653576924E+01 -0.18361782587E+01  0.26336157579E+01  0.00000000000E+00 0.  1.
</event>
<event>
 7    1  0.5849044E-013  0.5052886E+02  0.7816164E-02  0.1300439E+00
        -11   -1    0    0    0    0  0.00000000000E+00  0.00000000000E+00  0.45593999997E+02  0.45594000000E+02  0.51100000000E-03 0.  1.
         11   -1    0    0    0    0 -0.00000000000E+00 -0.00000000000E+00 -0.45593999997E+02  0.45594000000E+02  0.51100000000E-03 0. -1.
    9900012    2    1    2    0    0  0.22567876417E+02 -0.45584228890E+01  0.33512347917E+02  0.50528859230E+02  0.29999998117E+02 0.  0.
         12    1    1    2    0    0 -0.22567876417E+02  0.45584228890E+01 -0.33512347917E+02  0.40659140770E+02  0.00000000000E+00 0. -1.
         11    1    3    3    0    0  0.12167118484E+02 -0.46521226930E+01  0.79826041076E+01  0.15277532077E+02  0.51100000000E-03 0. -1.
        -11    1    3    3    0    0 -0.34092561708E+01  0.43631623933E+01 -0.41383042769E+00  0.55526092599E+01  0.51100000000E-03 0.  1.
        -12    1    3    3    0    0  0.13810014104E+02 -0.42694625894E+01  0.25943574237E+02  0.29698717894E+02  0.00000000000E+00 0.  1.
</event>
<event>
 7    1  0.5849044E-013  0.5052886E+02  0.7816164E-02  0.1300439E+00
        -11   -1    0    0    0    0  0.00000000000E+00  0.00000000000E+00  0.45593999997E+02  0.45594000000E+02  0.51100000000E-03 0.  1.
         11   -1    0    0    0    0 -0.00000000000E+00 -0.00000000000E+00 -0.45593999997E+02  0.45594000000E+02  0.51100000000E-03 0. -1.
    9900012    2    1    2    0    0  0.23935069063E+02 -0.30775347229E+02  0.11539315332E+02  0.50528864170E+02  0.30000013132E+02 0.  0.
         12    1    1    2    0    0 -0.23935069063E+02  0.30775347229E+02 -0.11539315332E+02  0.40659135830E+02  0.00000000000E+00 0. -1.
         11    1    3    3    0    0 -0.26073502561E+01 -0.53440670172E+00  0.37860288796E+01  0.46279456370E+01  0.51100000000E-03 0. -1.
        -11    1    3    3    0    0  0.19681724122E+02 -0.68496772857E+01  0.43364075992E+01  0.21285976004E+02  0.51100000000E-03 0.  1.
        -12    1    3    3    0    0  0.68606951972E+01 -0.23391263241E+02  0.34168788536E+01  0.24614942529E+02  0.00000000000E+00 0.  1.
</event>
<event>
 7    1  0.5849044E-013  0.5052886E+02  0.7816164E-02  0.1300439E+00
        -11   -1    0    0    0    0  0.00000000000E+00  0.00000000000E+00  0.45593999997E+02  0.45594000000E+02  0.51100000000E-03 0.  1.
         11   -1    0    0    0    0 -0.00000000000E+00 -0.00000000000E+00 -0.45593999997E+02  0.45594000000E+02  0.51100000000E-03 0. -1.
    9900012    2    1    2    0    0  0.40027592861E+01  0.37358123516E+02  0.15540736437E+02  0.50528856336E+02  0.29999989318E+02 0.  0.
         12    1    1    2    0    0 -0.40027592861E+01 -0.37358123516E+02 -0.15540736437E+02  0.40659143664E+02  0.00000000000E+00 0. -1.
         11    1    3    3    0    0 -0.72579821175E+01  0.13768940548E+02  0.13102983943E+02  0.20345766554E+02  0.51100000000E-03 0. -1.
        -11    1    3    3    0    0  0.13811436281E+02  0.14445117337E+02  0.44597723479E+01  0.20476981142E+02  0.51100000000E-03 0.  1.
         12    1    3    3    0    0 -0.25506948776E+01  0.91440656312E+01 -0.20220198541E+01  0.97061086393E+01  0.00000000000E+00 0. -1.
</event>
<event>
 7    1  0.5849044E-013  0.5052886E+02  0.7816164E-02  0.1300439E+00
        -11   -1    0    0    0    0  0.00000000000E+00  0.00000000000E+00  0.45593999997E+02  0.45594000000E+02  0.51100000000E-03 0. -1.
         11   -1    0    0    0    0 -0.00000000000E+00 -0.00000000000E+00 -0.45593999997E+02  0.45594000000E+02  0.51100000000E-03 0.  1.
    9900012    2    1    2    0    0 -0.29320968403E+02 -0.96728475848E+01 -0.26455295501E+02  0.50528857996E+02  0.29999994363E+02 0.  0.
         12    1    1    2    0    0  0.29320968403E+02  0.96728475848E+01  0.26455295501E+02  0.40659142004E+02  0.00000000000E+00 0. -1.
         11    1    3    3    0    0 -0.12570125661E+02 -0.14350316672E+02 -0.11717299691E+02  0.22388272824E+02  0.51100000000E-03 0. -1.
        -11    1    3    3    0    0 -0.16595498126E+02  0.57785787117E+01 -0.17721219370E+02  0.24956845678E+02  0.51100000000E-03 0.  1.
        -12    1    3    3    0    0 -0.15534461643E+00 -0.11011096243E+01  0.29832235601E+01  0.31837394937E+01  0.00000000000E+00 0.  1.
</event>
<event>
 7    1  0.5849044E-013  0.5052886E+02  0.7816164E-02  0.1300439E+00
        -11   -1    0    0    0    0  0.00000000000E+00  0.00000000000E+00  0.45593999997E+02  0.45594000000E+02  0.51100000000E-03 0.  1.
         11   -1    0    0    0    0 -0.00000000000E+00 -0.00000000000E+00 -0.45593999997E+02  0.45594000000E+02  0.51100000000E-03 0. -1.
    9900012    2    1    2    0    0  0.25798745888E+02 -0.26871782364E+02  0.16294095476E+02  0.50528861738E+02  0.30000005738E+02 0.  0.
         12    1    1    2    0    0 -0.25798745888E+02  0.26871782364E+02 -0.16294095476E+02  0.40659138262E+02  0.00000000000E+00 0. -1.
         11    1    3    3    0    0  0.75741559371E+01  0.23109489903E+01  0.24914334429E+01  0.83015398726E+01  0.51100000000E-03 0. -1.
        -11    1    3    3    0    0  0.13496515224E+02 -0.27709402393E+02  0.37858681039E+01  0.31053175389E+02  0.51100000000E-03 0.  1.
        -12    1    3    3    0    0  0.47280747273E+01 -0.14733289617E+01  0.10016793929E+02  0.11174146476E+02  0.00000000000E+00 0.  1.
</event>
<event>
 7    1  0.5849044E-013  0.5052881E+02  0.7816164E-02  0.1300439E+00
        -11   -1    0    0    0    0  0.00000000000E+00  0.00000000000E+00  0.45593999997E+02  0.45594000000E+02  0.51100000000E-03 0.  1.
         11   -1    0    0    0    0 -0.00000000000E+00 -0.00000000000E+00 -0.45593999997E+02  0.45594000000E+02  0.51100000000E-03 0. -1.
    9900012    2    1    2    0    0  0.83045938392E+01 -0.20759943967E+02  0.33959215041E+02  0.50528808683E+02  0.29999844472E+02 0.  0.
         12    1    1    2    0    0 -0.83045938392E+01  0.20759943967E+02 -0.33959215041E+02  0.40659191317E+02  0.00000000000E+00 0. -1.
         11    1    3    3    0    0  0.28591494199E+00 -0.79562634801E+01  0.94308617263E+01  0.12342002637E+02  0.51100000000E-03 0.  1.
        -11    1    3    3    0    0  0.48760602455E+00 -0.46212803991E+01 -0.48845149867E+01  0.67418453763E+01  0.51100000000E-03 0. -1.
        -12    1    3    3    0    0  0.75310728727E+01 -0.81824000876E+01  0.29412868302E+02  0.31444960670E+02  0.00000000000E+00 0.  1.
</event>
<event>
 7    1  0.5849044E-013  0.5052886E+02  0.7816164E-02  0.1300439E+00
        -11   -1    0    0    0    0  0.00000000000E+00  0.00000000000E+00  0.45593999997E+02  0.45594000000E+02  0.51100000000E-03 0.  1.
         11   -1    0    0    0    0 -0.00000000000E+00 -0.00000000000E+00 -0.45593999997E+02  0.45594000000E+02  0.51100000000E-03 0. -1.
    9900012    2    1    2    0    0 -0.88436121404E+01  0.20086789270E+02  0.34226846923E+02  0.50528860447E+02  0.30000001815E+02 0.  0.
         12    1    1    2    0    0  0.88436121404E+01 -0.20086789270E+02 -0.34226846923E+02  0.40659139553E+02  0.00000000000E+00 0. -1.
         11    1    3    3    0    0 -0.26714089649E+01  0.12460154587E+01  0.23469581008E+02  0.23653968237E+02  0.51100000000E-03 0. -1.
        -11    1    3    3    0    0 -0.18749626556E+01  0.19807501158E+02  0.70193204238E+01  0.21097948871E+02  0.51100000000E-03 0.  1.
         12    1    3    3    0    0 -0.42972405199E+01 -0.96672734666E+00  0.37379454912E+01  0.57769433392E+01  0.00000000000E+00 0. -1.
</event>
<event>
 7    1  0.5849044E-013  0.5052887E+02  0.7816164E-02  0.1300439E+00
        -11   -1    0    0    0    0  0.00000000000E+00  0.00000000000E+00  0.45593999997E+02  0.45594000000E+02  0.51100000000E-03 0.  1.
         11   -1    0    0    0    0 -0.00000000000E+00 -0.00000000000E+00 -0.45593999997E+02  0.45594000000E+02  0.51100000000E-03 0. -1.
    9900012    2    1    2    0    0  0.17782781712E+02  0.36521056278E+02 -0.17748245914E+01  0.50528869667E+02  0.30000029840E+02 0.  0.
         12    1    1    2    0    0 -0.17782781712E+02 -0.36521056278E+02  0.17748245914E+01  0.40659130333E+02  0.00000000000E+00 0. -1.
         11    1    3    3    0    0  0.17088068822E+02  0.30806715573E+02 -0.78899559450E+00  0.35237456417E+02  0.51100000000E-03 0. -1.
        -11    1    3    3    0    0 -0.65773411391E+01  0.14800345282E+01  0.44142873935E+00  0.67562399497E+01  0.51100000000E-03 0.  1.
         12    1    3    3    0    0  0.72720540300E+01  0.42343061768E+01 -0.14272577363E+01  0.85351732999E+01  0.00000000000E+00 0. -1.
</event>
<event>
 7    1  0.5849044E-013  0.5052886E+02  0.7816164E-02  0.1300439E+00
        -11   -1    0    0    0    0  0.00000000000E+00  0.00000000000E+00  0.45593999997E+02  0.45594000000E+02  0.51100000000E-03 0. -1.
         11   -1    0    0    0    0 -0.00000000000E+00 -0.00000000000E+00 -0.45593999997E+02  0.45594000000E+02  0.51100000000E-03 0.  1.
    9900012    2    1    2    0    0  0.30077203394E+02 -0.15968112138E+02 -0.22215918358E+02  0.50528858375E+02  0.29999995516E+02 0.  0.
         12    1    1    2    0    0 -0.30077203394E+02  0.15968112138E+02  0.22215918358E+02  0.40659141625E+02  0.00000000000E+00 0. -1.
         11    1    3    3    0    0  0.58582025739E+00 -0.97248613390E+01 -0.97988212489E-01  0.97429828793E+01  0.51100000000E-03 0. -1.
        -11    1    3    3    0    0  0.58261359973E+01  0.52295725565E+01 -0.66694651169E+01  0.10284651428E+02  0.51100000000E-03 0.  1.
         12    1    3    3    0    0  0.23665247139E+02 -0.11472823355E+02 -0.15448465028E+02  0.30501224068E+02  0.00000000000E+00 0. -1.
</event>
<event>
 7    1  0.5849044E-013  0.5052885E+02  0.7816164E-02  0.1300439E+00
        -11   -1    0    0    0    0  0.00000000000E+00  0.00000000000E+00  0.45593999997E+02  0.45594000000E+02  0.51100000000E-03 0. -1.
         11   -1    0    0    0    0 -0.00000000000E+00 -0.00000000000E+00 -0.45593999997E+02  0.45594000000E+02  0.51100000000E-03 0.  1.
    9900012    2    1    2    0    0 -0.30932126203E+02 -0.23958257222E+02 -0.11062169135E+02  0.50528854577E+02  0.29999983973E+02 0.  0.
         12    1    1    2    0    0  0.30932126203E+02  0.23958257222E+02  0.11062169135E+02  0.40659145423E+02  0.00000000000E+00 0. -1.
         11    1    3    3    0    0 -0.92295731078E+01 -0.13533170606E+01  0.22756160010E+01  0.96018183311E+01  0.51100000000E-03 0. -1.
        -11    1    3    3    0    0 -0.10811958032E+02 -0.15675389814E+02 -0.18937928048E+02  0.26856310270E+02  0.51100000000E-03 0.  1.
        -12    1    3    3    0    0 -0.10890595064E+02 -0.69295503468E+01  0.56001429122E+01  0.14070725976E+02  0.00000000000E+00 0.  1.
</event>
<event>
 7    1  0.5849044E-013  0.5052886E+02  0.7816164E-02  0.1300439E+00
        -11   -1    0    0    0    0  0.00000000000E+00  0.00000000000E+00  0.45593999997E+02  0.45594000000E+02  0.51100000000E-03 0.  1.
         11   -1    0    0    0    0 -0.00000000000E+00 -0.00000000000E+00 -0.45593999997E+02  0.45594000000E+02  0.51100000000E-03 0. -1.
    9900012    2    1    2    0    0  0.16853235351E+01 -0.30967428993E+02  0.26293411958E+02  0.50528862205E+02  0.30000007159E+02 0.  0.
         12    1    1    2    0    0 -0.16853235351E+01  0.30967428993E+02 -0.26293411958E+02  0.40659137795E+02  0.00000000000E+00 0. -1.
         11    1    3    3    0    0  0.28181569200E+01 -0.78698102535E-01  0.40410515137E+00  0.28480700574E+01  0.51100000000E-03 0. -1.
        -11    1    3    3    0    0 -0.57980863135E+01 -0.32700968962E+02  0.26697150154E+02  0.42611137072E+02  0.51100000000E-03 0.  1.
        -12    1    3    3    0    0  0.46652529286E+01  0.18122380715E+01 -0.80784334779E+00  0.50696550760E+01  0.00000000000E+00 0.  1.
</event>
<event>
 7    1  0.5849044E-013  0.5052887E+02  0.7816164E-02  0.1300439E+00
        -11   -1    0    0    0    0  0.00000000000E+00  0.00000000000E+00  0.45593999997E+02  0.45594000000E+02  0.51100000000E-03 0.  1.
         11   -1    0    0    0    0 -0.00000000000E+00 -0.00000000000E+00 -0.45593999997E+02  0.45594000000E+02  0.51100000000E-03 0. -1.
    9900012    2    1    2    0    0  0.28681120804E+02  0.26764167366E+02  0.10688213257E+02  0.50528865134E+02  0.30000016062E+02 0.  0.
         12    1    1    2    0    0 -0.28681120804E+02 -0.26764167366E+02 -0.10688213257E+02  0.40659134866E+02  0.00000000000E+00 0. -1.
         11    1    3    3    0    0  0.97382217102E+00  0.16525537439E+02  0.46042562632E+01  0.17182575280E+02  0.51100000000E-03 0. -1.
        -11    1    3    3    0    0  0.27709824578E+02  0.10672881355E+02  0.85037510393E+01  0.30887838328E+02  0.51100000000E-03 0.  1.
         12    1    3    3    0    0 -0.25259452573E-02 -0.43425142728E+00 -0.24197940456E+01  0.24584515260E+01  0.00000000000E+00 0. -1.
</event>
<event>
 7    1  0.5849044E-013  0.5052886E+02  0.7816164E-02  0.1300439E+00
        -11   -1    0    0    0    0  0.00000000000E+00  0.00000000000E+00  0.45593999997E+02  0.45594000000E+02  0.51100000000E-03 0.  1.
         11   -1    0    0    0    0 -0.00000000000E+00 -0.00000000000E+00 -0.45593999997E+02  0.45594000000E+02  0.51100000000E-03 0. -1.
    9900012    2    1    2    0    0 -0.98338693212E+01  0.27297668462E+02  0.28483290879E+02  0.50528861439E+02  0.30000004829E+02 0.  0.
         12    1    1    2    0    0  0.98338693212E+01 -0.27297668462E+02 -0.28483290879E+02  0.40659138561E+02  0.00000000000E+00 0. -1.
         11    1    3    3    0    0  0.12149852944E+01  0.13752766058E+01  0.44086614939E+00  0.18873097866E+01  0.51100000000E-03 0. -1.
        -11    1    3    3    0    0 -0.36275477052E+01  0.27951197020E+02  0.29511651612E+02  0.40808897294E+02  0.51100000000E-03 0.  1.
        -12    1    3    3    0    0 -0.74213069104E+01 -0.20288051644E+01 -0.14692268828E+01  0.78326543577E+01  0.00000000000E+00 0.  1.
</event>
<event>
 7    1  0.5849044E-013  0.5052881E+02  0.7816164E-02  0.1300439E+00
        -11   -1    0    0    0    0  0.00000000000E+00  0.00000000000E+00  0.45593999997E+02  0.45594000000E+02  0.51100000000E-03 0.  1.
         11   -1    0    0    0    0 -0.00000000000E+00 -0.00000000000E+00 -0.45593999997E+02  0.45594000000E+02  0.51100000000E-03 0. -1.
    9900012    2    1    2    0    0  0.24641691744E+02  0.27726336411E+02  0.16649527129E+02  0.50528813383E+02  0.29999858758E+02 0.  0.
         12    1    1    2    0    0 -0.24641691744E+02 -0.27726336411E+02 -0.16649527129E+02  0.40659186617E+02  0.00000000000E+00 0. -1.
         11    1    3    3    0    0  0.15111957030E+02  0.16705262520E+02 -0.22065621643E+01  0.22634176768E+02  0.51100000000E-03 0. -1.
        -11    1    3    3    0    0  0.10573103748E+02  0.14047739008E+01  0.11899861199E+02  0.15980319440E+02  0.51100000000E-03 0.  1.
         12    1    3    3    0    0 -0.10433690346E+01  0.96162999904E+01  0.69562280936E+01  0.11914317175E+02  0.00000000000E+00 0. -1.
</event>
<event>
 7    1  0.5849044E-013  0.5052886E+02  0.7816164E-02  0.1300439E+00
        -11   -1    0    0    0    0  0.00000000000E+00  0.00000000000E+00  0.45593999997E+02  0.45594000000E+02  0.51100000000E-03 0.  1.
         11   -1    0    0    0    0 -0.00000000000E+00 -0.00000000000E+00 -0.45593999997E+02  0.45594000000E+02  0.51100000000E-03 0. -1.
    9900012    2    1    2    0    0  0.40492426867E+02  0.14792875635E+01  0.33676599129E+01  0.50528855167E+02  0.29999985765E+02 0.  0.
         12    1    1    2    0    0 -0.40492426867E+02 -0.14792875635E+01 -0.33676599129E+01  0.40659144833E+02  0.00000000000E+00 0. -1.
         11    1    3    3    0    0  0.13856802346E+02 -0.27201290211E+01  0.12093183484E+02  0.18591803575E+02  0.51100000000E-03 0. -1.
        -11    1    3    3    0    0  0.13231997335E+02  0.85019820274E+01 -0.72395970257E+00  0.15744636223E+02  0.51100000000E-03 0.  1.
         12    1    3    3    0    0  0.13403627186E+02 -0.43025654429E+01 -0.80015638688E+01  0.16192415369E+02  0.00000000000E+00 0. -1.
</event>
<event>
 7    1  0.5849044E-013  0.5052884E+02  0.7816164E-02  0.1300439E+00
        -11   -1    0    0    0    0  0.00000000000E+00  0.00000000000E+00  0.45593999997E+02  0.45594000000E+02  0.51100000000E-03 0.  1.
         11   -1    0    0    0    0 -0.00000000000E+00 -0.00000000000E+00 -0.45593999997E+02  0.45594000000E+02  0.51100000000E-03 0. -1.
    9900012    2    1    2    0    0  0.22932248623E+01 -0.15142219533E+02  0.37664593925E+02  0.50528839554E+02  0.29999938309E+02 0.  0.
         12    1    1    2    0    0 -0.22932248623E+01  0.15142219533E+02 -0.37664593925E+02  0.40659160446E+02  0.00000000000E+00 0. -1.
         11    1    3    3    0    0 -0.40366062498E+01  0.80821517960E+01  0.71838974238E+01  0.11542259316E+02  0.51100000000E-03 0.  1.
        -11    1    3    3    0    0  0.15491746510E+01 -0.11718504670E+02  0.15776083600E+02  0.19713145559E+02  0.51100000000E-03 0. -1.
        -12    1    3    3    0    0  0.47806564610E+01 -0.11505866659E+02  0.14704612900E+02  0.19273434679E+02  0.00000000000E+00 0.  1.
</event>
<event>
 7    1  0.5849044E-013  0.5052885E+02  0.7816164E-02  0.1300439E+00
        -11   -1    0    0    0    0  0.00000000000E+00  0.00000000000E+00  0.45593999997E+02  0.45594000000E+02  0.51100000000E-03 0.  1.
         11   -1    0    0    0    0 -0.00000000000E+00 -0.00000000000E+00 -0.45593999997E+02  0.45594000000E+02  0.51100000000E-03 0. -1.
    9900012    2    1    2    0    0  0.22356931801E+02  0.13340511141E+02  0.31230826132E+02  0.50528854191E+02  0.29999982798E+02 0.  0.
         12    1    1    2    0    0 -0.22356931801E+02 -0.13340511141E+02 -0.31230826132E+02  0.40659145809E+02  0.00000000000E+00 0. -1.
         11    1    3    3    0    0  0.12154265586E+02  0.49868971616E+01  0.26081938195E+02  0.29203815085E+02  0.51100000000E-03 0.  1.
        -11    1    3    3    0    0  0.52652826280E+01  0.12914537835E+02  0.29725055581E+01  0.14259883527E+02  0.51100000000E-03 0. -1.
         12    1    3    3    0    0  0.49373835871E+01 -0.45609238554E+01  0.21763823785E+01  0.70651555792E+01  0.00000000000E+00 0. -1.
</event>
<event>
 7    1  0.5849044E-013  0.5052887E+02  0.7816164E-02  0.1300439E+00
        -11   -1    0    0    0    0  0.00000000000E+00  0.00000000000E+00  0.45593999997E+02  0.45594000000E+02  0.51100000000E-03 0.  1.
         11   -1    0    0    0    0 -0.00000000000E+00 -0.00000000000E+00 -0.45593999997E+02  0.45594000000E+02  0.51100000000E-03 0. -1.
    9900012    2    1    2    0    0 -0.32668512732E+02  0.22832091486E+02 -0.80392153917E+01  0.50528866834E+02  0.30000021227E+02 0.  0.
         12    1    1    2    0    0  0.32668512732E+02 -0.22832091486E+02  0.80392153917E+01  0.40659133166E+02  0.00000000000E+00 0. -1.
         11    1    3    3    0    0 -0.41487725170E+01 -0.25220730696E+01 -0.61452295413E+00  0.48939559344E+01  0.51100000000E-03 0. -1.
        -11    1    3    3    0    0 -0.28025571350E+02  0.25932042008E+02 -0.11175722594E-01  0.38182503550E+02  0.51100000000E-03 0.  1.
        -12    1    3    3    0    0 -0.49416886457E+00 -0.57787745189E+00 -0.74135167150E+01  0.74524073493E+01  0.00000000000E+00 0.  1.
</event>
<event>
 7    1  0.5849044E-013  0.5052886E+02  0.7816164E-02  0.1300439E+00
        -11   -1    0    0    0    0  0.00000000000E+00  0.00000000000E+00  0.45593999997E+02  0.45594000000E+02  0.51100000000E-03 0.  1.
         11   -1    0    0    0    0 -0.00000000000E+00 -0.00000000000E+00 -0.45593999997E+02  0.45594000000E+02  0.51100000000E-03 0. -1.
    9900012    2    1    2    0    0 -0.17915122062E+02  0.36373157276E+02  0.30343627546E+01  0.50528861715E+02  0.30000005669E+02 0.  0.
         12    1    1    2    0    0  0.17915122062E+02 -0.36373157276E+02 -0.30343627546E+01  0.40659138285E+02  0.00000000000E+00 0. -1.
         11    1    3    3    0    0  0.29572885332E+01 -0.12997684818E+01  0.55680180633E+01  0.64372182648E+01  0.51100000000E-03 0. -1.
        -11    1    3    3    0    0 -0.63791336307E+01  0.15294218518E+02  0.30542868301E+01  0.16850374900E+02  0.51100000000E-03 0.  1.
         12    1    3    3    0    0 -0.14493276965E+02  0.22378707240E+02 -0.55879421388E+01  0.27241268551E+02  0.00000000000E+00 0. -1.
</event>
<event>
 7    1  0.5849044E-013  0.5052886E+02  0.7816164E-02  0.1300439E+00
        -11   -1    0    0    0    0  0.00000000000E+00  0.00000000000E+00  0.45593999997E+02  0.45594000000E+02  0.51100000000E-03 0.  1.
         11   -1    0    0    0    0 -0.00000000000E+00 -0.00000000000E+00 -0.45593999997E+02  0.45594000000E+02  0.51100000000E-03 0. -1.
    9900012    2    1    2    0    0  0.16885323462E+02  0.18012332362E+02  0.32304917125E+02  0.50528856674E+02  0.29999990346E+02 0.  0.
         12    1    1    2    0    0 -0.16885323462E+02 -0.18012332362E+02 -0.32304917125E+02  0.40659143326E+02  0.00000000000E+00 0. -1.
         11    1    3    3    0    0  0.17209894520E+02  0.30222764241E+01  0.65045271312E+01  0.18644664053E+02  0.51100000000E-03 0. -1.
        -11    1    3    3    0    0  0.20153568051E+01  0.15425125075E+02  0.18316822571E+02  0.24031274123E+02  0.51100000000E-03 0.  1.
         12    1    3    3    0    0 -0.23399278633E+01 -0.43506913691E+00  0.74835674228E+01  0.78529184976E+01  0.00000000000E+00 0. -1.
</event>
<event>
 7    1  0.5849044E-013  0.5052885E+02  0.7816164E-02  0.1300439E+00
        -11   -1    0    0    0    0  0.00000000000E+00  0.00000000000E+00  0.45593999997E+02  0.45594000000E+02  0.51100000000E-03 0.  1.
         11   -1    0    0    0    0 -0.00000000000E+00 -0.00000000000E+00 -0.45593999997E+02  0.45594000000E+02  0.51100000000E-03 0. -1.
    9900012    2    1    2    0    0 -0.33877059581E+02  0.21157437999E+02  0.76075051608E+01  0.50528849944E+02  0.29999969889E+02 0.  0.
         12    1    1    2    0    0  0.33877059581E+02 -0.21157437999E+02 -0.76075051608E+01  0.40659150056E+02  0.00000000000E+00 0. -1.
         11    1    3    3    0    0 -0.20914690202E+02  0.43048547609E+01 -0.32924845449E+01  0.21605473739E+02  0.51100000000E-03 0. -1.
        -11    1    3    3    0    0  0.25939356213E+01  0.89657284281E+01  0.42795016124E+01  0.10267761322E+02  0.51100000000E-03 0.  1.
        -12    1    3    3    0    0 -0.15556305001E+02  0.78868548096E+01  0.66204880932E+01  0.18655614883E+02  0.00000000000E+00 0.  1.
</event>
<event>
 7    1  0.5849044E-013  0.5052886E+02  0.7816164E-02  0.1300439E+00
        -11   -1    0    0    0    0  0.00000000000E+00  0.00000000000E+00  0.45593999997E+02  0.45594000000E+02  0.51100000000E-03 0.  1.
         11   -1    0    0    0    0 -0.00000000000E+00 -0.00000000000E+00 -0.45593999997E+02  0.45594000000E+02  0.51100000000E-03 0. -1.
    9900012    2    1    2    0    0 -0.33647399355E+02  0.13721289824E+02  0.18241275290E+02  0.50528863241E+02  0.30000010308E+02 0.  0.
         12    1    1    2    0    0  0.33647399355E+02 -0.13721289824E+02 -0.18241275290E+02  0.40659136759E+02  0.00000000000E+00 0. -1.
         11    1    3    3    0    0 -0.14280621180E+01 -0.57353634329E+01  0.49325705172E+01  0.76983119765E+01  0.51100000000E-03 0. -1.
        -11    1    3    3    0    0 -0.13398220021E+02  0.16281985058E+02  0.35125413608E+01  0.21376465663E+02  0.51100000000E-03 0.  1.
        -12    1    3    3    0    0 -0.18821117216E+02  0.31746681987E+01  0.97961634120E+01  0.21454085602E+02  0.00000000000E+00 0.  1.
</event>
<event>
 7    1  0.5849044E-013  0.5052886E+02  0.7816164E-02  0.1300439E+00
        -11   -1    0    0    0    0  0.00000000000E+00  0.00000000000E+00  0.45593999997E+02  0.45594000000E+02  0.51100000000E-03 0.  1.
         11   -1    0    0    0    0 -0.00000000000E+00 -0.00000000000E+00 -0.45593999997E+02  0.45594000000E+02  0.51100000000E-03 0. -1.
    9900012    2    1    2    0    0 -0.27275411051E+02  0.10950158188E+02  0.28094688233E+02  0.50528861799E+02  0.30000005924E+02 0.  0.
         12    1    1    2    0    0  0.27275411051E+02 -0.10950158188E+02 -0.28094688233E+02  0.40659138201E+02  0.00000000000E+00 0. -1.
         11    1    3    3    0    0 -0.14100015751E+02  0.14053370899E+02  0.18842667267E+02  0.27410833402E+02  0.51100000000E-03 0. -1.
        -11    1    3    3    0    0 -0.16488908611E+01 -0.54606560766E+01 -0.27315409550E+01  0.63244701049E+01  0.51100000000E-03 0.  1.
        -12    1    3    3    0    0 -0.11526504439E+02  0.23574433661E+01  0.11983561921E+02  0.16793558292E+02  0.00000000000E+00 0.  1.
</event>
<event>
 7    1  0.5849044E-013  0.5052885E+02  0.7816164E-02  0.1300439E+00
        -11   -1    0    0    0    0  0.00000000000E+00  0.00000000000E+00  0.45593999997E+02  0.45594000000E+02  0.51100000000E-03 0. -1.
         11   -1    0    0    0    0 -0.00000000000E+00 -0.00000000000E+00 -0.45593999997E+02  0.45594000000E+02  0.51100000000E-03 0.  1.
    9900012    2    1    2    0    0  0.23981122857E+01 -0.17137888839E+02 -0.36792770449E+02  0.50528854243E+02  0.29999982958E+02 0.  0.
         12    1    1    2    0    0 -0.23981122857E+01  0.17137888839E+02  0.36792770449E+02  0.40659145757E+02  0.00000000000E+00 0. -1.
         11    1    3    3    0    0  0.21767541419E+01  0.54168610884E+01  0.36143478392E+00  0.58490407769E+01  0.51100000000E-03 0. -1.
        -11    1    3    3    0    0 -0.23586671091E+01 -0.14895842901E+02 -0.15776163872E+02  0.21825141306E+02  0.51100000000E-03 0.  1.
        -12    1    3    3    0    0  0.25800252529E+01 -0.76589070264E+01 -0.21378041361E+02  0.22854672160E+02  0.00000000000E+00 0.  1.
</event>
<event>
 7    1  0.5849044E-013  0.5052886E+02  0.7816164E-02  0.1300439E+00
        -11   -1    0    0    0    0  0.00000000000E+00  0.00000000000E+00  0.45593999997E+02  0.45594000000E+02  0.51100000000E-03 0.  1.
         11   -1    0    0    0    0 -0.00000000000E+00 -0.00000000000E+00 -0.45593999997E+02  0.45594000000E+02  0.51100000000E-03 0. -1.
    9900012    2    1    2    0    0  0.53806644595E+01  0.26620069336E+02  0.30258648949E+02  0.50528862310E+02  0.30000007478E+02 0.  0.
         12    1    1    2    0    0 -0.53806644595E+01 -0.26620069336E+02 -0.30258648949E+02  0.40659137690E+02  0.00000000000E+00 0. -1.
         11    1    3    3    0    0 -0.30265859776E+01  0.93223807409E+01  0.12578170197E+02  0.15946076982E+02  0.51100000000E-03 0. -1.
        -11    1    3    3    0    0  0.81773878994E+01  0.21242310672E+02  0.79998552811E+01  0.24126813307E+02  0.51100000000E-03 0.  1.
        -12    1    3    3    0    0  0.22986253775E+00 -0.39446220773E+01  0.96806234711E+01  0.10455972021E+02  0.00000000000E+00 0.  1.
</event>
<event>
 7    1  0.5849044E-013  0.5052885E+02  0.7816164E-02  0.1300439E+00
        -11   -1    0    0    0    0  0.00000000000E+00  0.00000000000E+00  0.45593999997E+02  0.45594000000E+02  0.51100000000E-03 0.  1.
         11   -1    0    0    0    0 -0.00000000000E+00 -0.00000000000E+00 -0.45593999997E+02  0.45594000000E+02  0.51100000000E-03 0. -1.
    9900012    2    1    2    0    0  0.79310099587E+01  0.56268134678E+01  0.39479164708E+02  0.50528851032E+02  0.29999973197E+02 0.  0.
         12    1    1    2    0    0 -0.79310099587E+01 -0.56268134678E+01 -0.39479164708E+02  0.40659148968E+02  0.00000000000E+00 0. -1.
         11    1    3    3    0    0  0.28831643732E+01  0.11195465322E+02  0.84709361632E+01  0.14332056389E+02  0.51100000000E-03 0. -1.
        -11    1    3    3    0    0  0.92391020579E+01 -0.91959862204E+01  0.20024320656E+02  0.23893526056E+02  0.51100000000E-03 0.  1.
         12    1    3    3    0    0 -0.41912564724E+01  0.36273343658E+01  0.10983907888E+02  0.12303268587E+02  0.00000000000E+00 0. -1.
</event>
<event>
 7    1  0.5849044E-013  0.5052886E+02  0.7816164E-02  0.1300439E+00
        -11   -1    0    0    0    0  0.00000000000E+00  0.00000000000E+00  0.45593999997E+02  0.45594000000E+02  0.51100000000E-03 0.  1.
         11   -1    0    0    0    0 -0.00000000000E+00 -0.00000000000E+00 -0.45593999997E+02  0.45594000000E+02  0.51100000000E-03 0. -1.
    9900012    2    1    2    0    0 -0.10475487906E+02 -0.35861789301E+00  0.39284870189E+02  0.50528862289E+02  0.30000007413E+02 0.  0.
         12    1    1    2    0    0  0.10475487906E+02  0.35861789301E+00 -0.39284870189E+02  0.40659137711E+02  0.00000000000E+00 0. -1.
         11    1    3    3    0    0  0.12199946156E+01  0.40594230838E+01  0.25176369214E+01  0.49300911315E+01  0.51100000000E-03 0. -1.
        -11    1    3    3    0    0 -0.18995121047E+02 -0.23106318188E+01  0.28908885563E+02  0.34668102165E+02  0.51100000000E-03 0.  1.
        -12    1    3    3    0    0  0.72996385255E+01 -0.21074091581E+01  0.78583477051E+01  0.10930668992E+02  0.00000000000E+00 0.  1.
</event>
<event>
 7    1  0.5849044E-013  0.5052885E+02  0.7816164E-02  0.1300439E+00
        -11   -1    0    0    0    0  0.00000000000E+00  0.00000000000E+00  0.45593999997E+02  0.45594000000E+02  0.51100000000E-03 0.  1.
         11   -1    0    0    0    0 -0.00000000000E+00 -0.00000000000E+00 -0.45593999997E+02  0.45594000000E+02  0.51100000000E-03 0. -1.
    9900012    2    1    2    0    0 -0.93661553668E+01  0.24444095778E+02  0.31111536674E+02  0.50528850981E+02  0.29999973041E+02 0.  0.
         12    1    1    2    0    0  0.93661553668E+01 -0.24444095778E+02 -0.31111536674E+02  0.40659149019E+02  0.00000000000E+00 0. -1.
         11    1    3    3    0    0 -0.34862467248E+01 -0.39087171185E+01  0.44545357442E+00  0.52564641049E+01  0.51100000000E-03 0. -1.
        -11    1    3    3    0    0 -0.85875294783E+01  0.18929398930E+02  0.11528000728E+02  0.23768942077E+02  0.51100000000E-03 0.  1.
         12    1    3    3    0    0  0.27076208363E+01  0.94234139660E+01  0.19138082372E+02  0.21503444799E+02  0.00000000000E+00 0. -1.
</event>
<event>
 7    1  0.5849044E-013  0.5052886E+02  0.7816164E-02  0.1300439E+00
        -11   -1    0    0    0    0  0.00000000000E+00  0.00000000000E+00  0.45593999997E+02  0.45594000000E+02  0.51100000000E-03 0.  1.
         11   -1    0    0    0    0 -0.00000000000E+00 -0.00000000000E+00 -0.45593999997E+02  0.45594000000E+02  0.51100000000E-03 0. -1.
    9900012    2    1    2    0    0  0.12717831740E+02  0.33111338289E+02  0.19876160228E+02  0.50528859418E+02  0.29999998688E+02 0.  0.
         12    1    1    2    0    0 -0.12717831740E+02 -0.33111338289E+02 -0.19876160228E+02  0.40659140582E+02  0.00000000000E+00 0. -1.
         11    1    3    3    0    0 -0.19717230893E+01  0.42007409552E+01  0.10461934323E+02  0.11444910945E+02  0.51100000000E-03 0. -1.
        -11    1    3    3    0    0  0.18745092563E+02  0.18310157391E+02  0.39943309744E+01  0.26506509372E+02  0.51100000000E-03 0.  1.
        -12    1    3    3    0    0 -0.40555377339E+01  0.10600439943E+02  0.54198949303E+01  0.12577439101E+02  0.00000000000E+00 0.  1.
</event>
<event>
 7    1  0.5849044E-013  0.5052889E+02  0.7816164E-02  0.1300439E+00
        -11   -1    0    0    0    0  0.00000000000E+00  0.00000000000E+00  0.45593999997E+02  0.45594000000E+02  0.51100000000E-03 0.  1.
         11   -1    0    0    0    0 -0.00000000000E+00 -0.00000000000E+00 -0.45593999997E+02  0.45594000000E+02  0.51100000000E-03 0. -1.
    9900012    2    1    2    0    0  0.37854476064E+02 -0.12632305836E+02 -0.77863077792E+01  0.50528891579E+02  0.30000096442E+02 0.  0.
         12    1    1    2    0    0 -0.37854476064E+02  0.12632305836E+02  0.77863077792E+01  0.40659108421E+02  0.00000000000E+00 0. -1.
         11    1    3    3    0    0  0.49188149861E+01  0.47282704355E+01  0.42632452613E+01  0.80452807656E+01  0.51100000000E-03 0. -1.
        -11    1    3    3    0    0  0.32145394460E+02 -0.18300682565E+02 -0.74625107263E+01  0.37735002768E+02  0.51100000000E-03 0.  1.
         12    1    3    3    0    0  0.79026661824E+00  0.94010629383E+00 -0.45870423141E+01  0.47486080448E+01  0.00000000000E+00 0. -1.
</event>
<event>
 7    1  0.5849044E-013  0.5052887E+02  0.7816164E-02  0.1300439E+00
        -11   -1    0    0    0    0  0.00000000000E+00  0.00000000000E+00  0.45593999997E+02  0.45594000000E+02  0.51100000000E-03 0. -1.
         11   -1    0    0    0    0 -0.00000000000E+00 -0.00000000000E+00 -0.45593999997E+02  0.45594000000E+02  0.51100000000E-03 0.  1.
    9900012    2    1    2    0    0 -0.46256366188E+01  0.32290425000E+02 -0.24271317937E+02  0.50528868982E+02  0.30000027756E+02 0.  0.
         12    1    1    2    0    0  0.46256366188E+01 -0.32290425000E+02  0.24271317937E+02  0.40659131018E+02  0.00000000000E+00 0. -1.
         11    1    3    3    0    0 -0.47363755756E+01 -0.33798384250E+01 -0.10641768909E+02  0.12128635832E+02  0.51100000000E-03 0. -1.
        -11    1    3    3    0    0 -0.20727525629E+00  0.15809043201E+02 -0.81868534616E+01  0.17804307901E+02  0.51100000000E-03 0.  1.
         12    1    3    3    0    0  0.31801421309E+00  0.19861220224E+02 -0.54426955659E+01  0.20595925249E+02  0.00000000000E+00 0. -1.
</event>
<event>
 7    1  0.5849044E-013  0.5052886E+02  0.7816164E-02  0.1300439E+00
        -11   -1    0    0    0    0  0.00000000000E+00  0.00000000000E+00  0.45593999997E+02  0.45594000000E+02  0.51100000000E-03 0.  1.
         11   -1    0    0    0    0 -0.00000000000E+00 -0.00000000000E+00 -0.45593999997E+02  0.45594000000E+02  0.51100000000E-03 0. -1.
    9900012    2    1    2    0    0  0.15903900747E+01 -0.32089308600E+02  0.24918119974E+02  0.50528858715E+02  0.29999996550E+02 0.  0.
         12    1    1    2    0    0 -0.15903900747E+01  0.32089308600E+02 -0.24918119974E+02  0.40659141285E+02  0.00000000000E+00 0. -1.
         11    1    3    3    0    0  0.10875182861E+02 -0.96306435309E+01  0.25458666033E+01  0.14747892531E+02  0.51100000000E-03 0. -1.
        -11    1    3    3    0    0 -0.33667825399E+00 -0.16581292549E+02  0.97827638303E+01  0.19255001513E+02  0.51100000000E-03 0.  1.
         12    1    3    3    0    0 -0.89481145328E+01 -0.58773725203E+01  0.12589489540E+02  0.16525964671E+02  0.00000000000E+00 0. -1.
</event>
<event>
 7    1  0.5849044E-013  0.5052886E+02  0.7816164E-02  0.1300439E+00
        -11   -1    0    0    0    0  0.00000000000E+00  0.00000000000E+00  0.45593999997E+02  0.45594000000E+02  0.51100000000E-03 0. -1.
         11   -1    0    0    0    0 -0.00000000000E+00 -0.00000000000E+00 -0.45593999997E+02  0.45594000000E+02  0.51100000000E-03 0.  1.
    9900012    2    1    2    0    0  0.23261406074E+02  0.33285871767E+02 -0.20306282371E+01  0.50528859295E+02  0.29999998313E+02 0.  0.
         12    1    1    2    0    0 -0.23261406074E+02 -0.33285871767E+02  0.20306282371E+01  0.40659140705E+02  0.00000000000E+00 0. -1.
         11    1    3    3    0    0  0.14018097319E+02  0.54841419554E+00  0.54323985402E+01  0.15043894600E+02  0.51100000000E-03 0. -1.
        -11    1    3    3    0    0  0.24847799838E+01  0.11486470973E+02  0.61213165893E+00  0.11768086183E+02  0.51100000000E-03 0.  1.
         12    1    3    3    0    0  0.67585287712E+01  0.21250986599E+02 -0.80751584362E+01  0.23716878512E+02  0.00000000000E+00 0. -1.
</event>
<event>
 7    1  0.5849044E-013  0.5052886E+02  0.7816164E-02  0.1300439E+00
        -11   -1    0    0    0    0  0.00000000000E+00  0.00000000000E+00  0.45593999997E+02  0.45594000000E+02  0.51100000000E-03 0. -1.
         11   -1    0    0    0    0 -0.00000000000E+00 -0.00000000000E+00 -0.45593999997E+02  0.45594000000E+02  0.51100000000E-03 0.  1.
    9900012    2    1    2    0    0 -0.34963776121E+02  0.16294430517E+02 -0.12852691726E+02  0.50528858456E+02  0.29999995762E+02 0.  0.
         12    1    1    2    0    0  0.34963776121E+02 -0.16294430517E+02  0.12852691726E+02  0.40659141544E+02  0.00000000000E+00 0. -1.
         11    1    3    3    0    0 -0.20184421104E+00  0.29947534959E+01  0.59410637644E+01  0.66562398169E+01  0.51100000000E-03 0. -1.
        -11    1    3    3    0    0 -0.31240342616E+02  0.66009164275E+01 -0.16630698889E+02  0.36001545109E+02  0.51100000000E-03 0.  1.
        -12    1    3    3    0    0 -0.35215892939E+01  0.66987605939E+01 -0.21630566008E+01  0.78710735295E+01  0.00000000000E+00 0.  1.
</event>
<event>
 7    1  0.5849044E-013  0.5052886E+02  0.7816164E-02  0.1300439E+00
        -11   -1    0    0    0    0  0.00000000000E+00  0.00000000000E+00  0.45593999997E+02  0.45594000000E+02  0.51100000000E-03 0.  1.
         11   -1    0    0    0    0 -0.00000000000E+00 -0.00000000000E+00 -0.45593999997E+02  0.45594000000E+02  0.51100000000E-03 0. -1.
    9900012    2    1    2    0    0  0.26228620257E+02  0.15800102838E+02  0.26750364826E+02  0.50528858486E+02  0.29999995855E+02 0.  0.
         12    1    1    2    0    0 -0.26228620257E+02 -0.15800102838E+02 -0.26750364826E+02  0.40659141514E+02  0.00000000000E+00 0. -1.
         11    1    3    3    0    0  0.75876843553E+01  0.30572245496E+01 -0.44628581409E+01  0.93186200088E+01  0.51100000000E-03 0.  1.
        -11    1    3    3    0    0  0.11304277567E+02  0.14784221861E+02  0.17616770852E+02  0.25626363824E+02  0.51100000000E-03 0. -1.
         12    1    3    3    0    0  0.73366583352E+01 -0.20413435721E+01  0.13596452115E+02  0.15583874654E+02  0.00000000000E+00 0. -1.
</event>
<event>
 7    1  0.5849044E-013  0.5052887E+02  0.7816164E-02  0.1300439E+00
        -11   -1    0    0    0    0  0.00000000000E+00  0.00000000000E+00  0.45593999997E+02  0.45594000000E+02  0.51100000000E-03 0.  1.
         11   -1    0    0    0    0 -0.00000000000E+00 -0.00000000000E+00 -0.45593999997E+02  0.45594000000E+02  0.51100000000E-03 0. -1.
    9900012    2    1    2    0    0  0.15547151569E+02  0.34937765309E+02  0.13813169134E+02  0.50528868084E+02  0.30000025027E+02 0.  0.
         12    1    1    2    0    0 -0.15547151569E+02 -0.34937765309E+02 -0.13813169134E+02  0.40659131916E+02  0.00000000000E+00 0. -1.
         11    1    3    3    0    0  0.14317855326E+02  0.33366296277E+02  0.10225662388E+02  0.37721013771E+02  0.51100000000E-03 0.  1.
        -11    1    3    3    0    0  0.17088249585E+01 -0.20854812330E+01 -0.37364460962E+01  0.46076397866E+01  0.51100000000E-03 0. -1.
        -12    1    3    3    0    0 -0.47952871531E+00  0.36569502646E+01  0.73239528430E+01  0.82002145260E+01  0.00000000000E+00 0.  1.
</event>
<event>
 7    1  0.5849044E-013  0.5052885E+02  0.7816164E-02  0.1300439E+00
        -11   -1    0    0    0    0  0.00000000000E+00  0.00000000000E+00  0.45593999997E+02  0.45594000000E+02  0.51100000000E-03 0. -1.
         11   -1    0    0    0    0 -0.00000000000E+00 -0.00000000000E+00 -0.45593999997E+02  0.45594000000E+02  0.51100000000E-03 0.  1.
    9900012    2    1    2    0    0  0.35598504797E+02  0.10436589230E+02 -0.16643032832E+02  0.50528849980E+02  0.29999969999E+02 0.  0.
         12    1    1    2    0    0 -0.35598504797E+02 -0.10436589230E+02  0.16643032832E+02  0.40659150020E+02  0.00000000000E+00 0. -1.
         11    1    3    3    0    0  0.24800270935E+02  0.55384046982E+01 -0.18777429589E+02  0.31596190075E+02  0.51100000000E-03 0.  1.
        -11    1    3    3    0    0  0.12898067748E+02  0.50033464824E+01  0.55627306750E+01  0.14910989252E+02  0.51100000000E-03 0. -1.
         12    1    3    3    0    0 -0.20998338860E+01 -0.10516195079E+00 -0.34283339175E+01  0.40216706522E+01  0.00000000000E+00 0. -1.
</event>
<event>
 7    1  0.5849044E-013  0.5052886E+02  0.7816164E-02  0.1300439E+00
        -11   -1    0    0    0    0  0.00000000000E+00  0.00000000000E+00  0.45593999997E+02  0.45594000000E+02  0.51100000000E-03 0.  1.
         11   -1    0    0    0    0 -0.00000000000E+00 -0.00000000000E+00 -0.45593999997E+02  0.45594000000E+02  0.51100000000E-03 0. -1.
    9900012    2    1    2    0    0  0.18959713141E+02 -0.34680005863E+02  0.95389719294E+01  0.50528861857E+02  0.30000006100E+02 0.  0.
         12    1    1    2    0    0 -0.18959713141E+02  0.34680005863E+02 -0.95389719294E+01  0.40659138143E+02  0.00000000000E+00 0. -1.
         11    1    3    3    0    0 -0.19517861242E+01 -0.51007079813E+01  0.12904778626E+02  0.14012851338E+02  0.51100000000E-03 0. -1.
        -11    1    3    3    0    0  0.62892090784E+01 -0.84068412445E+01  0.42320950765E+00  0.10507532398E+02  0.51100000000E-03 0.  1.
         12    1    3    3    0    0  0.14622290187E+02 -0.21172456637E+02 -0.37890162040E+01  0.26008478121E+02  0.00000000000E+00 0. -1.
</event>
<event>
 7    1  0.5849044E-013  0.5052885E+02  0.7816164E-02  0.1300439E+00
        -11   -1    0    0    0    0  0.00000000000E+00  0.00000000000E+00  0.45593999997E+02  0.45594000000E+02  0.51100000000E-03 0. -1.
         11   -1    0    0    0    0 -0.00000000000E+00 -0.00000000000E+00 -0.45593999997E+02  0.45594000000E+02  0.51100000000E-03 0.  1.
    9900012    2    1    2    0    0 -0.14883691436E+02 -0.27220894662E+02 -0.26280503018E+02  0.50528853233E+02  0.29999979887E+02 0.  0.
         12    1    1    2    0    0  0.14883691436E+02  0.27220894662E+02  0.26280503018E+02  0.40659146767E+02  0.00000000000E+00 0. -1.
         11    1    3    3    0    0  0.62096540702E+00  0.22765191023E+01 -0.10307649039E+02  0.10574297434E+02  0.51100000000E-03 0. -1.
        -11    1    3    3    0    0 -0.15202022410E+02 -0.14523612483E+02 -0.56689363453E+01  0.21775528569E+02  0.51100000000E-03 0.  1.
         12    1    3    3    0    0 -0.30263443302E+00 -0.14973801282E+02 -0.10303917633E+02  0.18179027230E+02  0.00000000000E+00 0. -1.
</event>
<event>
 7    1  0.5849044E-013  0.5052886E+02  0.7816164E-02  0.1300439E+00
        -11   -1    0    0    0    0  0.00000000000E+00  0.00000000000E+00  0.45593999997E+02  0.45594000000E+02  0.51100000000E-03 0.  1.
         11   -1    0    0    0    0 -0.00000000000E+00 -0.00000000000E+00 -0.45593999997E+02  0.45594000000E+02  0.51100000000E-03 0. -1.
    9900012    2    1    2    0    0 -0.60060784907E+00  0.15680082661E+02  0.37509195980E+02  0.50528861973E+02  0.30000006454E+02 0.  0.
         12    1    1    2    0    0  0.60060784907E+00 -0.15680082661E+02 -0.37509195980E+02  0.40659138027E+02  0.00000000000E+00 0. -1.
         11    1    3    3    0    0  0.12851844090E+02  0.12880149369E+02  0.16165277145E+02  0.24338946766E+02  0.51100000000E-03 0. -1.
        -11    1    3    3    0    0 -0.39542332576E+01 -0.20234748205E+01  0.50837477624E+01  0.67509186469E+01  0.51100000000E-03 0.  1.
         12    1    3    3    0    0 -0.94982186815E+01  0.48234081125E+01  0.16260171073E+02  0.19438996560E+02  0.00000000000E+00 0. -1.
</event>
<event>
 7    1  0.5849044E-013  0.5052886E+02  0.7816164E-02  0.1300439E+00
        -11   -1    0    0    0    0  0.00000000000E+00  0.00000000000E+00  0.45593999997E+02  0.45594000000E+02  0.51100000000E-03 0. -1.
         11   -1    0    0    0    0 -0.00000000000E+00 -0.00000000000E+00 -0.45593999997E+02  0.45594000000E+02  0.51100000000E-03 0.  1.
    9900012    2    1    2    0    0  0.37170074314E+02  0.20242971956E+01 -0.16353998660E+02  0.50528862333E+02  0.30000007546E+02 0.  0.
         12    1    1    2    0    0 -0.37170074314E+02 -0.20242971956E+01  0.16353998660E+02  0.40659137667E+02  0.00000000000E+00 0. -1.
         11    1    3    3    0    0  0.85350874817E+01  0.13821762326E+02 -0.88712490268E+01  0.18509129955E+02  0.51100000000E-03 0. -1.
        -11    1    3    3    0    0  0.65638542795E+01 -0.41353091374E+01 -0.22503383263E+01  0.80776845388E+01  0.51100000000E-03 0.  1.
         12    1    3    3    0    0  0.22071132553E+02 -0.76621559932E+01 -0.52324113071E+01  0.23942047839E+02  0.00000000000E+00 0. -1.
</event>
<event>
 7    1  0.5849044E-013  0.5052889E+02  0.7816164E-02  0.1300439E+00
        -11   -1    0    0    0    0  0.00000000000E+00  0.00000000000E+00  0.45593999997E+02  0.45594000000E+02  0.51100000000E-03 0. -1.
         11   -1    0    0    0    0 -0.00000000000E+00 -0.00000000000E+00 -0.45593999997E+02  0.45594000000E+02  0.51100000000E-03 0.  1.
    9900012    2    1    2    0    0  0.29807791048E+02  0.27648166720E+02 -0.48761936966E+00  0.50528889056E+02  0.30000088775E+02 0.  0.
         12    1    1    2    0    0 -0.29807791048E+02 -0.27648166720E+02  0.48761936966E+00  0.40659110944E+02  0.00000000000E+00 0. -1.
         11    1    3    3    0    0  0.42598754272E+01  0.28173248012E+01  0.30647043936E+01  0.59561960153E+01  0.51100000000E-03 0. -1.
        -11    1    3    3    0    0  0.16844358470E+02  0.12117566381E+02 -0.14808030232E+02  0.25492069098E+02  0.51100000000E-03 0.  1.
        -12    1    3    3    0    0  0.87035571504E+01  0.12713275537E+02  0.11255706469E+02  0.19080623943E+02  0.00000000000E+00 0.  1.
</event>
<event>
 7    1  0.5849044E-013  0.5052887E+02  0.7816164E-02  0.1300439E+00
        -11   -1    0    0    0    0  0.00000000000E+00  0.00000000000E+00  0.45593999997E+02  0.45594000000E+02  0.51100000000E-03 0. -1.
         11   -1    0    0    0    0 -0.00000000000E+00 -0.00000000000E+00 -0.45593999997E+02  0.45594000000E+02  0.51100000000E-03 0.  1.
    9900012    2    1    2    0    0 -0.25810672938E+02 -0.31026513458E+02  0.49325062612E+01  0.50528868272E+02  0.30000025600E+02 0.  0.
         12    1    1    2    0    0  0.25810672938E+02  0.31026513458E+02 -0.49325062612E+01  0.40659131728E+02  0.00000000000E+00 0. -1.
         11    1    3    3    0    0  0.42499782651E-01 -0.31277081898E+01 -0.51828248314E+01  0.60535971328E+01  0.51100000000E-03 0. -1.
        -11    1    3    3    0    0 -0.69537069574E+01 -0.21752678986E+02  0.90756159304E+01  0.24574374627E+02  0.51100000000E-03 0.  1.
        -12    1    3    3    0    0 -0.18899465763E+02 -0.61461262820E+01  0.10397151622E+01  0.19900896513E+02  0.00000000000E+00 0.  1.
</event>
<event>
 7    1  0.5849044E-013  0.5052886E+02  0.7816164E-02  0.1300439E+00
        -11   -1    0    0    0    0  0.00000000000E+00  0.00000000000E+00  0.45593999997E+02  0.45594000000E+02  0.51100000000E-03 0. -1.
         11   -1    0    0    0    0 -0.00000000000E+00 -0.00000000000E+00 -0.45593999997E+02  0.45594000000E+02  0.51100000000E-03 0.  1.
    9900012    2    1    2    0    0  0.98727821323E+01 -0.26714874548E+02 -0.29017393794E+02  0.50528862137E+02  0.30000006951E+02 0.  0.
         12    1    1    2    0    0 -0.98727821323E+01  0.26714874548E+02  0.29017393794E+02  0.40659137863E+02  0.00000000000E+00 0. -1.
         11    1    3    3    0    0 -0.60262030216E+01 -0.15734584190E+02 -0.40737775933E+01  0.17334587581E+02  0.51100000000E-03 0. -1.
        -11    1    3    3    0    0  0.15047654744E+02 -0.11524522823E+02 -0.25699139706E+02  0.31932621588E+02  0.51100000000E-03 0.  1.
         12    1    3    3    0    0  0.85133040993E+00  0.54423246420E+00  0.75552350529E+00  0.12616529669E+01  0.00000000000E+00 0. -1.
</event>
<event>
 7    1  0.5849044E-013  0.5052886E+02  0.7816164E-02  0.1300439E+00
        -11   -1    0    0    0    0  0.00000000000E+00  0.00000000000E+00  0.45593999997E+02  0.45594000000E+02  0.51100000000E-03 0.  1.
         11   -1    0    0    0    0 -0.00000000000E+00 -0.00000000000E+00 -0.45593999997E+02  0.45594000000E+02  0.51100000000E-03 0. -1.
    9900012    2    1    2    0    0  0.27478811507E+02 -0.28072915619E+02 -0.10487692464E+02  0.50528863678E+02  0.30000011636E+02 0.  0.
         12    1    1    2    0    0 -0.27478811507E+02  0.28072915619E+02  0.10487692464E+02  0.40659136322E+02  0.00000000000E+00 0. -1.
         11    1    3    3    0    0  0.99795075277E+01 -0.12433169568E+02 -0.11735088951E+02  0.19796125605E+02  0.51100000000E-03 0. -1.
        -11    1    3    3    0    0  0.16893306740E+02 -0.20043901289E+02  0.16732387161E+01  0.26266737893E+02  0.51100000000E-03 0.  1.
        -12    1    3    3    0    0  0.60599723977E+00  0.44041552375E+01 -0.42584222912E+00  0.44660001808E+01  0.00000000000E+00 0.  1.
</event>
<event>
 7    1  0.5849044E-013  0.5052886E+02  0.7816164E-02  0.1300439E+00
        -11   -1    0    0    0    0  0.00000000000E+00  0.00000000000E+00  0.45593999997E+02  0.45594000000E+02  0.51100000000E-03 0.  1.
         11   -1    0    0    0    0 -0.00000000000E+00 -0.00000000000E+00 -0.45593999997E+02  0.45594000000E+02  0.51100000000E-03 0. -1.
    9900012    2    1    2    0    0  0.42045023214E+01  0.21397519423E+02  0.34316675587E+02  0.50528857110E+02  0.29999991671E+02 0.  0.
         12    1    1    2    0    0 -0.42045023214E+01 -0.21397519423E+02 -0.34316675587E+02  0.40659142890E+02  0.00000000000E+00 0. -1.
         11    1    3    3    0    0 -0.31426539939E+01  0.59291177167E+01 -0.17540859335E+01  0.69359591080E+01  0.51100000000E-03 0. -1.
        -11    1    3    3    0    0  0.10353782119E+02  0.27652265154E+01  0.21545602197E+02  0.24063670879E+02  0.51100000000E-03 0.  1.
        -12    1    3    3    0    0 -0.30066258039E+01  0.12703175191E+02  0.14525159323E+02  0.19529227123E+02  0.00000000000E+00 0.  1.
</event>
<event>
 7    1  0.5849044E-013  0.5052885E+02  0.7816164E-02  0.1300439E+00
        -11   -1    0    0    0    0  0.00000000000E+00  0.00000000000E+00  0.45593999997E+02  0.45594000000E+02  0.51100000000E-03 0.  1.
         11   -1    0    0    0    0 -0.00000000000E+00 -0.00000000000E+00 -0.45593999997E+02  0.45594000000E+02  0.51100000000E-03 0. -1.
    9900012    2    1    2    0    0 -0.22585452909E+02  0.40544707711E+01  0.33565236101E+02  0.50528849851E+02  0.29999969606E+02 0.  0.
         12    1    1    2    0    0  0.22585452909E+02 -0.40544707711E+01 -0.33565236101E+02  0.40659150149E+02  0.00000000000E+00 0. -1.
         11    1    3    3    0    0  0.11234342894E+01  0.43615294446E+01  0.10617772398E+02  0.11533522214E+02  0.51100000000E-03 0. -1.
        -11    1    3    3    0    0 -0.71364812474E+01 -0.84299499081E+01  0.22639704025E+01  0.11274705419E+02  0.51100000000E-03 0.  1.
        -12    1    3    3    0    0 -0.16572405951E+02  0.81228912345E+01  0.20683493301E+02  0.27720622218E+02  0.00000000000E+00 0.  1.
</event>
<event>
 7    1  0.5849044E-013  0.5052886E+02  0.7816164E-02  0.1300439E+00
        -11   -1    0    0    0    0  0.00000000000E+00  0.00000000000E+00  0.45593999997E+02  0.45594000000E+02  0.51100000000E-03 0. -1.
         11   -1    0    0    0    0 -0.00000000000E+00 -0.00000000000E+00 -0.45593999997E+02  0.45594000000E+02  0.51100000000E-03 0.  1.
    9900012    2    1    2    0    0 -0.28035179122E+02  0.28799529188E+02 -0.61466442754E+01  0.50528863442E+02  0.30000010917E+02 0.  0.
         12    1    1    2    0    0  0.28035179122E+02 -0.28799529188E+02  0.61466442754E+01  0.40659136558E+02  0.00000000000E+00 0. -1.
         11    1    3    3    0    0 -0.20045743127E+02  0.78893284954E+01 -0.13275486180E+02  0.25304384110E+02  0.51100000000E-03 0.  1.
        -11    1    3    3    0    0 -0.79833374691E+01  0.18663073635E+02  0.29940155486E+01  0.20518482498E+02  0.51100000000E-03 0. -1.
         12    1    3    3    0    0 -0.60985260049E-02  0.22471270576E+01  0.41348263561E+01  0.47059968338E+01  0.00000000000E+00 0. -1.
</event>
<event>
 7    1  0.5849044E-013  0.5052884E+02  0.7816164E-02  0.1300439E+00
        -11   -1    0    0    0    0  0.00000000000E+00  0.00000000000E+00  0.45593999997E+02  0.45594000000E+02  0.51100000000E-03 0. -1.
         11   -1    0    0    0    0 -0.00000000000E+00 -0.00000000000E+00 -0.45593999997E+02  0.45594000000E+02  0.51100000000E-03 0.  1.
    9900012    2    1    2    0    0  0.28398656731E+02 -0.20701964104E+02 -0.20447802295E+02  0.50528835712E+02  0.29999926630E+02 0.  0.
         12    1    1    2    0    0 -0.28398656731E+02  0.20701964104E+02  0.20447802295E+02  0.40659164288E+02  0.00000000000E+00 0. -1.
         11    1    3    3    0    0  0.99075408092E+01 -0.11536136599E+02 -0.22530021772E+02  0.27181679379E+02  0.51100000000E-03 0. -1.
        -11    1    3    3    0    0  0.92134664189E+01  0.90110667818E+00  0.27000830256E+01  0.96431532863E+01  0.51100000000E-03 0.  1.
        -12    1    3    3    0    0  0.92776495032E+01 -0.10066934183E+02 -0.61786354854E+00  0.13704003047E+02  0.00000000000E+00 0.  1.
</event>
<event>
 7    1  0.5849044E-013  0.5052885E+02  0.7816164E-02  0.1300439E+00
        -11   -1    0    0    0    0  0.00000000000E+00  0.00000000000E+00  0.45593999997E+02  0.45594000000E+02  0.51100000000E-03 0.  1.
         11   -1    0    0    0    0 -0.00000000000E+00 -0.00000000000E+00 -0.45593999997E+02  0.45594000000E+02  0.51100000000E-03 0. -1.
    9900012    2    1    2    0    0 -0.62723376222E+01  0.36516718496E+01  0.40006123579E+02  0.50528845430E+02  0.29999956168E+02 0.  0.
         12    1    1    2    0    0  0.62723376222E+01 -0.36516718496E+01 -0.40006123579E+02  0.40659154570E+02  0.00000000000E+00 0. -1.
         11    1    3    3    0    0 -0.71145692144E+01  0.44440654685E+01  0.22444450356E+02  0.23960804766E+02  0.51100000000E-03 0. -1.
        -11    1    3    3    0    0  0.68953461805E+01 -0.39633276162E+01  0.25071341060E+00  0.79571742608E+01  0.51100000000E-03 0.  1.
        -12    1    3    3    0    0 -0.60531145883E+01  0.31709339973E+01  0.17310959813E+02  0.18610866403E+02  0.00000000000E+00 0.  1.
</event>
<event>
 7    1  0.5849044E-013  0.5052886E+02  0.7816164E-02  0.1300439E+00
        -11   -1    0    0    0    0  0.00000000000E+00  0.00000000000E+00  0.45593999997E+02  0.45594000000E+02  0.51100000000E-03 0. -1.
         11   -1    0    0    0    0 -0.00000000000E+00 -0.00000000000E+00 -0.45593999997E+02  0.45594000000E+02  0.51100000000E-03 0.  1.
    9900012    2    1    2    0    0  0.34465369016E+02  0.17505179018E+02  0.12604477973E+02  0.50528858115E+02  0.29999994726E+02 0.  0.
         12    1    1    2    0    0 -0.34465369016E+02 -0.17505179018E+02 -0.12604477973E+02  0.40659141885E+02  0.00000000000E+00 0. -1.
         11    1    3    3    0    0  0.12240515573E+02  0.98303933612E+01  0.26025826633E+00  0.15701419992E+02  0.51100000000E-03 0. -1.
        -11    1    3    3    0    0  0.96063108834E+01  0.70280177182E+01  0.17513839424E+02  0.21175665597E+02  0.51100000000E-03 0.  1.
        -12    1    3    3    0    0  0.12618542560E+02  0.64676793835E+00 -0.51696197168E+01  0.13651772527E+02  0.00000000000E+00 0.  1.
</event>
<event>
 7    1  0.5849044E-013  0.5052886E+02  0.7816164E-02  0.1300439E+00
        -11   -1    0    0    0    0  0.00000000000E+00  0.00000000000E+00  0.45593999997E+02  0.45594000000E+02  0.51100000000E-03 0. -1.
         11   -1    0    0    0    0 -0.00000000000E+00 -0.00000000000E+00 -0.45593999997E+02  0.45594000000E+02  0.51100000000E-03 0.  1.
    9900012    2    1    2    0    0 -0.73582191934E+01  0.23939364416E+02 -0.32030133648E+02  0.50528855643E+02  0.29999987212E+02 0.  0.
         12    1    1    2    0    0  0.73582191934E+01 -0.23939364416E+02  0.32030133648E+02  0.40659144357E+02  0.00000000000E+00 0. -1.
         11    1    3    3    0    0 -0.18065487320E+02  0.14958884948E+02 -0.13931762929E+02  0.27280470846E+02  0.51100000000E-03 0. -1.
        -11    1    3    3    0    0  0.53798614973E+01  0.66622185963E+01 -0.12702096556E+02  0.15318985721E+02  0.51100000000E-03 0.  1.
         12    1    3    3    0    0  0.53274066293E+01  0.23182608721E+01 -0.53962741625E+01  0.79293990757E+01  0.00000000000E+00 0. -1.
</event>
<event>
 7    1  0.5849044E-013  0.5052885E+02  0.7816164E-02  0.1300439E+00
        -11   -1    0    0    0    0  0.00000000000E+00  0.00000000000E+00  0.45593999997E+02  0.45594000000E+02  0.51100000000E-03 0.  1.
         11   -1    0    0    0    0 -0.00000000000E+00 -0.00000000000E+00 -0.45593999997E+02  0.45594000000E+02  0.51100000000E-03 0. -1.
    9900012    2    1    2    0    0 -0.30067430374E+02  0.25608983490E+02 -0.96589692064E+01  0.50528854771E+02  0.29999984560E+02 0.  0.
         12    1    1    2    0    0  0.30067430374E+02 -0.25608983490E+02  0.96589692064E+01  0.40659145229E+02  0.00000000000E+00 0. -1.
         11    1    3    3    0    0  0.12115671369E+01  0.14455720463E+01  0.59789282605E+01  0.62693824954E+01  0.51100000000E-03 0. -1.
        -11    1    3    3    0    0 -0.10396273484E+02  0.15785093713E+02 -0.68770332253E+01  0.20113310820E+02  0.51100000000E-03 0.  1.
         12    1    3    3    0    0 -0.20882724027E+02  0.83783177300E+01 -0.87608642416E+01  0.24146161455E+02  0.00000000000E+00 0. -1.
</event>
<event>
 7    1  0.5849044E-013  0.5052886E+02  0.7816164E-02  0.1300439E+00
        -11   -1    0    0    0    0  0.00000000000E+00  0.00000000000E+00  0.45593999997E+02  0.45594000000E+02  0.51100000000E-03 0.  1.
         11   -1    0    0    0    0 -0.00000000000E+00 -0.00000000000E+00 -0.45593999997E+02  0.45594000000E+02  0.51100000000E-03 0. -1.
    9900012    2    1    2    0    0  0.24708678459E+02  0.15399408716E+02  0.28381427919E+02  0.50528855509E+02  0.29999986806E+02 0.  0.
         12    1    1    2    0    0 -0.24708678459E+02 -0.15399408716E+02 -0.28381427919E+02  0.40659144491E+02  0.00000000000E+00 0. -1.
         11    1    3    3    0    0  0.16989858739E+02  0.10878194208E+02  0.29528243788E+02  0.35761817497E+02  0.51100000000E-03 0. -1.
        -11    1    3    3    0    0  0.10199541291E+02  0.42943467997E+01 -0.32205199139E+01  0.11525788726E+02  0.51100000000E-03 0.  1.
         12    1    3    3    0    0 -0.24807215712E+01  0.22686770805E+00  0.20737040456E+01  0.32412492868E+01  0.00000000000E+00 0. -1.
</event>
<event>
 7    1  0.5849044E-013  0.5052885E+02  0.7816164E-02  0.1300439E+00
        -11   -1    0    0    0    0  0.00000000000E+00  0.00000000000E+00  0.45593999997E+02  0.45594000000E+02  0.51100000000E-03 0. -1.
         11   -1    0    0    0    0 -0.00000000000E+00 -0.00000000000E+00 -0.45593999997E+02  0.45594000000E+02  0.51100000000E-03 0.  1.
    9900012    2    1    2    0    0  0.21162541508E+01  0.26253412953E+02 -0.30974925607E+02  0.50528852940E+02  0.29999978997E+02 0.  0.
         12    1    1    2    0    0 -0.21162541508E+01 -0.26253412953E+02  0.30974925607E+02  0.40659147060E+02  0.00000000000E+00 0. -1.
         11    1    3    3    0    0 -0.24935061151E+01 -0.44477546115E+01 -0.11958216017E+01  0.52373737115E+01  0.51100000000E-03 0. -1.
        -11    1    3    3    0    0 -0.41792380951E+01  0.18784134498E+02 -0.15341235672E+02  0.24610226576E+02  0.51100000000E-03 0.  1.
        -12    1    3    3    0    0  0.87889983610E+01  0.11917033066E+02 -0.14437868333E+02  0.20681252653E+02  0.00000000000E+00 0.  1.
</event>
<event>
 7    1  0.5849044E-013  0.5052887E+02  0.7816164E-02  0.1300439E+00
        -11   -1    0    0    0    0  0.00000000000E+00  0.00000000000E+00  0.45593999997E+02  0.45594000000E+02  0.51100000000E-03 0. -1.
         11   -1    0    0    0    0 -0.00000000000E+00 -0.00000000000E+00 -0.45593999997E+02  0.45594000000E+02  0.51100000000E-03 0.  1.
    9900012    2    1    2    0    0 -0.39485569934E+02  0.45261857923E+01 -0.85771784584E+01  0.50528873335E+02  0.30000040990E+02 0.  0.
         12    1    1    2    0    0  0.39485569934E+02 -0.45261857923E+01  0.85771784584E+01  0.40659126665E+02  0.00000000000E+00 0. -1.
         11    1    3    3    0    0 -0.78393885666E+01  0.23079120693E+01  0.10567283170E+02  0.13358515826E+02  0.51100000000E-03 0. -1.
        -11    1    3    3    0    0 -0.11978295620E+02 -0.43646251303E+00 -0.79750695454E+01  0.14396937175E+02  0.51100000000E-03 0.  1.
         12    1    3    3    0    0 -0.19667885747E+02  0.26547362360E+01 -0.11169392083E+02  0.22773420335E+02  0.00000000000E+00 0. -1.
</event>
<event>
 7    1  0.5849044E-013  0.5052886E+02  0.7816164E-02  0.1300439E+00
        -11   -1    0    0    0    0  0.00000000000E+00  0.00000000000E+00  0.45593999997E+02  0.45594000000E+02  0.51100000000E-03 0.  1.
         11   -1    0    0    0    0 -0.00000000000E+00 -0.00000000000E+00 -0.45593999997E+02  0.45594000000E+02  0.51100000000E-03 0. -1.
    9900012    2    1    2    0    0  0.99309544814E+01 -0.39375250530E+02  0.20325459958E+01  0.50528862596E+02  0.30000008346E+02 0.  0.
         12    1    1    2    0    0 -0.99309544814E+01  0.39375250530E+02 -0.20325459958E+01  0.40659137404E+02  0.00000000000E+00 0. -1.
         11    1    3    3    0    0 -0.18660594881E+01 -0.12669779566E+02 -0.99129335428E+01  0.16194806080E+02  0.51100000000E-03 0. -1.
        -11    1    3    3    0    0  0.12519165805E+02 -0.23385778930E+02  0.55619112620E+01  0.27102749414E+02  0.51100000000E-03 0.  1.
        -12    1    3    3    0    0 -0.72215183541E+00 -0.33196920334E+01  0.63835682766E+01  0.72313071026E+01  0.00000000000E+00 0.  1.
</event>
<event>
 7    1  0.5849044E-013  0.5052886E+02  0.7816164E-02  0.1300439E+00
        -11   -1    0    0    0    0  0.00000000000E+00  0.00000000000E+00  0.45593999997E+02  0.45594000000E+02  0.51100000000E-03 0.  1.
         11   -1    0    0    0    0 -0.00000000000E+00 -0.00000000000E+00 -0.45593999997E+02  0.45594000000E+02  0.51100000000E-03 0. -1.
    9900012    2    1    2    0    0  0.39531306741E+02 -0.37769669577E+01  0.87278905662E+01  0.50528858767E+02  0.29999996708E+02 0.  0.
         12    1    1    2    0    0 -0.39531306741E+02  0.37769669577E+01 -0.87278905662E+01  0.40659141233E+02  0.00000000000E+00 0. -1.
         11    1    3    3    0    0  0.95367184555E+01  0.15750572464E+01  0.12304299516E+02  0.15646903562E+02  0.51100000000E-03 0. -1.
        -11    1    3    3    0    0  0.26999987933E+02  0.92514558365E+00 -0.56989615229E+01  0.27610385825E+02  0.51100000000E-03 0.  1.
        -12    1    3    3    0    0  0.29946003533E+01 -0.62771697878E+01  0.21225525731E+01  0.72715693798E+01  0.00000000000E+00 0.  1.
</event>
<event>
 7    1  0.5849044E-013  0.5052887E+02  0.7816164E-02  0.1300439E+00
        -11   -1    0    0    0    0  0.00000000000E+00  0.00000000000E+00  0.45593999997E+02  0.45594000000E+02  0.51100000000E-03 0. -1.
         11   -1    0    0    0    0 -0.00000000000E+00 -0.00000000000E+00 -0.45593999997E+02  0.45594000000E+02  0.51100000000E-03 0.  1.
    9900012    2    1    2    0    0  0.40520254264E+02  0.33083836538E+01 -0.57332171663E+00  0.50528866884E+02  0.30000021379E+02 0.  0.
         12    1    1    2    0    0 -0.40520254264E+02 -0.33083836538E+01  0.57332171663E+00  0.40659133116E+02  0.00000000000E+00 0. -1.
         11    1    3    3    0    0  0.33294054359E+02 -0.85530154673E+01  0.63268056701E+01  0.34952490605E+02  0.51100000000E-03 0. -1.
        -11    1    3    3    0    0  0.24891176310E+01  0.30792277315E+01 -0.24018957562E+01  0.46310315793E+01  0.51100000000E-03 0.  1.
         12    1    3    3    0    0  0.47370822736E+01  0.87821713896E+01 -0.44982316305E+01  0.10945344699E+02  0.00000000000E+00 0. -1.
</event>
<event>
 7    1  0.5849044E-013  0.5052890E+02  0.7816164E-02  0.1300439E+00
        -11   -1    0    0    0    0  0.00000000000E+00  0.00000000000E+00  0.45593999997E+02  0.45594000000E+02  0.51100000000E-03 0.  1.
         11   -1    0    0    0    0 -0.00000000000E+00 -0.00000000000E+00 -0.45593999997E+02  0.45594000000E+02  0.51100000000E-03 0. -1.
    9900012    2    1    2    0    0 -0.26631015132E+02 -0.12276990099E+02  0.28164286953E+02  0.50528898776E+02  0.30000118318E+02 0.  0.
         12    1    1    2    0    0  0.26631015132E+02  0.12276990099E+02 -0.28164286953E+02  0.40659101224E+02  0.00000000000E+00 0. -1.
         11    1    3    3    0    0  0.10729444914E+00 -0.30880670869E+01 -0.37018267373E+01  0.48219489718E+01  0.51100000000E-03 0. -1.
        -11    1    3    3    0    0 -0.21699078983E+02 -0.13895966036E+02  0.23591814884E+02  0.34935964715E+02  0.51100000000E-03 0.  1.
        -12    1    3    3    0    0 -0.50392305977E+01  0.47070430242E+01  0.82742988061E+01  0.10770985089E+02  0.00000000000E+00 0.  1.
</event>
<event>
 7    1  0.5849044E-013  0.5052887E+02  0.7816164E-02  0.1300439E+00
        -11   -1    0    0    0    0  0.00000000000E+00  0.00000000000E+00  0.45593999997E+02  0.45594000000E+02  0.51100000000E-03 0.  1.
         11   -1    0    0    0    0 -0.00000000000E+00 -0.00000000000E+00 -0.45593999997E+02  0.45594000000E+02  0.51100000000E-03 0. -1.
    9900012    2    1    2    0    0 -0.34766523048E+02  0.44783514927E+01  0.20600933100E+02  0.50528865706E+02  0.30000017800E+02 0.  0.
         12    1    1    2    0    0  0.34766523048E+02 -0.44783514927E+01 -0.20600933100E+02  0.40659134294E+02  0.00000000000E+00 0. -1.
         11    1    3    3    0    0 -0.20756854155E+02  0.32519298616E+01  0.39439731987E+01  0.21377019603E+02  0.51100000000E-03 0. -1.
        -11    1    3    3    0    0  0.42829744972E+01  0.30319957100E+01  0.57209604596E+01  0.77631345068E+01  0.51100000000E-03 0.  1.
        -12    1    3    3    0    0 -0.18292643390E+02 -0.18055740789E+01  0.10935999442E+02  0.21388711596E+02  0.00000000000E+00 0.  1.
</event>
<event>
 7    1  0.5849044E-013  0.5052886E+02  0.7816164E-02  0.1300439E+00
        -11   -1    0    0    0    0  0.00000000000E+00  0.00000000000E+00  0.45593999997E+02  0.45594000000E+02  0.51100000000E-03 0. -1.
         11   -1    0    0    0    0 -0.00000000000E+00 -0.00000000000E+00 -0.45593999997E+02  0.45594000000E+02  0.51100000000E-03 0.  1.
    9900012    2    1    2    0    0 -0.27725749607E+02 -0.13630398208E+02 -0.26432187774E+02  0.50528862071E+02  0.30000006750E+02 0.  0.
         12    1    1    2    0    0  0.27725749607E+02  0.13630398208E+02  0.26432187774E+02  0.40659137929E+02  0.00000000000E+00 0. -1.
         11    1    3    3    0    0 -0.16119615058E+01 -0.74610737751E+01  0.11973710613E+01  0.77265606510E+01  0.51100000000E-03 0. -1.
        -11    1    3    3    0    0 -0.22605022232E+02 -0.57110915177E+01 -0.30397742904E+02  0.38309611984E+02  0.51100000000E-03 0.  1.
        -12    1    3    3    0    0 -0.35087658692E+01 -0.45823291552E+00  0.27681840683E+01  0.44926894357E+01  0.00000000000E+00 0.  1.
</event>
<event>
 7    1  0.5849044E-013  0.5052886E+02  0.7816164E-02  0.1300439E+00
        -11   -1    0    0    0    0  0.00000000000E+00  0.00000000000E+00  0.45593999997E+02  0.45594000000E+02  0.51100000000E-03 0. -1.
         11   -1    0    0    0    0 -0.00000000000E+00 -0.00000000000E+00 -0.45593999997E+02  0.45594000000E+02  0.51100000000E-03 0.  1.
    9900012    2    1    2    0    0 -0.12344999930E+02 -0.38739632670E+02  0.87720537144E-01  0.50528857638E+02  0.29999993277E+02 0.  0.
         12    1    1    2    0    0  0.12344999930E+02  0.38739632670E+02 -0.87720537144E-01  0.40659142362E+02  0.00000000000E+00 0. -1.
         11    1    3    3    0    0 -0.13685409642E+01 -0.21677580574E+02  0.16661736612E+01  0.21784548167E+02  0.51100000000E-03 0. -1.
        -11    1    3    3    0    0 -0.12927884884E+02 -0.15384070981E+01 -0.14339060116E+01  0.13097823891E+02  0.51100000000E-03 0.  1.
        -12    1    3    3    0    0  0.19514259175E+01 -0.15523644999E+02 -0.14454711245E+00  0.15646485581E+02  0.00000000000E+00 0.  1.
</event>
<event>
 7    1  0.5849044E-013  0.5052886E+02  0.7816164E-02  0.1300439E+00
        -11   -1    0    0    0    0  0.00000000000E+00  0.00000000000E+00  0.45593999997E+02  0.45594000000E+02  0.51100000000E-03 0.  1.
         11   -1    0    0    0    0 -0.00000000000E+00 -0.00000000000E+00 -0.45593999997E+02  0.45594000000E+02  0.51100000000E-03 0. -1.
    9900012    2    1    2    0    0  0.94889075026E+00  0.92101595926E+01  0.39590889946E+02  0.50528855886E+02  0.29999987951E+02 0.  0.
         12    1    1    2    0    0 -0.94889075026E+00 -0.92101595926E+01 -0.39590889946E+02  0.40659144114E+02  0.00000000000E+00 0. -1.
         11    1    3    3    0    0  0.74851773488E+01  0.68482327418E+01  0.13266084967E+02  0.16700753942E+02  0.51100000000E-03 0.  1.
        -11    1    3    3    0    0 -0.11086702822E+02  0.82332436564E+01  0.17534230060E+02  0.22319285486E+02  0.51100000000E-03 0. -1.
        -12    1    3    3    0    0  0.45504162234E+01 -0.58713168056E+01  0.87905749193E+01  0.11508816457E+02  0.00000000000E+00 0.  1.
</event>
<event>
 7    1  0.5849044E-013  0.5052886E+02  0.7816164E-02  0.1300439E+00
        -11   -1    0    0    0    0  0.00000000000E+00  0.00000000000E+00  0.45593999997E+02  0.45594000000E+02  0.51100000000E-03 0. -1.
         11   -1    0    0    0    0 -0.00000000000E+00 -0.00000000000E+00 -0.45593999997E+02  0.45594000000E+02  0.51100000000E-03 0.  1.
    9900012    2    1    2    0    0  0.31540966356E+02 -0.25657965872E+02 -0.47383684782E-01  0.50528855683E+02  0.29999987335E+02 0.  0.
         12    1    1    2    0    0 -0.31540966356E+02  0.25657965872E+02  0.47383684782E-01  0.40659144317E+02  0.00000000000E+00 0. -1.
         11    1    3    3    0    0  0.55542847940E+01 -0.20767719064E+02 -0.30348191869E+01  0.21710789080E+02  0.51100000000E-03 0. -1.
        -11    1    3    3    0    0  0.16639388442E+02 -0.48798104927E+00 -0.29434115682E+01  0.16904763978E+02  0.51100000000E-03 0.  1.
         12    1    3    3    0    0  0.93472931194E+01 -0.44022657589E+01  0.59308470703E+01  0.11913302625E+02  0.00000000000E+00 0. -1.
</event>
<event>
 7    1  0.5849044E-013  0.5052887E+02  0.7816164E-02  0.1300439E+00
        -11   -1    0    0    0    0  0.00000000000E+00  0.00000000000E+00  0.45593999997E+02  0.45594000000E+02  0.51100000000E-03 0.  1.
         11   -1    0    0    0    0 -0.00000000000E+00 -0.00000000000E+00 -0.45593999997E+02  0.45594000000E+02  0.51100000000E-03 0. -1.
    9900012    2    1    2    0    0  0.18854590683E+02  0.26843950119E+02  0.24022320788E+02  0.50528866415E+02  0.30000019956E+02 0.  0.
         12    1    1    2    0    0 -0.18854590683E+02 -0.26843950119E+02 -0.24022320788E+02  0.40659133585E+02  0.00000000000E+00 0. -1.
         11    1    3    3    0    0  0.19514056832E+02  0.20333402874E+02  0.34985792559E+01  0.28398692638E+02  0.51100000000E-03 0. -1.
        -11    1    3    3    0    0  0.37513158806E-01  0.69448376346E+01  0.14807573653E+02  0.16355317629E+02  0.51100000000E-03 0.  1.
         12    1    3    3    0    0 -0.69697930804E+00 -0.43429038971E+00  0.57161678797E+01  0.57748561478E+01  0.00000000000E+00 0. -1.
</event>
<event>
 7    1  0.5849044E-013  0.5052888E+02  0.7816164E-02  0.1300439E+00
        -11   -1    0    0    0    0  0.00000000000E+00  0.00000000000E+00  0.45593999997E+02  0.45594000000E+02  0.51100000000E-03 0.  1.
         11   -1    0    0    0    0 -0.00000000000E+00 -0.00000000000E+00 -0.45593999997E+02  0.45594000000E+02  0.51100000000E-03 0. -1.
    9900012    2    1    2    0    0 -0.55902525850E+01  0.27798385126E+02  0.29140406445E+02  0.50528875226E+02  0.30000046738E+02 0.  0.
         12    1    1    2    0    0  0.55902525850E+01 -0.27798385126E+02 -0.29140406445E+02  0.40659124774E+02  0.00000000000E+00 0. -1.
         11    1    3    3    0    0  0.34324381818E+01  0.16163695409E+01 -0.68931931923E+00  0.38560917715E+01  0.51100000000E-03 0. -1.
        -11    1    3    3    0    0 -0.12655957257E+02  0.25040360748E+02  0.15936622085E+02  0.32267148064E+02  0.51100000000E-03 0.  1.
        -12    1    3    3    0    0  0.36332664905E+01  0.11416548375E+01  0.13893103679E+02  0.14405635391E+02  0.00000000000E+00 0.  1.
</event>
<event>
 7    1  0.5849044E-013  0.5052886E+02  0.7816164E-02  0.1300439E+00
        -11   -1    0    0    0    0  0.00000000000E+00  0.00000000000E+00  0.45593999997E+02  0.45594000000E+02  0.51100000000E-03 0. -1.
         11   -1    0    0    0    0 -0.00000000000E+00 -0.00000000000E+00 -0.45593999997E+02  0.45594000000E+02  0.51100000000E-03 0.  1.
    9900012    2    1    2    0    0  0.26559431929E+02  0.20553725755E+02 -0.22919574564E+02  0.50528856317E+02  0.29999989262E+02 0.  0.
         12    1    1    2    0    0 -0.26559431929E+02 -0.20553725755E+02  0.22919574564E+02  0.40659143683E+02  0.00000000000E+00 0. -1.
         11    1    3    3    0    0  0.10892518145E+02  0.30993473353E+01 -0.89157494462E+00  0.11359921285E+02  0.51100000000E-03 0. -1.
        -11    1    3    3    0    0  0.60087003888E+01  0.14568305249E+02 -0.24179640517E+02  0.28861653001E+02  0.51100000000E-03 0.  1.
        -12    1    3    3    0    0  0.96582133950E+01  0.28860731701E+01  0.21516408968E+01  0.10307282031E+02  0.00000000000E+00 0.  1.
</event>
<event>
 7    1  0.5849044E-013  0.5052886E+02  0.7816164E-02  0.1300439E+00
        -11   -1    0    0    0    0  0.00000000000E+00  0.00000000000E+00  0.45593999997E+02  0.45594000000E+02  0.51100000000E-03 0. -1.
         11   -1    0    0    0    0 -0.00000000000E+00 -0.00000000000E+00 -0.45593999997E+02  0.45594000000E+02  0.51100000000E-03 0.  1.
    9900012    2    1    2    0    0 -0.34512564453E+02  0.21243835857E+02 -0.32784386027E+01  0.50528858018E+02  0.29999994431E+02 0.  0.
         12    1    1    2    0    0  0.34512564453E+02 -0.21243835857E+02  0.32784386027E+01  0.40659141982E+02  0.00000000000E+00 0. -1.
         11    1    3    3    0    0 -0.24678805969E+02  0.89105472660E+01 -0.44745231585E+01  0.26616962155E+02  0.51100000000E-03 0. -1.
        -11    1    3    3    0    0 -0.34278105855E+01  0.10414372757E+02 -0.72460804390E+01  0.13142097524E+02  0.51100000000E-03 0.  1.
        -12    1    3    3    0    0 -0.64059478989E+01  0.19189158338E+01  0.84421649948E+01  0.10769798339E+02  0.00000000000E+00 0.  1.
</event>
<event>
 7    1  0.5849044E-013  0.5052886E+02  0.7816164E-02  0.1300439E+00
        -11   -1    0    0    0    0  0.00000000000E+00  0.00000000000E+00  0.45593999997E+02  0.45594000000E+02  0.51100000000E-03 0.  1.
         11   -1    0    0    0    0 -0.00000000000E+00 -0.00000000000E+00 -0.45593999997E+02  0.45594000000E+02  0.51100000000E-03 0. -1.
    9900012    2    1    2    0    0 -0.28281256793E+02 -0.29061427181E+02  0.29613769739E+01  0.50528858479E+02  0.29999995834E+02 0.  0.
         12    1    1    2    0    0  0.28281256793E+02  0.29061427181E+02 -0.29613769739E+01  0.40659141521E+02  0.00000000000E+00 0. -1.
         11    1    3    3    0    0  0.22989947018E+01 -0.24286394177E+00  0.39629048331E+00  0.23455076085E+01  0.51100000000E-03 0. -1.
        -11    1    3    3    0    0 -0.25427914887E+02 -0.13289835428E+02 -0.65849418475E+01  0.29437391878E+02  0.51100000000E-03 0.  1.
        -12    1    3    3    0    0 -0.51523366084E+01 -0.15528727811E+02  0.91500283381E+01  0.18745958992E+02  0.00000000000E+00 0.  1.
</event>
<event>
 7    1  0.5849044E-013  0.5052886E+02  0.7816164E-02  0.1300439E+00
        -11   -1    0    0    0    0  0.00000000000E+00  0.00000000000E+00  0.45593999997E+02  0.45594000000E+02  0.51100000000E-03 0.  1.
         11   -1    0    0    0    0 -0.00000000000E+00 -0.00000000000E+00 -0.45593999997E+02  0.45594000000E+02  0.51100000000E-03 0. -1.
    9900012    2    1    2    0    0 -0.32345748353E+02  0.11445144330E+02  0.21815753510E+02  0.50528857529E+02  0.29999992946E+02 0.  0.
         12    1    1    2    0    0  0.32345748353E+02 -0.11445144330E+02 -0.21815753510E+02  0.40659142471E+02  0.00000000000E+00 0. -1.
         11    1    3    3    0    0 -0.94188206932E+00  0.64624610957E+01  0.47106985153E+00  0.65477058816E+01  0.51100000000E-03 0. -1.
        -11    1    3    3    0    0 -0.28528808697E+02  0.99879114964E+01  0.11058450620E+02  0.32186031630E+02  0.51100000000E-03 0.  1.
        -12    1    3    3    0    0 -0.28750575861E+01 -0.50052282620E+01  0.10286233039E+02  0.11795120017E+02  0.00000000000E+00 0.  1.
</event>
<event>
 7    1  0.5849044E-013  0.5052885E+02  0.7816164E-02  0.1300439E+00
        -11   -1    0    0    0    0  0.00000000000E+00  0.00000000000E+00  0.45593999997E+02  0.45594000000E+02  0.51100000000E-03 0.  1.
         11   -1    0    0    0    0 -0.00000000000E+00 -0.00000000000E+00 -0.45593999997E+02  0.45594000000E+02  0.51100000000E-03 0. -1.
    9900012    2    1    2    0    0 -0.16637448473E+02 -0.35851006334E+01  0.36925715225E+02  0.50528854865E+02  0.29999984847E+02 0.  0.
         12    1    1    2    0    0  0.16637448473E+02  0.35851006334E+01 -0.36925715225E+02  0.40659145135E+02  0.00000000000E+00 0. -1.
         11    1    3    3    0    0 -0.22550325906E+01 -0.30228955947E+01 -0.42057449504E+01  0.56490141273E+01  0.51100000000E-03 0. -1.
        -11    1    3    3    0    0 -0.76777716429E+01  0.50668323504E+01  0.20716691705E+02  0.22667207215E+02  0.51100000000E-03 0.  1.
         12    1    3    3    0    0 -0.67046442400E+01 -0.56290373891E+01  0.20414768470E+02  0.22212633522E+02  0.00000000000E+00 0. -1.
</event>
<event>
 7    1  0.5849044E-013  0.5052889E+02  0.7816164E-02  0.1300439E+00
        -11   -1    0    0    0    0  0.00000000000E+00  0.00000000000E+00  0.45593999997E+02  0.45594000000E+02  0.51100000000E-03 0.  1.
         11   -1    0    0    0    0 -0.00000000000E+00 -0.00000000000E+00 -0.45593999997E+02  0.45594000000E+02  0.51100000000E-03 0. -1.
    9900012    2    1    2    0    0  0.32454620027E+02 -0.19666927558E+02  0.14597013955E+02  0.50528890109E+02  0.30000091977E+02 0.  0.
         12    1    1    2    0    0 -0.32454620027E+02  0.19666927558E+02 -0.14597013955E+02  0.40659109891E+02  0.00000000000E+00 0. -1.
         11    1    3    3    0    0  0.21483189817E+01  0.14408636605E+01  0.58113579283E+01  0.63610725328E+01  0.51100000000E-03 0. -1.
        -11    1    3    3    0    0  0.19665272040E+02 -0.15954248434E+02 -0.52027660604E+01  0.25852074239E+02  0.51100000000E-03 0.  1.
        -12    1    3    3    0    0  0.10641029006E+02 -0.51535427843E+01  0.13988422088E+02  0.18315743338E+02  0.00000000000E+00 0.  1.
</event>
<event>
 7    1  0.5849044E-013  0.5052886E+02  0.7816164E-02  0.1300439E+00
        -11   -1    0    0    0    0  0.00000000000E+00  0.00000000000E+00  0.45593999997E+02  0.45594000000E+02  0.51100000000E-03 0.  1.
         11   -1    0    0    0    0 -0.00000000000E+00 -0.00000000000E+00 -0.45593999997E+02  0.45594000000E+02  0.51100000000E-03 0. -1.
    9900012    2    1    2    0    0  0.60268983997E+01  0.17243153595E+02  0.36325138699E+02  0.50528861400E+02  0.30000004712E+02 0.  0.
         12    1    1    2    0    0 -0.60268983997E+01 -0.17243153595E+02 -0.36325138699E+02  0.40659138600E+02  0.00000000000E+00 0. -1.
         11    1    3    3    0    0  0.10588849362E+02  0.18176701331E+02  0.38823700716E+02  0.44156493743E+02  0.51100000000E-03 0. -1.
        -11    1    3    3    0    0 -0.36860286010E+00 -0.15082776688E+01 -0.22820128382E+00  0.15693456221E+01  0.51100000000E-03 0.  1.
         12    1    3    3    0    0 -0.41933481025E+01  0.57472993198E+00 -0.22703607339E+01  0.48030220347E+01  0.00000000000E+00 0. -1.
</event>
<event>
 7    1  0.5849044E-013  0.5052885E+02  0.7816164E-02  0.1300439E+00
        -11   -1    0    0    0    0  0.00000000000E+00  0.00000000000E+00  0.45593999997E+02  0.45594000000E+02  0.51100000000E-03 0.  1.
         11   -1    0    0    0    0 -0.00000000000E+00 -0.00000000000E+00 -0.45593999997E+02  0.45594000000E+02  0.51100000000E-03 0. -1.
    9900012    2    1    2    0    0  0.19193297142E+01  0.13992809988E+02  0.38127204295E+02  0.50528852625E+02  0.29999978039E+02 0.  0.
         12    1    1    2    0    0 -0.19193297142E+01 -0.13992809988E+02 -0.38127204295E+02  0.40659147375E+02  0.00000000000E+00 0. -1.
         11    1    3    3    0    0 -0.40206308121E+00  0.15252072393E+01 -0.49701813995E+01  0.52144621246E+01  0.51100000000E-03 0. -1.
        -11    1    3    3    0    0  0.28443556896E+01  0.25785731786E+01  0.84832863005E+01  0.93115812644E+01  0.51100000000E-03 0.  1.
         12    1    3    3    0    0 -0.52296289421E+00  0.98890295704E+01  0.34614099394E+02  0.36002809236E+02  0.00000000000E+00 0. -1.
</event>
<event>
 7    1  0.5849044E-013  0.5052885E+02  0.7816164E-02  0.1300439E+00
        -11   -1    0    0    0    0  0.00000000000E+00  0.00000000000E+00  0.45593999997E+02  0.45594000000E+02  0.51100000000E-03 0. -1.
         11   -1    0    0    0    0 -0.00000000000E+00 -0.00000000000E+00 -0.45593999997E+02  0.45594000000E+02  0.51100000000E-03 0.  1.
    9900012    2    1    2    0    0  0.24911862294E+02 -0.19365895342E+02 -0.25642298165E+02  0.50528852929E+02  0.29999978963E+02 0.  0.
         12    1    1    2    0    0 -0.24911862294E+02  0.19365895342E+02  0.25642298165E+02  0.40659147071E+02  0.00000000000E+00 0. -1.
         11    1    3    3    0    0  0.18608981454E+00 -0.63267180193E+01  0.45007565056E+01  0.77665178618E+01  0.51100000000E-03 0. -1.
        -11    1    3    3    0    0  0.17563221371E+02 -0.11986167777E+02 -0.28103099449E+02  0.35240873454E+02  0.51100000000E-03 0.  1.
         12    1    3    3    0    0  0.71625511089E+01 -0.10530095453E+01 -0.20399552208E+01  0.75214616128E+01  0.00000000000E+00 0. -1.
</event>
<event>
 7    1  0.5849044E-013  0.5052886E+02  0.7816164E-02  0.1300439E+00
        -11   -1    0    0    0    0  0.00000000000E+00  0.00000000000E+00  0.45593999997E+02  0.45594000000E+02  0.51100000000E-03 0.  1.
         11   -1    0    0    0    0 -0.00000000000E+00 -0.00000000000E+00 -0.45593999997E+02  0.45594000000E+02  0.51100000000E-03 0. -1.
    9900012    2    1    2    0    0 -0.35188561210E+02  0.18671518378E+02  0.81427914697E+01  0.50528862140E+02  0.30000006962E+02 0.  0.
         12    1    1    2    0    0  0.35188561210E+02 -0.18671518378E+02 -0.81427914697E+01  0.40659137860E+02  0.00000000000E+00 0. -1.
         11    1    3    3    0    0 -0.15546871752E+02 -0.33655434918E+01  0.36152271415E+01  0.16312632277E+02  0.51100000000E-03 0.  1.
        -11    1    3    3    0    0 -0.30293737336E+00  0.69928539094E+01 -0.42516339350E+01  0.81895157506E+01  0.51100000000E-03 0. -1.
        -12    1    3    3    0    0 -0.19338752085E+02  0.15044207960E+02  0.87791982631E+01  0.26026714112E+02  0.00000000000E+00 0.  1.
</event>
<event>
 7    1  0.5849044E-013  0.5052886E+02  0.7816164E-02  0.1300439E+00
        -11   -1    0    0    0    0  0.00000000000E+00  0.00000000000E+00  0.45593999997E+02  0.45594000000E+02  0.51100000000E-03 0.  1.
         11   -1    0    0    0    0 -0.00000000000E+00 -0.00000000000E+00 -0.45593999997E+02  0.45594000000E+02  0.51100000000E-03 0. -1.
    9900012    2    1    2    0    0  0.95002618136E+01  0.84489689911E+01  0.38620269444E+02  0.50528864944E+02  0.30000015484E+02 0.  0.
         12    1    1    2    0    0 -0.95002618136E+01 -0.84489689911E+01 -0.38620269444E+02  0.40659135056E+02  0.00000000000E+00 0. -1.
         11    1    3    3    0    0  0.11942356026E+02  0.34582607207E+01  0.29906601175E+01  0.12787630072E+02  0.51100000000E-03 0. -1.
        -11    1    3    3    0    0  0.40269594370E+01  0.18888162065E+01  0.20762868467E+02  0.21233952439E+02  0.51100000000E-03 0.  1.
         12    1    3    3    0    0 -0.64690536495E+01  0.31018920639E+01  0.14866740860E+02  0.16507282432E+02  0.00000000000E+00 0. -1.
</event>
<event>
 7    1  0.5849044E-013  0.5052887E+02  0.7816164E-02  0.1300439E+00
        -11   -1    0    0    0    0  0.00000000000E+00  0.00000000000E+00  0.45593999997E+02  0.45594000000E+02  0.51100000000E-03 0.  1.
         11   -1    0    0    0    0 -0.00000000000E+00 -0.00000000000E+00 -0.45593999997E+02  0.45594000000E+02  0.51100000000E-03 0. -1.
    9900012    2    1    2    0    0  0.73677717601E+01  0.26852730384E+02  0.29627888119E+02  0.50528868871E+02  0.30000027420E+02 0.  0.
         12    1    1    2    0    0 -0.73677717601E+01 -0.26852730384E+02 -0.29627888119E+02  0.40659131129E+02  0.00000000000E+00 0. -1.
         11    1    3    3    0    0  0.12789146779E+01  0.46055981511E+01 -0.24543167823E+01  0.53731581227E+01  0.51100000000E-03 0. -1.
        -11    1    3    3    0    0 -0.10175647385E+01  0.21811729886E+02  0.31053673158E+02  0.37962054943E+02  0.51100000000E-03 0.  1.
        -12    1    3    3    0    0  0.71064218207E+01  0.43540234659E+00  0.10285317437E+01  0.71936558053E+01  0.00000000000E+00 0.  1.
</event>
<event>
 7    1  0.5849044E-013  0.5052885E+02  0.7816164E-02  0.1300439E+00
        -11   -1    0    0    0    0  0.00000000000E+00  0.00000000000E+00  0.45593999997E+02  0.45594000000E+02  0.51100000000E-03 0.  1.
         11   -1    0    0    0    0 -0.00000000000E+00 -0.00000000000E+00 -0.45593999997E+02  0.45594000000E+02  0.51100000000E-03 0. -1.
    9900012    2    1    2    0    0  0.16483255141E+02 -0.28629152543E+01  0.37057686326E+02  0.50528854662E+02  0.29999984231E+02 0.  0.
         12    1    1    2    0    0 -0.16483255141E+02  0.28629152543E+01 -0.37057686326E+02  0.40659145338E+02  0.00000000000E+00 0. -1.
         11    1    3    3    0    0 -0.47479928950E+00  0.10828889138E+01 -0.45204221662E+01  0.46725046375E+01  0.51100000000E-03 0. -1.
        -11    1    3    3    0    0  0.11343058974E+02  0.99755689777E+00  0.19949031560E+02  0.22970066763E+02  0.51100000000E-03 0.  1.
         12    1    3    3    0    0  0.56149954561E+01 -0.49433610659E+01  0.21629076932E+02  0.22886283262E+02  0.00000000000E+00 0. -1.
</event>
<event>
 7    1  0.5849044E-013  0.5052889E+02  0.7816164E-02  0.1300439E+00
        -11   -1    0    0    0    0  0.00000000000E+00  0.00000000000E+00  0.45593999997E+02  0.45594000000E+02  0.51100000000E-03 0.  1.
         11   -1    0    0    0    0 -0.00000000000E+00 -0.00000000000E+00 -0.45593999997E+02  0.45594000000E+02  0.51100000000E-03 0. -1.
    9900012    2    1    2    0    0  0.27969060005E+02  0.99055511608E+01  0.27798824258E+02  0.50528894113E+02  0.30000104146E+02 0.  0.
         12    1    1    2    0    0 -0.27969060005E+02 -0.99055511608E+01 -0.27798824258E+02  0.40659105887E+02  0.00000000000E+00 0. -1.
         11    1    3    3    0    0  0.41163091385E+01  0.12929509806E+02  0.25210352959E+01  0.13801153719E+02  0.51100000000E-03 0. -1.
        -11    1    3    3    0    0  0.17833893591E+02 -0.38809813625E+01  0.11252002125E+02  0.21441019776E+02  0.51100000000E-03 0.  1.
         12    1    3    3    0    0  0.60188572758E+01  0.85702271693E+00  0.14025786838E+02  0.15286720618E+02  0.00000000000E+00 0. -1.
</event>
<event>
 7    1  0.5849044E-013  0.5052885E+02  0.7816164E-02  0.1300439E+00
        -11   -1    0    0    0    0  0.00000000000E+00  0.00000000000E+00  0.45593999997E+02  0.45594000000E+02  0.51100000000E-03 0.  1.
         11   -1    0    0    0    0 -0.00000000000E+00 -0.00000000000E+00 -0.45593999997E+02  0.45594000000E+02  0.51100000000E-03 0. -1.
    9900012    2    1    2    0    0 -0.22907299069E+02  0.33588993838E+02  0.44863688880E+00  0.50528854255E+02  0.29999982993E+02 0.  0.
         12    1    1    2    0    0  0.22907299069E+02 -0.33588993838E+02 -0.44863688880E+00  0.40659145745E+02  0.00000000000E+00 0. -1.
         11    1    3    3    0    0 -0.23063396755E+01  0.13909818244E+02 -0.70504022320E+01  0.15764213211E+02  0.51100000000E-03 0. -1.
        -11    1    3    3    0    0 -0.17310335417E+02  0.87258410501E+01  0.11627911049E+02  0.22605227933E+02  0.51100000000E-03 0.  1.
        -12    1    3    3    0    0 -0.32906239767E+01  0.10953334544E+02 -0.41288719285E+01  0.12159413110E+02  0.00000000000E+00 0.  1.
</event>
<event>
 7    1  0.5849044E-013  0.5052886E+02  0.7816164E-02  0.1300439E+00
        -11   -1    0    0    0    0  0.00000000000E+00  0.00000000000E+00  0.45593999997E+02  0.45594000000E+02  0.51100000000E-03 0.  1.
         11   -1    0    0    0    0 -0.00000000000E+00 -0.00000000000E+00 -0.45593999997E+02  0.45594000000E+02  0.51100000000E-03 0. -1.
    9900012    2    1    2    0    0 -0.29281559963E+02  0.27774636482E+02  0.49320714974E+01  0.50528861853E+02  0.30000006089E+02 0.  0.
         12    1    1    2    0    0  0.29281559963E+02 -0.27774636482E+02 -0.49320714974E+01  0.40659138147E+02  0.00000000000E+00 0. -1.
         11    1    3    3    0    0  0.21584759612E+01  0.17497829657E+01 -0.43662104111E+00  0.28127205864E+01  0.51100000000E-03 0. -1.
        -11    1    3    3    0    0 -0.24753645053E+02  0.27198154731E+02 -0.30488595853E+01  0.36902277832E+02  0.51100000000E-03 0.  1.
        -12    1    3    3    0    0 -0.66863908719E+01 -0.11733012150E+01  0.84175521238E+01  0.10813863435E+02  0.00000000000E+00 0.  1.
</event>
<event>
 7    1  0.5849044E-013  0.5052883E+02  0.7816164E-02  0.1300439E+00
        -11   -1    0    0    0    0  0.00000000000E+00  0.00000000000E+00  0.45593999997E+02  0.45594000000E+02  0.51100000000E-03 0.  1.
         11   -1    0    0    0    0 -0.00000000000E+00 -0.00000000000E+00 -0.45593999997E+02  0.45594000000E+02  0.51100000000E-03 0. -1.
    9900012    2    1    2    0    0 -0.15108198089E+02  0.45864296583E+01  0.37468324704E+02  0.50528827079E+02  0.29999900390E+02 0.  0.
         12    1    1    2    0    0  0.15108198089E+02 -0.45864296583E+01 -0.37468324704E+02  0.40659172921E+02  0.00000000000E+00 0. -1.
         11    1    3    3    0    0 -0.71075830393E+01 -0.62101597394E+01 -0.34210225131E+00  0.94446204191E+01  0.51100000000E-03 0. -1.
        -11    1    3    3    0    0 -0.72697666464E+01  0.12299817506E+02  0.32141784454E+02  0.35174270795E+02  0.51100000000E-03 0.  1.
         12    1    3    3    0    0 -0.73084840342E+00 -0.15032281082E+01  0.56686425006E+01  0.59099358655E+01  0.00000000000E+00 0. -1.
</event>
<event>
 7    1  0.5849044E-013  0.5052886E+02  0.7816164E-02  0.1300439E+00
        -11   -1    0    0    0    0  0.00000000000E+00  0.00000000000E+00  0.45593999997E+02  0.45594000000E+02  0.51100000000E-03 0.  1.
         11   -1    0    0    0    0 -0.00000000000E+00 -0.00000000000E+00 -0.45593999997E+02  0.45594000000E+02  0.51100000000E-03 0. -1.
    9900012    2    1    2    0    0 -0.40554422224E+02  0.29049085998E+01 -0.25728811077E+00  0.50528857694E+02  0.29999993446E+02 0.  0.
         12    1    1    2    0    0  0.40554422224E+02 -0.29049085998E+01  0.25728811077E+00  0.40659142306E+02  0.00000000000E+00 0. -1.
         11    1    3    3    0    0 -0.87450344452E+00 -0.26034399237E+00 -0.90802083064E+01  0.91259365775E+01  0.51100000000E-03 0. -1.
        -11    1    3    3    0    0 -0.28254247095E+02  0.12982454524E+00  0.87578934532E+01  0.29580737505E+02  0.51100000000E-03 0.  1.
        -12    1    3    3    0    0 -0.11425671685E+02  0.30354280469E+01  0.65026742388E-01  0.11822183612E+02  0.00000000000E+00 0.  1.
</event>
<event>
 7    1  0.5849044E-013  0.5052889E+02  0.7816164E-02  0.1300439E+00
        -11   -1    0    0    0    0  0.00000000000E+00  0.00000000000E+00  0.45593999997E+02  0.45594000000E+02  0.51100000000E-03 0. -1.
         11   -1    0    0    0    0 -0.00000000000E+00 -0.00000000000E+00 -0.45593999997E+02  0.45594000000E+02  0.51100000000E-03 0.  1.
    9900012    2    1    2    0    0 -0.28698191709E+02  0.14548114784E+02 -0.24858182489E+02  0.50528891699E+02  0.30000096809E+02 0.  0.
         12    1    1    2    0    0  0.28698191709E+02 -0.14548114784E+02  0.24858182489E+02  0.40659108301E+02  0.00000000000E+00 0. -1.
         11    1    3    3    0    0 -0.12707585260E+02 -0.68262774976E+01 -0.84883347989E+00  0.14449958690E+02  0.51100000000E-03 0. -1.
        -11    1    3    3    0    0 -0.32506904805E+01  0.69723893541E+01 -0.72897894515E+01  0.10598218360E+02  0.51100000000E-03 0.  1.
         12    1    3    3    0    0 -0.12739915969E+02  0.14402002928E+02 -0.16719559557E+02  0.25480714649E+02  0.00000000000E+00 0. -1.
</event>
<event>
 7    1  0.5849044E-013  0.5052883E+02  0.7816164E-02  0.1300439E+00
        -11   -1    0    0    0    0  0.00000000000E+00  0.00000000000E+00  0.45593999997E+02  0.45594000000E+02  0.51100000000E-03 0.  1.
         11   -1    0    0    0    0 -0.00000000000E+00 -0.00000000000E+00 -0.45593999997E+02  0.45594000000E+02  0.51100000000E-03 0. -1.
    9900012    2    1    2    0    0 -0.45731677291E+01 -0.21130402860E+02  0.34434870778E+02  0.50528829895E+02  0.29999908950E+02 0.  0.
         12    1    1    2    0    0  0.45731677291E+01  0.21130402860E+02 -0.34434870778E+02  0.40659170105E+02  0.00000000000E+00 0. -1.
         11    1    3    3    0    0  0.27679610084E+00 -0.10194241640E+01 -0.20080748332E+01  0.22689659549E+01  0.51100000000E-03 0. -1.
        -11    1    3    3    0    0 -0.32553703906E+01 -0.24317834277E+01  0.28542272240E+02  0.28830059173E+02  0.51100000000E-03 0.  1.
        -12    1    3    3    0    0 -0.15945934394E+01 -0.17679195269E+02  0.79006733708E+01  0.19429804767E+02  0.00000000000E+00 0.  1.
</event>
<event>
 7    1  0.5849044E-013  0.5052886E+02  0.7816164E-02  0.1300439E+00
        -11   -1    0    0    0    0  0.00000000000E+00  0.00000000000E+00  0.45593999997E+02  0.45594000000E+02  0.51100000000E-03 0.  1.
         11   -1    0    0    0    0 -0.00000000000E+00 -0.00000000000E+00 -0.45593999997E+02  0.45594000000E+02  0.51100000000E-03 0. -1.
    9900012    2    1    2    0    0  0.12481645303E+02  0.37727428197E+02  0.86032359575E+01  0.50528856173E+02  0.29999988823E+02 0.  0.
         12    1    1    2    0    0 -0.12481645303E+02 -0.37727428197E+02 -0.86032359575E+01  0.40659143827E+02  0.00000000000E+00 0. -1.
         11    1    3    3    0    0  0.93557585288E+01  0.11302966174E+01 -0.46912651478E+01  0.10526906338E+02  0.51100000000E-03 0. -1.
        -11    1    3    3    0    0  0.24608678495E+01  0.36892462361E+02  0.13235259293E+02  0.39271895020E+02  0.51100000000E-03 0.  1.
        -12    1    3    3    0    0  0.66501892465E+00 -0.29533078179E+00  0.59241812459E-01  0.73005481517E+00  0.00000000000E+00 0.  1.
</event>
<event>
 7    1  0.5849044E-013  0.5052886E+02  0.7816164E-02  0.1300439E+00
        -11   -1    0    0    0    0  0.00000000000E+00  0.00000000000E+00  0.45593999997E+02  0.45594000000E+02  0.51100000000E-03 0.  1.
         11   -1    0    0    0    0 -0.00000000000E+00 -0.00000000000E+00 -0.45593999997E+02  0.45594000000E+02  0.51100000000E-03 0. -1.
    9900012    2    1    2    0    0 -0.19035053546E+02 -0.23160177664E+02  0.27467041120E+02  0.50528862764E+02  0.30000008856E+02 0.  0.
         12    1    1    2    0    0  0.19035053546E+02  0.23160177664E+02 -0.27467041120E+02  0.40659137236E+02  0.00000000000E+00 0. -1.
         11    1    3    3    0    0 -0.66534496683E+01  0.28080534696E+01  0.32596905332E+01  0.79233288087E+01  0.51100000000E-03 0.  1.
        -11    1    3    3    0    0 -0.29805985207E+01 -0.22033960791E+02  0.83398809108E+01  0.23747273728E+02  0.51100000000E-03 0. -1.
        -12    1    3    3    0    0 -0.94010053570E+01 -0.39342703430E+01  0.15867469676E+02  0.18858260226E+02  0.00000000000E+00 0.  1.
</event>
<event>
 7    1  0.5849044E-013  0.5052886E+02  0.7816164E-02  0.1300439E+00
        -11   -1    0    0    0    0  0.00000000000E+00  0.00000000000E+00  0.45593999997E+02  0.45594000000E+02  0.51100000000E-03 0. -1.
         11   -1    0    0    0    0 -0.00000000000E+00 -0.00000000000E+00 -0.45593999997E+02  0.45594000000E+02  0.51100000000E-03 0.  1.
    9900012    2    1    2    0    0 -0.15448236928E+02  0.31492549035E+02 -0.20560576055E+02  0.50528856421E+02  0.29999989576E+02 0.  0.
         12    1    1    2    0    0  0.15448236928E+02 -0.31492549035E+02  0.20560576055E+02  0.40659143579E+02  0.00000000000E+00 0. -1.
         11    1    3    3    0    0  0.46907792824E+01  0.66379708127E+01  0.60330944341E+00  0.81504631360E+01  0.51100000000E-03 0. -1.
        -11    1    3    3    0    0 -0.17084805349E+02  0.11491542116E+02 -0.19863008257E+02  0.28609180542E+02  0.51100000000E-03 0.  1.
        -12    1    3    3    0    0 -0.30542108612E+01  0.13363036106E+02 -0.13008772421E+01  0.13769212742E+02  0.00000000000E+00 0.  1.
</event>
<event>
 7    1  0.5849044E-013  0.5052886E+02  0.7816164E-02  0.1300439E+00
        -11   -1    0    0    0    0  0.00000000000E+00  0.00000000000E+00  0.45593999997E+02  0.45594000000E+02  0.51100000000E-03 0.  1.
         11   -1    0    0    0    0 -0.00000000000E+00 -0.00000000000E+00 -0.45593999997E+02  0.45594000000E+02  0.51100000000E-03 0. -1.
    9900012    2    1    2    0    0  0.15876825505E+02  0.16840932776E+02  0.33428659331E+02  0.50528857491E+02  0.29999992829E+02 0.  0.
         12    1    1    2    0    0 -0.15876825505E+02 -0.16840932776E+02 -0.33428659331E+02  0.40659142509E+02  0.00000000000E+00 0. -1.
         11    1    3    3    0    0  0.79108320462E+01 -0.20435912843E+01 -0.14547604277E+01  0.82990274830E+01  0.51100000000E-03 0. -1.
        -11    1    3    3    0    0  0.80568063073E+01  0.19552965968E+02  0.26898039584E+02  0.34216007069E+02  0.51100000000E-03 0.  1.
         12    1    3    3    0    0 -0.90812848326E-01 -0.66844190752E+00  0.79853801749E+01  0.80138229388E+01  0.00000000000E+00 0. -1.
</event>
<event>
 7    1  0.5849044E-013  0.5052885E+02  0.7816164E-02  0.1300439E+00
        -11   -1    0    0    0    0  0.00000000000E+00  0.00000000000E+00  0.45593999997E+02  0.45594000000E+02  0.51100000000E-03 0.  1.
         11   -1    0    0    0    0 -0.00000000000E+00 -0.00000000000E+00 -0.45593999997E+02  0.45594000000E+02  0.51100000000E-03 0. -1.
    9900012    2    1    2    0    0 -0.48770904213E+01 -0.53528390884E+01  0.40009094931E+02  0.50528848823E+02  0.29999966482E+02 0.  0.
         12    1    1    2    0    0  0.48770904213E+01  0.53528390884E+01 -0.40009094931E+02  0.40659151177E+02  0.00000000000E+00 0. -1.
         11    1    3    3    0    0 -0.70370264356E+01  0.95611189277E+01  0.20122024443E+02  0.23363017874E+02  0.51100000000E-03 0. -1.
        -11    1    3    3    0    0 -0.30572184039E+00 -0.11933875073E+02  0.72884859217E+01  0.13986881975E+02  0.51100000000E-03 0.  1.
        -12    1    3    3    0    0  0.24656578547E+01 -0.29800829435E+01  0.12598584566E+02  0.13178948974E+02  0.00000000000E+00 0.  1.
</event>
<event>
 7    1  0.5849044E-013  0.5052884E+02  0.7816164E-02  0.1300439E+00
        -11   -1    0    0    0    0  0.00000000000E+00  0.00000000000E+00  0.45593999997E+02  0.45594000000E+02  0.51100000000E-03 0.  1.
         11   -1    0    0    0    0 -0.00000000000E+00 -0.00000000000E+00 -0.45593999997E+02  0.45594000000E+02  0.51100000000E-03 0. -1.
    9900012    2    1    2    0    0  0.99980699760E+01  0.23794023904E+02  0.31417354217E+02  0.50528842079E+02  0.29999945984E+02 0.  0.
         12    1    1    2    0    0 -0.99980699760E+01 -0.23794023904E+02 -0.31417354217E+02  0.40659157921E+02  0.00000000000E+00 0. -1.
         11    1    3    3    0    0  0.66373932851E+01  0.18663053026E+01 -0.11995161755E+01  0.69983515502E+01  0.51100000000E-03 0. -1.
        -11    1    3    3    0    0 -0.69377809154E+01  0.14655566033E+02  0.18782993194E+02  0.24813690846E+02  0.51100000000E-03 0.  1.
         12    1    3    3    0    0  0.10298457606E+02  0.72721525682E+01  0.13833877199E+02  0.18716799684E+02  0.00000000000E+00 0. -1.
</event>
<event>
 7    1  0.5849044E-013  0.5052886E+02  0.7816164E-02  0.1300439E+00
        -11   -1    0    0    0    0  0.00000000000E+00  0.00000000000E+00  0.45593999997E+02  0.45594000000E+02  0.51100000000E-03 0.  1.
         11   -1    0    0    0    0 -0.00000000000E+00 -0.00000000000E+00 -0.45593999997E+02  0.45594000000E+02  0.51100000000E-03 0. -1.
    9900012    2    1    2    0    0  0.54284313907E+01 -0.37306179149E+02  0.15229795631E+02  0.50528861482E+02  0.30000004959E+02 0.  0.
         12    1    1    2    0    0 -0.54284313907E+01  0.37306179149E+02 -0.15229795631E+02  0.40659138518E+02  0.00000000000E+00 0. -1.
         11    1    3    3    0    0 -0.90912658834E+01 -0.47590822561E+01  0.50129767579E+01  0.11420591732E+02  0.51100000000E-03 0. -1.
        -11    1    3    3    0    0  0.34629966827E+01 -0.22332517964E+02  0.47481880945E+01  0.23092834280E+02  0.51100000000E-03 0.  1.
        -12    1    3    3    0    0  0.11056700591E+02 -0.10214578929E+02  0.54686307787E+01  0.16015435469E+02  0.00000000000E+00 0.  1.
</event>
<event>
 7    1  0.5849044E-013  0.5052887E+02  0.7816164E-02  0.1300439E+00
        -11   -1    0    0    0    0  0.00000000000E+00  0.00000000000E+00  0.45593999997E+02  0.45594000000E+02  0.51100000000E-03 0. -1.
         11   -1    0    0    0    0 -0.00000000000E+00 -0.00000000000E+00 -0.45593999997E+02  0.45594000000E+02  0.51100000000E-03 0.  1.
    9900012    2    1    2    0    0  0.25442916582E+02  0.21526080131E+02  0.23290577575E+02  0.50528866539E+02  0.30000020332E+02 0.  0.
         12    1    1    2    0    0 -0.25442916582E+02 -0.21526080131E+02 -0.23290577575E+02  0.40659133461E+02  0.00000000000E+00 0. -1.
         11    1    3    3    0    0  0.63474474342E+01  0.24432351188E+02  0.10962134325E+02  0.27520869585E+02  0.51100000000E-03 0. -1.
        -11    1    3    3    0    0  0.71660063847E+01 -0.18183677647E+01  0.38792043899E+01  0.83490320272E+01  0.51100000000E-03 0.  1.
         12    1    3    3    0    0  0.11929462763E+02 -0.10879032928E+01  0.84492388601E+01  0.14658964926E+02  0.00000000000E+00 0. -1.
</event>
<event>
 7    1  0.5849044E-013  0.5052884E+02  0.7816164E-02  0.1300439E+00
        -11   -1    0    0    0    0  0.00000000000E+00  0.00000000000E+00  0.45593999997E+02  0.45594000000E+02  0.51100000000E-03 0.  1.
         11   -1    0    0    0    0 -0.00000000000E+00 -0.00000000000E+00 -0.45593999997E+02  0.45594000000E+02  0.51100000000E-03 0. -1.
    9900012    2    1    2    0    0  0.14660850495E+01  0.34601852433E+02  0.21300927947E+02  0.50528842008E+02  0.29999945768E+02 0.  0.
         12    1    1    2    0    0 -0.14660850495E+01 -0.34601852433E+02 -0.21300927947E+02  0.40659157992E+02  0.00000000000E+00 0. -1.
         11    1    3    3    0    0 -0.41896540551E+01  0.24220520438E+01  0.83473373818E+00  0.49108367800E+01  0.51100000000E-03 0. -1.
        -11    1    3    3    0    0  0.12674966499E+02  0.21998388464E+02  0.51037601207E+01  0.25896568081E+02  0.51100000000E-03 0.  1.
        -12    1    3    3    0    0 -0.70192273944E+01  0.10181411926E+02  0.15362434088E+02  0.19721437147E+02  0.00000000000E+00 0.  1.
</event>
<event>
 7    1  0.5849044E-013  0.5052886E+02  0.7816164E-02  0.1300439E+00
        -11   -1    0    0    0    0  0.00000000000E+00  0.00000000000E+00  0.45593999997E+02  0.45594000000E+02  0.51100000000E-03 0. -1.
         11   -1    0    0    0    0 -0.00000000000E+00 -0.00000000000E+00 -0.45593999997E+02  0.45594000000E+02  0.51100000000E-03 0.  1.
    9900012    2    1    2    0    0 -0.22409872695E+02  0.19894656941E+02 -0.27480278890E+02  0.50528862074E+02  0.30000006761E+02 0.  0.
         12    1    1    2    0    0  0.22409872695E+02 -0.19894656941E+02  0.27480278890E+02  0.40659137926E+02  0.00000000000E+00 0. -1.
         11    1    3    3    0    0 -0.18698939296E+01  0.17375971240E+02 -0.20697828773E+02  0.27089130588E+02  0.51100000000E-03 0. -1.
        -11    1    3    3    0    0 -0.14961277222E+02  0.21026358335E+01 -0.88101192679E+01  0.17489399513E+02  0.51100000000E-03 0.  1.
        -12    1    3    3    0    0 -0.55787015435E+01  0.41604986705E+00  0.20276691509E+01  0.59503319730E+01  0.00000000000E+00 0.  1.
</event>
<event>
 7    1  0.5849044E-013  0.5052886E+02  0.7816164E-02  0.1300439E+00
        -11   -1    0    0    0    0  0.00000000000E+00  0.00000000000E+00  0.45593999997E+02  0.45594000000E+02  0.51100000000E-03 0.  1.
         11   -1    0    0    0    0 -0.00000000000E+00 -0.00000000000E+00 -0.45593999997E+02  0.45594000000E+02  0.51100000000E-03 0. -1.
    9900012    2    1    2    0    0 -0.25248601782E+02 -0.26068007410E+02 -0.18333925986E+02  0.50528859031E+02  0.29999997510E+02 0.  0.
         12    1    1    2    0    0  0.25248601782E+02  0.26068007410E+02  0.18333925986E+02  0.40659140969E+02  0.00000000000E+00 0. -1.
         11    1    3    3    0    0  0.90024581868E+00  0.31247219233E+00 -0.16731647625E+01  0.19255030482E+01  0.51100000000E-03 0. -1.
        -11    1    3    3    0    0 -0.17851621477E+02 -0.27889372419E+02 -0.39483154797E+01  0.33347963636E+02  0.51100000000E-03 0.  1.
        -12    1    3    3    0    0 -0.82972261237E+01  0.15088928160E+01 -0.12712445743E+02  0.15255392347E+02  0.00000000000E+00 0.  1.
</event>
<event>
 7    1  0.5849044E-013  0.5052886E+02  0.7816164E-02  0.1300439E+00
        -11   -1    0    0    0    0  0.00000000000E+00  0.00000000000E+00  0.45593999997E+02  0.45594000000E+02  0.51100000000E-03 0.  1.
         11   -1    0    0    0    0 -0.00000000000E+00 -0.00000000000E+00 -0.45593999997E+02  0.45594000000E+02  0.51100000000E-03 0. -1.
    9900012    2    1    2    0    0 -0.12403558234E+02  0.76545096160E+01  0.37956896418E+02  0.50528858839E+02  0.29999996926E+02 0.  0.
         12    1    1    2    0    0  0.12403558234E+02 -0.76545096160E+01 -0.37956896418E+02  0.40659141161E+02  0.00000000000E+00 0. -1.
         11    1    3    3    0    0 -0.88882786378E+01  0.10426080981E+02  0.54894561013E+01  0.14759362802E+02  0.51100000000E-03 0. -1.
        -11    1    3    3    0    0  0.26848685988E+01 -0.62679875159E+01  0.92915986793E+01  0.11525189507E+02  0.51100000000E-03 0.  1.
        -12    1    3    3    0    0 -0.62001481949E+01  0.34964161509E+01  0.23175841637E+02  0.24244306530E+02  0.00000000000E+00 0.  1.
</event>
<event>
 7    1  0.5849044E-013  0.5052886E+02  0.7816164E-02  0.1300439E+00
        -11   -1    0    0    0    0  0.00000000000E+00  0.00000000000E+00  0.45593999997E+02  0.45594000000E+02  0.51100000000E-03 0.  1.
         11   -1    0    0    0    0 -0.00000000000E+00 -0.00000000000E+00 -0.45593999997E+02  0.45594000000E+02  0.51100000000E-03 0. -1.
    9900012    2    1    2    0    0  0.18716462918E+02 -0.22459365841E+02  0.28256615980E+02  0.50528862715E+02  0.30000008707E+02 0.  0.
         12    1    1    2    0    0 -0.18716462918E+02  0.22459365841E+02 -0.28256615980E+02  0.40659137285E+02  0.00000000000E+00 0. -1.
         11    1    3    3    0    0 -0.32594577009E+01  0.28442468936E+01  0.10488874736E+01  0.44512885875E+01  0.51100000000E-03 0. -1.
        -11    1    3    3    0    0  0.22664699772E+02 -0.25574613918E+02  0.21611785809E+02  0.40432892290E+02  0.51100000000E-03 0.  1.
        -12    1    3    3    0    0 -0.68877915344E+00  0.27100118342E+00  0.55959426980E+01  0.56446818372E+01  0.00000000000E+00 0.  1.
</event>
<event>
 7    1  0.5849044E-013  0.5052886E+02  0.7816164E-02  0.1300439E+00
        -11   -1    0    0    0    0  0.00000000000E+00  0.00000000000E+00  0.45593999997E+02  0.45594000000E+02  0.51100000000E-03 0. -1.
         11   -1    0    0    0    0 -0.00000000000E+00 -0.00000000000E+00 -0.45593999997E+02  0.45594000000E+02  0.51100000000E-03 0.  1.
    9900012    2    1    2    0    0 -0.18062372633E+02  0.35592397143E+02 -0.77522410274E+01  0.50528864736E+02  0.30000014850E+02 0.  0.
         12    1    1    2    0    0  0.18062372633E+02 -0.35592397143E+02  0.77522410274E+01  0.40659135264E+02  0.00000000000E+00 0. -1.
         11    1    3    3    0    0  0.28480262191E+01 -0.24297796993E+01 -0.20687704639E+01  0.42772531168E+01  0.51100000000E-03 0. -1.
        -11    1    3    3    0    0 -0.10971525745E+02  0.32862288875E+02 -0.52838333640E+01  0.35046016928E+02  0.51100000000E-03 0.  1.
         12    1    3    3    0    0 -0.99388731072E+01  0.51598879673E+01 -0.39963719938E+00  0.11205594690E+02  0.00000000000E+00 0. -1.
</event>
<event>
 7    1  0.5849044E-013  0.5052886E+02  0.7816164E-02  0.1300439E+00
        -11   -1    0    0    0    0  0.00000000000E+00  0.00000000000E+00  0.45593999997E+02  0.45594000000E+02  0.51100000000E-03 0.  1.
         11   -1    0    0    0    0 -0.00000000000E+00 -0.00000000000E+00 -0.45593999997E+02  0.45594000000E+02  0.51100000000E-03 0. -1.
    9900012    2    1    2    0    0 -0.24447531495E+02 -0.32253218074E+02 -0.39004691772E+01  0.50528861641E+02  0.30000005443E+02 0.  0.
         12    1    1    2    0    0  0.24447531495E+02  0.32253218074E+02  0.39004691772E+01  0.40659138359E+02  0.00000000000E+00 0. -1.
         11    1    3    3    0    0 -0.10772633594E+02 -0.98097803081E+01 -0.97776538248E+01  0.17546621863E+02  0.51100000000E-03 0. -1.
        -11    1    3    3    0    0 -0.10708783293E+02 -0.37748266144E+01  0.81022311931E+01  0.13948960756E+02  0.51100000000E-03 0.  1.
        -12    1    3    3    0    0 -0.29661146082E+01 -0.18668611151E+02 -0.22250465455E+01  0.19033279022E+02  0.00000000000E+00 0.  1.
</event>
<event>
 7    1  0.5849044E-013  0.5052886E+02  0.7816164E-02  0.1300439E+00
        -11   -1    0    0    0    0  0.00000000000E+00  0.00000000000E+00  0.45593999997E+02  0.45594000000E+02  0.51100000000E-03 0.  1.
         11   -1    0    0    0    0 -0.00000000000E+00 -0.00000000000E+00 -0.45593999997E+02  0.45594000000E+02  0.51100000000E-03 0. -1.
    9900012    2    1    2    0    0 -0.31766101344E+02 -0.88395199806E+01 -0.23789560435E+02  0.50528862112E+02  0.30000006877E+02 0.  0.
         12    1    1    2    0    0  0.31766101344E+02  0.88395199806E+01  0.23789560435E+02  0.40659137888E+02  0.00000000000E+00 0. -1.
         11    1    3    3    0    0  0.70995002870E+00  0.18698274637E+01 -0.43707858329E+01  0.48066675405E+01  0.51100000000E-03 0. -1.
        -11    1    3    3    0    0 -0.27430179539E+02 -0.92833579883E+01 -0.24860024651E+02  0.38165643071E+02  0.51100000000E-03 0.  1.
         12    1    3    3    0    0 -0.50458718334E+01 -0.14259894560E+01  0.54412500492E+01  0.75565515009E+01  0.00000000000E+00 0. -1.
</event>
<event>
 7    1  0.5849044E-013  0.5052885E+02  0.7816164E-02  0.1300439E+00
        -11   -1    0    0    0    0  0.00000000000E+00  0.00000000000E+00  0.45593999997E+02  0.45594000000E+02  0.51100000000E-03 0.  1.
         11   -1    0    0    0    0 -0.00000000000E+00 -0.00000000000E+00 -0.45593999997E+02  0.45594000000E+02  0.51100000000E-03 0. -1.
    9900012    2    1    2    0    0 -0.10110157175E+02  0.34655540709E+02 -0.18706803633E+02  0.50528852418E+02  0.29999977409E+02 0.  0.
         12    1    1    2    0    0  0.10110157175E+02 -0.34655540709E+02  0.18706803633E+02  0.40659147582E+02  0.00000000000E+00 0. -1.
         11    1    3    3    0    0  0.38935489241E+00  0.20964334630E+02 -0.20724152705E+02  0.29481272519E+02  0.51100000000E-03 0. -1.
        -11    1    3    3    0    0 -0.67223234128E+01  0.13212797966E+02  0.55735925603E+01  0.15837695427E+02  0.51100000000E-03 0.  1.
         12    1    3    3    0    0 -0.37771886548E+01  0.47840811263E+00 -0.35562434887E+01  0.52098844716E+01  0.00000000000E+00 0. -1.
</event>
<event>
 7    1  0.5849044E-013  0.5052886E+02  0.7816164E-02  0.1300439E+00
        -11   -1    0    0    0    0  0.00000000000E+00  0.00000000000E+00  0.45593999997E+02  0.45594000000E+02  0.51100000000E-03 0.  1.
         11   -1    0    0    0    0 -0.00000000000E+00 -0.00000000000E+00 -0.45593999997E+02  0.45594000000E+02  0.51100000000E-03 0. -1.
    9900012    2    1    2    0    0 -0.29711516038E+02 -0.25748801916E+02 -0.10362940101E+02  0.50528861876E+02  0.30000006159E+02 0.  0.
         12    1    1    2    0    0  0.29711516038E+02  0.25748801916E+02  0.10362940101E+02  0.40659138124E+02  0.00000000000E+00 0. -1.
         11    1    3    3    0    0 -0.88166864478E+01  0.29238026495E+01  0.27398618230E+01  0.96844940458E+01  0.51100000000E-03 0. -1.
        -11    1    3    3    0    0 -0.10692001218E+02 -0.21027846273E+02 -0.15522853634E+01  0.23641040566E+02  0.51100000000E-03 0.  1.
        -12    1    3    3    0    0 -0.10202828373E+02 -0.76447582933E+01 -0.11550516561E+02  0.17203327265E+02  0.00000000000E+00 0.  1.
</event>
<event>
 7    1  0.5849044E-013  0.5052877E+02  0.7816164E-02  0.1300439E+00
        -11   -1    0    0    0    0  0.00000000000E+00  0.00000000000E+00  0.45593999997E+02  0.45594000000E+02  0.51100000000E-03 0. -1.
         11   -1    0    0    0    0 -0.00000000000E+00 -0.00000000000E+00 -0.45593999997E+02  0.45594000000E+02  0.51100000000E-03 0.  1.
    9900012    2    1    2    0    0 -0.68886778979E+01  0.18124143428E+01 -0.40030415223E+02  0.50528771381E+02  0.29999731088E+02 0.  0.
         12    1    1    2    0    0  0.68886778979E+01 -0.18124143428E+01  0.40030415223E+02  0.40659228619E+02  0.00000000000E+00 0. -1.
         11    1    3    3    0    0 -0.25257773734E+01  0.71170001314E+01  0.15659658516E+01  0.77125541502E+01  0.51100000000E-03 0. -1.
        -11    1    3    3    0    0 -0.42616955669E+01 -0.69852902021E+01 -0.29907567145E+02  0.31006755734E+02  0.51100000000E-03 0.  1.
         12    1    3    3    0    0 -0.10120495765E+00  0.16807044135E+01 -0.11688813930E+02  0.11809461497E+02  0.00000000000E+00 0. -1.
</event>
<event>
 7    1  0.5849044E-013  0.5052886E+02  0.7816164E-02  0.1300439E+00
        -11   -1    0    0    0    0  0.00000000000E+00  0.00000000000E+00  0.45593999997E+02  0.45594000000E+02  0.51100000000E-03 0. -1.
         11   -1    0    0    0    0 -0.00000000000E+00 -0.00000000000E+00 -0.45593999997E+02  0.45594000000E+02  0.51100000000E-03 0.  1.
    9900012    2    1    2    0    0 -0.28643770931E+02  0.81939965394E+01 -0.27668725155E+02  0.50528861493E+02  0.30000004995E+02 0.  0.
         12    1    1    2    0    0  0.28643770931E+02 -0.81939965394E+01  0.27668725155E+02  0.40659138507E+02  0.00000000000E+00 0. -1.
         11    1    3    3    0    0  0.16009410347E+01 -0.28992251291E+01 -0.11979205293E+02  0.12428591162E+02  0.51100000000E-03 0. -1.
        -11    1    3    3    0    0 -0.28742974227E+02  0.70220506150E+01 -0.16196889479E+02  0.33731394743E+02  0.51100000000E-03 0.  1.
         12    1    3    3    0    0 -0.15017377387E+01  0.40711710535E+01  0.50736961723E+00  0.43688755889E+01  0.00000000000E+00 0. -1.
</event>
<event>
 7    1  0.5849044E-013  0.5052886E+02  0.7816164E-02  0.1300439E+00
        -11   -1    0    0    0    0  0.00000000000E+00  0.00000000000E+00  0.45593999997E+02  0.45594000000E+02  0.51100000000E-03 0.  1.
         11   -1    0    0    0    0 -0.00000000000E+00 -0.00000000000E+00 -0.45593999997E+02  0.45594000000E+02  0.51100000000E-03 0. -1.
    9900012    2    1    2    0    0  0.37865360001E+01  0.31152355084E+02  0.25852634751E+02  0.50528858276E+02  0.29999995216E+02 0.  0.
         12    1    1    2    0    0 -0.37865360001E+01 -0.31152355084E+02 -0.25852634751E+02  0.40659141724E+02  0.00000000000E+00 0. -1.
         11    1    3    3    0    0 -0.19316328747E+01  0.10001874072E+02 -0.17351986545E+01  0.10333421754E+02  0.51100000000E-03 0. -1.
        -11    1    3    3    0    0 -0.10775773208E+01  0.20636340776E+02  0.25974736227E+02  0.33191966736E+02  0.51100000000E-03 0.  1.
         12    1    3    3    0    0  0.67957461956E+01  0.51414023602E+00  0.16130971789E+01  0.70034697861E+01  0.00000000000E+00 0. -1.
</event>
<event>
 7    1  0.5849044E-013  0.5052885E+02  0.7816164E-02  0.1300439E+00
        -11   -1    0    0    0    0  0.00000000000E+00  0.00000000000E+00  0.45593999997E+02  0.45594000000E+02  0.51100000000E-03 0.  1.
         11   -1    0    0    0    0 -0.00000000000E+00 -0.00000000000E+00 -0.45593999997E+02  0.45594000000E+02  0.51100000000E-03 0. -1.
    9900012    2    1    2    0    0 -0.31703472906E+02  0.24466653819E+02 -0.70313164486E+01  0.50528846610E+02  0.29999959756E+02 0.  0.
         12    1    1    2    0    0  0.31703472906E+02 -0.24466653819E+02  0.70313164486E+01  0.40659153390E+02  0.00000000000E+00 0. -1.
         11    1    3    3    0    0 -0.21097142160E+02  0.27471288318E+02 -0.13309556279E+02  0.37106675650E+02  0.51100000000E-03 0. -1.
        -11    1    3    3    0    0 -0.52860668042E+01 -0.21041391472E+01  0.56011745615E+01  0.79839251336E+01  0.51100000000E-03 0.  1.
         12    1    3    3    0    0 -0.53202639418E+01 -0.90049535221E+00  0.67706526934E+00  0.54382458265E+01  0.00000000000E+00 0. -1.
</event>
<event>
 7    1  0.5849044E-013  0.5052885E+02  0.7816164E-02  0.1300439E+00
        -11   -1    0    0    0    0  0.00000000000E+00  0.00000000000E+00  0.45593999997E+02  0.45594000000E+02  0.51100000000E-03 0.  1.
         11   -1    0    0    0    0 -0.00000000000E+00 -0.00000000000E+00 -0.45593999997E+02  0.45594000000E+02  0.51100000000E-03 0. -1.
    9900012    2    1    2    0    0  0.51608342343E+01 -0.27402862941E+01  0.40237088809E+02  0.50528847343E+02  0.29999961984E+02 0.  0.
         12    1    1    2    0    0 -0.51608342343E+01  0.27402862941E+01 -0.40237088809E+02  0.40659152657E+02  0.00000000000E+00 0. -1.
         11    1    3    3    0    0  0.80322762854E+01 -0.13542724912E+01  0.53150468349E+01  0.97263168478E+01  0.51100000000E-03 0. -1.
        -11    1    3    3    0    0 -0.94562452637E+01  0.53810166903E+01  0.13124392759E+02  0.17047744738E+02  0.51100000000E-03 0.  1.
        -12    1    3    3    0    0  0.65848032126E+01 -0.67670304931E+01  0.21797649215E+02  0.23754785757E+02  0.00000000000E+00 0.  1.
</event>
<event>
 7    1  0.5849044E-013  0.5052886E+02  0.7816164E-02  0.1300439E+00
        -11   -1    0    0    0    0  0.00000000000E+00  0.00000000000E+00  0.45593999997E+02  0.45594000000E+02  0.51100000000E-03 0.  1.
         11   -1    0    0    0    0 -0.00000000000E+00 -0.00000000000E+00 -0.45593999997E+02  0.45594000000E+02  0.51100000000E-03 0. -1.
    9900012    2    1    2    0    0  0.40592741907E+02  0.75176675637E+00 -0.21976760561E+01  0.50528860451E+02  0.30000001828E+02 0.  0.
         12    1    1    2    0    0 -0.40592741907E+02 -0.75176675637E+00  0.21976760561E+01  0.40659139549E+02  0.00000000000E+00 0. -1.
         11    1    3    3    0    0  0.23527325872E+02 -0.68487494277E+01  0.10736916755E+02  0.26752977648E+02  0.51100000000E-03 0. -1.
        -11    1    3    3    0    0  0.63325887296E+01  0.23989448931E+01 -0.89037410742E+01  0.11186296170E+02  0.51100000000E-03 0.  1.
         12    1    3    3    0    0  0.10732827306E+02  0.52015712909E+01 -0.40308517369E+01  0.12589586633E+02  0.00000000000E+00 0. -1.
</event>
<event>
 7    1  0.5849044E-013  0.5052886E+02  0.7816164E-02  0.1300439E+00
        -11   -1    0    0    0    0  0.00000000000E+00  0.00000000000E+00  0.45593999997E+02  0.45594000000E+02  0.51100000000E-03 0.  1.
         11   -1    0    0    0    0 -0.00000000000E+00 -0.00000000000E+00 -0.45593999997E+02  0.45594000000E+02  0.51100000000E-03 0. -1.
    9900012    2    1    2    0    0  0.13525530150E+02 -0.14704566430E+02  0.35411885922E+02  0.50528857064E+02  0.29999991532E+02 0.  0.
         12    1    1    2    0    0 -0.13525530150E+02  0.14704566430E+02 -0.35411885922E+02  0.40659142936E+02  0.00000000000E+00 0. -1.
         11    1    3    3    0    0  0.52005378444E+00 -0.10527575732E-01 -0.33240482540E+01  0.33645005312E+01  0.51100000000E-03 0. -1.
        -11    1    3    3    0    0  0.11813310953E+01 -0.14113471416E+02  0.27030358160E+02  0.30515993857E+02  0.51100000000E-03 0.  1.
        -12    1    3    3    0    0  0.11824145270E+02 -0.58056743890E+00  0.11705576016E+02  0.16648362676E+02  0.00000000000E+00 0.  1.
</event>
<event>
 7    1  0.5849044E-013  0.5052880E+02  0.7816164E-02  0.1300439E+00
        -11   -1    0    0    0    0  0.00000000000E+00  0.00000000000E+00  0.45593999997E+02  0.45594000000E+02  0.51100000000E-03 0.  1.
         11   -1    0    0    0    0 -0.00000000000E+00 -0.00000000000E+00 -0.45593999997E+02  0.45594000000E+02  0.51100000000E-03 0. -1.
    9900012    2    1    2    0    0  0.38196120226E+02  0.13642977007E+02  0.28453087774E+01  0.50528804190E+02  0.29999830814E+02 0.  0.
         12    1    1    2    0    0 -0.38196120226E+02 -0.13642977007E+02 -0.28453087774E+01  0.40659195810E+02  0.00000000000E+00 0. -1.
         11    1    3    3    0    0 -0.98405081678E+00 -0.55832496748E+01  0.18299528366E+01  0.59573283095E+01  0.51100000000E-03 0. -1.
        -11    1    3    3    0    0  0.15664636046E+02  0.29158439248E+01 -0.38343482972E-01  0.15933751558E+02  0.51100000000E-03 0.  1.
         12    1    3    3    0    0  0.23515534997E+02  0.16310382757E+02  0.10536994237E+01  0.28637724322E+02  0.00000000000E+00 0. -1.
</event>
<event>
 7    1  0.5849044E-013  0.5052886E+02  0.7816164E-02  0.1300439E+00
        -11   -1    0    0    0    0  0.00000000000E+00  0.00000000000E+00  0.45593999997E+02  0.45594000000E+02  0.51100000000E-03 0.  1.
         11   -1    0    0    0    0 -0.00000000000E+00 -0.00000000000E+00 -0.45593999997E+02  0.45594000000E+02  0.51100000000E-03 0. -1.
    9900012    2    1    2    0    0  0.32070300830E+02  0.69793044252E+01  0.23998974473E+02  0.50528860052E+02  0.30000000613E+02 0.  0.
         12    1    1    2    0    0 -0.32070300830E+02 -0.69793044252E+01 -0.23998974473E+02  0.40659139948E+02  0.00000000000E+00 0. -1.
         11    1    3    3    0    0 -0.92422989372E+00 -0.23689097707E+01 -0.28926083987E+01  0.38513787152E+01  0.51100000000E-03 0. -1.
        -11    1    3    3    0    0  0.29796923418E+02  0.17253771932E+01  0.20167225321E+02  0.36021528966E+02  0.51100000000E-03 0.  1.
        -12    1    3    3    0    0  0.31976073049E+01  0.76228370027E+01  0.67243575509E+01  0.10655952370E+02  0.00000000000E+00 0.  1.
</event>
<event>
 7    1  0.5849044E-013  0.5052886E+02  0.7816164E-02  0.1300439E+00
        -11   -1    0    0    0    0  0.00000000000E+00  0.00000000000E+00  0.45593999997E+02  0.45594000000E+02  0.51100000000E-03 0.  1.
         11   -1    0    0    0    0 -0.00000000000E+00 -0.00000000000E+00 -0.45593999997E+02  0.45594000000E+02  0.51100000000E-03 0. -1.
    9900012    2    1    2    0    0 -0.99716853558E+01 -0.43175028837E+01  0.39180228858E+02  0.50528859904E+02  0.30000000165E+02 0.  0.
         12    1    1    2    0    0  0.99716853558E+01  0.43175028837E+01 -0.39180228858E+02  0.40659140096E+02  0.00000000000E+00 0. -1.
         11    1    3    3    0    0  0.17727301831E+01 -0.34211074034E+01  0.64467787045E+01  0.75104929328E+01  0.51100000000E-03 0. -1.
        -11    1    3    3    0    0 -0.87864435060E+01  0.11270293933E+02  0.11394752069E+02  0.18277349091E+02  0.51100000000E-03 0.  1.
        -12    1    3    3    0    0 -0.29579720330E+01 -0.12166689413E+02  0.21338698084E+02  0.24741017881E+02  0.00000000000E+00 0.  1.
</event>
<event>
 7    1  0.5849044E-013  0.5052886E+02  0.7816164E-02  0.1300439E+00
        -11   -1    0    0    0    0  0.00000000000E+00  0.00000000000E+00  0.45593999997E+02  0.45594000000E+02  0.51100000000E-03 0.  1.
         11   -1    0    0    0    0 -0.00000000000E+00 -0.00000000000E+00 -0.45593999997E+02  0.45594000000E+02  0.51100000000E-03 0. -1.
    9900012    2    1    2    0    0 -0.81677181224E+01 -0.36573545314E+01  0.39662045017E+02  0.50528859866E+02  0.30000000048E+02 0.  0.
         12    1    1    2    0    0  0.81677181224E+01  0.36573545314E+01 -0.39662045017E+02  0.40659140134E+02  0.00000000000E+00 0. -1.
         11    1    3    3    0    0  0.76557105120E+01  0.20533421244E+01  0.10637768630E+02  0.13266055895E+02  0.51100000000E-03 0. -1.
        -11    1    3    3    0    0 -0.10664440820E+02 -0.87536531631E+01  0.27960857268E+02  0.31179581157E+02  0.51100000000E-03 0.  1.
        -12    1    3    3    0    0 -0.51589878149E+01  0.30429565074E+01  0.10634191193E+01  0.60832228139E+01  0.00000000000E+00 0.  1.
</event>
<event>
 7    1  0.5849044E-013  0.5052888E+02  0.7816164E-02  0.1300439E+00
        -11   -1    0    0    0    0  0.00000000000E+00  0.00000000000E+00  0.45593999997E+02  0.45594000000E+02  0.51100000000E-03 0. -1.
         11   -1    0    0    0    0 -0.00000000000E+00 -0.00000000000E+00 -0.45593999997E+02  0.45594000000E+02  0.51100000000E-03 0.  1.
    9900012    2    1    2    0    0  0.11938733986E+02  0.22352917643E+02 -0.31795874841E+02  0.50528881056E+02  0.30000064459E+02 0.  0.
         12    1    1    2    0    0 -0.11938733986E+02 -0.22352917643E+02  0.31795874841E+02  0.40659118944E+02  0.00000000000E+00 0. -1.
         11    1    3    3    0    0  0.18988519127E+02  0.23837865985E+02 -0.22607454655E+02  0.37946076472E+02  0.51100000000E-03 0.  1.
        -11    1    3    3    0    0 -0.35924979861E+01 -0.29720054111E+01 -0.38252184847E+01  0.60308502436E+01  0.51100000000E-03 0. -1.
        -12    1    3    3    0    0 -0.34572871547E+01  0.14870570690E+01 -0.53632017015E+01  0.65519543411E+01  0.00000000000E+00 0.  1.
</event>
<event>
 7    1  0.5849044E-013  0.5052886E+02  0.7816164E-02  0.1300439E+00
        -11   -1    0    0    0    0  0.00000000000E+00  0.00000000000E+00  0.45593999997E+02  0.45594000000E+02  0.51100000000E-03 0. -1.
         11   -1    0    0    0    0 -0.00000000000E+00 -0.00000000000E+00 -0.45593999997E+02  0.45594000000E+02  0.51100000000E-03 0.  1.
    9900012    2    1    2    0    0  0.33536671769E+02  0.12565095012E+02 -0.19250344030E+02  0.50528859437E+02  0.29999998745E+02 0.  0.
         12    1    1    2    0    0 -0.33536671769E+02 -0.12565095012E+02  0.19250344030E+02  0.40659140563E+02  0.00000000000E+00 0. -1.
         11    1    3    3    0    0  0.52972377118E+01  0.29404560698E+01  0.66642612516E+01  0.90066302003E+01  0.51100000000E-03 0. -1.
        -11    1    3    3    0    0  0.28065061010E+02  0.10950324159E+02 -0.26442734280E+02  0.40084603593E+02  0.51100000000E-03 0.  1.
        -12    1    3    3    0    0  0.17437304722E+00 -0.13256852169E+01  0.52812899855E+00  0.14376256442E+01  0.00000000000E+00 0.  1.
</event>
<event>
 7    1  0.5849044E-013  0.5052886E+02  0.7816164E-02  0.1300439E+00
        -11   -1    0    0    0    0  0.00000000000E+00  0.00000000000E+00  0.45593999997E+02  0.45594000000E+02  0.51100000000E-03 0.  1.
         11   -1    0    0    0    0 -0.00000000000E+00 -0.00000000000E+00 -0.45593999997E+02  0.45594000000E+02  0.51100000000E-03 0. -1.
    9900012    2    1    2    0    0  0.38869096716E+02  0.70690863614E+01  0.96118248318E+01  0.50528857878E+02  0.29999994005E+02 0.  0.
         12    1    1    2    0    0 -0.38869096716E+02 -0.70690863614E+01 -0.96118248318E+01  0.40659142122E+02  0.00000000000E+00 0. -1.
         11    1    3    3    0    0  0.17374854745E+02 -0.34418723054E+01 -0.89926236501E+01  0.19864524730E+02  0.51100000000E-03 0. -1.
        -11    1    3    3    0    0  0.13540189385E+02  0.80754250150E+01  0.14361864269E+02  0.21326330282E+02  0.51100000000E-03 0.  1.
         12    1    3    3    0    0  0.79540525865E+01  0.24355336518E+01  0.42425842127E+01  0.93380028656E+01  0.00000000000E+00 0. -1.
</event>
<event>
 7    1  0.5849044E-013  0.5052886E+02  0.7816164E-02  0.1300439E+00
        -11   -1    0    0    0    0  0.00000000000E+00  0.00000000000E+00  0.45593999997E+02  0.45594000000E+02  0.51100000000E-03 0.  1.
         11   -1    0    0    0    0 -0.00000000000E+00 -0.00000000000E+00 -0.45593999997E+02  0.45594000000E+02  0.51100000000E-03 0. -1.
    9900012    2    1    2    0    0  0.28817972474E+02  0.22118792411E+02 -0.18260593428E+02  0.50528858500E+02  0.29999995896E+02 0.  0.
         12    1    1    2    0    0 -0.28817972474E+02 -0.22118792411E+02  0.18260593428E+02  0.40659141500E+02  0.00000000000E+00 0. -1.
         11    1    3    3    0    0 -0.54400872054E+01  0.60083054477E+01 -0.70903746050E+01  0.10768829809E+02  0.51100000000E-03 0. -1.
        -11    1    3    3    0    0  0.48750519174E+01  0.26363990599E+01 -0.34414036943E+01  0.65238018708E+01  0.51100000000E-03 0.  1.
         12    1    3    3    0    0  0.29383007762E+02  0.13474087903E+02 -0.77288151282E+01  0.33236226820E+02  0.00000000000E+00 0. -1.
</event>
<event>
 7    1  0.5849044E-013  0.5052886E+02  0.7816164E-02  0.1300439E+00
        -11   -1    0    0    0    0  0.00000000000E+00  0.00000000000E+00  0.45593999997E+02  0.45594000000E+02  0.51100000000E-03 0.  1.
         11   -1    0    0    0    0 -0.00000000000E+00 -0.00000000000E+00 -0.45593999997E+02  0.45594000000E+02  0.51100000000E-03 0. -1.
    9900012    2    1    2    0    0  0.32296862971E+02  0.11445806590E+02  0.21887713492E+02  0.50528857755E+02  0.29999993631E+02 0.  0.
         12    1    1    2    0    0 -0.32296862971E+02 -0.11445806590E+02 -0.21887713492E+02  0.40659142245E+02  0.00000000000E+00 0. -1.
         11    1    3    3    0    0  0.78544525783E+01  0.86806952190E+01  0.19742273909E+02  0.22952217194E+02  0.51100000000E-03 0. -1.
        -11    1    3    3    0    0  0.20014867318E+02 -0.29391141198E+01  0.90318162469E+00  0.20249667723E+02  0.51100000000E-03 0.  1.
         12    1    3    3    0    0  0.44275430743E+01  0.57042254908E+01  0.12422579581E+01  0.73269728374E+01  0.00000000000E+00 0. -1.
</event>
<event>
 7    1  0.5849044E-013  0.5052886E+02  0.7816164E-02  0.1300439E+00
        -11   -1    0    0    0    0  0.00000000000E+00  0.00000000000E+00  0.45593999997E+02  0.45594000000E+02  0.51100000000E-03 0. -1.
         11   -1    0    0    0    0 -0.00000000000E+00 -0.00000000000E+00 -0.45593999997E+02  0.45594000000E+02  0.51100000000E-03 0.  1.
    9900012    2    1    2    0    0  0.28363730613E+02  0.16959665425E+02 -0.23686161965E+02  0.50528859155E+02  0.29999997887E+02 0.  0.
         12    1    1    2    0    0 -0.28363730613E+02 -0.16959665425E+02  0.23686161965E+02  0.40659140845E+02  0.00000000000E+00 0. -1.
         11    1    3    3    0    0  0.25443478408E+02  0.11425882710E+02 -0.52928766555E+01  0.28389010774E+02  0.51100000000E-03 0. -1.
        -11    1    3    3    0    0 -0.36448590428E+01  0.17976606841E+01 -0.10281653979E+02  0.11055722056E+02  0.51100000000E-03 0.  1.
        -12    1    3    3    0    0  0.65651112478E+01  0.37361220315E+01 -0.81116313305E+01  0.11084126324E+02  0.00000000000E+00 0.  1.
</event>
<event>
 7    1  0.5849044E-013  0.5052885E+02  0.7816164E-02  0.1300439E+00
        -11   -1    0    0    0    0  0.00000000000E+00  0.00000000000E+00  0.45593999997E+02  0.45594000000E+02  0.51100000000E-03 0.  1.
         11   -1    0    0    0    0 -0.00000000000E+00 -0.00000000000E+00 -0.45593999997E+02  0.45594000000E+02  0.51100000000E-03 0. -1.
    9900012    2    1    2    0    0 -0.12127939882E+01  0.13744340205E+02  0.38246416768E+02  0.50528854012E+02  0.29999982253E+02 0.  0.
         12    1    1    2    0    0  0.12127939882E+01 -0.13744340205E+02 -0.38246416768E+02  0.40659145988E+02  0.00000000000E+00 0. -1.
         11    1    3    3    0    0 -0.24853277467E+01  0.14569052217E+02  0.39655260100E+02  0.42319898279E+02  0.51100000000E-03 0. -1.
        -11    1    3    3    0    0 -0.31991414338E-01  0.77981469344E+00  0.31275498391E+01  0.32234612863E+01  0.51100000000E-03 0.  1.
         12    1    3    3    0    0  0.13045251728E+01 -0.16045267055E+01 -0.45363931707E+01  0.49854944464E+01  0.00000000000E+00 0. -1.
</event>
<event>
 7    1  0.5849044E-013  0.5052885E+02  0.7816164E-02  0.1300439E+00
        -11   -1    0    0    0    0  0.00000000000E+00  0.00000000000E+00  0.45593999997E+02  0.45594000000E+02  0.51100000000E-03 0.  1.
         11   -1    0    0    0    0 -0.00000000000E+00 -0.00000000000E+00 -0.45593999997E+02  0.45594000000E+02  0.51100000000E-03 0. -1.
    9900012    2    1    2    0    0  0.17580030397E+02 -0.95406435081E+00  0.36649671582E+02  0.50528854231E+02  0.29999982921E+02 0.  0.
         12    1    1    2    0    0 -0.17580030397E+02  0.95406435081E+00 -0.36649671582E+02  0.40659145769E+02  0.00000000000E+00 0. -1.
         11    1    3    3    0    0  0.11024821608E+02 -0.41993864425E+00  0.22842808533E+01  0.11266808742E+02  0.51100000000E-03 0.  1.
        -11    1    3    3    0    0 -0.39971399204E+01  0.22108498218E+01  0.23239280863E+02  0.23683943079E+02  0.51100000000E-03 0. -1.
         12    1    3    3    0    0  0.10552348710E+02 -0.27449755284E+01  0.11126109866E+02  0.15578102410E+02  0.00000000000E+00 0. -1.
</event>
<event>
 7    1  0.5849044E-013  0.5052886E+02  0.7816164E-02  0.1300439E+00
        -11   -1    0    0    0    0  0.00000000000E+00  0.00000000000E+00  0.45593999997E+02  0.45594000000E+02  0.51100000000E-03 0. -1.
         11   -1    0    0    0    0 -0.00000000000E+00 -0.00000000000E+00 -0.45593999997E+02  0.45594000000E+02  0.51100000000E-03 0.  1.
    9900012    2    1    2    0    0 -0.79500955810E+01 -0.30374389349E+02 -0.25833278466E+02  0.50528858047E+02  0.29999994520E+02 0.  0.
         12    1    1    2    0    0  0.79500955810E+01  0.30374389349E+02  0.25833278466E+02  0.40659141953E+02  0.00000000000E+00 0. -1.
         11    1    3    3    0    0 -0.28008613736E+00 -0.14915115797E+02 -0.16195938802E+02  0.22019254334E+02  0.51100000000E-03 0. -1.
        -11    1    3    3    0    0  0.24354339060E+01  0.36840945324E+01 -0.44085859971E+01  0.62401539716E+01  0.51100000000E-03 0.  1.
        -12    1    3    3    0    0 -0.10105443350E+02 -0.19143368084E+02 -0.52287536668E+01  0.22269449741E+02  0.00000000000E+00 0.  1.
</event>
<event>
 7    1  0.5849044E-013  0.5052888E+02  0.7816164E-02  0.1300439E+00
        -11   -1    0    0    0    0  0.00000000000E+00  0.00000000000E+00  0.45593999997E+02  0.45594000000E+02  0.51100000000E-03 0. -1.
         11   -1    0    0    0    0 -0.00000000000E+00 -0.00000000000E+00 -0.45593999997E+02  0.45594000000E+02  0.51100000000E-03 0.  1.
    9900012    2    1    2    0    0 -0.36405074465E+02 -0.13209485352E+02  0.12383227734E+02  0.50528877049E+02  0.30000052277E+02 0.  0.
         12    1    1    2    0    0  0.36405074465E+02  0.13209485352E+02 -0.12383227734E+02  0.40659122951E+02  0.00000000000E+00 0. -1.
         11    1    3    3    0    0 -0.17999802048E+01  0.10942397876E+01  0.10722024435E+02  0.10926989416E+02  0.51100000000E-03 0. -1.
        -11    1    3    3    0    0 -0.30117284210E+02 -0.16578144918E+02  0.26145505369E+00  0.34379558696E+02  0.51100000000E-03 0.  1.
        -12    1    3    3    0    0 -0.44878100501E+01  0.22744197785E+01  0.13997482452E+01  0.52223289368E+01  0.00000000000E+00 0.  1.
</event>
<event>
 7    1  0.5849044E-013  0.5052886E+02  0.7816164E-02  0.1300439E+00
        -11   -1    0    0    0    0  0.00000000000E+00  0.00000000000E+00  0.45593999997E+02  0.45594000000E+02  0.51100000000E-03 0.  1.
         11   -1    0    0    0    0 -0.00000000000E+00 -0.00000000000E+00 -0.45593999997E+02  0.45594000000E+02  0.51100000000E-03 0. -1.
    9900012    2    1    2    0    0 -0.19246208107E+02  0.15011212896E+02  0.32517885665E+02  0.50528856782E+02  0.29999990675E+02 0.  0.
         12    1    1    2    0    0  0.19246208107E+02 -0.15011212896E+02 -0.32517885665E+02  0.40659143218E+02  0.00000000000E+00 0. -1.
         11    1    3    3    0    0 -0.39699422233E+01  0.66666723190E+01 -0.41584560346E+01  0.88032788163E+01  0.51100000000E-03 0. -1.
        -11    1    3    3    0    0 -0.58628342262E+00  0.47304352363E+01  0.90298794429E+01  0.10210752606E+02  0.51100000000E-03 0.  1.
         12    1    3    3    0    0 -0.14689982461E+02  0.36141053411E+01  0.27646462257E+02  0.31514825359E+02  0.00000000000E+00 0. -1.
</event>
<event>
 7    1  0.5849044E-013  0.5052886E+02  0.7816164E-02  0.1300439E+00
        -11   -1    0    0    0    0  0.00000000000E+00  0.00000000000E+00  0.45593999997E+02  0.45594000000E+02  0.51100000000E-03 0. -1.
         11   -1    0    0    0    0 -0.00000000000E+00 -0.00000000000E+00 -0.45593999997E+02  0.45594000000E+02  0.51100000000E-03 0.  1.
    9900012    2    1    2    0    0  0.25497873010E+02  0.27253877344E+02  0.16132276090E+02  0.50528859697E+02  0.29999999536E+02 0.  0.
         12    1    1    2    0    0 -0.25497873010E+02 -0.27253877344E+02 -0.16132276090E+02  0.40659140303E+02  0.00000000000E+00 0. -1.
         11    1    3    3    0    0 -0.19144130359E+01  0.14377660044E+02  0.43672133687E+01  0.15147760180E+02  0.51100000000E-03 0. -1.
        -11    1    3    3    0    0  0.25416925513E+02  0.11206123329E+02  0.14725698204E+02  0.31439521155E+02  0.51100000000E-03 0.  1.
         12    1    3    3    0    0  0.19953605325E+01  0.16700939706E+01 -0.29606354820E+01  0.39415783618E+01  0.00000000000E+00 0. -1.
</event>
<event>
 7    1  0.5849044E-013  0.5052886E+02  0.7816164E-02  0.1300439E+00
        -11   -1    0    0    0    0  0.00000000000E+00  0.00000000000E+00  0.45593999997E+02  0.45594000000E+02  0.51100000000E-03 0.  1.
         11   -1    0    0    0    0 -0.00000000000E+00 -0.00000000000E+00 -0.45593999997E+02  0.45594000000E+02  0.51100000000E-03 0. -1.
    9900012    2    1    2    0    0  0.11106288272E+02  0.17960149389E+02  0.34745489069E+02  0.50528860611E+02  0.30000002312E+02 0.  0.
         12    1    1    2    0    0 -0.11106288272E+02 -0.17960149389E+02 -0.34745489069E+02  0.40659139389E+02  0.00000000000E+00 0. -1.
         11    1    3    3    0    0  0.51381791253E+00 -0.42204404502E+01 -0.18985086570E+01  0.46562282830E+01  0.51100000000E-03 0. -1.
        -11    1    3    3    0    0  0.94209012839E+01  0.58753024763E+01  0.12549441198E+02  0.16755925365E+02  0.51100000000E-03 0.  1.
         12    1    3    3    0    0  0.11715690758E+01  0.16305287363E+02  0.24094556528E+02  0.29116706963E+02  0.00000000000E+00 0. -1.
</event>
<event>
 7    1  0.5849044E-013  0.5052886E+02  0.7816164E-02  0.1300439E+00
        -11   -1    0    0    0    0  0.00000000000E+00  0.00000000000E+00  0.45593999997E+02  0.45594000000E+02  0.51100000000E-03 0.  1.
         11   -1    0    0    0    0 -0.00000000000E+00 -0.00000000000E+00 -0.45593999997E+02  0.45594000000E+02  0.51100000000E-03 0. -1.
    9900012    2    1    2    0    0 -0.24761739164E+01 -0.26180105336E+02  0.31010259795E+02  0.50528861234E+02  0.30000004205E+02 0.  0.
         12    1    1    2    0    0  0.24761739164E+01  0.26180105336E+02 -0.31010259795E+02  0.40659138766E+02  0.00000000000E+00 0. -1.
         11    1    3    3    0    0 -0.10186576937E+02 -0.16787129132E+02  0.28858254990E+02  0.34905199262E+02  0.51100000000E-03 0.  1.
        -11    1    3    3    0    0  0.41621583423E+01 -0.93509590922E+01  0.46921779078E+01  0.11259686132E+02  0.51100000000E-03 0. -1.
         12    1    3    3    0    0  0.35482446786E+01 -0.42017112428E-01 -0.25401731029E+01  0.43639758397E+01  0.00000000000E+00 0. -1.
</event>
<event>
 7    1  0.5849044E-013  0.5052886E+02  0.7816164E-02  0.1300439E+00
        -11   -1    0    0    0    0  0.00000000000E+00  0.00000000000E+00  0.45593999997E+02  0.45594000000E+02  0.51100000000E-03 0. -1.
         11   -1    0    0    0    0 -0.00000000000E+00 -0.00000000000E+00 -0.45593999997E+02  0.45594000000E+02  0.51100000000E-03 0.  1.
    9900012    2    1    2    0    0 -0.28216509707E+02 -0.10335381313E+02 -0.27389300896E+02  0.50528864120E+02  0.30000012979E+02 0.  0.
         12    1    1    2    0    0  0.28216509707E+02  0.10335381313E+02  0.27389300896E+02  0.40659135880E+02  0.00000000000E+00 0. -1.
         11    1    3    3    0    0 -0.15374904872E+02  0.69739931275E+01 -0.28082267935E+01  0.17114625849E+02  0.51100000000E-03 0. -1.
        -11    1    3    3    0    0 -0.13535290991E+02 -0.14926821297E+02 -0.21732512687E+02  0.29636399987E+02  0.51100000000E-03 0.  1.
         12    1    3    3    0    0  0.69368615533E+00 -0.23825531435E+01 -0.28485614152E+01  0.37778382840E+01  0.00000000000E+00 0. -1.
</event>
<event>
 7    1  0.5849044E-013  0.5052895E+02  0.7816164E-02  0.1300438E+00
        -11   -1    0    0    0    0  0.00000000000E+00  0.00000000000E+00  0.45593999997E+02  0.45594000000E+02  0.51100000000E-03 0. -1.
         11   -1    0    0    0    0 -0.00000000000E+00 -0.00000000000E+00 -0.45593999997E+02  0.45594000000E+02  0.51100000000E-03 0.  1.
    9900012    2    1    2    0    0  0.15827318660E+02  0.22831474959E+02 -0.29688009257E+02  0.50528952318E+02  0.30000281064E+02 0.  0.
         12    1    1    2    0    0 -0.15827318660E+02 -0.22831474959E+02  0.29688009257E+02  0.40659047682E+02  0.00000000000E+00 0. -1.
         11    1    3    3    0    0 -0.47365342429E+00 -0.66420885533E+01 -0.47559392399E+01  0.81829485047E+01  0.51100000000E-03 0. -1.
        -11    1    3    3    0    0  0.37577276845E+01  0.12905967540E+02 -0.94015039656E+01  0.16403438438E+02  0.51100000000E-03 0.  1.
         12    1    3    3    0    0  0.12543244400E+02  0.16567595973E+02 -0.15530566052E+02  0.25942565376E+02  0.00000000000E+00 0. -1.
</event>
<event>
 7    1  0.5849044E-013  0.5052887E+02  0.7816164E-02  0.1300439E+00
        -11   -1    0    0    0    0  0.00000000000E+00  0.00000000000E+00  0.45593999997E+02  0.45594000000E+02  0.51100000000E-03 0.  1.
         11   -1    0    0    0    0 -0.00000000000E+00 -0.00000000000E+00 -0.45593999997E+02  0.45594000000E+02  0.51100000000E-03 0. -1.
    9900012    2    1    2    0    0  0.22512603301E+02  0.29295858424E+02  0.16973521778E+02  0.50528867327E+02  0.30000022727E+02 0.  0.
         12    1    1    2    0    0 -0.22512603301E+02 -0.29295858424E+02 -0.16973521778E+02  0.40659132673E+02  0.00000000000E+00 0. -1.
         11    1    3    3    0    0 -0.21759402329E+01  0.12555882085E+02  0.41636435468E+00  0.12749833347E+02  0.51100000000E-03 0. -1.
        -11    1    3    3    0    0  0.59509896310E+01  0.25186060754E+01  0.12270986091E+02  0.13868480596E+02  0.51100000000E-03 0.  1.
        -12    1    3    3    0    0  0.18737553903E+02  0.14221370263E+02  0.42861713320E+01  0.23910553384E+02  0.00000000000E+00 0.  1.
</event>
<event>
 7    1  0.5849044E-013  0.5052885E+02  0.7816164E-02  0.1300439E+00
        -11   -1    0    0    0    0  0.00000000000E+00  0.00000000000E+00  0.45593999997E+02  0.45594000000E+02  0.51100000000E-03 0. -1.
         11   -1    0    0    0    0 -0.00000000000E+00 -0.00000000000E+00 -0.45593999997E+02  0.45594000000E+02  0.51100000000E-03 0.  1.
    9900012    2    1    2    0    0 -0.35726499437E+02 -0.47348620257E+01 -0.18824578901E+02  0.50528850339E+02  0.29999971089E+02 0.  0.
         12    1    1    2    0    0  0.35726499437E+02  0.47348620257E+01  0.18824578901E+02  0.40659149661E+02  0.00000000000E+00 0. -1.
         11    1    3    3    0    0  0.10801993438E+01 -0.51974132190E+01  0.20255598675E+01  0.56817979398E+01  0.51100000000E-03 0. -1.
        -11    1    3    3    0    0 -0.28499910318E+02  0.51985474337E+01 -0.20090782829E+02  0.35254919352E+02  0.51100000000E-03 0.  1.
         12    1    3    3    0    0 -0.83067884619E+01 -0.47359962404E+01 -0.75935593927E+00  0.95921330466E+01  0.00000000000E+00 0. -1.
</event>
<event>
 7    1  0.5849044E-013  0.5052887E+02  0.7816164E-02  0.1300439E+00
        -11   -1    0    0    0    0  0.00000000000E+00  0.00000000000E+00  0.45593999997E+02  0.45594000000E+02  0.51100000000E-03 0. -1.
         11   -1    0    0    0    0 -0.00000000000E+00 -0.00000000000E+00 -0.45593999997E+02  0.45594000000E+02  0.51100000000E-03 0.  1.
    9900012    2    1    2    0    0  0.11287054832E+02 -0.22120877342E+02 -0.32193689328E+02  0.50528874902E+02  0.30000045753E+02 0.  0.
         12    1    1    2    0    0 -0.11287054832E+02  0.22120877342E+02  0.32193689328E+02  0.40659125098E+02  0.00000000000E+00 0. -1.
         11    1    3    3    0    0 -0.73041445227E+01 -0.13255491393E+02 -0.88971167091E+01  0.17556117602E+02  0.51100000000E-03 0. -1.
        -11    1    3    3    0    0  0.17735121827E+02 -0.38112269068E+01 -0.19168139804E+02  0.26390861687E+02  0.51100000000E-03 0.  1.
        -12    1    3    3    0    0  0.85607752823E+00 -0.50541590419E+01 -0.41284328148E+01  0.65818956131E+01  0.00000000000E+00 0.  1.
</event>
<event>
 7    1  0.5849044E-013  0.5052886E+02  0.7816164E-02  0.1300439E+00
        -11   -1    0    0    0    0  0.00000000000E+00  0.00000000000E+00  0.45593999997E+02  0.45594000000E+02  0.51100000000E-03 0.  1.
         11   -1    0    0    0    0 -0.00000000000E+00 -0.00000000000E+00 -0.45593999997E+02  0.45594000000E+02  0.51100000000E-03 0. -1.
    9900012    2    1    2    0    0  0.11458940573E+02 -0.10810364291E+02  0.37483254681E+02  0.50528859863E+02  0.30000000040E+02 0.  0.
         12    1    1    2    0    0 -0.11458940573E+02  0.10810364291E+02 -0.37483254681E+02  0.40659140137E+02  0.00000000000E+00 0. -1.
         11    1    3    3    0    0  0.99145385685E+01  0.60107702799E+01  0.77283662195E+01  0.13933954179E+02  0.51100000000E-03 0. -1.
        -11    1    3    3    0    0 -0.29602688235E+01 -0.14888005440E+00  0.96294593430E+01  0.10075308644E+02  0.51100000000E-03 0.  1.
         12    1    3    3    0    0  0.45046708283E+01 -0.16672254516E+02  0.20125429119E+02  0.26519597040E+02  0.00000000000E+00 0. -1.
</event>
<event>
 7    1  0.5849044E-013  0.5052885E+02  0.7816164E-02  0.1300439E+00
        -11   -1    0    0    0    0  0.00000000000E+00  0.00000000000E+00  0.45593999997E+02  0.45594000000E+02  0.51100000000E-03 0.  1.
         11   -1    0    0    0    0 -0.00000000000E+00 -0.00000000000E+00 -0.45593999997E+02  0.45594000000E+02  0.51100000000E-03 0. -1.
    9900012    2    1    2    0    0 -0.35069833920E+02 -0.20385144255E+02  0.27782662953E+01  0.50528854398E+02  0.29999983428E+02 0.  0.
         12    1    1    2    0    0  0.35069833920E+02  0.20385144255E+02 -0.27782662953E+01  0.40659145602E+02  0.00000000000E+00 0. -1.
         11    1    3    3    0    0  0.27768556773E+00  0.36321068897E+01 -0.24034842139E+01  0.43641776270E+01  0.51100000000E-03 0. -1.
        -11    1    3    3    0    0 -0.23384414389E+02 -0.16162781998E+02  0.11313669825E+02  0.30595187259E+02  0.51100000000E-03 0.  1.
        -12    1    3    3    0    0 -0.11963105098E+02 -0.78544691466E+01 -0.61319193153E+01  0.15569489512E+02  0.00000000000E+00 0.  1.
</event>
<event>
 7    1  0.5849044E-013  0.5052886E+02  0.7816164E-02  0.1300439E+00
        -11   -1    0    0    0    0  0.00000000000E+00  0.00000000000E+00  0.45593999997E+02  0.45594000000E+02  0.51100000000E-03 0. -1.
         11   -1    0    0    0    0 -0.00000000000E+00 -0.00000000000E+00 -0.45593999997E+02  0.45594000000E+02  0.51100000000E-03 0.  1.
    9900012    2    1    2    0    0 -0.23294815040E+02  0.17496847975E+02 -0.28361552984E+02  0.50528858537E+02  0.29999996009E+02 0.  0.
         12    1    1    2    0    0  0.23294815040E+02 -0.17496847975E+02  0.28361552984E+02  0.40659141463E+02  0.00000000000E+00 0. -1.
         11    1    3    3    0    0 -0.41195291971E+01 -0.57286781843E+01 -0.11725138896E+02  0.13684559070E+02  0.51100000000E-03 0. -1.
        -11    1    3    3    0    0 -0.67438842909E+00  0.10128936469E+02 -0.41638416308E+01  0.10972134301E+02  0.51100000000E-03 0.  1.
        -12    1    3    3    0    0 -0.18500897414E+02  0.13096589691E+02 -0.12472572458E+02  0.25872165166E+02  0.00000000000E+00 0.  1.
</event>
<event>
 7    1  0.5849044E-013  0.5052886E+02  0.7816164E-02  0.1300439E+00
        -11   -1    0    0    0    0  0.00000000000E+00  0.00000000000E+00  0.45593999997E+02  0.45594000000E+02  0.51100000000E-03 0. -1.
         11   -1    0    0    0    0 -0.00000000000E+00 -0.00000000000E+00 -0.45593999997E+02  0.45594000000E+02  0.51100000000E-03 0.  1.
    9900012    2    1    2    0    0 -0.84560468764E+01 -0.33605503557E+02 -0.21268075101E+02  0.50528860602E+02  0.30000002284E+02 0.  0.
         12    1    1    2    0    0  0.84560468764E+01  0.33605503557E+02  0.21268075101E+02  0.40659139398E+02  0.00000000000E+00 0. -1.
         11    1    3    3    0    0  0.32649834773E+01  0.31828420483E+01  0.14040815979E+01  0.47709586046E+01  0.51100000000E-03 0. -1.
        -11    1    3    3    0    0 -0.12342889272E+02 -0.30364201855E+02 -0.15995737882E+02  0.36471842571E+02  0.51100000000E-03 0.  1.
         12    1    3    3    0    0  0.62185891782E+00 -0.64241437505E+01 -0.66764188173E+01  0.92860594261E+01  0.00000000000E+00 0. -1.
</event>
<event>
 7    1  0.5849044E-013  0.5052887E+02  0.7816164E-02  0.1300439E+00
        -11   -1    0    0    0    0  0.00000000000E+00  0.00000000000E+00  0.45593999997E+02  0.45594000000E+02  0.51100000000E-03 0.  1.
         11   -1    0    0    0    0 -0.00000000000E+00 -0.00000000000E+00 -0.45593999997E+02  0.45594000000E+02  0.51100000000E-03 0. -1.
    9900012    2    1    2    0    0  0.40435282969E+01 -0.20896650839E+02  0.34643109574E+02  0.50528865991E+02  0.30000018667E+02 0.  0.
         12    1    1    2    0    0 -0.40435282969E+01  0.20896650839E+02 -0.34643109574E+02  0.40659134009E+02  0.00000000000E+00 0. -1.
         11    1    3    3    0    0 -0.50709122148E+01  0.93225470103E+00  0.70703158703E+01  0.87505780543E+01  0.51100000000E-03 0. -1.
        -11    1    3    3    0    0  0.15210489712E+02 -0.13832624432E+02  0.13945913078E+02  0.24843288586E+02  0.51100000000E-03 0.  1.
        -12    1    3    3    0    0 -0.60960492000E+01 -0.79962811085E+01  0.13626880626E+02  0.16934999351E+02  0.00000000000E+00 0.  1.
</event>
<event>
 7    1  0.5849044E-013  0.5052886E+02  0.7816164E-02  0.1300439E+00
        -11   -1    0    0    0    0  0.00000000000E+00  0.00000000000E+00  0.45593999997E+02  0.45594000000E+02  0.51100000000E-03 0. -1.
         11   -1    0    0    0    0 -0.00000000000E+00 -0.00000000000E+00 -0.45593999997E+02  0.45594000000E+02  0.51100000000E-03 0.  1.
    9900012    2    1    2    0    0  0.30829995347E+02 -0.24284406831E+02 -0.10627546870E+02  0.50528858584E+02  0.29999996151E+02 0.  0.
         12    1    1    2    0    0 -0.30829995347E+02  0.24284406831E+02  0.10627546870E+02  0.40659141416E+02  0.00000000000E+00 0. -1.
         11    1    3    3    0    0  0.16167134121E+02 -0.12305484780E+02  0.86382107857E+01  0.22077587440E+02  0.51100000000E-03 0. -1.
        -11    1    3    3    0    0  0.10336954412E+02 -0.11398589543E+02 -0.10409498055E+02  0.18577893317E+02  0.51100000000E-03 0.  1.
         12    1    3    3    0    0  0.43259068141E+01 -0.58033250831E+00 -0.88562596002E+01  0.98733778258E+01  0.00000000000E+00 0. -1.
</event>
<event>
 7    1  0.5849044E-013  0.5052887E+02  0.7816164E-02  0.1300439E+00
        -11   -1    0    0    0    0  0.00000000000E+00  0.00000000000E+00  0.45593999997E+02  0.45594000000E+02  0.51100000000E-03 0. -1.
         11   -1    0    0    0    0 -0.00000000000E+00 -0.00000000000E+00 -0.45593999997E+02  0.45594000000E+02  0.51100000000E-03 0.  1.
    9900012    2    1    2    0    0 -0.58448880775E+00  0.23991836898E+02 -0.32820954306E+02  0.50528869335E+02  0.30000028829E+02 0.  0.
         12    1    1    2    0    0  0.58448880775E+00 -0.23991836898E+02  0.32820954306E+02  0.40659130665E+02  0.00000000000E+00 0. -1.
         11    1    3    3    0    0 -0.19467666153E+01  0.23252504770E+02 -0.21405624115E+02  0.31664958904E+02  0.51100000000E-03 0. -1.
        -11    1    3    3    0    0  0.36098152862E+01 -0.57115613275E+01 -0.16652015308E+01  0.69588501634E+01  0.51100000000E-03 0.  1.
        -12    1    3    3    0    0 -0.22475374787E+01  0.64508934551E+01 -0.97501286602E+01  0.11905060268E+02  0.00000000000E+00 0.  1.
</event>
<event>
 7    1  0.5849044E-013  0.5052886E+02  0.7816164E-02  0.1300439E+00
        -11   -1    0    0    0    0  0.00000000000E+00  0.00000000000E+00  0.45593999997E+02  0.45594000000E+02  0.51100000000E-03 0.  1.
         11   -1    0    0    0    0 -0.00000000000E+00 -0.00000000000E+00 -0.45593999997E+02  0.45594000000E+02  0.51100000000E-03 0. -1.
    9900012    2    1    2    0    0  0.11268034488E+01 -0.35381974571E+02  0.20000292258E+02  0.50528862024E+02  0.30000006607E+02 0.  0.
         12    1    1    2    0    0 -0.11268034488E+01  0.35381974571E+02 -0.20000292258E+02  0.40659137976E+02  0.00000000000E+00 0. -1.
         11    1    3    3    0    0 -0.32086529475E+01 -0.28552590082E+02  0.12222009559E+02  0.31223762938E+02  0.51100000000E-03 0.  1.
        -11    1    3    3    0    0  0.85033092256E-01  0.19984599010E+01 -0.37046964856E+01  0.42102077044E+01  0.51100000000E-03 0. -1.
        -12    1    3    3    0    0  0.42504233041E+01 -0.88278443904E+01  0.11482979185E+02  0.15094891381E+02  0.00000000000E+00 0.  1.
</event>
<event>
 7    1  0.5849044E-013  0.5052888E+02  0.7816164E-02  0.1300439E+00
        -11   -1    0    0    0    0  0.00000000000E+00  0.00000000000E+00  0.45593999997E+02  0.45594000000E+02  0.51100000000E-03 0.  1.
         11   -1    0    0    0    0 -0.00000000000E+00 -0.00000000000E+00 -0.45593999997E+02  0.45594000000E+02  0.51100000000E-03 0. -1.
    9900012    2    1    2    0    0  0.23012840056E+02 -0.18724275591E+02  0.27802417641E+02  0.50528883795E+02  0.30000072784E+02 0.  0.
         12    1    1    2    0    0 -0.23012840056E+02  0.18724275591E+02 -0.27802417641E+02  0.40659116205E+02  0.00000000000E+00 0. -1.
         11    1    3    3    0    0 -0.14435861583E+01  0.55202013572E+01  0.17303958970E+01  0.59624520327E+01  0.51100000000E-03 0. -1.
        -11    1    3    3    0    0  0.16332222657E+02 -0.22545173464E+02  0.20396148016E+02  0.34511290871E+02  0.51100000000E-03 0.  1.
        -12    1    3    3    0    0  0.81242035569E+01 -0.16993034842E+01  0.56758737280E+01  0.10055140891E+02  0.00000000000E+00 0.  1.
</event>
<event>
 7    1  0.5849044E-013  0.5052886E+02  0.7816164E-02  0.1300439E+00
        -11   -1    0    0    0    0  0.00000000000E+00  0.00000000000E+00  0.45593999997E+02  0.45594000000E+02  0.51100000000E-03 0. -1.
         11   -1    0    0    0    0 -0.00000000000E+00 -0.00000000000E+00 -0.45593999997E+02  0.45594000000E+02  0.51100000000E-03 0.  1.
    9900012    2    1    2    0    0  0.13300623258E+02  0.43720840430E+01 -0.38172555451E+02  0.50528859729E+02  0.29999999632E+02 0.  0.
         12    1    1    2    0    0 -0.13300623258E+02 -0.43720840430E+01  0.38172555451E+02  0.40659140271E+02  0.00000000000E+00 0. -1.
         11    1    3    3    0    0 -0.84241958198E+01 -0.10598638660E+01 -0.12929357831E+02  0.15467988906E+02  0.51100000000E-03 0. -1.
        -11    1    3    3    0    0  0.20034410422E+02  0.41854491248E+01 -0.25757029935E+02  0.32898634875E+02  0.51100000000E-03 0.  1.
        -12    1    3    3    0    0  0.16904086562E+01  0.12464987843E+01  0.51383231474E+00  0.21622359473E+01  0.00000000000E+00 0.  1.
</event>
<event>
 7    1  0.5849044E-013  0.5052885E+02  0.7816164E-02  0.1300439E+00
        -11   -1    0    0    0    0  0.00000000000E+00  0.00000000000E+00  0.45593999997E+02  0.45594000000E+02  0.51100000000E-03 0.  1.
         11   -1    0    0    0    0 -0.00000000000E+00 -0.00000000000E+00 -0.45593999997E+02  0.45594000000E+02  0.51100000000E-03 0. -1.
    9900012    2    1    2    0    0 -0.19233112629E+02  0.33435754548E+02  0.12857072885E+02  0.50528848180E+02  0.29999964527E+02 0.  0.
         12    1    1    2    0    0  0.19233112629E+02 -0.33435754548E+02 -0.12857072885E+02  0.40659151820E+02  0.00000000000E+00 0. -1.
         11    1    3    3    0    0 -0.78735872000E+01 -0.33018510045E+01  0.12611982205E+01  0.86305397667E+01  0.51100000000E-03 0. -1.
        -11    1    3    3    0    0 -0.12961052700E+02  0.23961897896E+02  0.62095183251E+01  0.27941359236E+02  0.51100000000E-03 0.  1.
        -12    1    3    3    0    0  0.16015272712E+01  0.12775707657E+02  0.53863563389E+01  0.13956949177E+02  0.00000000000E+00 0.  1.
</event>
<event>
 7    1  0.5849044E-013  0.5052886E+02  0.7816164E-02  0.1300439E+00
        -11   -1    0    0    0    0  0.00000000000E+00  0.00000000000E+00  0.45593999997E+02  0.45594000000E+02  0.51100000000E-03 0.  1.
         11   -1    0    0    0    0 -0.00000000000E+00 -0.00000000000E+00 -0.45593999997E+02  0.45594000000E+02  0.51100000000E-03 0. -1.
    9900012    2    1    2    0    0  0.72924119618E+00 -0.26959461043E+02  0.30427311503E+02  0.50528860588E+02  0.30000002243E+02 0.  0.
         12    1    1    2    0    0 -0.72924119618E+00  0.26959461043E+02 -0.30427311503E+02  0.40659139412E+02  0.00000000000E+00 0. -1.
         11    1    3    3    0    0 -0.12020781395E+02 -0.52357691887E+01  0.76735071527E+01  0.15191944465E+02  0.51100000000E-03 0. -1.
        -11    1    3    3    0    0  0.13621426570E+01 -0.26754025942E+01  0.83657813693E+01  0.88881668436E+01  0.51100000000E-03 0.  1.
         12    1    3    3    0    0  0.11387879934E+02 -0.19048289260E+02  0.14388022981E+02  0.26448749279E+02  0.00000000000E+00 0. -1.
</event>
<event>
 7    1  0.5849044E-013  0.5052886E+02  0.7816164E-02  0.1300439E+00
        -11   -1    0    0    0    0  0.00000000000E+00  0.00000000000E+00  0.45593999997E+02  0.45594000000E+02  0.51100000000E-03 0.  1.
         11   -1    0    0    0    0 -0.00000000000E+00 -0.00000000000E+00 -0.45593999997E+02  0.45594000000E+02  0.51100000000E-03 0. -1.
    9900012    2    1    2    0    0  0.28271670735E+01 -0.95928624712E+01  0.39410017370E+02  0.50528863842E+02  0.30000012133E+02 0.  0.
         12    1    1    2    0    0 -0.28271670735E+01  0.95928624712E+01 -0.39410017370E+02  0.40659136158E+02  0.00000000000E+00 0. -1.
         11    1    3    3    0    0  0.53226386380E+01 -0.70015720117E-02 -0.13667155876E+01  0.54953109876E+01  0.51100000000E-03 0. -1.
        -11    1    3    3    0    0 -0.87333282072E+01 -0.70483885459E+01  0.32381376460E+02  0.34271042359E+02  0.51100000000E-03 0.  1.
        -12    1    3    3    0    0  0.62378566427E+01 -0.25374723532E+01  0.83953564970E+01  0.10762510495E+02  0.00000000000E+00 0.  1.
</event>
<event>
 7    1  0.5849044E-013  0.5052885E+02  0.7816164E-02  0.1300439E+00
        -11   -1    0    0    0    0  0.00000000000E+00  0.00000000000E+00  0.45593999997E+02  0.45594000000E+02  0.51100000000E-03 0. -1.
         11   -1    0    0    0    0 -0.00000000000E+00 -0.00000000000E+00 -0.45593999997E+02  0.45594000000E+02  0.51100000000E-03 0.  1.
    9900012    2    1    2    0    0  0.40462174079E+02 -0.27915503442E+01 -0.28611304785E+01  0.50528851556E+02  0.29999974791E+02 0.  0.
         12    1    1    2    0    0 -0.40462174079E+02  0.27915503442E+01  0.28611304785E+01  0.40659148444E+02  0.00000000000E+00 0. -1.
         11    1    3    3    0    0  0.52526193368E+01 -0.71644259802E+01  0.85504291984E+01  0.12329997942E+02  0.51100000000E-03 0.  1.
        -11    1    3    3    0    0  0.90913533262E+01  0.46703648149E+01 -0.18682632510E+01  0.10390159799E+02  0.51100000000E-03 0. -1.
         12    1    3    3    0    0  0.26118201416E+02 -0.29748917887E+00 -0.95432964259E+01  0.27808693815E+02  0.00000000000E+00 0. -1.
</event>
<event>
 7    1  0.5849044E-013  0.5052886E+02  0.7816164E-02  0.1300439E+00
        -11   -1    0    0    0    0  0.00000000000E+00  0.00000000000E+00  0.45593999997E+02  0.45594000000E+02  0.51100000000E-03 0.  1.
         11   -1    0    0    0    0 -0.00000000000E+00 -0.00000000000E+00 -0.45593999997E+02  0.45594000000E+02  0.51100000000E-03 0. -1.
    9900012    2    1    2    0    0  0.86613786274E+01  0.72330617181E+00  0.39719303704E+02  0.50528859106E+02  0.29999997738E+02 0.  0.
         12    1    1    2    0    0 -0.86613786274E+01 -0.72330617181E+00 -0.39719303704E+02  0.40659140894E+02  0.00000000000E+00 0. -1.
         11    1    3    3    0    0  0.13622549608E+02  0.44790377314E+01  0.35564726167E+02  0.38346908408E+02  0.51100000000E-03 0. -1.
        -11    1    3    3    0    0 -0.31910327559E+01 -0.38614911247E+01  0.71325972208E+01  0.87159478619E+01  0.51100000000E-03 0.  1.
         12    1    3    3    0    0 -0.17701382244E+01  0.10575956508E+00 -0.29780196845E+01  0.34660028361E+01  0.00000000000E+00 0. -1.
</event>
<event>
 7    1  0.5849044E-013  0.5052889E+02  0.7816164E-02  0.1300439E+00
        -11   -1    0    0    0    0  0.00000000000E+00  0.00000000000E+00  0.45593999997E+02  0.45594000000E+02  0.51100000000E-03 0.  1.
         11   -1    0    0    0    0 -0.00000000000E+00 -0.00000000000E+00 -0.45593999997E+02  0.45594000000E+02  0.51100000000E-03 0. -1.
    9900012    2    1    2    0    0 -0.12017796380E+02 -0.14023445279E+02  0.36222629475E+02  0.50528888679E+02  0.30000087630E+02 0.  0.
         12    1    1    2    0    0  0.12017796380E+02  0.14023445279E+02 -0.36222629475E+02  0.40659111321E+02  0.00000000000E+00 0. -1.
         11    1    3    3    0    0 -0.13010570652E+02 -0.12584114988E-01  0.56800193554E+01  0.14196398388E+02  0.51100000000E-03 0. -1.
        -11    1    3    3    0    0  0.46733776457E+01 -0.16906115303E+01  0.16768299728E+02  0.17489268195E+02  0.51100000000E-03 0.  1.
         12    1    3    3    0    0 -0.36806033742E+01 -0.12320249633E+02  0.13774310391E+02  0.18843222097E+02  0.00000000000E+00 0. -1.
</event>
<event>
 7    1  0.5849044E-013  0.5052884E+02  0.7816164E-02  0.1300439E+00
        -11   -1    0    0    0    0  0.00000000000E+00  0.00000000000E+00  0.45593999997E+02  0.45594000000E+02  0.51100000000E-03 0.  1.
         11   -1    0    0    0    0 -0.00000000000E+00 -0.00000000000E+00 -0.45593999997E+02  0.45594000000E+02  0.51100000000E-03 0. -1.
    9900012    2    1    2    0    0 -0.25032935339E+02  0.17940270860E+02  0.26545550954E+02  0.50528838109E+02  0.29999933917E+02 0.  0.
         12    1    1    2    0    0  0.25032935339E+02 -0.17940270860E+02 -0.26545550954E+02  0.40659161891E+02  0.00000000000E+00 0. -1.
         11    1    3    3    0    0  0.10879442550E+01 -0.19348260233E+01 -0.37740734166E+01  0.43784477680E+01  0.51100000000E-03 0. -1.
        -11    1    3    3    0    0 -0.20237669562E+01  0.19332863392E+01  0.86944066861E+01  0.91337799758E+01  0.51100000000E-03 0.  1.
         12    1    3    3    0    0 -0.24097112637E+02  0.17941810544E+02  0.21625217684E+02  0.37016610366E+02  0.00000000000E+00 0. -1.
</event>
<event>
 7    1  0.5849044E-013  0.5052886E+02  0.7816164E-02  0.1300439E+00
        -11   -1    0    0    0    0  0.00000000000E+00  0.00000000000E+00  0.45593999997E+02  0.45594000000E+02  0.51100000000E-03 0.  1.
         11   -1    0    0    0    0 -0.00000000000E+00 -0.00000000000E+00 -0.45593999997E+02  0.45594000000E+02  0.51100000000E-03 0. -1.
    9900012    2    1    2    0    0  0.32885927550E+02  0.11844734730E+02  0.20769782758E+02  0.50528857762E+02  0.29999993655E+02 0.  0.
         12    1    1    2    0    0 -0.32885927550E+02 -0.11844734730E+02 -0.20769782758E+02  0.40659142238E+02  0.00000000000E+00 0. -1.
         11    1    3    3    0    0  0.30926992673E+02  0.15038946588E+01  0.48860163462E+01  0.31346670173E+02  0.51100000000E-03 0. -1.
        -11    1    3    3    0    0  0.13841976806E+01  0.84576659313E+01  0.11210701072E+02  0.14111269787E+02  0.51100000000E-03 0.  1.
         12    1    3    3    0    0  0.57473719724E+00  0.18831741396E+01  0.46730653401E+01  0.50709178024E+01  0.00000000000E+00 0. -1.
</event>
<event>
 7    1  0.5849044E-013  0.5052877E+02  0.7816164E-02  0.1300439E+00
        -11   -1    0    0    0    0  0.00000000000E+00  0.00000000000E+00  0.45593999997E+02  0.45594000000E+02  0.51100000000E-03 0. -1.
         11   -1    0    0    0    0 -0.00000000000E+00 -0.00000000000E+00 -0.45593999997E+02  0.45594000000E+02  0.51100000000E-03 0.  1.
    9900012    2    1    2    0    0 -0.15624766482E+02  0.18691753065E+02 -0.32552387097E+02  0.50528771454E+02  0.29999731309E+02 0.  0.
         12    1    1    2    0    0  0.15624766482E+02 -0.18691753065E+02  0.32552387097E+02  0.40659228546E+02  0.00000000000E+00 0. -1.
         11    1    3    3    0    0 -0.14619837728E+02  0.57574794106E+01 -0.54627309230E+01  0.16635193228E+02  0.51100000000E-03 0. -1.
        -11    1    3    3    0    0  0.58116178480E+01  0.10886947260E+02 -0.12018196344E+02  0.17226072283E+02  0.51100000000E-03 0.  1.
         12    1    3    3    0    0 -0.68165466026E+01  0.20473263944E+01 -0.15071459830E+02  0.16667505943E+02  0.00000000000E+00 0. -1.
</event>
<event>
 7    1  0.5849044E-013  0.5052886E+02  0.7816164E-02  0.1300439E+00
        -11   -1    0    0    0    0  0.00000000000E+00  0.00000000000E+00  0.45593999997E+02  0.45594000000E+02  0.51100000000E-03 0. -1.
         11   -1    0    0    0    0 -0.00000000000E+00 -0.00000000000E+00 -0.45593999997E+02  0.45594000000E+02  0.51100000000E-03 0.  1.
    9900012    2    1    2    0    0  0.73981683803E+01  0.39895668193E+02 -0.26016230001E+01  0.50528859844E+02  0.29999999982E+02 0.  0.
         12    1    1    2    0    0 -0.73981683803E+01 -0.39895668193E+02  0.26016230001E+01  0.40659140156E+02  0.00000000000E+00 0. -1.
         11    1    3    3    0    0  0.19311239698E+01  0.16921057715E+02  0.31835940580E+01  0.17325896957E+02  0.51100000000E-03 0. -1.
        -11    1    3    3    0    0  0.70593441950E+01 -0.19218967649E+01 -0.36170145321E+01  0.81615453209E+01  0.51100000000E-03 0.  1.
        -12    1    3    3    0    0 -0.15922997845E+01  0.24896507243E+02 -0.21682025260E+01  0.25041417566E+02  0.00000000000E+00 0.  1.
</event>
<event>
 7    1  0.5849044E-013  0.5052892E+02  0.7816164E-02  0.1300439E+00
        -11   -1    0    0    0    0  0.00000000000E+00  0.00000000000E+00  0.45593999997E+02  0.45594000000E+02  0.51100000000E-03 0.  1.
         11   -1    0    0    0    0 -0.00000000000E+00 -0.00000000000E+00 -0.45593999997E+02  0.45594000000E+02  0.51100000000E-03 0. -1.
    9900012    2    1    2    0    0  0.61292674439E+00 -0.16300770262E+02  0.37243385154E+02  0.50528923177E+02  0.30000192489E+02 0.  0.
         12    1    1    2    0    0 -0.61292674439E+00  0.16300770262E+02 -0.37243385154E+02  0.40659076823E+02  0.00000000000E+00 0. -1.
         11    1    3    3    0    0 -0.23224386355E+01  0.72211057434E+01  0.72088401524E+01  0.10464485939E+02  0.51100000000E-03 0. -1.
        -11    1    3    3    0    0  0.68937733797E+01 -0.10724710413E+02  0.17995247176E+02  0.22053853315E+02  0.51100000000E-03 0.  1.
         12    1    3    3    0    0 -0.39584079999E+01 -0.12797165593E+02  0.12039297826E+02  0.18010583923E+02  0.00000000000E+00 0. -1.
</event>
<event>
 7    1  0.5849044E-013  0.5052886E+02  0.7816164E-02  0.1300439E+00
        -11   -1    0    0    0    0  0.00000000000E+00  0.00000000000E+00  0.45593999997E+02  0.45594000000E+02  0.51100000000E-03 0.  1.
         11   -1    0    0    0    0 -0.00000000000E+00 -0.00000000000E+00 -0.45593999997E+02  0.45594000000E+02  0.51100000000E-03 0. -1.
    9900012    2    1    2    0    0 -0.90973014490E+00  0.75197236557E+01  0.39947364324E+02  0.50528858724E+02  0.29999996579E+02 0.  0.
         12    1    1    2    0    0  0.90973014490E+00 -0.75197236557E+01 -0.39947364324E+02  0.40659141276E+02  0.00000000000E+00 0. -1.
         11    1    3    3    0    0 -0.94361335491E+01  0.14170628982E+02  0.16820402932E+02  0.23932682615E+02  0.51100000000E-03 0. -1.
        -11    1    3    3    0    0  0.87819391894E+00 -0.51451006001E+01  0.75622960909E+01  0.91886673229E+01  0.51100000000E-03 0.  1.
         12    1    3    3    0    0  0.76482094853E+01 -0.15058047259E+01  0.15564665302E+02  0.17407508787E+02  0.00000000000E+00 0. -1.
</event>
<event>
 7    1  0.5849044E-013  0.5052887E+02  0.7816164E-02  0.1300439E+00
        -11   -1    0    0    0    0  0.00000000000E+00  0.00000000000E+00  0.45593999997E+02  0.45594000000E+02  0.51100000000E-03 0.  1.
         11   -1    0    0    0    0 -0.00000000000E+00 -0.00000000000E+00 -0.45593999997E+02  0.45594000000E+02  0.51100000000E-03 0. -1.
    9900012    2    1    2    0    0 -0.22563905439E+02  0.33447763498E+02  0.50281508313E+01  0.50528868031E+02  0.30000024866E+02 0.  0.
         12    1    1    2    0    0  0.22563905439E+02 -0.33447763498E+02 -0.50281508313E+01  0.40659131969E+02  0.00000000000E+00 0. -1.
         11    1    3    3    0    0 -0.36875524914E+01  0.21272705319E+02  0.12712372478E+02  0.25054549472E+02  0.51100000000E-03 0. -1.
        -11    1    3    3    0    0 -0.40013540398E+01  0.23048903748E+01  0.21492295909E+01  0.50933821658E+01  0.51100000000E-03 0.  1.
         12    1    3    3    0    0 -0.14874998908E+02  0.98701678042E+01 -0.98334512372E+01  0.20380936393E+02  0.00000000000E+00 0. -1.
</event>
<event>
 7    1  0.5849044E-013  0.5052885E+02  0.7816164E-02  0.1300439E+00
        -11   -1    0    0    0    0  0.00000000000E+00  0.00000000000E+00  0.45593999997E+02  0.45594000000E+02  0.51100000000E-03 0.  1.
         11   -1    0    0    0    0 -0.00000000000E+00 -0.00000000000E+00 -0.45593999997E+02  0.45594000000E+02  0.51100000000E-03 0. -1.
    9900012    2    1    2    0    0  0.34938304840E+02  0.98268814105E+01  0.18327938619E+02  0.50528854935E+02  0.29999985062E+02 0.  0.
         12    1    1    2    0    0 -0.34938304840E+02 -0.98268814105E+01 -0.18327938619E+02  0.40659145065E+02  0.00000000000E+00 0. -1.
         11    1    3    3    0    0  0.12350290508E+02  0.18685346859E+00  0.13311352144E+02  0.18159203892E+02  0.51100000000E-03 0. -1.
        -11    1    3    3    0    0 -0.23637444247E-01  0.72788357002E+01 -0.35198266427E+01  0.80852450634E+01  0.51100000000E-03 0.  1.
        -12    1    3    3    0    0  0.22611651777E+02  0.23611922418E+01  0.85364131173E+01  0.24284405980E+02  0.00000000000E+00 0.  1.
</event>
<event>
 7    1  0.5849044E-013  0.5052887E+02  0.7816164E-02  0.1300439E+00
        -11   -1    0    0    0    0  0.00000000000E+00  0.00000000000E+00  0.45593999997E+02  0.45594000000E+02  0.51100000000E-03 0. -1.
         11   -1    0    0    0    0 -0.00000000000E+00 -0.00000000000E+00 -0.45593999997E+02  0.45594000000E+02  0.51100000000E-03 0.  1.
    9900012    2    1    2    0    0 -0.25320315757E+01 -0.36451352726E+02 -0.17834031547E+02  0.50528868422E+02  0.30000026054E+02 0.  0.
         12    1    1    2    0    0  0.25320315757E+01  0.36451352726E+02  0.17834031547E+02  0.40659131578E+02  0.00000000000E+00 0. -1.
         11    1    3    3    0    0 -0.66166951648E+01 -0.56775127601E+01 -0.10966599112E+02  0.14010035774E+02  0.51100000000E-03 0. -1.
        -11    1    3    3    0    0  0.30170329442E+01 -0.15708401280E+02  0.55866429597E+01  0.16943049854E+02  0.51100000000E-03 0.  1.
        -12    1    3    3    0    0  0.10676306450E+01 -0.15065438687E+02 -0.12454075395E+02  0.19575782793E+02  0.00000000000E+00 0.  1.
</event>
<event>
 7    1  0.5849044E-013  0.5052886E+02  0.7816164E-02  0.1300439E+00
        -11   -1    0    0    0    0  0.00000000000E+00  0.00000000000E+00  0.45593999997E+02  0.45594000000E+02  0.51100000000E-03 0.  1.
         11   -1    0    0    0    0 -0.00000000000E+00 -0.00000000000E+00 -0.45593999997E+02  0.45594000000E+02  0.51100000000E-03 0. -1.
    9900012    2    1    2    0    0  0.21334190787E+02  0.33684171772E+02  0.79620611118E+01  0.50528861523E+02  0.30000005085E+02 0.  0.
         12    1    1    2    0    0 -0.21334190787E+02 -0.33684171772E+02 -0.79620611118E+01  0.40659138477E+02  0.00000000000E+00 0. -1.
         11    1    3    3    0    0  0.16851377647E+02  0.50739120288E+01 -0.46648981258E+01  0.18206449041E+02  0.51100000000E-03 0. -1.
        -11    1    3    3    0    0  0.76507421736E+00  0.14970368511E+02  0.31927192515E+01  0.15326145255E+02  0.51100000000E-03 0.  1.
         12    1    3    3    0    0  0.37177389230E+01  0.13639891233E+02  0.94342399861E+01  0.16996267227E+02  0.00000000000E+00 0. -1.
</event>
<event>
 7    1  0.5849044E-013  0.5052886E+02  0.7816164E-02  0.1300439E+00
        -11   -1    0    0    0    0  0.00000000000E+00  0.00000000000E+00  0.45593999997E+02  0.45594000000E+02  0.51100000000E-03 0.  1.
         11   -1    0    0    0    0 -0.00000000000E+00 -0.00000000000E+00 -0.45593999997E+02  0.45594000000E+02  0.51100000000E-03 0. -1.
    9900012    2    1    2    0    0  0.63457741193E+01 -0.36265123034E+02  0.17255081107E+02  0.50528858078E+02  0.29999994613E+02 0.  0.
         12    1    1    2    0    0 -0.63457741193E+01  0.36265123034E+02 -0.17255081107E+02  0.40659141922E+02  0.00000000000E+00 0. -1.
         11    1    3    3    0    0 -0.71583994957E+01 -0.46541774015E+00  0.72530513627E+00  0.72100877120E+01  0.51100000000E-03 0. -1.
        -11    1    3    3    0    0  0.96522176180E+01 -0.23114404746E+02  0.16620348635E+02  0.30061220879E+02  0.51100000000E-03 0.  1.
         12    1    3    3    0    0  0.38519559970E+01 -0.12685300548E+02 -0.90572663947E-01  0.13257549487E+02  0.00000000000E+00 0. -1.
</event>
<event>
 7    1  0.5849044E-013  0.5052885E+02  0.7816164E-02  0.1300439E+00
        -11   -1    0    0    0    0  0.00000000000E+00  0.00000000000E+00  0.45593999997E+02  0.45594000000E+02  0.51100000000E-03 0.  1.
         11   -1    0    0    0    0 -0.00000000000E+00 -0.00000000000E+00 -0.45593999997E+02  0.45594000000E+02  0.51100000000E-03 0. -1.
    9900012    2    1    2    0    0  0.19257975552E+02 -0.31190180712E+02  0.17591740109E+02  0.50528852010E+02  0.29999976170E+02 0.  0.
         12    1    1    2    0    0 -0.19257975552E+02  0.31190180712E+02 -0.17591740109E+02  0.40659147990E+02  0.00000000000E+00 0. -1.
         11    1    3    3    0    0  0.45103188430E+00 -0.22562253358E+02  0.87347857980E+01  0.24198247654E+02  0.51100000000E-03 0. -1.
        -11    1    3    3    0    0  0.13286058924E+02 -0.89176609306E+01  0.11972561830E+02  0.19984650991E+02  0.51100000000E-03 0.  1.
         12    1    3    3    0    0  0.55208847437E+01  0.28973357609E+00 -0.31156075190E+01  0.63459533650E+01  0.00000000000E+00 0. -1.
</event>
<event>
 7    1  0.5849044E-013  0.5052886E+02  0.7816164E-02  0.1300439E+00
        -11   -1    0    0    0    0  0.00000000000E+00  0.00000000000E+00  0.45593999997E+02  0.45594000000E+02  0.51100000000E-03 0. -1.
         11   -1    0    0    0    0 -0.00000000000E+00 -0.00000000000E+00 -0.45593999997E+02  0.45594000000E+02  0.51100000000E-03 0.  1.
    9900012    2    1    2    0    0  0.96906115449E+01  0.37750739854E+02 -0.11581861971E+02  0.50528857875E+02  0.29999993996E+02 0.  0.
         12    1    1    2    0    0 -0.96906115449E+01 -0.37750739854E+02  0.11581861971E+02  0.40659142125E+02  0.00000000000E+00 0. -1.
         11    1    3    3    0    0  0.37201097406E+01  0.24421464301E+01 -0.52253258141E+00  0.44806624764E+01  0.51100000000E-03 0. -1.
        -11    1    3    3    0    0  0.76824719655E+01  0.38811904680E+02 -0.65781182210E+01  0.40108053555E+02  0.51100000000E-03 0.  1.
        -12    1    3    3    0    0 -0.17119701613E+01 -0.35033112555E+01 -0.44812111686E+01  0.59401418437E+01  0.00000000000E+00 0.  1.
</event>
<event>
 7    1  0.5849044E-013  0.5052885E+02  0.7816164E-02  0.1300439E+00
        -11   -1    0    0    0    0  0.00000000000E+00  0.00000000000E+00  0.45593999997E+02  0.45594000000E+02  0.51100000000E-03 0.  1.
         11   -1    0    0    0    0 -0.00000000000E+00 -0.00000000000E+00 -0.45593999997E+02  0.45594000000E+02  0.51100000000E-03 0. -1.
    9900012    2    1    2    0    0  0.24056900785E+02 -0.17730589693E+02  0.27569152733E+02  0.50528850124E+02  0.29999970436E+02 0.  0.
         12    1    1    2    0    0 -0.24056900785E+02  0.17730589693E+02 -0.27569152733E+02  0.40659149876E+02  0.00000000000E+00 0. -1.
         11    1    3    3    0    0  0.47026217576E+01 -0.60816015882E+01  0.56097383908E+00  0.77081269568E+01  0.51100000000E-03 0. -1.
        -11    1    3    3    0    0  0.36510936137E+01 -0.12326746756E+02  0.23392398423E+02  0.26692386076E+02  0.51100000000E-03 0.  1.
        -12    1    3    3    0    0  0.15703185413E+02  0.67775865094E+00  0.36157804705E+01  0.16128337091E+02  0.00000000000E+00 0.  1.
</event>
<event>
 7    1  0.5849044E-013  0.5052886E+02  0.7816164E-02  0.1300439E+00
        -11   -1    0    0    0    0  0.00000000000E+00  0.00000000000E+00  0.45593999997E+02  0.45594000000E+02  0.51100000000E-03 0. -1.
         11   -1    0    0    0    0 -0.00000000000E+00 -0.00000000000E+00 -0.45593999997E+02  0.45594000000E+02  0.51100000000E-03 0.  1.
    9900012    2    1    2    0    0 -0.32658873997E+02  0.23810005277E+02  0.44324895121E+01  0.50528863692E+02  0.30000011679E+02 0.  0.
         12    1    1    2    0    0  0.32658873997E+02 -0.23810005277E+02 -0.44324895121E+01  0.40659136308E+02  0.00000000000E+00 0. -1.
         11    1    3    3    0    0 -0.32119081122E+02  0.11263248847E+02  0.80953929310E+01  0.34986162032E+02  0.51100000000E-03 0. -1.
        -11    1    3    3    0    0 -0.43593590452E+01  0.52977598302E+01 -0.23023792846E+01  0.72367963308E+01  0.51100000000E-03 0.  1.
         12    1    3    3    0    0  0.38195661704E+01  0.72489965992E+01 -0.13605241343E+01  0.83059053297E+01  0.00000000000E+00 0. -1.
</event>
<event>
 7    1  0.5849044E-013  0.5052886E+02  0.7816164E-02  0.1300439E+00
        -11   -1    0    0    0    0  0.00000000000E+00  0.00000000000E+00  0.45593999997E+02  0.45594000000E+02  0.51100000000E-03 0.  1.
         11   -1    0    0    0    0 -0.00000000000E+00 -0.00000000000E+00 -0.45593999997E+02  0.45594000000E+02  0.51100000000E-03 0. -1.
    9900012    2    1    2    0    0 -0.34220745909E+02 -0.16687174258E+02  0.14270412712E+02  0.50528856942E+02  0.29999991160E+02 0.  0.
         12    1    1    2    0    0  0.34220745909E+02  0.16687174258E+02 -0.14270412712E+02  0.40659143058E+02  0.00000000000E+00 0. -1.
         11    1    3    3    0    0 -0.27813389145E+02 -0.23605464715E+01  0.46020838014E+01  0.28290209807E+02  0.51100000000E-03 0. -1.
        -11    1    3    3    0    0  0.35422338162E+01 -0.20279543420E+01  0.10097434169E+01  0.42047117916E+01  0.51100000000E-03 0.  1.
         12    1    3    3    0    0 -0.99495905802E+01 -0.12298673444E+02  0.86585854938E+01  0.18033935343E+02  0.00000000000E+00 0. -1.
</event>
<event>
 7    1  0.5849044E-013  0.5052885E+02  0.7816164E-02  0.1300439E+00
        -11   -1    0    0    0    0  0.00000000000E+00  0.00000000000E+00  0.45593999997E+02  0.45594000000E+02  0.51100000000E-03 0.  1.
         11   -1    0    0    0    0 -0.00000000000E+00 -0.00000000000E+00 -0.45593999997E+02  0.45594000000E+02  0.51100000000E-03 0. -1.
    9900012    2    1    2    0    0  0.16771773416E+02 -0.17222013705E+02  0.32791411440E+02  0.50528846003E+02  0.29999957910E+02 0.  0.
         12    1    1    2    0    0 -0.16771773416E+02  0.17222013705E+02 -0.32791411440E+02  0.40659153997E+02  0.00000000000E+00 0. -1.
         11    1    3    3    0    0  0.30066870909E+01  0.22496659557E+01 -0.25216029357E+01  0.45232339981E+01  0.51100000000E-03 0. -1.
        -11    1    3    3    0    0  0.50461690309E+01 -0.10984814496E+02  0.30697962339E+02  0.32992345528E+02  0.51100000000E-03 0.  1.
         12    1    3    3    0    0  0.87189172942E+01 -0.84868651644E+01  0.46150520366E+01  0.13013266477E+02  0.00000000000E+00 0. -1.
</event>
<event>
 7    1  0.5849044E-013  0.5052885E+02  0.7816164E-02  0.1300439E+00
        -11   -1    0    0    0    0  0.00000000000E+00  0.00000000000E+00  0.45593999997E+02  0.45594000000E+02  0.51100000000E-03 0. -1.
         11   -1    0    0    0    0 -0.00000000000E+00 -0.00000000000E+00 -0.45593999997E+02  0.45594000000E+02  0.51100000000E-03 0.  1.
    9900012    2    1    2    0    0 -0.17946162829E+02  0.95891751534E+01 -0.35201550493E+02  0.50528853458E+02  0.29999980572E+02 0.  0.
         12    1    1    2    0    0  0.17946162829E+02 -0.95891751534E+01  0.35201550493E+02  0.40659146542E+02  0.00000000000E+00 0. -1.
         11    1    3    3    0    0 -0.40103890824E+01  0.70074355759E+01 -0.31077063915E+02  0.32108741423E+02  0.51100000000E-03 0. -1.
        -11    1    3    3    0    0 -0.11887040660E+02  0.63395927936E+00  0.16239582663E+01  0.12014194968E+02  0.51100000000E-03 0.  1.
        -12    1    3    3    0    0 -0.20487330865E+01  0.19477802982E+01 -0.57484448443E+01  0.64059170676E+01  0.00000000000E+00 0.  1.
</event>
<event>
 7    1  0.5849044E-013  0.5052887E+02  0.7816164E-02  0.1300439E+00
        -11   -1    0    0    0    0  0.00000000000E+00  0.00000000000E+00  0.45593999997E+02  0.45594000000E+02  0.51100000000E-03 0. -1.
         11   -1    0    0    0    0 -0.00000000000E+00 -0.00000000000E+00 -0.45593999997E+02  0.45594000000E+02  0.51100000000E-03 0.  1.
    9900012    2    1    2    0    0  0.26193288002E+02 -0.10054822942E+02 -0.29427493208E+02  0.50528866250E+02  0.30000019454E+02 0.  0.
         12    1    1    2    0    0 -0.26193288002E+02  0.10054822942E+02  0.29427493208E+02  0.40659133750E+02  0.00000000000E+00 0. -1.
         11    1    3    3    0    0 -0.42054689121E+01 -0.29888503957E+01 -0.36287361384E+01  0.63076875067E+01  0.51100000000E-03 0. -1.
        -11    1    3    3    0    0  0.29235179120E+02 -0.63893183083E+00 -0.22545531924E+02  0.36924313698E+02  0.51100000000E-03 0.  1.
        -12    1    3    3    0    0  0.11635777940E+01 -0.64270407155E+01 -0.32532251453E+01  0.72968650452E+01  0.00000000000E+00 0.  1.
</event>
<event>
 7    1  0.5849044E-013  0.5052886E+02  0.7816164E-02  0.1300439E+00
        -11   -1    0    0    0    0  0.00000000000E+00  0.00000000000E+00  0.45593999997E+02  0.45594000000E+02  0.51100000000E-03 0.  1.
         11   -1    0    0    0    0 -0.00000000000E+00 -0.00000000000E+00 -0.45593999997E+02  0.45594000000E+02  0.51100000000E-03 0. -1.
    9900012    2    1    2    0    0 -0.13353647180E+02 -0.14764048456E+02  0.35452344780E+02  0.50528858713E+02  0.29999996543E+02 0.  0.
         12    1    1    2    0    0  0.13353647180E+02  0.14764048456E+02 -0.35452344780E+02  0.40659141287E+02  0.00000000000E+00 0. -1.
         11    1    3    3    0    0 -0.60907800433E+01  0.27801012559E+01 -0.84506966822E+00  0.67483855502E+01  0.51100000000E-03 0. -1.
        -11    1    3    3    0    0 -0.36526973032E+01 -0.54593006869E+01  0.27816901939E+02  0.28581920777E+02  0.51100000000E-03 0.  1.
        -12    1    3    3    0    0 -0.36101698337E+01 -0.12084849025E+02  0.84805125095E+01  0.15198552385E+02  0.00000000000E+00 0.  1.
</event>
<event>
 7    1  0.5849044E-013  0.5052886E+02  0.7816164E-02  0.1300439E+00
        -11   -1    0    0    0    0  0.00000000000E+00  0.00000000000E+00  0.45593999997E+02  0.45594000000E+02  0.51100000000E-03 0.  1.
         11   -1    0    0    0    0 -0.00000000000E+00 -0.00000000000E+00 -0.45593999997E+02  0.45594000000E+02  0.51100000000E-03 0. -1.
    9900012    2    1    2    0    0  0.12590483135E+02 -0.26615966925E+02  0.28039890156E+02  0.50528863255E+02  0.30000010349E+02 0.  0.
         12    1    1    2    0    0 -0.12590483135E+02  0.26615966925E+02 -0.28039890156E+02  0.40659136745E+02  0.00000000000E+00 0. -1.
         11    1    3    3    0    0  0.22918839628E+01 -0.86053504916E+01 -0.35897364228E+01  0.96016142928E+01  0.51100000000E-03 0. -1.
        -11    1    3    3    0    0  0.33743485018E+01 -0.14701009025E+02  0.29219932747E+02  0.32883283963E+02  0.51100000000E-03 0.  1.
        -12    1    3    3    0    0  0.69242506702E+01 -0.33096074081E+01  0.24096938317E+01  0.80439649988E+01  0.00000000000E+00 0.  1.
</event>
<event>
 7    1  0.5849044E-013  0.5052886E+02  0.7816164E-02  0.1300439E+00
        -11   -1    0    0    0    0  0.00000000000E+00  0.00000000000E+00  0.45593999997E+02  0.45594000000E+02  0.51100000000E-03 0. -1.
         11   -1    0    0    0    0 -0.00000000000E+00 -0.00000000000E+00 -0.45593999997E+02  0.45594000000E+02  0.51100000000E-03 0.  1.
    9900012    2    1    2    0    0 -0.10398800700E+02  0.12462956934E+02 -0.37278755187E+02  0.50528856627E+02  0.29999990204E+02 0.  0.
         12    1    1    2    0    0  0.10398800700E+02 -0.12462956934E+02  0.37278755187E+02  0.40659143373E+02  0.00000000000E+00 0. -1.
         11    1    3    3    0    0 -0.43541121958E+01  0.49017482248E+00 -0.21955838880E+01  0.49009339152E+01  0.51100000000E-03 0. -1.
        -11    1    3    3    0    0 -0.20114914545E+01  0.18424640006E+02 -0.14040439052E+02  0.23251825439E+02  0.51100000000E-03 0.  1.
        -12    1    3    3    0    0 -0.40331970495E+01 -0.64518578950E+01 -0.21042732247E+02  0.22376097273E+02  0.00000000000E+00 0.  1.
</event>
<event>
 7    1  0.5849044E-013  0.5052878E+02  0.7816164E-02  0.1300439E+00
        -11   -1    0    0    0    0  0.00000000000E+00  0.00000000000E+00  0.45593999997E+02  0.45594000000E+02  0.51100000000E-03 0.  1.
         11   -1    0    0    0    0 -0.00000000000E+00 -0.00000000000E+00 -0.45593999997E+02  0.45594000000E+02  0.51100000000E-03 0. -1.
    9900012    2    1    2    0    0  0.77357520466E+01 -0.38902099655E+02  0.89418814611E+01  0.50528776430E+02  0.29999746434E+02 0.  0.
         12    1    1    2    0    0 -0.77357520466E+01  0.38902099655E+02 -0.89418814611E+01  0.40659223570E+02  0.00000000000E+00 0. -1.
         11    1    3    3    0    0  0.48712586282E+01 -0.97154625485E+01 -0.54445774517E+01  0.12155772170E+02  0.51100000000E-03 0. -1.
        -11    1    3    3    0    0 -0.75068861218E+01 -0.44037553569E+01  0.38070710953E+01  0.94994837268E+01  0.51100000000E-03 0.  1.
        -12    1    3    3    0    0  0.10371379540E+02 -0.24782881749E+02  0.10579387817E+02  0.28873520533E+02  0.00000000000E+00 0.  1.
</event>
<event>
 7    1  0.5849044E-013  0.5052886E+02  0.7816164E-02  0.1300439E+00
        -11   -1    0    0    0    0  0.00000000000E+00  0.00000000000E+00  0.45593999997E+02  0.45594000000E+02  0.51100000000E-03 0. -1.
         11   -1    0    0    0    0 -0.00000000000E+00 -0.00000000000E+00 -0.45593999997E+02  0.45594000000E+02  0.51100000000E-03 0.  1.
    9900012    2    1    2    0    0 -0.70346797903E+01  0.20657922356E+02 -0.34306398587E+02  0.50528862530E+02  0.30000008146E+02 0.  0.
         12    1    1    2    0    0  0.70346797903E+01 -0.20657922356E+02  0.34306398587E+02  0.40659137470E+02  0.00000000000E+00 0. -1.
         11    1    3    3    0    0  0.92541371897E+01  0.36995423402E+01 -0.11923752758E+02  0.15540320098E+02  0.51100000000E-03 0. -1.
        -11    1    3    3    0    0 -0.14322661540E+02  0.19171045629E+02 -0.19778054459E+02  0.31045757561E+02  0.51100000000E-03 0.  1.
         12    1    3    3    0    0 -0.19661554396E+01 -0.22126656138E+01 -0.26045913707E+01  0.39427848711E+01  0.00000000000E+00 0. -1.
</event>
<event>
 7    1  0.5849044E-013  0.5052886E+02  0.7816164E-02  0.1300439E+00
        -11   -1    0    0    0    0  0.00000000000E+00  0.00000000000E+00  0.45593999997E+02  0.45594000000E+02  0.51100000000E-03 0.  1.
         11   -1    0    0    0    0 -0.00000000000E+00 -0.00000000000E+00 -0.45593999997E+02  0.45594000000E+02  0.51100000000E-03 0. -1.
    9900012    2    1    2    0    0  0.15588735975E+02  0.35396673932E+02 -0.12539239358E+02  0.50528859104E+02  0.29999997731E+02 0.  0.
         12    1    1    2    0    0 -0.15588735975E+02 -0.35396673932E+02  0.12539239358E+02  0.40659140896E+02  0.00000000000E+00 0. -1.
         11    1    3    3    0    0  0.53401520398E+01  0.75515708428E+01  0.74491126905E+01  0.11875720026E+02  0.51100000000E-03 0. -1.
        -11    1    3    3    0    0  0.12759183477E+02  0.22350315195E+02 -0.11387498811E+02  0.28142645252E+02  0.51100000000E-03 0.  1.
         12    1    3    3    0    0 -0.25105995412E+01  0.54947878940E+01 -0.86008532370E+01  0.10510493826E+02  0.00000000000E+00 0. -1.
</event>
<event>
 7    1  0.5849044E-013  0.5052886E+02  0.7816164E-02  0.1300439E+00
        -11   -1    0    0    0    0  0.00000000000E+00  0.00000000000E+00  0.45593999997E+02  0.45594000000E+02  0.51100000000E-03 0.  1.
         11   -1    0    0    0    0 -0.00000000000E+00 -0.00000000000E+00 -0.45593999997E+02  0.45594000000E+02  0.51100000000E-03 0. -1.
    9900012    2    1    2    0    0  0.38388722805E+02 -0.83433345869E+01 -0.10481437543E+02  0.50528858302E+02  0.29999995294E+02 0.  0.
         12    1    1    2    0    0 -0.38388722805E+02  0.83433345869E+01  0.10481437543E+02  0.40659141698E+02  0.00000000000E+00 0. -1.
         11    1    3    3    0    0  0.16966666404E+02 -0.15481155716E+02 -0.54075927073E+00  0.22974472182E+02  0.51100000000E-03 0. -1.
        -11    1    3    3    0    0  0.21179777503E+02  0.42704905102E+01 -0.55545508588E+01  0.22308588027E+02  0.51100000000E-03 0.  1.
         12    1    3    3    0    0  0.24227889861E+00  0.28673306189E+01 -0.43861274140E+01  0.52457980932E+01  0.00000000000E+00 0. -1.
</event>
<event>
 7    1  0.5849044E-013  0.5052887E+02  0.7816164E-02  0.1300439E+00
        -11   -1    0    0    0    0  0.00000000000E+00  0.00000000000E+00  0.45593999997E+02  0.45594000000E+02  0.51100000000E-03 0.  1.
         11   -1    0    0    0    0 -0.00000000000E+00 -0.00000000000E+00 -0.45593999997E+02  0.45594000000E+02  0.51100000000E-03 0. -1.
    9900012    2    1    2    0    0  0.34704405988E+02 -0.18110724703E+02  0.10989570118E+02  0.50528870698E+02  0.30000032973E+02 0.  0.
         12    1    1    2    0    0 -0.34704405988E+02  0.18110724703E+02 -0.10989570118E+02  0.40659129302E+02  0.00000000000E+00 0. -1.
         11    1    3    3    0    0  0.12114240344E+01  0.13701677164E+01  0.25538299445E+01  0.31411710250E+01  0.51100000000E-03 0. -1.
        -11    1    3    3    0    0  0.14386125173E+02 -0.12778638318E+02 -0.84566494494E+01  0.21018304283E+02  0.51100000000E-03 0.  1.
        -12    1    3    3    0    0  0.19106856780E+02 -0.67022541019E+01  0.16892389623E+02  0.26369395390E+02  0.00000000000E+00 0.  1.
</event>
<event>
 7    1  0.5849044E-013  0.5052884E+02  0.7816164E-02  0.1300439E+00
        -11   -1    0    0    0    0  0.00000000000E+00  0.00000000000E+00  0.45593999997E+02  0.45594000000E+02  0.51100000000E-03 0.  1.
         11   -1    0    0    0    0 -0.00000000000E+00 -0.00000000000E+00 -0.45593999997E+02  0.45594000000E+02  0.51100000000E-03 0. -1.
    9900012    2    1    2    0    0 -0.27121056921E+02  0.11924243394E+02  0.27846509820E+02  0.50528838447E+02  0.29999934944E+02 0.  0.
         12    1    1    2    0    0  0.27121056921E+02 -0.11924243394E+02 -0.27846509820E+02  0.40659161553E+02  0.00000000000E+00 0. -1.
         11    1    3    3    0    0 -0.10563050801E+02 -0.72579147128E+01  0.98068183082E+01  0.16137814406E+02  0.51100000000E-03 0. -1.
        -11    1    3    3    0    0 -0.13013581499E+02  0.74131882293E+01  0.35528084227E+01  0.15392566748E+02  0.51100000000E-03 0.  1.
         12    1    3    3    0    0 -0.35444246209E+01  0.11768969878E+02  0.14486883089E+02  0.18998457293E+02  0.00000000000E+00 0. -1.
</event>
<event>
 7    1  0.5849044E-013  0.5052887E+02  0.7816164E-02  0.1300439E+00
        -11   -1    0    0    0    0  0.00000000000E+00  0.00000000000E+00  0.45593999997E+02  0.45594000000E+02  0.51100000000E-03 0.  1.
         11   -1    0    0    0    0 -0.00000000000E+00 -0.00000000000E+00 -0.45593999997E+02  0.45594000000E+02  0.51100000000E-03 0. -1.
    9900012    2    1    2    0    0  0.32283232135E+02  0.25491766646E+01  0.24585765538E+02  0.50528865161E+02  0.30000016144E+02 0.  0.
         12    1    1    2    0    0 -0.32283232135E+02 -0.25491766646E+01 -0.24585765538E+02  0.40659134839E+02  0.00000000000E+00 0. -1.
         11    1    3    3    0    0  0.60469833149E+01 -0.37848109351E+01  0.66883063175E+01  0.97787648854E+01  0.51100000000E-03 0. -1.
        -11    1    3    3    0    0 -0.13679465664E+01  0.87827922573E+01  0.39794990492E+01  0.97388464711E+01  0.51100000000E-03 0.  1.
        -12    1    3    3    0    0  0.27604195387E+02 -0.24488046576E+01  0.13917960171E+02  0.31011253805E+02  0.00000000000E+00 0.  1.
</event>
<event>
 7    1  0.5849044E-013  0.5052885E+02  0.7816164E-02  0.1300439E+00
        -11   -1    0    0    0    0  0.00000000000E+00  0.00000000000E+00  0.45593999997E+02  0.45594000000E+02  0.51100000000E-03 0. -1.
         11   -1    0    0    0    0 -0.00000000000E+00 -0.00000000000E+00 -0.45593999997E+02  0.45594000000E+02  0.51100000000E-03 0.  1.
    9900012    2    1    2    0    0  0.27162214918E+02 -0.29238569069E+01 -0.30113644539E+02  0.50528850404E+02  0.29999971288E+02 0.  0.
         12    1    1    2    0    0 -0.27162214918E+02  0.29238569069E+01  0.30113644539E+02  0.40659149596E+02  0.00000000000E+00 0. -1.
         11    1    3    3    0    0  0.26229114596E+02 -0.56020900807E+01 -0.19732528676E+02  0.33297485701E+02  0.51100000000E-03 0. -1.
        -11    1    3    3    0    0 -0.24435516692E+01  0.54485136961E+01 -0.27123814033E-02  0.59713695142E+01  0.51100000000E-03 0.  1.
        -12    1    3    3    0    0  0.33766519907E+01 -0.27702805224E+01 -0.10378403481E+02  0.11259995189E+02  0.00000000000E+00 0.  1.
</event>
<event>
 7    1  0.5849044E-013  0.5052886E+02  0.7816164E-02  0.1300439E+00
        -11   -1    0    0    0    0  0.00000000000E+00  0.00000000000E+00  0.45593999997E+02  0.45594000000E+02  0.51100000000E-03 0.  1.
         11   -1    0    0    0    0 -0.00000000000E+00 -0.00000000000E+00 -0.45593999997E+02  0.45594000000E+02  0.51100000000E-03 0. -1.
    9900012    2    1    2    0    0  0.34062646803E+02 -0.11302889755E+00  0.22201094967E+02  0.50528864489E+02  0.30000014101E+02 0.  0.
         12    1    1    2    0    0 -0.34062646803E+02  0.11302889755E+00 -0.22201094967E+02  0.40659135511E+02  0.00000000000E+00 0. -1.
         11    1    3    3    0    0  0.61716718850E+01  0.11601060560E+02  0.90131768810E+01  0.15934600645E+02  0.51100000000E-03 0. -1.
        -11    1    3    3    0    0  0.24039420307E+02 -0.10372314501E+02  0.14952245080E+02  0.30150427361E+02  0.51100000000E-03 0.  1.
        -12    1    3    3    0    0  0.38515546105E+01 -0.13417749558E+01 -0.17643269939E+01  0.44438364834E+01  0.00000000000E+00 0.  1.
</event>
<event>
 7    1  0.5849044E-013  0.5052886E+02  0.7816164E-02  0.1300439E+00
        -11   -1    0    0    0    0  0.00000000000E+00  0.00000000000E+00  0.45593999997E+02  0.45594000000E+02  0.51100000000E-03 0.  1.
         11   -1    0    0    0    0 -0.00000000000E+00 -0.00000000000E+00 -0.45593999997E+02  0.45594000000E+02  0.51100000000E-03 0. -1.
    9900012    2    1    2    0    0 -0.27475855501E+02 -0.92807915911E+01  0.28497545421E+02  0.50528858062E+02  0.29999994567E+02 0.  0.
         12    1    1    2    0    0  0.27475855501E+02  0.92807915911E+01 -0.28497545421E+02  0.40659141938E+02  0.00000000000E+00 0. -1.
         11    1    3    3    0    0  0.60300210304E+00 -0.10607844655E+02  0.11746508975E+01  0.10689704615E+02  0.51100000000E-03 0. -1.
        -11    1    3    3    0    0 -0.21101319649E+02  0.33136811328E+00  0.24258622877E+02  0.32153635563E+02  0.51100000000E-03 0.  1.
         12    1    3    3    0    0 -0.69775379546E+01  0.99568495054E+00  0.30642716466E+01  0.76855178844E+01  0.00000000000E+00 0. -1.
</event>
<event>
 7    1  0.5849044E-013  0.5052886E+02  0.7816164E-02  0.1300439E+00
        -11   -1    0    0    0    0  0.00000000000E+00  0.00000000000E+00  0.45593999997E+02  0.45594000000E+02  0.51100000000E-03 0.  1.
         11   -1    0    0    0    0 -0.00000000000E+00 -0.00000000000E+00 -0.45593999997E+02  0.45594000000E+02  0.51100000000E-03 0. -1.
    9900012    2    1    2    0    0  0.60664021009E+01 -0.12204756884E+02  0.38306769316E+02  0.50528857111E+02  0.29999991674E+02 0.  0.
         12    1    1    2    0    0 -0.60664021009E+01  0.12204756884E+02 -0.38306769316E+02  0.40659142889E+02  0.00000000000E+00 0. -1.
         11    1    3    3    0    0 -0.81781735012E+00  0.38205923482E+01  0.26646406528E+01  0.47292770250E+01  0.51100000000E-03 0. -1.
        -11    1    3    3    0    0  0.84529877916E+01 -0.13457683352E+02  0.38499156081E+02  0.41650297274E+02  0.51100000000E-03 0.  1.
        -12    1    3    3    0    0 -0.15687683406E+01 -0.25676658809E+01 -0.28570274182E+01  0.41492828116E+01  0.00000000000E+00 0.  1.
</event>
<event>
 7    1  0.5849044E-013  0.5052887E+02  0.7816164E-02  0.1300439E+00
        -11   -1    0    0    0    0  0.00000000000E+00  0.00000000000E+00  0.45593999997E+02  0.45594000000E+02  0.51100000000E-03 0. -1.
         11   -1    0    0    0    0 -0.00000000000E+00 -0.00000000000E+00 -0.45593999997E+02  0.45594000000E+02  0.51100000000E-03 0.  1.
    9900012    2    1    2    0    0  0.62839705947E+00 -0.34431285846E+02 -0.21616114172E+02  0.50528871630E+02  0.30000035808E+02 0.  0.
         12    1    1    2    0    0 -0.62839705947E+00  0.34431285846E+02  0.21616114172E+02  0.40659128370E+02  0.00000000000E+00 0. -1.
         11    1    3    3    0    0  0.19438558657E+01  0.41259224001E-02 -0.78178099248E+01  0.80558515956E+01  0.51100000000E-03 0. -1.
        -11    1    3    3    0    0 -0.57907526901E+01 -0.29693676180E+02 -0.37359072170E+01  0.30482851323E+02  0.51100000000E-03 0.  1.
        -12    1    3    3    0    0  0.44752938839E+01 -0.47417355889E+01 -0.10062397030E+02  0.11990168712E+02  0.00000000000E+00 0.  1.
</event>
<event>
 7    1  0.5849044E-013  0.5052885E+02  0.7816164E-02  0.1300439E+00
        -11   -1    0    0    0    0  0.00000000000E+00  0.00000000000E+00  0.45593999997E+02  0.45594000000E+02  0.51100000000E-03 0.  1.
         11   -1    0    0    0    0 -0.00000000000E+00 -0.00000000000E+00 -0.45593999997E+02  0.45594000000E+02  0.51100000000E-03 0. -1.
    9900012    2    1    2    0    0  0.60266524702E+01 -0.39248318362E+02 -0.87415905186E+01  0.50528850488E+02  0.29999971542E+02 0.  0.
         12    1    1    2    0    0 -0.60266524702E+01  0.39248318362E+02  0.87415905186E+01  0.40659149512E+02  0.00000000000E+00 0. -1.
         11    1    3    3    0    0  0.11721359048E+02 -0.54518989000E+01 -0.33283541006E+01  0.13348835186E+02  0.51100000000E-03 0. -1.
        -11    1    3    3    0    0 -0.45307203911E+01 -0.34759722507E+02 -0.43283676551E+01  0.35319973144E+02  0.51100000000E-03 0.  1.
         12    1    3    3    0    0 -0.11639861863E+01  0.96330304474E+00 -0.10848687630E+01  0.18600421583E+01  0.00000000000E+00 0. -1.
</event>
<event>
 7    1  0.5849044E-013  0.5052886E+02  0.7816164E-02  0.1300439E+00
        -11   -1    0    0    0    0  0.00000000000E+00  0.00000000000E+00  0.45593999997E+02  0.45594000000E+02  0.51100000000E-03 0.  1.
         11   -1    0    0    0    0 -0.00000000000E+00 -0.00000000000E+00 -0.45593999997E+02  0.45594000000E+02  0.51100000000E-03 0. -1.
    9900012    2    1    2    0    0  0.21056972324E+02  0.33711367141E+02  0.85623330385E+01  0.50528857054E+02  0.29999991502E+02 0.  0.
         12    1    1    2    0    0 -0.21056972324E+02 -0.33711367141E+02 -0.85623330385E+01  0.40659142946E+02  0.00000000000E+00 0. -1.
         11    1    3    3    0    0 -0.57574031652E+01  0.33349668931E+01 -0.26964493101E+01  0.71791736661E+01  0.51100000000E-03 0. -1.
        -11    1    3    3    0    0  0.61611450293E+01  0.14638096671E+02  0.48158651679E+01  0.16595967577E+02  0.51100000000E-03 0.  1.
         12    1    3    3    0    0  0.20653230460E+02  0.15738303577E+02  0.64429171807E+01  0.26753715812E+02  0.00000000000E+00 0. -1.
</event>
<event>
 7    1  0.5849044E-013  0.5052886E+02  0.7816164E-02  0.1300439E+00
        -11   -1    0    0    0    0  0.00000000000E+00  0.00000000000E+00  0.45593999997E+02  0.45594000000E+02  0.51100000000E-03 0.  1.
         11   -1    0    0    0    0 -0.00000000000E+00 -0.00000000000E+00 -0.45593999997E+02  0.45594000000E+02  0.51100000000E-03 0. -1.
    9900012    2    1    2    0    0  0.36126303404E+02 -0.49805728415E+01 -0.17979137724E+02  0.50528864535E+02  0.30000014242E+02 0.  0.
         12    1    1    2    0    0 -0.36126303404E+02  0.49805728415E+01  0.17979137724E+02  0.40659135465E+02  0.00000000000E+00 0. -1.
         11    1    3    3    0    0 -0.25559570844E+01 -0.29897582823E+01 -0.41596727196E+01  0.57248972567E+01  0.51100000000E-03 0. -1.
        -11    1    3    3    0    0  0.27204419325E+02  0.59750609640E+01 -0.50455789689E+01  0.28306176918E+02  0.51100000000E-03 0.  1.
        -12    1    3    3    0    0  0.11477841163E+02 -0.79658755232E+01 -0.87738860354E+01  0.16497790360E+02  0.00000000000E+00 0.  1.
</event>
<event>
 7    1  0.5849044E-013  0.5052899E+02  0.7816164E-02  0.1300438E+00
        -11   -1    0    0    0    0  0.00000000000E+00  0.00000000000E+00  0.45593999997E+02  0.45594000000E+02  0.51100000000E-03 0.  1.
         11   -1    0    0    0    0 -0.00000000000E+00 -0.00000000000E+00 -0.45593999997E+02  0.45594000000E+02  0.51100000000E-03 0. -1.
    9900012    2    1    2    0    0  0.19120231355E+02  0.21467269875E+02  0.28752880322E+02  0.50528990546E+02  0.30000397262E+02 0.  0.
         12    1    1    2    0    0 -0.19120231355E+02 -0.21467269875E+02 -0.28752880322E+02  0.40659009454E+02  0.00000000000E+00 0. -1.
         11    1    3    3    0    0  0.47099891702E+01  0.30055384577E+01 -0.10597836808E+01  0.56868621502E+01  0.51100000000E-03 0. -1.
        -11    1    3    3    0    0  0.79204387285E+01  0.31550320138E+00  0.23120282614E+02  0.24441365762E+02  0.51100000000E-03 0.  1.
        -12    1    3    3    0    0  0.64898034567E+01  0.18146228216E+02  0.66923813884E+01  0.20400762634E+02  0.00000000000E+00 0.  1.
</event>
<event>
 7    1  0.5849044E-013  0.5052887E+02  0.7816164E-02  0.1300439E+00
        -11   -1    0    0    0    0  0.00000000000E+00  0.00000000000E+00  0.45593999997E+02  0.45594000000E+02  0.51100000000E-03 0. -1.
         11   -1    0    0    0    0 -0.00000000000E+00 -0.00000000000E+00 -0.45593999997E+02  0.45594000000E+02  0.51100000000E-03 0.  1.
    9900012    2    1    2    0    0  0.10305745446E+02  0.38489659126E+02 -0.80933572035E+01  0.50528872124E+02  0.30000037307E+02 0.  0.
         12    1    1    2    0    0 -0.10305745446E+02 -0.38489659126E+02  0.80933572035E+01  0.40659127876E+02  0.00000000000E+00 0. -1.
         11    1    3    3    0    0 -0.53018839209E+01  0.24224434128E+01  0.85069222223E+00  0.58908303928E+01  0.51100000000E-03 0. -1.
        -11    1    3    3    0    0  0.12371399844E+02  0.37339998774E+02 -0.54560380657E+01  0.39712660376E+02  0.51100000000E-03 0.  1.
        -12    1    3    3    0    0  0.32362295229E+01 -0.12727830604E+01 -0.34880113600E+01  0.49253813549E+01  0.00000000000E+00 0.  1.
</event>
<event>
 7    1  0.5849044E-013  0.5052882E+02  0.7816164E-02  0.1300439E+00
        -11   -1    0    0    0    0  0.00000000000E+00  0.00000000000E+00  0.45593999997E+02  0.45594000000E+02  0.51100000000E-03 0.  1.
         11   -1    0    0    0    0 -0.00000000000E+00 -0.00000000000E+00 -0.45593999997E+02  0.45594000000E+02  0.51100000000E-03 0. -1.
    9900012    2    1    2    0    0 -0.39850824267E+02  0.20828253996E+00  0.80645678466E+01  0.50528821074E+02  0.29999882137E+02 0.  0.
         12    1    1    2    0    0  0.39850824267E+02 -0.20828253996E+00 -0.80645678466E+01  0.40659178926E+02  0.00000000000E+00 0. -1.
         11    1    3    3    0    0 -0.28419312283E+01 -0.13047990285E+00 -0.54238546246E+01  0.61246875318E+01  0.51100000000E-03 0. -1.
        -11    1    3    3    0    0 -0.24688724342E+02 -0.95719156657E+01  0.78733846830E+01  0.27625076756E+02  0.51100000000E-03 0.  1.
        -12    1    3    3    0    0 -0.12320168696E+02  0.99106781085E+01  0.56150377882E+01  0.16779056786E+02  0.00000000000E+00 0.  1.
</event>
<event>
 7    1  0.5849044E-013  0.5052894E+02  0.7816164E-02  0.1300439E+00
        -11   -1    0    0    0    0  0.00000000000E+00  0.00000000000E+00  0.45593999997E+02  0.45594000000E+02  0.51100000000E-03 0. -1.
         11   -1    0    0    0    0 -0.00000000000E+00 -0.00000000000E+00 -0.45593999997E+02  0.45594000000E+02  0.51100000000E-03 0.  1.
    9900012    2    1    2    0    0 -0.18029940676E+02 -0.30193155142E+02  0.20407195966E+02  0.50528941656E+02  0.30000248657E+02 0.  0.
         12    1    1    2    0    0  0.18029940676E+02  0.30193155142E+02 -0.20407195966E+02  0.40659058344E+02  0.00000000000E+00 0. -1.
         11    1    3    3    0    0 -0.76574952716E+01 -0.28382512511E+02  0.66642199948E+01  0.30143259257E+02  0.51100000000E-03 0. -1.
        -11    1    3    3    0    0 -0.94636632694E+01 -0.17281810029E+01  0.37091491168E+01  0.10310447104E+02  0.51100000000E-03 0.  1.
         12    1    3    3    0    0 -0.90878213453E+00 -0.82461628723E-01  0.10033826855E+02  0.10075235294E+02  0.00000000000E+00 0. -1.
</event>
<event>
 7    1  0.5849044E-013  0.5052877E+02  0.7816164E-02  0.1300439E+00
        -11   -1    0    0    0    0  0.00000000000E+00  0.00000000000E+00  0.45593999997E+02  0.45594000000E+02  0.51100000000E-03 0. -1.
         11   -1    0    0    0    0 -0.00000000000E+00 -0.00000000000E+00 -0.45593999997E+02  0.45594000000E+02  0.51100000000E-03 0.  1.
    9900012    2    1    2    0    0 -0.13157563661E+02 -0.32088778491E+02 -0.21221738309E+02  0.50528765337E+02  0.29999712717E+02 0.  0.
         12    1    1    2    0    0  0.13157563661E+02  0.32088778491E+02  0.21221738309E+02  0.40659234663E+02  0.00000000000E+00 0. -1.
         11    1    3    3    0    0  0.68044548799E+01 -0.61669512097E+01  0.72181455549E+00  0.92115639253E+01  0.51100000000E-03 0. -1.
        -11    1    3    3    0    0 -0.97029919870E+01 -0.88757509709E+01 -0.22834899625E+01  0.13346959784E+02  0.51100000000E-03 0.  1.
         12    1    3    3    0    0 -0.10259026554E+02 -0.17046076310E+02 -0.19660062903E+02  0.27970241628E+02  0.00000000000E+00 0. -1.
</event>
<event>
 7    1  0.5849044E-013  0.5052886E+02  0.7816164E-02  0.1300439E+00
        -11   -1    0    0    0    0  0.00000000000E+00  0.00000000000E+00  0.45593999997E+02  0.45594000000E+02  0.51100000000E-03 0.  1.
         11   -1    0    0    0    0 -0.00000000000E+00 -0.00000000000E+00 -0.45593999997E+02  0.45594000000E+02  0.51100000000E-03 0. -1.
    9900012    2    1    2    0    0 -0.25194244990E+02 -0.21510815772E+02  0.23573299500E+02  0.50528860497E+02  0.30000001968E+02 0.  0.
         12    1    1    2    0    0  0.25194244990E+02  0.21510815772E+02 -0.23573299500E+02  0.40659139503E+02  0.00000000000E+00 0. -1.
         11    1    3    3    0    0 -0.28749509711E+01 -0.32598635837E+00  0.15793318905E+02  0.16056168051E+02  0.51100000000E-03 0.  1.
        -11    1    3    3    0    0 -0.17520801853E+02 -0.12211259151E+02 -0.48697527524E+00  0.21361893474E+02  0.51100000000E-03 0. -1.
         12    1    3    3    0    0 -0.47984921655E+01 -0.89735702627E+01  0.82669558708E+01  0.13110798972E+02  0.00000000000E+00 0. -1.
</event>
<event>
 7    1  0.5849044E-013  0.5052886E+02  0.7816164E-02  0.1300439E+00
        -11   -1    0    0    0    0  0.00000000000E+00  0.00000000000E+00  0.45593999997E+02  0.45594000000E+02  0.51100000000E-03 0.  1.
         11   -1    0    0    0    0 -0.00000000000E+00 -0.00000000000E+00 -0.45593999997E+02  0.45594000000E+02  0.51100000000E-03 0. -1.
    9900012    2    1    2    0    0 -0.22439587290E+02 -0.21774181503E+02  0.25990683909E+02  0.50528859479E+02  0.29999998873E+02 0.  0.
         12    1    1    2    0    0  0.22439587290E+02  0.21774181503E+02 -0.25990683909E+02  0.40659140521E+02  0.00000000000E+00 0. -1.
         11    1    3    3    0    0 -0.15421507946E+02 -0.32989326610E+01  0.20228123680E+02  0.25649227121E+02  0.51100000000E-03 0.  1.
        -11    1    3    3    0    0 -0.10989290599E+02 -0.15619243106E+02  0.32219932603E+01  0.19367666455E+02  0.51100000000E-03 0. -1.
         12    1    3    3    0    0  0.39712112551E+01 -0.28560057352E+01  0.25405669683E+01  0.55119659027E+01  0.00000000000E+00 0. -1.
</event>
<event>
 7    1  0.5849044E-013  0.5052885E+02  0.7816164E-02  0.1300439E+00
        -11   -1    0    0    0    0  0.00000000000E+00  0.00000000000E+00  0.45593999997E+02  0.45594000000E+02  0.51100000000E-03 0. -1.
         11   -1    0    0    0    0 -0.00000000000E+00 -0.00000000000E+00 -0.45593999997E+02  0.45594000000E+02  0.51100000000E-03 0.  1.
    9900012    2    1    2    0    0  0.26407536089E+02  0.15350401011E+02 -0.26836053959E+02  0.50528848932E+02  0.29999966813E+02 0.  0.
         12    1    1    2    0    0 -0.26407536089E+02 -0.15350401011E+02  0.26836053959E+02  0.40659151068E+02  0.00000000000E+00 0. -1.
         11    1    3    3    0    0  0.12121337687E+02  0.20488416532E+01 -0.19928324971E+01  0.12453752890E+02  0.51100000000E-03 0. -1.
        -11    1    3    3    0    0  0.12217933345E+02  0.14851422662E+02 -0.28016887467E+02  0.33982181123E+02  0.51100000000E-03 0.  1.
        -12    1    3    3    0    0  0.20682650582E+01 -0.15498633039E+01  0.31736660055E+01  0.40929149181E+01  0.00000000000E+00 0.  1.
</event>
<event>
 7    1  0.5849044E-013  0.5052886E+02  0.7816164E-02  0.1300439E+00
        -11   -1    0    0    0    0  0.00000000000E+00  0.00000000000E+00  0.45593999997E+02  0.45594000000E+02  0.51100000000E-03 0.  1.
         11   -1    0    0    0    0 -0.00000000000E+00 -0.00000000000E+00 -0.45593999997E+02  0.45594000000E+02  0.51100000000E-03 0. -1.
    9900012    2    1    2    0    0  0.14100348407E+02  0.30337365499E+02  0.23108227226E+02  0.50528859131E+02  0.29999997816E+02 0.  0.
         12    1    1    2    0    0 -0.14100348407E+02 -0.30337365499E+02 -0.23108227226E+02  0.40659140869E+02  0.00000000000E+00 0. -1.
         11    1    3    3    0    0 -0.35202163436E+00  0.18348810746E+01  0.15824628170E+02  0.15934539992E+02  0.51100000000E-03 0. -1.
        -11    1    3    3    0    0  0.14826498535E+02  0.28757456293E+02  0.55807608954E+01  0.32832320108E+02  0.51100000000E-03 0.  1.
        -12    1    3    3    0    0 -0.37412849343E+00 -0.25497186827E+00  0.17028381612E+01  0.17619990313E+01  0.00000000000E+00 0.  1.
</event>
<event>
 7    1  0.5849044E-013  0.5052886E+02  0.7816164E-02  0.1300439E+00
        -11   -1    0    0    0    0  0.00000000000E+00  0.00000000000E+00  0.45593999997E+02  0.45594000000E+02  0.51100000000E-03 0.  1.
         11   -1    0    0    0    0 -0.00000000000E+00 -0.00000000000E+00 -0.45593999997E+02  0.45594000000E+02  0.51100000000E-03 0. -1.
    9900012    2    1    2    0    0  0.19600493118E+01  0.40607669095E+02  0.58389325937E+00  0.50528861864E+02  0.30000006122E+02 0.  0.
         12    1    1    2    0    0 -0.19600493118E+01 -0.40607669095E+02 -0.58389325937E+00  0.40659138136E+02  0.00000000000E+00 0. -1.
         11    1    3    3    0    0  0.10163582237E+02  0.10911794412E+02 -0.21476299442E-01  0.14911945637E+02  0.51100000000E-03 0. -1.
        -11    1    3    3    0    0 -0.42369683483E+01  0.29861742410E+02 -0.29274938039E+01  0.30302570531E+02  0.51100000000E-03 0.  1.
         12    1    3    3    0    0 -0.39665645769E+01 -0.16586772661E+00  0.35328633627E+01  0.53143456968E+01  0.00000000000E+00 0. -1.
</event>
<event>
 7    1  0.5849044E-013  0.5052889E+02  0.7816164E-02  0.1300439E+00
        -11   -1    0    0    0    0  0.00000000000E+00  0.00000000000E+00  0.45593999997E+02  0.45594000000E+02  0.51100000000E-03 0.  1.
         11   -1    0    0    0    0 -0.00000000000E+00 -0.00000000000E+00 -0.45593999997E+02  0.45594000000E+02  0.51100000000E-03 0. -1.
    9900012    2    1    2    0    0  0.54475189771E+00 -0.38719582835E+02  0.12395989383E+02  0.50528887832E+02  0.30000085053E+02 0.  0.
         12    1    1    2    0    0 -0.54475189771E+00  0.38719582835E+02 -0.12395989383E+02  0.40659112168E+02  0.00000000000E+00 0. -1.
         11    1    3    3    0    0  0.63357243800E+01  0.27528365312E+00 -0.24789983772E+01  0.68090100399E+01  0.51100000000E-03 0. -1.
        -11    1    3    3    0    0 -0.59616708863E+01 -0.37234050126E+02  0.10717714607E+02  0.39201854742E+02  0.51100000000E-03 0.  1.
         12    1    3    3    0    0  0.17069840401E+00 -0.17608163613E+01  0.41572731536E+01  0.45180230496E+01  0.00000000000E+00 0. -1.
</event>
<event>
 7    1  0.5849044E-013  0.5052885E+02  0.7816164E-02  0.1300439E+00
        -11   -1    0    0    0    0  0.00000000000E+00  0.00000000000E+00  0.45593999997E+02  0.45594000000E+02  0.51100000000E-03 0. -1.
         11   -1    0    0    0    0 -0.00000000000E+00 -0.00000000000E+00 -0.45593999997E+02  0.45594000000E+02  0.51100000000E-03 0.  1.
    9900012    2    1    2    0    0 -0.30278882885E+02 -0.25262310316E+02 -0.99081297470E+01  0.50528854579E+02  0.29999983979E+02 0.  0.
         12    1    1    2    0    0  0.30278882885E+02  0.25262310316E+02  0.99081297470E+01  0.40659145421E+02  0.00000000000E+00 0. -1.
         11    1    3    3    0    0  0.21570851297E+01  0.48586568497E+00  0.22647127398E+01  0.31651233428E+01  0.51100000000E-03 0. -1.
        -11    1    3    3    0    0 -0.29490727096E+02 -0.12446598061E+02 -0.10214518859E+02  0.33599958091E+02  0.51100000000E-03 0.  1.
        -12    1    3    3    0    0 -0.29452409188E+01 -0.13301577940E+02 -0.19583236274E+01  0.13763773145E+02  0.00000000000E+00 0.  1.
</event>
<event>
 7    1  0.5849044E-013  0.5052886E+02  0.7816164E-02  0.1300439E+00
        -11   -1    0    0    0    0  0.00000000000E+00  0.00000000000E+00  0.45593999997E+02  0.45594000000E+02  0.51100000000E-03 0.  1.
         11   -1    0    0    0    0 -0.00000000000E+00 -0.00000000000E+00 -0.45593999997E+02  0.45594000000E+02  0.51100000000E-03 0. -1.
    9900012    2    1    2    0    0  0.28170851136E+02  0.85117392346E+01  0.28055643174E+02  0.50528859915E+02  0.30000000198E+02 0.  0.
         12    1    1    2    0    0 -0.28170851136E+02 -0.85117392346E+01 -0.28055643174E+02  0.40659140085E+02  0.00000000000E+00 0. -1.
         11    1    3    3    0    0  0.21777545598E+01 -0.12897974373E+01  0.14970570205E+02  0.15183022258E+02  0.51100000000E-03 0. -1.
        -11    1    3    3    0    0  0.14922571194E+02 -0.19589871340E+01  0.83379887486E+00  0.15073685099E+02  0.51100000000E-03 0.  1.
         12    1    3    3    0    0  0.11070525382E+02  0.11760523806E+02  0.12251274094E+02  0.20272152558E+02  0.00000000000E+00 0. -1.
</event>
<event>
 7    1  0.5849044E-013  0.5052886E+02  0.7816164E-02  0.1300439E+00
        -11   -1    0    0    0    0  0.00000000000E+00  0.00000000000E+00  0.45593999997E+02  0.45594000000E+02  0.51100000000E-03 0.  1.
         11   -1    0    0    0    0 -0.00000000000E+00 -0.00000000000E+00 -0.45593999997E+02  0.45594000000E+02  0.51100000000E-03 0. -1.
    9900012    2    1    2    0    0 -0.21289890726E+02  0.39274754926E+01  0.34416295203E+02  0.50528857284E+02  0.29999992201E+02 0.  0.
         12    1    1    2    0    0  0.21289890726E+02 -0.39274754926E+01 -0.34416295203E+02  0.40659142716E+02  0.00000000000E+00 0. -1.
         11    1    3    3    0    0 -0.64576599638E+01 -0.97131212755E+01  0.12327041999E+02  0.16970623495E+02  0.51100000000E-03 0. -1.
        -11    1    3    3    0    0 -0.17754883334E+02  0.94446201808E+01  0.16842208416E+02  0.26231597686E+02  0.51100000000E-03 0.  1.
         12    1    3    3    0    0  0.29226525715E+01  0.41959765872E+01  0.52470447888E+01  0.73266361033E+01  0.00000000000E+00 0. -1.
</event>
<event>
 7    1  0.5849044E-013  0.5052886E+02  0.7816164E-02  0.1300439E+00
        -11   -1    0    0    0    0  0.00000000000E+00  0.00000000000E+00  0.45593999997E+02  0.45594000000E+02  0.51100000000E-03 0.  1.
         11   -1    0    0    0    0 -0.00000000000E+00 -0.00000000000E+00 -0.45593999997E+02  0.45594000000E+02  0.51100000000E-03 0. -1.
    9900012    2    1    2    0    0  0.36316408085E+02 -0.52780337453E+01  0.17505035431E+02  0.50528863243E+02  0.30000010313E+02 0.  0.
         12    1    1    2    0    0 -0.36316408085E+02  0.52780337453E+01 -0.17505035431E+02  0.40659136757E+02  0.00000000000E+00 0. -1.
         11    1    3    3    0    0  0.10854968732E+02  0.21037895714E+01 -0.41953903434E+01  0.11826139570E+02  0.51100000000E-03 0. -1.
        -11    1    3    3    0    0  0.24226147933E+02 -0.19583403685E+00  0.19460599872E+02  0.31075063029E+02  0.51100000000E-03 0.  1.
         12    1    3    3    0    0  0.12352914198E+01 -0.71859892799E+01  0.22398259028E+01  0.76276606438E+01  0.00000000000E+00 0. -1.
</event>
<event>
 7    1  0.5849044E-013  0.5052885E+02  0.7816164E-02  0.1300439E+00
        -11   -1    0    0    0    0  0.00000000000E+00  0.00000000000E+00  0.45593999997E+02  0.45594000000E+02  0.51100000000E-03 0.  1.
         11   -1    0    0    0    0 -0.00000000000E+00 -0.00000000000E+00 -0.45593999997E+02  0.45594000000E+02  0.51100000000E-03 0. -1.
    9900012    2    1    2    0    0  0.15048936460E+02  0.26341374398E+02  0.27070790186E+02  0.50528853735E+02  0.29999981411E+02 0.  0.
         12    1    1    2    0    0 -0.15048936460E+02 -0.26341374398E+02 -0.27070790186E+02  0.40659146265E+02  0.00000000000E+00 0. -1.
         11    1    3    3    0    0  0.17172152607E+02  0.71029957184E+01  0.13854668699E+02  0.23179456817E+02  0.51100000000E-03 0. -1.
        -11    1    3    3    0    0 -0.17564770048E+01  0.16596142243E+02  0.16261187832E+02  0.23301145439E+02  0.51100000000E-03 0.  1.
         12    1    3    3    0    0 -0.36673914178E+00  0.26422364365E+01 -0.30450663449E+01  0.40482514781E+01  0.00000000000E+00 0. -1.
</event>
<event>
 7    1  0.5849044E-013  0.5052886E+02  0.7816164E-02  0.1300439E+00
        -11   -1    0    0    0    0  0.00000000000E+00  0.00000000000E+00  0.45593999997E+02  0.45594000000E+02  0.51100000000E-03 0. -1.
         11   -1    0    0    0    0 -0.00000000000E+00 -0.00000000000E+00 -0.45593999997E+02  0.45594000000E+02  0.51100000000E-03 0.  1.
    9900012    2    1    2    0    0 -0.20122319993E+02  0.35239990807E+02 -0.25300267012E+01  0.50528858973E+02  0.29999997334E+02 0.  0.
         12    1    1    2    0    0  0.20122319993E+02 -0.35239990807E+02  0.25300267012E+01  0.40659141027E+02  0.00000000000E+00 0. -1.
         11    1    3    3    0    0 -0.47683648724E+01  0.23993800301E+02  0.76277651097E+01  0.25624647457E+02  0.51100000000E-03 0. -1.
        -11    1    3    3    0    0 -0.36174012148E+01  0.94783664928E+01 -0.78150840459E+01  0.12806270410E+02  0.51100000000E-03 0.  1.
         12    1    3    3    0    0 -0.11736553905E+02  0.17678240128E+01 -0.23427077650E+01  0.12097941105E+02  0.00000000000E+00 0. -1.
</event>
<event>
 7    1  0.5849044E-013  0.5052886E+02  0.7816164E-02  0.1300439E+00
        -11   -1    0    0    0    0  0.00000000000E+00  0.00000000000E+00  0.45593999997E+02  0.45594000000E+02  0.51100000000E-03 0. -1.
         11   -1    0    0    0    0 -0.00000000000E+00 -0.00000000000E+00 -0.45593999997E+02  0.45594000000E+02  0.51100000000E-03 0.  1.
    9900012    2    1    2    0    0 -0.24816287861E+02 -0.26173719117E+02 -0.18768437405E+02  0.50528856401E+02  0.29999989517E+02 0.  0.
         12    1    1    2    0    0  0.24816287861E+02  0.26173719117E+02  0.18768437405E+02  0.40659143599E+02  0.00000000000E+00 0. -1.
         11    1    3    3    0    0 -0.15509221241E+02 -0.14329156784E+02  0.53227235105E+01  0.21775951494E+02  0.51100000000E-03 0. -1.
        -11    1    3    3    0    0 -0.67859251379E+01 -0.90938340033E+01 -0.14168937072E+02  0.18152282910E+02  0.51100000000E-03 0.  1.
         12    1    3    3    0    0 -0.25211414814E+01 -0.27507283294E+01 -0.99222238435E+01  0.10600621996E+02  0.00000000000E+00 0. -1.
</event>
<event>
 7    1  0.5849044E-013  0.5052884E+02  0.7816164E-02  0.1300439E+00
        -11   -1    0    0    0    0  0.00000000000E+00  0.00000000000E+00  0.45593999997E+02  0.45594000000E+02  0.51100000000E-03 0.  1.
         11   -1    0    0    0    0 -0.00000000000E+00 -0.00000000000E+00 -0.45593999997E+02  0.45594000000E+02  0.51100000000E-03 0. -1.
    9900012    2    1    2    0    0  0.22845485415E+02 -0.22636963102E+02  0.24876077685E+02  0.50528836908E+02  0.29999930266E+02 0.  0.
         12    1    1    2    0    0 -0.22845485415E+02  0.22636963102E+02 -0.24876077685E+02  0.40659163092E+02  0.00000000000E+00 0. -1.
         11    1    3    3    0    0  0.36755167466E+01 -0.12888342353E+02  0.18022858967E+00  0.13403405334E+02  0.51100000000E-03 0. -1.
        -11    1    3    3    0    0  0.10992246232E+02  0.73890869912E+00  0.20338634667E+02  0.23130834911E+02  0.51100000000E-03 0.  1.
        -12    1    3    3    0    0  0.81777224363E+01 -0.10487529449E+02  0.43572144280E+01  0.13994596663E+02  0.00000000000E+00 0.  1.
</event>
<event>
 7    1  0.5849044E-013  0.5052888E+02  0.7816164E-02  0.1300439E+00
        -11   -1    0    0    0    0  0.00000000000E+00  0.00000000000E+00  0.45593999997E+02  0.45594000000E+02  0.51100000000E-03 0. -1.
         11   -1    0    0    0    0 -0.00000000000E+00 -0.00000000000E+00 -0.45593999997E+02  0.45594000000E+02  0.51100000000E-03 0.  1.
    9900012    2    1    2    0    0 -0.18546924219E+02 -0.33647030036E+02 -0.13306137520E+02  0.50528876498E+02  0.30000050603E+02 0.  0.
         12    1    1    2    0    0  0.18546924219E+02  0.33647030036E+02  0.13306137520E+02  0.40659123502E+02  0.00000000000E+00 0. -1.
         11    1    3    3    0    0 -0.21713259383E+02 -0.33517719124E+02 -0.16736467296E+02  0.43301414135E+02  0.51100000000E-03 0.  1.
        -11    1    3    3    0    0  0.66308371881E+00 -0.11610691090E+00  0.44674173808E+01  0.45178511649E+01  0.51100000000E-03 0. -1.
        -12    1    3    3    0    0  0.25032514448E+01 -0.13204001184E-01 -0.10370876049E+01  0.27096111976E+01  0.00000000000E+00 0.  1.
</event>
<event>
 7    1  0.5849044E-013  0.5052891E+02  0.7816164E-02  0.1300439E+00
        -11   -1    0    0    0    0  0.00000000000E+00  0.00000000000E+00  0.45593999997E+02  0.45594000000E+02  0.51100000000E-03 0.  1.
         11   -1    0    0    0    0 -0.00000000000E+00 -0.00000000000E+00 -0.45593999997E+02  0.45594000000E+02  0.51100000000E-03 0. -1.
    9900012    2    1    2    0    0 -0.16704753718E+02 -0.36954674731E+02  0.29093950608E+01  0.50528912936E+02  0.30000161361E+02 0.  0.
         12    1    1    2    0    0  0.16704753718E+02  0.36954674731E+02 -0.29093950608E+01  0.40659087064E+02  0.00000000000E+00 0. -1.
         11    1    3    3    0    0  0.76148749974E+00 -0.55947429620E+01 -0.42438275880E+01  0.70633621513E+01  0.51100000000E-03 0. -1.
        -11    1    3    3    0    0 -0.17866353489E+02 -0.31987655348E+02  0.12006053024E+02  0.38555959216E+02  0.51100000000E-03 0.  1.
        -12    1    3    3    0    0  0.40011227138E+00  0.62772357861E+00 -0.48528303751E+01  0.49095915686E+01  0.00000000000E+00 0.  1.
</event>
<event>
 7    1  0.5849044E-013  0.5052884E+02  0.7816164E-02  0.1300439E+00
        -11   -1    0    0    0    0  0.00000000000E+00  0.00000000000E+00  0.45593999997E+02  0.45594000000E+02  0.51100000000E-03 0.  1.
         11   -1    0    0    0    0 -0.00000000000E+00 -0.00000000000E+00 -0.45593999997E+02  0.45594000000E+02  0.51100000000E-03 0. -1.
    9900012    2    1    2    0    0  0.37755746667E+02 -0.89770105021E+01  0.12127819188E+02  0.50528842087E+02  0.29999946008E+02 0.  0.
         12    1    1    2    0    0 -0.37755746667E+02  0.89770105021E+01 -0.12127819188E+02  0.40659157913E+02  0.00000000000E+00 0. -1.
         11    1    3    3    0    0  0.11893532351E+02  0.37280559563E+01 -0.68264810661E+01  0.14211099782E+02  0.51100000000E-03 0. -1.
        -11    1    3    3    0    0  0.16187595809E+02 -0.16602953510E+01  0.92509496081E+01  0.18718304081E+02  0.51100000000E-03 0.  1.
         12    1    3    3    0    0  0.96746185065E+01 -0.11044771107E+02  0.97033506461E+01  0.17599438225E+02  0.00000000000E+00 0. -1.
</event>
<event>
 7    1  0.5849044E-013  0.5052886E+02  0.7816164E-02  0.1300439E+00
        -11   -1    0    0    0    0  0.00000000000E+00  0.00000000000E+00  0.45593999997E+02  0.45594000000E+02  0.51100000000E-03 0.  1.
         11   -1    0    0    0    0 -0.00000000000E+00 -0.00000000000E+00 -0.45593999997E+02  0.45594000000E+02  0.51100000000E-03 0. -1.
    9900012    2    1    2    0    0 -0.47184734923E+01  0.39805855801E+02  0.68114075746E+01  0.50528863003E+02  0.30000009585E+02 0.  0.
         12    1    1    2    0    0  0.47184734923E+01 -0.39805855801E+02 -0.68114075746E+01  0.40659136997E+02  0.00000000000E+00 0. -1.
         11    1    3    3    0    0 -0.48545576572E+01  0.98314816603E-01  0.31914883396E+01  0.58105072011E+01  0.51100000000E-03 0. -1.
        -11    1    3    3    0    0  0.24130775863E+01  0.41157346542E+02  0.14475780836E+01  0.41253431377E+02  0.51100000000E-03 0.  1.
        -12    1    3    3    0    0 -0.22769934214E+01 -0.14498055572E+01  0.21723411513E+01  0.34649244252E+01  0.00000000000E+00 0.  1.
</event>
<event>
 7    1  0.5849044E-013  0.5052886E+02  0.7816164E-02  0.1300439E+00
        -11   -1    0    0    0    0  0.00000000000E+00  0.00000000000E+00  0.45593999997E+02  0.45594000000E+02  0.51100000000E-03 0.  1.
         11   -1    0    0    0    0 -0.00000000000E+00 -0.00000000000E+00 -0.45593999997E+02  0.45594000000E+02  0.51100000000E-03 0. -1.
    9900012    2    1    2    0    0 -0.57527912556E+01 -0.34878629514E+02  0.20088604603E+02  0.50528862787E+02  0.30000008928E+02 0.  0.
         12    1    1    2    0    0  0.57527912556E+01  0.34878629514E+02 -0.20088604603E+02  0.40659137213E+02  0.00000000000E+00 0. -1.
         11    1    3    3    0    0  0.77574303431E+01 -0.24226649271E+02  0.16067499436E+02  0.30087751641E+02  0.51100000000E-03 0. -1.
        -11    1    3    3    0    0 -0.72319169129E+01 -0.82089645755E+01  0.70915216746E+01  0.13037538171E+02  0.51100000000E-03 0.  1.
         12    1    3    3    0    0 -0.62783046857E+01 -0.24430156675E+01 -0.30704165070E+01  0.74035729756E+01  0.00000000000E+00 0. -1.
</event>
<event>
 7    1  0.5849044E-013  0.5052886E+02  0.7816164E-02  0.1300439E+00
        -11   -1    0    0    0    0  0.00000000000E+00  0.00000000000E+00  0.45593999997E+02  0.45594000000E+02  0.51100000000E-03 0.  1.
         11   -1    0    0    0    0 -0.00000000000E+00 -0.00000000000E+00 -0.45593999997E+02  0.45594000000E+02  0.51100000000E-03 0. -1.
    9900012    2    1    2    0    0  0.27027710175E+02  0.12183752795E+02 -0.27824889849E+02  0.50528862717E+02  0.30000008716E+02 0.  0.
         12    1    1    2    0    0 -0.27027710175E+02 -0.12183752795E+02  0.27824889849E+02  0.40659137283E+02  0.00000000000E+00 0. -1.
         11    1    3    3    0    0  0.97697203152E+01  0.15719516183E+02 -0.37791559419E+01  0.18890014398E+02  0.51100000000E-03 0. -1.
        -11    1    3    3    0    0  0.14303841266E+02 -0.21518425521E+01 -0.10947579888E+02  0.18140556965E+02  0.51100000000E-03 0.  1.
        -12    1    3    3    0    0  0.29541485935E+01 -0.13839208361E+01 -0.13098154018E+02  0.13498291354E+02  0.00000000000E+00 0.  1.
</event>
<event>
 7    1  0.5849044E-013  0.5052885E+02  0.7816164E-02  0.1300439E+00
        -11   -1    0    0    0    0  0.00000000000E+00  0.00000000000E+00  0.45593999997E+02  0.45594000000E+02  0.51100000000E-03 0.  1.
         11   -1    0    0    0    0 -0.00000000000E+00 -0.00000000000E+00 -0.45593999997E+02  0.45594000000E+02  0.51100000000E-03 0. -1.
    9900012    2    1    2    0    0  0.29531553438E+02  0.14482885190E+02  0.23901871859E+02  0.50528854777E+02  0.29999984581E+02 0.  0.
         12    1    1    2    0    0 -0.29531553438E+02 -0.14482885190E+02 -0.23901871859E+02  0.40659145223E+02  0.00000000000E+00 0. -1.
         11    1    3    3    0    0 -0.31865124322E+00  0.88962658636E+01 -0.28773843600E+01  0.93554489976E+01  0.51100000000E-03 0. -1.
        -11    1    3    3    0    0  0.20735544796E+02  0.25180991932E+01  0.13861873471E+02  0.25069008315E+02  0.51100000000E-03 0.  1.
        -12    1    3    3    0    0  0.91146598857E+01  0.30685201333E+01  0.12917382747E+02  0.16104397464E+02  0.00000000000E+00 0.  1.
</event>
<event>
 7    1  0.5849044E-013  0.5052886E+02  0.7816164E-02  0.1300439E+00
        -11   -1    0    0    0    0  0.00000000000E+00  0.00000000000E+00  0.45593999997E+02  0.45594000000E+02  0.51100000000E-03 0. -1.
         11   -1    0    0    0    0 -0.00000000000E+00 -0.00000000000E+00 -0.45593999997E+02  0.45594000000E+02  0.51100000000E-03 0.  1.
    9900012    2    1    2    0    0 -0.50320416633E+01 -0.37987448626E+02 -0.13594055554E+02  0.50528855361E+02  0.29999986354E+02 0.  0.
         12    1    1    2    0    0  0.50320416633E+01  0.37987448626E+02  0.13594055554E+02  0.40659144639E+02  0.00000000000E+00 0. -1.
         11    1    3    3    0    0  0.35409317384E+01 -0.10435518114E+02  0.74424164979E+01  0.13297661429E+02  0.51100000000E-03 0. -1.
        -11    1    3    3    0    0 -0.83599787664E+00 -0.19588907048E+02 -0.13863981803E+02  0.24013208105E+02  0.51100000000E-03 0.  1.
         12    1    3    3    0    0 -0.77369755251E+01 -0.79630234632E+01 -0.71724902487E+01  0.13217985827E+02  0.00000000000E+00 0. -1.
</event>
<event>
 7    1  0.5849044E-013  0.5052886E+02  0.7816164E-02  0.1300439E+00
        -11   -1    0    0    0    0  0.00000000000E+00  0.00000000000E+00  0.45593999997E+02  0.45594000000E+02  0.51100000000E-03 0.  1.
         11   -1    0    0    0    0 -0.00000000000E+00 -0.00000000000E+00 -0.45593999997E+02  0.45594000000E+02  0.51100000000E-03 0. -1.
    9900012    2    1    2    0    0  0.16518612196E+02  0.10473039865E+02  0.35645705432E+02  0.50528862913E+02  0.30000009310E+02 0.  0.
         12    1    1    2    0    0 -0.16518612196E+02 -0.10473039865E+02 -0.35645705432E+02  0.40659137087E+02  0.00000000000E+00 0. -1.
         11    1    3    3    0    0 -0.37472363336E+01  0.38715004929E+01  0.11736888496E+02  0.12914520821E+02  0.51100000000E-03 0. -1.
        -11    1    3    3    0    0  0.22781323775E+02  0.76393400241E+01  0.25007009384E+02  0.34679947341E+02  0.51100000000E-03 0.  1.
        -12    1    3    3    0    0 -0.25154752459E+01 -0.10378006515E+01 -0.10981924477E+01  0.29343947514E+01  0.00000000000E+00 0.  1.
</event>
<event>
 7    1  0.5849044E-013  0.5052886E+02  0.7816164E-02  0.1300439E+00
        -11   -1    0    0    0    0  0.00000000000E+00  0.00000000000E+00  0.45593999997E+02  0.45594000000E+02  0.51100000000E-03 0.  1.
         11   -1    0    0    0    0 -0.00000000000E+00 -0.00000000000E+00 -0.45593999997E+02  0.45594000000E+02  0.51100000000E-03 0. -1.
    9900012    2    1    2    0    0 -0.28736394282E+02 -0.28764006670E+02 -0.13012438240E+00  0.50528863654E+02  0.30000011562E+02 0.  0.
         12    1    1    2    0    0  0.28736394282E+02  0.28764006670E+02  0.13012438240E+00  0.40659136346E+02  0.00000000000E+00 0. -1.
         11    1    3    3    0    0 -0.14588078019E+01 -0.76285732814E+01 -0.64341469247E+01  0.10085707582E+02  0.51100000000E-03 0. -1.
        -11    1    3    3    0    0 -0.28704034140E+02 -0.15199196246E+02  0.12273320866E+01  0.32502976583E+02  0.51100000000E-03 0.  1.
        -12    1    3    3    0    0  0.14264476598E+01 -0.59362371423E+01  0.50766904557E+01  0.79401794890E+01  0.00000000000E+00 0.  1.
</event>
<event>
 7    1  0.5849044E-013  0.5052887E+02  0.7816164E-02  0.1300439E+00
        -11   -1    0    0    0    0  0.00000000000E+00  0.00000000000E+00  0.45593999997E+02  0.45594000000E+02  0.51100000000E-03 0. -1.
         11   -1    0    0    0    0 -0.00000000000E+00 -0.00000000000E+00 -0.45593999997E+02  0.45594000000E+02  0.51100000000E-03 0.  1.
    9900012    2    1    2    0    0 -0.29455912242E+02  0.27821001236E+02  0.33921046646E+01  0.50528865112E+02  0.30000015994E+02 0.  0.
         12    1    1    2    0    0  0.29455912242E+02 -0.27821001236E+02 -0.33921046646E+01  0.40659134888E+02  0.00000000000E+00 0. -1.
         11    1    3    3    0    0 -0.11001437837E+02  0.17997856048E+02  0.57045386051E+01  0.21851686841E+02  0.51100000000E-03 0. -1.
        -11    1    3    3    0    0 -0.18783574882E+02  0.58725632447E+01 -0.84119625986E+01  0.21402588615E+02  0.51100000000E-03 0.  1.
        -12    1    3    3    0    0  0.32910047726E+00  0.39505819427E+01  0.60995286580E+01  0.72745896558E+01  0.00000000000E+00 0.  1.
</event>
<event>
 7    1  0.5849044E-013  0.5052886E+02  0.7816164E-02  0.1300439E+00
        -11   -1    0    0    0    0  0.00000000000E+00  0.00000000000E+00  0.45593999997E+02  0.45594000000E+02  0.51100000000E-03 0.  1.
         11   -1    0    0    0    0 -0.00000000000E+00 -0.00000000000E+00 -0.45593999997E+02  0.45594000000E+02  0.51100000000E-03 0. -1.
    9900012    2    1    2    0    0  0.19725231581E+02 -0.17425971226E+02  0.30990584495E+02  0.50528861280E+02  0.30000004346E+02 0.  0.
         12    1    1    2    0    0 -0.19725231581E+02  0.17425971226E+02 -0.30990584495E+02  0.40659138720E+02  0.00000000000E+00 0. -1.
         11    1    3    3    0    0  0.57437181381E+01  0.51003782067E+01  0.34012865836E+01  0.84007682141E+01  0.51100000000E-03 0.  1.
        -11    1    3    3    0    0  0.13200445039E+02 -0.25150698523E+02  0.27262201247E+02  0.39370509299E+02  0.51100000000E-03 0. -1.
         12    1    3    3    0    0  0.78106840419E+00  0.26243490903E+01  0.32709666522E+00  0.27575837663E+01  0.00000000000E+00 0. -1.
</event>
<event>
 7    1  0.5849044E-013  0.5052887E+02  0.7816164E-02  0.1300439E+00
        -11   -1    0    0    0    0  0.00000000000E+00  0.00000000000E+00  0.45593999997E+02  0.45594000000E+02  0.51100000000E-03 0.  1.
         11   -1    0    0    0    0 -0.00000000000E+00 -0.00000000000E+00 -0.45593999997E+02  0.45594000000E+02  0.51100000000E-03 0. -1.
    9900012    2    1    2    0    0  0.20371734884E+02 -0.29365904323E+02  0.19385594599E+02  0.50528865764E+02  0.30000017976E+02 0.  0.
         12    1    1    2    0    0 -0.20371734884E+02  0.29365904323E+02 -0.19385594599E+02  0.40659134236E+02  0.00000000000E+00 0. -1.
         11    1    3    3    0    0  0.86562983901E+00  0.74461911292E+00 -0.54494677146E+01  0.55678066844E+01  0.51100000000E-03 0. -1.
        -11    1    3    3    0    0  0.78625144728E+01 -0.10568915085E+02  0.31732356102E+01  0.13549558089E+02  0.51100000000E-03 0.  1.
         12    1    3    3    0    0  0.11643590572E+02 -0.19541608351E+02  0.21661826703E+02  0.31411500990E+02  0.00000000000E+00 0. -1.
</event>
<event>
 7    1  0.5849044E-013  0.5052886E+02  0.7816164E-02  0.1300439E+00
        -11   -1    0    0    0    0  0.00000000000E+00  0.00000000000E+00  0.45593999997E+02  0.45594000000E+02  0.51100000000E-03 0.  1.
         11   -1    0    0    0    0 -0.00000000000E+00 -0.00000000000E+00 -0.45593999997E+02  0.45594000000E+02  0.51100000000E-03 0. -1.
    9900012    2    1    2    0    0  0.23820280504E+02 -0.90152613623E+01  0.31693607535E+02  0.50528862536E+02  0.30000008166E+02 0.  0.
         12    1    1    2    0    0 -0.23820280504E+02  0.90152613623E+01 -0.31693607535E+02  0.40659137464E+02  0.00000000000E+00 0. -1.
         11    1    3    3    0    0 -0.14355197327E+01 -0.79201632418E+01 -0.13699478991E+01  0.81649531650E+01  0.51100000000E-03 0. -1.
        -11    1    3    3    0    0  0.13245396900E+02 -0.45120000349E+01  0.17924684637E+02  0.22739679042E+02  0.51100000000E-03 0.  1.
         12    1    3    3    0    0  0.12010403337E+02  0.34169019144E+01  0.15138870797E+02  0.19624230330E+02  0.00000000000E+00 0. -1.
</event>
<event>
 7    1  0.5849044E-013  0.5052886E+02  0.7816164E-02  0.1300439E+00
        -11   -1    0    0    0    0  0.00000000000E+00  0.00000000000E+00  0.45593999997E+02  0.45594000000E+02  0.51100000000E-03 0. -1.
         11   -1    0    0    0    0 -0.00000000000E+00 -0.00000000000E+00 -0.45593999997E+02  0.45594000000E+02  0.51100000000E-03 0.  1.
    9900012    2    1    2    0    0 -0.16974675779E+02 -0.35962543251E+02 -0.84688491275E+01  0.50528861539E+02  0.30000005132E+02 0.  0.
         12    1    1    2    0    0  0.16974675779E+02  0.35962543251E+02  0.84688491275E+01  0.40659138461E+02  0.00000000000E+00 0. -1.
         11    1    3    3    0    0  0.18969074284E+01 -0.88473596564E+01  0.74089782062E+01  0.11694741938E+02  0.51100000000E-03 0. -1.
        -11    1    3    3    0    0 -0.11925396766E+02 -0.24133831995E+02 -0.83956718553E+01  0.28198302093E+02  0.51100000000E-03 0.  1.
        -12    1    3    3    0    0 -0.69461864410E+01 -0.29813515999E+01 -0.74821554785E+01  0.10635817507E+02  0.00000000000E+00 0.  1.
</event>
<event>
 7    1  0.5849044E-013  0.5052886E+02  0.7816164E-02  0.1300439E+00
        -11   -1    0    0    0    0  0.00000000000E+00  0.00000000000E+00  0.45593999997E+02  0.45594000000E+02  0.51100000000E-03 0.  1.
         11   -1    0    0    0    0 -0.00000000000E+00 -0.00000000000E+00 -0.45593999997E+02  0.45594000000E+02  0.51100000000E-03 0. -1.
    9900012    2    1    2    0    0  0.34689641054E+02 -0.79777542365E+01  0.19650700928E+02  0.50528858272E+02  0.29999995202E+02 0.  0.
         12    1    1    2    0    0 -0.34689641054E+02  0.79777542365E+01 -0.19650700928E+02  0.40659141728E+02  0.00000000000E+00 0. -1.
         11    1    3    3    0    0 -0.90015752576E+00 -0.13059665718E+01  0.28996631785E+01  0.33051292059E+01  0.51100000000E-03 0. -1.
        -11    1    3    3    0    0  0.36216915563E+02  0.12110958228E+01  0.14093293733E+02  0.38881263540E+02  0.51100000000E-03 0.  1.
        -12    1    3    3    0    0 -0.62711698276E+00 -0.78828834876E+01  0.26577440169E+01  0.83424655257E+01  0.00000000000E+00 0.  1.
</event>
<event>
 7    1  0.5849044E-013  0.5052886E+02  0.7816164E-02  0.1300439E+00
        -11   -1    0    0    0    0  0.00000000000E+00  0.00000000000E+00  0.45593999997E+02  0.45594000000E+02  0.51100000000E-03 0.  1.
         11   -1    0    0    0    0 -0.00000000000E+00 -0.00000000000E+00 -0.45593999997E+02  0.45594000000E+02  0.51100000000E-03 0. -1.
    9900012    2    1    2    0    0 -0.12825762393E+02 -0.69915300390E+01  0.37944485968E+02  0.50528859717E+02  0.29999999594E+02 0.  0.
         12    1    1    2    0    0  0.12825762393E+02  0.69915300390E+01 -0.37944485968E+02  0.40659140283E+02  0.00000000000E+00 0. -1.
         11    1    3    3    0    0 -0.77898834609E+01 -0.19311662993E+01  0.23430959172E+01  0.83607288168E+01  0.51100000000E-03 0. -1.
        -11    1    3    3    0    0  0.22998602418E+01  0.67464072528E+01  0.20205173408E+02  0.21425508178E+02  0.51100000000E-03 0.  1.
        -12    1    3    3    0    0 -0.73357391741E+01 -0.11806770992E+02  0.15396216642E+02  0.20742622722E+02  0.00000000000E+00 0.  1.
</event>
<event>
 7    1  0.5849044E-013  0.5052887E+02  0.7816164E-02  0.1300439E+00
        -11   -1    0    0    0    0  0.00000000000E+00  0.00000000000E+00  0.45593999997E+02  0.45594000000E+02  0.51100000000E-03 0.  1.
         11   -1    0    0    0    0 -0.00000000000E+00 -0.00000000000E+00 -0.45593999997E+02  0.45594000000E+02  0.51100000000E-03 0. -1.
    9900012    2    1    2    0    0  0.36421767606E+02 -0.17268191416E+02  0.53319391887E+01  0.50528866145E+02  0.30000019134E+02 0.  0.
         12    1    1    2    0    0 -0.36421767606E+02  0.17268191416E+02 -0.53319391887E+01  0.40659133855E+02  0.00000000000E+00 0. -1.
         11    1    3    3    0    0  0.19803662020E+01 -0.66520280160E+01  0.89824734088E+01  0.11351482538E+02  0.51100000000E-03 0. -1.
        -11    1    3    3    0    0  0.24151249911E+02 -0.19191950865E+01 -0.71440287756E+01  0.25258727788E+02  0.51100000000E-03 0.  1.
        -12    1    3    3    0    0  0.10290151493E+02 -0.86969683134E+01  0.34934945555E+01  0.13918655819E+02  0.00000000000E+00 0.  1.
</event>
<event>
 7    1  0.5849044E-013  0.5052886E+02  0.7816164E-02  0.1300439E+00
        -11   -1    0    0    0    0  0.00000000000E+00  0.00000000000E+00  0.45593999997E+02  0.45594000000E+02  0.51100000000E-03 0. -1.
         11   -1    0    0    0    0 -0.00000000000E+00 -0.00000000000E+00 -0.45593999997E+02  0.45594000000E+02  0.51100000000E-03 0.  1.
    9900012    2    1    2    0    0  0.15039346285E+02 -0.10484358125E+02 -0.36291349739E+02  0.50528858742E+02  0.29999996633E+02 0.  0.
         12    1    1    2    0    0 -0.15039346285E+02  0.10484358125E+02  0.36291349739E+02  0.40659141258E+02  0.00000000000E+00 0. -1.
         11    1    3    3    0    0  0.16370852407E+02 -0.15153699825E+02 -0.26103480430E+02  0.34337022552E+02  0.51100000000E-03 0. -1.
        -11    1    3    3    0    0 -0.19479231914E+01 -0.11761974610E+01 -0.10058277034E+02  0.10312457630E+02  0.51100000000E-03 0.  1.
         12    1    3    3    0    0  0.61641706941E+00  0.58455391615E+01 -0.12959227510E+00  0.58793785598E+01  0.00000000000E+00 0. -1.
</event>
<event>
 7    1  0.5849044E-013  0.5052886E+02  0.7816164E-02  0.1300439E+00
        -11   -1    0    0    0    0  0.00000000000E+00  0.00000000000E+00  0.45593999997E+02  0.45594000000E+02  0.51100000000E-03 0.  1.
         11   -1    0    0    0    0 -0.00000000000E+00 -0.00000000000E+00 -0.45593999997E+02  0.45594000000E+02  0.51100000000E-03 0. -1.
    9900012    2    1    2    0    0  0.49156536912E+00 -0.14447154832E+02  0.38002677150E+02  0.50528863390E+02  0.30000010762E+02 0.  0.
         12    1    1    2    0    0 -0.49156536912E+00  0.14447154832E+02 -0.38002677150E+02  0.40659136610E+02  0.00000000000E+00 0. -1.
         11    1    3    3    0    0 -0.53813040968E+01 -0.14878062486E+02  0.15669818350E+02  0.22267877863E+02  0.51100000000E-03 0. -1.
        -11    1    3    3    0    0  0.95420400428E+01 -0.48828531473E+01  0.15642507322E+02  0.18962616344E+02  0.51100000000E-03 0.  1.
        -12    1    3    3    0    0 -0.36691705770E+01  0.53137608011E+01  0.66903514778E+01  0.92983691834E+01  0.00000000000E+00 0.  1.
</event>
<event>
 7    1  0.5849044E-013  0.5052886E+02  0.7816164E-02  0.1300439E+00
        -11   -1    0    0    0    0  0.00000000000E+00  0.00000000000E+00  0.45593999997E+02  0.45594000000E+02  0.51100000000E-03 0. -1.
         11   -1    0    0    0    0 -0.00000000000E+00 -0.00000000000E+00 -0.45593999997E+02  0.45594000000E+02  0.51100000000E-03 0.  1.
    9900012    2    1    2    0    0 -0.12939926376E+02  0.15396360235E+02 -0.35336613791E+02  0.50528857395E+02  0.29999992538E+02 0.  0.
         12    1    1    2    0    0  0.12939926376E+02 -0.15396360235E+02  0.35336613791E+02  0.40659142605E+02  0.00000000000E+00 0. -1.
         11    1    3    3    0    0 -0.23798046057E+01  0.17715122538E+02 -0.74791077553E+01  0.19375915193E+02  0.51100000000E-03 0. -1.
        -11    1    3    3    0    0 -0.41772868270E+01  0.32873209061E+01 -0.12882468903E+02  0.13936075820E+02  0.51100000000E-03 0.  1.
         12    1    3    3    0    0 -0.63828349432E+01 -0.56060832088E+01 -0.14975037133E+02  0.17216866381E+02  0.00000000000E+00 0. -1.
</event>
<event>
 7    1  0.5849044E-013  0.5052886E+02  0.7816164E-02  0.1300439E+00
        -11   -1    0    0    0    0  0.00000000000E+00  0.00000000000E+00  0.45593999997E+02  0.45594000000E+02  0.51100000000E-03 0.  1.
         11   -1    0    0    0    0 -0.00000000000E+00 -0.00000000000E+00 -0.45593999997E+02  0.45594000000E+02  0.51100000000E-03 0. -1.
    9900012    2    1    2    0    0 -0.15315451463E+02 -0.28449384986E+02  0.24682690350E+02  0.50528858807E+02  0.29999996831E+02 0.  0.
         12    1    1    2    0    0  0.15315451463E+02  0.28449384986E+02 -0.24682690350E+02  0.40659141193E+02  0.00000000000E+00 0. -1.
         11    1    3    3    0    0 -0.55130997618E+01  0.48153026240E+01  0.15917669430E+01  0.74910033110E+01  0.51100000000E-03 0. -1.
        -11    1    3    3    0    0 -0.46717271371E+01 -0.22189589342E+02  0.20481157116E+02  0.30556189335E+02  0.51100000000E-03 0.  1.
        -12    1    3    3    0    0 -0.51306245642E+01 -0.11075098269E+02  0.26097662908E+01  0.12481666162E+02  0.00000000000E+00 0.  1.
</event>
<event>
 7    1  0.5849044E-013  0.5052886E+02  0.7816164E-02  0.1300439E+00
        -11   -1    0    0    0    0  0.00000000000E+00  0.00000000000E+00  0.45593999997E+02  0.45594000000E+02  0.51100000000E-03 0.  1.
         11   -1    0    0    0    0 -0.00000000000E+00 -0.00000000000E+00 -0.45593999997E+02  0.45594000000E+02  0.51100000000E-03 0. -1.
    9900012    2    1    2    0    0 -0.31836620751E+02  0.87573146067E+00  0.25275055116E+02  0.50528859115E+02  0.29999997765E+02 0.  0.
         12    1    1    2    0    0  0.31836620751E+02 -0.87573146067E+00 -0.25275055116E+02  0.40659140885E+02  0.00000000000E+00 0. -1.
         11    1    3    3    0    0  0.27692296036E+01 -0.32230321379E+01 -0.24517356104E+01  0.49058716375E+01  0.51100000000E-03 0. -1.
        -11    1    3    3    0    0 -0.13296141796E+02 -0.24330904174E+01  0.13929493919E+02  0.19409742830E+02  0.51100000000E-03 0.  1.
         12    1    3    3    0    0 -0.21309708559E+02  0.65318540159E+01  0.13797296807E+02  0.26213244647E+02  0.00000000000E+00 0. -1.
</event>
<event>
 7    1  0.5849044E-013  0.5052887E+02  0.7816164E-02  0.1300439E+00
        -11   -1    0    0    0    0  0.00000000000E+00  0.00000000000E+00  0.45593999997E+02  0.45594000000E+02  0.51100000000E-03 0. -1.
         11   -1    0    0    0    0 -0.00000000000E+00 -0.00000000000E+00 -0.45593999997E+02  0.45594000000E+02  0.51100000000E-03 0.  1.
    9900012    2    1    2    0    0 -0.31653804567E+02 -0.14076823211E+02 -0.21284844331E+02  0.50528869494E+02  0.30000029314E+02 0.  0.
         12    1    1    2    0    0  0.31653804567E+02  0.14076823211E+02  0.21284844331E+02  0.40659130506E+02  0.00000000000E+00 0. -1.
         11    1    3    3    0    0 -0.87098702641E+01 -0.18630110782E+01 -0.14500980216E+02  0.17017963385E+02  0.51100000000E-03 0. -1.
        -11    1    3    3    0    0 -0.20821364182E+02 -0.14224520349E+02 -0.11694193782E+02  0.27796049252E+02  0.51100000000E-03 0.  1.
         12    1    3    3    0    0 -0.21225701215E+01  0.20107082162E+01  0.49103296673E+01  0.57148568568E+01  0.00000000000E+00 0. -1.
</event>
<event>
 7    1  0.5849044E-013  0.5052889E+02  0.7816164E-02  0.1300439E+00
        -11   -1    0    0    0    0  0.00000000000E+00  0.00000000000E+00  0.45593999997E+02  0.45594000000E+02  0.51100000000E-03 0. -1.
         11   -1    0    0    0    0 -0.00000000000E+00 -0.00000000000E+00 -0.45593999997E+02  0.45594000000E+02  0.51100000000E-03 0.  1.
    9900012    2    1    2    0    0 -0.20051087073E+02 -0.31084537078E+02 -0.16878052688E+02  0.50528890311E+02  0.30000092590E+02 0.  0.
         12    1    1    2    0    0  0.20051087073E+02  0.31084537078E+02  0.16878052688E+02  0.40659109689E+02  0.00000000000E+00 0. -1.
         11    1    3    3    0    0  0.15599764699E+01  0.39301118578E+01  0.33326720682E+00  0.42415059936E+01  0.51100000000E-03 0. -1.
        -11    1    3    3    0    0 -0.17456625702E+02 -0.17888853506E+02 -0.12978971522E+02  0.28163781044E+02  0.51100000000E-03 0.  1.
         12    1    3    3    0    0 -0.41544378406E+01 -0.17125795429E+02 -0.42323483724E+01  0.18123603273E+02  0.00000000000E+00 0. -1.
</event>
<event>
 7    1  0.5849044E-013  0.5052890E+02  0.7816164E-02  0.1300439E+00
        -11   -1    0    0    0    0  0.00000000000E+00  0.00000000000E+00  0.45593999997E+02  0.45594000000E+02  0.51100000000E-03 0. -1.
         11   -1    0    0    0    0 -0.00000000000E+00 -0.00000000000E+00 -0.45593999997E+02  0.45594000000E+02  0.51100000000E-03 0.  1.
    9900012    2    1    2    0    0  0.67535897297E+01  0.34277884285E+02 -0.20798505592E+02  0.50528903107E+02  0.30000131483E+02 0.  0.
         12    1    1    2    0    0 -0.67535897297E+01 -0.34277884285E+02  0.20798505592E+02  0.40659096893E+02  0.00000000000E+00 0. -1.
         11    1    3    3    0    0  0.54354131776E+01  0.95097139080E+01  0.24254348346E+01  0.11218783776E+02  0.51100000000E-03 0. -1.
        -11    1    3    3    0    0  0.23530121745E+01  0.63602441168E+00 -0.12753026989E+02  0.12983870416E+02  0.51100000000E-03 0.  1.
        -12    1    3    3    0    0 -0.10348356224E+01  0.24132145966E+02 -0.10470913437E+02  0.26326248914E+02  0.00000000000E+00 0.  1.
</event>
<event>
 7    1  0.5849044E-013  0.5052885E+02  0.7816164E-02  0.1300439E+00
        -11   -1    0    0    0    0  0.00000000000E+00  0.00000000000E+00  0.45593999997E+02  0.45594000000E+02  0.51100000000E-03 0.  1.
         11   -1    0    0    0    0 -0.00000000000E+00 -0.00000000000E+00 -0.45593999997E+02  0.45594000000E+02  0.51100000000E-03 0. -1.
    9900012    2    1    2    0    0  0.26077374155E+02 -0.22582824377E+02  0.21520988021E+02  0.50528851889E+02  0.29999975802E+02 0.  0.
         12    1    1    2    0    0 -0.26077374155E+02  0.22582824377E+02 -0.21520988021E+02  0.40659148111E+02  0.00000000000E+00 0. -1.
         11    1    3    3    0    0  0.57098616818E+01  0.35677605969E+01  0.51705989323E+01  0.84892007682E+01  0.51100000000E-03 0. -1.
        -11    1    3    3    0    0  0.23313289237E+02 -0.23845435894E+02  0.18062626864E+02  0.37925885059E+02  0.51100000000E-03 0.  1.
        -12    1    3    3    0    0 -0.29457767632E+01 -0.23051490801E+01 -0.17122377744E+01  0.41137660624E+01  0.00000000000E+00 0.  1.
</event>
<event>
 7    1  0.5849044E-013  0.5052887E+02  0.7816164E-02  0.1300439E+00
        -11   -1    0    0    0    0  0.00000000000E+00  0.00000000000E+00  0.45593999997E+02  0.45594000000E+02  0.51100000000E-03 0. -1.
         11   -1    0    0    0    0 -0.00000000000E+00 -0.00000000000E+00 -0.45593999997E+02  0.45594000000E+02  0.51100000000E-03 0.  1.
    9900012    2    1    2    0    0  0.28455165525E+01 -0.36569158506E+02  0.17543230225E+02  0.50528865171E+02  0.30000016175E+02 0.  0.
         12    1    1    2    0    0 -0.28455165525E+01  0.36569158506E+02 -0.17543230225E+02  0.40659134829E+02  0.00000000000E+00 0. -1.
         11    1    3    3    0    0  0.95968201541E+01 -0.16891137655E+02  0.10610428833E+02  0.22135733298E+02  0.51100000000E-03 0. -1.
        -11    1    3    3    0    0 -0.69183801167E+01  0.42816513591E+00 -0.51613803341E+00  0.69508062521E+01  0.51100000000E-03 0.  1.
        -12    1    3    3    0    0  0.16707651512E+00 -0.20106185987E+02  0.74489394255E+01  0.21442325622E+02  0.00000000000E+00 0.  1.
</event>
<event>
 7    1  0.5849044E-013  0.5052886E+02  0.7816164E-02  0.1300439E+00
        -11   -1    0    0    0    0  0.00000000000E+00  0.00000000000E+00  0.45593999997E+02  0.45594000000E+02  0.51100000000E-03 0. -1.
         11   -1    0    0    0    0 -0.00000000000E+00 -0.00000000000E+00 -0.45593999997E+02  0.45594000000E+02  0.51100000000E-03 0.  1.
    9900012    2    1    2    0    0 -0.13991219995E+02  0.22257850131E+02 -0.31016112280E+02  0.50528863875E+02  0.30000012236E+02 0.  0.
         12    1    1    2    0    0  0.13991219995E+02 -0.22257850131E+02  0.31016112280E+02  0.40659136125E+02  0.00000000000E+00 0. -1.
         11    1    3    3    0    0  0.34868948817E+01  0.12314334139E+02 -0.26219781994E+02  0.29176672691E+02  0.51100000000E-03 0. -1.
        -11    1    3    3    0    0 -0.55962062180E+01  0.37251343678E+01  0.89840947927E+00  0.67824250785E+01  0.51100000000E-03 0.  1.
         12    1    3    3    0    0 -0.11881908659E+02  0.62183816236E+01 -0.56947397655E+01  0.14569766106E+02  0.00000000000E+00 0. -1.
</event>
<event>
 7    1  0.5849044E-013  0.5052886E+02  0.7816164E-02  0.1300439E+00
        -11   -1    0    0    0    0  0.00000000000E+00  0.00000000000E+00  0.45593999997E+02  0.45594000000E+02  0.51100000000E-03 0.  1.
         11   -1    0    0    0    0 -0.00000000000E+00 -0.00000000000E+00 -0.45593999997E+02  0.45594000000E+02  0.51100000000E-03 0. -1.
    9900012    2    1    2    0    0 -0.17164861164E+02  0.30415612683E+02  0.20818826737E+02  0.50528862031E+02  0.30000006630E+02 0.  0.
         12    1    1    2    0    0  0.17164861164E+02 -0.30415612683E+02 -0.20818826737E+02  0.40659137969E+02  0.00000000000E+00 0. -1.
         11    1    3    3    0    0 -0.18377278236E+02  0.30701083520E+02  0.16006899591E+02  0.39198236177E+02  0.51100000000E-03 0. -1.
        -11    1    3    3    0    0 -0.24820084005E+01 -0.39533497624E+01  0.75061477903E+00  0.47278708582E+01  0.51100000000E-03 0.  1.
         12    1    3    3    0    0  0.36944254727E+01  0.36678789257E+01  0.40613123673E+01  0.66027549956E+01  0.00000000000E+00 0. -1.
</event>
<event>
 7    1  0.5849044E-013  0.5052886E+02  0.7816164E-02  0.1300439E+00
        -11   -1    0    0    0    0  0.00000000000E+00  0.00000000000E+00  0.45593999997E+02  0.45594000000E+02  0.51100000000E-03 0.  1.
         11   -1    0    0    0    0 -0.00000000000E+00 -0.00000000000E+00 -0.45593999997E+02  0.45594000000E+02  0.51100000000E-03 0. -1.
    9900012    2    1    2    0    0 -0.31272879731E+02  0.48763653303E+01  0.25522417581E+02  0.50528859027E+02  0.29999997499E+02 0.  0.
         12    1    1    2    0    0  0.31272879731E+02 -0.48763653303E+01 -0.25522417581E+02  0.40659140973E+02  0.00000000000E+00 0. -1.
         11    1    3    3    0    0 -0.57915059886E+01  0.61837669194E+01 -0.41291891361E+01  0.94250049396E+01  0.51100000000E-03 0. -1.
        -11    1    3    3    0    0 -0.96046775130E+01  0.39887322169E+01  0.17730645564E+02  0.20555670926E+02  0.51100000000E-03 0.  1.
         12    1    3    3    0    0 -0.15876696229E+02 -0.52961338060E+01  0.11920961153E+02  0.20548183162E+02  0.00000000000E+00 0. -1.
</event>
<event>
 7    1  0.5849044E-013  0.5052886E+02  0.7816164E-02  0.1300439E+00
        -11   -1    0    0    0    0  0.00000000000E+00  0.00000000000E+00  0.45593999997E+02  0.45594000000E+02  0.51100000000E-03 0.  1.
         11   -1    0    0    0    0 -0.00000000000E+00 -0.00000000000E+00 -0.45593999997E+02  0.45594000000E+02  0.51100000000E-03 0. -1.
    9900012    2    1    2    0    0 -0.11769458227E+02  0.24154864189E+02  0.30515376692E+02  0.50528858032E+02  0.29999994473E+02 0.  0.
         12    1    1    2    0    0  0.11769458227E+02 -0.24154864189E+02 -0.30515376692E+02  0.40659141968E+02  0.00000000000E+00 0. -1.
         11    1    3    3    0    0 -0.18084436828E+02  0.11052373419E+02  0.11596341830E+02  0.24159407230E+02  0.51100000000E-03 0. -1.
        -11    1    3    3    0    0  0.33724245314E+00  0.11182047574E+02  0.79280602628E+01  0.13711530192E+02  0.51100000000E-03 0.  1.
         12    1    3    3    0    0  0.59777361484E+01  0.19204431964E+01  0.10990974599E+02  0.12657920610E+02  0.00000000000E+00 0. -1.
</event>
<event>
 7    1  0.5849044E-013  0.5052886E+02  0.7816164E-02  0.1300439E+00
        -11   -1    0    0    0    0  0.00000000000E+00  0.00000000000E+00  0.45593999997E+02  0.45594000000E+02  0.51100000000E-03 0. -1.
         11   -1    0    0    0    0 -0.00000000000E+00 -0.00000000000E+00 -0.45593999997E+02  0.45594000000E+02  0.51100000000E-03 0.  1.
    9900012    2    1    2    0    0  0.28255125694E+02  0.28978341776E+02 -0.38819018054E+01  0.50528861031E+02  0.30000003589E+02 0.  0.
         12    1    1    2    0    0 -0.28255125694E+02 -0.28978341776E+02  0.38819018054E+01  0.40659138969E+02  0.00000000000E+00 0. -1.
         11    1    3    3    0    0  0.29894561838E+01 -0.40793635292E+01  0.44461067200E+01  0.67339379493E+01  0.51100000000E-03 0. -1.
        -11    1    3    3    0    0  0.21345147527E+02  0.19608349674E+02 -0.58197948845E+01  0.29563029490E+02  0.51100000000E-03 0.  1.
         12    1    3    3    0    0  0.39205219834E+01  0.13449355632E+02 -0.25082136409E+01  0.14231893591E+02  0.00000000000E+00 0. -1.
</event>
<event>
 7    1  0.5849044E-013  0.5052885E+02  0.7816164E-02  0.1300439E+00
        -11   -1    0    0    0    0  0.00000000000E+00  0.00000000000E+00  0.45593999997E+02  0.45594000000E+02  0.51100000000E-03 0.  1.
         11   -1    0    0    0    0 -0.00000000000E+00 -0.00000000000E+00 -0.45593999997E+02  0.45594000000E+02  0.51100000000E-03 0. -1.
    9900012    2    1    2    0    0  0.69400338345E+01 -0.97948989415E-02  0.40062478472E+02  0.50528851621E+02  0.29999974987E+02 0.  0.
         12    1    1    2    0    0 -0.69400338345E+01  0.97948989415E-02 -0.40062478472E+02  0.40659148379E+02  0.00000000000E+00 0. -1.
         11    1    3    3    0    0  0.70355197557E+01  0.15136606216E+01  0.27407241961E+02  0.28336312726E+02  0.51100000000E-03 0.  1.
        -11    1    3    3    0    0 -0.68861950728E+01 -0.12231574670E+01 -0.87728868173E+00  0.70487894324E+01  0.51100000000E-03 0. -1.
         12    1    3    3    0    0  0.67907091516E+01 -0.30029805358E+00  0.13532525193E+02  0.15143749463E+02  0.00000000000E+00 0. -1.
</event>
<event>
 7    1  0.5849044E-013  0.5052886E+02  0.7816164E-02  0.1300439E+00
        -11   -1    0    0    0    0  0.00000000000E+00  0.00000000000E+00  0.45593999997E+02  0.45594000000E+02  0.51100000000E-03 0. -1.
         11   -1    0    0    0    0 -0.00000000000E+00 -0.00000000000E+00 -0.45593999997E+02  0.45594000000E+02  0.51100000000E-03 0.  1.
    9900012    2    1    2    0    0 -0.16987008385E+02  0.31064615802E+02 -0.19989913883E+02  0.50528862456E+02  0.30000007921E+02 0.  0.
         12    1    1    2    0    0  0.16987008385E+02 -0.31064615802E+02  0.19989913883E+02  0.40659137544E+02  0.00000000000E+00 0. -1.
         11    1    3    3    0    0  0.13125141746E+01  0.70687849925E+01 -0.45750673718E+01  0.85218341011E+01  0.51100000000E-03 0. -1.
        -11    1    3    3    0    0 -0.20292326764E+02  0.21664216330E+02 -0.20495793219E+02  0.36072071394E+02  0.51100000000E-03 0.  1.
        -12    1    3    3    0    0  0.19928042045E+01  0.23316144791E+01  0.50809467079E+01  0.59349569607E+01  0.00000000000E+00 0.  1.
</event>
<event>
 7    1  0.5849044E-013  0.5052886E+02  0.7816164E-02  0.1300439E+00
        -11   -1    0    0    0    0  0.00000000000E+00  0.00000000000E+00  0.45593999997E+02  0.45594000000E+02  0.51100000000E-03 0.  1.
         11   -1    0    0    0    0 -0.00000000000E+00 -0.00000000000E+00 -0.45593999997E+02  0.45594000000E+02  0.51100000000E-03 0. -1.
    9900012    2    1    2    0    0  0.82602482602E+01 -0.36661288494E+02  0.15520426289E+02  0.50528863172E+02  0.30000010099E+02 0.  0.
         12    1    1    2    0    0 -0.82602482602E+01  0.36661288494E+02 -0.15520426289E+02  0.40659136828E+02  0.00000000000E+00 0. -1.
         11    1    3    3    0    0 -0.90059387784E+00 -0.48513040084E+01 -0.46358484227E+01  0.67703257510E+01  0.51100000000E-03 0. -1.
        -11    1    3    3    0    0  0.14294595563E+02 -0.29601171953E+02  0.14917932233E+02  0.36098608639E+02  0.51100000000E-03 0.  1.
        -12    1    3    3    0    0 -0.51337534247E+01 -0.22088125328E+01  0.52383424791E+01  0.76599287829E+01  0.00000000000E+00 0.  1.
</event>
<event>
 7    1  0.5849044E-013  0.5052886E+02  0.7816164E-02  0.1300439E+00
        -11   -1    0    0    0    0  0.00000000000E+00  0.00000000000E+00  0.45593999997E+02  0.45594000000E+02  0.51100000000E-03 0.  1.
         11   -1    0    0    0    0 -0.00000000000E+00 -0.00000000000E+00 -0.45593999997E+02  0.45594000000E+02  0.51100000000E-03 0. -1.
    9900012    2    1    2    0    0 -0.33561103970E+02 -0.86383702235E+01  0.21264904938E+02  0.50528864227E+02  0.30000013304E+02 0.  0.
         12    1    1    2    0    0  0.33561103970E+02  0.86383702235E+01 -0.21264904938E+02  0.40659135773E+02  0.00000000000E+00 0. -1.
         11    1    3    3    0    0 -0.15337956817E+02 -0.28747007941E+01 -0.11877945771E+01  0.15650165501E+02  0.51100000000E-03 0. -1.
        -11    1    3    3    0    0 -0.11192000836E+02 -0.12453755987E+02  0.16418196283E+02  0.23450247128E+02  0.51100000000E-03 0.  1.
        -12    1    3    3    0    0 -0.70311463171E+01  0.66900865579E+01  0.60345032324E+01  0.11428451599E+02  0.00000000000E+00 0.  1.
</event>
<event>
 7    1  0.5849044E-013  0.5052886E+02  0.7816164E-02  0.1300439E+00
        -11   -1    0    0    0    0  0.00000000000E+00  0.00000000000E+00  0.45593999997E+02  0.45594000000E+02  0.51100000000E-03 0.  1.
         11   -1    0    0    0    0 -0.00000000000E+00 -0.00000000000E+00 -0.45593999997E+02  0.45594000000E+02  0.51100000000E-03 0. -1.
    9900012    2    1    2    0    0 -0.73728396206E+01  0.30155826182E+02  0.26257055601E+02  0.50528860983E+02  0.30000003443E+02 0.  0.
         12    1    1    2    0    0  0.73728396206E+01 -0.30155826182E+02 -0.26257055601E+02  0.40659139017E+02  0.00000000000E+00 0. -1.
         11    1    3    3    0    0  0.32987489296E+01 -0.51839940356E+00  0.23752459164E+01  0.40978379503E+01  0.51100000000E-03 0. -1.
        -11    1    3    3    0    0 -0.84065929776E+01  0.93031230879E+01 -0.20995844259E+01  0.12713267074E+02  0.51100000000E-03 0.  1.
        -12    1    3    3    0    0 -0.22649955725E+01  0.21371102498E+02  0.25981394110E+02  0.33717755958E+02  0.00000000000E+00 0.  1.
</event>
<event>
 7    1  0.5849044E-013  0.5052888E+02  0.7816164E-02  0.1300439E+00
        -11   -1    0    0    0    0  0.00000000000E+00  0.00000000000E+00  0.45593999997E+02  0.45594000000E+02  0.51100000000E-03 0.  1.
         11   -1    0    0    0    0 -0.00000000000E+00 -0.00000000000E+00 -0.45593999997E+02  0.45594000000E+02  0.51100000000E-03 0. -1.
    9900012    2    1    2    0    0 -0.93665077756E+01 -0.29679826758E+01  0.39454071800E+02  0.50528878382E+02  0.30000056331E+02 0.  0.
         12    1    1    2    0    0  0.93665077756E+01  0.29679826758E+01 -0.39454071800E+02  0.40659121618E+02  0.00000000000E+00 0. -1.
         11    1    3    3    0    0 -0.84874791296E+01  0.62517655887E+01  0.25201957185E+02  0.27317769330E+02  0.51100000000E-03 0. -1.
        -11    1    3    3    0    0 -0.27780288295E+01 -0.73018635260E+01 -0.86019342805E+00  0.78596811720E+01  0.51100000000E-03 0.  1.
        -12    1    3    3    0    0  0.18990001835E+01 -0.19178847385E+01  0.15112308044E+02  0.15351427881E+02  0.00000000000E+00 0.  1.
</event>
<event>
 7    1  0.5849044E-013  0.5052886E+02  0.7816164E-02  0.1300439E+00
        -11   -1    0    0    0    0  0.00000000000E+00  0.00000000000E+00  0.45593999997E+02  0.45594000000E+02  0.51100000000E-03 0.  1.
         11   -1    0    0    0    0 -0.00000000000E+00 -0.00000000000E+00 -0.45593999997E+02  0.45594000000E+02  0.51100000000E-03 0. -1.
    9900012    2    1    2    0    0  0.17304980683E+02 -0.25801441784E+02  0.26229545961E+02  0.50528857905E+02  0.29999994089E+02 0.  0.
         12    1    1    2    0    0 -0.17304980683E+02  0.25801441784E+02 -0.26229545961E+02  0.40659142095E+02  0.00000000000E+00 0. -1.
         11    1    3    3    0    0 -0.87490713840E+00 -0.80130534529E+01  0.20653487495E+02  0.22170724709E+02  0.51100000000E-03 0. -1.
        -11    1    3    3    0    0  0.12939642411E+02 -0.51944650660E+01  0.46003384987E+01  0.14682640349E+02  0.51100000000E-03 0.  1.
         12    1    3    3    0    0  0.52402454102E+01 -0.12593923265E+02  0.97571996687E+00  0.13675492847E+02  0.00000000000E+00 0. -1.
</event>
<event>
 7    1  0.5849044E-013  0.5052886E+02  0.7816164E-02  0.1300439E+00
        -11   -1    0    0    0    0  0.00000000000E+00  0.00000000000E+00  0.45593999997E+02  0.45594000000E+02  0.51100000000E-03 0. -1.
         11   -1    0    0    0    0 -0.00000000000E+00 -0.00000000000E+00 -0.45593999997E+02  0.45594000000E+02  0.51100000000E-03 0.  1.
    9900012    2    1    2    0    0  0.12456247734E+02 -0.23719394575E+02 -0.30584276083E+02  0.50528859206E+02  0.29999998041E+02 0.  0.
         12    1    1    2    0    0 -0.12456247734E+02  0.23719394575E+02  0.30584276083E+02  0.40659140794E+02  0.00000000000E+00 0. -1.
         11    1    3    3    0    0  0.13764239981E+02 -0.76981585271E+01 -0.14929529103E+01  0.15841239081E+02  0.51100000000E-03 0. -1.
        -11    1    3    3    0    0  0.14203467529E+01 -0.65068759534E+00  0.11973262242E+00  0.15668807891E+01  0.51100000000E-03 0.  1.
         12    1    3    3    0    0 -0.27283390005E+01 -0.15370548453E+02 -0.29211055795E+02  0.33120739335E+02  0.00000000000E+00 0. -1.
</event>
<event>
 7    1  0.5849044E-013  0.5052885E+02  0.7816164E-02  0.1300439E+00
        -11   -1    0    0    0    0  0.00000000000E+00  0.00000000000E+00  0.45593999997E+02  0.45594000000E+02  0.51100000000E-03 0. -1.
         11   -1    0    0    0    0 -0.00000000000E+00 -0.00000000000E+00 -0.45593999997E+02  0.45594000000E+02  0.51100000000E-03 0.  1.
    9900012    2    1    2    0    0  0.47493221263E+01  0.31767609805E+01 -0.40255665002E+02  0.50528850528E+02  0.29999971666E+02 0.  0.
         12    1    1    2    0    0 -0.47493221263E+01 -0.31767609805E+01  0.40255665002E+02  0.40659149472E+02  0.00000000000E+00 0. -1.
         11    1    3    3    0    0  0.12671397665E+01 -0.11016656553E+02 -0.18448753987E+02  0.21525075812E+02  0.51100000000E-03 0. -1.
        -11    1    3    3    0    0  0.34520498772E+01  0.66139773945E+01 -0.18942524973E+01  0.76973721564E+01  0.51100000000E-03 0.  1.
        -12    1    3    3    0    0  0.30132482493E-01  0.75794401390E+01 -0.19912658518E+02  0.21306402560E+02  0.00000000000E+00 0.  1.
</event>
<event>
 7    1  0.5849044E-013  0.5052885E+02  0.7816164E-02  0.1300439E+00
        -11   -1    0    0    0    0  0.00000000000E+00  0.00000000000E+00  0.45593999997E+02  0.45594000000E+02  0.51100000000E-03 0.  1.
         11   -1    0    0    0    0 -0.00000000000E+00 -0.00000000000E+00 -0.45593999997E+02  0.45594000000E+02  0.51100000000E-03 0. -1.
    9900012    2    1    2    0    0  0.26219826924E+02  0.21833676901E+02  0.22112838656E+02  0.50528850915E+02  0.29999972840E+02 0.  0.
         12    1    1    2    0    0 -0.26219826924E+02 -0.21833676901E+02 -0.22112838656E+02  0.40659149085E+02  0.00000000000E+00 0. -1.
         11    1    3    3    0    0  0.37518451905E+00  0.21731387595E+00  0.74399509052E+01  0.74525739498E+01  0.51100000000E-03 0. -1.
        -11    1    3    3    0    0  0.26183261826E+02  0.21908194894E+02  0.63304229182E+01  0.34721844103E+02  0.51100000000E-03 0.  1.
        -12    1    3    3    0    0 -0.33861942107E+00 -0.29183186967E+00  0.83424648328E+01  0.83544328616E+01  0.00000000000E+00 0.  1.
</event>
<event>
 7    1  0.5849044E-013  0.5052887E+02  0.7816164E-02  0.1300439E+00
        -11   -1    0    0    0    0  0.00000000000E+00  0.00000000000E+00  0.45593999997E+02  0.45594000000E+02  0.51100000000E-03 0.  1.
         11   -1    0    0    0    0 -0.00000000000E+00 -0.00000000000E+00 -0.45593999997E+02  0.45594000000E+02  0.51100000000E-03 0. -1.
    9900012    2    1    2    0    0  0.59525670377E+01 -0.16021570211E+02  0.36892294412E+02  0.50528866299E+02  0.30000019602E+02 0.  0.
         12    1    1    2    0    0 -0.59525670377E+01  0.16021570211E+02 -0.36892294412E+02  0.40659133701E+02  0.00000000000E+00 0. -1.
         11    1    3    3    0    0 -0.14795892499E+01 -0.78520735897E+01 -0.22368951283E+01  0.82974661243E+01  0.51100000000E-03 0. -1.
        -11    1    3    3    0    0  0.79475031553E+01 -0.10495181991E+02  0.35750734657E+02  0.38097594152E+02  0.51100000000E-03 0.  1.
        -12    1    3    3    0    0 -0.51534686768E+00  0.23256853698E+01  0.33784548834E+01  0.41338060226E+01  0.00000000000E+00 0.  1.
</event>
<event>
 7    1  0.5849044E-013  0.5052886E+02  0.7816164E-02  0.1300439E+00
        -11   -1    0    0    0    0  0.00000000000E+00  0.00000000000E+00  0.45593999997E+02  0.45594000000E+02  0.51100000000E-03 0. -1.
         11   -1    0    0    0    0 -0.00000000000E+00 -0.00000000000E+00 -0.45593999997E+02  0.45594000000E+02  0.51100000000E-03 0.  1.
    9900012    2    1    2    0    0  0.21081669213E+02  0.27909401729E+02 -0.20731481937E+02  0.50528858039E+02  0.29999994496E+02 0.  0.
         12    1    1    2    0    0 -0.21081669213E+02 -0.27909401729E+02  0.20731481937E+02  0.40659141961E+02  0.00000000000E+00 0. -1.
         11    1    3    3    0    0  0.31782478867E+01  0.12206569534E+02 -0.21592658922E+02  0.25006889431E+02  0.51100000000E-03 0. -1.
        -11    1    3    3    0    0  0.17281144683E+02  0.13386002838E+02  0.32932452866E+01  0.22105847604E+02  0.51100000000E-03 0.  1.
        -12    1    3    3    0    0  0.62227664372E+00  0.23168293568E+01 -0.24320683019E+01  0.34161210042E+01  0.00000000000E+00 0.  1.
</event>
<event>
 7    1  0.5849044E-013  0.5052886E+02  0.7816164E-02  0.1300439E+00
        -11   -1    0    0    0    0  0.00000000000E+00  0.00000000000E+00  0.45593999997E+02  0.45594000000E+02  0.51100000000E-03 0. -1.
         11   -1    0    0    0    0 -0.00000000000E+00 -0.00000000000E+00 -0.45593999997E+02  0.45594000000E+02  0.51100000000E-03 0.  1.
    9900012    2    1    2    0    0 -0.10640196772E+02 -0.37021396007E+02  0.13014155430E+02  0.50528858454E+02  0.29999995758E+02 0.  0.
         12    1    1    2    0    0  0.10640196772E+02  0.37021396007E+02 -0.13014155430E+02  0.40659141546E+02  0.00000000000E+00 0. -1.
         11    1    3    3    0    0  0.33599152720E+01 -0.13571996762E+02  0.13004084626E+02  0.19094353719E+02  0.51100000000E-03 0. -1.
        -11    1    3    3    0    0 -0.79075726514E+01 -0.24018533327E+02  0.54021113611E+00  0.25292518197E+02  0.51100000000E-03 0.  1.
        -12    1    3    3    0    0 -0.60925393929E+01  0.56913408228E+00 -0.53014033183E+00  0.61419865377E+01  0.00000000000E+00 0.  1.
</event>
<event>
 7    1  0.5849044E-013  0.5052886E+02  0.7816164E-02  0.1300439E+00
        -11   -1    0    0    0    0  0.00000000000E+00  0.00000000000E+00  0.45593999997E+02  0.45594000000E+02  0.51100000000E-03 0. -1.
         11   -1    0    0    0    0 -0.00000000000E+00 -0.00000000000E+00 -0.45593999997E+02  0.45594000000E+02  0.51100000000E-03 0.  1.
    9900012    2    1    2    0    0  0.31015115737E+02  0.12210217693E+02 -0.23283869113E+02  0.50528863497E+02  0.30000011086E+02 0.  0.
         12    1    1    2    0    0 -0.31015115737E+02 -0.12210217693E+02  0.23283869113E+02  0.40659136503E+02  0.00000000000E+00 0. -1.
         11    1    3    3    0    0  0.22742262011E+02  0.13035130036E+01 -0.13828527451E+02  0.26648410820E+02  0.51100000000E-03 0. -1.
        -11    1    3    3    0    0 -0.19195377114E+01 -0.24431968685E+01  0.18667557518E+01  0.36247225082E+01  0.51100000000E-03 0.  1.
        -12    1    3    3    0    0  0.10192391438E+02  0.13349901558E+02 -0.11322097414E+02  0.20255730169E+02  0.00000000000E+00 0.  1.
</event>
<event>
 7    1  0.5849044E-013  0.5052887E+02  0.7816164E-02  0.1300439E+00
        -11   -1    0    0    0    0  0.00000000000E+00  0.00000000000E+00  0.45593999997E+02  0.45594000000E+02  0.51100000000E-03 0.  1.
         11   -1    0    0    0    0 -0.00000000000E+00 -0.00000000000E+00 -0.45593999997E+02  0.45594000000E+02  0.51100000000E-03 0. -1.
    9900012    2    1    2    0    0 -0.31825304393E+02  0.17696560229E+02  0.18087199578E+02  0.50528867788E+02  0.30000024130E+02 0.  0.
         12    1    1    2    0    0  0.31825304393E+02 -0.17696560229E+02 -0.18087199578E+02  0.40659132212E+02  0.00000000000E+00 0. -1.
         11    1    3    3    0    0 -0.84754951078E+01 -0.25714884588E+01 -0.33772997350E+01  0.94790676745E+01  0.51100000000E-03 0. -1.
        -11    1    3    3    0    0 -0.21716120687E+02  0.18742662776E+02  0.11612049497E+02  0.30947003076E+02  0.51100000000E-03 0.  1.
         12    1    3    3    0    0 -0.16336885987E+01  0.15253859120E+01  0.98524498160E+01  0.10102797038E+02  0.00000000000E+00 0. -1.
</event>
<event>
 7    1  0.5849044E-013  0.5052885E+02  0.7816164E-02  0.1300439E+00
        -11   -1    0    0    0    0  0.00000000000E+00  0.00000000000E+00  0.45593999997E+02  0.45594000000E+02  0.51100000000E-03 0.  1.
         11   -1    0    0    0    0 -0.00000000000E+00 -0.00000000000E+00 -0.45593999997E+02  0.45594000000E+02  0.51100000000E-03 0. -1.
    9900012    2    1    2    0    0 -0.20631778466E+02  0.24694857545E+02  0.24852762767E+02  0.50528854793E+02  0.29999984629E+02 0.  0.
         12    1    1    2    0    0  0.20631778466E+02 -0.24694857545E+02 -0.24852762767E+02  0.40659145207E+02  0.00000000000E+00 0. -1.
         11    1    3    3    0    0 -0.24016753561E+02  0.28643992103E+02  0.19839307025E+02  0.42318800062E+02  0.51100000000E-03 0. -1.
        -11    1    3    3    0    0  0.29352712285E+01 -0.32753974053E+01  0.15659206654E+01  0.46686350402E+01  0.51100000000E-03 0.  1.
         12    1    3    3    0    0  0.44970386658E+00 -0.67373715337E+00  0.34475350769E+01  0.35414196907E+01  0.00000000000E+00 0. -1.
</event>
<event>
 7    1  0.5849044E-013  0.5052886E+02  0.7816164E-02  0.1300439E+00
        -11   -1    0    0    0    0  0.00000000000E+00  0.00000000000E+00  0.45593999997E+02  0.45594000000E+02  0.51100000000E-03 0.  1.
         11   -1    0    0    0    0 -0.00000000000E+00 -0.00000000000E+00 -0.45593999997E+02  0.45594000000E+02  0.51100000000E-03 0. -1.
    9900012    2    1    2    0    0  0.36279046398E+01 -0.18861160484E+02  0.35836577738E+02  0.50528863624E+02  0.30000011470E+02 0.  0.
         12    1    1    2    0    0 -0.36279046398E+01  0.18861160484E+02 -0.35836577738E+02  0.40659136376E+02  0.00000000000E+00 0. -1.
         11    1    3    3    0    0 -0.81554957440E+00  0.25088081402E+01  0.61121919178E+01  0.66571863196E+01  0.51100000000E-03 0. -1.
        -11    1    3    3    0    0 -0.15307900241E+00 -0.92275930922E+01 -0.21313478717E+01  0.94717765740E+01  0.51100000000E-03 0.  1.
        -12    1    3    3    0    0  0.45965332166E+01 -0.12142375532E+02  0.31855733692E+02  0.34399900730E+02  0.00000000000E+00 0.  1.
</event>
<event>
 7    1  0.5849044E-013  0.5052886E+02  0.7816164E-02  0.1300439E+00
        -11   -1    0    0    0    0  0.00000000000E+00  0.00000000000E+00  0.45593999997E+02  0.45594000000E+02  0.51100000000E-03 0.  1.
         11   -1    0    0    0    0 -0.00000000000E+00 -0.00000000000E+00 -0.45593999997E+02  0.45594000000E+02  0.51100000000E-03 0. -1.
    9900012    2    1    2    0    0  0.29040760144E+01  0.13988635297E+02  0.38066388779E+02  0.50528861671E+02  0.30000005534E+02 0.  0.
         12    1    1    2    0    0 -0.29040760144E+01 -0.13988635297E+02 -0.38066388779E+02  0.40659138329E+02  0.00000000000E+00 0. -1.
         11    1    3    3    0    0 -0.37692472871E-02  0.65066144080E+01  0.43487689830E+01  0.78260997432E+01  0.51100000000E-03 0. -1.
        -11    1    3    3    0    0  0.61559846162E+01 -0.61410753428E+01  0.24344056245E+02  0.25850377709E+02  0.51100000000E-03 0.  1.
        -12    1    3    3    0    0 -0.32481393546E+01  0.13623096232E+02  0.93735635515E+01  0.16852384219E+02  0.00000000000E+00 0.  1.
</event>
<event>
 7    1  0.5849044E-013  0.5052887E+02  0.7816164E-02  0.1300439E+00
        -11   -1    0    0    0    0  0.00000000000E+00  0.00000000000E+00  0.45593999997E+02  0.45594000000E+02  0.51100000000E-03 0. -1.
         11   -1    0    0    0    0 -0.00000000000E+00 -0.00000000000E+00 -0.45593999997E+02  0.45594000000E+02  0.51100000000E-03 0.  1.
    9900012    2    1    2    0    0  0.87777199081E+00 -0.37668863794E+02 -0.15279117499E+02  0.50528865544E+02  0.30000017306E+02 0.  0.
         12    1    1    2    0    0 -0.87777199081E+00  0.37668863794E+02  0.15279117499E+02  0.40659134456E+02  0.00000000000E+00 0. -1.
         11    1    3    3    0    0  0.10522528208E+01 -0.13411753917E+00  0.22473375925E+01  0.24851056374E+01  0.51100000000E-03 0. -1.
        -11    1    3    3    0    0 -0.77220470591E+01 -0.16285140682E+02 -0.18022424361E+02  0.25488106990E+02  0.51100000000E-03 0.  1.
        -12    1    3    3    0    0  0.75475662291E+01 -0.21249605572E+02  0.49596926898E+00  0.22555652916E+02  0.00000000000E+00 0.  1.
</event>
<event>
 7    1  0.5849044E-013  0.5052888E+02  0.7816164E-02  0.1300439E+00
        -11   -1    0    0    0    0  0.00000000000E+00  0.00000000000E+00  0.45593999997E+02  0.45594000000E+02  0.51100000000E-03 0.  1.
         11   -1    0    0    0    0 -0.00000000000E+00 -0.00000000000E+00 -0.45593999997E+02  0.45594000000E+02  0.51100000000E-03 0. -1.
    9900012    2    1    2    0    0  0.96498043948E+01  0.15606395015E+02  0.36283403338E+02  0.50528884811E+02  0.30000075870E+02 0.  0.
         12    1    1    2    0    0 -0.96498043948E+01 -0.15606395015E+02 -0.36283403338E+02  0.40659115189E+02  0.00000000000E+00 0. -1.
         11    1    3    3    0    0 -0.11541423723E+01  0.12354124701E+01 -0.16787893450E+01  0.23825663711E+01  0.51100000000E-03 0. -1.
        -11    1    3    3    0    0  0.11008849841E+02  0.19975377907E+02  0.24045168367E+02  0.33141825831E+02  0.51100000000E-03 0.  1.
        -12    1    3    3    0    0 -0.20490307386E+00 -0.56043953620E+01  0.13917024315E+02  0.15004492608E+02  0.00000000000E+00 0.  1.
</event>
<event>
 7    1  0.5849044E-013  0.5052886E+02  0.7816164E-02  0.1300439E+00
        -11   -1    0    0    0    0  0.00000000000E+00  0.00000000000E+00  0.45593999997E+02  0.45594000000E+02  0.51100000000E-03 0.  1.
         11   -1    0    0    0    0 -0.00000000000E+00 -0.00000000000E+00 -0.45593999997E+02  0.45594000000E+02  0.51100000000E-03 0. -1.
    9900012    2    1    2    0    0 -0.23974582782E+02 -0.18542510135E+02  0.27102776005E+02  0.50528858730E+02  0.29999996595E+02 0.  0.
         12    1    1    2    0    0  0.23974582782E+02  0.18542510135E+02 -0.27102776005E+02  0.40659141270E+02  0.00000000000E+00 0. -1.
         11    1    3    3    0    0 -0.20365512901E+02 -0.24612655338E+02  0.16686039608E+02  0.36041099270E+02  0.51100000000E-03 0. -1.
        -11    1    3    3    0    0 -0.28746552866E+00  0.51774872801E+01  0.96633727208E+01  0.10966758116E+02  0.51100000000E-03 0.  1.
         12    1    3    3    0    0 -0.33216043520E+01  0.89265792247E+00  0.75336367574E+00  0.35210013441E+01  0.00000000000E+00 0. -1.
</event>
<event>
 7    1  0.5849044E-013  0.5052888E+02  0.7816164E-02  0.1300439E+00
        -11   -1    0    0    0    0  0.00000000000E+00  0.00000000000E+00  0.45593999997E+02  0.45594000000E+02  0.51100000000E-03 0.  1.
         11   -1    0    0    0    0 -0.00000000000E+00 -0.00000000000E+00 -0.45593999997E+02  0.45594000000E+02  0.51100000000E-03 0. -1.
    9900012    2    1    2    0    0 -0.36330414542E+02 -0.11165550440E+02  0.14442833335E+02  0.50528880824E+02  0.30000063754E+02 0.  0.
         12    1    1    2    0    0  0.36330414542E+02  0.11165550440E+02 -0.14442833335E+02  0.40659119176E+02  0.00000000000E+00 0. -1.
         11    1    3    3    0    0 -0.80490880531E+01 -0.61515236174E+01 -0.35621906980E+01  0.10738634184E+02  0.51100000000E-03 0. -1.
        -11    1    3    3    0    0 -0.25516648998E+02 -0.12872964834E+01  0.21962677083E+02  0.33691478050E+02  0.51100000000E-03 0.  1.
        -12    1    3    3    0    0 -0.27646774908E+01 -0.37267303397E+01 -0.39576530504E+01  0.60987685905E+01  0.00000000000E+00 0.  1.
</event>
<event>
 7    1  0.5849044E-013  0.5052886E+02  0.7816164E-02  0.1300439E+00
        -11   -1    0    0    0    0  0.00000000000E+00  0.00000000000E+00  0.45593999997E+02  0.45594000000E+02  0.51100000000E-03 0.  1.
         11   -1    0    0    0    0 -0.00000000000E+00 -0.00000000000E+00 -0.45593999997E+02  0.45594000000E+02  0.51100000000E-03 0. -1.
    9900012    2    1    2    0    0 -0.13301776062E+02  0.20623254282E+02 -0.32417743753E+02  0.50528856211E+02  0.29999988940E+02 0.  0.
         12    1    1    2    0    0  0.13301776062E+02 -0.20623254282E+02  0.32417743753E+02  0.40659143789E+02  0.00000000000E+00 0. -1.
         11    1    3    3    0    0 -0.11518163817E+02  0.58783810222E+01 -0.30123148848E+02  0.32781512442E+02  0.51100000000E-03 0. -1.
        -11    1    3    3    0    0 -0.23397618743E+01  0.14888177723E+02 -0.42910783365E+01  0.15669897099E+02  0.51100000000E-03 0.  1.
         12    1    3    3    0    0  0.55614962892E+00 -0.14330446337E+00  0.19964834315E+01  0.20774466711E+01  0.00000000000E+00 0. -1.
</event>
<event>
 7    1  0.5849044E-013  0.5052882E+02  0.7816164E-02  0.1300439E+00
        -11   -1    0    0    0    0  0.00000000000E+00  0.00000000000E+00  0.45593999997E+02  0.45594000000E+02  0.51100000000E-03 0. -1.
         11   -1    0    0    0    0 -0.00000000000E+00 -0.00000000000E+00 -0.45593999997E+02  0.45594000000E+02  0.51100000000E-03 0.  1.
    9900012    2    1    2    0    0 -0.18176280355E+02 -0.19172053845E+02 -0.30906698461E+02  0.50528821136E+02  0.29999882324E+02 0.  0.
         12    1    1    2    0    0  0.18176280355E+02  0.19172053845E+02  0.30906698461E+02  0.40659178864E+02  0.00000000000E+00 0. -1.
         11    1    3    3    0    0 -0.34568103608E+01 -0.15437844443E+02 -0.98212828405E+01  0.18620799548E+02  0.51100000000E-03 0. -1.
        -11    1    3    3    0    0 -0.76177559617E+01  0.61688329263E+01 -0.32894365509E+01  0.10339492185E+02  0.51100000000E-03 0.  1.
        -12    1    3    3    0    0 -0.71017140321E+01 -0.99030423281E+01 -0.17795979069E+02  0.21568529402E+02  0.00000000000E+00 0.  1.
</event>
<event>
 7    1  0.5849044E-013  0.5052886E+02  0.7816164E-02  0.1300439E+00
        -11   -1    0    0    0    0  0.00000000000E+00  0.00000000000E+00  0.45593999997E+02  0.45594000000E+02  0.51100000000E-03 0. -1.
         11   -1    0    0    0    0 -0.00000000000E+00 -0.00000000000E+00 -0.45593999997E+02  0.45594000000E+02  0.51100000000E-03 0.  1.
    9900012    2    1    2    0    0 -0.33798815491E+02 -0.12570596072E+02  0.18782594656E+02  0.50528859869E+02  0.30000000058E+02 0.  0.
         12    1    1    2    0    0  0.33798815491E+02  0.12570596072E+02 -0.18782594656E+02  0.40659140131E+02  0.00000000000E+00 0. -1.
         11    1    3    3    0    0 -0.21653101650E+01 -0.35478268719E+01 -0.60438749985E+01  0.73351256896E+01  0.51100000000E-03 0. -1.
        -11    1    3    3    0    0 -0.23502638789E+02 -0.54799046561E+01  0.10443053328E+02  0.26295641239E+02  0.51100000000E-03 0.  1.
         12    1    3    3    0    0 -0.81308665365E+01 -0.35428645443E+01  0.14383416326E+02  0.16898092940E+02  0.00000000000E+00 0. -1.
</event>
<event>
 7    1  0.5849044E-013  0.5052889E+02  0.7816164E-02  0.1300439E+00
        -11   -1    0    0    0    0  0.00000000000E+00  0.00000000000E+00  0.45593999997E+02  0.45594000000E+02  0.51100000000E-03 0.  1.
         11   -1    0    0    0    0 -0.00000000000E+00 -0.00000000000E+00 -0.45593999997E+02  0.45594000000E+02  0.51100000000E-03 0. -1.
    9900012    2    1    2    0    0 -0.12893220765E+02  0.33954592070E+02  0.18276051266E+02  0.50528886456E+02  0.30000080870E+02 0.  0.
         12    1    1    2    0    0  0.12893220765E+02 -0.33954592070E+02 -0.18276051266E+02  0.40659113544E+02  0.00000000000E+00 0. -1.
         11    1    3    3    0    0  0.61562275595E+01  0.18498504829E+00 -0.17961262478E+01  0.64155613154E+01  0.51100000000E-03 0. -1.
        -11    1    3    3    0    0 -0.11810046610E+02  0.15684286606E+02  0.12114466572E+02  0.23070204764E+02  0.51100000000E-03 0.  1.
         12    1    3    3    0    0 -0.72394017140E+01  0.18085320416E+02  0.79577109413E+01  0.21043120376E+02  0.00000000000E+00 0. -1.
</event>
<event>
 7    1  0.5849044E-013  0.5052886E+02  0.7816164E-02  0.1300439E+00
        -11   -1    0    0    0    0  0.00000000000E+00  0.00000000000E+00  0.45593999997E+02  0.45594000000E+02  0.51100000000E-03 0.  1.
         11   -1    0    0    0    0 -0.00000000000E+00 -0.00000000000E+00 -0.45593999997E+02  0.45594000000E+02  0.51100000000E-03 0. -1.
    9900012    2    1    2    0    0 -0.20794572126E+01  0.26436963823E+02  0.30820907585E+02  0.50528861509E+02  0.30000005042E+02 0.  0.
         12    1    1    2    0    0  0.20794572126E+01 -0.26436963823E+02 -0.30820907585E+02  0.40659138491E+02  0.00000000000E+00 0. -1.
         11    1    3    3    0    0  0.53868053977E+00  0.16547065587E+02  0.71499164364E+01  0.18033770032E+02  0.51100000000E-03 0. -1.
        -11    1    3    3    0    0  0.77830575875E+01 -0.10247281408E+00  0.72214667844E+01  0.10617724279E+02  0.51100000000E-03 0.  1.
        -12    1    3    3    0    0 -0.10401195340E+02  0.99923710502E+01  0.16449524364E+02  0.21877367198E+02  0.00000000000E+00 0.  1.
</event>
<event>
 7    1  0.5849044E-013  0.5052887E+02  0.7816164E-02  0.1300439E+00
        -11   -1    0    0    0    0  0.00000000000E+00  0.00000000000E+00  0.45593999997E+02  0.45594000000E+02  0.51100000000E-03 0. -1.
         11   -1    0    0    0    0 -0.00000000000E+00 -0.00000000000E+00 -0.45593999997E+02  0.45594000000E+02  0.51100000000E-03 0.  1.
    9900012    2    1    2    0    0 -0.21634471666E+02  0.25741510445E+01 -0.34329116368E+02  0.50528870048E+02  0.30000030998E+02 0.  0.
         12    1    1    2    0    0  0.21634471666E+02 -0.25741510445E+01  0.34329116368E+02  0.40659129952E+02  0.00000000000E+00 0. -1.
         11    1    3    3    0    0 -0.39768718439E+01  0.47380447406E+01 -0.47741322311E+01  0.78138925286E+01  0.51100000000E-03 0. -1.
        -11    1    3    3    0    0 -0.15716650816E+02 -0.45286097215E+01 -0.33760818853E+02  0.37514188100E+02  0.51100000000E-03 0.  1.
        -12    1    3    3    0    0 -0.19409490055E+01  0.23647160254E+01  0.42058347164E+01  0.52007894193E+01  0.00000000000E+00 0.  1.
</event>
<event>
 7    1  0.5849044E-013  0.5052887E+02  0.7816164E-02  0.1300439E+00
        -11   -1    0    0    0    0  0.00000000000E+00  0.00000000000E+00  0.45593999997E+02  0.45594000000E+02  0.51100000000E-03 0.  1.
         11   -1    0    0    0    0 -0.00000000000E+00 -0.00000000000E+00 -0.45593999997E+02  0.45594000000E+02  0.51100000000E-03 0. -1.
    9900012    2    1    2    0    0 -0.52008670970E+01 -0.28697232202E+02  0.28329923970E+02  0.50528871299E+02  0.30000034800E+02 0.  0.
         12    1    1    2    0    0  0.52008670970E+01  0.28697232202E+02 -0.28329923970E+02  0.40659128701E+02  0.00000000000E+00 0. -1.
         11    1    3    3    0    0  0.69935187031E+01 -0.15849653234E+02  0.10088986417E+02  0.20047654693E+02  0.51100000000E-03 0. -1.
        -11    1    3    3    0    0 -0.12360203597E+02 -0.51031535004E+01  0.18384867612E+02  0.22733679112E+02  0.51100000000E-03 0.  1.
         12    1    3    3    0    0  0.16581779701E+00 -0.77444254670E+01 -0.14393005896E+00  0.77475374938E+01  0.00000000000E+00 0. -1.
</event>
<event>
 7    1  0.5849044E-013  0.5052886E+02  0.7816164E-02  0.1300439E+00
        -11   -1    0    0    0    0  0.00000000000E+00  0.00000000000E+00  0.45593999997E+02  0.45594000000E+02  0.51100000000E-03 0.  1.
         11   -1    0    0    0    0 -0.00000000000E+00 -0.00000000000E+00 -0.45593999997E+02  0.45594000000E+02  0.51100000000E-03 0. -1.
    9900012    2    1    2    0    0  0.39751403134E+02  0.30561095915E+01  0.79782009416E+01  0.50528861455E+02  0.30000004878E+02 0.  0.
         12    1    1    2    0    0 -0.39751403134E+02 -0.30561095915E+01 -0.79782009416E+01  0.40659138545E+02  0.00000000000E+00 0. -1.
         11    1    3    3    0    0  0.16863099622E+02  0.11063403741E+02  0.60433263580E+01  0.21054330313E+02  0.51100000000E-03 0. -1.
        -11    1    3    3    0    0  0.23915585217E+02 -0.43096184634E+01  0.46913270286E+01  0.24749476300E+02  0.51100000000E-03 0.  1.
        -12    1    3    3    0    0 -0.10272817048E+01 -0.36976756858E+01 -0.27564524450E+01  0.47250548420E+01  0.00000000000E+00 0.  1.
</event>
<event>
 7    1  0.5849044E-013  0.5052885E+02  0.7816164E-02  0.1300439E+00
        -11   -1    0    0    0    0  0.00000000000E+00  0.00000000000E+00  0.45593999997E+02  0.45594000000E+02  0.51100000000E-03 0. -1.
         11   -1    0    0    0    0 -0.00000000000E+00 -0.00000000000E+00 -0.45593999997E+02  0.45594000000E+02  0.51100000000E-03 0.  1.
    9900012    2    1    2    0    0 -0.18200174882E+02  0.24340118581E+02 -0.27008868351E+02  0.50528847182E+02  0.29999961496E+02 0.  0.
         12    1    1    2    0    0  0.18200174882E+02 -0.24340118581E+02  0.27008868351E+02  0.40659152818E+02  0.00000000000E+00 0. -1.
         11    1    3    3    0    0 -0.53543989446E+01  0.10368123567E+01 -0.14764396558E+02  0.15739503610E+02  0.51100000000E-03 0. -1.
        -11    1    3    3    0    0  0.34087150201E+01  0.62625018685E+01  0.18207816705E+01  0.73589071127E+01  0.51100000000E-03 0.  1.
        -12    1    3    3    0    0 -0.16254490957E+02  0.17040804355E+02 -0.14065253463E+02  0.27430436459E+02  0.00000000000E+00 0.  1.
</event>
<event>
 7    1  0.5849044E-013  0.5052882E+02  0.7816164E-02  0.1300439E+00
        -11   -1    0    0    0    0  0.00000000000E+00  0.00000000000E+00  0.45593999997E+02  0.45594000000E+02  0.51100000000E-03 0.  1.
         11   -1    0    0    0    0 -0.00000000000E+00 -0.00000000000E+00 -0.45593999997E+02  0.45594000000E+02  0.51100000000E-03 0. -1.
    9900012    2    1    2    0    0 -0.32647618619E+02 -0.90204537357E+01  0.22492967675E+02  0.50528816758E+02  0.29999869016E+02 0.  0.
         12    1    1    2    0    0  0.32647618619E+02  0.90204537357E+01 -0.22492967675E+02  0.40659183242E+02  0.00000000000E+00 0. -1.
         11    1    3    3    0    0 -0.10525076880E+02  0.78182856220E+01  0.71358957652E+01  0.14927285153E+02  0.51100000000E-03 0. -1.
        -11    1    3    3    0    0 -0.41395967773E+01 -0.87937112210E+01 -0.12962114208E+01  0.98053955976E+01  0.51100000000E-03 0.  1.
         12    1    3    3    0    0 -0.17982944962E+02 -0.80450281367E+01  0.16653283331E+02  0.25796136008E+02  0.00000000000E+00 0. -1.
</event>
<event>
 7    1  0.5849044E-013  0.5052886E+02  0.7816164E-02  0.1300439E+00
        -11   -1    0    0    0    0  0.00000000000E+00  0.00000000000E+00  0.45593999997E+02  0.45594000000E+02  0.51100000000E-03 0.  1.
         11   -1    0    0    0    0 -0.00000000000E+00 -0.00000000000E+00 -0.45593999997E+02  0.45594000000E+02  0.51100000000E-03 0. -1.
    9900012    2    1    2    0    0 -0.25579797699E+02 -0.38142179722E+01  0.31373418670E+02  0.50528859477E+02  0.29999998867E+02 0.  0.
         12    1    1    2    0    0  0.25579797699E+02  0.38142179722E+01 -0.31373418670E+02  0.40659140523E+02  0.00000000000E+00 0. -1.
         11    1    3    3    0    0 -0.51735344014E+01  0.36603580026E+01 -0.47163321778E+01  0.78998397694E+01  0.51100000000E-03 0. -1.
        -11    1    3    3    0    0 -0.46488643455E+01 -0.48021541189E+01  0.97962417573E+01  0.11859130521E+02  0.51100000000E-03 0.  1.
         12    1    3    3    0    0 -0.15757398952E+02 -0.26724218560E+01  0.26293509090E+02  0.30769889187E+02  0.00000000000E+00 0. -1.
</event>
<event>
 7    1  0.5849044E-013  0.5052886E+02  0.7816164E-02  0.1300439E+00
        -11   -1    0    0    0    0  0.00000000000E+00  0.00000000000E+00  0.45593999997E+02  0.45594000000E+02  0.51100000000E-03 0.  1.
         11   -1    0    0    0    0 -0.00000000000E+00 -0.00000000000E+00 -0.45593999997E+02  0.45594000000E+02  0.51100000000E-03 0. -1.
    9900012    2    1    2    0    0  0.21547560684E+02  0.28523779446E+02  0.19371690793E+02  0.50528858722E+02  0.29999996570E+02 0.  0.
         12    1    1    2    0    0 -0.21547560684E+02 -0.28523779446E+02 -0.19371690793E+02  0.40659141278E+02  0.00000000000E+00 0. -1.
         11    1    3    3    0    0  0.19945172215E+02  0.47189961883E+01  0.84235276142E+01  0.22159301375E+02  0.51100000000E-03 0. -1.
        -11    1    3    3    0    0  0.58715796456E+01  0.10143530781E+02  0.34830411803E+01  0.12226947304E+02  0.51100000000E-03 0.  1.
         12    1    3    3    0    0 -0.42691911766E+01  0.13661252477E+02  0.74651219982E+01  0.16142610043E+02  0.00000000000E+00 0. -1.
</event>
<event>
 7    1  0.5849044E-013  0.5052885E+02  0.7816164E-02  0.1300439E+00
        -11   -1    0    0    0    0  0.00000000000E+00  0.00000000000E+00  0.45593999997E+02  0.45594000000E+02  0.51100000000E-03 0. -1.
         11   -1    0    0    0    0 -0.00000000000E+00 -0.00000000000E+00 -0.45593999997E+02  0.45594000000E+02  0.51100000000E-03 0.  1.
    9900012    2    1    2    0    0  0.28127049312E+02  0.28998416246E+02 -0.45964832139E+01  0.50528847208E+02  0.29999961574E+02 0.  0.
         12    1    1    2    0    0 -0.28127049312E+02 -0.28998416246E+02  0.45964832139E+01  0.40659152792E+02  0.00000000000E+00 0. -1.
         11    1    3    3    0    0  0.11179707055E+02  0.19290717055E+02 -0.12834347241E+02  0.25726213941E+02  0.51100000000E-03 0.  1.
        -11    1    3    3    0    0  0.40562354492E+01  0.13355093520E+01  0.84081661265E+01  0.94304766115E+01  0.51100000000E-03 0. -1.
         12    1    3    3    0    0  0.12891106809E+02  0.83721898389E+01 -0.17030209900E+00  0.15372156656E+02  0.00000000000E+00 0. -1.
</event>
<event>
 7    1  0.5849044E-013  0.5052887E+02  0.7816164E-02  0.1300439E+00
        -11   -1    0    0    0    0  0.00000000000E+00  0.00000000000E+00  0.45593999997E+02  0.45594000000E+02  0.51100000000E-03 0. -1.
         11   -1    0    0    0    0 -0.00000000000E+00 -0.00000000000E+00 -0.45593999997E+02  0.45594000000E+02  0.51100000000E-03 0.  1.
    9900012    2    1    2    0    0 -0.33600886070E+02 -0.14042053053E+02 -0.18082192639E+02  0.50528874465E+02  0.30000044424E+02 0.  0.
         12    1    1    2    0    0  0.33600886070E+02  0.14042053053E+02  0.18082192639E+02  0.40659125535E+02  0.00000000000E+00 0. -1.
         11    1    3    3    0    0 -0.70423025334E+01 -0.66249415833E+01  0.59267650865E+01  0.11340653447E+02  0.51100000000E-03 0. -1.
        -11    1    3    3    0    0 -0.13641073829E+02  0.24768945996E+01 -0.65860363683E+01  0.15348934079E+02  0.51100000000E-03 0.  1.
         12    1    3    3    0    0 -0.12917509708E+02 -0.98940060688E+01 -0.17422921357E+02  0.23839286939E+02  0.00000000000E+00 0. -1.
</event>
<event>
 7    1  0.5849044E-013  0.5052887E+02  0.7816164E-02  0.1300439E+00
        -11   -1    0    0    0    0  0.00000000000E+00  0.00000000000E+00  0.45593999997E+02  0.45594000000E+02  0.51100000000E-03 0.  1.
         11   -1    0    0    0    0 -0.00000000000E+00 -0.00000000000E+00 -0.45593999997E+02  0.45594000000E+02  0.51100000000E-03 0. -1.
    9900012    2    1    2    0    0 -0.30107117714E+02  0.18083655607E+02  0.20486764622E+02  0.50528872343E+02  0.30000037973E+02 0.  0.
         12    1    1    2    0    0  0.30107117714E+02 -0.18083655607E+02 -0.20486764622E+02  0.40659127657E+02  0.00000000000E+00 0. -1.
         11    1    3    3    0    0 -0.17353760251E+02  0.15045005377E+02 -0.32832067550E+01  0.23200961801E+02  0.51100000000E-03 0. -1.
        -11    1    3    3    0    0 -0.11331533072E+02  0.15850227784E+01  0.19831452419E+02  0.22895467767E+02  0.51100000000E-03 0.  1.
         12    1    3    3    0    0 -0.14218243914E+01  0.14536274522E+01  0.39385189576E+01  0.44324427745E+01  0.00000000000E+00 0. -1.
</event>
<event>
 7    1  0.5849044E-013  0.5052885E+02  0.7816164E-02  0.1300439E+00
        -11   -1    0    0    0    0  0.00000000000E+00  0.00000000000E+00  0.45593999997E+02  0.45594000000E+02  0.51100000000E-03 0.  1.
         11   -1    0    0    0    0 -0.00000000000E+00 -0.00000000000E+00 -0.45593999997E+02  0.45594000000E+02  0.51100000000E-03 0. -1.
    9900012    2    1    2    0    0  0.10258921259E+02 -0.78976902594E+01  0.38542798271E+02  0.50528852501E+02  0.29999977662E+02 0.  0.
         12    1    1    2    0    0 -0.10258921259E+02  0.78976902594E+01 -0.38542798271E+02  0.40659147499E+02  0.00000000000E+00 0. -1.
         11    1    3    3    0    0  0.74751900316E+01 -0.62597595733E+01  0.49608531044E+00  0.97626408732E+01  0.51100000000E-03 0. -1.
        -11    1    3    3    0    0 -0.47019020256E+01 -0.38489756783E+01  0.23322900311E+02  0.24101455881E+02  0.51100000000E-03 0.  1.
         12    1    3    3    0    0  0.74856332527E+01  0.22110449922E+01  0.14723812649E+02  0.16664755746E+02  0.00000000000E+00 0. -1.
</event>
<event>
 7    1  0.5849044E-013  0.5052886E+02  0.7816164E-02  0.1300439E+00
        -11   -1    0    0    0    0  0.00000000000E+00  0.00000000000E+00  0.45593999997E+02  0.45594000000E+02  0.51100000000E-03 0.  1.
         11   -1    0    0    0    0 -0.00000000000E+00 -0.00000000000E+00 -0.45593999997E+02  0.45594000000E+02  0.51100000000E-03 0. -1.
    9900012    2    1    2    0    0  0.27465224855E+01 -0.10746419769E+02  0.39116963568E+02  0.50528858808E+02  0.29999996834E+02 0.  0.
         12    1    1    2    0    0 -0.27465224855E+01  0.10746419769E+02 -0.39116963568E+02  0.40659141192E+02  0.00000000000E+00 0. -1.
         11    1    3    3    0    0 -0.53115643153E+01 -0.36813113820E+01  0.24592239868E+01  0.69146620919E+01  0.51100000000E-03 0. -1.
        -11    1    3    3    0    0  0.46266985038E+01  0.42230847912E+01  0.28717795732E+02  0.29393070207E+02  0.51100000000E-03 0.  1.
        -12    1    3    3    0    0  0.34313882971E+01 -0.11288193178E+02  0.79399438496E+01  0.14221126510E+02  0.00000000000E+00 0.  1.
</event>
<event>
 7    1  0.5849044E-013  0.5052886E+02  0.7816164E-02  0.1300439E+00
        -11   -1    0    0    0    0  0.00000000000E+00  0.00000000000E+00  0.45593999997E+02  0.45594000000E+02  0.51100000000E-03 0.  1.
         11   -1    0    0    0    0 -0.00000000000E+00 -0.00000000000E+00 -0.45593999997E+02  0.45594000000E+02  0.51100000000E-03 0. -1.
    9900012    2    1    2    0    0  0.19460792189E+02 -0.71762860964E+01  0.34970612685E+02  0.50528864909E+02  0.30000015377E+02 0.  0.
         12    1    1    2    0    0 -0.19460792189E+02  0.71762860964E+01 -0.34970612685E+02  0.40659135091E+02  0.00000000000E+00 0. -1.
         11    1    3    3    0    0  0.45099584395E+01 -0.59212702525E+00 -0.12952696581E+01  0.47294886921E+01  0.51100000000E-03 0. -1.
        -11    1    3    3    0    0  0.11909667916E+02 -0.94400412709E+01  0.38265625364E+02  0.41172960226E+02  0.51100000000E-03 0.  1.
        -12    1    3    3    0    0  0.30411658339E+01  0.28558821998E+01 -0.19997430205E+01  0.46264159904E+01  0.00000000000E+00 0.  1.
</event>
<event>
 7    1  0.5849044E-013  0.5052886E+02  0.7816164E-02  0.1300439E+00
        -11   -1    0    0    0    0  0.00000000000E+00  0.00000000000E+00  0.45593999997E+02  0.45594000000E+02  0.51100000000E-03 0.  1.
         11   -1    0    0    0    0 -0.00000000000E+00 -0.00000000000E+00 -0.45593999997E+02  0.45594000000E+02  0.51100000000E-03 0. -1.
    9900012    2    1    2    0    0 -0.17561252016E+02  0.36302048310E+02 -0.51893659133E+01  0.50528858316E+02  0.29999995337E+02 0.  0.
         12    1    1    2    0    0  0.17561252016E+02 -0.36302048310E+02  0.51893659133E+01  0.40659141684E+02  0.00000000000E+00 0. -1.
         11    1    3    3    0    0  0.20380704018E+01  0.20711833243E+02 -0.86504608516E+01  0.22538062038E+02  0.51100000000E-03 0.  1.
        -11    1    3    3    0    0 -0.15221226794E+02  0.12623615483E+02  0.76920194560E+01  0.21218119062E+02  0.51100000000E-03 0. -1.
        -12    1    3    3    0    0 -0.43780956239E+01  0.29665995848E+01 -0.42309245177E+01  0.67726772153E+01  0.00000000000E+00 0.  1.
</event>
<event>
 7    1  0.5849044E-013  0.5052888E+02  0.7816164E-02  0.1300439E+00
        -11   -1    0    0    0    0  0.00000000000E+00  0.00000000000E+00  0.45593999997E+02  0.45594000000E+02  0.51100000000E-03 0.  1.
         11   -1    0    0    0    0 -0.00000000000E+00 -0.00000000000E+00 -0.45593999997E+02  0.45594000000E+02  0.51100000000E-03 0. -1.
    9900012    2    1    2    0    0 -0.30653641577E+02 -0.23692236211E+02  0.12336787188E+02  0.50528879046E+02  0.30000058349E+02 0.  0.
         12    1    1    2    0    0  0.30653641577E+02  0.23692236211E+02 -0.12336787188E+02  0.40659120954E+02  0.00000000000E+00 0. -1.
         11    1    3    3    0    0 -0.92958829720E+01 -0.76760733522E+00 -0.34467460369E+01  0.99439790704E+01  0.51100000000E-03 0. -1.
        -11    1    3    3    0    0 -0.11549001311E+02 -0.20994857947E+02  0.18446328674E+02  0.30239552465E+02  0.51100000000E-03 0.  1.
        -12    1    3    3    0    0 -0.98087572949E+01 -0.19297709286E+01 -0.26627954493E+01  0.10345347510E+02  0.00000000000E+00 0.  1.
</event>
<event>
 7    1  0.5849044E-013  0.5052886E+02  0.7816164E-02  0.1300439E+00
        -11   -1    0    0    0    0  0.00000000000E+00  0.00000000000E+00  0.45593999997E+02  0.45594000000E+02  0.51100000000E-03 0.  1.
         11   -1    0    0    0    0 -0.00000000000E+00 -0.00000000000E+00 -0.45593999997E+02  0.45594000000E+02  0.51100000000E-03 0. -1.
    9900012    2    1    2    0    0  0.38892568312E+00  0.15030297624E+02  0.37777035988E+02  0.50528861324E+02  0.30000004479E+02 0.  0.
         12    1    1    2    0    0 -0.38892568312E+00 -0.15030297624E+02 -0.37777035988E+02  0.40659138676E+02  0.00000000000E+00 0. -1.
         11    1    3    3    0    0  0.27399398406E+01  0.11323456500E+02  0.68504032551E+01  0.13515027283E+02  0.51100000000E-03 0. -1.
        -11    1    3    3    0    0  0.31225340841E+01  0.56427363151E+01  0.30519862433E+02  0.31193792578E+02  0.51100000000E-03 0.  1.
        -12    1    3    3    0    0 -0.54735482416E+01 -0.19358951918E+01  0.40677030028E+00  0.58200414624E+01  0.00000000000E+00 0.  1.
</event>
<event>
 7    1  0.5849044E-013  0.5052886E+02  0.7816164E-02  0.1300439E+00
        -11   -1    0    0    0    0  0.00000000000E+00  0.00000000000E+00  0.45593999997E+02  0.45594000000E+02  0.51100000000E-03 0. -1.
         11   -1    0    0    0    0 -0.00000000000E+00 -0.00000000000E+00 -0.45593999997E+02  0.45594000000E+02  0.51100000000E-03 0.  1.
    9900012    2    1    2    0    0  0.11853508220E+02 -0.34090568888E+02 -0.18721466003E+02  0.50528857934E+02  0.29999994178E+02 0.  0.
         12    1    1    2    0    0 -0.11853508220E+02  0.34090568888E+02  0.18721466003E+02  0.40659142066E+02  0.00000000000E+00 0. -1.
         11    1    3    3    0    0  0.15788105006E+02 -0.30579786565E+02 -0.56611658844E+01  0.34877448380E+02  0.51100000000E-03 0. -1.
        -11    1    3    3    0    0  0.19418777475E+00 -0.22966365683E-01 -0.87130669605E+01  0.87152608948E+01  0.51100000000E-03 0.  1.
         12    1    3    3    0    0 -0.41287845611E+01 -0.34878159570E+01 -0.43472331581E+01  0.69361486599E+01  0.00000000000E+00 0. -1.
</event>
<event>
 7    1  0.5849044E-013  0.5052885E+02  0.7816164E-02  0.1300439E+00
        -11   -1    0    0    0    0  0.00000000000E+00  0.00000000000E+00  0.45593999997E+02  0.45594000000E+02  0.51100000000E-03 0.  1.
         11   -1    0    0    0    0 -0.00000000000E+00 -0.00000000000E+00 -0.45593999997E+02  0.45594000000E+02  0.51100000000E-03 0. -1.
    9900012    2    1    2    0    0  0.13882246840E+02 -0.10052672212E+02  0.36869948813E+02  0.50528854394E+02  0.29999983417E+02 0.  0.
         12    1    1    2    0    0 -0.13882246840E+02  0.10052672212E+02 -0.36869948813E+02  0.40659145606E+02  0.00000000000E+00 0. -1.
         11    1    3    3    0    0  0.11069367532E+02  0.60927882569E+01  0.56106695548E+01  0.13825070684E+02  0.51100000000E-03 0. -1.
        -11    1    3    3    0    0  0.19528245714E+01 -0.17290552916E+02  0.26247404836E+02  0.31491316340E+02  0.51100000000E-03 0.  1.
        -12    1    3    3    0    0  0.86005473642E+00  0.11450924474E+01  0.50118744223E+01  0.52124673704E+01  0.00000000000E+00 0.  1.
</event>
<event>
 7    1  0.5849044E-013  0.5052886E+02  0.7816164E-02  0.1300439E+00
        -11   -1    0    0    0    0  0.00000000000E+00  0.00000000000E+00  0.45593999997E+02  0.45594000000E+02  0.51100000000E-03 0.  1.
         11   -1    0    0    0    0 -0.00000000000E+00 -0.00000000000E+00 -0.45593999997E+02  0.45594000000E+02  0.51100000000E-03 0. -1.
    9900012    2    1    2    0    0  0.21612405388E+02  0.34036156179E+02 -0.52545153406E+01  0.50528856803E+02  0.29999990738E+02 0.  0.
         12    1    1    2    0    0 -0.21612405388E+02 -0.34036156179E+02  0.52545153406E+01  0.40659143197E+02  0.00000000000E+00 0. -1.
         11    1    3    3    0    0 -0.46828628407E+01  0.35034155890E+01 -0.11214519654E+01  0.59548954605E+01  0.51100000000E-03 0. -1.
        -11    1    3    3    0    0  0.28413292807E+02  0.31033447773E+02 -0.31738036752E+01  0.42195534347E+02  0.51100000000E-03 0.  1.
        -12    1    3    3    0    0 -0.21180245788E+01 -0.50070718317E+00 -0.95925970003E+00  0.23784269953E+01  0.00000000000E+00 0.  1.
</event>
<event>
 7    1  0.5849044E-013  0.5052887E+02  0.7816164E-02  0.1300439E+00
        -11   -1    0    0    0    0  0.00000000000E+00  0.00000000000E+00  0.45593999997E+02  0.45594000000E+02  0.51100000000E-03 0. -1.
         11   -1    0    0    0    0 -0.00000000000E+00 -0.00000000000E+00 -0.45593999997E+02  0.45594000000E+02  0.51100000000E-03 0.  1.
    9900012    2    1    2    0    0 -0.39862194438E+02  0.56715671310E+00 -0.79905528693E+01  0.50528866373E+02  0.30000019829E+02 0.  0.
         12    1    1    2    0    0  0.39862194438E+02 -0.56715671310E+00  0.79905528693E+01  0.40659133627E+02  0.00000000000E+00 0. -1.
         11    1    3    3    0    0  0.22665276211E+01  0.62010277632E+01 -0.11375889452E+01  0.66995523467E+01  0.51100000000E-03 0. -1.
        -11    1    3    3    0    0 -0.18986527189E+02 -0.57315379377E+01 -0.57979031112E+01  0.20662875467E+02  0.51100000000E-03 0.  1.
         12    1    3    3    0    0 -0.23142194870E+02  0.97666887594E-01 -0.10550608129E+01  0.23166438559E+02  0.00000000000E+00 0. -1.
</event>
<event>
 7    1  0.5849044E-013  0.5052885E+02  0.7816164E-02  0.1300439E+00
        -11   -1    0    0    0    0  0.00000000000E+00  0.00000000000E+00  0.45593999997E+02  0.45594000000E+02  0.51100000000E-03 0.  1.
         11   -1    0    0    0    0 -0.00000000000E+00 -0.00000000000E+00 -0.45593999997E+02  0.45594000000E+02  0.51100000000E-03 0. -1.
    9900012    2    1    2    0    0 -0.36212734475E+01 -0.18519702186E+02  0.36014901145E+02  0.50528854720E+02  0.29999984406E+02 0.  0.
         12    1    1    2    0    0  0.36212734475E+01  0.18519702186E+02 -0.36014901145E+02  0.40659145280E+02  0.00000000000E+00 0. -1.
         11    1    3    3    0    0 -0.45925202871E+01 -0.42112096375E+01 -0.39392322552E+01  0.73717759203E+01  0.51100000000E-03 0. -1.
        -11    1    3    3    0    0  0.38301541526E+01 -0.57827946408E+01  0.22155206275E+02  0.23215597344E+02  0.51100000000E-03 0.  1.
         12    1    3    3    0    0 -0.28589073130E+01 -0.85256979076E+01  0.17798927125E+02  0.19941481456E+02  0.00000000000E+00 0. -1.
</event>
<event>
 7    1  0.5849044E-013  0.5052881E+02  0.7816164E-02  0.1300439E+00
        -11   -1    0    0    0    0  0.00000000000E+00  0.00000000000E+00  0.45593999997E+02  0.45594000000E+02  0.51100000000E-03 0.  1.
         11   -1    0    0    0    0 -0.00000000000E+00 -0.00000000000E+00 -0.45593999997E+02  0.45594000000E+02  0.51100000000E-03 0. -1.
    9900012    2    1    2    0    0 -0.16688751047E+02  0.32269557880E+02  0.18257344952E+02  0.50528813806E+02  0.29999860045E+02 0.  0.
         12    1    1    2    0    0  0.16688751047E+02 -0.32269557880E+02 -0.18257344952E+02  0.40659186194E+02  0.00000000000E+00 0. -1.
         11    1    3    3    0    0 -0.16211084916E+02  0.11624437402E+02  0.68195721234E+01  0.21081588727E+02  0.51100000000E-03 0. -1.
        -11    1    3    3    0    0 -0.13797109642E+01  0.13222924089E+02  0.15911154041E+02  0.20734371150E+02  0.51100000000E-03 0.  1.
         12    1    3    3    0    0  0.90204483380E+00  0.74221963887E+01 -0.44733812121E+01  0.87128539287E+01  0.00000000000E+00 0. -1.
</event>
<event>
 7    1  0.5849044E-013  0.5052888E+02  0.7816164E-02  0.1300439E+00
        -11   -1    0    0    0    0  0.00000000000E+00  0.00000000000E+00  0.45593999997E+02  0.45594000000E+02  0.51100000000E-03 0.  1.
         11   -1    0    0    0    0 -0.00000000000E+00 -0.00000000000E+00 -0.45593999997E+02  0.45594000000E+02  0.51100000000E-03 0. -1.
    9900012    2    1    2    0    0 -0.34184496752E+02 -0.21378096893E+02 -0.52498417599E+01  0.50528884374E+02  0.30000074544E+02 0.  0.
         12    1    1    2    0    0  0.34184496752E+02  0.21378096893E+02  0.52498417599E+01  0.40659115626E+02  0.00000000000E+00 0. -1.
         11    1    3    3    0    0 -0.27939773023E+02 -0.83570217984E+01 -0.14021171263E+02  0.32358367909E+02  0.51100000000E-03 0. -1.
        -11    1    3    3    0    0 -0.34059518645E+01 -0.34310327600E+01  0.61661136219E+01  0.78353973328E+01  0.51100000000E-03 0.  1.
         12    1    3    3    0    0 -0.28387718651E+01 -0.95900423348E+01  0.26052158816E+01  0.10335119132E+02  0.00000000000E+00 0. -1.
</event>
<event>
 7    1  0.5849044E-013  0.5052887E+02  0.7816164E-02  0.1300439E+00
        -11   -1    0    0    0    0  0.00000000000E+00  0.00000000000E+00  0.45593999997E+02  0.45594000000E+02  0.51100000000E-03 0.  1.
         11   -1    0    0    0    0 -0.00000000000E+00 -0.00000000000E+00 -0.45593999997E+02  0.45594000000E+02  0.51100000000E-03 0. -1.
    9900012    2    1    2    0    0 -0.35446470544E+02  0.18513319391E+02 -0.73463940074E+01  0.50528870966E+02  0.30000033787E+02 0.  0.
         12    1    1    2    0    0  0.35446470544E+02 -0.18513319391E+02  0.73463940074E+01  0.40659129034E+02  0.00000000000E+00 0. -1.
         11    1    3    3    0    0 -0.50685422479E+01 -0.16092805170E+00 -0.10783577091E+02  0.11916440470E+02  0.51100000000E-03 0. -1.
        -11    1    3    3    0    0 -0.24690044504E+02  0.13572038517E+02 -0.33748181482E+01  0.28375833466E+02  0.51100000000E-03 0.  1.
         12    1    3    3    0    0 -0.56878837925E+01  0.51022089262E+01  0.68120012314E+01  0.10236597029E+02  0.00000000000E+00 0. -1.
</event>
<event>
 7    1  0.5849044E-013  0.5052886E+02  0.7816164E-02  0.1300439E+00
        -11   -1    0    0    0    0  0.00000000000E+00  0.00000000000E+00  0.45593999997E+02  0.45594000000E+02  0.51100000000E-03 0. -1.
         11   -1    0    0    0    0 -0.00000000000E+00 -0.00000000000E+00 -0.45593999997E+02  0.45594000000E+02  0.51100000000E-03 0.  1.
    9900012    2    1    2    0    0 -0.16616592457E+02 -0.34821357988E+02 -0.12826819476E+02  0.50528863083E+02  0.30000009826E+02 0.  0.
         12    1    1    2    0    0  0.16616592457E+02  0.34821357988E+02  0.12826819476E+02  0.40659136917E+02  0.00000000000E+00 0. -1.
         11    1    3    3    0    0  0.20188025084E+01 -0.20413191134E+01  0.36850512700E+01  0.46714184585E+01  0.51100000000E-03 0. -1.
        -11    1    3    3    0    0 -0.11132279837E+02 -0.12188557540E+02 -0.17320398495E+02  0.23926654458E+02  0.51100000000E-03 0.  1.
        -12    1    3    3    0    0 -0.75031151276E+01 -0.20591481335E+02  0.80852774917E+00  0.21930790166E+02  0.00000000000E+00 0.  1.
</event>
<event>
 7    1  0.5849044E-013  0.5052897E+02  0.7816164E-02  0.1300438E+00
        -11   -1    0    0    0    0  0.00000000000E+00  0.00000000000E+00  0.45593999997E+02  0.45594000000E+02  0.51100000000E-03 0. -1.
         11   -1    0    0    0    0 -0.00000000000E+00 -0.00000000000E+00 -0.45593999997E+02  0.45594000000E+02  0.51100000000E-03 0.  1.
    9900012    2    1    2    0    0  0.36716237870E+02  0.98708788973E+01 -0.14409740611E+02  0.50528966588E+02  0.30000324438E+02 0.  0.
         12    1    1    2    0    0 -0.36716237870E+02 -0.98708788973E+01  0.14409740611E+02  0.40659033412E+02  0.00000000000E+00 0. -1.
         11    1    3    3    0    0  0.54978933605E+00  0.37498329882E+01  0.54552835159E+00  0.38289838335E+01  0.51100000000E-03 0. -1.
        -11    1    3    3    0    0  0.28464525768E+02 -0.14347815624E+01 -0.19971488468E+02  0.34801554236E+02  0.51100000000E-03 0.  1.
        -12    1    3    3    0    0  0.77019227661E+01  0.75558274715E+01  0.50162195059E+01  0.11898428518E+02  0.00000000000E+00 0.  1.
</event>
<event>
 7    1  0.5849044E-013  0.5052887E+02  0.7816164E-02  0.1300439E+00
        -11   -1    0    0    0    0  0.00000000000E+00  0.00000000000E+00  0.45593999997E+02  0.45594000000E+02  0.51100000000E-03 0.  1.
         11   -1    0    0    0    0 -0.00000000000E+00 -0.00000000000E+00 -0.45593999997E+02  0.45594000000E+02  0.51100000000E-03 0. -1.
    9900012    2    1    2    0    0  0.38184313663E+02 -0.40506654316E+01  0.13368439076E+02  0.50528869860E+02  0.30000030427E+02 0.  0.
         12    1    1    2    0    0 -0.38184313663E+02  0.40506654316E+01 -0.13368439076E+02  0.40659130140E+02  0.00000000000E+00 0. -1.
         11    1    3    3    0    0  0.34266159587E+02 -0.29837914749E+00 -0.11826415989E+01  0.34287860306E+02  0.51100000000E-03 0. -1.
        -11    1    3    3    0    0  0.41542065761E+00 -0.35779876549E+01  0.87472673882E+01  0.94598761621E+01  0.51100000000E-03 0.  1.
         12    1    3    3    0    0  0.35027334190E+01 -0.17429862920E+00  0.58038132868E+01  0.67811333924E+01  0.00000000000E+00 0. -1.
</event>
<event>
 7    1  0.5849044E-013  0.5052884E+02  0.7816164E-02  0.1300439E+00
        -11   -1    0    0    0    0  0.00000000000E+00  0.00000000000E+00  0.45593999997E+02  0.45594000000E+02  0.51100000000E-03 0.  1.
         11   -1    0    0    0    0 -0.00000000000E+00 -0.00000000000E+00 -0.45593999997E+02  0.45594000000E+02  0.51100000000E-03 0. -1.
    9900012    2    1    2    0    0  0.49400775190E-01 -0.21547310162E+02  0.34480117625E+02  0.50528837108E+02  0.29999930872E+02 0.  0.
         12    1    1    2    0    0 -0.49400775190E-01  0.21547310162E+02 -0.34480117625E+02  0.40659162892E+02  0.00000000000E+00 0. -1.
         11    1    3    3    0    0 -0.79049228067E+01  0.42127059693E+01  0.11697997165E+02  0.14733561487E+02  0.51100000000E-03 0. -1.
        -11    1    3    3    0    0  0.47810067854E+01 -0.75837091970E+01  0.94893084393E+01  0.13054410978E+02  0.51100000000E-03 0.  1.
         12    1    3    3    0    0  0.31733167964E+01 -0.18176306934E+02  0.13292812021E+02  0.22740864643E+02  0.00000000000E+00 0. -1.
</event>
<event>
 7    1  0.5849044E-013  0.5052886E+02  0.7816164E-02  0.1300439E+00
        -11   -1    0    0    0    0  0.00000000000E+00  0.00000000000E+00  0.45593999997E+02  0.45594000000E+02  0.51100000000E-03 0.  1.
         11   -1    0    0    0    0 -0.00000000000E+00 -0.00000000000E+00 -0.45593999997E+02  0.45594000000E+02  0.51100000000E-03 0. -1.
    9900012    2    1    2    0    0 -0.25654062222E+02 -0.23999195059E+02  0.20471279225E+02  0.50528861482E+02  0.30000004960E+02 0.  0.
         12    1    1    2    0    0  0.25654062222E+02  0.23999195059E+02 -0.20471279225E+02  0.40659138518E+02  0.00000000000E+00 0. -1.
         11    1    3    3    0    0 -0.87588227599E+01  0.43987946492E+01  0.61828414023E+01  0.11588524435E+02  0.51100000000E-03 0. -1.
        -11    1    3    3    0    0 -0.17373826758E+02 -0.23669747623E+02  0.69099146825E+01  0.30163781758E+02  0.51100000000E-03 0.  1.
         12    1    3    3    0    0  0.47858729659E+00 -0.47282420848E+01  0.73785231399E+01  0.87765552889E+01  0.00000000000E+00 0. -1.
</event>
<event>
 7    1  0.5849044E-013  0.5052886E+02  0.7816164E-02  0.1300439E+00
        -11   -1    0    0    0    0  0.00000000000E+00  0.00000000000E+00  0.45593999997E+02  0.45594000000E+02  0.51100000000E-03 0.  1.
         11   -1    0    0    0    0 -0.00000000000E+00 -0.00000000000E+00 -0.45593999997E+02  0.45594000000E+02  0.51100000000E-03 0. -1.
    9900012    2    1    2    0    0  0.15386404414E+02  0.31888881735E+02  0.19988087127E+02  0.50528857780E+02  0.29999993707E+02 0.  0.
         12    1    1    2    0    0 -0.15386404414E+02 -0.31888881735E+02 -0.19988087127E+02  0.40659142220E+02  0.00000000000E+00 0. -1.
         11    1    3    3    0    0 -0.81876121447E+01  0.12555406433E+02  0.21344046469E+01  0.15140373404E+02  0.51100000000E-03 0. -1.
        -11    1    3    3    0    0  0.15262970738E+02  0.12287045248E+02  0.10361437422E+02  0.22165043252E+02  0.51100000000E-03 0.  1.
         12    1    3    3    0    0  0.83110458208E+01  0.70464300538E+01  0.74922450582E+01  0.13223441124E+02  0.00000000000E+00 0. -1.
</event>
<event>
 7    1  0.5849044E-013  0.5052884E+02  0.7816164E-02  0.1300439E+00
        -11   -1    0    0    0    0  0.00000000000E+00  0.00000000000E+00  0.45593999997E+02  0.45594000000E+02  0.51100000000E-03 0.  1.
         11   -1    0    0    0    0 -0.00000000000E+00 -0.00000000000E+00 -0.45593999997E+02  0.45594000000E+02  0.51100000000E-03 0. -1.
    9900012    2    1    2    0    0  0.10351747841E+02 -0.29425669350E+01  0.39209050656E+02  0.50528843136E+02  0.29999949196E+02 0.  0.
         12    1    1    2    0    0 -0.10351747841E+02  0.29425669350E+01 -0.39209050656E+02  0.40659156864E+02  0.00000000000E+00 0. -1.
         11    1    3    3    0    0 -0.46864872771E+01  0.85705567593E+01  0.24472399936E+02  0.26349875996E+02  0.51100000000E-03 0. -1.
        -11    1    3    3    0    0  0.14015142315E+02 -0.10093876078E+02  0.14168130951E+02  0.22339348319E+02  0.51100000000E-03 0.  1.
         12    1    3    3    0    0  0.10230928025E+01 -0.14192476158E+01  0.56851976998E+00  0.18396188209E+01  0.00000000000E+00 0. -1.
</event>
<event>
 7    1  0.5849044E-013  0.5052886E+02  0.7816164E-02  0.1300439E+00
        -11   -1    0    0    0    0  0.00000000000E+00  0.00000000000E+00  0.45593999997E+02  0.45594000000E+02  0.51100000000E-03 0. -1.
         11   -1    0    0    0    0 -0.00000000000E+00 -0.00000000000E+00 -0.45593999997E+02  0.45594000000E+02  0.51100000000E-03 0.  1.
    9900012    2    1    2    0    0 -0.22164661059E+02  0.11712964513E+02 -0.32010937290E+02  0.50528857809E+02  0.29999993795E+02 0.  0.
         12    1    1    2    0    0  0.22164661059E+02 -0.11712964513E+02  0.32010937290E+02  0.40659142191E+02  0.00000000000E+00 0. -1.
         11    1    3    3    0    0  0.15512434047E+01 -0.56066659412E+01 -0.82236711496E+00  0.58751465522E+01  0.51100000000E-03 0. -1.
        -11    1    3    3    0    0 -0.20945394215E+02  0.14570445867E+02 -0.18878339706E+02  0.31739551697E+02  0.51100000000E-03 0.  1.
        -12    1    3    3    0    0 -0.27705102484E+01  0.27491845868E+01 -0.12310230469E+02  0.12914159559E+02  0.00000000000E+00 0.  1.
</event>
<event>
 7    1  0.5849044E-013  0.5052885E+02  0.7816164E-02  0.1300439E+00
        -11   -1    0    0    0    0  0.00000000000E+00  0.00000000000E+00  0.45593999997E+02  0.45594000000E+02  0.51100000000E-03 0. -1.
         11   -1    0    0    0    0 -0.00000000000E+00 -0.00000000000E+00 -0.45593999997E+02  0.45594000000E+02  0.51100000000E-03 0.  1.
    9900012    2    1    2    0    0 -0.34418631766E+02 -0.21645355077E+02 -0.52190485197E-01  0.50528851793E+02  0.29999975511E+02 0.  0.
         12    1    1    2    0    0  0.34418631766E+02  0.21645355077E+02  0.52190485197E-01  0.40659148207E+02  0.00000000000E+00 0. -1.
         11    1    3    3    0    0  0.32699467132E+01 -0.23614676631E+01  0.35450823626E+01  0.53699804701E+01  0.51100000000E-03 0. -1.
        -11    1    3    3    0    0 -0.21380618777E+02 -0.19011856517E+02 -0.88412362665E+00  0.28624521347E+02  0.51100000000E-03 0.  1.
         12    1    3    3    0    0 -0.16307959702E+02 -0.27203089752E+00 -0.27131492211E+01  0.16534349976E+02  0.00000000000E+00 0. -1.
</event>
<event>
 7    1  0.5849044E-013  0.5052885E+02  0.7816164E-02  0.1300439E+00
        -11   -1    0    0    0    0  0.00000000000E+00  0.00000000000E+00  0.45593999997E+02  0.45594000000E+02  0.51100000000E-03 0. -1.
         11   -1    0    0    0    0 -0.00000000000E+00 -0.00000000000E+00 -0.45593999997E+02  0.45594000000E+02  0.51100000000E-03 0.  1.
    9900012    2    1    2    0    0  0.23560790245E+01 -0.40581282772E+02 -0.88034941881E+00  0.50528848080E+02  0.29999964223E+02 0.  0.
         12    1    1    2    0    0 -0.23560790245E+01  0.40581282772E+02  0.88034941881E+00  0.40659151920E+02  0.00000000000E+00 0. -1.
         11    1    3    3    0    0 -0.25791851824E+00 -0.31688422566E+02 -0.10579057498E+02  0.33408668104E+02  0.51100000000E-03 0. -1.
        -11    1    3    3    0    0 -0.29882205208E+01 -0.77396310060E+01  0.47705226569E+01  0.95702265737E+01  0.51100000000E-03 0.  1.
         12    1    3    3    0    0  0.56022180636E+01 -0.11532292003E+01  0.49281854223E+01  0.75499534023E+01  0.00000000000E+00 0. -1.
</event>
<event>
 7    1  0.5849044E-013  0.5052886E+02  0.7816164E-02  0.1300439E+00
        -11   -1    0    0    0    0  0.00000000000E+00  0.00000000000E+00  0.45593999997E+02  0.45594000000E+02  0.51100000000E-03 0. -1.
         11   -1    0    0    0    0 -0.00000000000E+00 -0.00000000000E+00 -0.45593999997E+02  0.45594000000E+02  0.51100000000E-03 0.  1.
    9900012    2    1    2    0    0 -0.17609539003E+02  0.34363942550E+02 -0.12735357890E+02  0.50528858936E+02  0.29999997222E+02 0.  0.
         12    1    1    2    0    0  0.17609539003E+02 -0.34363942550E+02  0.12735357890E+02  0.40659141064E+02  0.00000000000E+00 0. -1.
         11    1    3    3    0    0 -0.24456917174E+01  0.19495863066E+02  0.30289304314E+01  0.19880757141E+02  0.51100000000E-03 0.  1.
        -11    1    3    3    0    0 -0.15979926295E+02  0.17317490406E+02 -0.15083933310E+02  0.27978180119E+02  0.51100000000E-03 0. -1.
        -12    1    3    3    0    0  0.81607901009E+00 -0.24494109225E+01 -0.68035501081E+00  0.26699216765E+01  0.00000000000E+00 0.  1.
</event>
<event>
 7    1  0.5849044E-013  0.5052886E+02  0.7816164E-02  0.1300439E+00
        -11   -1    0    0    0    0  0.00000000000E+00  0.00000000000E+00  0.45593999997E+02  0.45594000000E+02  0.51100000000E-03 0.  1.
         11   -1    0    0    0    0 -0.00000000000E+00 -0.00000000000E+00 -0.45593999997E+02  0.45594000000E+02  0.51100000000E-03 0. -1.
    9900012    2    1    2    0    0  0.27574041020E+02  0.29780771226E+02  0.24380016440E+01  0.50528856810E+02  0.29999990759E+02 0.  0.
         12    1    1    2    0    0 -0.27574041020E+02 -0.29780771226E+02 -0.24380016440E+01  0.40659143190E+02  0.00000000000E+00 0. -1.
         11    1    3    3    0    0  0.45588057916E+01  0.20509249212E+02  0.73936089923E+01  0.22272796584E+02  0.51100000000E-03 0. -1.
        -11    1    3    3    0    0  0.20189825360E+02  0.83527780445E+01  0.70753302508E+00  0.21860890932E+02  0.51100000000E-03 0.  1.
         12    1    3    3    0    0  0.28254098682E+01  0.91874396965E+00 -0.56631403734E+01  0.63951692936E+01  0.00000000000E+00 0. -1.
</event>
<event>
 7    1  0.5849044E-013  0.5052885E+02  0.7816164E-02  0.1300439E+00
        -11   -1    0    0    0    0  0.00000000000E+00  0.00000000000E+00  0.45593999997E+02  0.45594000000E+02  0.51100000000E-03 0. -1.
         11   -1    0    0    0    0 -0.00000000000E+00 -0.00000000000E+00 -0.45593999997E+02  0.45594000000E+02  0.51100000000E-03 0.  1.
    9900012    2    1    2    0    0  0.34891337212E+02 -0.47666284201E+00 -0.20869438264E+02  0.50528854985E+02  0.29999985212E+02 0.  0.
         12    1    1    2    0    0 -0.34891337212E+02  0.47666284201E+00  0.20869438264E+02  0.40659145015E+02  0.00000000000E+00 0. -1.
         11    1    3    3    0    0 -0.17734416500E+01 -0.39981328144E+01  0.15181303202E+01  0.46297819838E+01  0.51100000000E-03 0. -1.
        -11    1    3    3    0    0  0.24606058250E+02 -0.28259454364E+01 -0.78708891372E+01  0.25988362131E+02  0.51100000000E-03 0.  1.
         12    1    3    3    0    0  0.12058720612E+02  0.63474154088E+01 -0.14516679447E+02  0.19910710870E+02  0.00000000000E+00 0. -1.
</event>
<event>
 7    1  0.5849044E-013  0.5052886E+02  0.7816164E-02  0.1300439E+00
        -11   -1    0    0    0    0  0.00000000000E+00  0.00000000000E+00  0.45593999997E+02  0.45594000000E+02  0.51100000000E-03 0.  1.
         11   -1    0    0    0    0 -0.00000000000E+00 -0.00000000000E+00 -0.45593999997E+02  0.45594000000E+02  0.51100000000E-03 0. -1.
    9900012    2    1    2    0    0 -0.49942081691E+01 -0.31066491734E+02  0.25750665683E+02  0.50528858260E+02  0.29999995169E+02 0.  0.
         12    1    1    2    0    0  0.49942081691E+01  0.31066491734E+02 -0.25750665683E+02  0.40659141740E+02  0.00000000000E+00 0. -1.
         11    1    3    3    0    0 -0.73174644284E+01  0.15674469494E+01  0.12106207069E+02  0.14232442709E+02  0.51100000000E-03 0. -1.
        -11    1    3    3    0    0  0.26402424186E+01 -0.29103912953E+02  0.92533824264E+01  0.30653445415E+02  0.51100000000E-03 0.  1.
        -12    1    3    3    0    0 -0.31698615921E+00 -0.35300257300E+01  0.43910761874E+01  0.56429701366E+01  0.00000000000E+00 0.  1.
</event>
<event>
 7    1  0.5849044E-013  0.5052886E+02  0.7816164E-02  0.1300439E+00
        -11   -1    0    0    0    0  0.00000000000E+00  0.00000000000E+00  0.45593999997E+02  0.45594000000E+02  0.51100000000E-03 0.  1.
         11   -1    0    0    0    0 -0.00000000000E+00 -0.00000000000E+00 -0.45593999997E+02  0.45594000000E+02  0.51100000000E-03 0. -1.
    9900012    2    1    2    0    0 -0.21514646195E+02 -0.34436858328E+02 -0.20949520576E+01  0.50528855438E+02  0.29999986589E+02 0.  0.
         12    1    1    2    0    0  0.21514646195E+02  0.34436858328E+02  0.20949520576E+01  0.40659144562E+02  0.00000000000E+00 0. -1.
         11    1    3    3    0    0 -0.64811885647E+01  0.47958609246E+01  0.10816393690E+01  0.81348651621E+01  0.51100000000E-03 0. -1.
        -11    1    3    3    0    0 -0.27779353685E+01 -0.13292448793E+02 -0.13414407691E+01  0.13645716669E+02  0.51100000000E-03 0.  1.
         12    1    3    3    0    0 -0.12255522262E+02 -0.25940270460E+02 -0.18351506574E+01  0.28748273607E+02  0.00000000000E+00 0. -1.
</event>
<event>
 7    1  0.5849044E-013  0.5052887E+02  0.7816164E-02  0.1300439E+00
        -11   -1    0    0    0    0  0.00000000000E+00  0.00000000000E+00  0.45593999997E+02  0.45594000000E+02  0.51100000000E-03 0.  1.
         11   -1    0    0    0    0 -0.00000000000E+00 -0.00000000000E+00 -0.45593999997E+02  0.45594000000E+02  0.51100000000E-03 0. -1.
    9900012    2    1    2    0    0  0.23610339371E+02  0.28564529692E+02  0.16726764696E+02  0.50528866476E+02  0.30000020141E+02 0.  0.
         12    1    1    2    0    0 -0.23610339371E+02 -0.28564529692E+02 -0.16726764696E+02  0.40659133524E+02  0.00000000000E+00 0. -1.
         11    1    3    3    0    0  0.17774871345E+00 -0.47514241670E-01 -0.98775083895E-01  0.20882764811E+00  0.51100000000E-03 0. -1.
        -11    1    3    3    0    0  0.26112564196E+02  0.25084589501E+02  0.22869358242E+02  0.42826512652E+02  0.51100000000E-03 0.  1.
        -12    1    3    3    0    0 -0.26799735378E+01  0.35274544328E+01 -0.60438184625E+01  0.74935261758E+01  0.00000000000E+00 0.  1.
</event>
<event>
 7    1  0.5849044E-013  0.5052886E+02  0.7816164E-02  0.1300439E+00
        -11   -1    0    0    0    0  0.00000000000E+00  0.00000000000E+00  0.45593999997E+02  0.45594000000E+02  0.51100000000E-03 0. -1.
         11   -1    0    0    0    0 -0.00000000000E+00 -0.00000000000E+00 -0.45593999997E+02  0.45594000000E+02  0.51100000000E-03 0.  1.
    9900012    2    1    2    0    0 -0.36198233979E+02 -0.83983078777E+01 -0.16502173010E+02  0.50528862866E+02  0.30000009167E+02 0.  0.
         12    1    1    2    0    0  0.36198233979E+02  0.83983078777E+01  0.16502173010E+02  0.40659137134E+02  0.00000000000E+00 0. -1.
         11    1    3    3    0    0 -0.24208035016E+01  0.56721465000E+01 -0.59492763652E+00  0.61957626378E+01  0.51100000000E-03 0. -1.
        -11    1    3    3    0    0 -0.32292332651E+02 -0.18145365471E+02 -0.14393544838E+02  0.39739440980E+02  0.51100000000E-03 0.  1.
        -12    1    3    3    0    0 -0.14850978271E+01  0.40749110939E+01 -0.15137005360E+01  0.45936592485E+01  0.00000000000E+00 0.  1.
</event>
<event>
 7    1  0.5849044E-013  0.5052886E+02  0.7816164E-02  0.1300439E+00
        -11   -1    0    0    0    0  0.00000000000E+00  0.00000000000E+00  0.45593999997E+02  0.45594000000E+02  0.51100000000E-03 0.  1.
         11   -1    0    0    0    0 -0.00000000000E+00 -0.00000000000E+00 -0.45593999997E+02  0.45594000000E+02  0.51100000000E-03 0. -1.
    9900012    2    1    2    0    0  0.21793421264E+02  0.34323861866E+02  0.29180706016E+00  0.50528857668E+02  0.29999993369E+02 0.  0.
         12    1    1    2    0    0 -0.21793421264E+02 -0.34323861866E+02 -0.29180706016E+00  0.40659142332E+02  0.00000000000E+00 0. -1.
         11    1    3    3    0    0  0.15528329267E+02  0.80914536126E+01  0.99886498509E+01  0.20158714183E+02  0.51100000000E-03 0.  1.
        -11    1    3    3    0    0  0.13114385498E+01  0.83440126642E+01  0.16625304001E+01  0.86085089303E+01  0.51100000000E-03 0. -1.
         12    1    3    3    0    0  0.49536534466E+01  0.17888395589E+02 -0.11359373191E+02  0.21761634555E+02  0.00000000000E+00 0. -1.
</event>
<event>
 7    1  0.5849044E-013  0.5052886E+02  0.7816164E-02  0.1300439E+00
        -11   -1    0    0    0    0  0.00000000000E+00  0.00000000000E+00  0.45593999997E+02  0.45594000000E+02  0.51100000000E-03 0.  1.
         11   -1    0    0    0    0 -0.00000000000E+00 -0.00000000000E+00 -0.45593999997E+02  0.45594000000E+02  0.51100000000E-03 0. -1.
    9900012    2    1    2    0    0  0.24769386769E+02 -0.27401954070E+02  0.16993414558E+02  0.50528859009E+02  0.29999997444E+02 0.  0.
         12    1    1    2    0    0 -0.24769386769E+02  0.27401954070E+02 -0.16993414558E+02  0.40659140991E+02  0.00000000000E+00 0. -1.
         11    1    3    3    0    0  0.11756426407E+02 -0.85767611836E+01 -0.51024367916E+01  0.15421065324E+02  0.51100000000E-03 0. -1.
        -11    1    3    3    0    0  0.11894750939E+02 -0.20541847860E+02  0.22827375120E+02  0.32932380244E+02  0.51100000000E-03 0.  1.
         12    1    3    3    0    0  0.11182094233E+01  0.17166549732E+01 -0.73152377095E+00  0.21754134409E+01  0.00000000000E+00 0. -1.
</event>
<event>
 7    1  0.5849044E-013  0.5052886E+02  0.7816164E-02  0.1300439E+00
        -11   -1    0    0    0    0  0.00000000000E+00  0.00000000000E+00  0.45593999997E+02  0.45594000000E+02  0.51100000000E-03 0.  1.
         11   -1    0    0    0    0 -0.00000000000E+00 -0.00000000000E+00 -0.45593999997E+02  0.45594000000E+02  0.51100000000E-03 0. -1.
    9900012    2    1    2    0    0 -0.19890013550E+02  0.20051510828E+02  0.29248762734E+02  0.50528857769E+02  0.29999993674E+02 0.  0.
         12    1    1    2    0    0  0.19890013550E+02 -0.20051510828E+02 -0.29248762734E+02  0.40659142231E+02  0.00000000000E+00 0. -1.
         11    1    3    3    0    0 -0.17365036541E+02  0.43993614954E+01  0.65876636616E+01  0.19086544696E+02  0.51100000000E-03 0.  1.
        -11    1    3    3    0    0  0.19784725771E+00  0.17404033650E+02  0.14469871428E+02  0.22634414290E+02  0.51100000000E-03 0. -1.
         12    1    3    3    0    0 -0.27228242673E+01 -0.17518843178E+01  0.81912276445E+01  0.88078987833E+01  0.00000000000E+00 0. -1.
</event>
<event>
 7    1  0.5849044E-013  0.5052887E+02  0.7816164E-02  0.1300439E+00
        -11   -1    0    0    0    0  0.00000000000E+00  0.00000000000E+00  0.45593999997E+02  0.45594000000E+02  0.51100000000E-03 0. -1.
         11   -1    0    0    0    0 -0.00000000000E+00 -0.00000000000E+00 -0.45593999997E+02  0.45594000000E+02  0.51100000000E-03 0.  1.
    9900012    2    1    2    0    0 -0.17483188868E+02 -0.17841154675E+02 -0.32081084840E+02  0.50528871903E+02  0.30000036636E+02 0.  0.
         12    1    1    2    0    0  0.17483188868E+02  0.17841154675E+02  0.32081084840E+02  0.40659128097E+02  0.00000000000E+00 0. -1.
         11    1    3    3    0    0 -0.24541140749E+01  0.51088174271E+01  0.20625262408E+01  0.60313104837E+01  0.51100000000E-03 0. -1.
        -11    1    3    3    0    0 -0.11108830396E+02 -0.16761912567E+02 -0.29896401371E+02  0.36030024159E+02  0.51100000000E-03 0.  1.
        -12    1    3    3    0    0 -0.39202443969E+01 -0.61880595351E+01 -0.42472097092E+01  0.84675372603E+01  0.00000000000E+00 0.  1.
</event>
<event>
 7    1  0.5849044E-013  0.5052886E+02  0.7816164E-02  0.1300439E+00
        -11   -1    0    0    0    0  0.00000000000E+00  0.00000000000E+00  0.45593999997E+02  0.45594000000E+02  0.51100000000E-03 0. -1.
         11   -1    0    0    0    0 -0.00000000000E+00 -0.00000000000E+00 -0.45593999997E+02  0.45594000000E+02  0.51100000000E-03 0.  1.
    9900012    2    1    2    0    0 -0.12181792922E+02  0.35214773180E+02  0.16269274690E+02  0.50528860463E+02  0.30000001865E+02 0.  0.
         12    1    1    2    0    0  0.12181792922E+02 -0.35214773180E+02 -0.16269274690E+02  0.40659139537E+02  0.00000000000E+00 0. -1.
         11    1    3    3    0    0  0.26467883366E+00 -0.50315622709E+01  0.15862798136E+01  0.52823250259E+01  0.51100000000E-03 0. -1.
        -11    1    3    3    0    0 -0.42341018231E+01  0.94661460160E+01  0.68902582290E+01  0.12450349287E+02  0.51100000000E-03 0.  1.
         12    1    3    3    0    0 -0.82123699322E+01  0.30780189435E+02  0.77927366474E+01  0.32796186150E+02  0.00000000000E+00 0. -1.
</event>
<event>
 7    1  0.5849044E-013  0.5052886E+02  0.7816164E-02  0.1300439E+00
        -11   -1    0    0    0    0  0.00000000000E+00  0.00000000000E+00  0.45593999997E+02  0.45594000000E+02  0.51100000000E-03 0.  1.
         11   -1    0    0    0    0 -0.00000000000E+00 -0.00000000000E+00 -0.45593999997E+02  0.45594000000E+02  0.51100000000E-03 0. -1.
    9900012    2    1    2    0    0  0.16568232482E+02  0.37129480116E+02 -0.24702145217E+00  0.50528860303E+02  0.30000001377E+02 0.  0.
         12    1    1    2    0    0 -0.16568232482E+02 -0.37129480116E+02  0.24702145217E+00  0.40659139697E+02  0.00000000000E+00 0. -1.
         11    1    3    3    0    0  0.64710781142E+01 -0.16077911590E+01  0.12195068685E+01  0.67784247163E+01  0.51100000000E-03 0. -1.
        -11    1    3    3    0    0  0.17505665843E+01  0.28145547208E+02 -0.71881462230E+01  0.29101645269E+02  0.51100000000E-03 0.  1.
        -12    1    3    3    0    0  0.83465877834E+01  0.10591724068E+02  0.57216179023E+01  0.14648790318E+02  0.00000000000E+00 0.  1.
</event>
<event>
 7    1  0.5849044E-013  0.5052886E+02  0.7816164E-02  0.1300439E+00
        -11   -1    0    0    0    0  0.00000000000E+00  0.00000000000E+00  0.45593999997E+02  0.45594000000E+02  0.51100000000E-03 0.  1.
         11   -1    0    0    0    0 -0.00000000000E+00 -0.00000000000E+00 -0.45593999997E+02  0.45594000000E+02  0.51100000000E-03 0. -1.
    9900012    2    1    2    0    0 -0.30817047401E+02 -0.88354516908E+01  0.25008203518E+02  0.50528857605E+02  0.29999993177E+02 0.  0.
         12    1    1    2    0    0  0.30817047401E+02  0.88354516908E+01 -0.25008203518E+02  0.40659142395E+02  0.00000000000E+00 0. -1.
         11    1    3    3    0    0  0.11438732010E+01  0.18377638350E+01 -0.44380168046E+00  0.22097017911E+01  0.51100000000E-03 0. -1.
        -11    1    3    3    0    0 -0.15376511461E+02 -0.17338466592E+02  0.13546695974E+02  0.26843481528E+02  0.51100000000E-03 0.  1.
        -12    1    3    3    0    0 -0.16584409141E+02  0.66652510659E+01  0.11905309224E+02  0.21475674286E+02  0.00000000000E+00 0.  1.
</event>
<event>
 7    1  0.5849044E-013  0.5052881E+02  0.7816164E-02  0.1300439E+00
        -11   -1    0    0    0    0  0.00000000000E+00  0.00000000000E+00  0.45593999997E+02  0.45594000000E+02  0.51100000000E-03 0.  1.
         11   -1    0    0    0    0 -0.00000000000E+00 -0.00000000000E+00 -0.45593999997E+02  0.45594000000E+02  0.51100000000E-03 0. -1.
    9900012    2    1    2    0    0 -0.20413016144E+02  0.82543461462E+01  0.34181055818E+02  0.50528806264E+02  0.29999837120E+02 0.  0.
         12    1    1    2    0    0  0.20413016144E+02 -0.82543461462E+01 -0.34181055818E+02  0.40659193736E+02  0.00000000000E+00 0. -1.
         11    1    3    3    0    0  0.35537040268E+01 -0.97129162647E+00  0.29371304394E+01  0.47115767226E+01  0.51100000000E-03 0. -1.
        -11    1    3    3    0    0 -0.16961313008E+02 -0.32959899883E+01  0.24457236506E+02  0.29945051457E+02  0.51100000000E-03 0.  1.
        -12    1    3    3    0    0 -0.70054071627E+01  0.12521627761E+02  0.67866888729E+01  0.15872178085E+02  0.00000000000E+00 0.  1.
</event>
<event>
 7    1  0.5849044E-013  0.5052886E+02  0.7816164E-02  0.1300439E+00
        -11   -1    0    0    0    0  0.00000000000E+00  0.00000000000E+00  0.45593999997E+02  0.45594000000E+02  0.51100000000E-03 0.  1.
         11   -1    0    0    0    0 -0.00000000000E+00 -0.00000000000E+00 -0.45593999997E+02  0.45594000000E+02  0.51100000000E-03 0. -1.
    9900012    2    1    2    0    0 -0.48016966263E+01  0.50292504826E+01  0.40060157228E+02  0.50528857755E+02  0.29999993633E+02 0.  0.
         12    1    1    2    0    0  0.48016966263E+01 -0.50292504826E+01 -0.40060157228E+02  0.40659142245E+02  0.00000000000E+00 0. -1.
         11    1    3    3    0    0  0.10275476788E+00 -0.44916796266E+01  0.17313028182E+01  0.48148887963E+01  0.51100000000E-03 0. -1.
        -11    1    3    3    0    0  0.13293604990E+01  0.15523729838E+02  0.19258311993E+02  0.24771676740E+02  0.51100000000E-03 0.  1.
        -12    1    3    3    0    0 -0.62338118931E+01 -0.60027997292E+01  0.19070542417E+02  0.20942292219E+02  0.00000000000E+00 0.  1.
</event>
<event>
 7    1  0.5849044E-013  0.5052886E+02  0.7816164E-02  0.1300439E+00
        -11   -1    0    0    0    0  0.00000000000E+00  0.00000000000E+00  0.45593999997E+02  0.45594000000E+02  0.51100000000E-03 0.  1.
         11   -1    0    0    0    0 -0.00000000000E+00 -0.00000000000E+00 -0.45593999997E+02  0.45594000000E+02  0.51100000000E-03 0. -1.
    9900012    2    1    2    0    0  0.28993039273E+02 -0.22948357333E+02  0.16909824718E+02  0.50528860774E+02  0.30000002810E+02 0.  0.
         12    1    1    2    0    0 -0.28993039273E+02  0.22948357333E+02 -0.16909824718E+02  0.40659139226E+02  0.00000000000E+00 0. -1.
         11    1    3    3    0    0  0.40895270125E+00 -0.21170656569E+00  0.90188542135E+01  0.90306031675E+01  0.51100000000E-03 0. -1.
        -11    1    3    3    0    0  0.20353799394E+02 -0.23858046266E+02  0.22166533308E+01  0.31438782954E+02  0.51100000000E-03 0.  1.
         12    1    3    3    0    0  0.82302871784E+01  0.11213954992E+01  0.56743171732E+01  0.10059474653E+02  0.00000000000E+00 0. -1.
</event>
<event>
 7    1  0.5849044E-013  0.5052885E+02  0.7816164E-02  0.1300439E+00
        -11   -1    0    0    0    0  0.00000000000E+00  0.00000000000E+00  0.45593999997E+02  0.45594000000E+02  0.51100000000E-03 0.  1.
         11   -1    0    0    0    0 -0.00000000000E+00 -0.00000000000E+00 -0.45593999997E+02  0.45594000000E+02  0.51100000000E-03 0. -1.
    9900012    2    1    2    0    0 -0.28832573883E+02  0.10527969914E+02  0.26664788925E+02  0.50528850530E+02  0.29999971670E+02 0.  0.
         12    1    1    2    0    0  0.28832573883E+02 -0.10527969914E+02 -0.26664788925E+02  0.40659149470E+02  0.00000000000E+00 0. -1.
         11    1    3    3    0    0 -0.16779436412E+02 -0.69363131854E+01  0.65743863938E+01  0.19310217079E+02  0.51100000000E-03 0. -1.
        -11    1    3    3    0    0 -0.31447734338E+01  0.12795979431E+02  0.14935018746E+02  0.19916864079E+02  0.51100000000E-03 0.  1.
         12    1    3    3    0    0 -0.89083640370E+01  0.46683036685E+01  0.51553837860E+01  0.11301769372E+02  0.00000000000E+00 0. -1.
</event>
<event>
 7    1  0.5849044E-013  0.5052886E+02  0.7816164E-02  0.1300439E+00
        -11   -1    0    0    0    0  0.00000000000E+00  0.00000000000E+00  0.45593999997E+02  0.45594000000E+02  0.51100000000E-03 0. -1.
         11   -1    0    0    0    0 -0.00000000000E+00 -0.00000000000E+00 -0.45593999997E+02  0.45594000000E+02  0.51100000000E-03 0.  1.
    9900012    2    1    2    0    0  0.16354281252E+02 -0.36537259251E+02 -0.71226466540E+01  0.50528856819E+02  0.29999990788E+02 0.  0.
         12    1    1    2    0    0 -0.16354281252E+02  0.36537259251E+02  0.71226466540E+01  0.40659143181E+02  0.00000000000E+00 0. -1.
         11    1    3    3    0    0 -0.42079350603E+01 -0.17123447617E+02 -0.75996796391E+01  0.19200893381E+02  0.51100000000E-03 0. -1.
        -11    1    3    3    0    0  0.11191196016E+02 -0.18868182388E+02  0.32890908659E+00  0.21939903290E+02  0.51100000000E-03 0.  1.
         12    1    3    3    0    0  0.93710202960E+01 -0.54562924553E+00  0.14812389854E+00  0.93880601484E+01  0.00000000000E+00 0. -1.
</event>
<event>
 7    1  0.5849044E-013  0.5052878E+02  0.7816164E-02  0.1300439E+00
        -11   -1    0    0    0    0  0.00000000000E+00  0.00000000000E+00  0.45593999997E+02  0.45594000000E+02  0.51100000000E-03 0.  1.
         11   -1    0    0    0    0 -0.00000000000E+00 -0.00000000000E+00 -0.45593999997E+02  0.45594000000E+02  0.51100000000E-03 0. -1.
    9900012    2    1    2    0    0 -0.13685231390E+02 -0.35180092682E+02  0.15107871729E+02  0.50528778813E+02  0.29999753680E+02 0.  0.
         12    1    1    2    0    0  0.13685231390E+02  0.35180092682E+02 -0.15107871729E+02  0.40659221187E+02  0.00000000000E+00 0. -1.
         11    1    3    3    0    0  0.79950934462E+01 -0.14066750712E+02  0.86843150861E+01  0.18363341841E+02  0.51100000000E-03 0. -1.
        -11    1    3    3    0    0 -0.11225011608E+02 -0.60799170505E+01  0.52907177598E+01  0.13818754344E+02  0.51100000000E-03 0.  1.
         12    1    3    3    0    0 -0.10455313228E+02 -0.15033424920E+02  0.11328388831E+01  0.18346682628E+02  0.00000000000E+00 0. -1.
</event>
<event>
 7    1  0.5849044E-013  0.5052886E+02  0.7816164E-02  0.1300439E+00
        -11   -1    0    0    0    0  0.00000000000E+00  0.00000000000E+00  0.45593999997E+02  0.45594000000E+02  0.51100000000E-03 0.  1.
         11   -1    0    0    0    0 -0.00000000000E+00 -0.00000000000E+00 -0.45593999997E+02  0.45594000000E+02  0.51100000000E-03 0. -1.
    9900012    2    1    2    0    0  0.14550761576E+02 -0.27251201177E+02  0.26435070930E+02  0.50528860768E+02  0.30000002789E+02 0.  0.
         12    1    1    2    0    0 -0.14550761576E+02  0.27251201177E+02 -0.26435070930E+02  0.40659139232E+02  0.00000000000E+00 0. -1.
         11    1    3    3    0    0 -0.30804462593E+01 -0.19319298643E+01 -0.48249581508E+01  0.60416656292E+01  0.51100000000E-03 0. -1.
        -11    1    3    3    0    0  0.14273750869E+02 -0.22827882810E+02  0.29534598530E+02  0.39964292913E+02  0.51100000000E-03 0.  1.
         12    1    3    3    0    0  0.33574569667E+01 -0.24913885034E+01  0.17254305506E+01  0.45229022257E+01  0.00000000000E+00 0. -1.
</event>
<event>
 7    1  0.5849044E-013  0.5052886E+02  0.7816164E-02  0.1300439E+00
        -11   -1    0    0    0    0  0.00000000000E+00  0.00000000000E+00  0.45593999997E+02  0.45594000000E+02  0.51100000000E-03 0. -1.
         11   -1    0    0    0    0 -0.00000000000E+00 -0.00000000000E+00 -0.45593999997E+02  0.45594000000E+02  0.51100000000E-03 0.  1.
    9900012    2    1    2    0    0  0.22863865145E+02  0.30707088264E+02  0.13692478021E+02  0.50528861379E+02  0.30000004648E+02 0.  0.
         12    1    1    2    0    0 -0.22863865145E+02 -0.30707088264E+02 -0.13692478021E+02  0.40659138621E+02  0.00000000000E+00 0. -1.
         11    1    3    3    0    0  0.24916283873E+02  0.10123236955E+02  0.57114210352E+01  0.27494025878E+02  0.51100000000E-03 0. -1.
        -11    1    3    3    0    0 -0.28185121839E+01  0.87036311084E+01  0.92329312467E+00  0.91950897688E+01  0.51100000000E-03 0.  1.
         12    1    3    3    0    0  0.76609345546E+00  0.11880220201E+02  0.70577638615E+01  0.13839745732E+02  0.00000000000E+00 0. -1.
</event>
<event>
 7    1  0.5849044E-013  0.5052886E+02  0.7816164E-02  0.1300439E+00
        -11   -1    0    0    0    0  0.00000000000E+00  0.00000000000E+00  0.45593999997E+02  0.45594000000E+02  0.51100000000E-03 0.  1.
         11   -1    0    0    0    0 -0.00000000000E+00 -0.00000000000E+00 -0.45593999997E+02  0.45594000000E+02  0.51100000000E-03 0. -1.
    9900012    2    1    2    0    0 -0.33024651143E+02 -0.20831658021E+02  0.11339301782E+02  0.50528864201E+02  0.30000013226E+02 0.  0.
         12    1    1    2    0    0  0.33024651143E+02  0.20831658021E+02 -0.11339301782E+02  0.40659135799E+02  0.00000000000E+00 0. -1.
         11    1    3    3    0    0 -0.71391708391E+01 -0.14264204933E+02 -0.27386822984E+01  0.16184427195E+02  0.51100000000E-03 0. -1.
        -11    1    3    3    0    0 -0.77189142697E+01  0.14658515206E+01  0.12039851102E+02  0.14376660704E+02  0.51100000000E-03 0.  1.
        -12    1    3    3    0    0 -0.18166566034E+02 -0.80333046093E+01  0.20381329778E+01  0.19967776302E+02  0.00000000000E+00 0.  1.
</event>
<event>
 7    1  0.5849044E-013  0.5052887E+02  0.7816164E-02  0.1300439E+00
        -11   -1    0    0    0    0  0.00000000000E+00  0.00000000000E+00  0.45593999997E+02  0.45594000000E+02  0.51100000000E-03 0.  1.
         11   -1    0    0    0    0 -0.00000000000E+00 -0.00000000000E+00 -0.45593999997E+02  0.45594000000E+02  0.51100000000E-03 0. -1.
    9900012    2    1    2    0    0 -0.33851607851E+02  0.22394157606E+02 -0.23947749899E+01  0.50528873150E+02  0.30000040426E+02 0.  0.
         12    1    1    2    0    0  0.33851607851E+02 -0.22394157606E+02  0.23947749899E+01  0.40659126850E+02  0.00000000000E+00 0. -1.
         11    1    3    3    0    0  0.42139053679E+01  0.12994851294E+01 -0.27932697367E+01  0.52199632311E+01  0.51100000000E-03 0. -1.
        -11    1    3    3    0    0 -0.35829104273E+02  0.20863716927E+02  0.33527891751E+01  0.41596401197E+02  0.51100000000E-03 0.  1.
         12    1    3    3    0    0 -0.22364089459E+01  0.23095554920E+00 -0.29542944284E+01  0.37125087217E+01  0.00000000000E+00 0. -1.
</event>
<event>
 7    1  0.5849044E-013  0.5052889E+02  0.7816164E-02  0.1300439E+00
        -11   -1    0    0    0    0  0.00000000000E+00  0.00000000000E+00  0.45593999997E+02  0.45594000000E+02  0.51100000000E-03 0. -1.
         11   -1    0    0    0    0 -0.00000000000E+00 -0.00000000000E+00 -0.45593999997E+02  0.45594000000E+02  0.51100000000E-03 0.  1.
    9900012    2    1    2    0    0 -0.29705661120E+02 -0.24957483418E+02  0.12159809473E+02  0.50528889735E+02  0.30000090838E+02 0.  0.
         12    1    1    2    0    0  0.29705661120E+02  0.24957483418E+02 -0.12159809473E+02  0.40659110265E+02  0.00000000000E+00 0. -1.
         11    1    3    3    0    0 -0.33131484315E+02 -0.20499834877E+02  0.39969625084E+01  0.39165216614E+02  0.51100000000E-03 0.  1.
        -11    1    3    3    0    0  0.75296019244E+00 -0.18213505509E+01  0.72320322684E+01  0.74957693317E+01  0.51100000000E-03 0. -1.
        -12    1    3    3    0    0  0.26728630024E+01 -0.26362979897E+01  0.93081469645E+00  0.38679037888E+01  0.00000000000E+00 0.  1.
</event>
<event>
 7    1  0.5849044E-013  0.5052892E+02  0.7816164E-02  0.1300439E+00
        -11   -1    0    0    0    0  0.00000000000E+00  0.00000000000E+00  0.45593999997E+02  0.45594000000E+02  0.51100000000E-03 0.  1.
         11   -1    0    0    0    0 -0.00000000000E+00 -0.00000000000E+00 -0.45593999997E+02  0.45594000000E+02  0.51100000000E-03 0. -1.
    9900012    2    1    2    0    0  0.13797249587E+02  0.36220476607E+02  0.12283067053E+02  0.50528920349E+02  0.30000183893E+02 0.  0.
         12    1    1    2    0    0 -0.13797249587E+02 -0.36220476607E+02 -0.12283067053E+02  0.40659079651E+02  0.00000000000E+00 0. -1.
         11    1    3    3    0    0  0.99207585674E+01  0.13675964621E+02 -0.27097988842E+01  0.17111296535E+02  0.51100000000E-03 0. -1.
        -11    1    3    3    0    0  0.44502441091E+01  0.21790646357E+01  0.11796431273E+02  0.12794873440E+02  0.51100000000E-03 0.  1.
         12    1    3    3    0    0 -0.57375308956E+00  0.20365447351E+02  0.31964346640E+01  0.20622750373E+02  0.00000000000E+00 0. -1.
</event>
<event>
 7    1  0.5849044E-013  0.5052886E+02  0.7816164E-02  0.1300439E+00
        -11   -1    0    0    0    0  0.00000000000E+00  0.00000000000E+00  0.45593999997E+02  0.45594000000E+02  0.51100000000E-03 0.  1.
         11   -1    0    0    0    0 -0.00000000000E+00 -0.00000000000E+00 -0.45593999997E+02  0.45594000000E+02  0.51100000000E-03 0. -1.
    9900012    2    1    2    0    0  0.93393571376E+01 -0.33673289974E+02  0.20785848129E+02  0.50528861644E+02  0.30000005454E+02 0.  0.
         12    1    1    2    0    0 -0.93393571376E+01  0.33673289974E+02 -0.20785848129E+02  0.40659138356E+02  0.00000000000E+00 0. -1.
         11    1    3    3    0    0  0.10242536814E+01 -0.21218626866E+02 -0.36740685734E+01  0.21558710579E+02  0.51100000000E-03 0. -1.
        -11    1    3    3    0    0  0.32935632670E+01 -0.23774109411E+01  0.87003068153E+01  0.96018217396E+01  0.51100000000E-03 0.  1.
         12    1    3    3    0    0  0.50215401892E+01 -0.10077252167E+02  0.15759609887E+02  0.19368329326E+02  0.00000000000E+00 0. -1.
</event>
<event>
 7    1  0.5849044E-013  0.5052886E+02  0.7816164E-02  0.1300439E+00
        -11   -1    0    0    0    0  0.00000000000E+00  0.00000000000E+00  0.45593999997E+02  0.45594000000E+02  0.51100000000E-03 0.  1.
         11   -1    0    0    0    0 -0.00000000000E+00 -0.00000000000E+00 -0.45593999997E+02  0.45594000000E+02  0.51100000000E-03 0. -1.
    9900012    2    1    2    0    0 -0.25507440671E+02 -0.87113436752E+01  0.30440902322E+02  0.50528861146E+02  0.30000003939E+02 0.  0.
         12    1    1    2    0    0  0.25507440671E+02  0.87113436752E+01 -0.30440902322E+02  0.40659138854E+02  0.00000000000E+00 0. -1.
         11    1    3    3    0    0  0.86252093635E+00  0.54868911206E+01  0.60438750340E+01  0.82084311670E+01  0.51100000000E-03 0. -1.
        -11    1    3    3    0    0 -0.15127543135E+02 -0.40750378645E+01  0.21992275249E+02  0.27002012254E+02  0.51100000000E-03 0.  1.
        -12    1    3    3    0    0 -0.11242418473E+02 -0.10123196931E+02  0.24047520385E+01  0.15318417725E+02  0.00000000000E+00 0.  1.
</event>
<event>
 7    1  0.5849044E-013  0.5052886E+02  0.7816164E-02  0.1300439E+00
        -11   -1    0    0    0    0  0.00000000000E+00  0.00000000000E+00  0.45593999997E+02  0.45594000000E+02  0.51100000000E-03 0. -1.
         11   -1    0    0    0    0 -0.00000000000E+00 -0.00000000000E+00 -0.45593999997E+02  0.45594000000E+02  0.51100000000E-03 0.  1.
    9900012    2    1    2    0    0  0.14020041228E+02 -0.24064070228E+02 -0.29623035678E+02  0.50528864805E+02  0.30000015063E+02 0.  0.
         12    1    1    2    0    0 -0.14020041228E+02  0.24064070228E+02  0.29623035678E+02  0.40659135195E+02  0.00000000000E+00 0. -1.
         11    1    3    3    0    0 -0.57869123645E+01 -0.81007963377E+01 -0.18622638433E+01  0.10128143112E+02  0.51100000000E-03 0. -1.
        -11    1    3    3    0    0  0.22162319475E+02 -0.14714910176E+02 -0.26051273163E+02  0.37233933712E+02  0.51100000000E-03 0.  1.
        -12    1    3    3    0    0 -0.23553658831E+01 -0.12483637147E+01 -0.17094986723E+01  0.31667879813E+01  0.00000000000E+00 0.  1.
</event>
<event>
 7    1  0.5849044E-013  0.5052885E+02  0.7816164E-02  0.1300439E+00
        -11   -1    0    0    0    0  0.00000000000E+00  0.00000000000E+00  0.45593999997E+02  0.45594000000E+02  0.51100000000E-03 0.  1.
         11   -1    0    0    0    0 -0.00000000000E+00 -0.00000000000E+00 -0.45593999997E+02  0.45594000000E+02  0.51100000000E-03 0. -1.
    9900012    2    1    2    0    0 -0.30684869165E+02 -0.25622873761E+02  0.74211640744E+01  0.50528849349E+02  0.29999968081E+02 0.  0.
         12    1    1    2    0    0  0.30684869165E+02  0.25622873761E+02 -0.74211640744E+01  0.40659150651E+02  0.00000000000E+00 0. -1.
         11    1    3    3    0    0  0.51676585616E+01 -0.58803284389E+01  0.29302550202E+01  0.83587889256E+01  0.51100000000E-03 0. -1.
        -11    1    3    3    0    0 -0.26526588082E+02 -0.13076097246E+02  0.70968585001E+01  0.30413970396E+02  0.51100000000E-03 0.  1.
         12    1    3    3    0    0 -0.93259396446E+01 -0.66664480766E+01 -0.26059494459E+01  0.11756090027E+02  0.00000000000E+00 0. -1.
</event>
<event>
 7    1  0.5849044E-013  0.5052886E+02  0.7816164E-02  0.1300439E+00
        -11   -1    0    0    0    0  0.00000000000E+00  0.00000000000E+00  0.45593999997E+02  0.45594000000E+02  0.51100000000E-03 0. -1.
         11   -1    0    0    0    0 -0.00000000000E+00 -0.00000000000E+00 -0.45593999997E+02  0.45594000000E+02  0.51100000000E-03 0.  1.
    9900012    2    1    2    0    0 -0.61997276990E+01  0.34033833598E+02 -0.21364158999E+02  0.50528859052E+02  0.29999997573E+02 0.  0.
         12    1    1    2    0    0  0.61997276990E+01 -0.34033833598E+02  0.21364158999E+02  0.40659140948E+02  0.00000000000E+00 0. -1.
         11    1    3    3    0    0 -0.72350752121E+01  0.21890585716E+02  0.50589743600E+00  0.23060788989E+02  0.51100000000E-03 0. -1.
        -11    1    3    3    0    0  0.38606999417E+01  0.10235256760E+02 -0.90348851204E+01  0.14187834027E+02  0.51100000000E-03 0.  1.
         12    1    3    3    0    0 -0.28253524285E+01  0.19079911215E+01 -0.12835171315E+02  0.13280236035E+02  0.00000000000E+00 0. -1.
</event>
<event>
 7    1  0.5849044E-013  0.5052886E+02  0.7816164E-02  0.1300439E+00
        -11   -1    0    0    0    0  0.00000000000E+00  0.00000000000E+00  0.45593999997E+02  0.45594000000E+02  0.51100000000E-03 0.  1.
         11   -1    0    0    0    0 -0.00000000000E+00 -0.00000000000E+00 -0.45593999997E+02  0.45594000000E+02  0.51100000000E-03 0. -1.
    9900012    2    1    2    0    0 -0.27221357101E+02 -0.30119866820E+02 -0.22264052661E+01  0.50528861542E+02  0.30000005145E+02 0.  0.
         12    1    1    2    0    0  0.27221357101E+02  0.30119866820E+02  0.22264052661E+01  0.40659138458E+02  0.00000000000E+00 0. -1.
         11    1    3    3    0    0 -0.13412245858E+02 -0.14815871729E+01  0.57738677270E+01  0.14677226860E+02  0.51100000000E-03 0. -1.
        -11    1    3    3    0    0 -0.28898601740E+01 -0.20172160337E+02 -0.83694278809E+01  0.22029858551E+02  0.51100000000E-03 0.  1.
        -12    1    3    3    0    0 -0.10919251069E+02 -0.84661193106E+01  0.36915488784E+00  0.13821776131E+02  0.00000000000E+00 0.  1.
</event>
<event>
 7    1  0.5849044E-013  0.5052886E+02  0.7816164E-02  0.1300439E+00
        -11   -1    0    0    0    0  0.00000000000E+00  0.00000000000E+00  0.45593999997E+02  0.45594000000E+02  0.51100000000E-03 0. -1.
         11   -1    0    0    0    0 -0.00000000000E+00 -0.00000000000E+00 -0.45593999997E+02  0.45594000000E+02  0.51100000000E-03 0.  1.
    9900012    2    1    2    0    0 -0.18238549198E+01  0.15288645923E+02 -0.37631061937E+02  0.50528856336E+02  0.29999989320E+02 0.  0.
         12    1    1    2    0    0  0.18238549198E+01 -0.15288645923E+02  0.37631061937E+02  0.40659143664E+02  0.00000000000E+00 0. -1.
         11    1    3    3    0    0  0.12966944202E+00 -0.36589729445E+01 -0.13767818777E+02  0.14246323431E+02  0.51100000000E-03 0. -1.
        -11    1    3    3    0    0 -0.47129881516E+01  0.76116824187E+01  0.81069901668E+00  0.89892824918E+01  0.51100000000E-03 0.  1.
        -12    1    3    3    0    0  0.27594637897E+01  0.11335936449E+02 -0.24673942177E+02  0.27293250414E+02  0.00000000000E+00 0.  1.
</event>
<event>
 7    1  0.5849044E-013  0.5052885E+02  0.7816164E-02  0.1300439E+00
        -11   -1    0    0    0    0  0.00000000000E+00  0.00000000000E+00  0.45593999997E+02  0.45594000000E+02  0.51100000000E-03 0. -1.
         11   -1    0    0    0    0 -0.00000000000E+00 -0.00000000000E+00 -0.45593999997E+02  0.45594000000E+02  0.51100000000E-03 0.  1.
    9900012    2    1    2    0    0  0.40006060268E+02  0.13091111934E+01 -0.71391533645E+01  0.50528854153E+02  0.29999982682E+02 0.  0.
         12    1    1    2    0    0 -0.40006060268E+02 -0.13091111934E+01  0.71391533645E+01  0.40659145847E+02  0.00000000000E+00 0. -1.
         11    1    3    3    0    0  0.15703361247E+02  0.23747088240E+01  0.15066118558E+01  0.15953202688E+02  0.51100000000E-03 0. -1.
        -11    1    3    3    0    0  0.19854160376E+02  0.53591282392E+01 -0.14197738131E+02  0.24989672027E+02  0.51100000000E-03 0.  1.
        -12    1    3    3    0    0  0.44485386451E+01 -0.64247258698E+01  0.55519729110E+01  0.95859794379E+01  0.00000000000E+00 0.  1.
</event>
<event>
 7    1  0.5849044E-013  0.5052886E+02  0.7816164E-02  0.1300439E+00
        -11   -1    0    0    0    0  0.00000000000E+00  0.00000000000E+00  0.45593999997E+02  0.45594000000E+02  0.51100000000E-03 0. -1.
         11   -1    0    0    0    0 -0.00000000000E+00 -0.00000000000E+00 -0.45593999997E+02  0.45594000000E+02  0.51100000000E-03 0.  1.
    9900012    2    1    2    0    0  0.10032554157E+02  0.86564227481E+01 -0.38439296500E+02  0.50528864334E+02  0.30000013630E+02 0.  0.
         12    1    1    2    0    0 -0.10032554157E+02 -0.86564227481E+01  0.38439296500E+02  0.40659135666E+02  0.00000000000E+00 0. -1.
         11    1    3    3    0    0 -0.14191825409E+01  0.26459694551E+00 -0.29012952938E+01  0.32406180385E+01  0.51100000000E-03 0. -1.
        -11    1    3    3    0    0  0.45778325605E+01  0.43288226450E+01 -0.38318557862E+02  0.38833067524E+02  0.51100000000E-03 0.  1.
        -12    1    3    3    0    0  0.68739041375E+01  0.40630031576E+01  0.27805566558E+01  0.84551787720E+01  0.00000000000E+00 0.  1.
</event>
<event>
 7    1  0.5849044E-013  0.5052885E+02  0.7816164E-02  0.1300439E+00
        -11   -1    0    0    0    0  0.00000000000E+00  0.00000000000E+00  0.45593999997E+02  0.45594000000E+02  0.51100000000E-03 0.  1.
         11   -1    0    0    0    0 -0.00000000000E+00 -0.00000000000E+00 -0.45593999997E+02  0.45594000000E+02  0.51100000000E-03 0. -1.
    9900012    2    1    2    0    0 -0.66882055647E+01 -0.28617610476E+02  0.28097447661E+02  0.50528852344E+02  0.29999977185E+02 0.  0.
         12    1    1    2    0    0  0.66882055647E+01  0.28617610476E+02 -0.28097447661E+02  0.40659147656E+02  0.00000000000E+00 0. -1.
         11    1    3    3    0    0 -0.77138084976E+01 -0.16255906809E+02 -0.32324174891E+00  0.17996161625E+02  0.51100000000E-03 0. -1.
        -11    1    3    3    0    0  0.56137613703E+00  0.41029061862E+00  0.10492097051E+02  0.10515112094E+02  0.51100000000E-03 0.  1.
         12    1    3    3    0    0  0.46422679586E+00 -0.12771994285E+02  0.17928592360E+02  0.22017578626E+02  0.00000000000E+00 0. -1.
</event>
<event>
 7    1  0.5849044E-013  0.5052885E+02  0.7816164E-02  0.1300439E+00
        -11   -1    0    0    0    0  0.00000000000E+00  0.00000000000E+00  0.45593999997E+02  0.45594000000E+02  0.51100000000E-03 0. -1.
         11   -1    0    0    0    0 -0.00000000000E+00 -0.00000000000E+00 -0.45593999997E+02  0.45594000000E+02  0.51100000000E-03 0.  1.
    9900012    2    1    2    0    0 -0.13076287197E+02 -0.15261167185E+02 -0.35345074968E+02  0.50528845616E+02  0.29999956735E+02 0.  0.
         12    1    1    2    0    0  0.13076287197E+02  0.15261167185E+02  0.35345074968E+02  0.40659154384E+02  0.00000000000E+00 0. -1.
         11    1    3    3    0    0  0.32504985111E+01  0.14222550094E+01 -0.12017054286E+02  0.12529890017E+02  0.51100000000E-03 0. -1.
        -11    1    3    3    0    0 -0.68223427961E+01 -0.18979020468E+02 -0.14672325562E+02  0.24940423349E+02  0.51100000000E-03 0.  1.
        -12    1    3    3    0    0 -0.95044429121E+01  0.22955982740E+01 -0.86556951210E+01  0.13058532250E+02  0.00000000000E+00 0.  1.
</event>
<event>
 7    1  0.5849044E-013  0.5052885E+02  0.7816164E-02  0.1300439E+00
        -11   -1    0    0    0    0  0.00000000000E+00  0.00000000000E+00  0.45593999997E+02  0.45594000000E+02  0.51100000000E-03 0.  1.
         11   -1    0    0    0    0 -0.00000000000E+00 -0.00000000000E+00 -0.45593999997E+02  0.45594000000E+02  0.51100000000E-03 0. -1.
    9900012    2    1    2    0    0  0.25035417505E+02  0.17200050995E+02  0.27028729846E+02  0.50528854399E+02  0.29999983432E+02 0.  0.
         12    1    1    2    0    0 -0.25035417505E+02 -0.17200050995E+02 -0.27028729846E+02  0.40659145601E+02  0.00000000000E+00 0. -1.
         11    1    3    3    0    0 -0.40914918762E+01  0.87333366225E+01  0.11556604869E+02  0.15052129108E+02  0.51100000000E-03 0. -1.
        -11    1    3    3    0    0  0.21202681258E+02  0.66202120207E+01  0.15919602362E+02  0.27327909531E+02  0.51100000000E-03 0.  1.
         12    1    3    3    0    0  0.79242281227E+01  0.18465023523E+01 -0.44747738462E+00  0.81488157599E+01  0.00000000000E+00 0. -1.
</event>
<event>
 7    1  0.5849044E-013  0.5052885E+02  0.7816164E-02  0.1300439E+00
        -11   -1    0    0    0    0  0.00000000000E+00  0.00000000000E+00  0.45593999997E+02  0.45594000000E+02  0.51100000000E-03 0. -1.
         11   -1    0    0    0    0 -0.00000000000E+00 -0.00000000000E+00 -0.45593999997E+02  0.45594000000E+02  0.51100000000E-03 0.  1.
    9900012    2    1    2    0    0 -0.10407977706E+02 -0.92464895011E+01 -0.38201350769E+02  0.50528846435E+02  0.29999959224E+02 0.  0.
         12    1    1    2    0    0  0.10407977706E+02  0.92464895011E+01  0.38201350769E+02  0.40659153565E+02  0.00000000000E+00 0. -1.
         11    1    3    3    0    0 -0.18581554869E+02 -0.19489986748E+01 -0.13452261066E+02  0.23022513009E+02  0.51100000000E-03 0. -1.
        -11    1    3    3    0    0  0.12011700591E+01 -0.35056573595E+01 -0.50116771779E+01  0.62329247894E+01  0.51100000000E-03 0.  1.
         12    1    3    3    0    0  0.69724071038E+01 -0.37918334667E+01 -0.19737412525E+02  0.21273408637E+02  0.00000000000E+00 0. -1.
</event>
<event>
 7    1  0.5849044E-013  0.5052887E+02  0.7816164E-02  0.1300439E+00
        -11   -1    0    0    0    0  0.00000000000E+00  0.00000000000E+00  0.45593999997E+02  0.45594000000E+02  0.51100000000E-03 0.  1.
         11   -1    0    0    0    0 -0.00000000000E+00 -0.00000000000E+00 -0.45593999997E+02  0.45594000000E+02  0.51100000000E-03 0. -1.
    9900012    2    1    2    0    0 -0.96592289347E+01  0.13300017574E+02  0.37188358048E+02  0.50528866397E+02  0.30000019900E+02 0.  0.
         12    1    1    2    0    0  0.96592289347E+01 -0.13300017574E+02 -0.37188358048E+02  0.40659133603E+02  0.00000000000E+00 0. -1.
         11    1    3    3    0    0 -0.66708883004E+01  0.62796324394E+01  0.89520436308E+00  0.92052118608E+01  0.51100000000E-03 0. -1.
        -11    1    3    3    0    0  0.65121302952E+01  0.73750947781E+01  0.22651756871E+02  0.24696193099E+02  0.51100000000E-03 0.  1.
        -12    1    3    3    0    0 -0.95004709296E+01 -0.35470964390E+00  0.13641396813E+02  0.16627461437E+02  0.00000000000E+00 0.  1.
</event>
<event>
 7    1  0.5849044E-013  0.5052886E+02  0.7816164E-02  0.1300439E+00
        -11   -1    0    0    0    0  0.00000000000E+00  0.00000000000E+00  0.45593999997E+02  0.45594000000E+02  0.51100000000E-03 0.  1.
         11   -1    0    0    0    0 -0.00000000000E+00 -0.00000000000E+00 -0.45593999997E+02  0.45594000000E+02  0.51100000000E-03 0. -1.
    9900012    2    1    2    0    0  0.28454375196E+02 -0.24075023329E+02  0.16245222417E+02  0.50528862436E+02  0.30000007861E+02 0.  0.
         12    1    1    2    0    0 -0.28454375196E+02  0.24075023329E+02 -0.16245222417E+02  0.40659137564E+02  0.00000000000E+00 0. -1.
         11    1    3    3    0    0  0.72789810709E+01 -0.91229656251E+01 -0.66942786211E+01  0.13454569252E+02  0.51100000000E-03 0. -1.
        -11    1    3    3    0    0  0.85915969733E+01 -0.95799528996E+00  0.13472376984E+02  0.16007443125E+02  0.51100000000E-03 0.  1.
         12    1    3    3    0    0  0.12583797152E+02 -0.13994062414E+02  0.94671240538E+01  0.21066850060E+02  0.00000000000E+00 0. -1.
</event>
<event>
 7    1  0.5849044E-013  0.5052886E+02  0.7816164E-02  0.1300439E+00
        -11   -1    0    0    0    0  0.00000000000E+00  0.00000000000E+00  0.45593999997E+02  0.45594000000E+02  0.51100000000E-03 0.  1.
         11   -1    0    0    0    0 -0.00000000000E+00 -0.00000000000E+00 -0.45593999997E+02  0.45594000000E+02  0.51100000000E-03 0. -1.
    9900012    2    1    2    0    0  0.27493784029E+02 -0.15385197575E+01  0.29914722958E+02  0.50528857696E+02  0.29999993452E+02 0.  0.
         12    1    1    2    0    0 -0.27493784029E+02  0.15385197575E+01 -0.29914722958E+02  0.40659142304E+02  0.00000000000E+00 0. -1.
         11    1    3    3    0    0  0.15723046345E+01  0.64879267775E+00 -0.20958762981E+01  0.26992168346E+01  0.51100000000E-03 0. -1.
        -11    1    3    3    0    0  0.15788663971E+02 -0.82155206251E+01  0.31314050518E+02  0.36018695829E+02  0.51100000000E-03 0.  1.
        -12    1    3    3    0    0  0.10132815424E+02  0.60282081898E+01  0.69654873753E+00  0.11810945032E+02  0.00000000000E+00 0.  1.
</event>
<event>
 7    1  0.5849044E-013  0.5052886E+02  0.7816164E-02  0.1300439E+00
        -11   -1    0    0    0    0  0.00000000000E+00  0.00000000000E+00  0.45593999997E+02  0.45594000000E+02  0.51100000000E-03 0.  1.
         11   -1    0    0    0    0 -0.00000000000E+00 -0.00000000000E+00 -0.45593999997E+02  0.45594000000E+02  0.51100000000E-03 0. -1.
    9900012    2    1    2    0    0 -0.19651269873E+02 -0.33340898641E+02 -0.12465048012E+02  0.50528863858E+02  0.30000012184E+02 0.  0.
         12    1    1    2    0    0  0.19651269873E+02  0.33340898641E+02  0.12465048012E+02  0.40659136142E+02  0.00000000000E+00 0. -1.
         11    1    3    3    0    0 -0.65239133310E+00  0.92161582669E+00 -0.94990243492E+00  0.14755694089E+01  0.51100000000E-03 0. -1.
        -11    1    3    3    0    0 -0.19513835474E+02 -0.37231444595E+02 -0.14828990274E+02  0.44574310924E+02  0.51100000000E-03 0.  1.
        -12    1    3    3    0    0  0.51495693409E+00  0.29689301273E+01  0.33138446970E+01  0.44789835253E+01  0.00000000000E+00 0.  1.
</event>
<event>
 7    1  0.5849044E-013  0.5052886E+02  0.7816164E-02  0.1300439E+00
        -11   -1    0    0    0    0  0.00000000000E+00  0.00000000000E+00  0.45593999997E+02  0.45594000000E+02  0.51100000000E-03 0.  1.
         11   -1    0    0    0    0 -0.00000000000E+00 -0.00000000000E+00 -0.45593999997E+02  0.45594000000E+02  0.51100000000E-03 0. -1.
    9900012    2    1    2    0    0  0.50107281949E+01 -0.13269629329E+02  0.38104790806E+02  0.50528861520E+02  0.30000005076E+02 0.  0.
         12    1    1    2    0    0 -0.50107281949E+01  0.13269629329E+02 -0.38104790806E+02  0.40659138480E+02  0.00000000000E+00 0. -1.
         11    1    3    3    0    0  0.24657802528E+01 -0.20281492465E+02  0.15234266047E+02  0.25485326584E+02  0.51100000000E-03 0. -1.
        -11    1    3    3    0    0  0.12250942383E+01  0.27061133410E+01  0.18604902743E+02  0.18840549664E+02  0.51100000000E-03 0.  1.
         12    1    3    3    0    0  0.13198537038E+01  0.43057497949E+01  0.42656220162E+01  0.62029852717E+01  0.00000000000E+00 0. -1.
</event>
<event>
 7    1  0.5849044E-013  0.5052887E+02  0.7816164E-02  0.1300439E+00
        -11   -1    0    0    0    0  0.00000000000E+00  0.00000000000E+00  0.45593999997E+02  0.45594000000E+02  0.51100000000E-03 0.  1.
         11   -1    0    0    0    0 -0.00000000000E+00 -0.00000000000E+00 -0.45593999997E+02  0.45594000000E+02  0.51100000000E-03 0. -1.
    9900012    2    1    2    0    0 -0.78599090227E+01  0.31641546828E+02  0.24294017172E+02  0.50528869096E+02  0.30000028103E+02 0.  0.
         12    1    1    2    0    0  0.78599090227E+01 -0.31641546828E+02 -0.24294017172E+02  0.40659130904E+02  0.00000000000E+00 0. -1.
         11    1    3    3    0    0 -0.61968651542E+01  0.12326800147E+02 -0.14413228654E+01  0.13871861860E+02  0.51100000000E-03 0. -1.
        -11    1    3    3    0    0  0.72084500350E+01  0.13844924404E+02  0.16758762845E+02  0.22901960964E+02  0.51100000000E-03 0.  1.
        -12    1    3    3    0    0 -0.88714939036E+01  0.54698222773E+01  0.89765771932E+01  0.13755046272E+02  0.00000000000E+00 0.  1.
</event>
<event>
 7    1  0.5849044E-013  0.5052886E+02  0.7816164E-02  0.1300439E+00
        -11   -1    0    0    0    0  0.00000000000E+00  0.00000000000E+00  0.45593999997E+02  0.45594000000E+02  0.51100000000E-03 0.  1.
         11   -1    0    0    0    0 -0.00000000000E+00 -0.00000000000E+00 -0.45593999997E+02  0.45594000000E+02  0.51100000000E-03 0. -1.
    9900012    2    1    2    0    0 -0.35172669260E+02  0.20046790227E+02  0.37649615119E+01  0.50528863309E+02  0.30000010514E+02 0.  0.
         12    1    1    2    0    0  0.35172669260E+02 -0.20046790227E+02 -0.37649615119E+01  0.40659136691E+02  0.00000000000E+00 0. -1.
         11    1    3    3    0    0  0.18346586330E+01  0.90822223657E+01 -0.91434717772E+00  0.93106802341E+01  0.51100000000E-03 0. -1.
        -11    1    3    3    0    0 -0.27373647370E+02  0.11352963093E+02 -0.16572100178E+01  0.29680847134E+02  0.51100000000E-03 0.  1.
        -12    1    3    3    0    0 -0.96336805233E+01 -0.38839523086E+00  0.63365187074E+01  0.11537335941E+02  0.00000000000E+00 0.  1.
</event>
<event>
 7    1  0.5849044E-013  0.5052886E+02  0.7816164E-02  0.1300439E+00
        -11   -1    0    0    0    0  0.00000000000E+00  0.00000000000E+00  0.45593999997E+02  0.45594000000E+02  0.51100000000E-03 0.  1.
         11   -1    0    0    0    0 -0.00000000000E+00 -0.00000000000E+00 -0.45593999997E+02  0.45594000000E+02  0.51100000000E-03 0. -1.
    9900012    2    1    2    0    0  0.32240089712E+02  0.22244611025E+02  0.10905028678E+02  0.50528858903E+02  0.29999997120E+02 0.  0.
         12    1    1    2    0    0 -0.32240089712E+02 -0.22244611025E+02 -0.10905028678E+02  0.40659141097E+02  0.00000000000E+00 0. -1.
         11    1    3    3    0    0  0.57256243821E+01  0.56432374890E+00 -0.87462048732E+01  0.10468874620E+02  0.51100000000E-03 0. -1.
        -11    1    3    3    0    0  0.10712042421E+02  0.13017392055E+02  0.10321323376E+02  0.19766893161E+02  0.51100000000E-03 0.  1.
         12    1    3    3    0    0  0.15802422909E+02  0.86628952217E+01  0.93299101746E+01  0.20293091122E+02  0.00000000000E+00 0. -1.
</event>
<event>
 7    1  0.5849044E-013  0.5052885E+02  0.7816164E-02  0.1300439E+00
        -11   -1    0    0    0    0  0.00000000000E+00  0.00000000000E+00  0.45593999997E+02  0.45594000000E+02  0.51100000000E-03 0.  1.
         11   -1    0    0    0    0 -0.00000000000E+00 -0.00000000000E+00 -0.45593999997E+02  0.45594000000E+02  0.51100000000E-03 0. -1.
    9900012    2    1    2    0    0 -0.29129653810E+02  0.19529134028E+00  0.28365325967E+02  0.50528848669E+02  0.29999966013E+02 0.  0.
         12    1    1    2    0    0  0.29129653810E+02 -0.19529134028E+00 -0.28365325967E+02  0.40659151331E+02  0.00000000000E+00 0. -1.
         11    1    3    3    0    0  0.52492907484E+01  0.32558798513E+00  0.23819705389E+01  0.57736335878E+01  0.51100000000E-03 0. -1.
        -11    1    3    3    0    0 -0.22517410214E+02  0.52750234629E+01  0.13910438984E+02  0.26988144588E+02  0.51100000000E-03 0.  1.
        -12    1    3    3    0    0 -0.11861534344E+02 -0.54053201077E+01  0.12072916443E+02  0.17767070493E+02  0.00000000000E+00 0.  1.
</event>
<event>
 7    1  0.5849044E-013  0.5052886E+02  0.7816164E-02  0.1300439E+00
        -11   -1    0    0    0    0  0.00000000000E+00  0.00000000000E+00  0.45593999997E+02  0.45594000000E+02  0.51100000000E-03 0.  1.
         11   -1    0    0    0    0 -0.00000000000E+00 -0.00000000000E+00 -0.45593999997E+02  0.45594000000E+02  0.51100000000E-03 0. -1.
    9900012    2    1    2    0    0  0.58776653855E+01 -0.17515747545E+02  0.36219019197E+02  0.50528859404E+02  0.29999998644E+02 0.  0.
         12    1    1    2    0    0 -0.58776653855E+01  0.17515747545E+02 -0.36219019197E+02  0.40659140596E+02  0.00000000000E+00 0. -1.
         11    1    3    3    0    0  0.16519945158E+00 -0.14468066634E+01 -0.43807407746E+01  0.46164304799E+01  0.51100000000E-03 0. -1.
        -11    1    3    3    0    0  0.49285471530E+01 -0.80546659539E+01  0.34613832038E+02  0.35878762371E+02  0.51100000000E-03 0.  1.
        -12    1    3    3    0    0  0.78391878094E+00 -0.80142749273E+01  0.59859279335E+01  0.10033666553E+02  0.00000000000E+00 0.  1.
</event>
<event>
 7    1  0.5849044E-013  0.5052884E+02  0.7816164E-02  0.1300439E+00
        -11   -1    0    0    0    0  0.00000000000E+00  0.00000000000E+00  0.45593999997E+02  0.45594000000E+02  0.51100000000E-03 0. -1.
         11   -1    0    0    0    0 -0.00000000000E+00 -0.00000000000E+00 -0.45593999997E+02  0.45594000000E+02  0.51100000000E-03 0.  1.
    9900012    2    1    2    0    0 -0.24601386957E+02 -0.22295122121E+02  0.23470554808E+02  0.50528835552E+02  0.29999926143E+02 0.  0.
         12    1    1    2    0    0  0.24601386957E+02  0.22295122121E+02 -0.23470554808E+02  0.40659164448E+02  0.00000000000E+00 0. -1.
         11    1    3    3    0    0 -0.59573054322E+01 -0.73029564502E+01  0.17049580015E+02  0.19481037957E+02  0.51100000000E-03 0. -1.
        -11    1    3    3    0    0 -0.15602471339E+02 -0.19429488504E+02  0.61224114749E+01  0.25659814067E+02  0.51100000000E-03 0.  1.
        -12    1    3    3    0    0 -0.30416101860E+01  0.44373228328E+01  0.29856331830E+00  0.53879835283E+01  0.00000000000E+00 0.  1.
</event>
<event>
 7    1  0.5849044E-013  0.5052885E+02  0.7816164E-02  0.1300439E+00
        -11   -1    0    0    0    0  0.00000000000E+00  0.00000000000E+00  0.45593999997E+02  0.45594000000E+02  0.51100000000E-03 0.  1.
         11   -1    0    0    0    0 -0.00000000000E+00 -0.00000000000E+00 -0.45593999997E+02  0.45594000000E+02  0.51100000000E-03 0. -1.
    9900012    2    1    2    0    0  0.27085979734E+02 -0.29959152327E+02  0.46867365861E+01  0.50528848433E+02  0.29999965298E+02 0.  0.
         12    1    1    2    0    0 -0.27085979734E+02  0.29959152327E+02 -0.46867365861E+01  0.40659151567E+02  0.00000000000E+00 0. -1.
         11    1    3    3    0    0  0.17694291115E+02 -0.31814569695E+02 -0.16476462378E+00  0.36404421855E+02  0.51100000000E-03 0. -1.
        -11    1    3    3    0    0  0.19237160898E+01 -0.35143970669E+01  0.86070610122E+00  0.40978635399E+01  0.51100000000E-03 0.  1.
         12    1    3    3    0    0  0.74679725290E+01  0.53698144354E+01  0.39907951086E+01  0.10026563038E+02  0.00000000000E+00 0. -1.
</event>
<event>
 7    1  0.5849044E-013  0.5052887E+02  0.7816164E-02  0.1300439E+00
        -11   -1    0    0    0    0  0.00000000000E+00  0.00000000000E+00  0.45593999997E+02  0.45594000000E+02  0.51100000000E-03 0. -1.
         11   -1    0    0    0    0 -0.00000000000E+00 -0.00000000000E+00 -0.45593999997E+02  0.45594000000E+02  0.51100000000E-03 0.  1.
    9900012    2    1    2    0    0  0.11137349888E+02  0.26739423336E+02 -0.28532924865E+02  0.50528866657E+02  0.30000020689E+02 0.  0.
         12    1    1    2    0    0 -0.11137349888E+02 -0.26739423336E+02  0.28532924865E+02  0.40659133343E+02  0.00000000000E+00 0. -1.
         11    1    3    3    0    0 -0.78652745736E+01  0.57777303506E+01 -0.39833159144E+00  0.97674654052E+01  0.51100000000E-03 0. -1.
        -11    1    3    3    0    0  0.18425689154E+02  0.15902297287E+02 -0.22214719044E+02  0.32952736188E+02  0.51100000000E-03 0.  1.
         12    1    3    3    0    0  0.57693530825E+00  0.50593956985E+01 -0.59198742292E+01  0.78086650635E+01  0.00000000000E+00 0. -1.
</event>
