<event>
 7    1  0.2569312E-015  0.9000770E+02  0.7816164E-02  0.1186339E+00
        -11   -1    0    0    0    0  0.00000000000E+00  0.00000000000E+00  0.45593999997E+02  0.45594000000E+02  0.51100000000E-03 0. -1.
         11   -1    0    0    0    0 -0.00000000000E+00 -0.00000000000E+00 -0.45593999997E+02  0.45594000000E+02  0.51100000000E-03 0.  1.
    9900012    2    1    2    0    0  0.16472721130E+00 -0.65435706393E+00 -0.96840127061E+00  0.90007695276E+02  0.89999956053E+02 0.  0.
         12    1    1    2    0    0 -0.16472721130E+00  0.65435706393E+00  0.96840127061E+00  0.11803047243E+01  0.00000000000E+00 0. -1.
         11    1    3    3    0    0  0.20010691105E+02 -0.35731403259E+02  0.40191731173E+01  0.41149905105E+02  0.51100000000E-03 0. -1.
        -11    1    3    3    0    0 -0.10046057116E+02 -0.92068994132E+00  0.33496585675E+01  0.10629729363E+02  0.51100000000E-03 0.  1.
        -12    1    3    3    0    0 -0.97999067769E+01  0.35997736136E+02 -0.83372329553E+01  0.38228060808E+02  0.00000000000E+00 0.  1.
</event>
<event>
 7    1  0.2569312E-015  0.9000784E+02  0.7816164E-02  0.1186339E+00
        -11   -1    0    0    0    0  0.00000000000E+00  0.00000000000E+00  0.45593999997E+02  0.45594000000E+02  0.51100000000E-03 0. -1.
         11   -1    0    0    0    0 -0.00000000000E+00 -0.00000000000E+00 -0.45593999997E+02  0.45594000000E+02  0.51100000000E-03 0.  1.
    9900012    2    1    2    0    0 -0.78517102403E-01  0.11360173708E+01  0.30997607492E+00  0.90007836635E+02  0.90000099278E+02 0.  0.
         12    1    1    2    0    0  0.78517102403E-01 -0.11360173708E+01 -0.30997607492E+00  0.11801633655E+01  0.00000000000E+00 0. -1.
         11    1    3    3    0    0 -0.30125866436E+02 -0.92448827128E+01  0.15843063023E+02  0.35270927562E+02  0.51100000000E-03 0. -1.
        -11    1    3    3    0    0 -0.82772530048E+01  0.16210055564E+01  0.55800148476E+01  0.10113216218E+02  0.51100000000E-03 0.  1.
        -12    1    3    3    0    0  0.38324602338E+02  0.87598945273E+01 -0.21113101796E+02  0.44623692854E+02  0.00000000000E+00 0.  1.
</event>
<event>
 7    1  0.2569312E-015  0.9000782E+02  0.7816164E-02  0.1186339E+00
        -11   -1    0    0    0    0  0.00000000000E+00  0.00000000000E+00  0.45593999997E+02  0.45594000000E+02  0.51100000000E-03 0.  1.
         11   -1    0    0    0    0 -0.00000000000E+00 -0.00000000000E+00 -0.45593999997E+02  0.45594000000E+02  0.51100000000E-03 0. -1.
    9900012    2    1    2    0    0 -0.78408453391E+00 -0.84075138054E+00  0.26676968815E+00  0.90007823104E+02  0.90000085569E+02 0.  0.
         12    1    1    2    0    0  0.78408453391E+00  0.84075138054E+00 -0.26676968815E+00  0.11801768964E+01  0.00000000000E+00 0. -1.
         11    1    3    3    0    0 -0.10660969189E+02  0.17363609810E+02 -0.30371872546E+02  0.36573239560E+02  0.51100000000E-03 0. -1.
        -11    1    3    3    0    0 -0.97531876948E+01 -0.21325822032E+01 -0.37807646386E+01  0.10675521466E+02  0.51100000000E-03 0.  1.
        -12    1    3    3    0    0  0.19630072350E+02 -0.16071778987E+02  0.34419406873E+02  0.42759062078E+02  0.00000000000E+00 0.  1.
</event>
<event>
 7    1  0.2569312E-015  0.9000775E+02  0.7816164E-02  0.1186339E+00
        -11   -1    0    0    0    0  0.00000000000E+00  0.00000000000E+00  0.45593999997E+02  0.45594000000E+02  0.51100000000E-03 0.  1.
         11   -1    0    0    0    0 -0.00000000000E+00 -0.00000000000E+00 -0.45593999997E+02  0.45594000000E+02  0.51100000000E-03 0. -1.
    9900012    2    1    2    0    0 -0.57398549945E+00 -0.14964184207E+00  0.10203665725E+01  0.90007745800E+02  0.90000007245E+02 0.  0.
         12    1    1    2    0    0  0.57398549945E+00  0.14964184207E+00 -0.10203665725E+01  0.11802542000E+01  0.00000000000E+00 0. -1.
         11    1    3    3    0    0  0.90911343788E+01  0.38208793280E+02  0.13410090605E+01  0.39298332201E+02  0.51100000000E-03 0. -1.
        -11    1    3    3    0    0  0.28773824332E+01 -0.10241400977E-01 -0.89917707481E+01  0.94409414785E+01  0.51100000000E-03 0.  1.
        -12    1    3    3    0    0 -0.12542502311E+02 -0.38348193721E+02  0.86711282601E+01  0.41268472121E+02  0.00000000000E+00 0.  1.
</event>
<event>
 7    1  0.2569312E-015  0.9000772E+02  0.7816164E-02  0.1186339E+00
        -11   -1    0    0    0    0  0.00000000000E+00  0.00000000000E+00  0.45593999997E+02  0.45594000000E+02  0.51100000000E-03 0.  1.
         11   -1    0    0    0    0 -0.00000000000E+00 -0.00000000000E+00 -0.45593999997E+02  0.45594000000E+02  0.51100000000E-03 0. -1.
    9900012    2    1    2    0    0 -0.17532237854E+00  0.36147329361E+00  0.11098055773E+01  0.90007716433E+02  0.89999977490E+02 0.  0.
         12    1    1    2    0    0  0.17532237854E+00 -0.36147329361E+00 -0.11098055773E+01  0.11802835667E+01  0.00000000000E+00 0. -1.
         11    1    3    3    0    0  0.12556565727E+02 -0.19111093527E+02 -0.21813948687E+02  0.31602999798E+02  0.51100000000E-03 0. -1.
        -11    1    3    3    0    0  0.35991869198E+01 -0.11303444308E+02  0.20240944764E+02  0.23460985592E+02  0.51100000000E-03 0.  1.
        -12    1    3    3    0    0 -0.16331075025E+02  0.30776011129E+02  0.26828094998E+01  0.34943731044E+02  0.00000000000E+00 0.  1.
</event>
<event>
 7    1  0.2569312E-015  0.9000763E+02  0.7816164E-02  0.1186339E+00
        -11   -1    0    0    0    0  0.00000000000E+00  0.00000000000E+00  0.45593999997E+02  0.45594000000E+02  0.51100000000E-03 0. -1.
         11   -1    0    0    0    0 -0.00000000000E+00 -0.00000000000E+00 -0.45593999997E+02  0.45594000000E+02  0.51100000000E-03 0.  1.
    9900012    2    1    2    0    0 -0.80530462456E+00  0.84650209589E+00  0.16790162591E+00  0.90007630442E+02  0.89999890364E+02 0.  0.
         12    1    1    2    0    0  0.80530462456E+00 -0.84650209589E+00 -0.16790162591E+00  0.11803695577E+01  0.00000000000E+00 0. -1.
         11    1    3    3    0    0  0.25431047298E+02  0.20350430934E+02 -0.21611441322E+02  0.39088778468E+02  0.51100000000E-03 0. -1.
        -11    1    3    3    0    0 -0.57211058081E+01  0.16061748246E+01 -0.73866352449E+01  0.94801492466E+01  0.51100000000E-03 0.  1.
        -12    1    3    3    0    0 -0.20515246115E+02 -0.21110103663E+02  0.29165978193E+02  0.41438702727E+02  0.00000000000E+00 0.  1.
</event>
<event>
 7    1  0.2569312E-015  0.9000767E+02  0.7816164E-02  0.1186339E+00
        -11   -1    0    0    0    0  0.00000000000E+00  0.00000000000E+00  0.45593999997E+02  0.45594000000E+02  0.51100000000E-03 0. -1.
         11   -1    0    0    0    0 -0.00000000000E+00 -0.00000000000E+00 -0.45593999997E+02  0.45594000000E+02  0.51100000000E-03 0.  1.
    9900012    2    1    2    0    0  0.73060781616E+00 -0.36920966549E+00 -0.85034376718E+00  0.90007666115E+02  0.89999926508E+02 0.  0.
         12    1    1    2    0    0 -0.73060781616E+00  0.36920966549E+00  0.85034376718E+00  0.11803338852E+01  0.00000000000E+00 0. -1.
         11    1    3    3    0    0 -0.58725277291E+01  0.50013280173E+00  0.46013474592E+01  0.74772396946E+01  0.51100000000E-03 0. -1.
        -11    1    3    3    0    0 -0.25328742327E+02  0.15252616987E+02 -0.27609018955E+02  0.40453002864E+02  0.51100000000E-03 0.  1.
         12    1    3    3    0    0  0.31931877872E+02 -0.16121959454E+02  0.22157327728E+02  0.42077423556E+02  0.00000000000E+00 0. -1.
</event>
<event>
 7    1  0.2569312E-015  0.9000773E+02  0.7816164E-02  0.1186339E+00
        -11   -1    0    0    0    0  0.00000000000E+00  0.00000000000E+00  0.45593999997E+02  0.45594000000E+02  0.51100000000E-03 0. -1.
         11   -1    0    0    0    0 -0.00000000000E+00 -0.00000000000E+00 -0.45593999997E+02  0.45594000000E+02  0.51100000000E-03 0.  1.
    9900012    2    1    2    0    0  0.29426277728E+00  0.10679268795E+01 -0.40739926877E+00  0.90007731994E+02  0.89999993256E+02 0.  0.
         12    1    1    2    0    0 -0.29426277728E+00 -0.10679268795E+01  0.40739926877E+00  0.11802680061E+01  0.00000000000E+00 0. -1.
         11    1    3    3    0    0  0.77503395849E+01 -0.67373578637E+01 -0.41759376259E+01  0.11085946508E+02  0.51100000000E-03 0. -1.
        -11    1    3    3    0    0  0.25196901359E+02 -0.79165381445E+01 -0.22065497521E+02  0.34415717273E+02  0.51100000000E-03 0.  1.
         12    1    3    3    0    0 -0.32652978166E+02  0.15721822888E+02  0.25834035878E+02  0.44506068213E+02  0.00000000000E+00 0. -1.
</event>
<event>
 7    1  0.3086416E-015  0.9000785E+02  0.7816164E-02  0.1186339E+00
        -11   -1    0    0    0    0  0.00000000000E+00  0.00000000000E+00  0.45593999997E+02  0.45594000000E+02  0.51100000000E-03 0.  1.
         11   -1    0    0    0    0 -0.00000000000E+00 -0.00000000000E+00 -0.45593999997E+02  0.45594000000E+02  0.51100000000E-03 0. -1.
    9900012    2    1    2    0    0 -0.45704656641E+00  0.10850333697E+01  0.81087286979E-01  0.90007845720E+02  0.90000108483E+02 0.  0.
         12    1    1    2    0    0  0.45704656641E+00 -0.10850333697E+01 -0.81087286979E-01  0.11801542803E+01  0.00000000000E+00 0. -1.
         11    1    3    3    0    0 -0.12347768892E+01 -0.30842619653E+01 -0.37627779884E+02  0.37774160018E+02  0.51100000000E-03 0. -1.
        -11    1    3    3    0    0 -0.28997079613E+01  0.78468671445E+01 -0.46403485162E+01  0.95663192952E+01  0.51100000000E-03 0.  1.
        -12    1    3    3    0    0  0.36774382841E+01 -0.36775718095E+01  0.42349215687E+02  0.42667366406E+02  0.00000000000E+00 0.  1.
</event>
<event>
 7    1  0.2569312E-015  0.9000772E+02  0.7816164E-02  0.1186339E+00
        -11   -1    0    0    0    0  0.00000000000E+00  0.00000000000E+00  0.45593999997E+02  0.45594000000E+02  0.51100000000E-03 0.  1.
         11   -1    0    0    0    0 -0.00000000000E+00 -0.00000000000E+00 -0.45593999997E+02  0.45594000000E+02  0.51100000000E-03 0. -1.
    9900012    2    1    2    0    0  0.69118794430E+00 -0.42982380353E+00 -0.85473603852E+00  0.90007719113E+02  0.89999980205E+02 0.  0.
         12    1    1    2    0    0 -0.69118794430E+00  0.42982380353E+00  0.85473603852E+00  0.11802808869E+01  0.00000000000E+00 0. -1.
         11    1    3    3    0    0  0.25037639020E+02  0.82279639422E+01 -0.27251860886E+02  0.37911036392E+02  0.51100000000E-03 0. -1.
        -11    1    3    3    0    0  0.77821665445E+01  0.44852182344E+00 -0.22341465124E+01  0.81089271086E+01  0.51100000000E-03 0.  1.
        -12    1    3    3    0    0 -0.32128617620E+02 -0.91063095692E+01  0.28631271360E+02  0.43987755612E+02  0.00000000000E+00 0.  1.
</event>
<event>
 7    1  0.2569312E-015  0.9000769E+02  0.7816164E-02  0.1186339E+00
        -11   -1    0    0    0    0  0.00000000000E+00  0.00000000000E+00  0.45593999997E+02  0.45594000000E+02  0.51100000000E-03 0.  1.
         11   -1    0    0    0    0 -0.00000000000E+00 -0.00000000000E+00 -0.45593999997E+02  0.45594000000E+02  0.51100000000E-03 0. -1.
    9900012    2    1    2    0    0  0.96693455052E+00  0.66824402485E+00  0.10781328279E+00  0.90007688090E+02  0.89999948772E+02 0.  0.
         12    1    1    2    0    0 -0.96693455052E+00 -0.66824402485E+00 -0.10781328279E+00  0.11803119103E+01  0.00000000000E+00 0. -1.
         11    1    3    3    0    0  0.28228176977E+01  0.35841982715E+02 -0.22563378685E+02  0.42446696958E+02  0.51100000000E-03 0. -1.
        -11    1    3    3    0    0  0.72163890661E+01 -0.47337140041E+01  0.16417518010E+00  0.86319912637E+01  0.51100000000E-03 0.  1.
        -12    1    3    3    0    0 -0.90722722133E+01 -0.30440024686E+02  0.22507016788E+02  0.38928999868E+02  0.00000000000E+00 0.  1.
</event>
<event>
 7    1  0.2569312E-015  0.9000759E+02  0.7816164E-02  0.1186339E+00
        -11   -1    0    0    0    0  0.00000000000E+00  0.00000000000E+00  0.45593999997E+02  0.45594000000E+02  0.51100000000E-03 0. -1.
         11   -1    0    0    0    0 -0.00000000000E+00 -0.00000000000E+00 -0.45593999997E+02  0.45594000000E+02  0.51100000000E-03 0.  1.
    9900012    2    1    2    0    0  0.10270024456E+01  0.39753985932E+00 -0.42496196360E+00  0.90007591328E+02  0.89999850733E+02 0.  0.
         12    1    1    2    0    0 -0.10270024456E+01 -0.39753985932E+00  0.42496196360E+00  0.11804086723E+01  0.00000000000E+00 0. -1.
         11    1    3    3    0    0 -0.35958374216E+02 -0.95192924443E+01  0.29679122048E+01  0.37315279820E+02  0.51100000000E-03 0. -1.
        -11    1    3    3    0    0 -0.46719361607E+01 -0.85337876209E+00  0.69706385620E+01  0.84347522207E+01  0.51100000000E-03 0.  1.
        -12    1    3    3    0    0  0.41657312822E+02  0.10770211066E+02 -0.10363512730E+02  0.44257559287E+02  0.00000000000E+00 0.  1.
</event>
<event>
 7    1  0.2569312E-015  0.9000770E+02  0.7816164E-02  0.1186339E+00
        -11   -1    0    0    0    0  0.00000000000E+00  0.00000000000E+00  0.45593999997E+02  0.45594000000E+02  0.51100000000E-03 0.  1.
         11   -1    0    0    0    0 -0.00000000000E+00 -0.00000000000E+00 -0.45593999997E+02  0.45594000000E+02  0.51100000000E-03 0. -1.
    9900012    2    1    2    0    0 -0.71693743572E+00 -0.65384475563E+00  0.67201485772E+00  0.90007696556E+02  0.89999957350E+02 0.  0.
         12    1    1    2    0    0  0.71693743572E+00  0.65384475563E+00 -0.67201485772E+00  0.11803034441E+01  0.00000000000E+00 0. -1.
         11    1    3    3    0    0  0.27446891689E+02  0.63424523057E+01 -0.30134505280E+02  0.41251023907E+02  0.51100000000E-03 0. -1.
        -11    1    3    3    0    0 -0.41708347654E+01  0.82014825018E+01  0.55207270760E+01  0.10730265867E+02  0.51100000000E-03 0.  1.
        -12    1    3    3    0    0 -0.23992994359E+02 -0.15197779563E+02  0.25285793062E+02  0.38026406782E+02  0.00000000000E+00 0.  1.
</event>
<event>
 7    1  0.2569312E-015  0.9000772E+02  0.7816164E-02  0.1186339E+00
        -11   -1    0    0    0    0  0.00000000000E+00  0.00000000000E+00  0.45593999997E+02  0.45594000000E+02  0.51100000000E-03 0. -1.
         11   -1    0    0    0    0 -0.00000000000E+00 -0.00000000000E+00 -0.45593999997E+02  0.45594000000E+02  0.51100000000E-03 0.  1.
    9900012    2    1    2    0    0 -0.11175308229E+01 -0.56684099955E-01  0.37546084666E+00  0.90007720764E+02  0.89999981878E+02 0.  0.
         12    1    1    2    0    0  0.11175308229E+01  0.56684099955E-01 -0.37546084666E+00  0.11802792359E+01  0.00000000000E+00 0. -1.
         11    1    3    3    0    0 -0.12868178422E+02  0.86002643006E+01  0.13984357736E+02  0.20859454056E+02  0.51100000000E-03 0. -1.
        -11    1    3    3    0    0 -0.19467237126E+02  0.29263307938E+01 -0.26867865720E+02  0.33307941123E+02  0.51100000000E-03 0.  1.
         12    1    3    3    0    0  0.31217884725E+02 -0.11583279194E+02  0.13258968831E+02  0.35840325585E+02  0.00000000000E+00 0. -1.
</event>
<event>
 7    1  0.2569312E-015  0.9000775E+02  0.7816164E-02  0.1186339E+00
        -11   -1    0    0    0    0  0.00000000000E+00  0.00000000000E+00  0.45593999997E+02  0.45594000000E+02  0.51100000000E-03 0.  1.
         11   -1    0    0    0    0 -0.00000000000E+00 -0.00000000000E+00 -0.45593999997E+02  0.45594000000E+02  0.51100000000E-03 0. -1.
    9900012    2    1    2    0    0 -0.87573503422E+00  0.79080595841E+00  0.26622689353E-01  0.90007748043E+02  0.90000009517E+02 0.  0.
         12    1    1    2    0    0  0.87573503422E+00 -0.79080595841E+00 -0.26622689353E-01  0.11802519568E+01  0.00000000000E+00 0. -1.
         11    1    3    3    0    0  0.37440052977E+01 -0.77597374299E+01 -0.30442097541E+01  0.91377411836E+01  0.51100000000E-03 0. -1.
        -11    1    3    3    0    0  0.19542791395E+02 -0.94074014224E+01  0.32302202778E+02  0.38908253644E+02  0.51100000000E-03 0.  1.
         12    1    3    3    0    0 -0.24162531727E+02  0.17957944811E+02 -0.29231370335E+02  0.41961753216E+02  0.00000000000E+00 0. -1.
</event>
<event>
 7    1  0.2569312E-015  0.9000775E+02  0.7816164E-02  0.1186339E+00
        -11   -1    0    0    0    0  0.00000000000E+00  0.00000000000E+00  0.45593999997E+02  0.45594000000E+02  0.51100000000E-03 0.  1.
         11   -1    0    0    0    0 -0.00000000000E+00 -0.00000000000E+00 -0.45593999997E+02  0.45594000000E+02  0.51100000000E-03 0. -1.
    9900012    2    1    2    0    0  0.62700592968E+00  0.67390956292E+00  0.73872043913E+00  0.90007746459E+02  0.90000007912E+02 0.  0.
         12    1    1    2    0    0 -0.62700592968E+00 -0.67390956292E+00 -0.73872043913E+00  0.11802535414E+01  0.00000000000E+00 0. -1.
         11    1    3    3    0    0 -0.73215875549E+01  0.15749273778E+01  0.83051165085E+01  0.11183067605E+02  0.51100000000E-03 0. -1.
        -11    1    3    3    0    0 -0.30161026182E+02  0.15661173385E+02 -0.14039637109E+02  0.36770521652E+02  0.51100000000E-03 0.  1.
         12    1    3    3    0    0  0.38109619666E+02 -0.16562191200E+02  0.64732410395E+01  0.42054157202E+02  0.00000000000E+00 0. -1.
</event>
<event>
 7    1  0.2569312E-015  0.9000776E+02  0.7816164E-02  0.1186339E+00
        -11   -1    0    0    0    0  0.00000000000E+00  0.00000000000E+00  0.45593999997E+02  0.45594000000E+02  0.51100000000E-03 0. -1.
         11   -1    0    0    0    0 -0.00000000000E+00 -0.00000000000E+00 -0.45593999997E+02  0.45594000000E+02  0.51100000000E-03 0.  1.
    9900012    2    1    2    0    0  0.74255902680E+00  0.90123332587E+00  0.17129456502E+00  0.90007763903E+02  0.90000025587E+02 0.  0.
         12    1    1    2    0    0 -0.74255902680E+00 -0.90123332587E+00 -0.17129456502E+00  0.11802360967E+01  0.00000000000E+00 0. -1.
         11    1    3    3    0    0  0.20439581654E+02  0.22561893109E+02  0.39566530029E+01  0.30699684398E+02  0.51100000000E-03 0. -1.
        -11    1    3    3    0    0  0.17820626403E+01 -0.94357115356E+01  0.21747540026E+02  0.23773175995E+02  0.51100000000E-03 0.  1.
        -12    1    3    3    0    0 -0.21479085268E+02 -0.12224948248E+02 -0.25532898464E+02  0.35534903511E+02  0.00000000000E+00 0.  1.
</event>
<event>
 7    1  0.2569312E-015  0.9000772E+02  0.7816164E-02  0.1186339E+00
        -11   -1    0    0    0    0  0.00000000000E+00  0.00000000000E+00  0.45593999997E+02  0.45594000000E+02  0.51100000000E-03 0.  1.
         11   -1    0    0    0    0 -0.00000000000E+00 -0.00000000000E+00 -0.45593999997E+02  0.45594000000E+02  0.51100000000E-03 0. -1.
    9900012    2    1    2    0    0  0.11208322373E+01  0.34448880833E+00  0.13460403844E+00  0.90007722198E+02  0.89999983331E+02 0.  0.
         12    1    1    2    0    0 -0.11208322373E+01 -0.34448880833E+00 -0.13460403844E+00  0.11802778023E+01  0.00000000000E+00 0. -1.
         11    1    3    3    0    0  0.21588641725E+02  0.17942478730E+02 -0.24788752878E+02  0.37449756528E+02  0.51100000000E-03 0. -1.
        -11    1    3    3    0    0  0.18792433028E+01 -0.10427411266E+02 -0.71739376365E+01  0.12795618100E+02  0.51100000000E-03 0.  1.
        -12    1    3    3    0    0 -0.22347052790E+02 -0.71705786556E+01  0.32097294552E+02  0.39762347570E+02  0.00000000000E+00 0.  1.
</event>
<event>
 7    1  0.2569312E-015  0.9000779E+02  0.7816164E-02  0.1186339E+00
        -11   -1    0    0    0    0  0.00000000000E+00  0.00000000000E+00  0.45593999997E+02  0.45594000000E+02  0.51100000000E-03 0. -1.
         11   -1    0    0    0    0 -0.00000000000E+00 -0.00000000000E+00 -0.45593999997E+02  0.45594000000E+02  0.51100000000E-03 0.  1.
    9900012    2    1    2    0    0  0.27558217320E+00 -0.49094326033E+00 -0.10372687429E+01  0.90007789314E+02  0.90000051333E+02 0.  0.
         12    1    1    2    0    0 -0.27558217320E+00  0.49094326033E+00  0.10372687429E+01  0.11802106863E+01  0.00000000000E+00 0. -1.
         11    1    3    3    0    0 -0.10247345285E+02 -0.60369498781E-01 -0.61825142140E+00  0.10266156289E+02  0.51100000000E-03 0. -1.
        -11    1    3    3    0    0  0.14682593434E+02 -0.22092529458E+02 -0.31782755347E+02  0.41398091085E+02  0.51100000000E-03 0.  1.
         12    1    3    3    0    0 -0.41596659758E+01  0.21661955696E+02  0.31363738025E+02  0.38343541940E+02  0.00000000000E+00 0. -1.
</event>
<event>
 7    1  0.2569312E-015  0.9000707E+02  0.7816164E-02  0.1186340E+00
        -11   -1    0    0    0    0  0.00000000000E+00  0.00000000000E+00  0.45593999997E+02  0.45594000000E+02  0.51100000000E-03 0.  1.
         11   -1    0    0    0    0 -0.00000000000E+00 -0.00000000000E+00 -0.45593999997E+02  0.45594000000E+02  0.51100000000E-03 0. -1.
    9900012    2    1    2    0    0  0.26906502979E+00  0.10802170033E+01  0.39412544243E+00  0.90007068322E+02  0.89999320821E+02 0.  0.
         12    1    1    2    0    0 -0.26906502979E+00 -0.10802170033E+01 -0.39412544243E+00  0.11809316783E+01  0.00000000000E+00 0. -1.
         11    1    3    3    0    0  0.19778456829E+01  0.67657984996E+01  0.74024525361E+01  0.10221751645E+02  0.51100000000E-03 0. -1.
        -11    1    3    3    0    0  0.28419740985E+02  0.12232608098E+02  0.18845770042E+02  0.36228185537E+02  0.51100000000E-03 0.  1.
         12    1    3    3    0    0 -0.30128521638E+02 -0.17918189595E+02 -0.25854097136E+02  0.43557131140E+02  0.00000000000E+00 0. -1.
</event>
<event>
 7    1  0.4397879E-015  0.9000777E+02  0.7816164E-02  0.1186339E+00
        -11   -1    0    0    0    0  0.00000000000E+00  0.00000000000E+00  0.45593999997E+02  0.45594000000E+02  0.51100000000E-03 0. -1.
         11   -1    0    0    0    0 -0.00000000000E+00 -0.00000000000E+00 -0.45593999997E+02  0.45594000000E+02  0.51100000000E-03 0.  1.
    9900012    2    1    2    0    0  0.43557228011E+00 -0.60639916984E+00 -0.91405640685E+00  0.90007770243E+02  0.90000032010E+02 0.  0.
         12    1    1    2    0    0 -0.43557228011E+00  0.60639916984E+00  0.91405640685E+00  0.11802297570E+01  0.00000000000E+00 0. -1.
         11    1    3    3    0    0 -0.64201001504E+01 -0.14429355034E+02  0.36732096341E+02  0.39983382480E+02  0.51100000000E-03 0. -1.
        -11    1    3    3    0    0  0.86413916969E+01  0.27832558994E+01  0.15978278682E+01  0.92180918860E+01  0.51100000000E-03 0.  1.
        -12    1    3    3    0    0 -0.17857192664E+01  0.11039699964E+02 -0.39243980616E+02  0.40806295877E+02  0.00000000000E+00 0.  1.
</event>
<event>
 7    1  0.2569312E-015  0.9000752E+02  0.7816164E-02  0.1186339E+00
        -11   -1    0    0    0    0  0.00000000000E+00  0.00000000000E+00  0.45593999997E+02  0.45594000000E+02  0.51100000000E-03 0.  1.
         11   -1    0    0    0    0 -0.00000000000E+00 -0.00000000000E+00 -0.45593999997E+02  0.45594000000E+02  0.51100000000E-03 0. -1.
    9900012    2    1    2    0    0  0.72447739452E+00 -0.38157251121E+00  0.85032776762E+00  0.90007524507E+02  0.89999783031E+02 0.  0.
         12    1    1    2    0    0 -0.72447739452E+00  0.38157251121E+00 -0.85032776762E+00  0.11804754927E+01  0.00000000000E+00 0. -1.
         11    1    3    3    0    0  0.28305081657E+02 -0.30560903814E+02 -0.84961481018E+01  0.42512716008E+02  0.51100000000E-03 0. -1.
        -11    1    3    3    0    0 -0.21954600418E+01 -0.18773538841E+01  0.57643607004E+01  0.64476629058E+01  0.51100000000E-03 0.  1.
        -12    1    3    3    0    0 -0.25385144221E+02  0.32056685187E+02  0.35821151690E+01  0.41047145593E+02  0.00000000000E+00 0.  1.
</event>
<event>
 7    1  0.2569312E-015  0.9000756E+02  0.7816164E-02  0.1186339E+00
        -11   -1    0    0    0    0  0.00000000000E+00  0.00000000000E+00  0.45593999997E+02  0.45594000000E+02  0.51100000000E-03 0.  1.
         11   -1    0    0    0    0 -0.00000000000E+00 -0.00000000000E+00 -0.45593999997E+02  0.45594000000E+02  0.51100000000E-03 0. -1.
    9900012    2    1    2    0    0 -0.96223355929E+00 -0.20400874651E+00  0.65263655686E+00  0.90007556242E+02  0.89999815184E+02 0.  0.
         12    1    1    2    0    0  0.96223355929E+00  0.20400874651E+00 -0.65263655686E+00  0.11804437584E+01  0.00000000000E+00 0. -1.
         11    1    3    3    0    0 -0.19601497449E+02  0.32482748924E+02 -0.17259272250E+02  0.41680093075E+02  0.51100000000E-03 0. -1.
        -11    1    3    3    0    0 -0.26376435934E+01  0.24853812379E+00  0.72124717756E+01  0.76836634687E+01  0.51100000000E-03 0.  1.
        -12    1    3    3    0    0  0.21276907484E+02 -0.32935295794E+02  0.10699437031E+02  0.40643799698E+02  0.00000000000E+00 0.  1.
</event>
<event>
 7    1  0.2569312E-015  0.9000783E+02  0.7816164E-02  0.1186339E+00
        -11   -1    0    0    0    0  0.00000000000E+00  0.00000000000E+00  0.45593999997E+02  0.45594000000E+02  0.51100000000E-03 0.  1.
         11   -1    0    0    0    0 -0.00000000000E+00 -0.00000000000E+00 -0.45593999997E+02  0.45594000000E+02  0.51100000000E-03 0. -1.
    9900012    2    1    2    0    0 -0.18245848437E-01 -0.44259936892E+00  0.10938855599E+01  0.90007825127E+02  0.90000087619E+02 0.  0.
         12    1    1    2    0    0  0.18245848437E-01  0.44259936892E+00 -0.10938855599E+01  0.11801748729E+01  0.00000000000E+00 0. -1.
         11    1    3    3    0    0  0.24144414201E+02 -0.84855957161E+01 -0.21246227237E+02  0.33261993985E+02  0.51100000000E-03 0. -1.
        -11    1    3    3    0    0  0.93725649432E+01  0.10399365743E+02 -0.33984385628E+01  0.14406289127E+02  0.51100000000E-03 0.  1.
        -12    1    3    3    0    0 -0.33535224992E+02 -0.23563693957E+01  0.25738551360E+02  0.42339542016E+02  0.00000000000E+00 0.  1.
</event>
<event>
 7    1  0.2569312E-015  0.9000767E+02  0.7816164E-02  0.1186339E+00
        -11   -1    0    0    0    0  0.00000000000E+00  0.00000000000E+00  0.45593999997E+02  0.45594000000E+02  0.51100000000E-03 0. -1.
         11   -1    0    0    0    0 -0.00000000000E+00 -0.00000000000E+00 -0.45593999997E+02  0.45594000000E+02  0.51100000000E-03 0.  1.
    9900012    2    1    2    0    0 -0.74915486344E+00  0.70837921058E+00 -0.57458112742E+00  0.90007670560E+02  0.89999931011E+02 0.  0.
         12    1    1    2    0    0  0.74915486344E+00 -0.70837921058E+00  0.57458112742E+00  0.11803294402E+01  0.00000000000E+00 0. -1.
         11    1    3    3    0    0 -0.79781858182E+01  0.84041476627E+01 -0.23331397372E+00  0.11590322798E+02  0.51100000000E-03 0. -1.
        -11    1    3    3    0    0  0.20855356333E+02 -0.27975386770E+01 -0.35009591574E+02  0.40846586306E+02  0.51100000000E-03 0.  1.
         12    1    3    3    0    0 -0.13626325378E+02 -0.48982297752E+01  0.34668324420E+02  0.37570761456E+02  0.00000000000E+00 0. -1.
</event>
<event>
 7    1  0.3710730E-015  0.9000773E+02  0.7816164E-02  0.1186339E+00
        -11   -1    0    0    0    0  0.00000000000E+00  0.00000000000E+00  0.45593999997E+02  0.45594000000E+02  0.51100000000E-03 0. -1.
         11   -1    0    0    0    0 -0.00000000000E+00 -0.00000000000E+00 -0.45593999997E+02  0.45594000000E+02  0.51100000000E-03 0.  1.
    9900012    2    1    2    0    0  0.82023657359E+00  0.57338633553E-01 -0.84674205266E+00  0.90007725515E+02  0.89999986692E+02 0.  0.
         12    1    1    2    0    0 -0.82023657359E+00 -0.57338633553E-01  0.84674205266E+00  0.11802744847E+01  0.00000000000E+00 0. -1.
         11    1    3    3    0    0 -0.14003568198E+02 -0.20915246920E+01  0.32042433435E+02  0.35031299412E+02  0.51100000000E-03 0. -1.
        -11    1    3    3    0    0 -0.21857937624E+01  0.28176988308E+01  0.90429710995E+01  0.97207225884E+01  0.51100000000E-03 0.  1.
        -12    1    3    3    0    0  0.17009598534E+02 -0.66883550520E+00 -0.41932146587E+02  0.45255703515E+02  0.00000000000E+00 0.  1.
</event>
<event>
 7    1  0.2569312E-015  0.9000773E+02  0.7816164E-02  0.1186339E+00
        -11   -1    0    0    0    0  0.00000000000E+00  0.00000000000E+00  0.45593999997E+02  0.45594000000E+02  0.51100000000E-03 0.  1.
         11   -1    0    0    0    0 -0.00000000000E+00 -0.00000000000E+00 -0.45593999997E+02  0.45594000000E+02  0.51100000000E-03 0. -1.
    9900012    2    1    2    0    0 -0.96532700759E+00  0.64957728896E+00  0.19804320012E+00  0.90007733930E+02  0.89999995218E+02 0.  0.
         12    1    1    2    0    0  0.96532700759E+00 -0.64957728896E+00 -0.19804320012E+00  0.11802660696E+01  0.00000000000E+00 0. -1.
         11    1    3    3    0    0 -0.37164721701E+01  0.32152197480E+02 -0.12552081416E+02  0.34714992673E+02  0.51100000000E-03 0. -1.
        -11    1    3    3    0    0  0.70257146301E+01  0.81768915352E+01 -0.46684200242E+01  0.11748036731E+02  0.51100000000E-03 0.  1.
        -12    1    3    3    0    0 -0.42745694676E+01 -0.39679511726E+02  0.17418544640E+02  0.43544704527E+02  0.00000000000E+00 0.  1.
</event>
<event>
 7    1  0.2569312E-015  0.9000774E+02  0.7816164E-02  0.1186339E+00
        -11   -1    0    0    0    0  0.00000000000E+00  0.00000000000E+00  0.45593999997E+02  0.45594000000E+02  0.51100000000E-03 0.  1.
         11   -1    0    0    0    0 -0.00000000000E+00 -0.00000000000E+00 -0.45593999997E+02  0.45594000000E+02  0.51100000000E-03 0. -1.
    9900012    2    1    2    0    0 -0.53557234579E-01  0.39774567606E-01  0.11783751207E+01  0.90007738030E+02  0.89999999372E+02 0.  0.
         12    1    1    2    0    0  0.53557234579E-01 -0.39774567606E-01 -0.11783751207E+01  0.11802619704E+01  0.00000000000E+00 0. -1.
         11    1    3    3    0    0 -0.80721706585E+01 -0.50617753442E+01 -0.15307588869E+01  0.96501156369E+01  0.51100000000E-03 0. -1.
        -11    1    3    3    0    0  0.96520747525E+01 -0.20013802227E+02  0.33742366166E+02  0.40401263610E+02  0.51100000000E-03 0.  1.
         12    1    3    3    0    0 -0.16334613285E+01  0.25115352139E+02 -0.31033232158E+02  0.39956358782E+02  0.00000000000E+00 0. -1.
</event>
<event>
 7    1  0.2569312E-015  0.9000769E+02  0.7816164E-02  0.1186339E+00
        -11   -1    0    0    0    0  0.00000000000E+00  0.00000000000E+00  0.45593999997E+02  0.45594000000E+02  0.51100000000E-03 0. -1.
         11   -1    0    0    0    0 -0.00000000000E+00 -0.00000000000E+00 -0.45593999997E+02  0.45594000000E+02  0.51100000000E-03 0.  1.
    9900012    2    1    2    0    0  0.33849796619E-02  0.11262956304E+01 -0.35297108299E+00  0.90007685681E+02  0.89999946332E+02 0.  0.
         12    1    1    2    0    0 -0.33849796619E-02 -0.11262956304E+01  0.35297108299E+00  0.11803143185E+01  0.00000000000E+00 0. -1.
         11    1    3    3    0    0  0.19569758555E+02 -0.26607219730E+02  0.15142569306E+02  0.36334790451E+02  0.51100000000E-03 0. -1.
        -11    1    3    3    0    0  0.37897231785E+00  0.10742972071E+01  0.11039298772E+02  0.11097921073E+02  0.51100000000E-03 0.  1.
        -12    1    3    3    0    0 -0.19945345893E+02  0.26659218153E+02 -0.26534839160E+02  0.42574974158E+02  0.00000000000E+00 0.  1.
</event>
<event>
 7    1  0.2569312E-015  0.9000767E+02  0.7816164E-02  0.1186339E+00
        -11   -1    0    0    0    0  0.00000000000E+00  0.00000000000E+00  0.45593999997E+02  0.45594000000E+02  0.51100000000E-03 0.  1.
         11   -1    0    0    0    0 -0.00000000000E+00 -0.00000000000E+00 -0.45593999997E+02  0.45594000000E+02  0.51100000000E-03 0. -1.
    9900012    2    1    2    0    0  0.11448353389E+01  0.47474384809E-01 -0.28334628043E+00  0.90007666621E+02  0.89999927021E+02 0.  0.
         12    1    1    2    0    0 -0.11448353389E+01 -0.47474384809E-01  0.28334628043E+00  0.11803333787E+01  0.00000000000E+00 0. -1.
         11    1    3    3    0    0  0.12790909168E+00  0.24378606871E+02 -0.25818092188E+02  0.35509248348E+02  0.51100000000E-03 0. -1.
        -11    1    3    3    0    0 -0.91999880677E+00  0.82473184512E+01 -0.50971216000E+01  0.97388555953E+01  0.51100000000E-03 0.  1.
        -12    1    3    3    0    0  0.19369250540E+01 -0.32578450937E+02  0.30631867508E+02  0.44759562678E+02  0.00000000000E+00 0.  1.
</event>
<event>
 7    1  0.2569312E-015  0.9000779E+02  0.7816164E-02  0.1186339E+00
        -11   -1    0    0    0    0  0.00000000000E+00  0.00000000000E+00  0.45593999997E+02  0.45594000000E+02  0.51100000000E-03 0. -1.
         11   -1    0    0    0    0 -0.00000000000E+00 -0.00000000000E+00 -0.45593999997E+02  0.45594000000E+02  0.51100000000E-03 0.  1.
    9900012    2    1    2    0    0 -0.11572296294E+01  0.43848699064E-02  0.23172921367E+00  0.90007788972E+02  0.90000050986E+02 0.  0.
         12    1    1    2    0    0  0.11572296294E+01 -0.43848699064E-02 -0.23172921367E+00  0.11802110281E+01  0.00000000000E+00 0. -1.
         11    1    3    3    0    0 -0.10942834712E+02 -0.12844553335E+01 -0.18446862601E+01  0.11171317053E+02  0.51100000000E-03 0. -1.
        -11    1    3    3    0    0 -0.21994623181E+02  0.25721246445E+02 -0.12651011029E+02  0.36130237307E+02  0.51100000000E-03 0.  1.
         12    1    3    3    0    0  0.31780228264E+02 -0.24432406241E+02  0.14727426503E+02  0.42706234611E+02  0.00000000000E+00 0. -1.
</event>
<event>
 7    1  0.2569312E-015  0.9000771E+02  0.7816164E-02  0.1186339E+00
        -11   -1    0    0    0    0  0.00000000000E+00  0.00000000000E+00  0.45593999997E+02  0.45594000000E+02  0.51100000000E-03 0. -1.
         11   -1    0    0    0    0 -0.00000000000E+00 -0.00000000000E+00 -0.45593999997E+02  0.45594000000E+02  0.51100000000E-03 0.  1.
    9900012    2    1    2    0    0 -0.10398662146E+01  0.15801995725E+00  0.53552362208E+00  0.90007712916E+02  0.89999973926E+02 0.  0.
         12    1    1    2    0    0  0.10398662146E+01 -0.15801995725E+00 -0.53552362208E+00  0.11802870842E+01  0.00000000000E+00 0. -1.
         11    1    3    3    0    0 -0.45278419780E+01 -0.79495467618E+01 -0.42992828322E+01  0.10108436072E+02  0.51100000000E-03 0. -1.
        -11    1    3    3    0    0  0.41138000207E+02 -0.44905205620E+00  0.27978993439E+01  0.41235481685E+02  0.51100000000E-03 0.  1.
         12    1    3    3    0    0 -0.37650024444E+02  0.85566187752E+01  0.20369071104E+01  0.38663795158E+02  0.00000000000E+00 0. -1.
</event>
<event>
 7    1  0.2569312E-015  0.9000782E+02  0.7816164E-02  0.1186339E+00
        -11   -1    0    0    0    0  0.00000000000E+00  0.00000000000E+00  0.45593999997E+02  0.45594000000E+02  0.51100000000E-03 0. -1.
         11   -1    0    0    0    0 -0.00000000000E+00 -0.00000000000E+00 -0.45593999997E+02  0.45594000000E+02  0.51100000000E-03 0.  1.
    9900012    2    1    2    0    0  0.98565604352E+00 -0.53241754404E-01 -0.64689337299E+00  0.90007820541E+02  0.90000082972E+02 0.  0.
         12    1    1    2    0    0 -0.98565604352E+00  0.53241754404E-01  0.64689337299E+00  0.11801794595E+01  0.00000000000E+00 0. -1.
         11    1    3    3    0    0 -0.21936712005E+02  0.22189205482E+02  0.15971761217E+02  0.35052493922E+02  0.51100000000E-03 0. -1.
        -11    1    3    3    0    0  0.75347115004E+01  0.12105169038E+02 -0.12907487197E+01  0.14316879106E+02  0.51100000000E-03 0.  1.
        -12    1    3    3    0    0  0.15387656549E+02 -0.34347616275E+02 -0.15327905870E+02  0.40638447512E+02  0.00000000000E+00 0.  1.
</event>
<event>
 7    1  0.2569312E-015  0.9000793E+02  0.7816164E-02  0.1186339E+00
        -11   -1    0    0    0    0  0.00000000000E+00  0.00000000000E+00  0.45593999997E+02  0.45594000000E+02  0.51100000000E-03 0.  1.
         11   -1    0    0    0    0 -0.00000000000E+00 -0.00000000000E+00 -0.45593999997E+02  0.45594000000E+02  0.51100000000E-03 0. -1.
    9900012    2    1    2    0    0 -0.77710628582E+00  0.83767118954E+00  0.29492801381E+00  0.90007928081E+02  0.90000191931E+02 0.  0.
         12    1    1    2    0    0  0.77710628582E+00 -0.83767118954E+00 -0.29492801381E+00  0.11800719192E+01  0.00000000000E+00 0. -1.
         11    1    3    3    0    0 -0.22308911766E+01 -0.86452708828E+01  0.31836155013E+01  0.94790818121E+01  0.51100000000E-03 0. -1.
        -11    1    3    3    0    0  0.14882329353E+02 -0.32234624200E+02 -0.80350116260E+01  0.36402144667E+02  0.51100000000E-03 0.  1.
         12    1    3    3    0    0 -0.13428544462E+02  0.41717566273E+02  0.51463241385E+01  0.44126701601E+02  0.00000000000E+00 0. -1.
</event>
<event>
 7    1  0.2569312E-015  0.9000775E+02  0.7816164E-02  0.1186339E+00
        -11   -1    0    0    0    0  0.00000000000E+00  0.00000000000E+00  0.45593999997E+02  0.45594000000E+02  0.51100000000E-03 0. -1.
         11   -1    0    0    0    0 -0.00000000000E+00 -0.00000000000E+00 -0.45593999997E+02  0.45594000000E+02  0.51100000000E-03 0.  1.
    9900012    2    1    2    0    0  0.73148982603E+00 -0.76762352145E+00  0.51833089460E+00  0.90007749962E+02  0.90000011461E+02 0.  0.
         12    1    1    2    0    0 -0.73148982603E+00  0.76762352145E+00 -0.51833089460E+00  0.11802500382E+01  0.00000000000E+00 0. -1.
         11    1    3    3    0    0  0.28980442134E+01  0.13877642466E+02  0.26907110538E+01  0.14430091715E+02  0.51100000000E-03 0. -1.
        -11    1    3    3    0    0 -0.18109592383E+02  0.24163001772E+02 -0.11988852487E+02  0.32489083938E+02  0.51100000000E-03 0.  1.
         12    1    3    3    0    0  0.15943037995E+02 -0.38808267759E+02  0.98164723279E+01  0.43088574309E+02  0.00000000000E+00 0. -1.
</event>
<event>
 7    1  0.2569312E-015  0.9000781E+02  0.7816164E-02  0.1186339E+00
        -11   -1    0    0    0    0  0.00000000000E+00  0.00000000000E+00  0.45593999997E+02  0.45594000000E+02  0.51100000000E-03 0.  1.
         11   -1    0    0    0    0 -0.00000000000E+00 -0.00000000000E+00 -0.45593999997E+02  0.45594000000E+02  0.51100000000E-03 0. -1.
    9900012    2    1    2    0    0 -0.24072598903E+00 -0.50290415095E+00  0.10401863771E+01  0.90007809640E+02  0.90000071927E+02 0.  0.
         12    1    1    2    0    0  0.24072598903E+00  0.50290415095E+00 -0.10401863771E+01  0.11801903601E+01  0.00000000000E+00 0. -1.
         11    1    3    3    0    0  0.10332888523E+02  0.45672737315E+01 -0.36759688593E+02  0.38456511546E+02  0.51100000000E-03 0. -1.
        -11    1    3    3    0    0 -0.80032081803E+01  0.33541263081E+01 -0.34746768000E+01  0.93474533213E+01  0.51100000000E-03 0.  1.
        -12    1    3    3    0    0 -0.25704063314E+01 -0.84243041906E+01  0.41274551770E+02  0.42203844773E+02  0.00000000000E+00 0.  1.
</event>
<event>
 7    1  0.2569312E-015  0.9000824E+02  0.7816164E-02  0.1186338E+00
        -11   -1    0    0    0    0  0.00000000000E+00  0.00000000000E+00  0.45593999997E+02  0.45594000000E+02  0.51100000000E-03 0. -1.
         11   -1    0    0    0    0 -0.00000000000E+00 -0.00000000000E+00 -0.45593999997E+02  0.45594000000E+02  0.51100000000E-03 0.  1.
    9900012    2    1    2    0    0 -0.84660454619E+00  0.82133367153E+00 -0.22258495625E-01  0.90008244221E+02  0.90000512243E+02 0.  0.
         12    1    1    2    0    0  0.84660454619E+00 -0.82133367153E+00  0.22258495625E-01  0.11797557791E+01  0.00000000000E+00 0. -1.
         11    1    3    3    0    0  0.14101860031E+02  0.30504434459E+02  0.19687611751E+02  0.38948492073E+02  0.51100000000E-03 0. -1.
        -11    1    3    3    0    0 -0.61204582007E+01  0.69062002556E+01 -0.19086404883E+01  0.94232966276E+01  0.51100000000E-03 0.  1.
        -12    1    3    3    0    0 -0.88280063765E+01 -0.36589301043E+02 -0.17801229758E+02  0.41636455521E+02  0.00000000000E+00 0.  1.
</event>
<event>
 7    1  0.2569312E-015  0.9000773E+02  0.7816164E-02  0.1186339E+00
        -11   -1    0    0    0    0  0.00000000000E+00  0.00000000000E+00  0.45593999997E+02  0.45594000000E+02  0.51100000000E-03 0.  1.
         11   -1    0    0    0    0 -0.00000000000E+00 -0.00000000000E+00 -0.45593999997E+02  0.45594000000E+02  0.51100000000E-03 0. -1.
    9900012    2    1    2    0    0 -0.96988193549E-01  0.58715751627E+00  0.10192549710E+01  0.90007728271E+02  0.89999989484E+02 0.  0.
         12    1    1    2    0    0  0.96988193549E-01 -0.58715751627E+00 -0.10192549710E+01  0.11802717291E+01  0.00000000000E+00 0. -1.
         11    1    3    3    0    0  0.45286348923E+01 -0.35077610032E+02  0.31990887563E+01  0.35513116290E+02  0.51100000000E-03 0. -1.
        -11    1    3    3    0    0  0.39882772313E+01 -0.80006282562E+01  0.35534227268E+01  0.96199387267E+01  0.51100000000E-03 0.  1.
        -12    1    3    3    0    0 -0.86139003172E+01  0.43665395804E+02 -0.57332565121E+01  0.44874673254E+02  0.00000000000E+00 0.  1.
</event>
<event>
 7    1  0.2569312E-015  0.9000754E+02  0.7816164E-02  0.1186339E+00
        -11   -1    0    0    0    0  0.00000000000E+00  0.00000000000E+00  0.45593999997E+02  0.45594000000E+02  0.51100000000E-03 0.  1.
         11   -1    0    0    0    0 -0.00000000000E+00 -0.00000000000E+00 -0.45593999997E+02  0.45594000000E+02  0.51100000000E-03 0. -1.
    9900012    2    1    2    0    0  0.53818160275E+00  0.94596994913E+00  0.45715072347E+00  0.90007540189E+02  0.89999798919E+02 0.  0.
         12    1    1    2    0    0 -0.53818160275E+00 -0.94596994913E+00 -0.45715072347E+00  0.11804598113E+01  0.00000000000E+00 0. -1.
         11    1    3    3    0    0 -0.40998228705E+01 -0.15741532076E+01 -0.83336722726E+00  0.44700119784E+01  0.51100000000E-03 0. -1.
        -11    1    3    3    0    0 -0.30503872045E+02  0.55184520632E+01  0.27624248743E+02  0.41521544308E+02  0.51100000000E-03 0.  1.
         12    1    3    3    0    0  0.35141876518E+02 -0.29983289065E+01 -0.26333730792E+02  0.44015983902E+02  0.00000000000E+00 0. -1.
</event>
<event>
 7    1  0.2569312E-015  0.9000779E+02  0.7816164E-02  0.1186339E+00
        -11   -1    0    0    0    0  0.00000000000E+00  0.00000000000E+00  0.45593999997E+02  0.45594000000E+02  0.51100000000E-03 0.  1.
         11   -1    0    0    0    0 -0.00000000000E+00 -0.00000000000E+00 -0.45593999997E+02  0.45594000000E+02  0.51100000000E-03 0. -1.
    9900012    2    1    2    0    0 -0.57561245706E+00 -0.31069596678E-01  0.10298584578E+01  0.90007786687E+02  0.90000048671E+02 0.  0.
         12    1    1    2    0    0  0.57561245706E+00  0.31069596678E-01 -0.10298584578E+01  0.11802133128E+01  0.00000000000E+00 0. -1.
         11    1    3    3    0    0 -0.61445059368E+01  0.53984177221E+01  0.67367165254E+01  0.10596283165E+02  0.51100000000E-03 0. -1.
        -11    1    3    3    0    0 -0.16655127279E+02 -0.32734845543E+02  0.13712480321E+02  0.39204534103E+02  0.51100000000E-03 0.  1.
         12    1    3    3    0    0  0.22224020758E+02  0.27305358224E+02 -0.19419338389E+02  0.40206969419E+02  0.00000000000E+00 0. -1.
</event>
<event>
 7    1  0.2569312E-015  0.9000787E+02  0.7816164E-02  0.1186339E+00
        -11   -1    0    0    0    0  0.00000000000E+00  0.00000000000E+00  0.45593999997E+02  0.45594000000E+02  0.51100000000E-03 0. -1.
         11   -1    0    0    0    0 -0.00000000000E+00 -0.00000000000E+00 -0.45593999997E+02  0.45594000000E+02  0.51100000000E-03 0.  1.
    9900012    2    1    2    0    0 -0.96316915731E+00 -0.57813039061E+00  0.36162678772E+00  0.90007871402E+02  0.90000134504E+02 0.  0.
         12    1    1    2    0    0  0.96316915731E+00  0.57813039061E+00 -0.36162678772E+00  0.11801285980E+01  0.00000000000E+00 0. -1.
         11    1    3    3    0    0  0.72910605686E+01 -0.56997590047E+01  0.57661194664E+01  0.10903896133E+02  0.51100000000E-03 0. -1.
        -11    1    3    3    0    0 -0.36739124271E+02 -0.18266071227E+02 -0.92146678440E+01  0.42051429393E+02  0.51100000000E-03 0.  1.
         12    1    3    3    0    0  0.28484894545E+02  0.23387699841E+02  0.38101751653E+01  0.37052545876E+02  0.00000000000E+00 0. -1.
</event>
<event>
 7    1  0.2569312E-015  0.9000770E+02  0.7816164E-02  0.1186339E+00
        -11   -1    0    0    0    0  0.00000000000E+00  0.00000000000E+00  0.45593999997E+02  0.45594000000E+02  0.51100000000E-03 0. -1.
         11   -1    0    0    0    0 -0.00000000000E+00 -0.00000000000E+00 -0.45593999997E+02  0.45594000000E+02  0.51100000000E-03 0.  1.
    9900012    2    1    2    0    0 -0.18326089632E+00 -0.68137803431E+00  0.94617111863E+00  0.90007703271E+02  0.89999964155E+02 0.  0.
         12    1    1    2    0    0  0.18326089632E+00  0.68137803431E+00 -0.94617111863E+00  0.11802967286E+01  0.00000000000E+00 0. -1.
         11    1    3    3    0    0 -0.20249772452E+02 -0.38777762682E+02  0.23426447165E+00  0.43747263264E+02  0.51100000000E-03 0. -1.
        -11    1    3    3    0    0  0.85443769600E+01  0.31992583395E+01  0.25218787843E+01  0.94658071194E+01  0.51100000000E-03 0.  1.
        -12    1    3    3    0    0  0.11522134596E+02  0.34897126308E+02 -0.18099721374E+01  0.36794632888E+02  0.00000000000E+00 0.  1.
</event>
<event>
 7    1  0.2569312E-015  0.9000784E+02  0.7816164E-02  0.1186339E+00
        -11   -1    0    0    0    0  0.00000000000E+00  0.00000000000E+00  0.45593999997E+02  0.45594000000E+02  0.51100000000E-03 0.  1.
         11   -1    0    0    0    0 -0.00000000000E+00 -0.00000000000E+00 -0.45593999997E+02  0.45594000000E+02  0.51100000000E-03 0. -1.
    9900012    2    1    2    0    0  0.10650211084E+01 -0.23557530099E+00  0.45057365182E+00  0.90007838020E+02  0.90000100682E+02 0.  0.
         12    1    1    2    0    0 -0.10650211084E+01  0.23557530099E+00 -0.45057365182E+00  0.11801619802E+01  0.00000000000E+00 0. -1.
         11    1    3    3    0    0  0.74039911638E+01  0.86293304622E-01  0.65505700537E+01  0.98861772176E+01  0.51100000000E-03 0. -1.
        -11    1    3    3    0    0 -0.12812665647E+02  0.36143162884E+02 -0.16360754320E+02  0.41691328912E+02  0.51100000000E-03 0.  1.
         12    1    3    3    0    0  0.64736955918E+01 -0.36465031490E+02  0.10260757918E+02  0.38430331890E+02  0.00000000000E+00 0. -1.
</event>
<event>
 7    1  0.2569312E-015  0.9000781E+02  0.7816164E-02  0.1186339E+00
        -11   -1    0    0    0    0  0.00000000000E+00  0.00000000000E+00  0.45593999997E+02  0.45594000000E+02  0.51100000000E-03 0.  1.
         11   -1    0    0    0    0 -0.00000000000E+00 -0.00000000000E+00 -0.45593999997E+02  0.45594000000E+02  0.51100000000E-03 0. -1.
    9900012    2    1    2    0    0 -0.45966316722E+00 -0.99658508889E+00  0.43402179103E+00  0.90007810616E+02  0.90000072916E+02 0.  0.
         12    1    1    2    0    0  0.45966316722E+00  0.99658508889E+00 -0.43402179103E+00  0.11801893839E+01  0.00000000000E+00 0. -1.
         11    1    3    3    0    0  0.92651667930E+01 -0.32643030815E+01 -0.37734085389E+02  0.38991796454E+02  0.51100000000E-03 0. -1.
        -11    1    3    3    0    0  0.34846848831E+01  0.10951678581E+02  0.21645166828E+01  0.11694760588E+02  0.51100000000E-03 0.  1.
        -12    1    3    3    0    0 -0.13209514843E+02 -0.86839605888E+01  0.36003590497E+02  0.39321253574E+02  0.00000000000E+00 0.  1.
</event>
<event>
 7    1  0.2569312E-015  0.9000750E+02  0.7816164E-02  0.1186340E+00
        -11   -1    0    0    0    0  0.00000000000E+00  0.00000000000E+00  0.45593999997E+02  0.45594000000E+02  0.51100000000E-03 0.  1.
         11   -1    0    0    0    0 -0.00000000000E+00 -0.00000000000E+00 -0.45593999997E+02  0.45594000000E+02  0.51100000000E-03 0. -1.
    9900012    2    1    2    0    0 -0.10926137637E+01  0.42403322481E+00 -0.14132272533E+00  0.90007499629E+02  0.89999757824E+02 0.  0.
         12    1    1    2    0    0  0.10926137637E+01 -0.42403322481E+00  0.14132272533E+00  0.11805003706E+01  0.00000000000E+00 0. -1.
         11    1    3    3    0    0 -0.80622024932E+01  0.17781897056E+01  0.39488428165E+01  0.91517445070E+01  0.51100000000E-03 0. -1.
        -11    1    3    3    0    0 -0.34899627891E+02 -0.15790910639E+01  0.10560697598E+02  0.36496655868E+02  0.51100000000E-03 0.  1.
         12    1    3    3    0    0  0.41869216620E+02  0.22493458308E+00 -0.14650863140E+02  0.44359099255E+02  0.00000000000E+00 0. -1.
</event>
<event>
 7    1  0.2569312E-015  0.9000772E+02  0.7816164E-02  0.1186339E+00
        -11   -1    0    0    0    0  0.00000000000E+00  0.00000000000E+00  0.45593999997E+02  0.45594000000E+02  0.51100000000E-03 0.  1.
         11   -1    0    0    0    0 -0.00000000000E+00 -0.00000000000E+00 -0.45593999997E+02  0.45594000000E+02  0.51100000000E-03 0. -1.
    9900012    2    1    2    0    0 -0.46137373193E+00 -0.74270641725E+00 -0.79282458738E+00  0.90007724876E+02  0.89999986044E+02 0.  0.
         12    1    1    2    0    0  0.46137373193E+00  0.74270641725E+00  0.79282458738E+00  0.11802751243E+01  0.00000000000E+00 0. -1.
         11    1    3    3    0    0  0.22014992787E+02 -0.19738139309E+02 -0.32276920130E+02  0.43772749789E+02  0.51100000000E-03 0. -1.
        -11    1    3    3    0    0 -0.53174688865E+01  0.75607930928E+01  0.81590796907E+00  0.92793735578E+01  0.51100000000E-03 0.  1.
        -12    1    3    3    0    0 -0.17158897632E+02  0.11434639799E+02  0.30668187574E+02  0.36955601528E+02  0.00000000000E+00 0.  1.
</event>
<event>
 7    1  0.2569312E-015  0.9000755E+02  0.7816164E-02  0.1186339E+00
        -11   -1    0    0    0    0  0.00000000000E+00  0.00000000000E+00  0.45593999997E+02  0.45594000000E+02  0.51100000000E-03 0.  1.
         11   -1    0    0    0    0 -0.00000000000E+00 -0.00000000000E+00 -0.45593999997E+02  0.45594000000E+02  0.51100000000E-03 0. -1.
    9900012    2    1    2    0    0 -0.12061097771E+00  0.10558912834E+00  0.11695108028E+01  0.90007554495E+02  0.89999813414E+02 0.  0.
         12    1    1    2    0    0  0.12061097771E+00 -0.10558912834E+00 -0.11695108028E+01  0.11804455048E+01  0.00000000000E+00 0. -1.
         11    1    3    3    0    0 -0.40172129600E+01  0.59356594748E+01  0.11485027144E+01  0.72587266179E+01  0.51100000000E-03 0. -1.
        -11    1    3    3    0    0  0.29069576218E+02  0.25441380847E+02  0.12675954328E+02  0.40656905185E+02  0.51100000000E-03 0.  1.
         12    1    3    3    0    0 -0.25172974236E+02 -0.31271451193E+02 -0.12654946239E+02  0.42091922692E+02  0.00000000000E+00 0. -1.
</event>
<event>
 7    1  0.2569312E-015  0.9000775E+02  0.7816164E-02  0.1186339E+00
        -11   -1    0    0    0    0  0.00000000000E+00  0.00000000000E+00  0.45593999997E+02  0.45594000000E+02  0.51100000000E-03 0. -1.
         11   -1    0    0    0    0 -0.00000000000E+00 -0.00000000000E+00 -0.45593999997E+02  0.45594000000E+02  0.51100000000E-03 0.  1.
    9900012    2    1    2    0    0 -0.78791608277E+00  0.83257661832E+00 -0.28107387169E+00  0.90007746595E+02  0.90000008050E+02 0.  0.
         12    1    1    2    0    0  0.78791608277E+00 -0.83257661832E+00  0.28107387169E+00  0.11802534051E+01  0.00000000000E+00 0. -1.
         11    1    3    3    0    0  0.10371259232E+02 -0.29984893355E+00  0.28897247269E+01  0.10770489158E+02  0.51100000000E-03 0. -1.
        -11    1    3    3    0    0  0.38876197004E+01 -0.33827132788E+02 -0.17849405203E+02  0.38444632473E+02  0.51100000000E-03 0.  1.
         12    1    3    3    0    0 -0.15046795015E+02  0.34959558340E+02  0.14678606605E+02  0.40792624964E+02  0.00000000000E+00 0. -1.
</event>
<event>
 7    1  0.2569312E-015  0.9000725E+02  0.7816164E-02  0.1186340E+00
        -11   -1    0    0    0    0  0.00000000000E+00  0.00000000000E+00  0.45593999997E+02  0.45594000000E+02  0.51100000000E-03 0.  1.
         11   -1    0    0    0    0 -0.00000000000E+00 -0.00000000000E+00 -0.45593999997E+02  0.45594000000E+02  0.51100000000E-03 0. -1.
    9900012    2    1    2    0    0 -0.80049136272E-01  0.10626092957E+01  0.50854597170E+00  0.90007252192E+02  0.89999507120E+02 0.  0.
         12    1    1    2    0    0  0.80049136272E-01 -0.10626092957E+01 -0.50854597170E+00  0.11807478075E+01  0.00000000000E+00 0. -1.
         11    1    3    3    0    0 -0.28409059985E+02 -0.19879181702E+02  0.22479792298E+02  0.41323088176E+02  0.51100000000E-03 0. -1.
        -11    1    3    3    0    0  0.84451867509E+01 -0.45481904584E+01  0.80244766246E-02  0.95920425539E+01  0.51100000000E-03 0.  1.
        -12    1    3    3    0    0  0.19883824098E+02  0.25489981456E+02 -0.21979270803E+02  0.39092121462E+02  0.00000000000E+00 0.  1.
</event>
<event>
 7    1  0.2569312E-015  0.9000775E+02  0.7816164E-02  0.1186339E+00
        -11   -1    0    0    0    0  0.00000000000E+00  0.00000000000E+00  0.45593999997E+02  0.45594000000E+02  0.51100000000E-03 0.  1.
         11   -1    0    0    0    0 -0.00000000000E+00 -0.00000000000E+00 -0.45593999997E+02  0.45594000000E+02  0.51100000000E-03 0. -1.
    9900012    2    1    2    0    0 -0.90553853237E+00  0.65395243681E+00  0.38122752565E+00  0.90007750768E+02  0.90000012278E+02 0.  0.
         12    1    1    2    0    0  0.90553853237E+00 -0.65395243681E+00 -0.38122752565E+00  0.11802492320E+01  0.00000000000E+00 0. -1.
         11    1    3    3    0    0 -0.34890026114E+01  0.82000549448E+01 -0.53701585148E+01  0.10404453040E+02  0.51100000000E-03 0. -1.
        -11    1    3    3    0    0 -0.34723305248E+02  0.11078609284E+02  0.97080894521E+01  0.37718569857E+02  0.51100000000E-03 0.  1.
         12    1    3    3    0    0  0.37306769327E+02 -0.18624711792E+02 -0.39567034116E+01  0.41884727871E+02  0.00000000000E+00 0. -1.
</event>
<event>
 7    1  0.2569312E-015  0.9000787E+02  0.7816164E-02  0.1186339E+00
        -11   -1    0    0    0    0  0.00000000000E+00  0.00000000000E+00  0.45593999997E+02  0.45594000000E+02  0.51100000000E-03 0. -1.
         11   -1    0    0    0    0 -0.00000000000E+00 -0.00000000000E+00 -0.45593999997E+02  0.45594000000E+02  0.51100000000E-03 0.  1.
    9900012    2    1    2    0    0  0.19166391555E+00 -0.10246934141E+01 -0.55315787675E+00  0.90007866412E+02  0.90000129448E+02 0.  0.
         12    1    1    2    0    0 -0.19166391555E+00  0.10246934141E+01  0.55315787675E+00  0.11801335882E+01  0.00000000000E+00 0. -1.
         11    1    3    3    0    0  0.22427855919E+01  0.39539366400E+01  0.10903463341E+02  0.11813095075E+02  0.51100000000E-03 0. -1.
        -11    1    3    3    0    0 -0.35422401698E+02 -0.18452477011E+02  0.14364182412E+01  0.39966282633E+02  0.51100000000E-03 0.  1.
         12    1    3    3    0    0  0.33371280022E+02  0.13473846956E+02 -0.12893039459E+02  0.38228488704E+02  0.00000000000E+00 0. -1.
</event>
<event>
 7    1  0.2569312E-015  0.9000770E+02  0.7816164E-02  0.1186339E+00
        -11   -1    0    0    0    0  0.00000000000E+00  0.00000000000E+00  0.45593999997E+02  0.45594000000E+02  0.51100000000E-03 0.  1.
         11   -1    0    0    0    0 -0.00000000000E+00 -0.00000000000E+00 -0.45593999997E+02  0.45594000000E+02  0.51100000000E-03 0. -1.
    9900012    2    1    2    0    0 -0.97075787505E+00  0.10706672198E+00  0.66278335104E+00  0.90007696689E+02  0.89999957486E+02 0.  0.
         12    1    1    2    0    0  0.97075787505E+00 -0.10706672198E+00 -0.66278335104E+00  0.11803033107E+01  0.00000000000E+00 0. -1.
         11    1    3    3    0    0  0.46633173416E+01 -0.77372073142E+01 -0.11923491026E+01  0.91122226869E+01  0.51100000000E-03 0. -1.
        -11    1    3    3    0    0 -0.32120185170E+02 -0.15960510868E+02 -0.17991976145E+02  0.40126741811E+02  0.51100000000E-03 0.  1.
         12    1    3    3    0    0  0.26486109953E+02  0.23804784904E+02  0.19847108599E+02  0.40768732191E+02  0.00000000000E+00 0. -1.
</event>
<event>
 7    1  0.2569312E-015  0.9000774E+02  0.7816164E-02  0.1186339E+00
        -11   -1    0    0    0    0  0.00000000000E+00  0.00000000000E+00  0.45593999997E+02  0.45594000000E+02  0.51100000000E-03 0. -1.
         11   -1    0    0    0    0 -0.00000000000E+00 -0.00000000000E+00 -0.45593999997E+02  0.45594000000E+02  0.51100000000E-03 0.  1.
    9900012    2    1    2    0    0 -0.14651612311E+00  0.11094893862E+01  0.37495566159E+00  0.90007735021E+02  0.89999996323E+02 0.  0.
         12    1    1    2    0    0  0.14651612311E+00 -0.11094893862E+01 -0.37495566159E+00  0.11802649790E+01  0.00000000000E+00 0. -1.
         11    1    3    3    0    0 -0.30215590193E+02  0.17312406411E+02 -0.14347504538E+02  0.37663672061E+02  0.51100000000E-03 0. -1.
        -11    1    3    3    0    0 -0.38907347505E+01 -0.10651857663E+01 -0.78655230744E+01  0.88396205298E+01  0.51100000000E-03 0.  1.
        -12    1    3    3    0    0  0.33959808820E+02 -0.15137731259E+02  0.22587983274E+02  0.43504442430E+02  0.00000000000E+00 0.  1.
</event>
<event>
 7    1  0.2569312E-015  0.9000827E+02  0.7816164E-02  0.1186338E+00
        -11   -1    0    0    0    0  0.00000000000E+00  0.00000000000E+00  0.45593999997E+02  0.45594000000E+02  0.51100000000E-03 0.  1.
         11   -1    0    0    0    0 -0.00000000000E+00 -0.00000000000E+00 -0.45593999997E+02  0.45594000000E+02  0.51100000000E-03 0. -1.
    9900012    2    1    2    0    0  0.10337018601E+01  0.54109003473E+00  0.17445693217E+00  0.90008274107E+02  0.90000542524E+02 0.  0.
         12    1    1    2    0    0 -0.10337018601E+01 -0.54109003473E+00 -0.17445693217E+00  0.11797258929E+01  0.00000000000E+00 0. -1.
         11    1    3    3    0    0 -0.33560202817E+02  0.32157569873E+01 -0.14546418657E+02  0.36718205323E+02  0.51100000000E-03 0. -1.
        -11    1    3    3    0    0 -0.44474913440E+01  0.21427276287E+01 -0.68367742549E+01  0.84328490689E+01  0.51100000000E-03 0.  1.
        -12    1    3    3    0    0  0.39041396021E+02 -0.48173945812E+01  0.21557649845E+02  0.44857219716E+02  0.00000000000E+00 0.  1.
</event>
<event>
 7    1  0.2569312E-015  0.9000769E+02  0.7816164E-02  0.1186339E+00
        -11   -1    0    0    0    0  0.00000000000E+00  0.00000000000E+00  0.45593999997E+02  0.45594000000E+02  0.51100000000E-03 0.  1.
         11   -1    0    0    0    0 -0.00000000000E+00 -0.00000000000E+00 -0.45593999997E+02  0.45594000000E+02  0.51100000000E-03 0. -1.
    9900012    2    1    2    0    0 -0.90699034934E+00  0.20147870668E+00  0.72794327977E+00  0.90007692167E+02  0.89999952903E+02 0.  0.
         12    1    1    2    0    0  0.90699034934E+00 -0.20147870668E+00 -0.72794327977E+00  0.11803078334E+01  0.00000000000E+00 0. -1.
         11    1    3    3    0    0 -0.11536050836E+02 -0.14624837569E+02 -0.37157808491E+02  0.41565238781E+02  0.51100000000E-03 0. -1.
        -11    1    3    3    0    0 -0.37988636858E+01  0.41434573679E+01 -0.90984529974E+00  0.56945081432E+01  0.51100000000E-03 0.  1.
        -12    1    3    3    0    0  0.14427924172E+02  0.10682858907E+02  0.38795597071E+02  0.42747945242E+02  0.00000000000E+00 0.  1.
</event>
<event>
 7    1  0.2569312E-015  0.9000766E+02  0.7816164E-02  0.1186339E+00
        -11   -1    0    0    0    0  0.00000000000E+00  0.00000000000E+00  0.45593999997E+02  0.45594000000E+02  0.51100000000E-03 0.  1.
         11   -1    0    0    0    0 -0.00000000000E+00 -0.00000000000E+00 -0.45593999997E+02  0.45594000000E+02  0.51100000000E-03 0. -1.
    9900012    2    1    2    0    0 -0.10362981805E+00 -0.11710059562E+01  0.10588582764E+00  0.90007658568E+02  0.89999918861E+02 0.  0.
         12    1    1    2    0    0  0.10362981805E+00  0.11710059562E+01 -0.10588582764E+00  0.11803414325E+01  0.00000000000E+00 0. -1.
         11    1    3    3    0    0 -0.63824919550E+00  0.32194180778E+02 -0.15264372286E+02  0.35635287280E+02  0.51100000000E-03 0. -1.
        -11    1    3    3    0    0  0.71319402912E+01 -0.96874780955E+01 -0.12407077317E+02  0.17281416955E+02  0.51100000000E-03 0.  1.
        -12    1    3    3    0    0 -0.65973209137E+01 -0.23677708639E+02  0.27777335431E+02  0.37090954332E+02  0.00000000000E+00 0.  1.
</event>
<event>
 7    1  0.2569312E-015  0.9000774E+02  0.7816164E-02  0.1186339E+00
        -11   -1    0    0    0    0  0.00000000000E+00  0.00000000000E+00  0.45593999997E+02  0.45594000000E+02  0.51100000000E-03 0.  1.
         11   -1    0    0    0    0 -0.00000000000E+00 -0.00000000000E+00 -0.45593999997E+02  0.45594000000E+02  0.51100000000E-03 0. -1.
    9900012    2    1    2    0    0 -0.80267899843E-01  0.11770161816E+01  0.34625025925E-01  0.90007742011E+02  0.90000003406E+02 0.  0.
         12    1    1    2    0    0  0.80267899843E-01 -0.11770161816E+01 -0.34625025925E-01  0.11802579887E+01  0.00000000000E+00 0. -1.
         11    1    3    3    0    0  0.10306258366E+02  0.37103859530E+02 -0.56635064545E+01  0.38922880921E+02  0.51100000000E-03 0. -1.
        -11    1    3    3    0    0  0.47100881445E+01  0.24121531945E+01  0.82504308333E+01  0.98016846796E+01  0.51100000000E-03 0.  1.
        -12    1    3    3    0    0 -0.15096614411E+02 -0.38338996543E+02 -0.25522993529E+01  0.41283176411E+02  0.00000000000E+00 0.  1.
</event>
<event>
 7    1  0.2569312E-015  0.9000773E+02  0.7816164E-02  0.1186339E+00
        -11   -1    0    0    0    0  0.00000000000E+00  0.00000000000E+00  0.45593999997E+02  0.45594000000E+02  0.51100000000E-03 0. -1.
         11   -1    0    0    0    0 -0.00000000000E+00 -0.00000000000E+00 -0.45593999997E+02  0.45594000000E+02  0.51100000000E-03 0.  1.
    9900012    2    1    2    0    0  0.86426017467E+00  0.22248038935E+00 -0.77240189850E+00  0.90007725512E+02  0.89999986689E+02 0.  0.
         12    1    1    2    0    0 -0.86426017467E+00 -0.22248038935E+00  0.77240189850E+00  0.11802744876E+01  0.00000000000E+00 0. -1.
         11    1    3    3    0    0  0.57464708597E+01  0.26960450496E+02 -0.14352657450E+01  0.27603402079E+02  0.51100000000E-03 0. -1.
        -11    1    3    3    0    0  0.28747954436E+01  0.21475772589E+01 -0.23612550495E+02  0.23883657134E+02  0.51100000000E-03 0.  1.
         12    1    3    3    0    0 -0.77570061286E+01 -0.28885547366E+02  0.24275414342E+02  0.38520666300E+02  0.00000000000E+00 0. -1.
</event>
<event>
 7    1  0.2569312E-015  0.9000767E+02  0.7816164E-02  0.1186339E+00
        -11   -1    0    0    0    0  0.00000000000E+00  0.00000000000E+00  0.45593999997E+02  0.45594000000E+02  0.51100000000E-03 0.  1.
         11   -1    0    0    0    0 -0.00000000000E+00 -0.00000000000E+00 -0.45593999997E+02  0.45594000000E+02  0.51100000000E-03 0. -1.
    9900012    2    1    2    0    0  0.67593553269E+00  0.95462155906E+00  0.15809530718E+00  0.90007667296E+02  0.89999927705E+02 0.  0.
         12    1    1    2    0    0 -0.67593553269E+00 -0.95462155906E+00 -0.15809530718E+00  0.11803327037E+01  0.00000000000E+00 0. -1.
         11    1    3    3    0    0  0.48447887518E+01 -0.49826535430E+01  0.96648550404E+01  0.11904126914E+02  0.51100000000E-03 0. -1.
        -11    1    3    3    0    0  0.16363120183E+02 -0.18236878311E+02  0.22339925221E+02  0.33157317319E+02  0.51100000000E-03 0.  1.
         12    1    3    3    0    0 -0.20531973403E+02  0.24174153413E+02 -0.31846684954E+02  0.44946223063E+02  0.00000000000E+00 0. -1.
</event>
<event>
 7    1  0.2569312E-015  0.9000793E+02  0.7816164E-02  0.1186339E+00
        -11   -1    0    0    0    0  0.00000000000E+00  0.00000000000E+00  0.45593999997E+02  0.45594000000E+02  0.51100000000E-03 0.  1.
         11   -1    0    0    0    0 -0.00000000000E+00 -0.00000000000E+00 -0.45593999997E+02  0.45594000000E+02  0.51100000000E-03 0. -1.
    9900012    2    1    2    0    0 -0.29880512686E+00 -0.28262073472E+00  0.11060745352E+01  0.90007932264E+02  0.90000196170E+02 0.  0.
         12    1    1    2    0    0  0.29880512686E+00  0.28262073472E+00 -0.11060745352E+01  0.11800677357E+01  0.00000000000E+00 0. -1.
         11    1    3    3    0    0  0.62399728010E+01  0.57860568026E+01 -0.82867262240E+01  0.11877943663E+02  0.51100000000E-03 0. -1.
        -11    1    3    3    0    0 -0.37449968864E+02 -0.82680044819E+01  0.22520126037E+02  0.44474893400E+02  0.51100000000E-03 0.  1.
         12    1    3    3    0    0  0.30911190936E+02  0.21993269446E+01 -0.13127325278E+02  0.33655095201E+02  0.00000000000E+00 0. -1.
</event>
<event>
 7    1  0.2569312E-015  0.9000774E+02  0.7816164E-02  0.1186339E+00
        -11   -1    0    0    0    0  0.00000000000E+00  0.00000000000E+00  0.45593999997E+02  0.45594000000E+02  0.51100000000E-03 0.  1.
         11   -1    0    0    0    0 -0.00000000000E+00 -0.00000000000E+00 -0.45593999997E+02  0.45594000000E+02  0.51100000000E-03 0. -1.
    9900012    2    1    2    0    0  0.35205954429E+00 -0.61739413659E+00 -0.94227608023E+00  0.90007743395E+02  0.90000004808E+02 0.  0.
         12    1    1    2    0    0 -0.35205954429E+00  0.61739413659E+00  0.94227608023E+00  0.11802566051E+01  0.00000000000E+00 0. -1.
         11    1    3    3    0    0 -0.39845957923E+00  0.17922767847E+02  0.54079734431E+01  0.18725131624E+02  0.51100000000E-03 0. -1.
        -11    1    3    3    0    0 -0.26393289820E+02  0.98027846522E+01  0.83633128466E+01  0.29370824579E+02  0.51100000000E-03 0.  1.
        -12    1    3    3    0    0  0.27143808943E+02 -0.28342946636E+02 -0.14713562370E+02  0.41911787191E+02  0.00000000000E+00 0.  1.
</event>
<event>
 7    1  0.2569312E-015  0.9000773E+02  0.7816164E-02  0.1186339E+00
        -11   -1    0    0    0    0  0.00000000000E+00  0.00000000000E+00  0.45593999997E+02  0.45594000000E+02  0.51100000000E-03 0.  1.
         11   -1    0    0    0    0 -0.00000000000E+00 -0.00000000000E+00 -0.45593999997E+02  0.45594000000E+02  0.51100000000E-03 0. -1.
    9900012    2    1    2    0    0  0.10896233285E+01  0.10813077785E+00  0.44054142466E+00  0.90007725451E+02  0.89999986627E+02 0.  0.
         12    1    1    2    0    0 -0.10896233285E+01 -0.10813077785E+00 -0.44054142466E+00  0.11802745485E+01  0.00000000000E+00 0. -1.
         11    1    3    3    0    0 -0.12135294409E+02  0.14164700932E+02 -0.35794166443E+02  0.40362438907E+02  0.51100000000E-03 0. -1.
        -11    1    3    3    0    0  0.44458082226E+01 -0.29353796250E+01 -0.42102763642E+01  0.67902939273E+01  0.51100000000E-03 0.  1.
        -12    1    3    3    0    0  0.87791095151E+01 -0.11121190529E+02  0.40444984232E+02  0.42854992617E+02  0.00000000000E+00 0.  1.
</event>
<event>
 7    1  0.2569312E-015  0.9000776E+02  0.7816164E-02  0.1186339E+00
        -11   -1    0    0    0    0  0.00000000000E+00  0.00000000000E+00  0.45593999997E+02  0.45594000000E+02  0.51100000000E-03 0.  1.
         11   -1    0    0    0    0 -0.00000000000E+00 -0.00000000000E+00 -0.45593999997E+02  0.45594000000E+02  0.51100000000E-03 0. -1.
    9900012    2    1    2    0    0 -0.34265960085E+00 -0.29164438745E+00  0.10911030647E+01  0.90007755132E+02  0.90000016700E+02 0.  0.
         12    1    1    2    0    0  0.34265960085E+00  0.29164438745E+00 -0.10911030647E+01  0.11802448681E+01  0.00000000000E+00 0. -1.
         11    1    3    3    0    0  0.35593048479E+02 -0.15426055868E+02  0.98513282845E+01  0.40023455234E+02  0.51100000000E-03 0. -1.
        -11    1    3    3    0    0  0.31084102191E+01  0.48561145967E+01  0.46859223022E+01  0.74298002093E+01  0.51100000000E-03 0.  1.
        -12    1    3    3    0    0 -0.39044118299E+02  0.10278296884E+02 -0.13446147522E+02  0.42554499688E+02  0.00000000000E+00 0.  1.
</event>
<event>
 7    1  0.2569312E-015  0.9000774E+02  0.7816164E-02  0.1186339E+00
        -11   -1    0    0    0    0  0.00000000000E+00  0.00000000000E+00  0.45593999997E+02  0.45594000000E+02  0.51100000000E-03 0.  1.
         11   -1    0    0    0    0 -0.00000000000E+00 -0.00000000000E+00 -0.45593999997E+02  0.45594000000E+02  0.51100000000E-03 0. -1.
    9900012    2    1    2    0    0 -0.77907599379E+00  0.37708367533E+00  0.80241193852E+00  0.90007738833E+02  0.90000000186E+02 0.  0.
         12    1    1    2    0    0  0.77907599379E+00 -0.37708367533E+00 -0.80241193852E+00  0.11802611666E+01  0.00000000000E+00 0. -1.
         11    1    3    3    0    0 -0.82705345163E+01  0.14812529794E+01 -0.23948697153E+01  0.87367758807E+01  0.51100000000E-03 0. -1.
        -11    1    3    3    0    0 -0.56557910581E+01 -0.81318798192E+01  0.40187224233E+02  0.41389955711E+02  0.51100000000E-03 0.  1.
         12    1    3    3    0    0  0.13147249581E+02  0.70277105151E+01 -0.36989942579E+02  0.39881007242E+02  0.00000000000E+00 0. -1.
</event>
<event>
 7    1  0.2569312E-015  0.9000774E+02  0.7816164E-02  0.1186339E+00
        -11   -1    0    0    0    0  0.00000000000E+00  0.00000000000E+00  0.45593999997E+02  0.45594000000E+02  0.51100000000E-03 0. -1.
         11   -1    0    0    0    0 -0.00000000000E+00 -0.00000000000E+00 -0.45593999997E+02  0.45594000000E+02  0.51100000000E-03 0.  1.
    9900012    2    1    2    0    0 -0.11676511343E+01  0.28539512118E-01 -0.16968894778E+00  0.90007738159E+02  0.89999999502E+02 0.  0.
         12    1    1    2    0    0  0.11676511343E+01 -0.28539512118E-01  0.16968894778E+00  0.11802618414E+01  0.00000000000E+00 0. -1.
         11    1    3    3    0    0  0.37484108521E+02 -0.10527968600E+02 -0.11864537544E+02  0.40702134660E+02  0.51100000000E-03 0. -1.
        -11    1    3    3    0    0 -0.23019817543E+01 -0.49633186600E+01  0.78861865420E+01  0.95982076741E+01  0.51100000000E-03 0.  1.
        -12    1    3    3    0    0 -0.36349777901E+02  0.15519826772E+02  0.38086620545E+01  0.39707395825E+02  0.00000000000E+00 0.  1.
</event>
<event>
 7    1  0.2569312E-015  0.9000759E+02  0.7816164E-02  0.1186339E+00
        -11   -1    0    0    0    0  0.00000000000E+00  0.00000000000E+00  0.45593999997E+02  0.45594000000E+02  0.51100000000E-03 0. -1.
         11   -1    0    0    0    0 -0.00000000000E+00 -0.00000000000E+00 -0.45593999997E+02  0.45594000000E+02  0.51100000000E-03 0.  1.
    9900012    2    1    2    0    0 -0.39256817265E-01 -0.70956435563E+00 -0.94251779877E+00  0.90007592243E+02  0.89999851660E+02 0.  0.
         12    1    1    2    0    0  0.39256817265E-01  0.70956435563E+00  0.94251779877E+00  0.11804077573E+01  0.00000000000E+00 0. -1.
         11    1    3    3    0    0  0.11466527504E+02 -0.18670855707E+02  0.32320756915E+02  0.39047579101E+02  0.51100000000E-03 0. -1.
        -11    1    3    3    0    0 -0.74860165406E+00 -0.81280661339E+01 -0.12057546859E+01  0.82510428515E+01  0.51100000000E-03 0.  1.
        -12    1    3    3    0    0 -0.10757182667E+02  0.26089357485E+02 -0.32057520028E+02  0.42708970290E+02  0.00000000000E+00 0.  1.
</event>
<event>
 7    1  0.2569312E-015  0.9000789E+02  0.7816164E-02  0.1186339E+00
        -11   -1    0    0    0    0  0.00000000000E+00  0.00000000000E+00  0.45593999997E+02  0.45594000000E+02  0.51100000000E-03 0.  1.
         11   -1    0    0    0    0 -0.00000000000E+00 -0.00000000000E+00 -0.45593999997E+02  0.45594000000E+02  0.51100000000E-03 0. -1.
    9900012    2    1    2    0    0  0.54613740022E+00  0.23237940138E+00  0.10199999611E+01  0.90007887223E+02  0.90000150534E+02 0.  0.
         12    1    1    2    0    0 -0.54613740022E+00 -0.23237940138E+00 -0.10199999611E+01  0.11801127771E+01  0.00000000000E+00 0. -1.
         11    1    3    3    0    0 -0.60358733466E+01  0.18364114680E+02 -0.22889994545E+02  0.29960379262E+02  0.51100000000E-03 0. -1.
        -11    1    3    3    0    0 -0.12199406453E+02  0.13268988850E+02  0.42820995041E+01  0.18526412479E+02  0.51100000000E-03 0.  1.
        -12    1    3    3    0    0  0.18781417200E+02 -0.31400724128E+02  0.19627895002E+02  0.41521095482E+02  0.00000000000E+00 0.  1.
</event>
<event>
 7    1  0.2569312E-015  0.9000773E+02  0.7816164E-02  0.1186339E+00
        -11   -1    0    0    0    0  0.00000000000E+00  0.00000000000E+00  0.45593999997E+02  0.45594000000E+02  0.51100000000E-03 0.  1.
         11   -1    0    0    0    0 -0.00000000000E+00 -0.00000000000E+00 -0.45593999997E+02  0.45594000000E+02  0.51100000000E-03 0. -1.
    9900012    2    1    2    0    0 -0.56014194068E+00 -0.79890055064E+00  0.66410326573E+00  0.90007731289E+02  0.89999992542E+02 0.  0.
         12    1    1    2    0    0  0.56014194068E+00  0.79890055064E+00 -0.66410326573E+00  0.11802687114E+01  0.00000000000E+00 0. -1.
         11    1    3    3    0    0 -0.92979371493E+01 -0.12199351239E+02  0.62181630264E+01  0.16551173903E+02  0.51100000000E-03 0. -1.
        -11    1    3    3    0    0 -0.14637945810E+02 -0.97910114227E+00  0.27471763375E+02  0.31143633054E+02  0.51100000000E-03 0.  1.
         12    1    3    3    0    0  0.23375741018E+02  0.12379551831E+02 -0.33025823136E+02  0.42312924332E+02  0.00000000000E+00 0. -1.
</event>
<event>
 7    1  0.2569312E-015  0.9000818E+02  0.7816164E-02  0.1186338E+00
        -11   -1    0    0    0    0  0.00000000000E+00  0.00000000000E+00  0.45593999997E+02  0.45594000000E+02  0.51100000000E-03 0. -1.
         11   -1    0    0    0    0 -0.00000000000E+00 -0.00000000000E+00 -0.45593999997E+02  0.45594000000E+02  0.51100000000E-03 0.  1.
    9900012    2    1    2    0    0  0.89533767006E+00  0.75663068135E+00 -0.13363083031E+00  0.90008179365E+02  0.90000446532E+02 0.  0.
         12    1    1    2    0    0 -0.89533767006E+00 -0.75663068135E+00  0.13363083031E+00  0.11798206348E+01  0.00000000000E+00 0. -1.
         11    1    3    3    0    0 -0.27409255141E+02 -0.12874969637E+02  0.81826165453E+01  0.31368572239E+02  0.51100000000E-03 0. -1.
        -11    1    3    3    0    0 -0.79558270249E+01 -0.11315149598E+02 -0.40892625733E+01  0.14423933677E+02  0.51100000000E-03 0.  1.
        -12    1    3    3    0    0  0.36260419836E+02  0.24946749916E+02 -0.42269848023E+01  0.44215673449E+02  0.00000000000E+00 0.  1.
</event>
<event>
 7    1  0.2569312E-015  0.9000774E+02  0.7816164E-02  0.1186339E+00
        -11   -1    0    0    0    0  0.00000000000E+00  0.00000000000E+00  0.45593999997E+02  0.45594000000E+02  0.51100000000E-03 0.  1.
         11   -1    0    0    0    0 -0.00000000000E+00 -0.00000000000E+00 -0.45593999997E+02  0.45594000000E+02  0.51100000000E-03 0. -1.
    9900012    2    1    2    0    0 -0.44238690313E+00 -0.13483832638E+00  0.10858756446E+01  0.90007740087E+02  0.90000001456E+02 0.  0.
         12    1    1    2    0    0  0.44238690313E+00  0.13483832638E+00 -0.10858756446E+01  0.11802599129E+01  0.00000000000E+00 0. -1.
         11    1    3    3    0    0 -0.13990578030E+02 -0.95572647973E+01  0.37554973522E+02  0.41200165297E+02  0.51100000000E-03 0. -1.
        -11    1    3    3    0    0  0.48387164339E+01 -0.76299692827E+01 -0.18151184042E+01  0.92154361299E+01  0.51100000000E-03 0.  1.
        -12    1    3    3    0    0  0.87094746929E+01  0.17052395754E+02 -0.34653979473E+02  0.39592138660E+02  0.00000000000E+00 0.  1.
</event>
<event>
 7    1  0.2569312E-015  0.9000778E+02  0.7816164E-02  0.1186339E+00
        -11   -1    0    0    0    0  0.00000000000E+00  0.00000000000E+00  0.45593999997E+02  0.45594000000E+02  0.51100000000E-03 0. -1.
         11   -1    0    0    0    0 -0.00000000000E+00 -0.00000000000E+00 -0.45593999997E+02  0.45594000000E+02  0.51100000000E-03 0.  1.
    9900012    2    1    2    0    0  0.11620008103E+01 -0.11881648277E-01  0.20625689908E+00  0.90007775883E+02  0.90000037725E+02 0.  0.
         12    1    1    2    0    0 -0.11620008103E+01  0.11881648277E-01 -0.20625689908E+00  0.11802241165E+01  0.00000000000E+00 0. -1.
         11    1    3    3    0    0 -0.32675936425E+02  0.43518659056E+01  0.20983382631E+02  0.39076308744E+02  0.51100000000E-03 0. -1.
        -11    1    3    3    0    0  0.19233173993E+01  0.10486848401E+02 -0.14095527397E+01  0.10754532923E+02  0.51100000000E-03 0.  1.
        -12    1    3    3    0    0  0.31914619836E+02 -0.14850595955E+02 -0.19367572992E+02  0.40176934217E+02  0.00000000000E+00 0.  1.
</event>
<event>
 7    1  0.2569312E-015  0.9000768E+02  0.7816164E-02  0.1186339E+00
        -11   -1    0    0    0    0  0.00000000000E+00  0.00000000000E+00  0.45593999997E+02  0.45594000000E+02  0.51100000000E-03 0. -1.
         11   -1    0    0    0    0 -0.00000000000E+00 -0.00000000000E+00 -0.45593999997E+02  0.45594000000E+02  0.51100000000E-03 0.  1.
    9900012    2    1    2    0    0 -0.86075894323E+00 -0.43622255191E+00  0.67968215633E+00  0.90007676355E+02  0.89999936883E+02 0.  0.
         12    1    1    2    0    0  0.86075894323E+00  0.43622255191E+00 -0.67968215633E+00  0.11803236449E+01  0.00000000000E+00 0. -1.
         11    1    3    3    0    0  0.59561931569E+01 -0.80704875781E+01 -0.14540161494E+00  0.10031457948E+02  0.51100000000E-03 0. -1.
        -11    1    3    3    0    0  0.32333530788E+02 -0.13074825136E+02 -0.52545270332E+01  0.35270643886E+02  0.51100000000E-03 0.  1.
         12    1    3    3    0    0 -0.39150482888E+02  0.20709090162E+02  0.60796108045E+01  0.44705574521E+02  0.00000000000E+00 0. -1.
</event>
<event>
 7    1  0.2569312E-015  0.9000774E+02  0.7816164E-02  0.1186339E+00
        -11   -1    0    0    0    0  0.00000000000E+00  0.00000000000E+00  0.45593999997E+02  0.45594000000E+02  0.51100000000E-03 0.  1.
         11   -1    0    0    0    0 -0.00000000000E+00 -0.00000000000E+00 -0.45593999997E+02  0.45594000000E+02  0.51100000000E-03 0. -1.
    9900012    2    1    2    0    0 -0.40875654746E+00 -0.10759500260E+01  0.26126964278E+00  0.90007740622E+02  0.90000001998E+02 0.  0.
         12    1    1    2    0    0  0.40875654746E+00  0.10759500260E+01 -0.26126964278E+00  0.11802593781E+01  0.00000000000E+00 0. -1.
         11    1    3    3    0    0  0.13789165451E+01  0.36484249696E+01 -0.77449349391E+01  0.86715876902E+01  0.51100000000E-03 0. -1.
        -11    1    3    3    0    0 -0.12783719018E+00  0.12310207733E+02 -0.33901839035E+02  0.36067883871E+02  0.51100000000E-03 0.  1.
         12    1    3    3    0    0 -0.16598359023E+01 -0.17034582728E+02  0.41908043616E+02  0.45268269060E+02  0.00000000000E+00 0. -1.
</event>
<event>
 7    1  0.2575752E-015  0.9000764E+02  0.7816164E-02  0.1186339E+00
        -11   -1    0    0    0    0  0.00000000000E+00  0.00000000000E+00  0.45593999997E+02  0.45594000000E+02  0.51100000000E-03 0. -1.
         11   -1    0    0    0    0 -0.00000000000E+00 -0.00000000000E+00 -0.45593999997E+02  0.45594000000E+02  0.51100000000E-03 0.  1.
    9900012    2    1    2    0    0  0.13577698826E+00 -0.99277489863E+00 -0.62386816682E+00  0.90007640360E+02  0.89999900413E+02 0.  0.
         12    1    1    2    0    0 -0.13577698826E+00  0.99277489863E+00  0.62386816682E+00  0.11803596399E+01  0.00000000000E+00 0. -1.
         11    1    3    3    0    0 -0.10308434723E+02 -0.34980509849E+02  0.16493872667E+02  0.40024339240E+02  0.51100000000E-03 0. -1.
        -11    1    3    3    0    0  0.81742904306E+01 -0.37031941669E+01 -0.13965200985E+01  0.90820118767E+01  0.51100000000E-03 0.  1.
        -12    1    3    3    0    0  0.22699212811E+01  0.37690929118E+02 -0.15721220735E+02  0.40901289244E+02  0.00000000000E+00 0.  1.
</event>
<event>
 7    1  0.2569312E-015  0.9000766E+02  0.7816164E-02  0.1186339E+00
        -11   -1    0    0    0    0  0.00000000000E+00  0.00000000000E+00  0.45593999997E+02  0.45594000000E+02  0.51100000000E-03 0.  1.
         11   -1    0    0    0    0 -0.00000000000E+00 -0.00000000000E+00 -0.45593999997E+02  0.45594000000E+02  0.51100000000E-03 0. -1.
    9900012    2    1    2    0    0  0.16127439842E+00 -0.84004203458E+00 -0.81334520015E+00  0.90007656632E+02  0.89999916900E+02 0.  0.
         12    1    1    2    0    0 -0.16127439842E+00  0.84004203458E+00  0.81334520015E+00  0.11803433679E+01  0.00000000000E+00 0. -1.
         11    1    3    3    0    0 -0.11906279232E+02 -0.11145873835E+02 -0.10031544462E+02  0.19147372490E+02  0.51100000000E-03 0. -1.
        -11    1    3    3    0    0 -0.43253153019E+01 -0.26782599658E+02  0.13096939897E+02  0.30125501354E+02  0.51100000000E-03 0.  1.
         12    1    3    3    0    0  0.16392868933E+02  0.37088431458E+02 -0.38787406357E+01  0.40734782788E+02  0.00000000000E+00 0. -1.
</event>
<event>
 7    1  0.2569312E-015  0.9000774E+02  0.7816164E-02  0.1186339E+00
        -11   -1    0    0    0    0  0.00000000000E+00  0.00000000000E+00  0.45593999997E+02  0.45594000000E+02  0.51100000000E-03 0. -1.
         11   -1    0    0    0    0 -0.00000000000E+00 -0.00000000000E+00 -0.45593999997E+02  0.45594000000E+02  0.51100000000E-03 0.  1.
    9900012    2    1    2    0    0 -0.28325668850E+00 -0.68183412759E+00 -0.92080475841E+00  0.90007740057E+02  0.90000001426E+02 0.  0.
         12    1    1    2    0    0  0.28325668850E+00  0.68183412759E+00  0.92080475841E+00  0.11802599427E+01  0.00000000000E+00 0. -1.
         11    1    3    3    0    0 -0.32423654665E+01  0.62269376982E+00  0.96307084662E+01  0.10180924672E+02  0.51100000000E-03 0. -1.
        -11    1    3    3    0    0  0.64114690655E+01 -0.39802020952E+02 -0.28555438288E+01  0.40416109886E+02  0.51100000000E-03 0.  1.
         12    1    3    3    0    0 -0.34523602874E+01  0.38497493055E+02 -0.76959693959E+01  0.39410705500E+02  0.00000000000E+00 0. -1.
</event>
<event>
 7    1  0.2569312E-015  0.9000775E+02  0.7816164E-02  0.1186339E+00
        -11   -1    0    0    0    0  0.00000000000E+00  0.00000000000E+00  0.45593999997E+02  0.45594000000E+02  0.51100000000E-03 0. -1.
         11   -1    0    0    0    0 -0.00000000000E+00 -0.00000000000E+00 -0.45593999997E+02  0.45594000000E+02  0.51100000000E-03 0.  1.
    9900012    2    1    2    0    0 -0.60966039984E+00  0.92320991516E+00 -0.41107699870E+00  0.90007751446E+02  0.90000012965E+02 0.  0.
         12    1    1    2    0    0  0.60966039984E+00 -0.92320991516E+00  0.41107699870E+00  0.11802485541E+01  0.00000000000E+00 0. -1.
         11    1    3    3    0    0 -0.50358815157E+01 -0.21097211293E+01 -0.90820944937E+01  0.10596955532E+02  0.51100000000E-03 0. -1.
        -11    1    3    3    0    0 -0.54198946873E+01  0.63074317188E+01 -0.34254200342E+02  0.35249243887E+02  0.51100000000E-03 0.  1.
         12    1    3    3    0    0  0.98461158032E+01 -0.32745006744E+01  0.42925217837E+02  0.44161552027E+02  0.00000000000E+00 0. -1.
</event>
<event>
 7    1  0.2569312E-015  0.9000759E+02  0.7816164E-02  0.1186339E+00
        -11   -1    0    0    0    0  0.00000000000E+00  0.00000000000E+00  0.45593999997E+02  0.45594000000E+02  0.51100000000E-03 0. -1.
         11   -1    0    0    0    0 -0.00000000000E+00 -0.00000000000E+00 -0.45593999997E+02  0.45594000000E+02  0.51100000000E-03 0.  1.
    9900012    2    1    2    0    0  0.35194901730E+00 -0.97646936195E+00 -0.56214765226E+00  0.90007588839E+02  0.89999848212E+02 0.  0.
         12    1    1    2    0    0 -0.35194901730E+00  0.97646936195E+00  0.56214765226E+00  0.11804111608E+01  0.00000000000E+00 0. -1.
         11    1    3    3    0    0  0.62568392842E+01  0.12388848020E+02 -0.98311564206E+01  0.17008328252E+02  0.51100000000E-03 0. -1.
        -11    1    3    3    0    0  0.22554246217E+02 -0.31181053922E+02  0.13727771987E+01  0.38507618254E+02  0.51100000000E-03 0.  1.
         12    1    3    3    0    0 -0.28459136484E+02  0.17815736540E+02  0.78962315696E+01  0.34491642333E+02  0.00000000000E+00 0. -1.
</event>
<event>
 7    1  0.2569312E-015  0.9000780E+02  0.7816164E-02  0.1186339E+00
        -11   -1    0    0    0    0  0.00000000000E+00  0.00000000000E+00  0.45593999997E+02  0.45594000000E+02  0.51100000000E-03 0. -1.
         11   -1    0    0    0    0 -0.00000000000E+00 -0.00000000000E+00 -0.45593999997E+02  0.45594000000E+02  0.51100000000E-03 0.  1.
    9900012    2    1    2    0    0 -0.10254138505E+01  0.21021374996E+00 -0.54515938021E+00  0.90007804196E+02  0.90000066412E+02 0.  0.
         12    1    1    2    0    0  0.10254138505E+01 -0.21021374996E+00  0.54515938021E+00  0.11801958038E+01  0.00000000000E+00 0. -1.
         11    1    3    3    0    0  0.14716093392E+01 -0.37064364219E+01  0.11996249755E+02  0.12641729053E+02  0.51100000000E-03 0. -1.
        -11    1    3    3    0    0  0.12207471839E+02 -0.29357061248E+02  0.11445735360E+02  0.33791482240E+02  0.51100000000E-03 0.  1.
         12    1    3    3    0    0 -0.14704495028E+02  0.33273711419E+02 -0.23987144495E+02  0.43574592903E+02  0.00000000000E+00 0. -1.
</event>
<event>
 7    1  0.2569312E-015  0.9000777E+02  0.7816164E-02  0.1186339E+00
        -11   -1    0    0    0    0  0.00000000000E+00  0.00000000000E+00  0.45593999997E+02  0.45594000000E+02  0.51100000000E-03 0.  1.
         11   -1    0    0    0    0 -0.00000000000E+00 -0.00000000000E+00 -0.45593999997E+02  0.45594000000E+02  0.51100000000E-03 0. -1.
    9900012    2    1    2    0    0  0.38944005731E+00 -0.97185357143E+00  0.54477787859E+00  0.90007768726E+02  0.90000030473E+02 0.  0.
         12    1    1    2    0    0 -0.38944005731E+00  0.97185357143E+00 -0.54477787859E+00  0.11802312738E+01  0.00000000000E+00 0. -1.
         11    1    3    3    0    0 -0.20415195114E+01  0.34165963094E+02 -0.20678343315E+01  0.34289309926E+02  0.51100000000E-03 0. -1.
        -11    1    3    3    0    0  0.55331485792E+00  0.10203750234E+02  0.14675767183E+01  0.10323587451E+02  0.51100000000E-03 0.  1.
        -12    1    3    3    0    0  0.18776447108E+01 -0.45341566900E+02  0.11450354917E+01  0.45394871350E+02  0.00000000000E+00 0.  1.
</event>
<event>
 7    1  0.2569312E-015  0.9000771E+02  0.7816164E-02  0.1186339E+00
        -11   -1    0    0    0    0  0.00000000000E+00  0.00000000000E+00  0.45593999997E+02  0.45594000000E+02  0.51100000000E-03 0. -1.
         11   -1    0    0    0    0 -0.00000000000E+00 -0.00000000000E+00 -0.45593999997E+02  0.45594000000E+02  0.51100000000E-03 0.  1.
    9900012    2    1    2    0    0 -0.17797183640E+00  0.91082639573E+00 -0.72924518506E+00  0.90007713070E+02  0.89999974082E+02 0.  0.
         12    1    1    2    0    0  0.17797183640E+00 -0.91082639573E+00  0.72924518506E+00  0.11802869302E+01  0.00000000000E+00 0. -1.
         11    1    3    3    0    0 -0.55146236735E+01  0.11023229385E+02  0.33468862424E+02  0.35666334442E+02  0.51100000000E-03 0. -1.
        -11    1    3    3    0    0 -0.76905162474E+01  0.45234975280E+01  0.52092694527E+01  0.10331629036E+02  0.51100000000E-03 0.  1.
        -12    1    3    3    0    0  0.13027168085E+02 -0.14635900518E+02 -0.39407377062E+02  0.44009749592E+02  0.00000000000E+00 0.  1.
</event>
<event>
 7    1  0.2569312E-015  0.9000761E+02  0.7816164E-02  0.1186339E+00
        -11   -1    0    0    0    0  0.00000000000E+00  0.00000000000E+00  0.45593999997E+02  0.45594000000E+02  0.51100000000E-03 0.  1.
         11   -1    0    0    0    0 -0.00000000000E+00 -0.00000000000E+00 -0.45593999997E+02  0.45594000000E+02  0.51100000000E-03 0. -1.
    9900012    2    1    2    0    0  0.77803127130E+00 -0.29129677582E+00  0.83852947600E+00  0.90007611016E+02  0.89999870682E+02 0.  0.
         12    1    1    2    0    0 -0.77803127130E+00  0.29129677582E+00 -0.83852947600E+00  0.11803889837E+01  0.00000000000E+00 0. -1.
         11    1    3    3    0    0 -0.48982656365E+00  0.36443409526E+02 -0.13842839941E+02  0.38987000985E+02  0.51100000000E-03 0. -1.
        -11    1    3    3    0    0  0.92529761924E+01 -0.15797123637E+01 -0.42471646605E+01  0.10302983426E+02  0.51100000000E-03 0.  1.
        -12    1    3    3    0    0 -0.79851183575E+01 -0.35154993938E+02  0.18928534078E+02  0.40717626605E+02  0.00000000000E+00 0.  1.
</event>
<event>
 7    1  0.2569312E-015  0.9000779E+02  0.7816164E-02  0.1186339E+00
        -11   -1    0    0    0    0  0.00000000000E+00  0.00000000000E+00  0.45593999997E+02  0.45594000000E+02  0.51100000000E-03 0. -1.
         11   -1    0    0    0    0 -0.00000000000E+00 -0.00000000000E+00 -0.45593999997E+02  0.45594000000E+02  0.51100000000E-03 0.  1.
    9900012    2    1    2    0    0  0.31863587233E+00 -0.10157533925E+01 -0.50953119530E+00  0.90007785692E+02  0.90000047663E+02 0.  0.
         12    1    1    2    0    0 -0.31863587233E+00  0.10157533925E+01  0.50953119530E+00  0.11802143079E+01  0.00000000000E+00 0. -1.
         11    1    3    3    0    0 -0.42905923854E+01  0.88491121423E+01  0.35456120639E+02  0.36794734131E+02  0.51100000000E-03 0. -1.
        -11    1    3    3    0    0 -0.50010953250E+01  0.63661074008E+01  0.39924289480E+01  0.90265035896E+01  0.51100000000E-03 0.  1.
        -12    1    3    3    0    0  0.96103235828E+01 -0.16230972936E+02 -0.39958080783E+02  0.44186547971E+02  0.00000000000E+00 0.  1.
</event>
<event>
 7    1  0.2569312E-015  0.9000778E+02  0.7816164E-02  0.1186339E+00
        -11   -1    0    0    0    0  0.00000000000E+00  0.00000000000E+00  0.45593999997E+02  0.45594000000E+02  0.51100000000E-03 0.  1.
         11   -1    0    0    0    0 -0.00000000000E+00 -0.00000000000E+00 -0.45593999997E+02  0.45594000000E+02  0.51100000000E-03 0. -1.
    9900012    2    1    2    0    0 -0.22706133604E+00  0.88836509172E+00  0.74308871540E+00  0.90007775350E+02  0.90000037184E+02 0.  0.
         12    1    1    2    0    0  0.22706133604E+00 -0.88836509172E+00 -0.74308871540E+00  0.11802246504E+01  0.00000000000E+00 0. -1.
         11    1    3    3    0    0  0.10177264889E+02  0.29853773899E+02 -0.24515272384E+02  0.39947754842E+02  0.51100000000E-03 0. -1.
        -11    1    3    3    0    0  0.81441324900E+01 -0.94639439414E+00  0.30297270884E+00  0.82045322284E+01  0.51100000000E-03 0.  1.
        -12    1    3    3    0    0 -0.18548458715E+02 -0.28019014413E+02  0.24955388390E+02  0.41855488279E+02  0.00000000000E+00 0.  1.
</event>
<event>
 7    1  0.2569312E-015  0.9000769E+02  0.7816164E-02  0.1186339E+00
        -11   -1    0    0    0    0  0.00000000000E+00  0.00000000000E+00  0.45593999997E+02  0.45594000000E+02  0.51100000000E-03 0.  1.
         11   -1    0    0    0    0 -0.00000000000E+00 -0.00000000000E+00 -0.45593999997E+02  0.45594000000E+02  0.51100000000E-03 0. -1.
    9900012    2    1    2    0    0 -0.11750259961E+00 -0.10857960967E+01 -0.44762640812E+00  0.90007690962E+02  0.89999951682E+02 0.  0.
         12    1    1    2    0    0  0.11750259961E+00  0.10857960967E+01  0.44762640812E+00  0.11803090383E+01  0.00000000000E+00 0. -1.
         11    1    3    3    0    0 -0.30708715201E+02 -0.25301180309E+01 -0.25050438358E+02  0.39710844221E+02  0.51100000000E-03 0. -1.
        -11    1    3    3    0    0  0.74761371803E+00  0.98427660796E+01 -0.12229384019E+01  0.99465847890E+01  0.51100000000E-03 0.  1.
        -12    1    3    3    0    0  0.29843598883E+02 -0.83984441454E+01  0.25825750351E+02  0.40350261952E+02  0.00000000000E+00 0.  1.
</event>
<event>
 7    1  0.2569312E-015  0.9000780E+02  0.7816164E-02  0.1186339E+00
        -11   -1    0    0    0    0  0.00000000000E+00  0.00000000000E+00  0.45593999997E+02  0.45594000000E+02  0.51100000000E-03 0.  1.
         11   -1    0    0    0    0 -0.00000000000E+00 -0.00000000000E+00 -0.45593999997E+02  0.45594000000E+02  0.51100000000E-03 0. -1.
    9900012    2    1    2    0    0  0.41485222872E+00  0.87501384709E-01  0.11014192744E+01  0.90007795237E+02  0.90000057334E+02 0.  0.
         12    1    1    2    0    0 -0.41485222872E+00 -0.87501384709E-01 -0.11014192744E+01  0.11802047627E+01  0.00000000000E+00 0. -1.
         11    1    3    3    0    0  0.40091712379E+02  0.12064853906E+00 -0.76389676603E+01  0.40813157005E+02  0.51100000000E-03 0. -1.
        -11    1    3    3    0    0 -0.33239095276E+01  0.95931929306E+01 -0.13918431048E+01  0.10247680354E+02  0.51100000000E-03 0.  1.
        -12    1    3    3    0    0 -0.36352950622E+02 -0.96263400849E+01  0.10132230040E+02  0.38946957878E+02  0.00000000000E+00 0.  1.
</event>
<event>
 7    1  0.2569312E-015  0.9000775E+02  0.7816164E-02  0.1186339E+00
        -11   -1    0    0    0    0  0.00000000000E+00  0.00000000000E+00  0.45593999997E+02  0.45594000000E+02  0.51100000000E-03 0.  1.
         11   -1    0    0    0    0 -0.00000000000E+00 -0.00000000000E+00 -0.45593999997E+02  0.45594000000E+02  0.51100000000E-03 0. -1.
    9900012    2    1    2    0    0  0.54780533706E+00 -0.10430998525E+01 -0.69553509547E-01  0.90007751856E+02  0.90000013381E+02 0.  0.
         12    1    1    2    0    0 -0.54780533706E+00  0.10430998525E+01  0.69553509547E-01  0.11802481435E+01  0.00000000000E+00 0. -1.
         11    1    3    3    0    0  0.85342771590E+01 -0.14133776333E+02 -0.34666526983E+02  0.38397468841E+02  0.51100000000E-03 0. -1.
        -11    1    3    3    0    0  0.85799815638E+01 -0.40635534603E+01 -0.11669968957E+00  0.94943230110E+01  0.51100000000E-03 0.  1.
        -12    1    3    3    0    0 -0.16566453386E+02  0.17154229941E+02  0.34713673163E+02  0.42115960005E+02  0.00000000000E+00 0.  1.
</event>
<event>
 7    1  0.2569312E-015  0.9000779E+02  0.7816164E-02  0.1186339E+00
        -11   -1    0    0    0    0  0.00000000000E+00  0.00000000000E+00  0.45593999997E+02  0.45594000000E+02  0.51100000000E-03 0.  1.
         11   -1    0    0    0    0 -0.00000000000E+00 -0.00000000000E+00 -0.45593999997E+02  0.45594000000E+02  0.51100000000E-03 0. -1.
    9900012    2    1    2    0    0 -0.74574033636E+00 -0.12156180438E+00  0.90664058059E+00  0.90007786857E+02  0.90000048843E+02 0.  0.
         12    1    1    2    0    0  0.74574033636E+00  0.12156180438E+00 -0.90664058059E+00  0.11802131434E+01  0.00000000000E+00 0. -1.
         11    1    3    3    0    0  0.18432918694E+02  0.25367503941E+02 -0.98490003543E+01  0.32867697760E+02  0.51100000000E-03 0. -1.
        -11    1    3    3    0    0  0.31017471363E+01  0.10126308869E+02 -0.56935938292E+01  0.12024141448E+02  0.51100000000E-03 0.  1.
        -12    1    3    3    0    0 -0.22280406167E+02 -0.35615374615E+02  0.16449234764E+02  0.45115947649E+02  0.00000000000E+00 0.  1.
</event>
<event>
 7    1  0.2569312E-015  0.9000771E+02  0.7816164E-02  0.1186339E+00
        -11   -1    0    0    0    0  0.00000000000E+00  0.00000000000E+00  0.45593999997E+02  0.45594000000E+02  0.51100000000E-03 0.  1.
         11   -1    0    0    0    0 -0.00000000000E+00 -0.00000000000E+00 -0.45593999997E+02  0.45594000000E+02  0.51100000000E-03 0. -1.
    9900012    2    1    2    0    0  0.16282254220E+00  0.70790929418E+00  0.93029177884E+00  0.90007707857E+02  0.89999968801E+02 0.  0.
         12    1    1    2    0    0 -0.16282254220E+00 -0.70790929418E+00 -0.93029177884E+00  0.11802921430E+01  0.00000000000E+00 0. -1.
         11    1    3    3    0    0  0.11338065328E+02 -0.11458207476E+02 -0.30096642668E+02  0.34141618944E+02  0.51100000000E-03 0. -1.
        -11    1    3    3    0    0 -0.13697647815E+02 -0.87393180385E+00 -0.71276596607E+01  0.15465860628E+02  0.51100000000E-03 0.  1.
        -12    1    3    3    0    0  0.25224050293E+01  0.13040048574E+02  0.38154594108E+02  0.40400228285E+02  0.00000000000E+00 0.  1.
</event>
<event>
 7    1  0.2569312E-015  0.9000769E+02  0.7816164E-02  0.1186339E+00
        -11   -1    0    0    0    0  0.00000000000E+00  0.00000000000E+00  0.45593999997E+02  0.45594000000E+02  0.51100000000E-03 0.  1.
         11   -1    0    0    0    0 -0.00000000000E+00 -0.00000000000E+00 -0.45593999997E+02  0.45594000000E+02  0.51100000000E-03 0. -1.
    9900012    2    1    2    0    0 -0.48558062152E+00  0.52924995442E+00  0.93660522648E+00  0.90007693512E+02  0.89999954267E+02 0.  0.
         12    1    1    2    0    0  0.48558062152E+00 -0.52924995442E+00 -0.93660522648E+00  0.11803064875E+01  0.00000000000E+00 0. -1.
         11    1    3    3    0    0 -0.13827330811E+02  0.26553443021E+02 -0.22721862703E+02  0.37584085177E+02  0.51100000000E-03 0. -1.
        -11    1    3    3    0    0  0.16644575911E+00  0.90307790170E+01  0.23352965324E+01  0.93293238769E+01  0.51100000000E-03 0.  1.
        -12    1    3    3    0    0  0.13175304430E+02 -0.35054972083E+02  0.21323171397E+02  0.43094284459E+02  0.00000000000E+00 0.  1.
</event>
<event>
 7    1  0.3272928E-015  0.9000777E+02  0.7816164E-02  0.1186339E+00
        -11   -1    0    0    0    0  0.00000000000E+00  0.00000000000E+00  0.45593999997E+02  0.45594000000E+02  0.51100000000E-03 0. -1.
         11   -1    0    0    0    0 -0.00000000000E+00 -0.00000000000E+00 -0.45593999997E+02  0.45594000000E+02  0.51100000000E-03 0.  1.
    9900012    2    1    2    0    0  0.35891079044E+00 -0.34851967813E+00 -0.10689572665E+01  0.90007765888E+02  0.90000027598E+02 0.  0.
         12    1    1    2    0    0 -0.35891079044E+00  0.34851967813E+00  0.10689572665E+01  0.11802341120E+01  0.00000000000E+00 0. -1.
         11    1    3    3    0    0  0.99305414760E+01 -0.25270990346E+01  0.38332882234E+02  0.39678857647E+02  0.51100000000E-03 0. -1.
        -11    1    3    3    0    0  0.15839422676E+01 -0.88472747454E+01 -0.12445942784E+01  0.90737069991E+01  0.51100000000E-03 0.  1.
        -12    1    3    3    0    0 -0.11155572953E+02  0.11025854102E+02 -0.38157245222E+02  0.41255201242E+02  0.00000000000E+00 0.  1.
</event>
<event>
 7    1  0.2713076E-015  0.9000776E+02  0.7816164E-02  0.1186339E+00
        -11   -1    0    0    0    0  0.00000000000E+00  0.00000000000E+00  0.45593999997E+02  0.45594000000E+02  0.51100000000E-03 0.  1.
         11   -1    0    0    0    0 -0.00000000000E+00 -0.00000000000E+00 -0.45593999997E+02  0.45594000000E+02  0.51100000000E-03 0. -1.
    9900012    2    1    2    0    0 -0.40920545012E+00  0.95486919084E+00  0.56012707930E+00  0.90007759932E+02  0.90000021564E+02 0.  0.
         12    1    1    2    0    0  0.40920545012E+00 -0.95486919084E+00 -0.56012707930E+00  0.11802400675E+01  0.00000000000E+00 0. -1.
         11    1    3    3    0    0  0.22706148379E+00  0.12174533870E+02 -0.38708635419E+02  0.40578680217E+02  0.51100000000E-03 0. -1.
        -11    1    3    3    0    0 -0.27247828519E+01  0.80123373472E+01  0.43637251755E+01  0.95217692171E+01  0.51100000000E-03 0.  1.
        -12    1    3    3    0    0  0.20885159180E+01 -0.19232002026E+02  0.34905037323E+02  0.39907310498E+02  0.00000000000E+00 0.  1.
</event>
<event>
 7    1  0.2569312E-015  0.9000785E+02  0.7816164E-02  0.1186339E+00
        -11   -1    0    0    0    0  0.00000000000E+00  0.00000000000E+00  0.45593999997E+02  0.45594000000E+02  0.51100000000E-03 0.  1.
         11   -1    0    0    0    0 -0.00000000000E+00 -0.00000000000E+00 -0.45593999997E+02  0.45594000000E+02  0.51100000000E-03 0. -1.
    9900012    2    1    2    0    0 -0.37403163760E+00  0.34655521897E+00  0.10643115191E+01  0.90007847808E+02  0.90000110599E+02 0.  0.
         12    1    1    2    0    0  0.37403163760E+00 -0.34655521897E+00 -0.10643115191E+01  0.11801521916E+01  0.00000000000E+00 0. -1.
         11    1    3    3    0    0  0.36876839381E+01  0.63914402602E+00  0.95425652964E+01  0.10250271733E+02  0.51100000000E-03 0. -1.
        -11    1    3    3    0    0  0.20311629697E+02 -0.32331486239E+02  0.17502062738E+01  0.38222382522E+02  0.51100000000E-03 0.  1.
         12    1    3    3    0    0 -0.24373345273E+02  0.32038897432E+02 -0.10228460051E+02  0.41535193553E+02  0.00000000000E+00 0. -1.
</event>
<event>
 7    1  0.2569312E-015  0.9000762E+02  0.7816164E-02  0.1186339E+00
        -11   -1    0    0    0    0  0.00000000000E+00  0.00000000000E+00  0.45593999997E+02  0.45594000000E+02  0.51100000000E-03 0.  1.
         11   -1    0    0    0    0 -0.00000000000E+00 -0.00000000000E+00 -0.45593999997E+02  0.45594000000E+02  0.51100000000E-03 0. -1.
    9900012    2    1    2    0    0  0.76847643952E-01  0.84631681814E+00 -0.81922493866E+00  0.90007624120E+02  0.89999883959E+02 0.  0.
         12    1    1    2    0    0 -0.76847643952E-01 -0.84631681814E+00  0.81922493866E+00  0.11803758796E+01  0.00000000000E+00 0. -1.
         11    1    3    3    0    0  0.15345540361E+02 -0.29976827722E+01 -0.10289032963E+02  0.18717262368E+02  0.51100000000E-03 0. -1.
        -11    1    3    3    0    0 -0.22112940380E+02  0.21915173408E+02 -0.19302521384E+02  0.36631192853E+02  0.51100000000E-03 0.  1.
        -12    1    3    3    0    0  0.68442476625E+01 -0.18071173818E+02  0.28772329409E+02  0.34659168900E+02  0.00000000000E+00 0.  1.
</event>
<event>
 7    1  0.2569312E-015  0.9000797E+02  0.7816164E-02  0.1186339E+00
        -11   -1    0    0    0    0  0.00000000000E+00  0.00000000000E+00  0.45593999997E+02  0.45594000000E+02  0.51100000000E-03 0.  1.
         11   -1    0    0    0    0 -0.00000000000E+00 -0.00000000000E+00 -0.45593999997E+02  0.45594000000E+02  0.51100000000E-03 0. -1.
    9900012    2    1    2    0    0 -0.95461649322E+00 -0.31491926043E+00  0.61805816219E+00  0.90007973440E+02  0.90000237889E+02 0.  0.
         12    1    1    2    0    0  0.95461649322E+00  0.31491926043E+00 -0.61805816219E+00  0.11800265597E+01  0.00000000000E+00 0. -1.
         11    1    3    3    0    0  0.31155875270E+01  0.41482624031E+02  0.86959203543E+01  0.42498635428E+02  0.51100000000E-03 0. -1.
        -11    1    3    3    0    0  0.27440707335E+01 -0.49987555481E+01 -0.83170450410E+01  0.10084181657E+02  0.51100000000E-03 0.  1.
        -12    1    3    3    0    0 -0.68142747537E+01 -0.36798787743E+02  0.23918284897E+00  0.37425156355E+02  0.00000000000E+00 0.  1.
</event>
<event>
 7    1  0.2569312E-015  0.9000766E+02  0.7816164E-02  0.1186339E+00
        -11   -1    0    0    0    0  0.00000000000E+00  0.00000000000E+00  0.45593999997E+02  0.45594000000E+02  0.51100000000E-03 0. -1.
         11   -1    0    0    0    0 -0.00000000000E+00 -0.00000000000E+00 -0.45593999997E+02  0.45594000000E+02  0.51100000000E-03 0.  1.
    9900012    2    1    2    0    0 -0.89693381164E+00 -0.20795925334E-01 -0.76699873147E+00  0.90007656920E+02  0.89999917191E+02 0.  0.
         12    1    1    2    0    0  0.89693381164E+00  0.20795925334E-01  0.76699873147E+00  0.11803430802E+01  0.00000000000E+00 0. -1.
         11    1    3    3    0    0  0.39670496422E+02  0.58676795641E+01 -0.27255259142E+01  0.40194607121E+02  0.51100000000E-03 0. -1.
        -11    1    3    3    0    0 -0.86034110398E+00 -0.97251598316E+01 -0.98430248166E+00  0.98126332960E+01  0.51100000000E-03 0.  1.
        -12    1    3    3    0    0 -0.39707089130E+02  0.38366843422E+01  0.29428296644E+01  0.40000416502E+02  0.00000000000E+00 0.  1.
</event>
<event>
 7    1  0.2569312E-015  0.9000780E+02  0.7816164E-02  0.1186339E+00
        -11   -1    0    0    0    0  0.00000000000E+00  0.00000000000E+00  0.45593999997E+02  0.45594000000E+02  0.51100000000E-03 0. -1.
         11   -1    0    0    0    0 -0.00000000000E+00 -0.00000000000E+00 -0.45593999997E+02  0.45594000000E+02  0.51100000000E-03 0.  1.
    9900012    2    1    2    0    0  0.10412814475E+01  0.48712126253E+00 -0.26705187821E+00  0.90007800490E+02  0.90000062657E+02 0.  0.
         12    1    1    2    0    0 -0.10412814475E+01 -0.48712126253E+00  0.26705187821E+00  0.11801995098E+01  0.00000000000E+00 0. -1.
         11    1    3    3    0    0  0.29127064656E+02  0.27799044489E+02  0.79841425812E+00  0.40271705148E+02  0.51100000000E-03 0. -1.
        -11    1    3    3    0    0  0.38658764463E+01 -0.14461642972E+01 -0.70742452678E+01  0.81903197888E+01  0.51100000000E-03 0.  1.
        -12    1    3    3    0    0 -0.31951659655E+02 -0.25865758929E+02  0.60087791315E+01  0.41545775553E+02  0.00000000000E+00 0.  1.
</event>
<event>
 7    1  0.2569312E-015  0.9000755E+02  0.7816164E-02  0.1186339E+00
        -11   -1    0    0    0    0  0.00000000000E+00  0.00000000000E+00  0.45593999997E+02  0.45594000000E+02  0.51100000000E-03 0.  1.
         11   -1    0    0    0    0 -0.00000000000E+00 -0.00000000000E+00 -0.45593999997E+02  0.45594000000E+02  0.51100000000E-03 0. -1.
    9900012    2    1    2    0    0 -0.61634767945E+00 -0.75044543588E+00  0.67113277506E+00  0.90007545843E+02  0.89999804648E+02 0.  0.
         12    1    1    2    0    0  0.61634767945E+00  0.75044543588E+00 -0.67113277506E+00  0.11804541566E+01  0.00000000000E+00 0. -1.
         11    1    3    3    0    0 -0.20105556467E+02 -0.26543156911E+02 -0.19144512810E+02  0.38409438301E+02  0.51100000000E-03 0. -1.
        -11    1    3    3    0    0 -0.69535235412E+01 -0.37832931307E+01  0.24109099769E+01  0.82751002246E+01  0.51100000000E-03 0.  1.
        -12    1    3    3    0    0  0.26442732329E+02  0.29576004605E+02  0.17404735608E+02  0.43323007317E+02  0.00000000000E+00 0.  1.
</event>
<event>
 7    1  0.2569312E-015  0.9000778E+02  0.7816164E-02  0.1186339E+00
        -11   -1    0    0    0    0  0.00000000000E+00  0.00000000000E+00  0.45593999997E+02  0.45594000000E+02  0.51100000000E-03 0. -1.
         11   -1    0    0    0    0 -0.00000000000E+00 -0.00000000000E+00 -0.45593999997E+02  0.45594000000E+02  0.51100000000E-03 0.  1.
    9900012    2    1    2    0    0 -0.48366418678E+00  0.58737535884E+00 -0.90220343450E+00  0.90007783115E+02  0.90000045052E+02 0.  0.
         12    1    1    2    0    0  0.48366418678E+00 -0.58737535884E+00  0.90220343450E+00  0.11802168847E+01  0.00000000000E+00 0. -1.
         11    1    3    3    0    0  0.40533689942E+01 -0.10880890114E+02  0.10479481193E+02  0.15641070814E+02  0.51100000000E-03 0. -1.
        -11    1    3    3    0    0 -0.32938903404E+02  0.17790372114E+02 -0.21965600445E+02  0.43404565435E+02  0.51100000000E-03 0.  1.
         12    1    3    3    0    0  0.28401870223E+02 -0.63221066415E+01  0.10583915818E+02  0.30962146867E+02  0.00000000000E+00 0. -1.
</event>
<event>
 7    1  0.2569312E-015  0.9000778E+02  0.7816164E-02  0.1186339E+00
        -11   -1    0    0    0    0  0.00000000000E+00  0.00000000000E+00  0.45593999997E+02  0.45594000000E+02  0.51100000000E-03 0.  1.
         11   -1    0    0    0    0 -0.00000000000E+00 -0.00000000000E+00 -0.45593999997E+02  0.45594000000E+02  0.51100000000E-03 0. -1.
    9900012    2    1    2    0    0  0.74101792366E+00 -0.54202238308E+00 -0.74163138982E+00  0.90007782670E+02  0.90000044602E+02 0.  0.
         12    1    1    2    0    0 -0.74101792366E+00  0.54202238308E+00  0.74163138982E+00  0.11802173297E+01  0.00000000000E+00 0. -1.
         11    1    3    3    0    0 -0.83498957323E+00  0.10703616919E+02 -0.29411254867E+01  0.11131704367E+02  0.51100000000E-03 0. -1.
        -11    1    3    3    0    0  0.20285482375E+02 -0.49404826061E+01  0.34905373043E+02  0.40673016007E+02  0.51100000000E-03 0.  1.
         12    1    3    3    0    0 -0.18709474878E+02 -0.63051566955E+01 -0.32705878946E+02  0.38203062296E+02  0.00000000000E+00 0. -1.
</event>
<event>
 7    1  0.2569312E-015  0.9000776E+02  0.7816164E-02  0.1186339E+00
        -11   -1    0    0    0    0  0.00000000000E+00  0.00000000000E+00  0.45593999997E+02  0.45594000000E+02  0.51100000000E-03 0. -1.
         11   -1    0    0    0    0 -0.00000000000E+00 -0.00000000000E+00 -0.45593999997E+02  0.45594000000E+02  0.51100000000E-03 0.  1.
    9900012    2    1    2    0    0  0.21192393734E+00 -0.17304965691E+00 -0.11480909278E+01  0.90007758195E+02  0.90000019803E+02 0.  0.
         12    1    1    2    0    0 -0.21192393734E+00  0.17304965691E+00  0.11480909278E+01  0.11802418047E+01  0.00000000000E+00 0. -1.
         11    1    3    3    0    0 -0.32461144056E+01  0.83560516423E+01  0.11527854350E+01  0.90382394471E+01  0.51100000000E-03 0. -1.
        -11    1    3    3    0    0  0.31074282478E+02  0.23037123040E+02 -0.46589583817E+01  0.38961852663E+02  0.51100000000E-03 0.  1.
         12    1    3    3    0    0 -0.27616244135E+02 -0.31566224339E+02  0.23580820189E+01  0.42007666085E+02  0.00000000000E+00 0. -1.
</event>
<event>
 7    1  0.3468075E-015  0.9000774E+02  0.7816164E-02  0.1186339E+00
        -11   -1    0    0    0    0  0.00000000000E+00  0.00000000000E+00  0.45593999997E+02  0.45594000000E+02  0.51100000000E-03 0. -1.
         11   -1    0    0    0    0 -0.00000000000E+00 -0.00000000000E+00 -0.45593999997E+02  0.45594000000E+02  0.51100000000E-03 0.  1.
    9900012    2    1    2    0    0  0.14672747675E+00 -0.71363988000E+00 -0.92855063765E+00  0.90007738539E+02  0.89999999887E+02 0.  0.
         12    1    1    2    0    0 -0.14672747675E+00  0.71363988000E+00  0.92855063765E+00  0.11802614615E+01  0.00000000000E+00 0. -1.
         11    1    3    3    0    0  0.33081810983E+02 -0.77813018843E+01  0.23148466346E+02  0.41119415990E+02  0.51100000000E-03 0. -1.
        -11    1    3    3    0    0  0.31642083998E+01  0.59430133297E+00 -0.84133661367E+01  0.90083371875E+01  0.51100000000E-03 0.  1.
        -12    1    3    3    0    0 -0.36099291907E+02  0.64733606713E+01 -0.15663650847E+02  0.39879985361E+02  0.00000000000E+00 0.  1.
</event>
<event>
 7    1  0.2569312E-015  0.9000811E+02  0.7816164E-02  0.1186338E+00
        -11   -1    0    0    0    0  0.00000000000E+00  0.00000000000E+00  0.45593999997E+02  0.45594000000E+02  0.51100000000E-03 0. -1.
         11   -1    0    0    0    0 -0.00000000000E+00 -0.00000000000E+00 -0.45593999997E+02  0.45594000000E+02  0.51100000000E-03 0.  1.
    9900012    2    1    2    0    0  0.10297302373E+01  0.55495009963E+00 -0.15433446516E+00  0.90008113098E+02  0.90000379390E+02 0.  0.
         12    1    1    2    0    0 -0.10297302373E+01 -0.55495009963E+00  0.15433446516E+00  0.11798869021E+01  0.00000000000E+00 0. -1.
         11    1    3    3    0    0  0.62056424580E+01 -0.31282379464E+01  0.42498485078E+02  0.43062943526E+02  0.51100000000E-03 0. -1.
        -11    1    3    3    0    0 -0.48572918028E+00 -0.65358957666E+01 -0.71266285762E+01  0.96820814618E+01  0.51100000000E-03 0.  1.
        -12    1    3    3    0    0 -0.46901830404E+01  0.10219083813E+02 -0.35526190967E+02  0.37263088110E+02  0.00000000000E+00 0.  1.
</event>
<event>
 7    1  0.2569312E-015  0.9000787E+02  0.7816164E-02  0.1186339E+00
        -11   -1    0    0    0    0  0.00000000000E+00  0.00000000000E+00  0.45593999997E+02  0.45594000000E+02  0.51100000000E-03 0. -1.
         11   -1    0    0    0    0 -0.00000000000E+00 -0.00000000000E+00 -0.45593999997E+02  0.45594000000E+02  0.51100000000E-03 0.  1.
    9900012    2    1    2    0    0 -0.14725678159E+00  0.98166794740E-01 -0.11667840632E+01  0.90007870207E+02  0.90000133293E+02 0.  0.
         12    1    1    2    0    0  0.14725678159E+00 -0.98166794740E-01  0.11667840632E+01  0.11801297935E+01  0.00000000000E+00 0. -1.
         11    1    3    3    0    0  0.25727871568E+02 -0.22484468881E+02 -0.94830863170E+01  0.35459887798E+02  0.51100000000E-03 0. -1.
        -11    1    3    3    0    0  0.79808575578E+01 -0.48338295503E+01 -0.25016548967E+01  0.96601383511E+01  0.51100000000E-03 0.  1.
        -12    1    3    3    0    0 -0.33855985907E+02  0.27416465226E+02  0.10817957150E+02  0.44887844058E+02  0.00000000000E+00 0.  1.
</event>
<event>
 7    1  0.2569312E-015  0.9000774E+02  0.7816164E-02  0.1186339E+00
        -11   -1    0    0    0    0  0.00000000000E+00  0.00000000000E+00  0.45593999997E+02  0.45594000000E+02  0.51100000000E-03 0.  1.
         11   -1    0    0    0    0 -0.00000000000E+00 -0.00000000000E+00 -0.45593999997E+02  0.45594000000E+02  0.51100000000E-03 0. -1.
    9900012    2    1    2    0    0  0.10885206664E+01  0.40106102729E+00 -0.21743705258E+00  0.90007743223E+02  0.90000004633E+02 0.  0.
         12    1    1    2    0    0 -0.10885206664E+01 -0.40106102729E+00  0.21743705258E+00  0.11802567775E+01  0.00000000000E+00 0. -1.
         11    1    3    3    0    0  0.13289403371E+02  0.36710124555E+02 -0.62228826991E+01  0.39534361714E+02  0.51100000000E-03 0. -1.
        -11    1    3    3    0    0  0.81082113462E+01  0.13272221857E+00  0.29999277575E+01  0.86464023289E+01  0.51100000000E-03 0.  1.
        -12    1    3    3    0    0 -0.20309094050E+02 -0.36441785746E+02  0.30055178890E+01  0.41826979180E+02  0.00000000000E+00 0.  1.
</event>
<event>
 7    1  0.2569312E-015  0.9000780E+02  0.7816164E-02  0.1186339E+00
        -11   -1    0    0    0    0  0.00000000000E+00  0.00000000000E+00  0.45593999997E+02  0.45594000000E+02  0.51100000000E-03 0. -1.
         11   -1    0    0    0    0 -0.00000000000E+00 -0.00000000000E+00 -0.45593999997E+02  0.45594000000E+02  0.51100000000E-03 0.  1.
    9900012    2    1    2    0    0  0.79815148178E+00  0.67787092004E+00  0.54435310786E+00  0.90007798713E+02  0.90000060856E+02 0.  0.
         12    1    1    2    0    0 -0.79815148178E+00 -0.67787092004E+00 -0.54435310786E+00  0.11802012871E+01  0.00000000000E+00 0. -1.
         11    1    3    3    0    0  0.28060502916E+02  0.23876931761E+02  0.52837502827E+01  0.37221199759E+02  0.51100000000E-03 0. -1.
        -11    1    3    3    0    0  0.75429826331E+01  0.17195776263E+01 -0.62625615113E+01  0.99535526904E+01  0.51100000000E-03 0.  1.
        -12    1    3    3    0    0 -0.34805334067E+02 -0.24918638467E+02  0.15231643364E+01  0.42833046263E+02  0.00000000000E+00 0.  1.
</event>
<event>
 7    1  0.2569312E-015  0.9000726E+02  0.7816164E-02  0.1186340E+00
        -11   -1    0    0    0    0  0.00000000000E+00  0.00000000000E+00  0.45593999997E+02  0.45594000000E+02  0.51100000000E-03 0. -1.
         11   -1    0    0    0    0 -0.00000000000E+00 -0.00000000000E+00 -0.45593999997E+02  0.45594000000E+02  0.51100000000E-03 0.  1.
    9900012    2    1    2    0    0  0.25863515166E+00  0.20515599325E+00 -0.11336565046E+01  0.90007255238E+02  0.89999510206E+02 0.  0.
         12    1    1    2    0    0 -0.25863515166E+00 -0.20515599325E+00  0.11336565046E+01  0.11807447623E+01  0.00000000000E+00 0. -1.
         11    1    3    3    0    0  0.21698475359E+00  0.75230200549E+01  0.69915250395E+01  0.10272503870E+02  0.51100000000E-03 0. -1.
        -11    1    3    3    0    0  0.28077614107E+02  0.23245961108E+02 -0.11234038585E+02  0.38143554436E+02  0.51100000000E-03 0.  1.
         12    1    3    3    0    0 -0.28035963709E+02 -0.30563825170E+02  0.31088570408E+01  0.41591196932E+02  0.00000000000E+00 0. -1.
</event>
<event>
 7    1  0.2569312E-015  0.9000779E+02  0.7816164E-02  0.1186339E+00
        -11   -1    0    0    0    0  0.00000000000E+00  0.00000000000E+00  0.45593999997E+02  0.45594000000E+02  0.51100000000E-03 0. -1.
         11   -1    0    0    0    0 -0.00000000000E+00 -0.00000000000E+00 -0.45593999997E+02  0.45594000000E+02  0.51100000000E-03 0.  1.
    9900012    2    1    2    0    0 -0.15238482599E+00 -0.43769334823E+00 -0.10854069810E+01  0.90007786072E+02  0.90000048048E+02 0.  0.
         12    1    1    2    0    0  0.15238482599E+00  0.43769334823E+00  0.10854069810E+01  0.11802139284E+01  0.00000000000E+00 0. -1.
         11    1    3    3    0    0  0.41657774051E+01 -0.72174737122E+01 -0.38428827676E+01  0.91767846439E+01  0.51100000000E-03 0. -1.
        -11    1    3    3    0    0  0.26603929636E+02 -0.21364000831E+02 -0.12477103293E+02  0.36329983629E+02  0.51100000000E-03 0.  1.
         12    1    3    3    0    0 -0.30922091867E+02  0.28143781195E+02  0.15234579080E+02  0.44501017799E+02  0.00000000000E+00 0. -1.
</event>
<event>
 7    1  0.2569312E-015  0.9000777E+02  0.7816164E-02  0.1186339E+00
        -11   -1    0    0    0    0  0.00000000000E+00  0.00000000000E+00  0.45593999997E+02  0.45594000000E+02  0.51100000000E-03 0. -1.
         11   -1    0    0    0    0 -0.00000000000E+00 -0.00000000000E+00 -0.45593999997E+02  0.45594000000E+02  0.51100000000E-03 0.  1.
    9900012    2    1    2    0    0 -0.52906363079E+00 -0.10138614730E+01 -0.29176234915E+00  0.90007767531E+02  0.90000029263E+02 0.  0.
         12    1    1    2    0    0  0.52906363079E+00  0.10138614730E+01  0.29176234915E+00  0.11802324687E+01  0.00000000000E+00 0. -1.
         11    1    3    3    0    0 -0.39565141907E+01  0.44704242185E+01  0.85727994047E+01  0.10446606489E+02  0.51100000000E-03 0. -1.
        -11    1    3    3    0    0 -0.10285576972E+02  0.33227136135E+02 -0.15286510996E+02  0.37993592724E+02  0.51100000000E-03 0.  1.
         12    1    3    3    0    0  0.13713027532E+02 -0.38711421826E+02  0.64219492425E+01  0.41567568319E+02  0.00000000000E+00 0. -1.
</event>
<event>
 7    1  0.2569312E-015  0.9000762E+02  0.7816164E-02  0.1186339E+00
        -11   -1    0    0    0    0  0.00000000000E+00  0.00000000000E+00  0.45593999997E+02  0.45594000000E+02  0.51100000000E-03 0.  1.
         11   -1    0    0    0    0 -0.00000000000E+00 -0.00000000000E+00 -0.45593999997E+02  0.45594000000E+02  0.51100000000E-03 0. -1.
    9900012    2    1    2    0    0 -0.48208166917E+00  0.25987242444E+00  0.10456340877E+01  0.90007624188E+02  0.89999884027E+02 0.  0.
         12    1    1    2    0    0  0.48208166917E+00 -0.25987242444E+00 -0.10456340877E+01  0.11803758123E+01  0.00000000000E+00 0. -1.
         11    1    3    3    0    0  0.91033164340E+01  0.33772452921E+02 -0.24064606686E+02  0.42456498226E+02  0.51100000000E-03 0. -1.
        -11    1    3    3    0    0 -0.80202444450E+01 -0.45238674200E+01  0.62814696066E-01  0.92083463954E+01  0.51100000000E-03 0.  1.
        -12    1    3    3    0    0 -0.15651536582E+01 -0.28988713076E+02  0.25047426077E+02  0.38342779567E+02  0.00000000000E+00 0.  1.
</event>
<event>
 7    1  0.2569312E-015  0.9000775E+02  0.7816164E-02  0.1186339E+00
        -11   -1    0    0    0    0  0.00000000000E+00  0.00000000000E+00  0.45593999997E+02  0.45594000000E+02  0.51100000000E-03 0. -1.
         11   -1    0    0    0    0 -0.00000000000E+00 -0.00000000000E+00 -0.45593999997E+02  0.45594000000E+02  0.51100000000E-03 0.  1.
    9900012    2    1    2    0    0  0.11629343582E+01 -0.13782318960E+00  0.14691820653E+00  0.90007747268E+02  0.90000008731E+02 0.  0.
         12    1    1    2    0    0 -0.11629343582E+01  0.13782318960E+00 -0.14691820653E+00  0.11802527325E+01  0.00000000000E+00 0. -1.
         11    1    3    3    0    0  0.64824497862E+01 -0.29106175928E+02  0.31270882685E+02  0.43209486650E+02  0.51100000000E-03 0. -1.
        -11    1    3    3    0    0 -0.37675001905E+01  0.73072136346E+01  0.72148911513E+00  0.82528768069E+01  0.51100000000E-03 0.  1.
        -12    1    3    3    0    0 -0.15520152375E+01  0.21661139104E+02 -0.31845453593E+02  0.38545383811E+02  0.00000000000E+00 0.  1.
</event>
<event>
 7    1  0.2569312E-015  0.9000775E+02  0.7816164E-02  0.1186339E+00
        -11   -1    0    0    0    0  0.00000000000E+00  0.00000000000E+00  0.45593999997E+02  0.45594000000E+02  0.51100000000E-03 0. -1.
         11   -1    0    0    0    0 -0.00000000000E+00 -0.00000000000E+00 -0.45593999997E+02  0.45594000000E+02  0.51100000000E-03 0.  1.
    9900012    2    1    2    0    0 -0.26762010732E+00 -0.11473685170E+01 -0.70132571151E-01  0.90007748496E+02  0.90000009976E+02 0.  0.
         12    1    1    2    0    0  0.26762010732E+00  0.11473685170E+01  0.70132571151E-01  0.11802515042E+01  0.00000000000E+00 0. -1.
         11    1    3    3    0    0 -0.11189661909E+02 -0.76670552467E+01  0.17670121121E+01  0.13678983949E+02  0.51100000000E-03 0. -1.
        -11    1    3    3    0    0 -0.22171437570E+02  0.25881913144E+02  0.11133835794E+02  0.35852592258E+02  0.51100000000E-03 0.  1.
         12    1    3    3    0    0  0.33093479372E+02 -0.19362226414E+02 -0.12970980477E+02  0.40476172289E+02  0.00000000000E+00 0. -1.
</event>
<event>
 7    1  0.2569312E-015  0.9000772E+02  0.7816164E-02  0.1186339E+00
        -11   -1    0    0    0    0  0.00000000000E+00  0.00000000000E+00  0.45593999997E+02  0.45594000000E+02  0.51100000000E-03 0.  1.
         11   -1    0    0    0    0 -0.00000000000E+00 -0.00000000000E+00 -0.45593999997E+02  0.45594000000E+02  0.51100000000E-03 0. -1.
    9900012    2    1    2    0    0  0.48653538765E+00 -0.56449456240E+00 -0.91525307322E+00  0.90007720803E+02  0.89999981918E+02 0.  0.
         12    1    1    2    0    0 -0.48653538765E+00  0.56449456240E+00  0.91525307322E+00  0.11802791968E+01  0.00000000000E+00 0. -1.
         11    1    3    3    0    0  0.23964431620E+01  0.28989690177E+02  0.28762198606E+02  0.40907323859E+02  0.51100000000E-03 0. -1.
        -11    1    3    3    0    0  0.10484458238E+01  0.40698075222E+01 -0.78489183944E+01  0.89032630050E+01  0.51100000000E-03 0.  1.
        -12    1    3    3    0    0 -0.29583535981E+01 -0.33623992261E+02 -0.21828533285E+02  0.40197133940E+02  0.00000000000E+00 0.  1.
</event>
<event>
 7    1  0.2569312E-015  0.9000775E+02  0.7816164E-02  0.1186339E+00
        -11   -1    0    0    0    0  0.00000000000E+00  0.00000000000E+00  0.45593999997E+02  0.45594000000E+02  0.51100000000E-03 0. -1.
         11   -1    0    0    0    0 -0.00000000000E+00 -0.00000000000E+00 -0.45593999997E+02  0.45594000000E+02  0.51100000000E-03 0.  1.
    9900012    2    1    2    0    0  0.63932227004E+00 -0.94186733675E+00  0.31166536165E+00  0.90007753270E+02  0.90000014814E+02 0.  0.
         12    1    1    2    0    0 -0.63932227004E+00  0.94186733675E+00 -0.31166536165E+00  0.11802467296E+01  0.00000000000E+00 0. -1.
         11    1    3    3    0    0 -0.32073042269E+02  0.13284642665E+02  0.13893718377E+02  0.37392474934E+02  0.51100000000E-03 0. -1.
        -11    1    3    3    0    0  0.69551968383E+00  0.31412595659E+00  0.10158695056E+02  0.10187320955E+02  0.51100000000E-03 0.  1.
        -12    1    3    3    0    0  0.32016844855E+02 -0.14540635959E+02 -0.23740748071E+02  0.42427957381E+02  0.00000000000E+00 0.  1.
</event>
<event>
 7    1  0.2569312E-015  0.9000772E+02  0.7816164E-02  0.1186339E+00
        -11   -1    0    0    0    0  0.00000000000E+00  0.00000000000E+00  0.45593999997E+02  0.45594000000E+02  0.51100000000E-03 0.  1.
         11   -1    0    0    0    0 -0.00000000000E+00 -0.00000000000E+00 -0.45593999997E+02  0.45594000000E+02  0.51100000000E-03 0. -1.
    9900012    2    1    2    0    0  0.64069589707E+00  0.98912195408E+00 -0.64863146945E-01  0.90007720075E+02  0.89999981180E+02 0.  0.
         12    1    1    2    0    0 -0.64069589707E+00 -0.98912195408E+00  0.64863146945E-01  0.11802799246E+01  0.00000000000E+00 0. -1.
         11    1    3    3    0    0  0.40552157657E+02  0.67199423428E+01 -0.51177999164E+01  0.41422542075E+02  0.51100000000E-03 0. -1.
        -11    1    3    3    0    0 -0.20143922009E+01 -0.99837379026E+01  0.89334253468E+00  0.10224033431E+02  0.51100000000E-03 0.  1.
        -12    1    3    3    0    0 -0.37897069559E+02  0.42529175138E+01  0.41595942347E+01  0.38361144570E+02  0.00000000000E+00 0.  1.
</event>
<event>
 7    1  0.2569312E-015  0.9000773E+02  0.7816164E-02  0.1186339E+00
        -11   -1    0    0    0    0  0.00000000000E+00  0.00000000000E+00  0.45593999997E+02  0.45594000000E+02  0.51100000000E-03 0.  1.
         11   -1    0    0    0    0 -0.00000000000E+00 -0.00000000000E+00 -0.45593999997E+02  0.45594000000E+02  0.51100000000E-03 0. -1.
    9900012    2    1    2    0    0  0.53799580864E+00  0.78688227426E-01  0.10475730956E+01  0.90007728541E+02  0.89999989757E+02 0.  0.
         12    1    1    2    0    0 -0.53799580864E+00 -0.78688227426E-01 -0.10475730956E+01  0.11802714594E+01  0.00000000000E+00 0. -1.
         11    1    3    3    0    0  0.15054113873E+02  0.31963159154E+01 -0.31887676378E+02  0.35407155844E+02  0.51100000000E-03 0. -1.
        -11    1    3    3    0    0  0.71723619565E+01  0.84425105636E+01 -0.26146813002E+01  0.11382237004E+02  0.51100000000E-03 0.  1.
        -12    1    3    3    0    0 -0.21688480021E+02 -0.11560138252E+02  0.35549930774E+02  0.43218335692E+02  0.00000000000E+00 0.  1.
</event>
<event>
 7    1  0.2569312E-015  0.9000782E+02  0.7816164E-02  0.1186339E+00
        -11   -1    0    0    0    0  0.00000000000E+00  0.00000000000E+00  0.45593999997E+02  0.45594000000E+02  0.51100000000E-03 0.  1.
         11   -1    0    0    0    0 -0.00000000000E+00 -0.00000000000E+00 -0.45593999997E+02  0.45594000000E+02  0.51100000000E-03 0. -1.
    9900012    2    1    2    0    0 -0.73179133274E+00 -0.58525512824E+00  0.71748540364E+00  0.90007818902E+02  0.90000081311E+02 0.  0.
         12    1    1    2    0    0  0.73179133274E+00  0.58525512824E+00 -0.71748540364E+00  0.11801810981E+01  0.00000000000E+00 0. -1.
         11    1    3    3    0    0 -0.30751995606E+02 -0.22832620254E+02 -0.16082917838E+02  0.41541232864E+02  0.51100000000E-03 0. -1.
        -11    1    3    3    0    0 -0.14869936640E+01  0.85301158863E+01 -0.25536222303E+01  0.90274588865E+01  0.51100000000E-03 0.  1.
        -12    1    3    3    0    0  0.31507197937E+02  0.13717249239E+02  0.19354025472E+02  0.39439127152E+02  0.00000000000E+00 0.  1.
</event>
<event>
 7    1  0.2569312E-015  0.9000757E+02  0.7816164E-02  0.1186339E+00
        -11   -1    0    0    0    0  0.00000000000E+00  0.00000000000E+00  0.45593999997E+02  0.45594000000E+02  0.51100000000E-03 0. -1.
         11   -1    0    0    0    0 -0.00000000000E+00 -0.00000000000E+00 -0.45593999997E+02  0.45594000000E+02  0.51100000000E-03 0.  1.
    9900012    2    1    2    0    0  0.62681946442E+00  0.10001323962E+01  0.15870465974E-01  0.90007568163E+02  0.89999827262E+02 0.  0.
         12    1    1    2    0    0 -0.62681946442E+00 -0.10001323962E+01 -0.15870465974E-01  0.11804318374E+01  0.00000000000E+00 0. -1.
         11    1    3    3    0    0  0.20125126737E+00 -0.73542939160E+01  0.29703351900E+01  0.79340426314E+01  0.51100000000E-03 0. -1.
        -11    1    3    3    0    0 -0.29036869700E+02 -0.86134120442E+01 -0.26883679477E+02  0.40497689953E+02  0.51100000000E-03 0.  1.
         12    1    3    3    0    0  0.29462437897E+02  0.16967838356E+02  0.23929214753E+02  0.41575835578E+02  0.00000000000E+00 0. -1.
</event>
<event>
 7    1  0.2569312E-015  0.9000763E+02  0.7816164E-02  0.1186339E+00
        -11   -1    0    0    0    0  0.00000000000E+00  0.00000000000E+00  0.45593999997E+02  0.45594000000E+02  0.51100000000E-03 0.  1.
         11   -1    0    0    0    0 -0.00000000000E+00 -0.00000000000E+00 -0.45593999997E+02  0.45594000000E+02  0.51100000000E-03 0. -1.
    9900012    2    1    2    0    0  0.49730649142E+00 -0.10455784935E+01 -0.22960007176E+00  0.90007633817E+02  0.89999893784E+02 0.  0.
         12    1    1    2    0    0 -0.49730649142E+00  0.10455784935E+01  0.22960007176E+00  0.11803661828E+01  0.00000000000E+00 0. -1.
         11    1    3    3    0    0 -0.10795321369E+02  0.54487804074E+01 -0.25361149214E+01  0.12355567593E+02  0.51100000000E-03 0. -1.
        -11    1    3    3    0    0 -0.20064219596E+02  0.67372663150E+01  0.27935010510E+02  0.35047517428E+02  0.51100000000E-03 0.  1.
         12    1    3    3    0    0  0.31356847457E+02 -0.13231625216E+02 -0.25628495661E+02  0.42604548796E+02  0.00000000000E+00 0. -1.
</event>
<event>
 7    1  0.2569312E-015  0.9000780E+02  0.7816164E-02  0.1186339E+00
        -11   -1    0    0    0    0  0.00000000000E+00  0.00000000000E+00  0.45593999997E+02  0.45594000000E+02  0.51100000000E-03 0. -1.
         11   -1    0    0    0    0 -0.00000000000E+00 -0.00000000000E+00 -0.45593999997E+02  0.45594000000E+02  0.51100000000E-03 0.  1.
    9900012    2    1    2    0    0 -0.46593126415E+00  0.38352070326E+00 -0.10142483949E+01  0.90007796679E+02  0.90000058795E+02 0.  0.
         12    1    1    2    0    0  0.46593126415E+00 -0.38352070326E+00  0.10142483949E+01  0.11802033212E+01  0.00000000000E+00 0. -1.
         11    1    3    3    0    0 -0.89407695805E+01  0.33495484770E+00  0.46652809125E+01  0.10090312269E+02  0.51100000000E-03 0. -1.
        -11    1    3    3    0    0 -0.26521906954E+02 -0.26805410720E+01 -0.27728767473E+02  0.38464027282E+02  0.51100000000E-03 0.  1.
         12    1    3    3    0    0  0.34996745270E+02  0.27291069276E+01  0.22049238165E+02  0.41453457128E+02  0.00000000000E+00 0. -1.
</event>
<event>
 7    1  0.2569312E-015  0.9000774E+02  0.7816164E-02  0.1186339E+00
        -11   -1    0    0    0    0  0.00000000000E+00  0.00000000000E+00  0.45593999997E+02  0.45594000000E+02  0.51100000000E-03 0. -1.
         11   -1    0    0    0    0 -0.00000000000E+00 -0.00000000000E+00 -0.45593999997E+02  0.45594000000E+02  0.51100000000E-03 0.  1.
    9900012    2    1    2    0    0 -0.78881773813E+00  0.25298519996E+00 -0.84070054502E+00  0.90007740562E+02  0.90000001937E+02 0.  0.
         12    1    1    2    0    0  0.78881773813E+00 -0.25298519996E+00  0.84070054502E+00  0.11802594383E+01  0.00000000000E+00 0. -1.
         11    1    3    3    0    0  0.42683740356E+01  0.84094499025E+01  0.85650066187E+00  0.94695014766E+01  0.51100000000E-03 0. -1.
        -11    1    3    3    0    0  0.19613842601E+02  0.29220390604E+02  0.38856971875E+01  0.35406675804E+02  0.51100000000E-03 0.  1.
         12    1    3    3    0    0 -0.24671034375E+02 -0.37376855306E+02 -0.55828983943E+01  0.45131563281E+02  0.00000000000E+00 0. -1.
</event>
<event>
 7    1  0.2569312E-015  0.9000715E+02  0.7816164E-02  0.1186340E+00
        -11   -1    0    0    0    0  0.00000000000E+00  0.00000000000E+00  0.45593999997E+02  0.45594000000E+02  0.51100000000E-03 0. -1.
         11   -1    0    0    0    0 -0.00000000000E+00 -0.00000000000E+00 -0.45593999997E+02  0.45594000000E+02  0.51100000000E-03 0.  1.
    9900012    2    1    2    0    0 -0.47695892302E+00 -0.10536588856E+01  0.23814222432E+00  0.90007153448E+02  0.89999407071E+02 0.  0.
         12    1    1    2    0    0  0.47695892302E+00  0.10536588856E+01 -0.23814222432E+00  0.11808465525E+01  0.00000000000E+00 0. -1.
         11    1    3    3    0    0  0.18202183402E+02 -0.32114431354E+02 -0.49542970315E+01  0.37245150572E+02  0.51100000000E-03 0. -1.
        -11    1    3    3    0    0 -0.47949071572E+01 -0.72020572564E+01 -0.60217591275E+01  0.10541458467E+02  0.51100000000E-03 0.  1.
        -12    1    3    3    0    0 -0.13884235168E+02  0.38262829725E+02  0.11214198383E+02  0.42220544408E+02  0.00000000000E+00 0.  1.
</event>
<event>
 7    1  0.2569312E-015  0.9000781E+02  0.7816164E-02  0.1186339E+00
        -11   -1    0    0    0    0  0.00000000000E+00  0.00000000000E+00  0.45593999997E+02  0.45594000000E+02  0.51100000000E-03 0.  1.
         11   -1    0    0    0    0 -0.00000000000E+00 -0.00000000000E+00 -0.45593999997E+02  0.45594000000E+02  0.51100000000E-03 0. -1.
    9900012    2    1    2    0    0  0.31199264326E+00  0.63886445519E+00  0.94200327407E+00  0.90007806215E+02  0.90000068457E+02 0.  0.
         12    1    1    2    0    0 -0.31199264326E+00 -0.63886445519E+00 -0.94200327407E+00  0.11801937849E+01  0.00000000000E+00 0. -1.
         11    1    3    3    0    0 -0.17858488287E+02  0.31026610671E+02 -0.55297557116E+01  0.36223671433E+02  0.51100000000E-03 0. -1.
        -11    1    3    3    0    0 -0.11171467767E+02 -0.57369090769E-01  0.19733325219E+01  0.11344559260E+02  0.51100000000E-03 0.  1.
        -12    1    3    3    0    0  0.29341948697E+02 -0.30330377125E+02  0.44984264637E+01  0.42439575523E+02  0.00000000000E+00 0.  1.
</event>
<event>
 7    1  0.2569312E-015  0.9000775E+02  0.7816164E-02  0.1186339E+00
        -11   -1    0    0    0    0  0.00000000000E+00  0.00000000000E+00  0.45593999997E+02  0.45594000000E+02  0.51100000000E-03 0.  1.
         11   -1    0    0    0    0 -0.00000000000E+00 -0.00000000000E+00 -0.45593999997E+02  0.45594000000E+02  0.51100000000E-03 0. -1.
    9900012    2    1    2    0    0 -0.54040112899E+00 -0.22578926727E+00  0.10246786093E+01  0.90007754082E+02  0.90000015636E+02 0.  0.
         12    1    1    2    0    0  0.54040112899E+00  0.22578926727E+00 -0.10246786093E+01  0.11802459175E+01  0.00000000000E+00 0. -1.
         11    1    3    3    0    0  0.29435474246E+00  0.84294105196E+01  0.65091894239E+01  0.10654161330E+02  0.51100000000E-03 0. -1.
        -11    1    3    3    0    0  0.32212894216E+01  0.23526258782E+02  0.25255288389E+02  0.34665417201E+02  0.51100000000E-03 0.  1.
         12    1    3    3    0    0 -0.40560452930E+01 -0.32181458569E+02 -0.30739799204E+02  0.44688175552E+02  0.00000000000E+00 0. -1.
</event>
<event>
 7    1  0.2569312E-015  0.9000766E+02  0.7816164E-02  0.1186339E+00
        -11   -1    0    0    0    0  0.00000000000E+00  0.00000000000E+00  0.45593999997E+02  0.45594000000E+02  0.51100000000E-03 0. -1.
         11   -1    0    0    0    0 -0.00000000000E+00 -0.00000000000E+00 -0.45593999997E+02  0.45594000000E+02  0.51100000000E-03 0.  1.
    9900012    2    1    2    0    0  0.96102658789E-01 -0.79449108005E+00 -0.86760718702E+00  0.90007663595E+02  0.89999923955E+02 0.  0.
         12    1    1    2    0    0 -0.96102658789E-01  0.79449108005E+00  0.86760718702E+00  0.11803364047E+01  0.00000000000E+00 0. -1.
         11    1    3    3    0    0 -0.41384370417E+01 -0.57548316597E+01 -0.12446777666E+02  0.14323652575E+02  0.51100000000E-03 0. -1.
        -11    1    3    3    0    0 -0.27829690025E+02  0.33010262753E+01 -0.16934026876E+02  0.32743696918E+02  0.51100000000E-03 0.  1.
         12    1    3    3    0    0  0.32064229725E+02  0.16593143044E+01  0.28513197355E+02  0.42940314102E+02  0.00000000000E+00 0. -1.
</event>
<event>
 7    1  0.2569312E-015  0.9000764E+02  0.7816164E-02  0.1186339E+00
        -11   -1    0    0    0    0  0.00000000000E+00  0.00000000000E+00  0.45593999997E+02  0.45594000000E+02  0.51100000000E-03 0. -1.
         11   -1    0    0    0    0 -0.00000000000E+00 -0.00000000000E+00 -0.45593999997E+02  0.45594000000E+02  0.51100000000E-03 0.  1.
    9900012    2    1    2    0    0 -0.95423384673E+00 -0.15214148435E+00 -0.67788974369E+00  0.90007642524E+02  0.89999902606E+02 0.  0.
         12    1    1    2    0    0  0.95423384673E+00  0.15214148435E+00  0.67788974369E+00  0.11803574756E+01  0.00000000000E+00 0. -1.
         11    1    3    3    0    0 -0.18780946339E+02  0.29524816362E+02  0.20849462077E+02  0.40732527490E+02  0.51100000000E-03 0. -1.
        -11    1    3    3    0    0  0.15535280967E+02 -0.11663779529E+01 -0.94974363541E+01  0.18245730728E+02  0.51100000000E-03 0.  1.
        -12    1    3    3    0    0  0.22914315253E+01 -0.28510579893E+02 -0.12029915467E+02  0.31029384306E+02  0.00000000000E+00 0.  1.
</event>
<event>
 7    1  0.2569312E-015  0.9000765E+02  0.7816164E-02  0.1186339E+00
        -11   -1    0    0    0    0  0.00000000000E+00  0.00000000000E+00  0.45593999997E+02  0.45594000000E+02  0.51100000000E-03 0. -1.
         11   -1    0    0    0    0 -0.00000000000E+00 -0.00000000000E+00 -0.45593999997E+02  0.45594000000E+02  0.51100000000E-03 0.  1.
    9900012    2    1    2    0    0 -0.87814792866E-01 -0.10241730163E+01 -0.58015601856E+00  0.90007651403E+02  0.89999911601E+02 0.  0.
         12    1    1    2    0    0  0.87814792866E-01  0.10241730163E+01  0.58015601856E+00  0.11803485973E+01  0.00000000000E+00 0. -1.
         11    1    3    3    0    0  0.59368636154E+01 -0.69896540766E+01  0.58375392266E+01  0.10870992511E+02  0.51100000000E-03 0. -1.
        -11    1    3    3    0    0 -0.74696813265E+01 -0.18238624619E+02 -0.35906040275E+02  0.40959581243E+02  0.51100000000E-03 0.  1.
         12    1    3    3    0    0  0.14450029182E+01  0.24204105679E+02  0.29488345030E+02  0.38177077648E+02  0.00000000000E+00 0. -1.
</event>
<event>
 7    1  0.2569312E-015  0.9000765E+02  0.7816164E-02  0.1186339E+00
        -11   -1    0    0    0    0  0.00000000000E+00  0.00000000000E+00  0.45593999997E+02  0.45594000000E+02  0.51100000000E-03 0.  1.
         11   -1    0    0    0    0 -0.00000000000E+00 -0.00000000000E+00 -0.45593999997E+02  0.45594000000E+02  0.51100000000E-03 0. -1.
    9900012    2    1    2    0    0  0.64100686914E+00 -0.96299635435E+00  0.23447645603E+00  0.90007647937E+02  0.89999908089E+02 0.  0.
         12    1    1    2    0    0 -0.64100686914E+00  0.96299635435E+00 -0.23447645603E+00  0.11803520633E+01  0.00000000000E+00 0. -1.
         11    1    3    3    0    0 -0.97547813410E+01  0.31011848137E+02 -0.40809305885E+01  0.32764988610E+02  0.51100000000E-03 0. -1.
        -11    1    3    3    0    0  0.12522544939E+01  0.11978006221E+02  0.25726364351E+01  0.12315000319E+02  0.51100000000E-03 0.  1.
        -12    1    3    3    0    0  0.91435337163E+01 -0.43952850713E+02  0.17427706094E+01  0.44927659008E+02  0.00000000000E+00 0.  1.
</event>
<event>
 7    1  0.2688175E-015  0.9000776E+02  0.7816164E-02  0.1186339E+00
        -11   -1    0    0    0    0  0.00000000000E+00  0.00000000000E+00  0.45593999997E+02  0.45594000000E+02  0.51100000000E-03 0. -1.
         11   -1    0    0    0    0 -0.00000000000E+00 -0.00000000000E+00 -0.45593999997E+02  0.45594000000E+02  0.51100000000E-03 0.  1.
    9900012    2    1    2    0    0 -0.81076504133E+00  0.59945265579E+00 -0.61342193072E+00  0.90007758540E+02  0.90000020153E+02 0.  0.
         12    1    1    2    0    0  0.81076504133E+00 -0.59945265579E+00  0.61342193072E+00  0.11802414600E+01  0.00000000000E+00 0. -1.
         11    1    3    3    0    0 -0.81752479937E+00 -0.12768241657E+02  0.40666918371E+02  0.42632084067E+02  0.51100000000E-03 0. -1.
        -11    1    3    3    0    0  0.34265526601E+01 -0.41261170563E+01 -0.81926873216E+01  0.97921514952E+01  0.51100000000E-03 0.  1.
        -12    1    3    3    0    0 -0.34197929020E+01  0.17493811369E+02 -0.33087652980E+02  0.37583522978E+02  0.00000000000E+00 0.  1.
</event>
<event>
 7    1  0.2569312E-015  0.9000772E+02  0.7816164E-02  0.1186339E+00
        -11   -1    0    0    0    0  0.00000000000E+00  0.00000000000E+00  0.45593999997E+02  0.45594000000E+02  0.51100000000E-03 0. -1.
         11   -1    0    0    0    0 -0.00000000000E+00 -0.00000000000E+00 -0.45593999997E+02  0.45594000000E+02  0.51100000000E-03 0.  1.
    9900012    2    1    2    0    0 -0.86921274634E-01  0.11145403827E+01 -0.37855654073E+00  0.90007720106E+02  0.89999981212E+02 0.  0.
         12    1    1    2    0    0  0.86921274634E-01 -0.11145403827E+01  0.37855654073E+00  0.11802798936E+01  0.00000000000E+00 0. -1.
         11    1    3    3    0    0 -0.36651221713E+01 -0.42152322297E+01 -0.79881032973E+01  0.97473636348E+01  0.51100000000E-03 0. -1.
        -11    1    3    3    0    0  0.20020123217E+02  0.34794396605E+02 -0.11138997682E+02  0.41659724415E+02  0.51100000000E-03 0.  1.
         12    1    3    3    0    0 -0.16441922321E+02 -0.29464623992E+02  0.18748544438E+02  0.38600632056E+02  0.00000000000E+00 0. -1.
</event>
<event>
 8    1  0.2569312E-015  0.9000782E+02  0.7816164E-02  0.1186339E+00
        -11   -1    0    0    0    0  0.00000000000E+00  0.00000000000E+00  0.45593999997E+02  0.45594000000E+02  0.51100000000E-03 0.  1.
         11   -1    0    0    0    0 -0.00000000000E+00 -0.00000000000E+00 -0.45593999997E+02  0.45594000000E+02  0.51100000000E-03 0. -1.
    9900012    2    1    2    0    0  0.13392651742E+00 -0.92191188459E+00  0.72454064901E+00  0.90007823324E+02  0.90000085792E+02 0.  0.
         23    2    3    3    0    0  0.23644349729E+02  0.11000262874E+02 -0.91348644988E+01  0.61863798729E+02  0.55350002587E+02 0.  0.
         12    1    1    2    0    0 -0.13392651742E+00  0.92191188459E+00 -0.72454064901E+00  0.11801766762E+01  0.00000000000E+00 0. -1.
         11    1    4    4    0    0  0.16685971131E+02 -0.18338088063E+02 -0.17764943320E+02  0.30500824872E+02  0.51100000000E-03 0. -1.
        -11    1    4    4    0    0  0.69583785972E+01  0.29338350937E+02  0.86300788214E+01  0.31362973857E+02  0.51100000000E-03 0.  1.
        -12    1    3    3    0    0 -0.23510423211E+02 -0.11922174758E+02  0.98594051478E+01  0.28144024595E+02  0.00000000000E+00 0.  1.
</event>
<event>
 7    1  0.2569312E-015  0.9000772E+02  0.7816164E-02  0.1186339E+00
        -11   -1    0    0    0    0  0.00000000000E+00  0.00000000000E+00  0.45593999997E+02  0.45594000000E+02  0.51100000000E-03 0. -1.
         11   -1    0    0    0    0 -0.00000000000E+00 -0.00000000000E+00 -0.45593999997E+02  0.45594000000E+02  0.51100000000E-03 0.  1.
    9900012    2    1    2    0    0  0.21491474916E+00 -0.11079563681E+01 -0.34541754476E+00  0.90007716583E+02  0.89999977642E+02 0.  0.
         12    1    1    2    0    0 -0.21491474916E+00  0.11079563681E+01  0.34541754476E+00  0.11802834165E+01  0.00000000000E+00 0. -1.
         11    1    3    3    0    0  0.97575495349E+01  0.47138303911E+01 -0.21272338974E+00  0.10838598682E+02  0.51100000000E-03 0. -1.
        -11    1    3    3    0    0  0.80222588007E+01  0.28512665338E+02 -0.20045484578E+02  0.35765208977E+02  0.51100000000E-03 0.  1.
         12    1    3    3    0    0 -0.17564893586E+02 -0.34334452097E+02  0.19912790423E+02  0.43403908925E+02  0.00000000000E+00 0. -1.
</event>
<event>
 7    1  0.2569312E-015  0.9000770E+02  0.7816164E-02  0.1186339E+00
        -11   -1    0    0    0    0  0.00000000000E+00  0.00000000000E+00  0.45593999997E+02  0.45594000000E+02  0.51100000000E-03 0. -1.
         11   -1    0    0    0    0 -0.00000000000E+00 -0.00000000000E+00 -0.45593999997E+02  0.45594000000E+02  0.51100000000E-03 0.  1.
    9900012    2    1    2    0    0  0.47501917060E+00  0.10796372400E+01  0.42970875313E-01  0.90007700767E+02  0.89999961617E+02 0.  0.
         12    1    1    2    0    0 -0.47501917060E+00 -0.10796372400E+01 -0.42970875313E-01  0.11802992326E+01  0.00000000000E+00 0. -1.
         11    1    3    3    0    0 -0.84288551705E+01 -0.43323995837E+01 -0.18793310119E+01  0.96616339690E+01  0.51100000000E-03 0. -1.
        -11    1    3    3    0    0 -0.66421028773E+01 -0.35470921951E+02 -0.35702396400E+01  0.36263624281E+02  0.51100000000E-03 0.  1.
         12    1    3    3    0    0  0.15545977218E+02  0.40882958774E+02  0.54925415273E+01  0.44082442517E+02  0.00000000000E+00 0. -1.
</event>
<event>
 7    1  0.2569312E-015  0.9000766E+02  0.7816164E-02  0.1186339E+00
        -11   -1    0    0    0    0  0.00000000000E+00  0.00000000000E+00  0.45593999997E+02  0.45594000000E+02  0.51100000000E-03 0. -1.
         11   -1    0    0    0    0 -0.00000000000E+00 -0.00000000000E+00 -0.45593999997E+02  0.45594000000E+02  0.51100000000E-03 0.  1.
    9900012    2    1    2    0    0 -0.68873826462E+00  0.74043292280E+00 -0.60877159574E+00  0.90007659301E+02  0.89999919604E+02 0.  0.
         12    1    1    2    0    0  0.68873826462E+00 -0.74043292280E+00  0.60877159574E+00  0.11803406992E+01  0.00000000000E+00 0. -1.
         11    1    3    3    0    0  0.59451048706E+01 -0.28448580517E+02  0.25987656166E+02  0.38987488745E+02  0.51100000000E-03 0. -1.
        -11    1    3    3    0    0 -0.42134261238E+01 -0.63838556498E+01 -0.27621487891E+01  0.81324067073E+01  0.51100000000E-03 0.  1.
        -12    1    3    3    0    0 -0.24204170114E+01  0.35572869090E+02 -0.23834278973E+02  0.42887763849E+02  0.00000000000E+00 0.  1.
</event>
<event>
 7    1  0.2569312E-015  0.9000773E+02  0.7816164E-02  0.1186339E+00
        -11   -1    0    0    0    0  0.00000000000E+00  0.00000000000E+00  0.45593999997E+02  0.45594000000E+02  0.51100000000E-03 0. -1.
         11   -1    0    0    0    0 -0.00000000000E+00 -0.00000000000E+00 -0.45593999997E+02  0.45594000000E+02  0.51100000000E-03 0.  1.
    9900012    2    1    2    0    0 -0.79340316137E+00 -0.16896654973E+00  0.85732633776E+00  0.90007725998E+02  0.89999987181E+02 0.  0.
         12    1    1    2    0    0  0.79340316137E+00  0.16896654973E+00 -0.85732633776E+00  0.11802740024E+01  0.00000000000E+00 0. -1.
         11    1    3    3    0    0  0.74506216560E+00 -0.13050145431E+01  0.35376555650E+02  0.35408457613E+02  0.51100000000E-03 0. -1.
        -11    1    3    3    0    0  0.32390619136E+01  0.21459380727E+01  0.95240542780E+01  0.10286116004E+02  0.51100000000E-03 0.  1.
        -12    1    3    3    0    0 -0.47775272406E+01 -0.10098900793E+01 -0.44043283590E+02  0.44313152381E+02  0.00000000000E+00 0.  1.
</event>
<event>
 7    1  0.2569312E-015  0.9000770E+02  0.7816164E-02  0.1186339E+00
        -11   -1    0    0    0    0  0.00000000000E+00  0.00000000000E+00  0.45593999997E+02  0.45594000000E+02  0.51100000000E-03 0.  1.
         11   -1    0    0    0    0 -0.00000000000E+00 -0.00000000000E+00 -0.45593999997E+02  0.45594000000E+02  0.51100000000E-03 0. -1.
    9900012    2    1    2    0    0  0.12138320170E+00  0.57844564591E-01  0.11726177653E+01  0.90007698217E+02  0.89999959034E+02 0.  0.
         12    1    1    2    0    0 -0.12138320170E+00 -0.57844564591E-01 -0.11726177653E+01  0.11803017829E+01  0.00000000000E+00 0. -1.
         11    1    3    3    0    0 -0.62596581867E+01  0.97218768209E+01 -0.54847915504E-01  0.11562924288E+02  0.51100000000E-03 0. -1.
        -11    1    3    3    0    0 -0.10722230452E+02  0.31721952750E+02  0.30743637018E+01  0.33625886227E+02  0.51100000000E-03 0.  1.
         12    1    3    3    0    0  0.17103271840E+02 -0.41385985006E+02 -0.18468980210E+01  0.44818887702E+02  0.00000000000E+00 0. -1.
</event>
<event>
 7    1  0.2569312E-015  0.9000778E+02  0.7816164E-02  0.1186339E+00
        -11   -1    0    0    0    0  0.00000000000E+00  0.00000000000E+00  0.45593999997E+02  0.45594000000E+02  0.51100000000E-03 0.  1.
         11   -1    0    0    0    0 -0.00000000000E+00 -0.00000000000E+00 -0.45593999997E+02  0.45594000000E+02  0.51100000000E-03 0. -1.
    9900012    2    1    2    0    0 -0.45906282055E+00 -0.14241128648E+00  0.10779156196E+01  0.90007778948E+02  0.90000040830E+02 0.  0.
         12    1    1    2    0    0  0.45906282055E+00  0.14241128648E+00 -0.10779156196E+01  0.11802210516E+01  0.00000000000E+00 0. -1.
         11    1    3    3    0    0 -0.63626172698E+00 -0.59251389905E+01  0.73732341783E+01  0.94803314051E+01  0.51100000000E-03 0. -1.
        -11    1    3    3    0    0  0.10630886151E+02 -0.34736163765E+02  0.62092454570E+01  0.36853378989E+02  0.51100000000E-03 0.  1.
         12    1    3    3    0    0 -0.10453687245E+02  0.40518891469E+02 -0.12504564016E+02  0.43674068555E+02  0.00000000000E+00 0. -1.
</event>
<event>
 7    1  0.2569312E-015  0.9000780E+02  0.7816164E-02  0.1186339E+00
        -11   -1    0    0    0    0  0.00000000000E+00  0.00000000000E+00  0.45593999997E+02  0.45594000000E+02  0.51100000000E-03 0. -1.
         11   -1    0    0    0    0 -0.00000000000E+00 -0.00000000000E+00 -0.45593999997E+02  0.45594000000E+02  0.51100000000E-03 0.  1.
    9900012    2    1    2    0    0 -0.82287890252E+00  0.35210353980E+00 -0.76926316918E+00  0.90007799841E+02  0.90000061999E+02 0.  0.
         12    1    1    2    0    0  0.82287890252E+00 -0.35210353980E+00  0.76926316918E+00  0.11802001586E+01  0.00000000000E+00 0. -1.
         11    1    3    3    0    0  0.31170454336E+02  0.19081979953E+01 -0.19101806882E+02  0.36607614912E+02  0.51100000000E-03 0. -1.
        -11    1    3    3    0    0 -0.15230433477E+01 -0.14764643198E+02 -0.11667905020E+01  0.14888779337E+02  0.51100000000E-03 0.  1.
        -12    1    3    3    0    0 -0.30470289891E+02  0.13208548742E+02  0.19499334214E+02  0.38511405593E+02  0.00000000000E+00 0.  1.
</event>
<event>
 7    1  0.2569312E-015  0.9000771E+02  0.7816164E-02  0.1186339E+00
        -11   -1    0    0    0    0  0.00000000000E+00  0.00000000000E+00  0.45593999997E+02  0.45594000000E+02  0.51100000000E-03 0. -1.
         11   -1    0    0    0    0 -0.00000000000E+00 -0.00000000000E+00 -0.45593999997E+02  0.45594000000E+02  0.51100000000E-03 0.  1.
    9900012    2    1    2    0    0 -0.29057157362E+00 -0.91159200568E+00 -0.69113238738E+00  0.90007705206E+02  0.89999966115E+02 0.  0.
         12    1    1    2    0    0  0.29057157362E+00  0.91159200568E+00  0.69113238738E+00  0.11802947942E+01  0.00000000000E+00 0. -1.
         11    1    3    3    0    0  0.35817222272E+01  0.25590483685E+01 -0.80845432142E+01  0.92052866283E+01  0.51100000000E-03 0. -1.
        -11    1    3    3    0    0  0.32478426400E+02 -0.18587932603E+01 -0.17283123144E+02  0.36837611754E+02  0.51100000000E-03 0.  1.
         12    1    3    3    0    0 -0.36350720201E+02 -0.16118471139E+01  0.24676533971E+02  0.43964806824E+02  0.00000000000E+00 0. -1.
</event>
<event>
 7    1  0.2569312E-015  0.9000774E+02  0.7816164E-02  0.1186339E+00
        -11   -1    0    0    0    0  0.00000000000E+00  0.00000000000E+00  0.45593999997E+02  0.45594000000E+02  0.51100000000E-03 0. -1.
         11   -1    0    0    0    0 -0.00000000000E+00 -0.00000000000E+00 -0.45593999997E+02  0.45594000000E+02  0.51100000000E-03 0.  1.
    9900012    2    1    2    0    0 -0.84967005656E+00 -0.74660714466E+00  0.33713984443E+00  0.90007735323E+02  0.89999996629E+02 0.  0.
         12    1    1    2    0    0  0.84967005656E+00  0.74660714466E+00 -0.33713984443E+00  0.11802646772E+01  0.00000000000E+00 0. -1.
         11    1    3    3    0    0 -0.49616842149E+01  0.33615780072E+02  0.69956470490E+01  0.34692622530E+02  0.51100000000E-03 0. -1.
        -11    1    3    3    0    0  0.95390976062E+00  0.98914790208E+01  0.19352709578E+01  0.10124059215E+02  0.51100000000E-03 0.  1.
        -12    1    3    3    0    0  0.31581043977E+01 -0.44253866238E+02 -0.85937781623E+01  0.45191053578E+02  0.00000000000E+00 0.  1.
</event>
<event>
 7    1  0.2569312E-015  0.9000783E+02  0.7816164E-02  0.1186339E+00
        -11   -1    0    0    0    0  0.00000000000E+00  0.00000000000E+00  0.45593999997E+02  0.45594000000E+02  0.51100000000E-03 0. -1.
         11   -1    0    0    0    0 -0.00000000000E+00 -0.00000000000E+00 -0.45593999997E+02  0.45594000000E+02  0.51100000000E-03 0.  1.
    9900012    2    1    2    0    0  0.12766226301E+00 -0.43025726971E+00 -0.10915041375E+01  0.90007830413E+02  0.90000092975E+02 0.  0.
         12    1    1    2    0    0 -0.12766226301E+00  0.43025726971E+00  0.10915041375E+01  0.11801695868E+01  0.00000000000E+00 0. -1.
         11    1    3    3    0    0 -0.57543129201E+01 -0.66421115586E+01  0.33986584069E+01  0.94223480283E+01  0.51100000000E-03 0. -1.
        -11    1    3    3    0    0 -0.18985139018E+02  0.21683100566E+02 -0.30105759888E+02  0.41676721709E+02  0.51100000000E-03 0.  1.
         12    1    3    3    0    0  0.24867114201E+02 -0.15471246277E+02  0.25615597344E+02  0.38908760676E+02  0.00000000000E+00 0. -1.
</event>
<event>
 7    1  0.2569312E-015  0.9000771E+02  0.7816164E-02  0.1186339E+00
        -11   -1    0    0    0    0  0.00000000000E+00  0.00000000000E+00  0.45593999997E+02  0.45594000000E+02  0.51100000000E-03 0.  1.
         11   -1    0    0    0    0 -0.00000000000E+00 -0.00000000000E+00 -0.45593999997E+02  0.45594000000E+02  0.51100000000E-03 0. -1.
    9900012    2    1    2    0    0 -0.17272421451E+00  0.42728918109E+00  0.10865835023E+01  0.90007714693E+02  0.89999975727E+02 0.  0.
         12    1    1    2    0    0  0.17272421451E+00 -0.42728918109E+00 -0.10865835023E+01  0.11802853070E+01  0.00000000000E+00 0. -1.
         11    1    3    3    0    0 -0.73604696305E+01  0.14723335039E+01 -0.11942032437E+02  0.14105191176E+02  0.51100000000E-03 0. -1.
        -11    1    3    3    0    0  0.25147057060E+02  0.29152146194E+02  0.20172461990E+00  0.38500166228E+02  0.51100000000E-03 0.  1.
         12    1    3    3    0    0 -0.17959311644E+02 -0.30197190517E+02  0.12826891319E+02  0.37402357289E+02  0.00000000000E+00 0. -1.
</event>
<event>
 7    1  0.2569312E-015  0.9000775E+02  0.7816164E-02  0.1186339E+00
        -11   -1    0    0    0    0  0.00000000000E+00  0.00000000000E+00  0.45593999997E+02  0.45594000000E+02  0.51100000000E-03 0. -1.
         11   -1    0    0    0    0 -0.00000000000E+00 -0.00000000000E+00 -0.45593999997E+02  0.45594000000E+02  0.51100000000E-03 0.  1.
    9900012    2    1    2    0    0  0.53812858444E+00  0.10498825709E+01 -0.34080451959E-01  0.90007746950E+02  0.90000008409E+02 0.  0.
         12    1    1    2    0    0 -0.53812858444E+00 -0.10498825709E+01  0.34080451959E-01  0.11802530505E+01  0.00000000000E+00 0. -1.
         11    1    3    3    0    0 -0.64569959157E+01 -0.16173994992E+02  0.27945009463E+02  0.32927412051E+02  0.51100000000E-03 0. -1.
        -11    1    3    3    0    0 -0.41733166067E+01 -0.98145866428E+01  0.60048142468E+01  0.12239300506E+02  0.51100000000E-03 0.  1.
        -12    1    3    3    0    0  0.11168441107E+02  0.27038464206E+02 -0.33983904161E+02  0.44841034393E+02  0.00000000000E+00 0.  1.
</event>
<event>
 7    1  0.2569312E-015  0.9000770E+02  0.7816164E-02  0.1186339E+00
        -11   -1    0    0    0    0  0.00000000000E+00  0.00000000000E+00  0.45593999997E+02  0.45594000000E+02  0.51100000000E-03 0.  1.
         11   -1    0    0    0    0 -0.00000000000E+00 -0.00000000000E+00 -0.45593999997E+02  0.45594000000E+02  0.51100000000E-03 0. -1.
    9900012    2    1    2    0    0  0.77686409325E+00  0.21903352180E-01 -0.88831527489E+00  0.90007702748E+02  0.89999963624E+02 0.  0.
         12    1    1    2    0    0 -0.77686409325E+00 -0.21903352180E-01  0.88831527489E+00  0.11802972523E+01  0.00000000000E+00 0. -1.
         11    1    3    3    0    0 -0.19529137991E+01 -0.13701680459E+02 -0.40611635742E+02  0.42905184741E+02  0.51100000000E-03 0. -1.
        -11    1    3    3    0    0 -0.26248250941E+01  0.89112944799E+01  0.31227737687E+01  0.98006424460E+01  0.51100000000E-03 0.  1.
        -12    1    3    3    0    0  0.53546029864E+01  0.48122893317E+01  0.36600546698E+02  0.37301875561E+02  0.00000000000E+00 0.  1.
</event>
<event>
 7    1  0.2569312E-015  0.9000785E+02  0.7816164E-02  0.1186339E+00
        -11   -1    0    0    0    0  0.00000000000E+00  0.00000000000E+00  0.45593999997E+02  0.45594000000E+02  0.51100000000E-03 0.  1.
         11   -1    0    0    0    0 -0.00000000000E+00 -0.00000000000E+00 -0.45593999997E+02  0.45594000000E+02  0.51100000000E-03 0. -1.
    9900012    2    1    2    0    0 -0.49890012501E-01 -0.11788375783E+01  0.24849379125E-01  0.90007845544E+02  0.90000108305E+02 0.  0.
         12    1    1    2    0    0  0.49890012501E-01  0.11788375783E+01 -0.24849379125E-01  0.11801544564E+01  0.00000000000E+00 0. -1.
         11    1    3    3    0    0  0.59424599612E+01  0.48473395361E+01 -0.89220006884E+01  0.11764847110E+02  0.51100000000E-03 0. -1.
        -11    1    3    3    0    0  0.13157193764E+02  0.24067584515E+01  0.39222462211E+02  0.41440388224E+02  0.51100000000E-03 0.  1.
         12    1    3    3    0    0 -0.19149543738E+02 -0.84329355659E+01 -0.30275612143E+02  0.36802610210E+02  0.00000000000E+00 0. -1.
</event>
<event>
 7    1  0.2569312E-015  0.9000775E+02  0.7816164E-02  0.1186339E+00
        -11   -1    0    0    0    0  0.00000000000E+00  0.00000000000E+00  0.45593999997E+02  0.45594000000E+02  0.51100000000E-03 0. -1.
         11   -1    0    0    0    0 -0.00000000000E+00 -0.00000000000E+00 -0.45593999997E+02  0.45594000000E+02  0.51100000000E-03 0.  1.
    9900012    2    1    2    0    0 -0.75903461408E+00  0.84358030775E+00  0.32438727792E+00  0.90007750710E+02  0.90000012219E+02 0.  0.
         12    1    1    2    0    0  0.75903461408E+00 -0.84358030775E+00 -0.32438727792E+00  0.11802492902E+01  0.00000000000E+00 0. -1.
         11    1    3    3    0    0 -0.78699713926E+01 -0.62808626444E+01 -0.25663900046E+01  0.10390959686E+02  0.51100000000E-03 0. -1.
        -11    1    3    3    0    0  0.39719670091E+02 -0.12313003594E+02  0.67728659977E+00  0.41589914246E+02  0.51100000000E-03 0.  1.
         12    1    3    3    0    0 -0.32608733312E+02  0.19437446546E+02  0.22134906828E+01  0.38026876778E+02  0.00000000000E+00 0. -1.
</event>
<event>
 7    1  0.2569312E-015  0.9000773E+02  0.7816164E-02  0.1186339E+00
        -11   -1    0    0    0    0  0.00000000000E+00  0.00000000000E+00  0.45593999997E+02  0.45594000000E+02  0.51100000000E-03 0. -1.
         11   -1    0    0    0    0 -0.00000000000E+00 -0.00000000000E+00 -0.45593999997E+02  0.45594000000E+02  0.51100000000E-03 0.  1.
    9900012    2    1    2    0    0 -0.52895212702E+00  0.18936222526E+00 -0.10379701315E+01  0.90007732912E+02  0.89999994186E+02 0.  0.
         12    1    1    2    0    0  0.52895212702E+00 -0.18936222526E+00  0.10379701315E+01  0.11802670880E+01  0.00000000000E+00 0. -1.
         11    1    3    3    0    0  0.10603699981E+02 -0.32535858254E+02  0.27224647122E+02  0.43728731251E+02  0.51100000000E-03 0. -1.
        -11    1    3    3    0    0 -0.57764900225E+01  0.36857918381E+01 -0.76324420269E+01  0.10257049771E+02  0.51100000000E-03 0.  1.
        -12    1    3    3    0    0 -0.53561620860E+01  0.29039428641E+02 -0.20630175227E+02  0.36021951890E+02  0.00000000000E+00 0.  1.
</event>
<event>
 7    1  0.2569312E-015  0.9000774E+02  0.7816164E-02  0.1186339E+00
        -11   -1    0    0    0    0  0.00000000000E+00  0.00000000000E+00  0.45593999997E+02  0.45594000000E+02  0.51100000000E-03 0.  1.
         11   -1    0    0    0    0 -0.00000000000E+00 -0.00000000000E+00 -0.45593999997E+02  0.45594000000E+02  0.51100000000E-03 0. -1.
    9900012    2    1    2    0    0  0.35756121462E+00  0.89685362278E+00  0.67884072804E+00  0.90007736819E+02  0.89999998145E+02 0.  0.
         12    1    1    2    0    0 -0.35756121462E+00 -0.89685362278E+00 -0.67884072804E+00  0.11802631812E+01  0.00000000000E+00 0. -1.
         11    1    3    3    0    0  0.16965640741E+01 -0.62344339479E+01 -0.52175517231E+01  0.83047782965E+01  0.51100000000E-03 0. -1.
        -11    1    3    3    0    0 -0.37350278902E+02 -0.60215755806E+01  0.17448287010E+02  0.41662278219E+02  0.51100000000E-03 0.  1.
         12    1    3    3    0    0  0.36011276042E+02  0.13152863151E+02 -0.11551894559E+02  0.40040680304E+02  0.00000000000E+00 0. -1.
</event>
<event>
 7    1  0.2569312E-015  0.9000783E+02  0.7816164E-02  0.1186339E+00
        -11   -1    0    0    0    0  0.00000000000E+00  0.00000000000E+00  0.45593999997E+02  0.45594000000E+02  0.51100000000E-03 0. -1.
         11   -1    0    0    0    0 -0.00000000000E+00 -0.00000000000E+00 -0.45593999997E+02  0.45594000000E+02  0.51100000000E-03 0.  1.
    9900012    2    1    2    0    0  0.30564178651E+00  0.17938103367E+00 -0.11257000321E+01  0.90007832631E+02  0.90000095222E+02 0.  0.
         12    1    1    2    0    0 -0.30564178651E+00 -0.17938103367E+00  0.11257000321E+01  0.11801673691E+01  0.00000000000E+00 0. -1.
         11    1    3    3    0    0 -0.18925555803E+02 -0.31468184033E+02 -0.19001222035E+02  0.41345733854E+02  0.51100000000E-03 0. -1.
        -11    1    3    3    0    0 -0.32535867094E+00 -0.43836385101E+00  0.10319326721E+02  0.10333756595E+02  0.51100000000E-03 0.  1.
        -12    1    3    3    0    0  0.19556556261E+02  0.32085928917E+02  0.75561952822E+01  0.38328342182E+02  0.00000000000E+00 0.  1.
</event>
<event>
 7    1  0.2569312E-015  0.9000778E+02  0.7816164E-02  0.1186339E+00
        -11   -1    0    0    0    0  0.00000000000E+00  0.00000000000E+00  0.45593999997E+02  0.45594000000E+02  0.51100000000E-03 0.  1.
         11   -1    0    0    0    0 -0.00000000000E+00 -0.00000000000E+00 -0.45593999997E+02  0.45594000000E+02  0.51100000000E-03 0. -1.
    9900012    2    1    2    0    0 -0.13263268630E+00  0.77078860222E+00  0.88386850531E+00  0.90007775431E+02  0.90000037267E+02 0.  0.
         12    1    1    2    0    0  0.13263268630E+00 -0.77078860222E+00 -0.88386850531E+00  0.11802245691E+01  0.00000000000E+00 0. -1.
         11    1    3    3    0    0 -0.31517056575E+01  0.35060567663E+01  0.78276516114E+01  0.91377137519E+01  0.51100000000E-03 0. -1.
        -11    1    3    3    0    0  0.27599534561E+02  0.24418969517E+02  0.13108180718E+02  0.39113230271E+02  0.51100000000E-03 0.  1.
         12    1    3    3    0    0 -0.24580461590E+02 -0.27154237681E+02 -0.20051963824E+02  0.41756831408E+02  0.00000000000E+00 0. -1.
</event>
<event>
 7    1  0.2569312E-015  0.9000767E+02  0.7816164E-02  0.1186339E+00
        -11   -1    0    0    0    0  0.00000000000E+00  0.00000000000E+00  0.45593999997E+02  0.45594000000E+02  0.51100000000E-03 0.  1.
         11   -1    0    0    0    0 -0.00000000000E+00 -0.00000000000E+00 -0.45593999997E+02  0.45594000000E+02  0.51100000000E-03 0. -1.
    9900012    2    1    2    0    0  0.64809000457E+00 -0.90794356417E+00 -0.38574825219E+00  0.90007667893E+02  0.89999928309E+02 0.  0.
         12    1    1    2    0    0 -0.64809000457E+00  0.90794356417E+00  0.38574825219E+00  0.11803321074E+01  0.00000000000E+00 0. -1.
         11    1    3    3    0    0 -0.35863417812E+02 -0.10359681951E+02 -0.45433326903E+01  0.37605180753E+02  0.51100000000E-03 0. -1.
        -11    1    3    3    0    0 -0.13815053107E+01 -0.77876235620E+01 -0.55415130777E+01  0.96573290882E+01  0.51100000000E-03 0.  1.
        -12    1    3    3    0    0  0.37893013127E+02  0.17239361949E+02  0.96990975159E+01  0.42745158052E+02  0.00000000000E+00 0.  1.
</event>
<event>
 7    1  0.2569312E-015  0.9000774E+02  0.7816164E-02  0.1186339E+00
        -11   -1    0    0    0    0  0.00000000000E+00  0.00000000000E+00  0.45593999997E+02  0.45594000000E+02  0.51100000000E-03 0. -1.
         11   -1    0    0    0    0 -0.00000000000E+00 -0.00000000000E+00 -0.45593999997E+02  0.45594000000E+02  0.51100000000E-03 0.  1.
    9900012    2    1    2    0    0  0.53317946816E+00 -0.10225722021E+01 -0.25114350939E+00  0.90007742691E+02  0.90000004094E+02 0.  0.
         12    1    1    2    0    0 -0.53317946816E+00  0.10225722021E+01  0.25114350939E+00  0.11802573093E+01  0.00000000000E+00 0. -1.
         11    1    3    3    0    0 -0.31906579008E+02 -0.14119297050E+02  0.24891835275E+02  0.42860095623E+02  0.51100000000E-03 0. -1.
        -11    1    3    3    0    0  0.24396417570E+01  0.90888172468E+01 -0.80751194603E+01  0.12400242151E+02  0.51100000000E-03 0.  1.
        -12    1    3    3    0    0  0.30000116719E+02  0.40079076012E+01 -0.17067859324E+02  0.34747404916E+02  0.00000000000E+00 0.  1.
</event>
<event>
 7    1  0.2569312E-015  0.9000800E+02  0.7816164E-02  0.1186339E+00
        -11   -1    0    0    0    0  0.00000000000E+00  0.00000000000E+00  0.45593999997E+02  0.45594000000E+02  0.51100000000E-03 0. -1.
         11   -1    0    0    0    0 -0.00000000000E+00 -0.00000000000E+00 -0.45593999997E+02  0.45594000000E+02  0.51100000000E-03 0.  1.
    9900012    2    1    2    0    0  0.41024798727E+00  0.42077356327E+00 -0.10232484418E+01  0.90008003739E+02  0.90000268588E+02 0.  0.
         12    1    1    2    0    0 -0.41024798727E+00 -0.42077356327E+00  0.10232484418E+01  0.11799962611E+01  0.00000000000E+00 0. -1.
         11    1    3    3    0    0 -0.97530355806E+01  0.25943847763E+01 -0.37037449057E+01  0.10750361017E+02  0.51100000000E-03 0. -1.
        -11    1    3    3    0    0  0.17740433970E+02 -0.35449713163E+02 -0.12974820955E+02  0.41710324140E+02  0.51100000000E-03 0.  1.
         12    1    3    3    0    0 -0.75771504018E+01  0.33276101950E+02  0.15655317419E+02  0.37547318582E+02  0.00000000000E+00 0. -1.
</event>
<event>
 7    1  0.2569312E-015  0.9000770E+02  0.7816164E-02  0.1186339E+00
        -11   -1    0    0    0    0  0.00000000000E+00  0.00000000000E+00  0.45593999997E+02  0.45594000000E+02  0.51100000000E-03 0. -1.
         11   -1    0    0    0    0 -0.00000000000E+00 -0.00000000000E+00 -0.45593999997E+02  0.45594000000E+02  0.51100000000E-03 0.  1.
    9900012    2    1    2    0    0  0.60946720844E+00  0.34625334498E-02 -0.10107618037E+01  0.90007702711E+02  0.89999963586E+02 0.  0.
         12    1    1    2    0    0 -0.60946720844E+00 -0.34625334498E-02  0.10107618037E+01  0.11802972893E+01  0.00000000000E+00 0. -1.
         11    1    3    3    0    0 -0.11884814219E+02  0.38439378937E+02  0.12016705742E+02  0.41990902339E+02  0.51100000000E-03 0. -1.
        -11    1    3    3    0    0 -0.44035099129E+01 -0.16973227795E+02  0.48337378934E+00  0.17541807541E+02  0.51100000000E-03 0.  1.
        -12    1    3    3    0    0  0.16897791340E+02 -0.21462688608E+02 -0.13510841335E+02  0.30474992831E+02  0.00000000000E+00 0.  1.
</event>
<event>
 7    1  0.2569312E-015  0.9000774E+02  0.7816164E-02  0.1186339E+00
        -11   -1    0    0    0    0  0.00000000000E+00  0.00000000000E+00  0.45593999997E+02  0.45594000000E+02  0.51100000000E-03 0. -1.
         11   -1    0    0    0    0 -0.00000000000E+00 -0.00000000000E+00 -0.45593999997E+02  0.45594000000E+02  0.51100000000E-03 0.  1.
    9900012    2    1    2    0    0 -0.30866664658E+00 -0.11382706436E+01  0.45701993818E-01  0.90007735695E+02  0.89999997006E+02 0.  0.
         12    1    1    2    0    0  0.30866664658E+00  0.11382706436E+01 -0.45701993818E-01  0.11802643047E+01  0.00000000000E+00 0. -1.
         11    1    3    3    0    0 -0.49697946963E+01 -0.36016822752E+01 -0.71825649340E+01  0.94477623715E+01  0.51100000000E-03 0. -1.
        -11    1    3    3    0    0 -0.37271796393E+01 -0.21693068407E+02 -0.28881461963E+02  0.36312806699E+02  0.51100000000E-03 0.  1.
         12    1    3    3    0    0  0.83883076891E+01  0.24156480039E+02  0.36109728891E+02  0.44247166625E+02  0.00000000000E+00 0. -1.
</event>
<event>
 7    1  0.2569312E-015  0.9000766E+02  0.7816164E-02  0.1186339E+00
        -11   -1    0    0    0    0  0.00000000000E+00  0.00000000000E+00  0.45593999997E+02  0.45594000000E+02  0.51100000000E-03 0.  1.
         11   -1    0    0    0    0 -0.00000000000E+00 -0.00000000000E+00 -0.45593999997E+02  0.45594000000E+02  0.51100000000E-03 0. -1.
    9900012    2    1    2    0    0 -0.21078457686E+00  0.98865929308E+00  0.60936932646E+00  0.90007657545E+02  0.89999917824E+02 0.  0.
         12    1    1    2    0    0  0.21078457686E+00 -0.98865929308E+00 -0.60936932646E+00  0.11803424553E+01  0.00000000000E+00 0. -1.
         11    1    3    3    0    0 -0.27024885772E+02 -0.85761506247E+01 -0.21081961193E+02  0.35331910485E+02  0.51100000000E-03 0. -1.
        -11    1    3    3    0    0 -0.71240006909E+01  0.67045870400E+01 -0.53840723445E+01  0.11166517295E+02  0.51100000000E-03 0.  1.
        -12    1    3    3    0    0  0.33938101886E+02  0.28602228778E+01  0.27075402864E+02  0.43509229765E+02  0.00000000000E+00 0.  1.
</event>
<event>
 7    1  0.2569312E-015  0.9000780E+02  0.7816164E-02  0.1186339E+00
        -11   -1    0    0    0    0  0.00000000000E+00  0.00000000000E+00  0.45593999997E+02  0.45594000000E+02  0.51100000000E-03 0. -1.
         11   -1    0    0    0    0 -0.00000000000E+00 -0.00000000000E+00 -0.45593999997E+02  0.45594000000E+02  0.51100000000E-03 0.  1.
    9900012    2    1    2    0    0  0.17713087684E-03  0.10657630641E+01  0.50696248371E+00  0.90007804296E+02  0.90000066512E+02 0.  0.
         12    1    1    2    0    0 -0.17713087684E-03 -0.10657630641E+01 -0.50696248371E+00  0.11801957042E+01  0.00000000000E+00 0. -1.
         11    1    3    3    0    0  0.56953588552E+01 -0.65322977536E+01 -0.66252130954E+00  0.86917754905E+01  0.51100000000E-03 0. -1.
        -11    1    3    3    0    0 -0.23310468225E+02  0.24553639881E+02  0.28780142568E+02  0.44435973791E+02  0.51100000000E-03 0.  1.
         12    1    3    3    0    0  0.17615286501E+02 -0.16955579063E+02 -0.27610658775E+02  0.36880055014E+02  0.00000000000E+00 0. -1.
</event>
<event>
 7    1  0.2569312E-015  0.9000768E+02  0.7816164E-02  0.1186339E+00
        -11   -1    0    0    0    0  0.00000000000E+00  0.00000000000E+00  0.45593999997E+02  0.45594000000E+02  0.51100000000E-03 0.  1.
         11   -1    0    0    0    0 -0.00000000000E+00 -0.00000000000E+00 -0.45593999997E+02  0.45594000000E+02  0.51100000000E-03 0. -1.
    9900012    2    1    2    0    0 -0.30265142791E+00 -0.10282646868E+01  0.49419077062E+00  0.90007681962E+02  0.89999942564E+02 0.  0.
         12    1    1    2    0    0  0.30265142791E+00  0.10282646868E+01 -0.49419077062E+00  0.11803180379E+01  0.00000000000E+00 0. -1.
         11    1    3    3    0    0  0.22707748437E+02 -0.27458096931E+02 -0.15658063737E+02  0.38919967708E+02  0.51100000000E-03 0. -1.
        -11    1    3    3    0    0  0.44004307504E+01 -0.31554365232E+01  0.84363973617E+01  0.10024638205E+02  0.51100000000E-03 0.  1.
        -12    1    3    3    0    0 -0.27410830615E+02  0.29585268768E+02  0.77158571458E+01  0.41063076049E+02  0.00000000000E+00 0.  1.
</event>
<event>
 7    1  0.2569312E-015  0.9000774E+02  0.7816164E-02  0.1186339E+00
        -11   -1    0    0    0    0  0.00000000000E+00  0.00000000000E+00  0.45593999997E+02  0.45594000000E+02  0.51100000000E-03 0.  1.
         11   -1    0    0    0    0 -0.00000000000E+00 -0.00000000000E+00 -0.45593999997E+02  0.45594000000E+02  0.51100000000E-03 0. -1.
    9900012    2    1    2    0    0 -0.82641326937E+00 -0.31603854008E-01  0.84206159767E+00  0.90007735017E+02  0.89999996319E+02 0.  0.
         12    1    1    2    0    0  0.82641326937E+00  0.31603854008E-01 -0.84206159767E+00  0.11802649828E+01  0.00000000000E+00 0. -1.
         11    1    3    3    0    0  0.27217274501E+02 -0.20101897564E+02  0.20830106518E+02  0.39733608630E+02  0.51100000000E-03 0. -1.
        -11    1    3    3    0    0  0.14742652244E+01 -0.52689960117E+01 -0.77607106632E+01  0.94954940463E+01  0.51100000000E-03 0.  1.
        -12    1    3    3    0    0 -0.29517952995E+02  0.25339289721E+02 -0.12227334257E+02  0.40778632341E+02  0.00000000000E+00 0.  1.
</event>
<event>
 7    1  0.2569312E-015  0.9000772E+02  0.7816164E-02  0.1186339E+00
        -11   -1    0    0    0    0  0.00000000000E+00  0.00000000000E+00  0.45593999997E+02  0.45594000000E+02  0.51100000000E-03 0.  1.
         11   -1    0    0    0    0 -0.00000000000E+00 -0.00000000000E+00 -0.45593999997E+02  0.45594000000E+02  0.51100000000E-03 0. -1.
    9900012    2    1    2    0    0 -0.37845111964E+00 -0.51215662104E-01  0.11167881895E+01  0.90007718612E+02  0.89999979698E+02 0.  0.
         12    1    1    2    0    0  0.37845111964E+00  0.51215662104E-01 -0.11167881895E+01  0.11802813878E+01  0.00000000000E+00 0. -1.
         11    1    3    3    0    0  0.26334375856E+01 -0.15243672679E+00 -0.82147073032E+01  0.86278413761E+01  0.51100000000E-03 0. -1.
        -11    1    3    3    0    0  0.11212708200E+02  0.31119167790E+02  0.27232505147E+02  0.42845498783E+02  0.51100000000E-03 0.  1.
         12    1    3    3    0    0 -0.14224596905E+02 -0.31017946725E+02 -0.17901009654E+02  0.38534378453E+02  0.00000000000E+00 0. -1.
</event>
<event>
 7    1  0.2569312E-015  0.9000775E+02  0.7816164E-02  0.1186339E+00
        -11   -1    0    0    0    0  0.00000000000E+00  0.00000000000E+00  0.45593999997E+02  0.45594000000E+02  0.51100000000E-03 0.  1.
         11   -1    0    0    0    0 -0.00000000000E+00 -0.00000000000E+00 -0.45593999997E+02  0.45594000000E+02  0.51100000000E-03 0. -1.
    9900012    2    1    2    0    0 -0.31971909746E+00 -0.98753976698E+00  0.56172783522E+00  0.90007748648E+02  0.90000010130E+02 0.  0.
         12    1    1    2    0    0  0.31971909746E+00  0.98753976698E+00 -0.56172783522E+00  0.11802513518E+01  0.00000000000E+00 0. -1.
         11    1    3    3    0    0  0.14563787107E+02 -0.19440318454E+02 -0.26755872582E+02  0.36137329652E+02  0.51100000000E-03 0. -1.
        -11    1    3    3    0    0 -0.20819032414E+00  0.50527956809E+01 -0.10216744944E+02  0.11399823021E+02  0.51100000000E-03 0.  1.
        -12    1    3    3    0    0 -0.14675315880E+02  0.13399983006E+02  0.37534345361E+02  0.42470595975E+02  0.00000000000E+00 0.  1.
</event>
<event>
 7    1  0.2569312E-015  0.9000661E+02  0.7816164E-02  0.1186341E+00
        -11   -1    0    0    0    0  0.00000000000E+00  0.00000000000E+00  0.45593999997E+02  0.45594000000E+02  0.51100000000E-03 0.  1.
         11   -1    0    0    0    0 -0.00000000000E+00 -0.00000000000E+00 -0.45593999997E+02  0.45594000000E+02  0.51100000000E-03 0. -1.
    9900012    2    1    2    0    0 -0.36669997445E-01 -0.44692239656E+00  0.10929784894E+01  0.90006608323E+02  0.89998854745E+02 0.  0.
         12    1    1    2    0    0  0.36669997445E-01  0.44692239656E+00 -0.10929784894E+01  0.11813916775E+01  0.00000000000E+00 0. -1.
         11    1    3    3    0    0 -0.10970188210E+01 -0.38977205543E+01  0.84349800968E+01  0.93565252795E+01  0.51100000000E-03 0. -1.
        -11    1    3    3    0    0 -0.23585294094E+02 -0.28661382821E+02  0.68694981683E+01  0.37748257815E+02  0.51100000000E-03 0.  1.
         12    1    3    3    0    0  0.24645642918E+02  0.32112180979E+02 -0.14211499776E+02  0.42901825228E+02  0.00000000000E+00 0. -1.
</event>
<event>
 7    1  0.2569312E-015  0.9000778E+02  0.7816164E-02  0.1186339E+00
        -11   -1    0    0    0    0  0.00000000000E+00  0.00000000000E+00  0.45593999997E+02  0.45594000000E+02  0.51100000000E-03 0.  1.
         11   -1    0    0    0    0 -0.00000000000E+00 -0.00000000000E+00 -0.45593999997E+02  0.45594000000E+02  0.51100000000E-03 0. -1.
    9900012    2    1    2    0    0  0.10374013087E+01 -0.52621148855E+00 -0.19953658684E+00  0.90007781861E+02  0.90000043782E+02 0.  0.
         12    1    1    2    0    0 -0.10374013087E+01  0.52621148855E+00  0.19953658684E+00  0.11802181389E+01  0.00000000000E+00 0. -1.
         11    1    3    3    0    0  0.20631846504E+01  0.85034133860E+00  0.87202324767E+01  0.90012369151E+01  0.51100000000E-03 0. -1.
        -11    1    3    3    0    0 -0.12212919773E+02  0.33066160976E+02  0.14243314132E+02  0.38018395663E+02  0.51100000000E-03 0.  1.
         12    1    3    3    0    0  0.11187136431E+02 -0.34442713803E+02 -0.23163083196E+02  0.42988149283E+02  0.00000000000E+00 0. -1.
</event>
<event>
 7    1  0.2569312E-015  0.9000783E+02  0.7816164E-02  0.1186339E+00
        -11   -1    0    0    0    0  0.00000000000E+00  0.00000000000E+00  0.45593999997E+02  0.45594000000E+02  0.51100000000E-03 0. -1.
         11   -1    0    0    0    0 -0.00000000000E+00 -0.00000000000E+00 -0.45593999997E+02  0.45594000000E+02  0.51100000000E-03 0.  1.
    9900012    2    1    2    0    0  0.98213249336E+00  0.54444465498E+00 -0.36304835447E+00  0.90007826994E+02  0.90000089510E+02 0.  0.
         12    1    1    2    0    0 -0.98213249336E+00 -0.54444465498E+00  0.36304835447E+00  0.11801730062E+01  0.00000000000E+00 0. -1.
         11    1    3    3    0    0 -0.12910544281E+02 -0.11736072592E+00 -0.54656812558E+01  0.14020328064E+02  0.51100000000E-03 0. -1.
        -11    1    3    3    0    0  0.32490533417E+02 -0.14343029859E+02 -0.20466177561E+02  0.40990507334E+02  0.51100000000E-03 0.  1.
         12    1    3    3    0    0 -0.18597856642E+02  0.15004835240E+02  0.25568810463E+02  0.34996991596E+02  0.00000000000E+00 0. -1.
</event>
<event>
 7    1  0.2569312E-015  0.9000754E+02  0.7816164E-02  0.1186339E+00
        -11   -1    0    0    0    0  0.00000000000E+00  0.00000000000E+00  0.45593999997E+02  0.45594000000E+02  0.51100000000E-03 0. -1.
         11   -1    0    0    0    0 -0.00000000000E+00 -0.00000000000E+00 -0.45593999997E+02  0.45594000000E+02  0.51100000000E-03 0.  1.
    9900012    2    1    2    0    0 -0.38627354298E+00  0.52627810240E+00 -0.98352070294E+00  0.90007538707E+02  0.89999797418E+02 0.  0.
         12    1    1    2    0    0  0.38627354298E+00 -0.52627810240E+00  0.98352070294E+00  0.11804612930E+01  0.00000000000E+00 0. -1.
         11    1    3    3    0    0 -0.22532330918E+02 -0.16874548011E+02  0.22935766862E+02  0.36311233922E+02  0.51100000000E-03 0. -1.
        -11    1    3    3    0    0 -0.10395102204E+02  0.27051714037E+01 -0.39704415974E-01  0.10741400228E+02  0.51100000000E-03 0.  1.
        -12    1    3    3    0    0  0.32541159579E+02  0.14695654710E+02 -0.23879583149E+02  0.42954904556E+02  0.00000000000E+00 0.  1.
</event>
<event>
 7    1  0.2569312E-015  0.9000773E+02  0.7816164E-02  0.1186339E+00
        -11   -1    0    0    0    0  0.00000000000E+00  0.00000000000E+00  0.45593999997E+02  0.45594000000E+02  0.51100000000E-03 0.  1.
         11   -1    0    0    0    0 -0.00000000000E+00 -0.00000000000E+00 -0.45593999997E+02  0.45594000000E+02  0.51100000000E-03 0. -1.
    9900012    2    1    2    0    0 -0.32783649043E+00 -0.22761581524E+00  0.11107396508E+01  0.90007733803E+02  0.89999995089E+02 0.  0.
         12    1    1    2    0    0  0.32783649043E+00  0.22761581524E+00 -0.11107396508E+01  0.11802661970E+01  0.00000000000E+00 0. -1.
         11    1    3    3    0    0  0.77822436260E+01 -0.69030046237E+00  0.49474407133E+01  0.92475402381E+01  0.51100000000E-03 0. -1.
        -11    1    3    3    0    0  0.14877483003E+02  0.34052955119E+02  0.87083942599E+01  0.38167779391E+02  0.51100000000E-03 0.  1.
         12    1    3    3    0    0 -0.22987563119E+02 -0.33590270471E+02 -0.12545095322E+02  0.42592414174E+02  0.00000000000E+00 0. -1.
</event>
<event>
 7    1  0.2569312E-015  0.9000731E+02  0.7816164E-02  0.1186340E+00
        -11   -1    0    0    0    0  0.00000000000E+00  0.00000000000E+00  0.45593999997E+02  0.45594000000E+02  0.51100000000E-03 0.  1.
         11   -1    0    0    0    0 -0.00000000000E+00 -0.00000000000E+00 -0.45593999997E+02  0.45594000000E+02  0.51100000000E-03 0. -1.
    9900012    2    1    2    0    0  0.65616420624E+00  0.55657272763E+00  0.80852098699E+00  0.90007309163E+02  0.89999564843E+02 0.  0.
         12    1    1    2    0    0 -0.65616420624E+00 -0.55657272763E+00 -0.80852098699E+00  0.11806908372E+01  0.00000000000E+00 0. -1.
         11    1    3    3    0    0 -0.33010863735E+02  0.61472216263E+01 -0.10989522744E+02  0.35330936425E+02  0.51100000000E-03 0. -1.
        -11    1    3    3    0    0 -0.95732647691E+01 -0.87336776156E+00  0.19750140361E-01  0.96130411377E+01  0.51100000000E-03 0.  1.
        -12    1    3    3    0    0  0.43240292710E+02 -0.47172811371E+01  0.11778293591E+02  0.45063331600E+02  0.00000000000E+00 0.  1.
</event>
<event>
 7    1  0.2569312E-015  0.9000773E+02  0.7816164E-02  0.1186339E+00
        -11   -1    0    0    0    0  0.00000000000E+00  0.00000000000E+00  0.45593999997E+02  0.45594000000E+02  0.51100000000E-03 0.  1.
         11   -1    0    0    0    0 -0.00000000000E+00 -0.00000000000E+00 -0.45593999997E+02  0.45594000000E+02  0.51100000000E-03 0. -1.
    9900012    2    1    2    0    0 -0.88907134038E+00  0.74632230133E+00  0.21349788348E+00  0.90007734703E+02  0.89999996001E+02 0.  0.
         12    1    1    2    0    0  0.88907134038E+00 -0.74632230133E+00 -0.21349788348E+00  0.11802652973E+01  0.00000000000E+00 0. -1.
         11    1    3    3    0    0  0.36116539896E+02  0.63168519047E+01 -0.19730018611E+02  0.41636290741E+02  0.51100000000E-03 0. -1.
        -11    1    3    3    0    0 -0.17804578057E+01 -0.82185166739E+01  0.15708095946E+01  0.85546180138E+01  0.51100000000E-03 0.  1.
        -12    1    3    3    0    0 -0.35225153431E+02  0.26479870706E+01  0.18372706900E+02  0.39816825948E+02  0.00000000000E+00 0.  1.
</event>
<event>
 7    1  0.2569312E-015  0.9000765E+02  0.7816164E-02  0.1186339E+00
        -11   -1    0    0    0    0  0.00000000000E+00  0.00000000000E+00  0.45593999997E+02  0.45594000000E+02  0.51100000000E-03 0. -1.
         11   -1    0    0    0    0 -0.00000000000E+00 -0.00000000000E+00 -0.45593999997E+02  0.45594000000E+02  0.51100000000E-03 0.  1.
    9900012    2    1    2    0    0  0.97643284827E+00  0.62236073471E+00  0.22904409093E+00  0.90007654632E+02  0.89999914873E+02 0.  0.
         12    1    1    2    0    0 -0.97643284827E+00 -0.62236073471E+00 -0.22904409093E+00  0.11803453676E+01  0.00000000000E+00 0. -1.
         11    1    3    3    0    0  0.58772430175E-01 -0.14884712477E+02  0.33752651825E+02  0.36889017677E+02  0.51100000000E-03 0. -1.
        -11    1    3    3    0    0 -0.42597492523E+01 -0.33525725779E+01  0.65650340902E+01  0.85138052274E+01  0.51100000000E-03 0.  1.
        -12    1    3    3    0    0  0.51774096704E+01  0.18859645789E+02 -0.40088641824E+02  0.44604831728E+02  0.00000000000E+00 0.  1.
</event>
<event>
 7    1  0.2569312E-015  0.9000776E+02  0.7816164E-02  0.1186339E+00
        -11   -1    0    0    0    0  0.00000000000E+00  0.00000000000E+00  0.45593999997E+02  0.45594000000E+02  0.51100000000E-03 0.  1.
         11   -1    0    0    0    0 -0.00000000000E+00 -0.00000000000E+00 -0.45593999997E+02  0.45594000000E+02  0.51100000000E-03 0. -1.
    9900012    2    1    2    0    0 -0.19492029718E+00  0.37646140392E+00  0.11014804635E+01  0.90007755821E+02  0.90000017398E+02 0.  0.
         12    1    1    2    0    0  0.19492029718E+00 -0.37646140392E+00 -0.11014804635E+01  0.11802441791E+01  0.00000000000E+00 0. -1.
         11    1    3    3    0    0 -0.27153615003E+01 -0.79724078882E+01 -0.93057479363E+00  0.84733963274E+01  0.51100000000E-03 0. -1.
        -11    1    3    3    0    0 -0.28253161228E+02 -0.22616082744E+02 -0.72334527943E+01  0.36905977262E+02  0.51100000000E-03 0.  1.
         12    1    3    3    0    0  0.30773602431E+02  0.30964952036E+02  0.92655080514E+01  0.44628382232E+02  0.00000000000E+00 0. -1.
</event>
<event>
 7    1  0.2569312E-015  0.9000777E+02  0.7816164E-02  0.1186339E+00
        -11   -1    0    0    0    0  0.00000000000E+00  0.00000000000E+00  0.45593999997E+02  0.45594000000E+02  0.51100000000E-03 0.  1.
         11   -1    0    0    0    0 -0.00000000000E+00 -0.00000000000E+00 -0.45593999997E+02  0.45594000000E+02  0.51100000000E-03 0. -1.
    9900012    2    1    2    0    0  0.78184289167E+00  0.46856752004E-01  0.88287216846E+00  0.90007772425E+02  0.90000034221E+02 0.  0.
         12    1    1    2    0    0 -0.78184289167E+00 -0.46856752004E-01 -0.88287216846E+00  0.11802275748E+01  0.00000000000E+00 0. -1.
         11    1    3    3    0    0  0.20921647742E+01 -0.25441910749E+00 -0.37738966280E+02  0.37797770552E+02  0.51100000000E-03 0. -1.
        -11    1    3    3    0    0 -0.43426485066E+01  0.99813696934E+01 -0.13523439922E+01  0.10968827264E+02  0.51100000000E-03 0.  1.
        -12    1    3    3    0    0  0.30323266241E+01 -0.96800938340E+01  0.39974182441E+02  0.41241174610E+02  0.00000000000E+00 0.  1.
</event>
<event>
 7    1  0.2569312E-015  0.9000763E+02  0.7816164E-02  0.1186339E+00
        -11   -1    0    0    0    0  0.00000000000E+00  0.00000000000E+00  0.45593999997E+02  0.45594000000E+02  0.51100000000E-03 0.  1.
         11   -1    0    0    0    0 -0.00000000000E+00 -0.00000000000E+00 -0.45593999997E+02  0.45594000000E+02  0.51100000000E-03 0. -1.
    9900012    2    1    2    0    0 -0.40420211173E+00  0.10240098063E+01  0.42578067227E+00  0.90007633696E+02  0.89999893661E+02 0.  0.
         12    1    1    2    0    0  0.40420211173E+00 -0.10240098063E+01 -0.42578067227E+00  0.11803663039E+01  0.00000000000E+00 0. -1.
         11    1    3    3    0    0 -0.13037043049E+02 -0.72311743894E+01 -0.32950096052E+02  0.36165773939E+02  0.51100000000E-03 0. -1.
        -11    1    3    3    0    0 -0.18674326142E+01 -0.10617460622E+01 -0.83893623136E+01  0.86600236466E+01  0.51100000000E-03 0.  1.
        -12    1    3    3    0    0  0.14500273551E+02  0.93169302580E+01  0.41765239037E+02  0.45181836111E+02  0.00000000000E+00 0.  1.
</event>
<event>
 7    1  0.2569312E-015  0.9000745E+02  0.7816164E-02  0.1186340E+00
        -11   -1    0    0    0    0  0.00000000000E+00  0.00000000000E+00  0.45593999997E+02  0.45594000000E+02  0.51100000000E-03 0.  1.
         11   -1    0    0    0    0 -0.00000000000E+00 -0.00000000000E+00 -0.45593999997E+02  0.45594000000E+02  0.51100000000E-03 0. -1.
    9900012    2    1    2    0    0  0.31872436031E+00  0.25846974758E-01  0.11364167900E+01  0.90007450804E+02  0.89999708354E+02 0.  0.
         12    1    1    2    0    0 -0.31872436031E+00 -0.25846974758E-01 -0.11364167900E+01  0.11805491961E+01  0.00000000000E+00 0. -1.
         11    1    3    3    0    0  0.71289298129E+01  0.43385176814E+01  0.88175026570E+01  0.12140540734E+02  0.51100000000E-03 0. -1.
        -11    1    3    3    0    0 -0.40143489422E+01 -0.43079202311E+01  0.34799625859E+02  0.35294293226E+02  0.51100000000E-03 0.  1.
         12    1    3    3    0    0 -0.27958565104E+01 -0.47504755171E-02 -0.42480711726E+02  0.42572616844E+02  0.00000000000E+00 0. -1.
</event>
<event>
 7    1  0.2569312E-015  0.9000775E+02  0.7816164E-02  0.1186339E+00
        -11   -1    0    0    0    0  0.00000000000E+00  0.00000000000E+00  0.45593999997E+02  0.45594000000E+02  0.51100000000E-03 0.  1.
         11   -1    0    0    0    0 -0.00000000000E+00 -0.00000000000E+00 -0.45593999997E+02  0.45594000000E+02  0.51100000000E-03 0. -1.
    9900012    2    1    2    0    0  0.40146362468E+00 -0.10647873049E+01  0.31311580268E+00  0.90007751487E+02  0.90000013007E+02 0.  0.
         12    1    1    2    0    0 -0.40146362468E+00  0.10647873049E+01 -0.31311580268E+00  0.11802485131E+01  0.00000000000E+00 0. -1.
         11    1    3    3    0    0  0.23700448813E+01 -0.55828290607E+00  0.23802476443E+01  0.34050509030E+01  0.51100000000E-03 0. -1.
        -11    1    3    3    0    0  0.40884206823E+02  0.89396150412E+01  0.50285084424E+01  0.42151168217E+02  0.51100000000E-03 0.  1.
         12    1    3    3    0    0 -0.42852788080E+02 -0.94461194401E+01 -0.70956402840E+01  0.44451532367E+02  0.00000000000E+00 0. -1.
</event>
<event>
 7    1  0.2569312E-015  0.9000764E+02  0.7816164E-02  0.1186339E+00
        -11   -1    0    0    0    0  0.00000000000E+00  0.00000000000E+00  0.45593999997E+02  0.45594000000E+02  0.51100000000E-03 0.  1.
         11   -1    0    0    0    0 -0.00000000000E+00 -0.00000000000E+00 -0.45593999997E+02  0.45594000000E+02  0.51100000000E-03 0. -1.
    9900012    2    1    2    0    0  0.11085177718E+01 -0.10952350760E+00 -0.39044687431E+00  0.90007637424E+02  0.89999897438E+02 0.  0.
         12    1    1    2    0    0 -0.11085177718E+01  0.10952350760E+00  0.39044687431E+00  0.11803625759E+01  0.00000000000E+00 0. -1.
         11    1    3    3    0    0  0.16938057507E+01  0.78239333976E+01 -0.50233039152E+01  0.94507404058E+01  0.51100000000E-03 0. -1.
        -11    1    3    3    0    0  0.35217243996E+02 -0.17630282502E+01 -0.16060328803E+02  0.38746570232E+02  0.51100000000E-03 0.  1.
         12    1    3    3    0    0 -0.35802531975E+02 -0.61704286551E+01  0.20693185844E+02  0.41810326786E+02  0.00000000000E+00 0. -1.
</event>
<event>
 7    1  0.2569312E-015  0.9000762E+02  0.7816164E-02  0.1186339E+00
        -11   -1    0    0    0    0  0.00000000000E+00  0.00000000000E+00  0.45593999997E+02  0.45594000000E+02  0.51100000000E-03 0.  1.
         11   -1    0    0    0    0 -0.00000000000E+00 -0.00000000000E+00 -0.45593999997E+02  0.45594000000E+02  0.51100000000E-03 0. -1.
    9900012    2    1    2    0    0 -0.97008285497E+00  0.56907046766E+00 -0.35830779841E+00  0.90007624458E+02  0.89999884300E+02 0.  0.
         12    1    1    2    0    0  0.97008285497E+00 -0.56907046766E+00  0.35830779841E+00  0.11803755424E+01  0.00000000000E+00 0. -1.
         11    1    3    3    0    0  0.54854707028E+01 -0.75660393938E+01  0.39668284360E+01  0.10152392282E+02  0.51100000000E-03 0. -1.
        -11    1    3    3    0    0 -0.41328448141E+02  0.10067545667E+02  0.70624005434E+01  0.43119295022E+02  0.51100000000E-03 0.  1.
         12    1    3    3    0    0  0.34872894583E+02 -0.19324358060E+01 -0.11387536778E+02  0.36735937154E+02  0.00000000000E+00 0. -1.
</event>
<event>
 7    1  0.2569312E-015  0.9000769E+02  0.7816164E-02  0.1186339E+00
        -11   -1    0    0    0    0  0.00000000000E+00  0.00000000000E+00  0.45593999997E+02  0.45594000000E+02  0.51100000000E-03 0.  1.
         11   -1    0    0    0    0 -0.00000000000E+00 -0.00000000000E+00 -0.45593999997E+02  0.45594000000E+02  0.51100000000E-03 0. -1.
    9900012    2    1    2    0    0 -0.71855224147E+00  0.92751730799E+00  0.12852224793E+00  0.90007693409E+02  0.89999954162E+02 0.  0.
         12    1    1    2    0    0  0.71855224147E+00 -0.92751730799E+00 -0.12852224793E+00  0.11803065909E+01  0.00000000000E+00 0. -1.
         11    1    3    3    0    0  0.15984264052E+02 -0.10189851736E+02  0.11893536891E+02  0.22378248272E+02  0.51100000000E-03 0. -1.
        -11    1    3    3    0    0  0.20786855285E+02  0.15213726944E+02 -0.14948203295E+02  0.29782538881E+02  0.51100000000E-03 0.  1.
         12    1    3    3    0    0 -0.37489671579E+02 -0.40963579001E+01  0.31831886516E+01  0.37846906256E+02  0.00000000000E+00 0. -1.
</event>
<event>
 7    1  0.2569312E-015  0.9000762E+02  0.7816164E-02  0.1186339E+00
        -11   -1    0    0    0    0  0.00000000000E+00  0.00000000000E+00  0.45593999997E+02  0.45594000000E+02  0.51100000000E-03 0. -1.
         11   -1    0    0    0    0 -0.00000000000E+00 -0.00000000000E+00 -0.45593999997E+02  0.45594000000E+02  0.51100000000E-03 0.  1.
    9900012    2    1    2    0    0  0.78789409070E-01  0.16913812276E+00 -0.11655422972E+01  0.90007616875E+02  0.89999876618E+02 0.  0.
         12    1    1    2    0    0 -0.78789409070E-01 -0.16913812276E+00  0.11655422972E+01  0.11803831251E+01  0.00000000000E+00 0. -1.
         11    1    3    3    0    0 -0.17395659945E+02  0.31571834423E+02  0.17601260910E+02  0.40114761617E+02  0.51100000000E-03 0. -1.
        -11    1    3    3    0    0  0.59579851544E+01  0.48268889589E+01 -0.61771158713E+01  0.98464818524E+01  0.51100000000E-03 0.  1.
        -12    1    3    3    0    0  0.11516464200E+02 -0.36229585259E+02 -0.12589687336E+02  0.40046373405E+02  0.00000000000E+00 0.  1.
</event>
<event>
 7    1  0.2569312E-015  0.9000776E+02  0.7816164E-02  0.1186339E+00
        -11   -1    0    0    0    0  0.00000000000E+00  0.00000000000E+00  0.45593999997E+02  0.45594000000E+02  0.51100000000E-03 0.  1.
         11   -1    0    0    0    0 -0.00000000000E+00 -0.00000000000E+00 -0.45593999997E+02  0.45594000000E+02  0.51100000000E-03 0. -1.
    9900012    2    1    2    0    0 -0.39785789284E+00  0.10315732236E+01 -0.41295630898E+00  0.90007759714E+02  0.90000021343E+02 0.  0.
         12    1    1    2    0    0  0.39785789284E+00 -0.10315732236E+01  0.41295630898E+00  0.11802402856E+01  0.00000000000E+00 0. -1.
         11    1    3    3    0    0 -0.33751927220E+01  0.97466806863E+01 -0.46696542552E+01  0.11322339928E+02  0.51100000000E-03 0. -1.
        -11    1    3    3    0    0  0.18093045304E+02 -0.38383743024E+02 -0.80414916537E+01  0.43189531199E+02  0.51100000000E-03 0.  1.
         12    1    3    3    0    0 -0.15115710475E+02  0.29668635561E+02  0.12298189600E+02  0.35495888588E+02  0.00000000000E+00 0. -1.
</event>
<event>
 7    1  0.2569312E-015  0.9000774E+02  0.7816164E-02  0.1186339E+00
        -11   -1    0    0    0    0  0.00000000000E+00  0.00000000000E+00  0.45593999997E+02  0.45594000000E+02  0.51100000000E-03 0. -1.
         11   -1    0    0    0    0 -0.00000000000E+00 -0.00000000000E+00 -0.45593999997E+02  0.45594000000E+02  0.51100000000E-03 0.  1.
    9900012    2    1    2    0    0 -0.48611270366E-01 -0.85114652991E+00 -0.81621282814E+00  0.90007738651E+02  0.90000000001E+02 0.  0.
         12    1    1    2    0    0  0.48611270366E-01  0.85114652991E+00  0.81621282814E+00  0.11802613489E+01  0.00000000000E+00 0. -1.
         11    1    3    3    0    0  0.57603561572E+01  0.72250474249E+01 -0.59139830395E+01  0.10970788896E+02  0.51100000000E-03 0. -1.
        -11    1    3    3    0    0 -0.19111323646E+02 -0.16030174751E+02 -0.30978174975E+02  0.39772559876E+02  0.51100000000E-03 0.  1.
         12    1    3    3    0    0  0.13302356218E+02  0.79539807959E+01  0.36075945187E+02  0.39264389879E+02  0.00000000000E+00 0. -1.
</event>
<event>
 7    1  0.2569312E-015  0.9000769E+02  0.7816164E-02  0.1186339E+00
        -11   -1    0    0    0    0  0.00000000000E+00  0.00000000000E+00  0.45593999997E+02  0.45594000000E+02  0.51100000000E-03 0. -1.
         11   -1    0    0    0    0 -0.00000000000E+00 -0.00000000000E+00 -0.45593999997E+02  0.45594000000E+02  0.51100000000E-03 0.  1.
    9900012    2    1    2    0    0  0.27328887528E+00  0.10462254596E+01  0.47313856641E+00  0.90007688759E+02  0.89999949451E+02 0.  0.
         12    1    1    2    0    0 -0.27328887528E+00 -0.10462254596E+01 -0.47313856641E+00  0.11803112406E+01  0.00000000000E+00 0. -1.
         11    1    3    3    0    0  0.67790117684E+01  0.74359788812E+01  0.58136430649E+01  0.11620982249E+02  0.51100000000E-03 0. -1.
        -11    1    3    3    0    0 -0.12096239336E+02  0.85378289487E+01 -0.38688555840E+02  0.41424846198E+02  0.51100000000E-03 0.  1.
         12    1    3    3    0    0  0.55905164431E+01 -0.14927582370E+02  0.33348051342E+02  0.36961860313E+02  0.00000000000E+00 0. -1.
</event>
<event>
 7    1  0.2569312E-015  0.9000780E+02  0.7816164E-02  0.1186339E+00
        -11   -1    0    0    0    0  0.00000000000E+00  0.00000000000E+00  0.45593999997E+02  0.45594000000E+02  0.51100000000E-03 0.  1.
         11   -1    0    0    0    0 -0.00000000000E+00 -0.00000000000E+00 -0.45593999997E+02  0.45594000000E+02  0.51100000000E-03 0. -1.
    9900012    2    1    2    0    0  0.11373432421E+01 -0.92835906032E-01  0.30117406451E+00  0.90007799181E+02  0.90000061330E+02 0.  0.
         12    1    1    2    0    0 -0.11373432421E+01  0.92835906032E-01 -0.30117406451E+00  0.11802008189E+01  0.00000000000E+00 0. -1.
         11    1    3    3    0    0  0.27039667494E+02 -0.17744376652E+02  0.20237451202E+02  0.38151814536E+02  0.51100000000E-03 0. -1.
        -11    1    3    3    0    0  0.76512847970E+01 -0.32033175963E+01 -0.45347204524E+01  0.94534169754E+01  0.51100000000E-03 0.  1.
        -12    1    3    3    0    0 -0.33553609049E+02  0.20854858342E+02 -0.15401556685E+02  0.42402567670E+02  0.00000000000E+00 0.  1.
</event>
<event>
 7    1  0.2569312E-015  0.9000774E+02  0.7816164E-02  0.1186339E+00
        -11   -1    0    0    0    0  0.00000000000E+00  0.00000000000E+00  0.45593999997E+02  0.45594000000E+02  0.51100000000E-03 0.  1.
         11   -1    0    0    0    0 -0.00000000000E+00 -0.00000000000E+00 -0.45593999997E+02  0.45594000000E+02  0.51100000000E-03 0. -1.
    9900012    2    1    2    0    0 -0.90973883581E+00  0.26805396600E+00  0.70252514991E+00  0.90007737629E+02  0.89999998966E+02 0.  0.
         12    1    1    2    0    0  0.90973883581E+00 -0.26805396600E+00 -0.70252514991E+00  0.11802623710E+01  0.00000000000E+00 0. -1.
         11    1    3    3    0    0 -0.38144507859E+02 -0.40145888372E+01 -0.58149924534E+01  0.38793485804E+02  0.51100000000E-03 0. -1.
        -11    1    3    3    0    0  0.13560657724E+00 -0.10401667425E+02 -0.15204383518E+01  0.10513077923E+02  0.51100000000E-03 0.  1.
        -12    1    3    3    0    0  0.37099162446E+02  0.14684310228E+02  0.80379559551E+01  0.40701173902E+02  0.00000000000E+00 0.  1.
</event>
<event>
 7    1  0.2569312E-015  0.9000775E+02  0.7816164E-02  0.1186339E+00
        -11   -1    0    0    0    0  0.00000000000E+00  0.00000000000E+00  0.45593999997E+02  0.45594000000E+02  0.51100000000E-03 0.  1.
         11   -1    0    0    0    0 -0.00000000000E+00 -0.00000000000E+00 -0.45593999997E+02  0.45594000000E+02  0.51100000000E-03 0. -1.
    9900012    2    1    2    0    0 -0.49275004315E+00 -0.58511491442E+00 -0.89879905811E+00  0.90007745021E+02  0.90000006455E+02 0.  0.
         12    1    1    2    0    0  0.49275004315E+00  0.58511491442E+00  0.89879905811E+00  0.11802549788E+01  0.00000000000E+00 0. -1.
         11    1    3    3    0    0  0.31152570887E+02 -0.24022238871E+02 -0.16107534428E+02  0.42508861415E+02  0.51100000000E-03 0. -1.
        -11    1    3    3    0    0 -0.79370850497E+01  0.11985515394E+02 -0.39837626755E+01  0.14917113114E+02  0.51100000000E-03 0.  1.
        -12    1    3    3    0    0 -0.23708235880E+02  0.11451608562E+02  0.19192498045E+02  0.32581770492E+02  0.00000000000E+00 0.  1.
</event>
<event>
 7    1  0.2569312E-015  0.9000774E+02  0.7816164E-02  0.1186339E+00
        -11   -1    0    0    0    0  0.00000000000E+00  0.00000000000E+00  0.45593999997E+02  0.45594000000E+02  0.51100000000E-03 0. -1.
         11   -1    0    0    0    0 -0.00000000000E+00 -0.00000000000E+00 -0.45593999997E+02  0.45594000000E+02  0.51100000000E-03 0.  1.
    9900012    2    1    2    0    0 -0.10313312298E+01 -0.10106769530E+00 -0.56494535508E+00  0.90007736454E+02  0.89999997775E+02 0.  0.
         12    1    1    2    0    0  0.10313312298E+01  0.10106769530E+00  0.56494535508E+00  0.11802635464E+01  0.00000000000E+00 0. -1.
         11    1    3    3    0    0  0.11248265451E+02 -0.76477740661E+01 -0.31912580598E+01  0.13971258071E+02  0.51100000000E-03 0. -1.
        -11    1    3    3    0    0 -0.17779681759E+02 -0.25554843554E+02 -0.18663300271E+02  0.36297188455E+02  0.51100000000E-03 0.  1.
         12    1    3    3    0    0  0.55000850781E+01  0.33101549925E+02  0.21289612976E+02  0.39739289927E+02  0.00000000000E+00 0. -1.
</event>
<event>
 7    1  0.2569312E-015  0.9000777E+02  0.7816164E-02  0.1186339E+00
        -11   -1    0    0    0    0  0.00000000000E+00  0.00000000000E+00  0.45593999997E+02  0.45594000000E+02  0.51100000000E-03 0.  1.
         11   -1    0    0    0    0 -0.00000000000E+00 -0.00000000000E+00 -0.45593999997E+02  0.45594000000E+02  0.51100000000E-03 0. -1.
    9900012    2    1    2    0    0 -0.12740247490E+00 -0.11518501556E+01  0.22350867235E+00  0.90007768540E+02  0.90000030285E+02 0.  0.
         12    1    1    2    0    0  0.12740247490E+00  0.11518501556E+01 -0.22350867235E+00  0.11802314595E+01  0.00000000000E+00 0. -1.
         11    1    3    3    0    0  0.22922539104E+02 -0.90654687752E+01 -0.12272079447E+02  0.27535966613E+02  0.51100000000E-03 0. -1.
        -11    1    3    3    0    0 -0.79727039361E+01  0.29701425908E+02 -0.43725443816E+01  0.31062161123E+02  0.51100000000E-03 0.  1.
        -12    1    3    3    0    0 -0.15077237643E+02 -0.21787807288E+02  0.16868132501E+02  0.31409640804E+02  0.00000000000E+00 0.  1.
</event>
<event>
 7    1  0.2569312E-015  0.9000771E+02  0.7816164E-02  0.1186339E+00
        -11   -1    0    0    0    0  0.00000000000E+00  0.00000000000E+00  0.45593999997E+02  0.45594000000E+02  0.51100000000E-03 0.  1.
         11   -1    0    0    0    0 -0.00000000000E+00 -0.00000000000E+00 -0.45593999997E+02  0.45594000000E+02  0.51100000000E-03 0. -1.
    9900012    2    1    2    0    0 -0.91171640097E-01  0.56271219638E+00  0.10335006638E+01  0.90007711516E+02  0.89999972508E+02 0.  0.
         12    1    1    2    0    0  0.91171640097E-01 -0.56271219638E+00 -0.10335006638E+01  0.11802884842E+01  0.00000000000E+00 0. -1.
         11    1    3    3    0    0 -0.88362656331E+01  0.19548991614E+01 -0.49888446154E+01  0.10333914647E+02  0.51100000000E-03 0. -1.
        -11    1    3    3    0    0 -0.15432766873E+02  0.19243654879E+02  0.30735631368E+02  0.39410247174E+02  0.51100000000E-03 0.  1.
         12    1    3    3    0    0  0.24177860866E+02 -0.20635841844E+02 -0.24713286089E+02  0.40263549695E+02  0.00000000000E+00 0. -1.
</event>
<event>
 8    1  0.2569312E-015  0.9000776E+02  0.7816164E-02  0.1186339E+00
        -11   -1    0    0    0    0  0.00000000000E+00  0.00000000000E+00  0.45593999997E+02  0.45594000000E+02  0.51100000000E-03 0.  1.
         11   -1    0    0    0    0 -0.00000000000E+00 -0.00000000000E+00 -0.45593999997E+02  0.45594000000E+02  0.51100000000E-03 0. -1.
    9900012    2    1    2    0    0 -0.87693465411E+00 -0.72442972480E+00  0.31486911386E+00  0.90007764696E+02  0.90000026390E+02 0.  0.
         23    2    3    3    0    0 -0.81210125768E+01  0.59805545309E+01 -0.24948131093E+02  0.62884847112E+02  0.56836404474E+02 0.  0.
         12    1    1    2    0    0  0.87693465411E+00  0.72442972480E+00 -0.31486911386E+00  0.11802353039E+01  0.00000000000E+00 0. -1.
         11    1    4    4    0    0 -0.35711357814E+01 -0.54218197694E+01 -0.41651928046E+02  0.42154860343E+02  0.51100000000E-03 0. -1.
        -11    1    4    4    0    0 -0.45498767953E+01  0.11402374300E+02  0.16703796952E+02  0.20729986769E+02  0.51100000000E-03 0.  1.
        -12    1    3    3    0    0  0.72440779226E+01 -0.67049842557E+01  0.25263000207E+02  0.27122917584E+02  0.00000000000E+00 0.  1.
</event>
<event>
 7    1  0.2569312E-015  0.9000773E+02  0.7816164E-02  0.1186339E+00
        -11   -1    0    0    0    0  0.00000000000E+00  0.00000000000E+00  0.45593999997E+02  0.45594000000E+02  0.51100000000E-03 0.  1.
         11   -1    0    0    0    0 -0.00000000000E+00 -0.00000000000E+00 -0.45593999997E+02  0.45594000000E+02  0.51100000000E-03 0. -1.
    9900012    2    1    2    0    0 -0.24588896843E+00 -0.10151727457E+01  0.54954860629E+00  0.90007728523E+02  0.89999989740E+02 0.  0.
         12    1    1    2    0    0  0.24588896843E+00  0.10151727457E+01 -0.54954860629E+00  0.11802714769E+01  0.00000000000E+00 0. -1.
         11    1    3    3    0    0  0.16739337198E+02 -0.89895177381E+01 -0.19358266090E+02  0.27124883507E+02  0.51100000000E-03 0. -1.
        -11    1    3    3    0    0 -0.21965446571E+02 -0.11837721686E+02 -0.98179618932E+01  0.26814266236E+02  0.51100000000E-03 0.  1.
        -12    1    3    3    0    0  0.49802204040E+01  0.19812066679E+02  0.29725776589E+02  0.36068578780E+02  0.00000000000E+00 0.  1.
</event>
<event>
 7    1  0.2569312E-015  0.9000777E+02  0.7816164E-02  0.1186339E+00
        -11   -1    0    0    0    0  0.00000000000E+00  0.00000000000E+00  0.45593999997E+02  0.45594000000E+02  0.51100000000E-03 0.  1.
         11   -1    0    0    0    0 -0.00000000000E+00 -0.00000000000E+00 -0.45593999997E+02  0.45594000000E+02  0.51100000000E-03 0. -1.
    9900012    2    1    2    0    0 -0.11226059400E+01 -0.25433935992E+00  0.26080352735E+00  0.90007766512E+02  0.90000028230E+02 0.  0.
         12    1    1    2    0    0  0.11226059400E+01  0.25433935992E+00 -0.26080352735E+00  0.11802334881E+01  0.00000000000E+00 0. -1.
         11    1    3    3    0    0 -0.19034883230E+02  0.10311273536E+02 -0.34109416389E+02  0.40399275095E+02  0.51100000000E-03 0. -1.
        -11    1    3    3    0    0  0.73354017927E+01 -0.55173500564E+01 -0.36084887258E+01  0.98625788843E+01  0.51100000000E-03 0.  1.
        -12    1    3    3    0    0  0.10576875498E+02 -0.50482628393E+01  0.37978708642E+02  0.39745912533E+02  0.00000000000E+00 0.  1.
</event>
<event>
 7    1  0.2569312E-015  0.9000775E+02  0.7816164E-02  0.1186339E+00
        -11   -1    0    0    0    0  0.00000000000E+00  0.00000000000E+00  0.45593999997E+02  0.45594000000E+02  0.51100000000E-03 0. -1.
         11   -1    0    0    0    0 -0.00000000000E+00 -0.00000000000E+00 -0.45593999997E+02  0.45594000000E+02  0.51100000000E-03 0.  1.
    9900012    2    1    2    0    0 -0.10193511552E+01  0.55860229602E+00 -0.20461226026E+00  0.90007754483E+02  0.90000016042E+02 0.  0.
         12    1    1    2    0    0  0.10193511552E+01 -0.55860229602E+00  0.20461226026E+00  0.11802455167E+01  0.00000000000E+00 0. -1.
         11    1    3    3    0    0 -0.28073003620E+02  0.21479861031E+02 -0.65608846350E+01  0.35951678259E+02  0.51100000000E-03 0. -1.
        -11    1    3    3    0    0 -0.63457262383E+01  0.67479494015E+01 -0.29025945963E+01  0.97071168875E+01  0.51100000000E-03 0.  1.
        -12    1    3    3    0    0  0.33399378703E+02 -0.27669208137E+02  0.92588669711E+01  0.44348959337E+02  0.00000000000E+00 0.  1.
</event>
<event>
 7    1  0.2569312E-015  0.9000773E+02  0.7816164E-02  0.1186339E+00
        -11   -1    0    0    0    0  0.00000000000E+00  0.00000000000E+00  0.45593999997E+02  0.45594000000E+02  0.51100000000E-03 0.  1.
         11   -1    0    0    0    0 -0.00000000000E+00 -0.00000000000E+00 -0.45593999997E+02  0.45594000000E+02  0.51100000000E-03 0. -1.
    9900012    2    1    2    0    0 -0.30672007631E+00  0.70637257788E+00  0.89442813646E+00  0.90007728372E+02  0.89999989587E+02 0.  0.
         12    1    1    2    0    0  0.30672007631E+00 -0.70637257788E+00 -0.89442813646E+00  0.11802716278E+01  0.00000000000E+00 0. -1.
         11    1    3    3    0    0  0.16221421158E+01 -0.26223867770E+01  0.37370304864E+01  0.48449617717E+01  0.51100000000E-03 0. -1.
        -11    1    3    3    0    0 -0.12782463269E+01 -0.21437087661E+02  0.34328412291E+02  0.40492252737E+02  0.51100000000E-03 0.  1.
         12    1    3    3    0    0 -0.65061586519E+00  0.24765847016E+02 -0.37171014641E+02  0.44670513864E+02  0.00000000000E+00 0. -1.
</event>
<event>
 7    1  0.2569312E-015  0.9000778E+02  0.7816164E-02  0.1186339E+00
        -11   -1    0    0    0    0  0.00000000000E+00  0.00000000000E+00  0.45593999997E+02  0.45594000000E+02  0.51100000000E-03 0.  1.
         11   -1    0    0    0    0 -0.00000000000E+00 -0.00000000000E+00 -0.45593999997E+02  0.45594000000E+02  0.51100000000E-03 0. -1.
    9900012    2    1    2    0    0 -0.52147676441E+00 -0.99460254060E+00  0.36295861399E+00  0.90007783416E+02  0.90000045357E+02 0.  0.
         12    1    1    2    0    0  0.52147676441E+00  0.99460254060E+00 -0.36295861399E+00  0.11802165840E+01  0.00000000000E+00 0. -1.
         11    1    3    3    0    0 -0.70602640986E+00 -0.78579718749E+01 -0.54410765341E+01  0.95839193125E+01  0.51100000000E-03 0. -1.
        -11    1    3    3    0    0  0.31618694472E+02 -0.17693449471E+02  0.15443453989E+02  0.39386549299E+02  0.51100000000E-03 0.  1.
         12    1    3    3    0    0 -0.31434144827E+02  0.24556818805E+02 -0.96394188407E+01  0.41037314805E+02  0.00000000000E+00 0. -1.
</event>
<event>
 7    1  0.2569312E-015  0.9000783E+02  0.7816164E-02  0.1186339E+00
        -11   -1    0    0    0    0  0.00000000000E+00  0.00000000000E+00  0.45593999997E+02  0.45594000000E+02  0.51100000000E-03 0. -1.
         11   -1    0    0    0    0 -0.00000000000E+00 -0.00000000000E+00 -0.45593999997E+02  0.45594000000E+02  0.51100000000E-03 0.  1.
    9900012    2    1    2    0    0 -0.13044532691E+00  0.10923714977E+01  0.42719887131E+00  0.90007834610E+02  0.90000097227E+02 0.  0.
         12    1    1    2    0    0  0.13044532691E+00 -0.10923714977E+01 -0.42719887131E+00  0.11801653901E+01  0.00000000000E+00 0. -1.
         11    1    3    3    0    0  0.51481289343E+00  0.85903243275E+01  0.35247978712E+01  0.92996185224E+01  0.51100000000E-03 0. -1.
        -11    1    3    3    0    0  0.14796397026E+02  0.30174242935E+02 -0.17031025718E+02  0.37675909264E+02  0.51100000000E-03 0.  1.
         12    1    3    3    0    0 -0.15441655246E+02 -0.37672195764E+02  0.13933426718E+02  0.43032306823E+02  0.00000000000E+00 0. -1.
</event>
<event>
 7    1  0.2569312E-015  0.9000774E+02  0.7816164E-02  0.1186339E+00
        -11   -1    0    0    0    0  0.00000000000E+00  0.00000000000E+00  0.45593999997E+02  0.45594000000E+02  0.51100000000E-03 0. -1.
         11   -1    0    0    0    0 -0.00000000000E+00 -0.00000000000E+00 -0.45593999997E+02  0.45594000000E+02  0.51100000000E-03 0.  1.
    9900012    2    1    2    0    0 -0.80473748931E+00  0.50435870023E+00  0.70073678396E+00  0.90007740636E+02  0.90000002013E+02 0.  0.
         12    1    1    2    0    0  0.80473748931E+00 -0.50435870023E+00 -0.70073678396E+00  0.11802593637E+01  0.00000000000E+00 0. -1.
         11    1    3    3    0    0 -0.35529908035E+02 -0.69389751858E+01  0.36797516697E+01  0.36387694544E+02  0.51100000000E-03 0. -1.
        -11    1    3    3    0    0 -0.66260360588E+01 -0.15781000769E+00 -0.89682011428E+01  0.11151586876E+02  0.51100000000E-03 0.  1.
        -12    1    3    3    0    0  0.41351206605E+02  0.76011438938E+01  0.59891862571E+01  0.42468459216E+02  0.00000000000E+00 0.  1.
</event>
<event>
 7    1  0.2569312E-015  0.9000775E+02  0.7816164E-02  0.1186339E+00
        -11   -1    0    0    0    0  0.00000000000E+00  0.00000000000E+00  0.45593999997E+02  0.45594000000E+02  0.51100000000E-03 0.  1.
         11   -1    0    0    0    0 -0.00000000000E+00 -0.00000000000E+00 -0.45593999997E+02  0.45594000000E+02  0.51100000000E-03 0. -1.
    9900012    2    1    2    0    0  0.11196563989E+01  0.32380827226E+00  0.18573685575E+00  0.90007754081E+02  0.90000015635E+02 0.  0.
         12    1    1    2    0    0 -0.11196563989E+01 -0.32380827226E+00 -0.18573685575E+00  0.11802459186E+01  0.00000000000E+00 0. -1.
         11    1    3    3    0    0 -0.69176727741E+01  0.63534480056E+01  0.29471023129E+01  0.98440799709E+01  0.51100000000E-03 0. -1.
        -11    1    3    3    0    0 -0.32714450645E+02  0.39087223692E+01 -0.15380697633E+02  0.36360407746E+02  0.51100000000E-03 0.  1.
         12    1    3    3    0    0  0.40751779818E+02 -0.99383621026E+01  0.12619332176E+02  0.43803266364E+02  0.00000000000E+00 0. -1.
</event>
<event>
 7    1  0.2569312E-015  0.9000779E+02  0.7816164E-02  0.1186339E+00
        -11   -1    0    0    0    0  0.00000000000E+00  0.00000000000E+00  0.45593999997E+02  0.45594000000E+02  0.51100000000E-03 0.  1.
         11   -1    0    0    0    0 -0.00000000000E+00 -0.00000000000E+00 -0.45593999997E+02  0.45594000000E+02  0.51100000000E-03 0. -1.
    9900012    2    1    2    0    0  0.76539264378E+00 -0.64116898844E+00  0.62926112311E+00  0.90007791064E+02  0.90000053106E+02 0.  0.
         12    1    1    2    0    0 -0.76539264378E+00  0.64116898844E+00 -0.62926112311E+00  0.11802089357E+01  0.00000000000E+00 0. -1.
         11    1    3    3    0    0 -0.36732066432E+02 -0.16216385077E+02  0.55777090418E+01  0.40537966004E+02  0.51100000000E-03 0. -1.
        -11    1    3    3    0    0  0.65992352273E+01 -0.71971679988E+01  0.31133127433E+01  0.10248992599E+02  0.51100000000E-03 0.  1.
        -12    1    3    3    0    0  0.30898223848E+02  0.22772384087E+02 -0.80617606621E+01  0.39220832462E+02  0.00000000000E+00 0.  1.
</event>
<event>
 7    1  0.2607148E-015  0.9000779E+02  0.7816164E-02  0.1186339E+00
        -11   -1    0    0    0    0  0.00000000000E+00  0.00000000000E+00  0.45593999997E+02  0.45594000000E+02  0.51100000000E-03 0.  1.
         11   -1    0    0    0    0 -0.00000000000E+00 -0.00000000000E+00 -0.45593999997E+02  0.45594000000E+02  0.51100000000E-03 0. -1.
    9900012    2    1    2    0    0  0.11200329486E+00  0.11607590401E+01  0.18165810183E+00  0.90007785633E+02  0.90000047603E+02 0.  0.
         12    1    1    2    0    0 -0.11200329486E+00 -0.11607590401E+01 -0.18165810183E+00  0.11802143675E+01  0.00000000000E+00 0. -1.
         11    1    3    3    0    0 -0.23792105415E+02 -0.20463652187E+02 -0.21989855446E+02  0.38319434804E+02  0.51100000000E-03 0. -1.
        -11    1    3    3    0    0  0.38559256596E+01  0.12205479365E+01 -0.87045137231E+01  0.95982529335E+01  0.51100000000E-03 0.  1.
        -12    1    3    3    0    0  0.20048183050E+02  0.20403863291E+02  0.30876027271E+02  0.42090097895E+02  0.00000000000E+00 0.  1.
</event>
<event>
 7    1  0.2569312E-015  0.9000773E+02  0.7816164E-02  0.1186339E+00
        -11   -1    0    0    0    0  0.00000000000E+00  0.00000000000E+00  0.45593999997E+02  0.45594000000E+02  0.51100000000E-03 0.  1.
         11   -1    0    0    0    0 -0.00000000000E+00 -0.00000000000E+00 -0.45593999997E+02  0.45594000000E+02  0.51100000000E-03 0. -1.
    9900012    2    1    2    0    0  0.46582275539E+00 -0.21391702545E+00  0.10631510116E+01  0.90007728249E+02  0.89999989462E+02 0.  0.
         12    1    1    2    0    0 -0.46582275539E+00  0.21391702545E+00 -0.10631510116E+01  0.11802717512E+01  0.00000000000E+00 0. -1.
         11    1    3    3    0    0 -0.84260178564E+01 -0.31183324298E+01 -0.18416471993E+01  0.91713378919E+01  0.51100000000E-03 0. -1.
        -11    1    3    3    0    0 -0.28895938886E+02 -0.18675404501E+02  0.11891298168E+02  0.36402595921E+02  0.51100000000E-03 0.  1.
         12    1    3    3    0    0  0.37787779498E+02  0.21579819906E+02 -0.89864999566E+01  0.44433794436E+02  0.00000000000E+00 0. -1.
</event>
<event>
 7    1  0.2569312E-015  0.9000778E+02  0.7816164E-02  0.1186339E+00
        -11   -1    0    0    0    0  0.00000000000E+00  0.00000000000E+00  0.45593999997E+02  0.45594000000E+02  0.51100000000E-03 0. -1.
         11   -1    0    0    0    0 -0.00000000000E+00 -0.00000000000E+00 -0.45593999997E+02  0.45594000000E+02  0.51100000000E-03 0.  1.
    9900012    2    1    2    0    0  0.49448389846E+00  0.10684938664E+01  0.82079610323E-01  0.90007775220E+02  0.90000037053E+02 0.  0.
         12    1    1    2    0    0 -0.49448389846E+00 -0.10684938664E+01 -0.82079610323E-01  0.11802247797E+01  0.00000000000E+00 0. -1.
         11    1    3    3    0    0 -0.22721370163E+00 -0.14328615640E+02  0.35824087643E+02  0.38584013632E+02  0.51100000000E-03 0. -1.
        -11    1    3    3    0    0 -0.72795925944E+01  0.21763144068E+01  0.41398595809E+01  0.86525863387E+01  0.51100000000E-03 0.  1.
        -12    1    3    3    0    0  0.80012901945E+01  0.13220795100E+02 -0.39881867614E+02  0.42771175249E+02  0.00000000000E+00 0.  1.
</event>
<event>
 7    1  0.2569312E-015  0.9000770E+02  0.7816164E-02  0.1186339E+00
        -11   -1    0    0    0    0  0.00000000000E+00  0.00000000000E+00  0.45593999997E+02  0.45594000000E+02  0.51100000000E-03 0.  1.
         11   -1    0    0    0    0 -0.00000000000E+00 -0.00000000000E+00 -0.45593999997E+02  0.45594000000E+02  0.51100000000E-03 0. -1.
    9900012    2    1    2    0    0  0.19742988106E+00  0.87267963616E+00  0.76978611659E+00  0.90007695391E+02  0.89999956170E+02 0.  0.
         12    1    1    2    0    0 -0.19742988106E+00 -0.87267963616E+00 -0.76978611659E+00  0.11803046092E+01  0.00000000000E+00 0. -1.
         11    1    3    3    0    0 -0.11427679053E+02 -0.34602088022E+02  0.21168851212E+01  0.36501747176E+02  0.51100000000E-03 0. -1.
        -11    1    3    3    0    0 -0.16405592984E+01 -0.47948228377E+01 -0.90892454279E+01  0.10406543305E+02  0.51100000000E-03 0.  1.
        -12    1    3    3    0    0  0.13265668233E+02  0.40269590495E+02  0.77421464233E+01  0.43099404910E+02  0.00000000000E+00 0.  1.
</event>
<event>
 7    1  0.2569312E-015  0.9000784E+02  0.7816164E-02  0.1186339E+00
        -11   -1    0    0    0    0  0.00000000000E+00  0.00000000000E+00  0.45593999997E+02  0.45594000000E+02  0.51100000000E-03 0.  1.
         11   -1    0    0    0    0 -0.00000000000E+00 -0.00000000000E+00 -0.45593999997E+02  0.45594000000E+02  0.51100000000E-03 0. -1.
    9900012    2    1    2    0    0 -0.40377387864E+00  0.84676454834E+00  0.71605366783E+00  0.90007840519E+02  0.90000103214E+02 0.  0.
         12    1    1    2    0    0  0.40377387864E+00 -0.84676454834E+00 -0.71605366783E+00  0.11801594810E+01  0.00000000000E+00 0. -1.
         11    1    3    3    0    0  0.65871221871E+01 -0.74800969052E+01 -0.14603637171E+02  0.17680730960E+02  0.51100000000E-03 0. -1.
        -11    1    3    3    0    0  0.18385096783E+02 -0.97509454420E+01 -0.17414251247E+02  0.27135748884E+02  0.51100000000E-03 0.  1.
         12    1    3    3    0    0 -0.25375992849E+02  0.18077806896E+02  0.32733942085E+02  0.45191360675E+02  0.00000000000E+00 0. -1.
</event>
<event>
 7    1  0.2569312E-015  0.9000772E+02  0.7816164E-02  0.1186339E+00
        -11   -1    0    0    0    0  0.00000000000E+00  0.00000000000E+00  0.45593999997E+02  0.45594000000E+02  0.51100000000E-03 0.  1.
         11   -1    0    0    0    0 -0.00000000000E+00 -0.00000000000E+00 -0.45593999997E+02  0.45594000000E+02  0.51100000000E-03 0. -1.
    9900012    2    1    2    0    0 -0.69483321419E+00  0.23960660333E+00 -0.92350101671E+00  0.90007720945E+02  0.89999982061E+02 0.  0.
         12    1    1    2    0    0  0.69483321419E+00 -0.23960660333E+00  0.92350101671E+00  0.11802790550E+01  0.00000000000E+00 0. -1.
         11    1    3    3    0    0 -0.56497988214E+01 -0.10424091357E+02 -0.82350291276E+01  0.14435983248E+02  0.51100000000E-03 0. -1.
        -11    1    3    3    0    0  0.30330638584E+02  0.11230707699E+01  0.28136256924E+02  0.41386687217E+02  0.51100000000E-03 0.  1.
         12    1    3    3    0    0 -0.25375672977E+02  0.95406271903E+01 -0.20824728813E+02  0.34185050480E+02  0.00000000000E+00 0. -1.
</event>
<event>
 7    1  0.3953108E-015  0.9000776E+02  0.7816164E-02  0.1186339E+00
        -11   -1    0    0    0    0  0.00000000000E+00  0.00000000000E+00  0.45593999997E+02  0.45594000000E+02  0.51100000000E-03 0. -1.
         11   -1    0    0    0    0 -0.00000000000E+00 -0.00000000000E+00 -0.45593999997E+02  0.45594000000E+02  0.51100000000E-03 0.  1.
    9900012    2    1    2    0    0 -0.11205962335E+01  0.98472300614E-03 -0.37044193813E+00  0.90007760991E+02  0.90000022636E+02 0.  0.
         12    1    1    2    0    0  0.11205962335E+01 -0.98472300614E-03  0.37044193813E+00  0.11802390087E+01  0.00000000000E+00 0. -1.
         11    1    3    3    0    0 -0.56505349197E+01  0.88849299135E+01  0.34016235071E+02  0.35608633407E+02  0.51100000000E-03 0. -1.
        -11    1    3    3    0    0 -0.53240969840E+01  0.25216461166E+01  0.76998282568E+01  0.96949504010E+01  0.51100000000E-03 0.  1.
        -12    1    3    3    0    0  0.98540356703E+01 -0.11405591307E+02 -0.42086505266E+02  0.44704177183E+02  0.00000000000E+00 0.  1.
</event>
<event>
 7    1  0.2569312E-015  0.9000773E+02  0.7816164E-02  0.1186339E+00
        -11   -1    0    0    0    0  0.00000000000E+00  0.00000000000E+00  0.45593999997E+02  0.45594000000E+02  0.51100000000E-03 0.  1.
         11   -1    0    0    0    0 -0.00000000000E+00 -0.00000000000E+00 -0.45593999997E+02  0.45594000000E+02  0.51100000000E-03 0. -1.
    9900012    2    1    2    0    0  0.58680806987E+00  0.88513621503E+00  0.51501009340E+00  0.90007726631E+02  0.89999987822E+02 0.  0.
         12    1    1    2    0    0 -0.58680806987E+00 -0.88513621503E+00 -0.51501009340E+00  0.11802733693E+01  0.00000000000E+00 0. -1.
         11    1    3    3    0    0 -0.88197262496E+01  0.28938841613E+01 -0.50100993379E+01  0.10548138807E+02  0.51100000000E-03 0. -1.
        -11    1    3    3    0    0  0.24275760252E+02  0.14337077940E+02  0.33516385914E+02  0.43797402488E+02  0.51100000000E-03 0.  1.
         12    1    3    3    0    0 -0.14869225933E+02 -0.16345825886E+02 -0.27991276483E+02  0.35662185335E+02  0.00000000000E+00 0. -1.
</event>
<event>
 7    1  0.2569312E-015  0.9000788E+02  0.7816164E-02  0.1186339E+00
        -11   -1    0    0    0    0  0.00000000000E+00  0.00000000000E+00  0.45593999997E+02  0.45594000000E+02  0.51100000000E-03 0. -1.
         11   -1    0    0    0    0 -0.00000000000E+00 -0.00000000000E+00 -0.45593999997E+02  0.45594000000E+02  0.51100000000E-03 0.  1.
    9900012    2    1    2    0    0  0.70078977524E+00  0.38117558895E+00 -0.86964312159E+00  0.90007881236E+02  0.90000144468E+02 0.  0.
         12    1    1    2    0    0 -0.70078977524E+00 -0.38117558895E+00  0.86964312159E+00  0.11801187642E+01  0.00000000000E+00 0. -1.
         11    1    3    3    0    0  0.23066715648E+02  0.15335100899E+02  0.33764673412E+02  0.43672552722E+02  0.51100000000E-03 0. -1.
        -11    1    3    3    0    0 -0.86280625286E+01 -0.20949073974E+01 -0.27189768848E+01  0.92857382884E+01  0.51100000000E-03 0.  1.
        -12    1    3    3    0    0 -0.13737863344E+02 -0.12859017912E+02 -0.31915339649E+02  0.37049590225E+02  0.00000000000E+00 0.  1.
</event>
<event>
 7    1  0.2569312E-015  0.9000775E+02  0.7816164E-02  0.1186339E+00
        -11   -1    0    0    0    0  0.00000000000E+00  0.00000000000E+00  0.45593999997E+02  0.45594000000E+02  0.51100000000E-03 0.  1.
         11   -1    0    0    0    0 -0.00000000000E+00 -0.00000000000E+00 -0.45593999997E+02  0.45594000000E+02  0.51100000000E-03 0. -1.
    9900012    2    1    2    0    0 -0.95610551981E+00 -0.58971178385E+00  0.36206982838E+00  0.90007749046E+02  0.90000010534E+02 0.  0.
         12    1    1    2    0    0  0.95610551981E+00  0.58971178385E+00 -0.36206982838E+00  0.11802509537E+01  0.00000000000E+00 0. -1.
         11    1    3    3    0    0  0.15997499218E+02 -0.35008633486E+02  0.65790737655E+01  0.39048797826E+02  0.51100000000E-03 0. -1.
        -11    1    3    3    0    0 -0.44388293581E+01 -0.59698175208E+01 -0.43864442409E+01  0.86361345891E+01  0.51100000000E-03 0.  1.
        -12    1    3    3    0    0 -0.12514775380E+02  0.40388739223E+02 -0.18305596962E+01  0.42322816631E+02  0.00000000000E+00 0.  1.
</event>
<event>
 7    1  0.2569312E-015  0.9000772E+02  0.7816164E-02  0.1186339E+00
        -11   -1    0    0    0    0  0.00000000000E+00  0.00000000000E+00  0.45593999997E+02  0.45594000000E+02  0.51100000000E-03 0.  1.
         11   -1    0    0    0    0 -0.00000000000E+00 -0.00000000000E+00 -0.45593999997E+02  0.45594000000E+02  0.51100000000E-03 0. -1.
    9900012    2    1    2    0    0 -0.93253911598E+00  0.51721039056E+00  0.50588331493E+00  0.90007723033E+02  0.89999984177E+02 0.  0.
         12    1    1    2    0    0  0.93253911598E+00 -0.51721039056E+00 -0.50588331493E+00  0.11802769672E+01  0.00000000000E+00 0. -1.
         11    1    3    3    0    0 -0.12080418051E+02 -0.78000180803E+01 -0.21965005254E+01  0.14546525260E+02  0.51100000000E-03 0. -1.
        -11    1    3    3    0    0  0.84066656879E+01 -0.16348417451E+02  0.32098474794E+02  0.36989929244E+02  0.51100000000E-03 0.  1.
         12    1    3    3    0    0  0.27412132467E+01  0.24665645921E+02 -0.29396090954E+02  0.38471268528E+02  0.00000000000E+00 0. -1.
</event>
<event>
 7    1  0.2569312E-015  0.9000770E+02  0.7816164E-02  0.1186339E+00
        -11   -1    0    0    0    0  0.00000000000E+00  0.00000000000E+00  0.45593999997E+02  0.45594000000E+02  0.51100000000E-03 0. -1.
         11   -1    0    0    0    0 -0.00000000000E+00 -0.00000000000E+00 -0.45593999997E+02  0.45594000000E+02  0.51100000000E-03 0.  1.
    9900012    2    1    2    0    0 -0.61701094133E+00  0.94074679749E-01 -0.10017765364E+01  0.90007699709E+02  0.89999960546E+02 0.  0.
         12    1    1    2    0    0  0.61701094133E+00 -0.94074679749E-01  0.10017765364E+01  0.11803002906E+01  0.00000000000E+00 0. -1.
         11    1    3    3    0    0 -0.57068126473E+01  0.68288606086E+01 -0.16057297220E+02  0.18358590416E+02  0.51100000000E-03 0. -1.
        -11    1    3    3    0    0 -0.11788389106E+02 -0.19135237649E+02 -0.20476343238E+02  0.30404014049E+02  0.51100000000E-03 0.  1.
         12    1    3    3    0    0  0.16878190812E+02  0.12400451721E+02  0.35531863921E+02  0.41245095244E+02  0.00000000000E+00 0. -1.
</event>
<event>
 7    1  0.2569312E-015  0.9000752E+02  0.7816164E-02  0.1186339E+00
        -11   -1    0    0    0    0  0.00000000000E+00  0.00000000000E+00  0.45593999997E+02  0.45594000000E+02  0.51100000000E-03 0. -1.
         11   -1    0    0    0    0 -0.00000000000E+00 -0.00000000000E+00 -0.45593999997E+02  0.45594000000E+02  0.51100000000E-03 0.  1.
    9900012    2    1    2    0    0  0.90791339043E+00  0.20097231601E+00  0.72721056439E+00  0.90007520521E+02  0.89999778991E+02 0.  0.
         12    1    1    2    0    0 -0.90791339043E+00 -0.20097231601E+00 -0.72721056439E+00  0.11804794794E+01  0.00000000000E+00 0. -1.
         11    1    3    3    0    0  0.10772236019E+02  0.76874740724E-01  0.42487997412E+01  0.11580124269E+02  0.51100000000E-03 0. -1.
        -11    1    3    3    0    0  0.26652684550E+02  0.54411219957E+01  0.20789463033E+02  0.34237014703E+02  0.51100000000E-03 0.  1.
         12    1    3    3    0    0 -0.36517007178E+02 -0.53170244204E+01 -0.24311052210E+02  0.44190381550E+02  0.00000000000E+00 0. -1.
</event>
<event>
 7    1  0.2569312E-015  0.9000764E+02  0.7816164E-02  0.1186339E+00
        -11   -1    0    0    0    0  0.00000000000E+00  0.00000000000E+00  0.45593999997E+02  0.45594000000E+02  0.51100000000E-03 0. -1.
         11   -1    0    0    0    0 -0.00000000000E+00 -0.00000000000E+00 -0.45593999997E+02  0.45594000000E+02  0.51100000000E-03 0.  1.
    9900012    2    1    2    0    0 -0.10343674495E+01 -0.72073312696E-01 -0.56404188183E+00  0.90007638264E+02  0.89999898289E+02 0.  0.
         12    1    1    2    0    0  0.10343674495E+01  0.72073312696E-01  0.56404188183E+00  0.11803617359E+01  0.00000000000E+00 0. -1.
         11    1    3    3    0    0  0.84400273531E+01  0.26575701175E+01  0.11393174027E+01  0.89215909487E+01  0.51100000000E-03 0. -1.
        -11    1    3    3    0    0  0.85784084351E+01  0.28215928852E+02 -0.24738566312E+02  0.38493173365E+02  0.51100000000E-03 0.  1.
         12    1    3    3    0    0 -0.18052803238E+02 -0.30945572282E+02  0.23035207027E+02  0.42592873951E+02  0.00000000000E+00 0. -1.
</event>
<event>
 7    1  0.2569312E-015  0.9000773E+02  0.7816164E-02  0.1186339E+00
        -11   -1    0    0    0    0  0.00000000000E+00  0.00000000000E+00  0.45593999997E+02  0.45594000000E+02  0.51100000000E-03 0.  1.
         11   -1    0    0    0    0 -0.00000000000E+00 -0.00000000000E+00 -0.45593999997E+02  0.45594000000E+02  0.51100000000E-03 0. -1.
    9900012    2    1    2    0    0 -0.57300543225E+00  0.61364448432E-01  0.10300158580E+01  0.90007731603E+02  0.89999992860E+02 0.  0.
         12    1    1    2    0    0  0.57300543225E+00 -0.61364448432E-01 -0.10300158580E+01  0.11802683968E+01  0.00000000000E+00 0. -1.
         11    1    3    3    0    0  0.39178165106E+01 -0.71419317312E+01 -0.94412932775E+01  0.12469743144E+02  0.51100000000E-03 0. -1.
        -11    1    3    3    0    0 -0.22784874615E+02 -0.28632115579E+02  0.51949016827E+01  0.36958565414E+02  0.51100000000E-03 0.  1.
         12    1    3    3    0    0  0.18294052672E+02  0.35835411758E+02  0.52764074528E+01  0.40579423045E+02  0.00000000000E+00 0. -1.
</event>
<event>
 7    1  0.2569312E-015  0.9000777E+02  0.7816164E-02  0.1186339E+00
        -11   -1    0    0    0    0  0.00000000000E+00  0.00000000000E+00  0.45593999997E+02  0.45594000000E+02  0.51100000000E-03 0.  1.
         11   -1    0    0    0    0 -0.00000000000E+00 -0.00000000000E+00 -0.45593999997E+02  0.45594000000E+02  0.51100000000E-03 0. -1.
    9900012    2    1    2    0    0 -0.11474949558E+01  0.26559586686E+00  0.75256906865E-01  0.90007767209E+02  0.90000028937E+02 0.  0.
         12    1    1    2    0    0  0.11474949558E+01 -0.26559586686E+00 -0.75256906865E-01  0.11802327906E+01  0.00000000000E+00 0. -1.
         11    1    3    3    0    0  0.56634874486E+01 -0.22902522684E+02 -0.36597794133E+02  0.43543072595E+02  0.51100000000E-03 0. -1.
        -11    1    3    3    0    0 -0.62819748740E+01  0.10136081642E+01  0.77399303065E+01  0.10019836887E+02  0.51100000000E-03 0.  1.
        -12    1    3    3    0    0 -0.52900753035E+00  0.22154510386E+02  0.28933120733E+02  0.36444857728E+02  0.00000000000E+00 0.  1.
</event>
<event>
 7    1  0.2569312E-015  0.9000765E+02  0.7816164E-02  0.1186339E+00
        -11   -1    0    0    0    0  0.00000000000E+00  0.00000000000E+00  0.45593999997E+02  0.45594000000E+02  0.51100000000E-03 0. -1.
         11   -1    0    0    0    0 -0.00000000000E+00 -0.00000000000E+00 -0.45593999997E+02  0.45594000000E+02  0.51100000000E-03 0.  1.
    9900012    2    1    2    0    0 -0.72560991024E+00 -0.88904334167E+00 -0.27624498575E+00  0.90007652976E+02  0.89999913195E+02 0.  0.
         12    1    1    2    0    0  0.72560991024E+00  0.88904334167E+00  0.27624498575E+00  0.11803470241E+01  0.00000000000E+00 0. -1.
         11    1    3    3    0    0 -0.87801735353E+01 -0.39669282006E+01 -0.45163329120E+01  0.10640734462E+02  0.51100000000E-03 0. -1.
        -11    1    3    3    0    0 -0.30813506652E+02  0.50148813178E+01 -0.16455049132E+02  0.35290081737E+02  0.51100000000E-03 0.  1.
         12    1    3    3    0    0  0.38868070277E+02 -0.19369964589E+01  0.20695137058E+02  0.44076836776E+02  0.00000000000E+00 0. -1.
</event>
<event>
 7    1  0.2569312E-015  0.9000791E+02  0.7816164E-02  0.1186339E+00
        -11   -1    0    0    0    0  0.00000000000E+00  0.00000000000E+00  0.45593999997E+02  0.45594000000E+02  0.51100000000E-03 0.  1.
         11   -1    0    0    0    0 -0.00000000000E+00 -0.00000000000E+00 -0.45593999997E+02  0.45594000000E+02  0.51100000000E-03 0. -1.
    9900012    2    1    2    0    0  0.71986162284E+00 -0.73618389939E+00  0.57658004064E+00  0.90007910159E+02  0.90000173773E+02 0.  0.
         12    1    1    2    0    0 -0.71986162284E+00  0.73618389939E+00 -0.57658004064E+00  0.11800898411E+01  0.00000000000E+00 0. -1.
         11    1    3    3    0    0 -0.48677189866E+01 -0.11634985152E+02 -0.26807122146E+01  0.12893943767E+02  0.51100000000E-03 0. -1.
        -11    1    3    3    0    0 -0.82794569352E+00  0.33599659833E+02  0.27397183204E+02  0.43361599171E+02  0.51100000000E-03 0.  1.
         12    1    3    3    0    0  0.64155263030E+01 -0.22700858580E+02 -0.24139890948E+02  0.33752367221E+02  0.00000000000E+00 0. -1.
</event>
<event>
 7    1  0.2569312E-015  0.9000798E+02  0.7816164E-02  0.1186339E+00
        -11   -1    0    0    0    0  0.00000000000E+00  0.00000000000E+00  0.45593999997E+02  0.45594000000E+02  0.51100000000E-03 0. -1.
         11   -1    0    0    0    0 -0.00000000000E+00 -0.00000000000E+00 -0.45593999997E+02  0.45594000000E+02  0.51100000000E-03 0.  1.
    9900012    2    1    2    0    0 -0.63001684146E-01 -0.36557903770E+00 -0.11201932626E+01  0.90007978733E+02  0.90000243252E+02 0.  0.
         12    1    1    2    0    0  0.63001684146E-01  0.36557903770E+00  0.11201932626E+01  0.11800212670E+01  0.00000000000E+00 0. -1.
         11    1    3    3    0    0  0.89423302880E+00 -0.89827922034E+01  0.23884957845E+01  0.93378327707E+01  0.51100000000E-03 0. -1.
        -11    1    3    3    0    0 -0.25408191552E+02 -0.16366111076E+02 -0.25353180169E+02  0.39448821714E+02  0.51100000000E-03 0.  1.
         12    1    3    3    0    0  0.24450956839E+02  0.24983324241E+02  0.21844491122E+02  0.41221324249E+02  0.00000000000E+00 0. -1.
</event>
<event>
 7    1  0.2569312E-015  0.9000774E+02  0.7816164E-02  0.1186339E+00
        -11   -1    0    0    0    0  0.00000000000E+00  0.00000000000E+00  0.45593999997E+02  0.45594000000E+02  0.51100000000E-03 0.  1.
         11   -1    0    0    0    0 -0.00000000000E+00 -0.00000000000E+00 -0.45593999997E+02  0.45594000000E+02  0.51100000000E-03 0. -1.
    9900012    2    1    2    0    0 -0.26832343228E+00  0.47765964197E+00  0.10454009048E+01  0.90007737635E+02  0.89999998972E+02 0.  0.
         12    1    1    2    0    0  0.26832343228E+00 -0.47765964197E+00 -0.10454009048E+01  0.11802623647E+01  0.00000000000E+00 0. -1.
         11    1    3    3    0    0 -0.53994142595E+01  0.49770428413E+00 -0.81713436399E+01  0.98067446710E+01  0.51100000000E-03 0. -1.
        -11    1    3    3    0    0 -0.11526931178E+02  0.29190220037E+02 -0.18668720456E+02  0.36516574483E+02  0.51100000000E-03 0.  1.
         12    1    3    3    0    0  0.16658022005E+02 -0.29210264679E+02  0.27885465001E+02  0.43684418482E+02  0.00000000000E+00 0. -1.
</event>
<event>
 7    1  0.2569312E-015  0.9000779E+02  0.7816164E-02  0.1186339E+00
        -11   -1    0    0    0    0  0.00000000000E+00  0.00000000000E+00  0.45593999997E+02  0.45594000000E+02  0.51100000000E-03 0.  1.
         11   -1    0    0    0    0 -0.00000000000E+00 -0.00000000000E+00 -0.45593999997E+02  0.45594000000E+02  0.51100000000E-03 0. -1.
    9900012    2    1    2    0    0  0.24807566769E+00 -0.71162273436E+00  0.90827181535E+00  0.90007785552E+02  0.90000047521E+02 0.  0.
         12    1    1    2    0    0 -0.24807566769E+00  0.71162273436E+00 -0.90827181535E+00  0.11802144481E+01  0.00000000000E+00 0. -1.
         11    1    3    3    0    0  0.90778013639E+01  0.29820013201E+01 -0.18602032887E+01  0.97344319819E+01  0.51100000000E-03 0. -1.
        -11    1    3    3    0    0  0.20991970286E+02 -0.30333491323E+02 -0.10134251012E+02  0.38255542816E+02  0.51100000000E-03 0.  1.
         12    1    3    3    0    0 -0.29821695982E+02  0.26639867269E+02  0.12902726116E+02  0.42017810754E+02  0.00000000000E+00 0. -1.
</event>
<event>
 7    1  0.2569312E-015  0.9000798E+02  0.7816164E-02  0.1186339E+00
        -11   -1    0    0    0    0  0.00000000000E+00  0.00000000000E+00  0.45593999997E+02  0.45594000000E+02  0.51100000000E-03 0.  1.
         11   -1    0    0    0    0 -0.00000000000E+00 -0.00000000000E+00 -0.45593999997E+02  0.45594000000E+02  0.51100000000E-03 0. -1.
    9900012    2    1    2    0    0 -0.84695147711E+00 -0.79168219457E+00  0.21989249926E+00  0.90007982961E+02  0.90000247535E+02 0.  0.
         12    1    1    2    0    0  0.84695147711E+00  0.79168219457E+00 -0.21989249926E+00  0.11800170393E+01  0.00000000000E+00 0. -1.
         11    1    3    3    0    0 -0.66365513491E+01  0.33157662767E+02 -0.62749008298E+01  0.34392568888E+02  0.51100000000E-03 0. -1.
        -11    1    3    3    0    0 -0.84590315311E+01  0.75299430186E+01  0.36583269945E+00  0.11330890968E+02  0.51100000000E-03 0.  1.
        -12    1    3    3    0    0  0.14248631403E+02 -0.41479287980E+02  0.61289606296E+01  0.44284523105E+02  0.00000000000E+00 0.  1.
</event>
<event>
 7    1  0.2569312E-015  0.9000775E+02  0.7816164E-02  0.1186339E+00
        -11   -1    0    0    0    0  0.00000000000E+00  0.00000000000E+00  0.45593999997E+02  0.45594000000E+02  0.51100000000E-03 0.  1.
         11   -1    0    0    0    0 -0.00000000000E+00 -0.00000000000E+00 -0.45593999997E+02  0.45594000000E+02  0.51100000000E-03 0. -1.
    9900012    2    1    2    0    0  0.46743293618E+00  0.10253045726E+01 -0.35106987954E+00  0.90007748723E+02  0.90000010206E+02 0.  0.
         12    1    1    2    0    0 -0.46743293618E+00 -0.10253045726E+01  0.35106987954E+00  0.11802512769E+01  0.00000000000E+00 0. -1.
         11    1    3    3    0    0 -0.80156711543E+01  0.16591302440E+00 -0.38186137183E+02  0.39018708134E+02  0.51100000000E-03 0. -1.
        -11    1    3    3    0    0  0.50235137276E+01 -0.98225881540E+01 -0.49949019885E+00  0.11043931317E+02  0.51100000000E-03 0.  1.
        -12    1    3    3    0    0  0.34595903629E+01  0.10681979702E+02  0.38334557503E+02  0.39945109272E+02  0.00000000000E+00 0.  1.
</event>
<event>
 7    1  0.2569312E-015  0.9000736E+02  0.7816164E-02  0.1186340E+00
        -11   -1    0    0    0    0  0.00000000000E+00  0.00000000000E+00  0.45593999997E+02  0.45594000000E+02  0.51100000000E-03 0.  1.
         11   -1    0    0    0    0 -0.00000000000E+00 -0.00000000000E+00 -0.45593999997E+02  0.45594000000E+02  0.51100000000E-03 0. -1.
    9900012    2    1    2    0    0 -0.67871014876E+00 -0.53832507305E+00 -0.80216128622E+00  0.90007362850E+02  0.89999619239E+02 0.  0.
         12    1    1    2    0    0  0.67871014876E+00  0.53832507305E+00  0.80216128622E+00  0.11806371498E+01  0.00000000000E+00 0. -1.
         11    1    3    3    0    0  0.72282265180E+01 -0.38523794279E+01 -0.40731260139E+01  0.91475921224E+01  0.51100000000E-03 0. -1.
        -11    1    3    3    0    0 -0.44195576195E+01 -0.19632592122E+02  0.35699593056E+02  0.40980874900E+02  0.51100000000E-03 0.  1.
         12    1    3    3    0    0 -0.34873790472E+01  0.22946646477E+02 -0.32428628328E+02  0.39878895827E+02  0.00000000000E+00 0. -1.
</event>
<event>
 7    1  0.2569312E-015  0.9000770E+02  0.7816164E-02  0.1186339E+00
        -11   -1    0    0    0    0  0.00000000000E+00  0.00000000000E+00  0.45593999997E+02  0.45594000000E+02  0.51100000000E-03 0.  1.
         11   -1    0    0    0    0 -0.00000000000E+00 -0.00000000000E+00 -0.45593999997E+02  0.45594000000E+02  0.51100000000E-03 0. -1.
    9900012    2    1    2    0    0 -0.48426821709E+00  0.89352812570E+00  0.60016026893E+00  0.90007703187E+02  0.89999964069E+02 0.  0.
         12    1    1    2    0    0  0.48426821709E+00 -0.89352812570E+00 -0.60016026893E+00  0.11802968126E+01  0.00000000000E+00 0. -1.
         11    1    3    3    0    0  0.55071080277E+01 -0.56098503529E+01 -0.37861145016E+02  0.38668656067E+02  0.51100000000E-03 0. -1.
        -11    1    3    3    0    0  0.45508501177E+01  0.69035833179E+01 -0.28159405889E+01  0.87349425346E+01  0.51100000000E-03 0.  1.
        -12    1    3    3    0    0 -0.10542226362E+02 -0.40020483934E+00  0.41277245874E+02  0.42604104586E+02  0.00000000000E+00 0.  1.
</event>
<event>
 7    1  0.2569312E-015  0.9000765E+02  0.7816164E-02  0.1186339E+00
        -11   -1    0    0    0    0  0.00000000000E+00  0.00000000000E+00  0.45593999997E+02  0.45594000000E+02  0.51100000000E-03 0. -1.
         11   -1    0    0    0    0 -0.00000000000E+00 -0.00000000000E+00 -0.45593999997E+02  0.45594000000E+02  0.51100000000E-03 0.  1.
    9900012    2    1    2    0    0 -0.40686562012E+00 -0.11057029959E+01 -0.71502739724E-01  0.90007647769E+02  0.89999907919E+02 0.  0.
         12    1    1    2    0    0  0.40686562012E+00  0.11057029959E+01  0.71502739724E-01  0.11803522312E+01  0.00000000000E+00 0. -1.
         11    1    3    3    0    0  0.16134054556E+01 -0.12603372634E+02  0.26971153957E+02  0.29814278877E+02  0.51100000000E-03 0. -1.
        -11    1    3    3    0    0  0.33102985176E+01  0.98272463291E+01  0.14749242651E+02  0.18029781078E+02  0.51100000000E-03 0.  1.
        -12    1    3    3    0    0 -0.53305695933E+01  0.16704233092E+01 -0.41791899348E+02  0.42163587814E+02  0.00000000000E+00 0.  1.
</event>
<event>
 7    1  0.2569312E-015  0.9000775E+02  0.7816164E-02  0.1186339E+00
        -11   -1    0    0    0    0  0.00000000000E+00  0.00000000000E+00  0.45593999997E+02  0.45594000000E+02  0.51100000000E-03 0.  1.
         11   -1    0    0    0    0 -0.00000000000E+00 -0.00000000000E+00 -0.45593999997E+02  0.45594000000E+02  0.51100000000E-03 0. -1.
    9900012    2    1    2    0    0  0.63392716458E+00  0.56252501954E+00  0.82139913882E+00  0.90007748081E+02  0.90000009555E+02 0.  0.
         12    1    1    2    0    0 -0.63392716458E+00 -0.56252501954E+00 -0.82139913882E+00  0.11802519192E+01  0.00000000000E+00 0. -1.
         11    1    3    3    0    0 -0.20966299317E+02 -0.12764268990E+02 -0.28173296999E+02  0.37366387756E+02  0.51100000000E-03 0. -1.
        -11    1    3    3    0    0  0.46477305942E+00  0.18105372062E+01 -0.81601865917E+01  0.83715413422E+01  0.51100000000E-03 0.  1.
        -12    1    3    3    0    0  0.21135453422E+02  0.11516256804E+02  0.37154882729E+02  0.44269818982E+02  0.00000000000E+00 0.  1.
</event>
<event>
 7    1  0.2569312E-015  0.9000801E+02  0.7816164E-02  0.1186338E+00
        -11   -1    0    0    0    0  0.00000000000E+00  0.00000000000E+00  0.45593999997E+02  0.45594000000E+02  0.51100000000E-03 0. -1.
         11   -1    0    0    0    0 -0.00000000000E+00 -0.00000000000E+00 -0.45593999997E+02  0.45594000000E+02  0.51100000000E-03 0.  1.
    9900012    2    1    2    0    0  0.57596051167E+00 -0.34732407668E+00 -0.96953702699E+00  0.90008014165E+02  0.90000279151E+02 0.  0.
         12    1    1    2    0    0 -0.57596051167E+00  0.34732407668E+00  0.96953702699E+00  0.11799858355E+01  0.00000000000E+00 0. -1.
         11    1    3    3    0    0 -0.26728489702E+02 -0.26742315825E+02  0.35999780404E+00  0.37811284243E+02  0.51100000000E-03 0. -1.
        -11    1    3    3    0    0  0.19484856631E+01 -0.64675290912E+01 -0.76561127816E+01  0.10209877184E+02  0.51100000000E-03 0.  1.
        -12    1    3    3    0    0  0.25355964551E+02  0.32862520840E+02  0.63265779505E+01  0.41986852737E+02  0.00000000000E+00 0.  1.
</event>
<event>
 7    1  0.2569312E-015  0.9000776E+02  0.7816164E-02  0.1186339E+00
        -11   -1    0    0    0    0  0.00000000000E+00  0.00000000000E+00  0.45593999997E+02  0.45594000000E+02  0.51100000000E-03 0.  1.
         11   -1    0    0    0    0 -0.00000000000E+00 -0.00000000000E+00 -0.45593999997E+02  0.45594000000E+02  0.51100000000E-03 0. -1.
    9900012    2    1    2    0    0 -0.92657873622E+00 -0.68415551644E+00  0.25757475391E+00  0.90007762024E+02  0.90000023683E+02 0.  0.
         12    1    1    2    0    0  0.92657873622E+00  0.68415551644E+00 -0.25757475391E+00  0.11802379756E+01  0.00000000000E+00 0. -1.
         11    1    3    3    0    0  0.12249169938E+02 -0.11051678610E+02  0.90111226250E+01  0.18798459924E+02  0.51100000000E-03 0. -1.
        -11    1    3    3    0    0 -0.27066389044E+02 -0.39834397713E+01  0.21611769575E+02  0.34864391472E+02  0.51100000000E-03 0.  1.
         12    1    3    3    0    0  0.13890640370E+02  0.14350962865E+02 -0.30365317446E+02  0.36344910629E+02  0.00000000000E+00 0. -1.
</event>
<event>
 7    1  0.2569312E-015  0.9000761E+02  0.7816164E-02  0.1186339E+00
        -11   -1    0    0    0    0  0.00000000000E+00  0.00000000000E+00  0.45593999997E+02  0.45594000000E+02  0.51100000000E-03 0.  1.
         11   -1    0    0    0    0 -0.00000000000E+00 -0.00000000000E+00 -0.45593999997E+02  0.45594000000E+02  0.51100000000E-03 0. -1.
    9900012    2    1    2    0    0  0.11112732883E+01  0.89122281407E-01  0.38786584690E+00  0.90007614039E+02  0.89999873744E+02 0.  0.
         12    1    1    2    0    0 -0.11112732883E+01 -0.89122281407E-01 -0.38786584690E+00  0.11803859612E+01  0.00000000000E+00 0. -1.
         11    1    3    3    0    0 -0.27032434100E+01  0.64355397805E+01  0.71332235635E+01  0.99803094074E+01  0.51100000000E-03 0. -1.
        -11    1    3    3    0    0  0.19524465955E+02 -0.33748869943E+02  0.14896087280E+02  0.41738284702E+02  0.51100000000E-03 0.  1.
         12    1    3    3    0    0 -0.15709949257E+02  0.27402452444E+02 -0.21641444997E+02  0.38289019930E+02  0.00000000000E+00 0. -1.
</event>
<event>
 7    1  0.2569312E-015  0.9000777E+02  0.7816164E-02  0.1186339E+00
        -11   -1    0    0    0    0  0.00000000000E+00  0.00000000000E+00  0.45593999997E+02  0.45594000000E+02  0.51100000000E-03 0.  1.
         11   -1    0    0    0    0 -0.00000000000E+00 -0.00000000000E+00 -0.45593999997E+02  0.45594000000E+02  0.51100000000E-03 0. -1.
    9900012    2    1    2    0    0  0.42942936632E+00  0.97759682006E+00 -0.50282515970E+00  0.90007771944E+02  0.90000033734E+02 0.  0.
         12    1    1    2    0    0 -0.42942936632E+00 -0.97759682006E+00  0.50282515970E+00  0.11802280561E+01  0.00000000000E+00 0. -1.
         11    1    3    3    0    0 -0.59068639803E+01 -0.56706715720E+01  0.70057524026E+01  0.10776276033E+02  0.51100000000E-03 0. -1.
        -11    1    3    3    0    0 -0.10882035400E+02  0.20240429654E+02  0.28779173356E+02  0.36828446972E+02  0.51100000000E-03 0.  1.
         12    1    3    3    0    0  0.17218328746E+02 -0.13592161262E+02 -0.36287750918E+02  0.42403048939E+02  0.00000000000E+00 0. -1.
</event>
<event>
 7    1  0.2569312E-015  0.9000775E+02  0.7816164E-02  0.1186339E+00
        -11   -1    0    0    0    0  0.00000000000E+00  0.00000000000E+00  0.45593999997E+02  0.45594000000E+02  0.51100000000E-03 0. -1.
         11   -1    0    0    0    0 -0.00000000000E+00 -0.00000000000E+00 -0.45593999997E+02  0.45594000000E+02  0.51100000000E-03 0.  1.
    9900012    2    1    2    0    0  0.88594032955E+00 -0.63322619314E+00 -0.45511561388E+00  0.90007747527E+02  0.90000008994E+02 0.  0.
         12    1    1    2    0    0 -0.88594032955E+00  0.63322619314E+00  0.45511561388E+00  0.11802524735E+01  0.00000000000E+00 0. -1.
         11    1    3    3    0    0  0.29258133222E+00  0.84245028685E+01 -0.32379601483E+01  0.90300741193E+01  0.51100000000E-03 0. -1.
        -11    1    3    3    0    0 -0.16491101904E+01 -0.53695093313E+01 -0.38783329188E+02  0.39187980530E+02  0.51100000000E-03 0.  1.
         12    1    3    3    0    0  0.22424691878E+01 -0.36882197303E+01  0.41566173722E+02  0.41789692877E+02  0.00000000000E+00 0. -1.
</event>
<event>
 7    1  0.2569312E-015  0.9000773E+02  0.7816164E-02  0.1186339E+00
        -11   -1    0    0    0    0  0.00000000000E+00  0.00000000000E+00  0.45593999997E+02  0.45594000000E+02  0.51100000000E-03 0.  1.
         11   -1    0    0    0    0 -0.00000000000E+00 -0.00000000000E+00 -0.45593999997E+02  0.45594000000E+02  0.51100000000E-03 0. -1.
    9900012    2    1    2    0    0 -0.52103019985E+00 -0.10588795119E+01 -0.18707132656E-01  0.90007725351E+02  0.89999986526E+02 0.  0.
         12    1    1    2    0    0  0.52103019985E+00  0.10588795119E+01  0.18707132656E-01  0.11802746488E+01  0.00000000000E+00 0. -1.
         11    1    3    3    0    0 -0.31373707204E+02  0.10693974118E+02 -0.24793321680E+02  0.41392987164E+02  0.51100000000E-03 0. -1.
        -11    1    3    3    0    0  0.11806734164E+02 -0.13179687799E+00 -0.37611157636E+01  0.12392027037E+02  0.51100000000E-03 0.  1.
        -12    1    3    3    0    0  0.19045942840E+02 -0.11621056752E+02  0.28535730311E+02  0.36222711150E+02  0.00000000000E+00 0.  1.
</event>
<event>
 7    1  0.2569312E-015  0.9000777E+02  0.7816164E-02  0.1186339E+00
        -11   -1    0    0    0    0  0.00000000000E+00  0.00000000000E+00  0.45593999997E+02  0.45594000000E+02  0.51100000000E-03 0.  1.
         11   -1    0    0    0    0 -0.00000000000E+00 -0.00000000000E+00 -0.45593999997E+02  0.45594000000E+02  0.51100000000E-03 0. -1.
    9900012    2    1    2    0    0 -0.84631715083E+00 -0.36433308334E-01  0.82180919006E+00  0.90007766781E+02  0.90000028503E+02 0.  0.
         12    1    1    2    0    0  0.84631715083E+00  0.36433308334E-01 -0.82180919006E+00  0.11802332187E+01  0.00000000000E+00 0. -1.
         11    1    3    3    0    0 -0.77008877598E+01 -0.14008542228E+01 -0.56450233204E+01  0.96505105250E+01  0.51100000000E-03 0. -1.
        -11    1    3    3    0    0 -0.35804213053E+02 -0.52818621294E+01 -0.24428945206E+01  0.36274060619E+02  0.51100000000E-03 0.  1.
         12    1    3    3    0    0  0.42658783662E+02  0.66462830439E+01  0.89097270311E+01  0.44083195637E+02  0.00000000000E+00 0. -1.
</event>
<event>
 7    1  0.2569312E-015  0.9000771E+02  0.7816164E-02  0.1186339E+00
        -11   -1    0    0    0    0  0.00000000000E+00  0.00000000000E+00  0.45593999997E+02  0.45594000000E+02  0.51100000000E-03 0.  1.
         11   -1    0    0    0    0 -0.00000000000E+00 -0.00000000000E+00 -0.45593999997E+02  0.45594000000E+02  0.51100000000E-03 0. -1.
    9900012    2    1    2    0    0 -0.39160159219E+00  0.10884639072E+01  0.23448764414E+00  0.90007707689E+02  0.89999968630E+02 0.  0.
         12    1    1    2    0    0  0.39160159219E+00 -0.10884639072E+01 -0.23448764414E+00  0.11802923111E+01  0.00000000000E+00 0. -1.
         11    1    3    3    0    0  0.67704123587E+01 -0.58361171731E+01  0.17277698617E+01  0.91040615179E+01  0.51100000000E-03 0. -1.
        -11    1    3    3    0    0 -0.23995883067E+02 -0.15425533247E+02  0.28194375382E+02  0.40108257049E+02  0.51100000000E-03 0.  1.
         12    1    3    3    0    0  0.16833869116E+02  0.22350114327E+02 -0.29687657599E+02  0.40795389122E+02  0.00000000000E+00 0. -1.
</event>
<event>
 7    1  0.2569312E-015  0.9000765E+02  0.7816164E-02  0.1186339E+00
        -11   -1    0    0    0    0  0.00000000000E+00  0.00000000000E+00  0.45593999997E+02  0.45594000000E+02  0.51100000000E-03 0. -1.
         11   -1    0    0    0    0 -0.00000000000E+00 -0.00000000000E+00 -0.45593999997E+02  0.45594000000E+02  0.51100000000E-03 0.  1.
    9900012    2    1    2    0    0  0.11796756767E+01 -0.25613483859E-01 -0.30555311638E-01  0.90007650738E+02  0.89999910928E+02 0.  0.
         12    1    1    2    0    0 -0.11796756767E+01  0.25613483859E-01  0.30555311638E-01  0.11803492618E+01  0.00000000000E+00 0. -1.
         11    1    3    3    0    0  0.28744441803E+02 -0.12246722077E+02  0.26033672372E+02  0.40669118919E+02  0.51100000000E-03 0. -1.
        -11    1    3    3    0    0 -0.49955732839E+01 -0.37821696799E+01  0.47968993548E+01  0.78911851837E+01  0.51100000000E-03 0.  1.
        -12    1    3    3    0    0 -0.22569192843E+02  0.16003278273E+02 -0.30861127038E+02  0.41447346636E+02  0.00000000000E+00 0.  1.
</event>
<event>
 7    1  0.2569312E-015  0.9000712E+02  0.7816164E-02  0.1186340E+00
        -11   -1    0    0    0    0  0.00000000000E+00  0.00000000000E+00  0.45593999997E+02  0.45594000000E+02  0.51100000000E-03 0.  1.
         11   -1    0    0    0    0 -0.00000000000E+00 -0.00000000000E+00 -0.45593999997E+02  0.45594000000E+02  0.51100000000E-03 0. -1.
    9900012    2    1    2    0    0  0.68687728770E+00  0.95189054011E+00 -0.12880195486E+00  0.90007116453E+02  0.89999369588E+02 0.  0.
         12    1    1    2    0    0 -0.68687728770E+00 -0.95189054011E+00  0.12880195486E+00  0.11808835473E+01  0.00000000000E+00 0. -1.
         11    1    3    3    0    0  0.22895391713E+02  0.16087604312E+02 -0.23183768170E+02  0.36338644457E+02  0.51100000000E-03 0. -1.
        -11    1    3    3    0    0  0.65158891317E+01  0.38307591061E+01 -0.51677173303E+01  0.91562453644E+01  0.51100000000E-03 0.  1.
        -12    1    3    3    0    0 -0.28724403557E+02 -0.18966472878E+02  0.28222683546E+02  0.44512226631E+02  0.00000000000E+00 0.  1.
</event>
<event>
 7    1  0.2569312E-015  0.9000780E+02  0.7816164E-02  0.1186339E+00
        -11   -1    0    0    0    0  0.00000000000E+00  0.00000000000E+00  0.45593999997E+02  0.45594000000E+02  0.51100000000E-03 0.  1.
         11   -1    0    0    0    0 -0.00000000000E+00 -0.00000000000E+00 -0.45593999997E+02  0.45594000000E+02  0.51100000000E-03 0. -1.
    9900012    2    1    2    0    0 -0.81603215970E+00  0.34223196188E+00  0.78091987123E+00  0.90007802115E+02  0.90000064303E+02 0.  0.
         12    1    1    2    0    0  0.81603215970E+00 -0.34223196188E+00 -0.78091987123E+00  0.11801978845E+01  0.00000000000E+00 0. -1.
         11    1    3    3    0    0 -0.33478063933E+02  0.15811469782E+02  0.73288189832E+01  0.37742481758E+02  0.51100000000E-03 0. -1.
        -11    1    3    3    0    0 -0.31998851823E+01  0.73090256853E+01  0.33330439141E+01  0.86469823432E+01  0.51100000000E-03 0.  1.
        -12    1    3    3    0    0  0.35861916955E+02 -0.22778263505E+02 -0.98809430261E+01  0.43618338014E+02  0.00000000000E+00 0.  1.
</event>
<event>
 7    1  0.2569312E-015  0.9000769E+02  0.7816164E-02  0.1186339E+00
        -11   -1    0    0    0    0  0.00000000000E+00  0.00000000000E+00  0.45593999997E+02  0.45594000000E+02  0.51100000000E-03 0. -1.
         11   -1    0    0    0    0 -0.00000000000E+00 -0.00000000000E+00 -0.45593999997E+02  0.45594000000E+02  0.51100000000E-03 0.  1.
    9900012    2    1    2    0    0  0.10844837041E+01  0.38304242339E+00  0.26515684408E+00  0.90007688789E+02  0.89999949481E+02 0.  0.
         12    1    1    2    0    0 -0.10844837041E+01 -0.38304242339E+00 -0.26515684408E+00  0.11803112108E+01  0.00000000000E+00 0. -1.
         11    1    3    3    0    0 -0.24885954596E+02  0.17195063966E+02 -0.17110719449E+02  0.34752808250E+02  0.51100000000E-03 0. -1.
        -11    1    3    3    0    0 -0.81743099826E+01  0.49334810451E+01 -0.29017539666E+01  0.99789155351E+01  0.51100000000E-03 0.  1.
        -12    1    3    3    0    0  0.34144748282E+02 -0.21745502588E+02  0.20277630260E+02  0.45275965004E+02  0.00000000000E+00 0.  1.
</event>
<event>
 7    1  0.2569312E-015  0.9000842E+02  0.7816164E-02  0.1186338E+00
        -11   -1    0    0    0    0  0.00000000000E+00  0.00000000000E+00  0.45593999997E+02  0.45594000000E+02  0.51100000000E-03 0.  1.
         11   -1    0    0    0    0 -0.00000000000E+00 -0.00000000000E+00 -0.45593999997E+02  0.45594000000E+02  0.51100000000E-03 0. -1.
    9900012    2    1    2    0    0 -0.99157078005E+00 -0.15716523534E+00  0.61927630729E+00  0.90008416740E+02  0.90000687038E+02 0.  0.
         12    1    1    2    0    0  0.99157078005E+00  0.15716523534E+00 -0.61927630729E+00  0.11795832602E+01  0.00000000000E+00 0. -1.
         11    1    3    3    0    0 -0.54722852404E+01  0.95301805375E+01  0.27583617989E+00  0.10993012903E+02  0.51100000000E-03 0. -1.
        -11    1    3    3    0    0  0.86908483193E+01  0.32079092366E+02  0.12185506997E+02  0.35398949032E+02  0.51100000000E-03 0.  1.
         12    1    3    3    0    0 -0.42101338590E+01 -0.41766438139E+02 -0.11842066870E+02  0.43616454804E+02  0.00000000000E+00 0. -1.
</event>
<event>
 7    1  0.2569312E-015  0.9000770E+02  0.7816164E-02  0.1186339E+00
        -11   -1    0    0    0    0  0.00000000000E+00  0.00000000000E+00  0.45593999997E+02  0.45594000000E+02  0.51100000000E-03 0.  1.
         11   -1    0    0    0    0 -0.00000000000E+00 -0.00000000000E+00 -0.45593999997E+02  0.45594000000E+02  0.51100000000E-03 0. -1.
    9900012    2    1    2    0    0  0.52650748290E+00  0.97565147582E+00 -0.40498371124E+00  0.90007695913E+02  0.89999956699E+02 0.  0.
         12    1    1    2    0    0 -0.52650748290E+00 -0.97565147582E+00  0.40498371124E+00  0.11803040872E+01  0.00000000000E+00 0. -1.
         11    1    3    3    0    0 -0.30085879825E+02  0.23721896848E+02  0.58906539239E+01  0.38763234628E+02  0.51100000000E-03 0. -1.
        -11    1    3    3    0    0 -0.34288485732E+01 -0.10232148291E+02 -0.10095425252E+02  0.14777397351E+02  0.51100000000E-03 0.  1.
        -12    1    3    3    0    0  0.34041235881E+02 -0.12514097081E+02  0.37997876169E+01  0.36467063934E+02  0.00000000000E+00 0.  1.
</event>
<event>
 7    1  0.2569312E-015  0.9000730E+02  0.7816164E-02  0.1186340E+00
        -11   -1    0    0    0    0  0.00000000000E+00  0.00000000000E+00  0.45593999997E+02  0.45594000000E+02  0.51100000000E-03 0.  1.
         11   -1    0    0    0    0 -0.00000000000E+00 -0.00000000000E+00 -0.45593999997E+02  0.45594000000E+02  0.51100000000E-03 0. -1.
    9900012    2    1    2    0    0  0.28096972409E+00 -0.67465513488E+00  0.92733936875E+00  0.90007296040E+02  0.89999551546E+02 0.  0.
         12    1    1    2    0    0 -0.28096972409E+00  0.67465513488E+00 -0.92733936875E+00  0.11807039602E+01  0.00000000000E+00 0. -1.
         11    1    3    3    0    0 -0.22372608204E+02  0.46897506368E+01 -0.36763269785E+01  0.23152596813E+02  0.51100000000E-03 0. -1.
        -11    1    3    3    0    0 -0.18737182432E+02  0.11468491481E+02  0.26725346059E+01  0.22130312782E+02  0.51100000000E-03 0.  1.
         12    1    3    3    0    0  0.41390760360E+02 -0.16832897253E+02  0.19311317413E+01  0.44724386445E+02  0.00000000000E+00 0. -1.
</event>
<event>
 7    1  0.2569312E-015  0.9000775E+02  0.7816164E-02  0.1186339E+00
        -11   -1    0    0    0    0  0.00000000000E+00  0.00000000000E+00  0.45593999997E+02  0.45594000000E+02  0.51100000000E-03 0.  1.
         11   -1    0    0    0    0 -0.00000000000E+00 -0.00000000000E+00 -0.45593999997E+02  0.45594000000E+02  0.51100000000E-03 0. -1.
    9900012    2    1    2    0    0  0.13680213924E+00 -0.61504441535E+00  0.99799494952E+00  0.90007750714E+02  0.90000012223E+02 0.  0.
         12    1    1    2    0    0 -0.13680213924E+00  0.61504441535E+00 -0.99799494952E+00  0.11802492861E+01  0.00000000000E+00 0. -1.
         11    1    3    3    0    0  0.34083341756E+02  0.78987915705E+01  0.14618958748E+02  0.37918057026E+02  0.51100000000E-03 0. -1.
        -11    1    3    3    0    0  0.60707327446E+01 -0.66057168264E+01  0.18199874576E+01  0.91543238666E+01  0.51100000000E-03 0.  1.
        -12    1    3    3    0    0 -0.40017272361E+02 -0.19081191595E+01 -0.15440951256E+02  0.42935369821E+02  0.00000000000E+00 0.  1.
</event>
<event>
 7    1  0.2569312E-015  0.9000761E+02  0.7816164E-02  0.1186339E+00
        -11   -1    0    0    0    0  0.00000000000E+00  0.00000000000E+00  0.45593999997E+02  0.45594000000E+02  0.51100000000E-03 0.  1.
         11   -1    0    0    0    0 -0.00000000000E+00 -0.00000000000E+00 -0.45593999997E+02  0.45594000000E+02  0.51100000000E-03 0. -1.
    9900012    2    1    2    0    0 -0.23616582176E+00 -0.11237091120E+01  0.27355913156E+00  0.90007605548E+02  0.89999865141E+02 0.  0.
         12    1    1    2    0    0  0.23616582176E+00  0.11237091120E+01 -0.27355913156E+00  0.11803944519E+01  0.00000000000E+00 0. -1.
         11    1    3    3    0    0 -0.86864953985E+01  0.10986414286E+01 -0.43247322921E+01  0.97655273773E+01  0.51100000000E-03 0. -1.
        -11    1    3    3    0    0 -0.30814171852E+01  0.37646138757E+02 -0.35796955721E+01  0.37941285110E+02  0.51100000000E-03 0.  1.
         12    1    3    3    0    0  0.11531746762E+02 -0.39868489297E+02  0.81779869957E+01  0.42300793060E+02  0.00000000000E+00 0. -1.
</event>
<event>
 7    1  0.2569312E-015  0.9000775E+02  0.7816164E-02  0.1186339E+00
        -11   -1    0    0    0    0  0.00000000000E+00  0.00000000000E+00  0.45593999997E+02  0.45594000000E+02  0.51100000000E-03 0.  1.
         11   -1    0    0    0    0 -0.00000000000E+00 -0.00000000000E+00 -0.45593999997E+02  0.45594000000E+02  0.51100000000E-03 0. -1.
    9900012    2    1    2    0    0  0.26850964122E+00 -0.47641802277E+00  0.10459024807E+01  0.90007752755E+02  0.90000014292E+02 0.  0.
         12    1    1    2    0    0 -0.26850964122E+00  0.47641802277E+00 -0.10459024807E+01  0.11802472448E+01  0.00000000000E+00 0. -1.
         11    1    3    3    0    0  0.74264925391E+00  0.59090575401E+01  0.10931740427E+02  0.12448752466E+02  0.51100000000E-03 0. -1.
        -11    1    3    3    0    0 -0.30159384065E+02 -0.16829878846E+02  0.14788103881E+02  0.37570218070E+02  0.51100000000E-03 0.  1.
         12    1    3    3    0    0  0.29685244452E+02  0.10444403283E+02 -0.24673941827E+02  0.39988782220E+02  0.00000000000E+00 0. -1.
</event>
<event>
 7    1  0.2569312E-015  0.9000774E+02  0.7816164E-02  0.1186339E+00
        -11   -1    0    0    0    0  0.00000000000E+00  0.00000000000E+00  0.45593999997E+02  0.45594000000E+02  0.51100000000E-03 0.  1.
         11   -1    0    0    0    0 -0.00000000000E+00 -0.00000000000E+00 -0.45593999997E+02  0.45594000000E+02  0.51100000000E-03 0. -1.
    9900012    2    1    2    0    0  0.39705894875E+00 -0.64990777302E+00  0.90165595921E+00  0.90007737575E+02  0.89999998911E+02 0.  0.
         12    1    1    2    0    0 -0.39705894875E+00  0.64990777302E+00 -0.90165595921E+00  0.11802624246E+01  0.00000000000E+00 0. -1.
         11    1    3    3    0    0  0.33247962350E+01  0.13318431909E+01  0.47656568026E+01  0.59615066309E+01  0.51100000000E-03 0. -1.
        -11    1    3    3    0    0  0.30124003947E+01 -0.15329180311E+01  0.39817349697E+02  0.39960552185E+02  0.51100000000E-03 0.  1.
         12    1    3    3    0    0 -0.59401376809E+01 -0.44883293281E+00 -0.43681350540E+02  0.44085678759E+02  0.00000000000E+00 0. -1.
</event>
<event>
 7    1  0.2569312E-015  0.9000774E+02  0.7816164E-02  0.1186339E+00
        -11   -1    0    0    0    0  0.00000000000E+00  0.00000000000E+00  0.45593999997E+02  0.45594000000E+02  0.51100000000E-03 0. -1.
         11   -1    0    0    0    0 -0.00000000000E+00 -0.00000000000E+00 -0.45593999997E+02  0.45594000000E+02  0.51100000000E-03 0.  1.
    9900012    2    1    2    0    0  0.82480883398E+00  0.38230326938E+00 -0.75269234952E+00  0.90007741056E+02  0.90000002438E+02 0.  0.
         12    1    1    2    0    0 -0.82480883398E+00 -0.38230326938E+00  0.75269234952E+00  0.11802589442E+01  0.00000000000E+00 0. -1.
         11    1    3    3    0    0  0.42907312595E+00 -0.49194746892E+01  0.64032463622E+01  0.80862166186E+01  0.51100000000E-03 0. -1.
        -11    1    3    3    0    0  0.99278419652E+01 -0.33462207212E+02  0.12945552057E+02  0.37227257163E+02  0.51100000000E-03 0.  1.
         12    1    3    3    0    0 -0.95321062571E+01  0.38763985171E+02 -0.20101490769E+02  0.44694267274E+02  0.00000000000E+00 0. -1.
</event>
<event>
 7    1  0.2569312E-015  0.9000795E+02  0.7816164E-02  0.1186339E+00
        -11   -1    0    0    0    0  0.00000000000E+00  0.00000000000E+00  0.45593999997E+02  0.45594000000E+02  0.51100000000E-03 0.  1.
         11   -1    0    0    0    0 -0.00000000000E+00 -0.00000000000E+00 -0.45593999997E+02  0.45594000000E+02  0.51100000000E-03 0. -1.
    9900012    2    1    2    0    0  0.45070203298E+00 -0.98349437701E+00  0.47130879086E+00  0.90007946828E+02  0.90000210926E+02 0.  0.
         12    1    1    2    0    0 -0.45070203298E+00  0.98349437701E+00 -0.47130879086E+00  0.11800531719E+01  0.00000000000E+00 0. -1.
         11    1    3    3    0    0  0.25593648785E+02 -0.27002426110E+02  0.72699060605E+00  0.37211481959E+02  0.51100000000E-03 0. -1.
        -11    1    3    3    0    0  0.31719858864E+01 -0.17382765006E+01 -0.11112230672E+02  0.11686093035E+02  0.51100000000E-03 0.  1.
        -12    1    3    3    0    0 -0.28314932638E+02  0.27757208234E+02  0.10856548857E+02  0.41110371834E+02  0.00000000000E+00 0.  1.
</event>
<event>
 7    1  0.2569312E-015  0.9000771E+02  0.7816164E-02  0.1186339E+00
        -11   -1    0    0    0    0  0.00000000000E+00  0.00000000000E+00  0.45593999997E+02  0.45594000000E+02  0.51100000000E-03 0. -1.
         11   -1    0    0    0    0 -0.00000000000E+00 -0.00000000000E+00 -0.45593999997E+02  0.45594000000E+02  0.51100000000E-03 0.  1.
    9900012    2    1    2    0    0  0.81898309333E+00  0.84379917862E+00  0.10175709820E+00  0.90007709837E+02  0.89999970807E+02 0.  0.
         12    1    1    2    0    0 -0.81898309333E+00 -0.84379917862E+00 -0.10175709820E+00  0.11802901626E+01  0.00000000000E+00 0. -1.
         11    1    3    3    0    0 -0.20033968048E+01  0.74579412299E+01  0.55740127146E+01  0.95238702296E+01  0.51100000000E-03 0. -1.
        -11    1    3    3    0    0  0.30925385246E+02 -0.20057512577E+02  0.18436431334E+02  0.41213896491E+02  0.51100000000E-03 0.  1.
         12    1    3    3    0    0 -0.28103005348E+02  0.13443370526E+02 -0.23908686950E+02  0.39269943116E+02  0.00000000000E+00 0. -1.
</event>
<event>
 7    1  0.2569312E-015  0.9000773E+02  0.7816164E-02  0.1186339E+00
        -11   -1    0    0    0    0  0.00000000000E+00  0.00000000000E+00  0.45593999997E+02  0.45594000000E+02  0.51100000000E-03 0.  1.
         11   -1    0    0    0    0 -0.00000000000E+00 -0.00000000000E+00 -0.45593999997E+02  0.45594000000E+02  0.51100000000E-03 0. -1.
    9900012    2    1    2    0    0 -0.46417849384E+00 -0.85749532509E-01 -0.10817702729E+01  0.90007728175E+02  0.89999989387E+02 0.  0.
         12    1    1    2    0    0  0.46417849384E+00  0.85749532509E-01  0.10817702729E+01  0.11802718246E+01  0.00000000000E+00 0. -1.
         11    1    3    3    0    0  0.61520827570E+01  0.27929705194E+01 -0.68136852319E+01  0.95955777977E+01  0.51100000000E-03 0. -1.
        -11    1    3    3    0    0  0.25541920676E+01 -0.59424068875E+01  0.42195552373E+02  0.42688414553E+02  0.51100000000E-03 0.  1.
         12    1    3    3    0    0 -0.91704533184E+01  0.30636868356E+01 -0.36463637414E+02  0.37723735825E+02  0.00000000000E+00 0. -1.
</event>
<event>
 7    1  0.2569312E-015  0.9000783E+02  0.7816164E-02  0.1186339E+00
        -11   -1    0    0    0    0  0.00000000000E+00  0.00000000000E+00  0.45593999997E+02  0.45594000000E+02  0.51100000000E-03 0.  1.
         11   -1    0    0    0    0 -0.00000000000E+00 -0.00000000000E+00 -0.45593999997E+02  0.45594000000E+02  0.51100000000E-03 0. -1.
    9900012    2    1    2    0    0  0.56951764125E+00 -0.27308202414E+00  0.99693812158E+00  0.90007826388E+02  0.90000088897E+02 0.  0.
         12    1    1    2    0    0 -0.56951764125E+00  0.27308202414E+00 -0.99693812158E+00  0.11801736117E+01  0.00000000000E+00 0. -1.
         11    1    3    3    0    0 -0.72011499757E+01  0.64996927014E+01  0.98517210032E+00  0.97505451393E+01  0.51100000000E-03 0. -1.
        -11    1    3    3    0    0  0.49340494916E+01  0.16636983506E+02  0.34418315612E+02  0.38545486304E+02  0.51100000000E-03 0.  1.
         12    1    3    3    0    0  0.28366181254E+01 -0.23409758232E+02 -0.34406549590E+02  0.41711794945E+02  0.00000000000E+00 0. -1.
</event>
<event>
 7    1  0.2569312E-015  0.9000769E+02  0.7816164E-02  0.1186339E+00
        -11   -1    0    0    0    0  0.00000000000E+00  0.00000000000E+00  0.45593999997E+02  0.45594000000E+02  0.51100000000E-03 0. -1.
         11   -1    0    0    0    0 -0.00000000000E+00 -0.00000000000E+00 -0.45593999997E+02  0.45594000000E+02  0.51100000000E-03 0.  1.
    9900012    2    1    2    0    0  0.48310494115E+00 -0.40074033598E+00 -0.99957921476E+00  0.90007685717E+02  0.89999946368E+02 0.  0.
         12    1    1    2    0    0 -0.48310494115E+00  0.40074033598E+00  0.99957921476E+00  0.11803142834E+01  0.00000000000E+00 0. -1.
         11    1    3    3    0    0 -0.75703206693E+01  0.17572362059E+02  0.41725056760E+01  0.19583346681E+02  0.51100000000E-03 0. -1.
        -11    1    3    3    0    0 -0.19513506697E+02  0.50313684572E+01 -0.22797188372E+02  0.30427017765E+02  0.51100000000E-03 0.  1.
         12    1    3    3    0    0  0.27566932308E+02 -0.23004470852E+02  0.17625103481E+02  0.39997321270E+02  0.00000000000E+00 0. -1.
</event>
<event>
 7    1  0.2569312E-015  0.9000775E+02  0.7816164E-02  0.1186339E+00
        -11   -1    0    0    0    0  0.00000000000E+00  0.00000000000E+00  0.45593999997E+02  0.45594000000E+02  0.51100000000E-03 0.  1.
         11   -1    0    0    0    0 -0.00000000000E+00 -0.00000000000E+00 -0.45593999997E+02  0.45594000000E+02  0.51100000000E-03 0. -1.
    9900012    2    1    2    0    0  0.99439380178E+00 -0.31029595441E+00  0.55488297684E+00  0.90007746752E+02  0.90000008209E+02 0.  0.
         12    1    1    2    0    0 -0.99439380178E+00  0.31029595441E+00 -0.55488297684E+00  0.11802532484E+01  0.00000000000E+00 0. -1.
         11    1    3    3    0    0  0.40023966307E+00 -0.29951357167E+01 -0.34880100954E+02  0.35010747958E+02  0.51100000000E-03 0. -1.
        -11    1    3    3    0    0  0.95082929532E+01  0.14615958216E+01 -0.68215734675E+01  0.11793123508E+02  0.51100000000E-03 0.  1.
        -12    1    3    3    0    0 -0.89141388145E+01  0.12232439406E+01  0.42256557399E+02  0.43203875286E+02  0.00000000000E+00 0.  1.
</event>
<event>
 7    1  0.2569312E-015  0.9000796E+02  0.7816164E-02  0.1186339E+00
        -11   -1    0    0    0    0  0.00000000000E+00  0.00000000000E+00  0.45593999997E+02  0.45594000000E+02  0.51100000000E-03 0.  1.
         11   -1    0    0    0    0 -0.00000000000E+00 -0.00000000000E+00 -0.45593999997E+02  0.45594000000E+02  0.51100000000E-03 0. -1.
    9900012    2    1    2    0    0 -0.62293478354E+00 -0.99761044073E+00 -0.96069414999E-01  0.90007956073E+02  0.90000220293E+02 0.  0.
         12    1    1    2    0    0  0.62293478354E+00  0.99761044073E+00  0.96069414999E-01  0.11800439265E+01  0.00000000000E+00 0. -1.
         11    1    3    3    0    0 -0.16285978072E+02  0.11368223386E+02 -0.35336806640E+02  0.40535903696E+02  0.51100000000E-03 0. -1.
        -11    1    3    3    0    0  0.56117945391E+01 -0.25106884456E+01 -0.42986752369E+01  0.75016267218E+01  0.51100000000E-03 0.  1.
        -12    1    3    3    0    0  0.10051248749E+02 -0.98551453809E+01  0.39539412462E+02  0.41970425656E+02  0.00000000000E+00 0.  1.
</event>
<event>
 7    1  0.2569312E-015  0.9000768E+02  0.7816164E-02  0.1186339E+00
        -11   -1    0    0    0    0  0.00000000000E+00  0.00000000000E+00  0.45593999997E+02  0.45594000000E+02  0.51100000000E-03 0.  1.
         11   -1    0    0    0    0 -0.00000000000E+00 -0.00000000000E+00 -0.45593999997E+02  0.45594000000E+02  0.51100000000E-03 0. -1.
    9900012    2    1    2    0    0  0.54075330357E+00 -0.99148035076E+00 -0.34308897337E+00  0.90007679084E+02  0.89999939648E+02 0.  0.
         12    1    1    2    0    0 -0.54075330357E+00  0.99148035076E+00  0.34308897337E+00  0.11803209161E+01  0.00000000000E+00 0. -1.
         11    1    3    3    0    0 -0.10010710511E+02 -0.20359261417E+02 -0.18231035515E+02  0.29104716226E+02  0.51100000000E-03 0. -1.
        -11    1    3    3    0    0 -0.59520249710E+01  0.87744603143E+01 -0.17490224033E+02  0.20453011809E+02  0.51100000000E-03 0.  1.
        -12    1    3    3    0    0  0.16503488786E+02  0.10593320752E+02  0.35378170575E+02  0.40449951049E+02  0.00000000000E+00 0.  1.
</event>
<event>
 7    1  0.2569312E-015  0.9000771E+02  0.7816164E-02  0.1186339E+00
        -11   -1    0    0    0    0  0.00000000000E+00  0.00000000000E+00  0.45593999997E+02  0.45594000000E+02  0.51100000000E-03 0. -1.
         11   -1    0    0    0    0 -0.00000000000E+00 -0.00000000000E+00 -0.45593999997E+02  0.45594000000E+02  0.51100000000E-03 0.  1.
    9900012    2    1    2    0    0  0.20787285652E+00  0.14789368520E-01 -0.11617432830E+01  0.90007713041E+02  0.89999974053E+02 0.  0.
         12    1    1    2    0    0 -0.20787285652E+00 -0.14789368520E-01  0.11617432830E+01  0.11802869589E+01  0.00000000000E+00 0. -1.
         11    1    3    3    0    0 -0.62682953045E+01  0.91018301783E+01 -0.22057482423E+01  0.11269434954E+02  0.51100000000E-03 0. -1.
        -11    1    3    3    0    0 -0.19390579432E+02  0.16321038272E+01 -0.30739214504E+02  0.36380731743E+02  0.51100000000E-03 0.  1.
         12    1    3    3    0    0  0.25866747593E+02 -0.10719144637E+02  0.31783219463E+02  0.42357546343E+02  0.00000000000E+00 0. -1.
</event>
<event>
 7    1  0.2569312E-015  0.9000731E+02  0.7816164E-02  0.1186340E+00
        -11   -1    0    0    0    0  0.00000000000E+00  0.00000000000E+00  0.45593999997E+02  0.45594000000E+02  0.51100000000E-03 0. -1.
         11   -1    0    0    0    0 -0.00000000000E+00 -0.00000000000E+00 -0.45593999997E+02  0.45594000000E+02  0.51100000000E-03 0.  1.
    9900012    2    1    2    0    0 -0.81198812028E+00  0.83949215704E+00  0.17310784240E+00  0.90007306088E+02  0.89999561727E+02 0.  0.
         12    1    1    2    0    0  0.81198812028E+00 -0.83949215704E+00 -0.17310784240E+00  0.11806939122E+01  0.00000000000E+00 0. -1.
         11    1    3    3    0    0  0.22802078107E+02 -0.14247194118E+02 -0.20891559102E+02  0.34049589545E+02  0.51100000000E-03 0. -1.
        -11    1    3    3    0    0  0.96648009445E+01 -0.50671402537E+01 -0.14475953821E+01  0.11008170615E+02  0.51100000000E-03 0.  1.
        -12    1    3    3    0    0 -0.33278867172E+02  0.20153826528E+02  0.22512262327E+02  0.44949545927E+02  0.00000000000E+00 0.  1.
</event>
<event>
 7    1  0.2569312E-015  0.9000778E+02  0.7816164E-02  0.1186339E+00
        -11   -1    0    0    0    0  0.00000000000E+00  0.00000000000E+00  0.45593999997E+02  0.45594000000E+02  0.51100000000E-03 0. -1.
         11   -1    0    0    0    0 -0.00000000000E+00 -0.00000000000E+00 -0.45593999997E+02  0.45594000000E+02  0.51100000000E-03 0.  1.
    9900012    2    1    2    0    0 -0.71057915527E+00 -0.75166782395E+00  0.56832007828E+00  0.90007781815E+02  0.90000043735E+02 0.  0.
         12    1    1    2    0    0  0.71057915527E+00  0.75166782395E+00 -0.56832007828E+00  0.11802181853E+01  0.00000000000E+00 0. -1.
         11    1    3    3    0    0  0.12410927769E+01 -0.25787801592E+01 -0.83820345149E+01  0.88571395642E+01  0.51100000000E-03 0. -1.
        -11    1    3    3    0    0 -0.10061875735E+02  0.11831088480E+02 -0.33427370223E+02  0.36859260413E+02  0.51100000000E-03 0.  1.
         12    1    3    3    0    0  0.81102038031E+01 -0.10003976145E+02  0.42377724816E+02  0.44291381837E+02  0.00000000000E+00 0. -1.
</event>
<event>
 7    1  0.2569312E-015  0.9000778E+02  0.7816164E-02  0.1186339E+00
        -11   -1    0    0    0    0  0.00000000000E+00  0.00000000000E+00  0.45593999997E+02  0.45594000000E+02  0.51100000000E-03 0. -1.
         11   -1    0    0    0    0 -0.00000000000E+00 -0.00000000000E+00 -0.45593999997E+02  0.45594000000E+02  0.51100000000E-03 0.  1.
    9900012    2    1    2    0    0 -0.91342541017E+00  0.74274635064E+00  0.83099133858E-01  0.90007778162E+02  0.90000040034E+02 0.  0.
         12    1    1    2    0    0  0.91342541017E+00 -0.74274635064E+00 -0.83099133858E-01  0.11802218382E+01  0.00000000000E+00 0. -1.
         11    1    3    3    0    0  0.25654957060E+01 -0.67140971809E+01 -0.49355150901E+01  0.87189551346E+01  0.51100000000E-03 0. -1.
        -11    1    3    3    0    0  0.38649675949E+02  0.33956703446E+01  0.17224088517E+01  0.38836770213E+02  0.51100000000E-03 0.  1.
         12    1    3    3    0    0 -0.42128597065E+02  0.40611731870E+01  0.32962053723E+01  0.42452052815E+02  0.00000000000E+00 0. -1.
</event>
<event>
 7    1  0.2569312E-015  0.9000766E+02  0.7816164E-02  0.1186339E+00
        -11   -1    0    0    0    0  0.00000000000E+00  0.00000000000E+00  0.45593999997E+02  0.45594000000E+02  0.51100000000E-03 0.  1.
         11   -1    0    0    0    0 -0.00000000000E+00 -0.00000000000E+00 -0.45593999997E+02  0.45594000000E+02  0.51100000000E-03 0. -1.
    9900012    2    1    2    0    0 -0.58401531594E+00  0.98277896635E+00  0.29370554902E+00  0.90007664736E+02  0.89999925110E+02 0.  0.
         12    1    1    2    0    0  0.58401531594E+00 -0.98277896635E+00 -0.29370554902E+00  0.11803352640E+01  0.00000000000E+00 0. -1.
         11    1    3    3    0    0 -0.32782195092E+01 -0.42583291392E+01 -0.95707774137E+01  0.10976332301E+02  0.51100000000E-03 0. -1.
        -11    1    3    3    0    0 -0.87311778760E+01 -0.28896278565E+02  0.25755877138E+02  0.39681149044E+02  0.51100000000E-03 0.  1.
         12    1    3    3    0    0  0.11425382069E+02  0.34137386671E+02 -0.15891394175E+02  0.39350183392E+02  0.00000000000E+00 0. -1.
</event>
<event>
 7    1  0.2569312E-015  0.9000773E+02  0.7816164E-02  0.1186339E+00
        -11   -1    0    0    0    0  0.00000000000E+00  0.00000000000E+00  0.45593999997E+02  0.45594000000E+02  0.51100000000E-03 0. -1.
         11   -1    0    0    0    0 -0.00000000000E+00 -0.00000000000E+00 -0.45593999997E+02  0.45594000000E+02  0.51100000000E-03 0.  1.
    9900012    2    1    2    0    0  0.65020563380E+00  0.40396881583E+00 -0.89837315439E+00  0.90007732024E+02  0.89999993287E+02 0.  0.
         12    1    1    2    0    0 -0.65020563380E+00 -0.40396881583E+00  0.89837315439E+00  0.11802679759E+01  0.00000000000E+00 0. -1.
         11    1    3    3    0    0 -0.12692306480E+01  0.57045162132E+01  0.12698771706E+02  0.13978957571E+02  0.51100000000E-03 0. -1.
        -11    1    3    3    0    0  0.11141215805E+02 -0.33927524350E+02  0.10794067211E+02  0.37305703121E+02  0.51100000000E-03 0.  1.
         12    1    3    3    0    0 -0.92217795234E+01  0.28626976953E+02 -0.24391212072E+02  0.38723071332E+02  0.00000000000E+00 0. -1.
</event>
<event>
 7    1  0.2569312E-015  0.9000771E+02  0.7816164E-02  0.1186339E+00
        -11   -1    0    0    0    0  0.00000000000E+00  0.00000000000E+00  0.45593999997E+02  0.45594000000E+02  0.51100000000E-03 0. -1.
         11   -1    0    0    0    0 -0.00000000000E+00 -0.00000000000E+00 -0.45593999997E+02  0.45594000000E+02  0.51100000000E-03 0.  1.
    9900012    2    1    2    0    0 -0.26247131775E+00  0.69418154765E+00 -0.91776765108E+00  0.90007713308E+02  0.89999974324E+02 0.  0.
         12    1    1    2    0    0  0.26247131775E+00 -0.69418154765E+00  0.91776765108E+00  0.11802866919E+01  0.00000000000E+00 0. -1.
         11    1    3    3    0    0  0.40237444115E+01 -0.88332030697E+01  0.10591769953E+01  0.97641103911E+01  0.51100000000E-03 0. -1.
        -11    1    3    3    0    0 -0.37577324878E+02 -0.13181258479E+02 -0.29701267854E+01  0.39932725596E+02  0.51100000000E-03 0.  1.
         12    1    3    3    0    0  0.33291109149E+02  0.22708643097E+02  0.99318213904E+00  0.40310877321E+02  0.00000000000E+00 0. -1.
</event>
<event>
 7    1  0.2569312E-015  0.9000780E+02  0.7816164E-02  0.1186339E+00
        -11   -1    0    0    0    0  0.00000000000E+00  0.00000000000E+00  0.45593999997E+02  0.45594000000E+02  0.51100000000E-03 0. -1.
         11   -1    0    0    0    0 -0.00000000000E+00 -0.00000000000E+00 -0.45593999997E+02  0.45594000000E+02  0.51100000000E-03 0.  1.
    9900012    2    1    2    0    0  0.45329673165E+00  0.99131176946E+00 -0.45242728226E+00  0.90007801967E+02  0.90000064153E+02 0.  0.
         12    1    1    2    0    0 -0.45329673165E+00 -0.99131176946E+00  0.45242728226E+00  0.11801980329E+01  0.00000000000E+00 0. -1.
         11    1    3    3    0    0  0.27425187513E+01 -0.11048590123E+02  0.33639491472E+02  0.35513492360E+02  0.51100000000E-03 0. -1.
        -11    1    3    3    0    0  0.63260397518E+01 -0.70070601831E+01  0.46112894634E+01  0.10506267754E+02  0.51100000000E-03 0.  1.
        -12    1    3    3    0    0 -0.86152617715E+01  0.19046962075E+02 -0.38703208218E+02  0.43988041853E+02  0.00000000000E+00 0.  1.
</event>
<event>
 7    1  0.2569312E-015  0.9000771E+02  0.7816164E-02  0.1186339E+00
        -11   -1    0    0    0    0  0.00000000000E+00  0.00000000000E+00  0.45593999997E+02  0.45594000000E+02  0.51100000000E-03 0.  1.
         11   -1    0    0    0    0 -0.00000000000E+00 -0.00000000000E+00 -0.45593999997E+02  0.45594000000E+02  0.51100000000E-03 0. -1.
    9900012    2    1    2    0    0  0.72177111255E+00  0.72301699241E+00 -0.59108801434E+00  0.90007706752E+02  0.89999967681E+02 0.  0.
         12    1    1    2    0    0 -0.72177111255E+00 -0.72301699241E+00  0.59108801434E+00  0.11802932478E+01  0.00000000000E+00 0. -1.
         11    1    3    3    0    0  0.10367521106E+01  0.52017917914E+01  0.67877567413E+01  0.86143563091E+01  0.51100000000E-03 0. -1.
        -11    1    3    3    0    0 -0.25238186698E+02 -0.84594505632E+01  0.27544536320E+02  0.38304436466E+02  0.51100000000E-03 0.  1.
         12    1    3    3    0    0  0.24923205700E+02  0.39806757643E+01 -0.34923381076E+02  0.43088913977E+02  0.00000000000E+00 0. -1.
</event>
<event>
 7    1  0.2569312E-015  0.9000774E+02  0.7816164E-02  0.1186339E+00
        -11   -1    0    0    0    0  0.00000000000E+00  0.00000000000E+00  0.45593999997E+02  0.45594000000E+02  0.51100000000E-03 0. -1.
         11   -1    0    0    0    0 -0.00000000000E+00 -0.00000000000E+00 -0.45593999997E+02  0.45594000000E+02  0.51100000000E-03 0.  1.
    9900012    2    1    2    0    0  0.74936595273E+00 -0.74688244840E+00 -0.52308631114E+00  0.90007744938E+02  0.90000006371E+02 0.  0.
         12    1    1    2    0    0 -0.74936595273E+00  0.74688244840E+00  0.52308631114E+00  0.11802550622E+01  0.00000000000E+00 0. -1.
         11    1    3    3    0    0 -0.10123757006E+02  0.11203665537E+02  0.23012247785E+02  0.27524100817E+02  0.51100000000E-03 0. -1.
        -11    1    3    3    0    0 -0.94522352888E+01  0.13915109570E+01  0.14486171737E+02  0.17353104234E+02  0.51100000000E-03 0.  1.
        -12    1    3    3    0    0  0.20325358247E+02 -0.13342058943E+02 -0.38021505833E+02  0.45130539887E+02  0.00000000000E+00 0.  1.
</event>
<event>
 7    1  0.2569312E-015  0.9000772E+02  0.7816164E-02  0.1186339E+00
        -11   -1    0    0    0    0  0.00000000000E+00  0.00000000000E+00  0.45593999997E+02  0.45594000000E+02  0.51100000000E-03 0.  1.
         11   -1    0    0    0    0 -0.00000000000E+00 -0.00000000000E+00 -0.45593999997E+02  0.45594000000E+02  0.51100000000E-03 0. -1.
    9900012    2    1    2    0    0 -0.69510843905E+00 -0.45020791253E+00  0.84095140038E+00  0.90007719455E+02  0.89999980552E+02 0.  0.
         12    1    1    2    0    0  0.69510843905E+00  0.45020791253E+00 -0.84095140038E+00  0.11802805448E+01  0.00000000000E+00 0. -1.
         11    1    3    3    0    0  0.15858486861E+02 -0.25629065648E+02 -0.30076209033E+02  0.42578386085E+02  0.51100000000E-03 0. -1.
        -11    1    3    3    0    0  0.44089233743E+01  0.65579621024E+01  0.60527492940E+01  0.99539563258E+01  0.51100000000E-03 0.  1.
        -12    1    3    3    0    0 -0.20962518675E+02  0.18620895633E+02  0.24864411139E+02  0.37475377045E+02  0.00000000000E+00 0.  1.
</event>
<event>
 7    1  0.2569312E-015  0.9000754E+02  0.7816164E-02  0.1186339E+00
        -11   -1    0    0    0    0  0.00000000000E+00  0.00000000000E+00  0.45593999997E+02  0.45594000000E+02  0.51100000000E-03 0.  1.
         11   -1    0    0    0    0 -0.00000000000E+00 -0.00000000000E+00 -0.45593999997E+02  0.45594000000E+02  0.51100000000E-03 0. -1.
    9900012    2    1    2    0    0  0.70540102040E+00  0.58358735225E+00 -0.74519175365E+00  0.90007544348E+02  0.89999803133E+02 0.  0.
         12    1    1    2    0    0 -0.70540102040E+00 -0.58358735225E+00  0.74519175365E+00  0.11804556523E+01  0.00000000000E+00 0. -1.
         11    1    3    3    0    0  0.57912409847E+01 -0.58333840774E+01  0.48475554768E+01  0.95428316709E+01  0.51100000000E-03 0. -1.
        -11    1    3    3    0    0  0.35212346824E+02  0.15949205835E+02 -0.55646334051E+01  0.39054470689E+02  0.51100000000E-03 0.  1.
         12    1    3    3    0    0 -0.40298186788E+02 -0.95322344049E+01 -0.28113825270E-01  0.41410241988E+02  0.00000000000E+00 0. -1.
</event>
<event>
 7    1  0.2569312E-015  0.9000779E+02  0.7816164E-02  0.1186339E+00
        -11   -1    0    0    0    0  0.00000000000E+00  0.00000000000E+00  0.45593999997E+02  0.45594000000E+02  0.51100000000E-03 0.  1.
         11   -1    0    0    0    0 -0.00000000000E+00 -0.00000000000E+00 -0.45593999997E+02  0.45594000000E+02  0.51100000000E-03 0. -1.
    9900012    2    1    2    0    0  0.23216870939E+00 -0.65889301741E+00 -0.95124071604E+00  0.90007787639E+02  0.90000049635E+02 0.  0.
         12    1    1    2    0    0 -0.23216870939E+00  0.65889301741E+00  0.95124071604E+00  0.11802123613E+01  0.00000000000E+00 0. -1.
         11    1    3    3    0    0 -0.36067724915E+01 -0.76210680333E+01  0.15270673541E+01  0.85686300387E+01  0.51100000000E-03 0. -1.
        -11    1    3    3    0    0  0.41255202423E+02  0.17528883347E+01  0.83763981992E+01  0.42133459288E+02  0.51100000000E-03 0.  1.
         12    1    3    3    0    0 -0.37416261223E+02  0.52092866812E+01 -0.10854706269E+02  0.39305698312E+02  0.00000000000E+00 0. -1.
</event>
<event>
 7    1  0.2569312E-015  0.9000782E+02  0.7816164E-02  0.1186339E+00
        -11   -1    0    0    0    0  0.00000000000E+00  0.00000000000E+00  0.45593999997E+02  0.45594000000E+02  0.51100000000E-03 0.  1.
         11   -1    0    0    0    0 -0.00000000000E+00 -0.00000000000E+00 -0.45593999997E+02  0.45594000000E+02  0.51100000000E-03 0. -1.
    9900012    2    1    2    0    0  0.76990848170E-01  0.11750109503E+01 -0.79022116809E-01  0.90007820853E+02  0.90000083288E+02 0.  0.
         12    1    1    2    0    0 -0.76990848170E-01 -0.11750109503E+01  0.79022116809E-01  0.11801791469E+01  0.00000000000E+00 0. -1.
         11    1    3    3    0    0 -0.25027215221E+02 -0.13058124696E+01 -0.33619785483E+02  0.41932763135E+02  0.51100000000E-03 0. -1.
        -11    1    3    3    0    0 -0.40620510074E+01  0.25157912276E+01  0.79407957274E+01  0.92674538538E+01  0.51100000000E-03 0.  1.
        -12    1    3    3    0    0  0.29166257076E+02 -0.34967807708E-01  0.25599967639E+02  0.38807603865E+02  0.00000000000E+00 0.  1.
</event>
<event>
 7    1  0.2569312E-015  0.9000775E+02  0.7816164E-02  0.1186339E+00
        -11   -1    0    0    0    0  0.00000000000E+00  0.00000000000E+00  0.45593999997E+02  0.45594000000E+02  0.51100000000E-03 0.  1.
         11   -1    0    0    0    0 -0.00000000000E+00 -0.00000000000E+00 -0.45593999997E+02  0.45594000000E+02  0.51100000000E-03 0. -1.
    9900012    2    1    2    0    0  0.44907202324E+00  0.65624674994E+00  0.87215984391E+00  0.90007750758E+02  0.90000012268E+02 0.  0.
         12    1    1    2    0    0 -0.44907202324E+00 -0.65624674994E+00 -0.87215984391E+00  0.11802492416E+01  0.00000000000E+00 0. -1.
         11    1    3    3    0    0 -0.57677778501E+01 -0.63896877460E+01 -0.37263560169E+02  0.38244846549E+02  0.51100000000E-03 0. -1.
        -11    1    3    3    0    0  0.94892505062E+01 -0.23641588792E+01 -0.23596595246E+01  0.10059975930E+02  0.51100000000E-03 0.  1.
        -12    1    3    3    0    0 -0.32724006329E+01  0.94100933752E+01  0.40495379537E+02  0.41702928280E+02  0.00000000000E+00 0.  1.
</event>
<event>
 7    1  0.2569312E-015  0.9000780E+02  0.7816164E-02  0.1186339E+00
        -11   -1    0    0    0    0  0.00000000000E+00  0.00000000000E+00  0.45593999997E+02  0.45594000000E+02  0.51100000000E-03 0. -1.
         11   -1    0    0    0    0 -0.00000000000E+00 -0.00000000000E+00 -0.45593999997E+02  0.45594000000E+02  0.51100000000E-03 0.  1.
    9900012    2    1    2    0    0 -0.49068513413E+00  0.58925266922E+00 -0.89715602341E+00  0.90007796823E+02  0.90000058941E+02 0.  0.
         12    1    1    2    0    0  0.49068513413E+00 -0.58925266922E+00  0.89715602341E+00  0.11802031772E+01  0.00000000000E+00 0. -1.
         11    1    3    3    0    0  0.66528513521E+01 -0.63573146471E+01  0.76115973754E+00  0.92333766869E+01  0.51100000000E-03 0. -1.
        -11    1    3    3    0    0 -0.39333656433E+02 -0.13931672875E+02  0.42903064584E+01  0.41948000754E+02  0.51100000000E-03 0.  1.
         12    1    3    3    0    0  0.32190119947E+02  0.20878240191E+02 -0.59486222194E+01  0.38826419382E+02  0.00000000000E+00 0. -1.
</event>
<event>
 7    1  0.2569312E-015  0.9000776E+02  0.7816164E-02  0.1186339E+00
        -11   -1    0    0    0    0  0.00000000000E+00  0.00000000000E+00  0.45593999997E+02  0.45594000000E+02  0.51100000000E-03 0.  1.
         11   -1    0    0    0    0 -0.00000000000E+00 -0.00000000000E+00 -0.45593999997E+02  0.45594000000E+02  0.51100000000E-03 0. -1.
    9900012    2    1    2    0    0  0.27194048893E+00 -0.43632783209E+00  0.10623759913E+01  0.90007755808E+02  0.90000017384E+02 0.  0.
         12    1    1    2    0    0 -0.27194048893E+00  0.43632783209E+00 -0.10623759913E+01  0.11802441923E+01  0.00000000000E+00 0. -1.
         11    1    3    3    0    0  0.43918679169E+01  0.54445239330E+01 -0.45439299880E+01  0.83413814595E+01  0.51100000000E-03 0. -1.
        -11    1    3    3    0    0  0.37266897230E+02 -0.12499149924E+02  0.59334528532E+01  0.39752436919E+02  0.51100000000E-03 0.  1.
         12    1    3    3    0    0 -0.41386824658E+02  0.66182981586E+01 -0.32714687390E+00  0.41913937430E+02  0.00000000000E+00 0. -1.
</event>
<event>
 7    1  0.2569312E-015  0.9000766E+02  0.7816164E-02  0.1186339E+00
        -11   -1    0    0    0    0  0.00000000000E+00  0.00000000000E+00  0.45593999997E+02  0.45594000000E+02  0.51100000000E-03 0.  1.
         11   -1    0    0    0    0 -0.00000000000E+00 -0.00000000000E+00 -0.45593999997E+02  0.45594000000E+02  0.51100000000E-03 0. -1.
    9900012    2    1    2    0    0 -0.34014307801E+00  0.72814912183E+00  0.86446260675E+00  0.90007663584E+02  0.89999923943E+02 0.  0.
         12    1    1    2    0    0  0.34014307801E+00 -0.72814912183E+00 -0.86446260675E+00  0.11803364163E+01  0.00000000000E+00 0. -1.
         11    1    3    3    0    0  0.26197887380E+01  0.17432078023E+01  0.93768505703E+01  0.98907731423E+01  0.51100000000E-03 0. -1.
        -11    1    3    3    0    0  0.17071213444E+02 -0.29504783021E+02  0.15872495403E+02  0.37601790651E+02  0.51100000000E-03 0.  1.
         12    1    3    3    0    0 -0.20031145260E+02  0.28489724341E+02 -0.24384883366E+02  0.42515099791E+02  0.00000000000E+00 0. -1.
</event>
<event>
 7    1  0.2569312E-015  0.9000771E+02  0.7816164E-02  0.1186339E+00
        -11   -1    0    0    0    0  0.00000000000E+00  0.00000000000E+00  0.45593999997E+02  0.45594000000E+02  0.51100000000E-03 0.  1.
         11   -1    0    0    0    0 -0.00000000000E+00 -0.00000000000E+00 -0.45593999997E+02  0.45594000000E+02  0.51100000000E-03 0. -1.
    9900012    2    1    2    0    0  0.10782690005E+01  0.44261689733E+00 -0.18577684453E+00  0.90007709023E+02  0.89999969982E+02 0.  0.
         12    1    1    2    0    0 -0.10782690005E+01 -0.44261689733E+00  0.18577684453E+00  0.11802909773E+01  0.00000000000E+00 0. -1.
         11    1    3    3    0    0 -0.53804729032E+01  0.42763011471E+01 -0.63280164363E+01  0.93423783075E+01  0.51100000000E-03 0. -1.
        -11    1    3    3    0    0 -0.10141690346E+01 -0.39098686715E+02 -0.11169996904E+02  0.40675602918E+02  0.51100000000E-03 0.  1.
         12    1    3    3    0    0  0.74729109382E+01  0.35265002465E+02  0.17312236496E+02  0.39989727797E+02  0.00000000000E+00 0. -1.
</event>
<event>
 7    1  0.2569312E-015  0.9000772E+02  0.7816164E-02  0.1186339E+00
        -11   -1    0    0    0    0  0.00000000000E+00  0.00000000000E+00  0.45593999997E+02  0.45594000000E+02  0.51100000000E-03 0. -1.
         11   -1    0    0    0    0 -0.00000000000E+00 -0.00000000000E+00 -0.45593999997E+02  0.45594000000E+02  0.51100000000E-03 0.  1.
    9900012    2    1    2    0    0 -0.64962328576E+00 -0.98531610341E+00  0.13918427589E-01  0.90007723778E+02  0.89999984932E+02 0.  0.
         12    1    1    2    0    0  0.64962328576E+00  0.98531610341E+00 -0.13918427589E-01  0.11802762218E+01  0.00000000000E+00 0. -1.
         11    1    3    3    0    0  0.65645711382E+01 -0.55630444217E+01  0.40385400153E+02  0.41291907236E+02  0.51100000000E-03 0. -1.
        -11    1    3    3    0    0 -0.27643308055E+01  0.81109026444E+01 -0.65398384805E+00  0.85939491297E+01  0.51100000000E-03 0.  1.
        -12    1    3    3    0    0 -0.44498636185E+01 -0.35331743261E+01 -0.39717497877E+02  0.40121867412E+02  0.00000000000E+00 0.  1.
</event>
<event>
 7    1  0.2569312E-015  0.9000774E+02  0.7816164E-02  0.1186339E+00
        -11   -1    0    0    0    0  0.00000000000E+00  0.00000000000E+00  0.45593999997E+02  0.45594000000E+02  0.51100000000E-03 0. -1.
         11   -1    0    0    0    0 -0.00000000000E+00 -0.00000000000E+00 -0.45593999997E+02  0.45594000000E+02  0.51100000000E-03 0.  1.
    9900012    2    1    2    0    0 -0.39672905849E-01  0.77832813459E+00 -0.88637247230E+00  0.90007735291E+02  0.89999996596E+02 0.  0.
         12    1    1    2    0    0  0.39672905849E-01 -0.77832813459E+00  0.88637247230E+00  0.11802647094E+01  0.00000000000E+00 0. -1.
         11    1    3    3    0    0 -0.55655728172E+01 -0.25600474037E+01 -0.96676048590E+00  0.62019407923E+01  0.51100000000E-03 0. -1.
        -11    1    3    3    0    0 -0.94492790020E+01  0.17813732222E+02 -0.36506832285E+02  0.41705715832E+02  0.51100000000E-03 0.  1.
         12    1    3    3    0    0  0.14975178913E+02 -0.14475356683E+02  0.36587220298E+02  0.42100078667E+02  0.00000000000E+00 0. -1.
</event>
<event>
 7    1  0.2569312E-015  0.9000774E+02  0.7816164E-02  0.1186339E+00
        -11   -1    0    0    0    0  0.00000000000E+00  0.00000000000E+00  0.45593999997E+02  0.45594000000E+02  0.51100000000E-03 0. -1.
         11   -1    0    0    0    0 -0.00000000000E+00 -0.00000000000E+00 -0.45593999997E+02  0.45594000000E+02  0.51100000000E-03 0.  1.
    9900012    2    1    2    0    0  0.87406846090E+00 -0.75895276985E+00  0.23023890004E+00  0.90007739464E+02  0.90000000825E+02 0.  0.
         12    1    1    2    0    0 -0.87406846090E+00  0.75895276985E+00 -0.23023890004E+00  0.11802605358E+01  0.00000000000E+00 0. -1.
         11    1    3    3    0    0 -0.25942041669E+01  0.59832734016E+01 -0.62947166733E+01  0.90638244751E+01  0.51100000000E-03 0. -1.
        -11    1    3    3    0    0 -0.12248116408E+02  0.34464218419E+02  0.32867835064E+01  0.36723312117E+02  0.51100000000E-03 0.  1.
         12    1    3    3    0    0  0.15716389035E+02 -0.41206444590E+02  0.32381720669E+01  0.44220602872E+02  0.00000000000E+00 0. -1.
</event>
<event>
 7    1  0.2569312E-015  0.9000765E+02  0.7816164E-02  0.1186339E+00
        -11   -1    0    0    0    0  0.00000000000E+00  0.00000000000E+00  0.45593999997E+02  0.45594000000E+02  0.51100000000E-03 0. -1.
         11   -1    0    0    0    0 -0.00000000000E+00 -0.00000000000E+00 -0.45593999997E+02  0.45594000000E+02  0.51100000000E-03 0.  1.
    9900012    2    1    2    0    0  0.35235952436E+00  0.10210516614E+01  0.47594853534E+00  0.90007648045E+02  0.89999908199E+02 0.  0.
         12    1    1    2    0    0 -0.35235952436E+00 -0.10210516614E+01 -0.47594853534E+00  0.11803519552E+01  0.00000000000E+00 0. -1.
         11    1    3    3    0    0 -0.91031348165E+01 -0.26929820848E+01  0.31185588623E+02  0.32598468584E+02  0.51100000000E-03 0. -1.
        -11    1    3    3    0    0 -0.16468534133E+02  0.12985706299E+02 -0.13158672706E+02  0.24758672263E+02  0.51100000000E-03 0.  1.
        -12    1    3    3    0    0  0.25924028474E+02 -0.92716725528E+01 -0.17550967382E+02  0.32650507198E+02  0.00000000000E+00 0.  1.
</event>
<event>
 7    1  0.2569312E-015  0.9000770E+02  0.7816164E-02  0.1186339E+00
        -11   -1    0    0    0    0  0.00000000000E+00  0.00000000000E+00  0.45593999997E+02  0.45594000000E+02  0.51100000000E-03 0. -1.
         11   -1    0    0    0    0 -0.00000000000E+00 -0.00000000000E+00 -0.45593999997E+02  0.45594000000E+02  0.51100000000E-03 0.  1.
    9900012    2    1    2    0    0  0.88539257491E-01 -0.11601772873E+01 -0.19811844809E+00  0.90007702810E+02  0.89999963687E+02 0.  0.
         12    1    1    2    0    0 -0.88539257491E-01  0.11601772873E+01  0.19811844809E+00  0.11802971904E+01  0.00000000000E+00 0. -1.
         11    1    3    3    0    0  0.59254841665E+01  0.58617868603E+01  0.82938335067E+01  0.11758383490E+02  0.51100000000E-03 0. -1.
        -11    1    3    3    0    0  0.25942320974E+02  0.22329704162E+02 -0.35627781454E+00  0.34230784969E+02  0.51100000000E-03 0.  1.
         12    1    3    3    0    0 -0.31779265883E+02 -0.29351668309E+02 -0.81356741403E+01  0.44018534350E+02  0.00000000000E+00 0. -1.
</event>
<event>
 7    1  0.2569312E-015  0.9000768E+02  0.7816164E-02  0.1186339E+00
        -11   -1    0    0    0    0  0.00000000000E+00  0.00000000000E+00  0.45593999997E+02  0.45594000000E+02  0.51100000000E-03 0.  1.
         11   -1    0    0    0    0 -0.00000000000E+00 -0.00000000000E+00 -0.45593999997E+02  0.45594000000E+02  0.51100000000E-03 0. -1.
    9900012    2    1    2    0    0  0.71546455296E+00 -0.86376410262E+00 -0.36767557533E+00  0.90007676620E+02  0.89999937152E+02 0.  0.
         12    1    1    2    0    0 -0.71546455296E+00  0.86376410262E+00  0.36767557533E+00  0.11803233795E+01  0.00000000000E+00 0. -1.
         11    1    3    3    0    0  0.39726733445E+01 -0.14608503682E+02 -0.71518780965E+01  0.16743353126E+02  0.51100000000E-03 0. -1.
        -11    1    3    3    0    0 -0.35044416122E+02 -0.31615640704E+01  0.11351154993E+02  0.36972358711E+02  0.51100000000E-03 0.  1.
         12    1    3    3    0    0  0.31787207330E+02  0.16906303650E+02 -0.45669524717E+01  0.36291964784E+02  0.00000000000E+00 0. -1.
</event>
<event>
 7    1  0.2569312E-015  0.9000788E+02  0.7816164E-02  0.1186339E+00
        -11   -1    0    0    0    0  0.00000000000E+00  0.00000000000E+00  0.45593999997E+02  0.45594000000E+02  0.51100000000E-03 0.  1.
         11   -1    0    0    0    0 -0.00000000000E+00 -0.00000000000E+00 -0.45593999997E+02  0.45594000000E+02  0.51100000000E-03 0. -1.
    9900012    2    1    2    0    0 -0.80952435575E+00  0.26520742166E-01  0.85827809727E+00  0.90007883766E+02  0.90000147032E+02 0.  0.
         12    1    1    2    0    0  0.80952435575E+00 -0.26520742166E-01 -0.85827809727E+00  0.11801162335E+01  0.00000000000E+00 0. -1.
         11    1    3    3    0    0 -0.10312724650E+02  0.34140753700E+02 -0.64728810655E+01  0.36246952182E+02  0.51100000000E-03 0. -1.
        -11    1    3    3    0    0 -0.44141748446E+01  0.48548174603E+01  0.10368077222E+02  0.12269931446E+02  0.51100000000E-03 0.  1.
        -12    1    3    3    0    0  0.13917375139E+02 -0.38969050418E+02 -0.30369180594E+01  0.41491000139E+02  0.00000000000E+00 0.  1.
</event>
<event>
 7    1  0.2569312E-015  0.9000729E+02  0.7816164E-02  0.1186340E+00
        -11   -1    0    0    0    0  0.00000000000E+00  0.00000000000E+00  0.45593999997E+02  0.45594000000E+02  0.51100000000E-03 0. -1.
         11   -1    0    0    0    0 -0.00000000000E+00 -0.00000000000E+00 -0.45593999997E+02  0.45594000000E+02  0.51100000000E-03 0.  1.
    9900012    2    1    2    0    0 -0.77815781131E+00  0.60810499610E+00 -0.64711576532E+00  0.90007288317E+02  0.89999543721E+02 0.  0.
         12    1    1    2    0    0  0.77815781131E+00 -0.60810499610E+00  0.64711576532E+00  0.11807116834E+01  0.00000000000E+00 0. -1.
         11    1    3    3    0    0 -0.81311573696E+01  0.32009608226E+00  0.45036654130E+01  0.93006012754E+01  0.51100000000E-03 0. -1.
        -11    1    3    3    0    0 -0.23490198327E+02 -0.29262327625E+02  0.10819230261E+01  0.37539896020E+02  0.51100000000E-03 0.  1.
         12    1    3    3    0    0  0.30843197885E+02  0.29550336539E+02 -0.62327042044E+01  0.43166791021E+02  0.00000000000E+00 0. -1.
</event>
<event>
 7    1  0.2569312E-015  0.9000772E+02  0.7816164E-02  0.1186339E+00
        -11   -1    0    0    0    0  0.00000000000E+00  0.00000000000E+00  0.45593999997E+02  0.45594000000E+02  0.51100000000E-03 0. -1.
         11   -1    0    0    0    0 -0.00000000000E+00 -0.00000000000E+00 -0.45593999997E+02  0.45594000000E+02  0.51100000000E-03 0.  1.
    9900012    2    1    2    0    0 -0.11195325243E+01  0.17922600853E+00  0.32800357831E+00  0.90007719786E+02  0.89999980888E+02 0.  0.
         12    1    1    2    0    0  0.11195325243E+01 -0.17922600853E+00 -0.32800357831E+00  0.11802802136E+01  0.00000000000E+00 0. -1.
         11    1    3    3    0    0  0.11638256428E+02 -0.31271786999E+02 -0.26137908340E+02  0.42385893024E+02  0.51100000000E-03 0. -1.
        -11    1    3    3    0    0 -0.23104713191E+01  0.10131483313E+02 -0.19710345341E+01  0.10576871430E+02  0.51100000000E-03 0.  1.
        -12    1    3    3    0    0 -0.10447317633E+02  0.21319529694E+02  0.28436946453E+02  0.37044955333E+02  0.00000000000E+00 0.  1.
</event>
<event>
 7    1  0.2569312E-015  0.9000777E+02  0.7816164E-02  0.1186339E+00
        -11   -1    0    0    0    0  0.00000000000E+00  0.00000000000E+00  0.45593999997E+02  0.45594000000E+02  0.51100000000E-03 0.  1.
         11   -1    0    0    0    0 -0.00000000000E+00 -0.00000000000E+00 -0.45593999997E+02  0.45594000000E+02  0.51100000000E-03 0. -1.
    9900012    2    1    2    0    0 -0.32703924440E+00  0.77259739072E+00  0.83011593320E+00  0.90007765338E+02  0.90000027040E+02 0.  0.
         12    1    1    2    0    0  0.32703924440E+00 -0.77259739072E+00 -0.83011593320E+00  0.11802346623E+01  0.00000000000E+00 0. -1.
         11    1    3    3    0    0 -0.17804026296E+02  0.19727723427E+01 -0.19754274734E+02  0.26666581213E+02  0.51100000000E-03 0. -1.
        -11    1    3    3    0    0 -0.88843532221E+01  0.52368587701E+01 -0.15238873673E+02  0.18400535129E+02  0.51100000000E-03 0.  1.
        -12    1    3    3    0    0  0.26361340274E+02 -0.64370337221E+01  0.35823264340E+02  0.44940648996E+02  0.00000000000E+00 0.  1.
</event>
<event>
 7    1  0.2569312E-015  0.9000774E+02  0.7816164E-02  0.1186339E+00
        -11   -1    0    0    0    0  0.00000000000E+00  0.00000000000E+00  0.45593999997E+02  0.45594000000E+02  0.51100000000E-03 0. -1.
         11   -1    0    0    0    0 -0.00000000000E+00 -0.00000000000E+00 -0.45593999997E+02  0.45594000000E+02  0.51100000000E-03 0.  1.
    9900012    2    1    2    0    0  0.67355349300E+00  0.16331613081E+00 -0.95533539550E+00  0.90007740628E+02  0.90000002005E+02 0.  0.
         12    1    1    2    0    0 -0.67355349300E+00 -0.16331613081E+00  0.95533539550E+00  0.11802593717E+01  0.00000000000E+00 0. -1.
         11    1    3    3    0    0  0.82719169345E+01 -0.16846349665E+02  0.34704846790E+02  0.39454410372E+02  0.51100000000E-03 0. -1.
        -11    1    3    3    0    0  0.17677820821E+01  0.38901257183E+01  0.51400264661E+01  0.66841606748E+01  0.51100000000E-03 0.  1.
        -12    1    3    3    0    0 -0.93661455237E+01  0.13119540077E+02 -0.40800208651E+02  0.43869169582E+02  0.00000000000E+00 0.  1.
</event>
<event>
 7    1  0.2569312E-015  0.9000774E+02  0.7816164E-02  0.1186339E+00
        -11   -1    0    0    0    0  0.00000000000E+00  0.00000000000E+00  0.45593999997E+02  0.45594000000E+02  0.51100000000E-03 0.  1.
         11   -1    0    0    0    0 -0.00000000000E+00 -0.00000000000E+00 -0.45593999997E+02  0.45594000000E+02  0.51100000000E-03 0. -1.
    9900012    2    1    2    0    0  0.15448902441E+00  0.10934507253E+01  0.41654954724E+00  0.90007739489E+02  0.90000000851E+02 0.  0.
         12    1    1    2    0    0 -0.15448902441E+00 -0.10934507253E+01 -0.41654954724E+00  0.11802605105E+01  0.00000000000E+00 0. -1.
         11    1    3    3    0    0 -0.23725962945E+01 -0.56904973139E+00  0.41865963577E+01  0.48456805607E+01  0.51100000000E-03 0. -1.
        -11    1    3    3    0    0  0.67692191822E+01  0.73418888663E+00  0.40303747503E+02  0.40874850761E+02  0.51100000000E-03 0.  1.
         12    1    3    3    0    0 -0.42421338632E+01  0.92831157010E+00 -0.44073794314E+02  0.44287208168E+02  0.00000000000E+00 0. -1.
</event>
<event>
 7    1  0.2569312E-015  0.9000773E+02  0.7816164E-02  0.1186339E+00
        -11   -1    0    0    0    0  0.00000000000E+00  0.00000000000E+00  0.45593999997E+02  0.45594000000E+02  0.51100000000E-03 0. -1.
         11   -1    0    0    0    0 -0.00000000000E+00 -0.00000000000E+00 -0.45593999997E+02  0.45594000000E+02  0.51100000000E-03 0.  1.
    9900012    2    1    2    0    0  0.58734702329E+00 -0.29087350952E+00 -0.98156183257E+00  0.90007725644E+02  0.89999986822E+02 0.  0.
         12    1    1    2    0    0 -0.58734702329E+00  0.29087350952E+00  0.98156183257E+00  0.11802743560E+01  0.00000000000E+00 0. -1.
         11    1    3    3    0    0 -0.33440656227E+02  0.52927023490E+01  0.14233021096E+02  0.36726953003E+02  0.51100000000E-03 0. -1.
        -11    1    3    3    0    0 -0.82989022094E+01 -0.45124174800E+00 -0.38231713470E+01  0.91483351713E+01  0.51100000000E-03 0.  1.
        -12    1    3    3    0    0  0.42326905460E+02 -0.51323341105E+01 -0.11391411582E+02  0.44132437470E+02  0.00000000000E+00 0.  1.
</event>
<event>
 7    1  0.2569312E-015  0.9000761E+02  0.7816164E-02  0.1186339E+00
        -11   -1    0    0    0    0  0.00000000000E+00  0.00000000000E+00  0.45593999997E+02  0.45594000000E+02  0.51100000000E-03 0.  1.
         11   -1    0    0    0    0 -0.00000000000E+00 -0.00000000000E+00 -0.45593999997E+02  0.45594000000E+02  0.51100000000E-03 0. -1.
    9900012    2    1    2    0    0  0.31492144878E+00 -0.10422020764E+01  0.45603211674E+00  0.90007607701E+02  0.89999867323E+02 0.  0.
         12    1    1    2    0    0 -0.31492144878E+00  0.10422020764E+01 -0.45603211674E+00  0.11803922986E+01  0.00000000000E+00 0. -1.
         11    1    3    3    0    0 -0.72070980024E+01  0.46904490533E+01  0.37578644056E+01  0.93842484563E+01  0.51100000000E-03 0. -1.
        -11    1    3    3    0    0 -0.52243441233E+01  0.63159091421E+00  0.37261277048E+02  0.37631043649E+02  0.51100000000E-03 0.  1.
         12    1    3    3    0    0  0.12746363574E+02 -0.63642420440E+01 -0.40563109337E+02  0.42992315596E+02  0.00000000000E+00 0. -1.
</event>
<event>
 7    1  0.2569312E-015  0.9000769E+02  0.7816164E-02  0.1186339E+00
        -11   -1    0    0    0    0  0.00000000000E+00  0.00000000000E+00  0.45593999997E+02  0.45594000000E+02  0.51100000000E-03 0. -1.
         11   -1    0    0    0    0 -0.00000000000E+00 -0.00000000000E+00 -0.45593999997E+02  0.45594000000E+02  0.51100000000E-03 0.  1.
    9900012    2    1    2    0    0 -0.34075283676E-01  0.28633000671E+00 -0.11445479866E+01  0.90007688138E+02  0.89999948821E+02 0.  0.
         12    1    1    2    0    0  0.34075283676E-01 -0.28633000671E+00  0.11445479866E+01  0.11803118619E+01  0.00000000000E+00 0. -1.
         11    1    3    3    0    0  0.30270124294E+02 -0.64049330648E+01 -0.29207755282E+02  0.42548755108E+02  0.51100000000E-03 0. -1.
        -11    1    3    3    0    0 -0.11522707444E+02 -0.83315252117E+01  0.10714643558E+02  0.17804232251E+02  0.51100000000E-03 0.  1.
        -12    1    3    3    0    0 -0.18781492133E+02  0.15022788283E+02  0.17348563738E+02  0.29654700780E+02  0.00000000000E+00 0.  1.
</event>
<event>
 7    1  0.2569312E-015  0.9000780E+02  0.7816164E-02  0.1186339E+00
        -11   -1    0    0    0    0  0.00000000000E+00  0.00000000000E+00  0.45593999997E+02  0.45594000000E+02  0.51100000000E-03 0.  1.
         11   -1    0    0    0    0 -0.00000000000E+00 -0.00000000000E+00 -0.45593999997E+02  0.45594000000E+02  0.51100000000E-03 0. -1.
    9900012    2    1    2    0    0  0.20093658332E+00 -0.84479287864E+00  0.79925742448E+00  0.90007803852E+02  0.90000066062E+02 0.  0.
         12    1    1    2    0    0 -0.20093658332E+00  0.84479287864E+00 -0.79925742448E+00  0.11801961485E+01  0.00000000000E+00 0. -1.
         11    1    3    3    0    0 -0.44195388036E+01  0.82395746564E+01 -0.14575960276E+01  0.94629540946E+01  0.51100000000E-03 0. -1.
        -11    1    3    3    0    0  0.12811832461E+01 -0.11033397874E+02  0.40556744136E+02  0.42050288873E+02  0.51100000000E-03 0.  1.
         12    1    3    3    0    0  0.33392921408E+01  0.19490303391E+01 -0.38299890684E+02  0.38494560884E+02  0.00000000000E+00 0. -1.
</event>
<event>
 7    1  0.2569312E-015  0.9000785E+02  0.7816164E-02  0.1186339E+00
        -11   -1    0    0    0    0  0.00000000000E+00  0.00000000000E+00  0.45593999997E+02  0.45594000000E+02  0.51100000000E-03 0.  1.
         11   -1    0    0    0    0 -0.00000000000E+00 -0.00000000000E+00 -0.45593999997E+02  0.45594000000E+02  0.51100000000E-03 0. -1.
    9900012    2    1    2    0    0  0.71089366188E+00 -0.19881298440E-02  0.94201198981E+00  0.90007847323E+02  0.90000110108E+02 0.  0.
         12    1    1    2    0    0 -0.71089366188E+00  0.19881298440E-02 -0.94201198981E+00  0.11801526766E+01  0.00000000000E+00 0. -1.
         11    1    3    3    0    0  0.14176342213E+01 -0.57828123761E+01  0.58700345124E+01  0.83610950957E+01  0.51100000000E-03 0. -1.
        -11    1    3    3    0    0  0.31515883479E+02  0.19804053753E+02  0.16252826178E+02  0.40615339658E+02  0.51100000000E-03 0.  1.
         12    1    3    3    0    0 -0.32222624039E+02 -0.14023229507E+02 -0.21180848701E+02  0.41031412569E+02  0.00000000000E+00 0. -1.
</event>
<event>
 7    1  0.2569312E-015  0.9000755E+02  0.7816164E-02  0.1186339E+00
        -11   -1    0    0    0    0  0.00000000000E+00  0.00000000000E+00  0.45593999997E+02  0.45594000000E+02  0.51100000000E-03 0.  1.
         11   -1    0    0    0    0 -0.00000000000E+00 -0.00000000000E+00 -0.45593999997E+02  0.45594000000E+02  0.51100000000E-03 0. -1.
    9900012    2    1    2    0    0  0.41723820283E+00  0.10218128735E+01  0.41865981634E+00  0.90007548685E+02  0.89999807527E+02 0.  0.
         12    1    1    2    0    0 -0.41723820283E+00 -0.10218128735E+01 -0.41865981634E+00  0.11804513155E+01  0.00000000000E+00 0. -1.
         11    1    3    3    0    0  0.67234215420E+01  0.82941362246E+01 -0.73890710143E+01  0.12984431588E+02  0.51100000000E-03 0. -1.
        -11    1    3    3    0    0  0.19102625398E+02  0.26279514241E+02 -0.53515766986E+01  0.32926623563E+02  0.51100000000E-03 0.  1.
         12    1    3    3    0    0 -0.25408808737E+02 -0.33551837593E+02  0.13159307529E+02  0.44096493533E+02  0.00000000000E+00 0. -1.
</event>
<event>
 7    1  0.2569312E-015  0.9000794E+02  0.7816164E-02  0.1186339E+00
        -11   -1    0    0    0    0  0.00000000000E+00  0.00000000000E+00  0.45593999997E+02  0.45594000000E+02  0.51100000000E-03 0.  1.
         11   -1    0    0    0    0 -0.00000000000E+00 -0.00000000000E+00 -0.45593999997E+02  0.45594000000E+02  0.51100000000E-03 0. -1.
    9900012    2    1    2    0    0  0.11588182133E+01  0.22171927747E+00  0.23092286539E-01  0.90007935450E+02  0.90000199397E+02 0.  0.
         12    1    1    2    0    0 -0.11588182133E+01 -0.22171927747E+00 -0.23092286539E-01  0.11800645504E+01  0.00000000000E+00 0. -1.
         11    1    3    3    0    0  0.19581893080E+02 -0.21111573065E+02 -0.29904491363E+02  0.41514186223E+02  0.51100000000E-03 0. -1.
        -11    1    3    3    0    0 -0.64724043389E+01 -0.54987989453E+01  0.43347138947E+01  0.95351220537E+01  0.51100000000E-03 0.  1.
        -12    1    3    3    0    0 -0.11950670527E+02  0.26832091287E+02  0.25592869755E+02  0.38958627173E+02  0.00000000000E+00 0.  1.
</event>
<event>
 7    1  0.2569312E-015  0.9000801E+02  0.7816164E-02  0.1186339E+00
        -11   -1    0    0    0    0  0.00000000000E+00  0.00000000000E+00  0.45593999997E+02  0.45594000000E+02  0.51100000000E-03 0.  1.
         11   -1    0    0    0    0 -0.00000000000E+00 -0.00000000000E+00 -0.45593999997E+02  0.45594000000E+02  0.51100000000E-03 0. -1.
    9900012    2    1    2    0    0  0.93952880266E+00 -0.67204377478E+00  0.24086346255E+00  0.90008011689E+02  0.90000276643E+02 0.  0.
         12    1    1    2    0    0 -0.93952880266E+00  0.67204377478E+00 -0.24086346255E+00  0.11799883109E+01  0.00000000000E+00 0. -1.
         11    1    3    3    0    0 -0.14982813906E+01  0.24351407797E+00 -0.12127451418E+02  0.12222079381E+02  0.51100000000E-03 0. -1.
        -11    1    3    3    0    0 -0.32515729502E+02  0.16374300503E+02  0.13353019808E+02  0.38777487287E+02  0.51100000000E-03 0.  1.
         12    1    3    3    0    0  0.34953539695E+02 -0.17289858356E+02 -0.98470492751E+00  0.39008445021E+02  0.00000000000E+00 0. -1.
</event>
<event>
 7    1  0.2569312E-015  0.9000741E+02  0.7816164E-02  0.1186340E+00
        -11   -1    0    0    0    0  0.00000000000E+00  0.00000000000E+00  0.45593999997E+02  0.45594000000E+02  0.51100000000E-03 0.  1.
         11   -1    0    0    0    0 -0.00000000000E+00 -0.00000000000E+00 -0.45593999997E+02  0.45594000000E+02  0.51100000000E-03 0. -1.
    9900012    2    1    2    0    0  0.58883362792E+00 -0.59918011136E+00  0.82948365223E+00  0.90007413291E+02  0.89999670346E+02 0.  0.
         12    1    1    2    0    0 -0.58883362792E+00  0.59918011136E+00 -0.82948365223E+00  0.11805867086E+01  0.00000000000E+00 0. -1.
         11    1    3    3    0    0 -0.32308787980E+02  0.17118297109E+02  0.22728926277E+01  0.36634135963E+02  0.51100000000E-03 0. -1.
        -11    1    3    3    0    0 -0.76808514803E+01 -0.48812691474E+01 -0.54779521523E+01  0.10622157408E+02  0.51100000000E-03 0.  1.
        -12    1    3    3    0    0  0.40578473088E+02 -0.12836208073E+02  0.40345431768E+01  0.42751119921E+02  0.00000000000E+00 0.  1.
</event>
<event>
 7    1  0.2569312E-015  0.9000772E+02  0.7816164E-02  0.1186339E+00
        -11   -1    0    0    0    0  0.00000000000E+00  0.00000000000E+00  0.45593999997E+02  0.45594000000E+02  0.51100000000E-03 0. -1.
         11   -1    0    0    0    0 -0.00000000000E+00 -0.00000000000E+00 -0.45593999997E+02  0.45594000000E+02  0.51100000000E-03 0.  1.
    9900012    2    1    2    0    0 -0.11668150272E+01  0.27472488707E-01  0.17560619779E+00  0.90007724785E+02  0.89999985953E+02 0.  0.
         12    1    1    2    0    0  0.11668150272E+01 -0.27472488707E-01 -0.17560619779E+00  0.11802752145E+01  0.00000000000E+00 0. -1.
         11    1    3    3    0    0 -0.43068306150E+01 -0.93485655918E+01 -0.46204234777E+01  0.11282410290E+02  0.51100000000E-03 0. -1.
        -11    1    3    3    0    0 -0.22427650432E+02  0.43807193935E+01 -0.28448341551E+02  0.36489701884E+02  0.51100000000E-03 0.  1.
         12    1    3    3    0    0  0.25567666020E+02  0.49953186871E+01  0.33244371226E+02  0.42235612612E+02  0.00000000000E+00 0. -1.
</event>
<event>
 7    1  0.2569312E-015  0.9000780E+02  0.7816164E-02  0.1186339E+00
        -11   -1    0    0    0    0  0.00000000000E+00  0.00000000000E+00  0.45593999997E+02  0.45594000000E+02  0.51100000000E-03 0.  1.
         11   -1    0    0    0    0 -0.00000000000E+00 -0.00000000000E+00 -0.45593999997E+02  0.45594000000E+02  0.51100000000E-03 0. -1.
    9900012    2    1    2    0    0  0.10921891256E+01  0.18708380870E+00  0.40620078773E+00  0.90007798103E+02  0.90000060238E+02 0.  0.
         12    1    1    2    0    0 -0.10921891256E+01 -0.18708380870E+00 -0.40620078773E+00  0.11802018969E+01  0.00000000000E+00 0. -1.
         11    1    3    3    0    0  0.73604552403E+01 -0.27244220520E+02 -0.22192341598E+02  0.35901586023E+02  0.51100000000E-03 0. -1.
        -11    1    3    3    0    0 -0.21406130818E+01 -0.10494080540E+02  0.25497577968E+01  0.11009505704E+02  0.51100000000E-03 0.  1.
        -12    1    3    3    0    0 -0.41276530328E+01  0.37925384869E+02  0.20048784589E+02  0.43096706377E+02  0.00000000000E+00 0.  1.
</event>
<event>
 7    1  0.2569312E-015  0.9000776E+02  0.7816164E-02  0.1186339E+00
        -11   -1    0    0    0    0  0.00000000000E+00  0.00000000000E+00  0.45593999997E+02  0.45594000000E+02  0.51100000000E-03 0. -1.
         11   -1    0    0    0    0 -0.00000000000E+00 -0.00000000000E+00 -0.45593999997E+02  0.45594000000E+02  0.51100000000E-03 0.  1.
    9900012    2    1    2    0    0 -0.31211334694E+00 -0.65229765766E+00 -0.93277098715E+00  0.90007759054E+02  0.90000020674E+02 0.  0.
         12    1    1    2    0    0  0.31211334694E+00  0.65229765766E+00  0.93277098715E+00  0.11802409457E+01  0.00000000000E+00 0. -1.
         11    1    3    3    0    0  0.86118901467E+01  0.51127013778E+01  0.12411500513E+00  0.10015975842E+02  0.51100000000E-03 0. -1.
        -11    1    3    3    0    0  0.18573888239E+02 -0.87974351919E+01 -0.32285449483E+02  0.38271849170E+02  0.51100000000E-03 0.  1.
         12    1    3    3    0    0 -0.27497891733E+02  0.30324361564E+01  0.31228563491E+02  0.41719934042E+02  0.00000000000E+00 0. -1.
</event>
<event>
 7    1  0.2569312E-015  0.9000782E+02  0.7816164E-02  0.1186339E+00
        -11   -1    0    0    0    0  0.00000000000E+00  0.00000000000E+00  0.45593999997E+02  0.45594000000E+02  0.51100000000E-03 0.  1.
         11   -1    0    0    0    0 -0.00000000000E+00 -0.00000000000E+00 -0.45593999997E+02  0.45594000000E+02  0.51100000000E-03 0. -1.
    9900012    2    1    2    0    0  0.97525104169E+00 -0.65363803147E+00  0.12025717702E+00  0.90007822446E+02  0.90000084902E+02 0.  0.
         12    1    1    2    0    0 -0.97525104169E+00  0.65363803147E+00 -0.12025717702E+00  0.11801775541E+01  0.00000000000E+00 0. -1.
         11    1    3    3    0    0  0.97474535332E+01  0.40135636306E+00  0.12786030132E+01  0.98391444363E+01  0.51100000000E-03 0. -1.
        -11    1    3    3    0    0  0.60050941148E+00 -0.39733256666E+02  0.44163425117E+01  0.39982450879E+02  0.51100000000E-03 0.  1.
         12    1    3    3    0    0 -0.93727119030E+01  0.38678262272E+02 -0.55746883479E+01  0.40186227130E+02  0.00000000000E+00 0. -1.
</event>
<event>
 7    1  0.2569312E-015  0.9000770E+02  0.7816164E-02  0.1186339E+00
        -11   -1    0    0    0    0  0.00000000000E+00  0.00000000000E+00  0.45593999997E+02  0.45594000000E+02  0.51100000000E-03 0. -1.
         11   -1    0    0    0    0 -0.00000000000E+00 -0.00000000000E+00 -0.45593999997E+02  0.45594000000E+02  0.51100000000E-03 0.  1.
    9900012    2    1    2    0    0  0.72221384616E+00  0.91261360133E+00  0.19662767502E+00  0.90007695434E+02  0.89999956214E+02 0.  0.
         12    1    1    2    0    0 -0.72221384616E+00 -0.91261360133E+00 -0.19662767502E+00  0.11803045656E+01  0.00000000000E+00 0. -1.
         11    1    3    3    0    0 -0.89698934000E+01  0.96451438490E+00 -0.22783889649E+01  0.93048552994E+01  0.51100000000E-03 0. -1.
        -11    1    3    3    0    0 -0.31938821105E+02 -0.10288890981E+02 -0.11719630965E+02  0.35542922240E+02  0.51100000000E-03 0.  1.
         12    1    3    3    0    0  0.41630928351E+02  0.10236990198E+02  0.14194647604E+02  0.45159917895E+02  0.00000000000E+00 0. -1.
</event>
<event>
 7    1  0.2569312E-015  0.9000777E+02  0.7816164E-02  0.1186339E+00
        -11   -1    0    0    0    0  0.00000000000E+00  0.00000000000E+00  0.45593999997E+02  0.45594000000E+02  0.51100000000E-03 0.  1.
         11   -1    0    0    0    0 -0.00000000000E+00 -0.00000000000E+00 -0.45593999997E+02  0.45594000000E+02  0.51100000000E-03 0. -1.
    9900012    2    1    2    0    0  0.78691510471E-02  0.35696903419E-01  0.11796685061E+01  0.90007765287E+02  0.90000026989E+02 0.  0.
         12    1    1    2    0    0 -0.78691510471E-02 -0.35696903419E-01 -0.11796685061E+01  0.11802347125E+01  0.00000000000E+00 0. -1.
         11    1    3    3    0    0 -0.31636935129E+01  0.71801253992E+01  0.58958707144E+01  0.98145019810E+01  0.51100000000E-03 0. -1.
        -11    1    3    3    0    0  0.34281845129E+02 -0.26074446462E+02 -0.72974034969E+01  0.43684937471E+02  0.51100000000E-03 0.  1.
         12    1    3    3    0    0 -0.31110282465E+02  0.18930017966E+02  0.25812012885E+01  0.36508325836E+02  0.00000000000E+00 0. -1.
</event>
<event>
 7    1  0.2569312E-015  0.9000737E+02  0.7816164E-02  0.1186340E+00
        -11   -1    0    0    0    0  0.00000000000E+00  0.00000000000E+00  0.45593999997E+02  0.45594000000E+02  0.51100000000E-03 0. -1.
         11   -1    0    0    0    0 -0.00000000000E+00 -0.00000000000E+00 -0.45593999997E+02  0.45594000000E+02  0.51100000000E-03 0.  1.
    9900012    2    1    2    0    0  0.97309617686E+00  0.66841376496E+00 -0.13947626789E-01  0.90007369801E+02  0.89999626282E+02 0.  0.
         12    1    1    2    0    0 -0.97309617686E+00 -0.66841376496E+00  0.13947626789E-01  0.11806301990E+01  0.00000000000E+00 0. -1.
         11    1    3    3    0    0 -0.56592411499E+01  0.77766578324E+01 -0.35255944261E+01  0.10243692389E+02  0.51100000000E-03 0. -1.
        -11    1    3    3    0    0  0.13611671518E+02 -0.36039833192E+02 -0.18510001455E+02  0.42740698779E+02  0.51100000000E-03 0.  1.
         12    1    3    3    0    0 -0.69793341912E+01  0.28931589125E+02  0.22021648254E+02  0.37022978633E+02  0.00000000000E+00 0. -1.
</event>
<event>
 7    1  0.2569312E-015  0.9000768E+02  0.7816164E-02  0.1186339E+00
        -11   -1    0    0    0    0  0.00000000000E+00  0.00000000000E+00  0.45593999997E+02  0.45594000000E+02  0.51100000000E-03 0. -1.
         11   -1    0    0    0    0 -0.00000000000E+00 -0.00000000000E+00 -0.45593999997E+02  0.45594000000E+02  0.51100000000E-03 0.  1.
    9900012    2    1    2    0    0 -0.77046918583E+00  0.87338265608E+00 -0.19167269241E+00  0.90007678666E+02  0.89999939224E+02 0.  0.
         12    1    1    2    0    0  0.77046918583E+00 -0.87338265608E+00  0.19167269241E+00  0.11803213339E+01  0.00000000000E+00 0. -1.
         11    1    3    3    0    0  0.15000133795E+02  0.35307761945E+01 -0.29141515252E+01  0.15683197179E+02  0.51100000000E-03 0. -1.
        -11    1    3    3    0    0  0.11851308671E+02  0.49302431900E+01 -0.28920888199E+02  0.31641406252E+02  0.51100000000E-03 0.  1.
         12    1    3    3    0    0 -0.27621911652E+02 -0.75876367284E+01  0.31643367032E+02  0.42683075235E+02  0.00000000000E+00 0. -1.
</event>
<event>
 7    1  0.2569312E-015  0.9000777E+02  0.7816164E-02  0.1186339E+00
        -11   -1    0    0    0    0  0.00000000000E+00  0.00000000000E+00  0.45593999997E+02  0.45594000000E+02  0.51100000000E-03 0.  1.
         11   -1    0    0    0    0 -0.00000000000E+00 -0.00000000000E+00 -0.45593999997E+02  0.45594000000E+02  0.51100000000E-03 0. -1.
    9900012    2    1    2    0    0 -0.45282429744E+00  0.48300058665E+00  0.97703614793E+00  0.90007771613E+02  0.90000033398E+02 0.  0.
         12    1    1    2    0    0  0.45282429744E+00 -0.48300058665E+00 -0.97703614793E+00  0.11802283870E+01  0.00000000000E+00 0. -1.
         11    1    3    3    0    0 -0.92453473425E+01  0.29549969221E+02 -0.25921392951E+02  0.40380635721E+02  0.51100000000E-03 0. -1.
        -11    1    3    3    0    0  0.91522598035E+01 -0.72495109872E+01 -0.35173160956E+01  0.12193882968E+02  0.51100000000E-03 0.  1.
        -12    1    3    3    0    0 -0.35973675839E+00 -0.21817457647E+02  0.30415745194E+02  0.37433252924E+02  0.00000000000E+00 0.  1.
</event>
<event>
 7    1  0.2569312E-015  0.9000775E+02  0.7816164E-02  0.1186339E+00
        -11   -1    0    0    0    0  0.00000000000E+00  0.00000000000E+00  0.45593999997E+02  0.45594000000E+02  0.51100000000E-03 0.  1.
         11   -1    0    0    0    0 -0.00000000000E+00 -0.00000000000E+00 -0.45593999997E+02  0.45594000000E+02  0.51100000000E-03 0. -1.
    9900012    2    1    2    0    0 -0.96509540389E+00  0.62267755513E+00  0.27174351251E+00  0.90007753834E+02  0.90000015384E+02 0.  0.
         12    1    1    2    0    0  0.96509540389E+00 -0.62267755513E+00 -0.27174351251E+00  0.11802461662E+01  0.00000000000E+00 0. -1.
         11    1    3    3    0    0 -0.48373364107E+01 -0.11735624331E+02 -0.35257852258E+02  0.37473201732E+02  0.51100000000E-03 0. -1.
        -11    1    3    3    0    0 -0.10874117885E+02  0.18014016192E+01 -0.16714319923E+01  0.11148326006E+02  0.51100000000E-03 0.  1.
        -12    1    3    3    0    0  0.14746358892E+02  0.10556900267E+02  0.37201027763E+02  0.41386226095E+02  0.00000000000E+00 0.  1.
</event>
<event>
 7    1  0.2569312E-015  0.9000801E+02  0.7816164E-02  0.1186339E+00
        -11   -1    0    0    0    0  0.00000000000E+00  0.00000000000E+00  0.45593999997E+02  0.45594000000E+02  0.51100000000E-03 0.  1.
         11   -1    0    0    0    0 -0.00000000000E+00 -0.00000000000E+00 -0.45593999997E+02  0.45594000000E+02  0.51100000000E-03 0. -1.
    9900012    2    1    2    0    0 -0.66186550072E-01 -0.11693460391E+01 -0.14362850895E+00  0.90008008489E+02  0.90000273400E+02 0.  0.
         12    1    1    2    0    0  0.66186550072E-01  0.11693460391E+01  0.14362850895E+00  0.11799915115E+01  0.00000000000E+00 0. -1.
         11    1    3    3    0    0  0.21095967868E+01  0.36085322584E+01 -0.69942239812E+01  0.81480717364E+01  0.51100000000E-03 0. -1.
        -11    1    3    3    0    0 -0.34490744934E+02  0.16409082171E+02  0.17151377323E+02  0.41869311054E+02  0.51100000000E-03 0.  1.
         12    1    3    3    0    0  0.32314961598E+02 -0.21186960469E+02 -0.10300781850E+02  0.39990625698E+02  0.00000000000E+00 0. -1.
</event>
<event>
 7    1  0.2569312E-015  0.9000781E+02  0.7816164E-02  0.1186339E+00
        -11   -1    0    0    0    0  0.00000000000E+00  0.00000000000E+00  0.45593999997E+02  0.45594000000E+02  0.51100000000E-03 0. -1.
         11   -1    0    0    0    0 -0.00000000000E+00 -0.00000000000E+00 -0.45593999997E+02  0.45594000000E+02  0.51100000000E-03 0.  1.
    9900012    2    1    2    0    0 -0.93469835202E-01 -0.75781515795E+00 -0.89990479042E+00  0.90007809738E+02  0.90000072026E+02 0.  0.
         12    1    1    2    0    0  0.93469835202E-01  0.75781515795E+00  0.89990479042E+00  0.11801902624E+01  0.00000000000E+00 0. -1.
         11    1    3    3    0    0  0.17489829537E+02 -0.28676453935E+02  0.89913784879E+01  0.34771799420E+02  0.51100000000E-03 0. -1.
        -11    1    3    3    0    0  0.88200862231E+01 -0.11636570065E+01  0.81002235889E+01  0.12031693192E+02  0.51100000000E-03 0.  1.
        -12    1    3    3    0    0 -0.26403385595E+02  0.29082295784E+02 -0.17991506867E+02  0.43204317126E+02  0.00000000000E+00 0.  1.
</event>
<event>
 7    1  0.2569312E-015  0.9000775E+02  0.7816164E-02  0.1186339E+00
        -11   -1    0    0    0    0  0.00000000000E+00  0.00000000000E+00  0.45593999997E+02  0.45594000000E+02  0.51100000000E-03 0.  1.
         11   -1    0    0    0    0 -0.00000000000E+00 -0.00000000000E+00 -0.45593999997E+02  0.45594000000E+02  0.51100000000E-03 0. -1.
    9900012    2    1    2    0    0  0.11830691210E+00 -0.10242621399E+01  0.57435597567E+00  0.90007748229E+02  0.90000009705E+02 0.  0.
         12    1    1    2    0    0 -0.11830691210E+00  0.10242621399E+01 -0.57435597567E+00  0.11802517712E+01  0.00000000000E+00 0. -1.
         11    1    3    3    0    0  0.20181262801E+02  0.44344275133E+01 -0.11367106395E+02  0.23583015576E+02  0.51100000000E-03 0. -1.
        -11    1    3    3    0    0  0.17408315860E+02 -0.13084265614E+02  0.17299008699E+02  0.27811924960E+02  0.51100000000E-03 0.  1.
        -12    1    3    3    0    0 -0.37471271749E+02  0.76255759612E+01 -0.53575463288E+01  0.38612807692E+02  0.00000000000E+00 0.  1.
</event>
<event>
 7    1  0.2569312E-015  0.9000777E+02  0.7816164E-02  0.1186339E+00
        -11   -1    0    0    0    0  0.00000000000E+00  0.00000000000E+00  0.45593999997E+02  0.45594000000E+02  0.51100000000E-03 0.  1.
         11   -1    0    0    0    0 -0.00000000000E+00 -0.00000000000E+00 -0.45593999997E+02  0.45594000000E+02  0.51100000000E-03 0. -1.
    9900012    2    1    2    0    0  0.20371317167E+00  0.68951239697E+00  0.93595867719E+00  0.90007769070E+02  0.90000030822E+02 0.  0.
         12    1    1    2    0    0 -0.20371317167E+00 -0.68951239697E+00 -0.93595867719E+00  0.11802309296E+01  0.00000000000E+00 0. -1.
         11    1    3    3    0    0 -0.78154462420E+01  0.43541005465E+00 -0.65414277252E+01  0.10201032243E+02  0.51100000000E-03 0. -1.
        -11    1    3    3    0    0 -0.16496700713E+02  0.25658759817E+02  0.25871052943E+02  0.39997805820E+02  0.51100000000E-03 0.  1.
         12    1    3    3    0    0  0.24515860127E+02 -0.25404657475E+02 -0.18393666541E+02  0.39808931008E+02  0.00000000000E+00 0. -1.
</event>
<event>
 7    1  0.2569312E-015  0.9000824E+02  0.7816164E-02  0.1186338E+00
        -11   -1    0    0    0    0  0.00000000000E+00  0.00000000000E+00  0.45593999997E+02  0.45594000000E+02  0.51100000000E-03 0.  1.
         11   -1    0    0    0    0 -0.00000000000E+00 -0.00000000000E+00 -0.45593999997E+02  0.45594000000E+02  0.51100000000E-03 0. -1.
    9900012    2    1    2    0    0  0.92739113310E+00 -0.72481112570E+00 -0.80215046197E-01  0.90008237339E+02  0.90000505271E+02 0.  0.
         12    1    1    2    0    0 -0.92739113310E+00  0.72481112570E+00  0.80215046197E-01  0.11797626606E+01  0.00000000000E+00 0. -1.
         11    1    3    3    0    0 -0.29287039841E+02 -0.19859758382E+02  0.20415832713E+02  0.40852746924E+02  0.51100000000E-03 0. -1.
        -11    1    3    3    0    0  0.15117584531E+01  0.65907375059E+01  0.52882245192E+01  0.85842037091E+01  0.51100000000E-03 0.  1.
        -12    1    3    3    0    0  0.28702672521E+02  0.12544209750E+02 -0.25784272278E+02  0.40571286706E+02  0.00000000000E+00 0.  1.
</event>
<event>
 7    1  0.2569312E-015  0.9000737E+02  0.7816164E-02  0.1186340E+00
        -11   -1    0    0    0    0  0.00000000000E+00  0.00000000000E+00  0.45593999997E+02  0.45594000000E+02  0.51100000000E-03 0. -1.
         11   -1    0    0    0    0 -0.00000000000E+00 -0.00000000000E+00 -0.45593999997E+02  0.45594000000E+02  0.51100000000E-03 0.  1.
    9900012    2    1    2    0    0 -0.55292894221E+00  0.86098017888E+00 -0.58895183908E+00  0.90007372391E+02  0.89999628905E+02 0.  0.
         12    1    1    2    0    0  0.55292894221E+00 -0.86098017888E+00  0.58895183908E+00  0.11806276095E+01  0.00000000000E+00 0. -1.
         11    1    3    3    0    0  0.39059484248E+01 -0.72827211173E+01 -0.32741580617E+01  0.88890140760E+01  0.51100000000E-03 0. -1.
        -11    1    3    3    0    0  0.40363223663E+01 -0.35262837639E+02 -0.61296389193E+01  0.36018496500E+02  0.51100000000E-03 0.  1.
         12    1    3    3    0    0 -0.84951997333E+01  0.43406538935E+02  0.88148451419E+01  0.45099861815E+02  0.00000000000E+00 0. -1.
</event>
<event>
 7    1  0.2569312E-015  0.9000769E+02  0.7816164E-02  0.1186339E+00
        -11   -1    0    0    0    0  0.00000000000E+00  0.00000000000E+00  0.45593999997E+02  0.45594000000E+02  0.51100000000E-03 0.  1.
         11   -1    0    0    0    0 -0.00000000000E+00 -0.00000000000E+00 -0.45593999997E+02  0.45594000000E+02  0.51100000000E-03 0. -1.
    9900012    2    1    2    0    0 -0.18458314939E+00  0.11287661059E+01  0.29146662578E+00  0.90007687899E+02  0.89999948580E+02 0.  0.
         12    1    1    2    0    0  0.18458314939E+00 -0.11287661059E+01 -0.29146662578E+00  0.11803121006E+01  0.00000000000E+00 0. -1.
         11    1    3    3    0    0 -0.14528849972E+01  0.94921072230E+01  0.21061055114E+01  0.98309030631E+01  0.51100000000E-03 0. -1.
        -11    1    3    3    0    0 -0.11692624436E+02  0.33592344573E+02 -0.59774529942E+01  0.36067894653E+02  0.51100000000E-03 0.  1.
         12    1    3    3    0    0  0.12960926284E+02 -0.41955685691E+02  0.41628141085E+01  0.44108890183E+02  0.00000000000E+00 0. -1.
</event>
<event>
 7    1  0.2569312E-015  0.9000769E+02  0.7816164E-02  0.1186339E+00
        -11   -1    0    0    0    0  0.00000000000E+00  0.00000000000E+00  0.45593999997E+02  0.45594000000E+02  0.51100000000E-03 0. -1.
         11   -1    0    0    0    0 -0.00000000000E+00 -0.00000000000E+00 -0.45593999997E+02  0.45594000000E+02  0.51100000000E-03 0.  1.
    9900012    2    1    2    0    0 -0.49967672931E-01 -0.11490007841E+01  0.26538142598E+00  0.90007692044E+02  0.89999952779E+02 0.  0.
         12    1    1    2    0    0  0.49967672931E-01  0.11490007841E+01 -0.26538142598E+00  0.11803079561E+01  0.00000000000E+00 0. -1.
         11    1    3    3    0    0 -0.16116790660E+01 -0.91907291169E+01  0.22839109269E+01  0.96064176723E+01  0.51100000000E-03 0. -1.
        -11    1    3    3    0    0  0.16040354774E+02  0.21490506222E+02  0.31575348942E+02  0.41426289962E+02  0.51100000000E-03 0.  1.
         12    1    3    3    0    0 -0.14478643381E+02 -0.13448777890E+02 -0.33593878443E+02  0.38974984409E+02  0.00000000000E+00 0. -1.
</event>
<event>
 7    1  0.2569312E-015  0.9000771E+02  0.7816164E-02  0.1186339E+00
        -11   -1    0    0    0    0  0.00000000000E+00  0.00000000000E+00  0.45593999997E+02  0.45594000000E+02  0.51100000000E-03 0.  1.
         11   -1    0    0    0    0 -0.00000000000E+00 -0.00000000000E+00 -0.45593999997E+02  0.45594000000E+02  0.51100000000E-03 0. -1.
    9900012    2    1    2    0    0  0.18481611978E-01 -0.11738555826E+01 -0.12165521986E+00  0.90007712539E+02  0.89999973544E+02 0.  0.
         12    1    1    2    0    0 -0.18481611978E-01  0.11738555826E+01  0.12165521986E+00  0.11802874613E+01  0.00000000000E+00 0. -1.
         11    1    3    3    0    0  0.14216645221E+02 -0.35003779306E+02 -0.83029609037E+01  0.38682253387E+02  0.51100000000E-03 0. -1.
        -11    1    3    3    0    0 -0.77831900874E+01 -0.54586219960E+01 -0.30130988904E+01  0.99726309075E+01  0.51100000000E-03 0.  1.
        -12    1    3    3    0    0 -0.64149735214E+01  0.39288545720E+02  0.11194404574E+02  0.41352828244E+02  0.00000000000E+00 0.  1.
</event>
<event>
 7    1  0.2569312E-015  0.9000775E+02  0.7816164E-02  0.1186339E+00
        -11   -1    0    0    0    0  0.00000000000E+00  0.00000000000E+00  0.45593999997E+02  0.45594000000E+02  0.51100000000E-03 0. -1.
         11   -1    0    0    0    0 -0.00000000000E+00 -0.00000000000E+00 -0.45593999997E+02  0.45594000000E+02  0.51100000000E-03 0.  1.
    9900012    2    1    2    0    0 -0.52537826179E+00  0.15031240419E+00 -0.10461250560E+01  0.90007748429E+02  0.90000009909E+02 0.  0.
         12    1    1    2    0    0  0.52537826179E+00 -0.15031240419E+00  0.10461250560E+01  0.11802515705E+01  0.00000000000E+00 0. -1.
         11    1    3    3    0    0  0.74354020475E+00 -0.51475531626E+01 -0.31697704455E+01  0.60907799612E+01  0.51100000000E-03 0. -1.
        -11    1    3    3    0    0 -0.35734463787E+02  0.17094419736E+02  0.18806228918E+02  0.43850260372E+02  0.51100000000E-03 0.  1.
         12    1    3    3    0    0  0.34465545321E+02 -0.11796554170E+02 -0.16682583528E+02  0.40066708097E+02  0.00000000000E+00 0. -1.
</event>
<event>
 7    1  0.2569312E-015  0.9000764E+02  0.7816164E-02  0.1186339E+00
        -11   -1    0    0    0    0  0.00000000000E+00  0.00000000000E+00  0.45593999997E+02  0.45594000000E+02  0.51100000000E-03 0. -1.
         11   -1    0    0    0    0 -0.00000000000E+00 -0.00000000000E+00 -0.45593999997E+02  0.45594000000E+02  0.51100000000E-03 0.  1.
    9900012    2    1    2    0    0 -0.51781614983E+00 -0.10569840528E+01  0.88892248471E-01  0.90007639595E+02  0.89999899638E+02 0.  0.
         12    1    1    2    0    0  0.51781614983E+00  0.10569840528E+01 -0.88892248471E-01  0.11803604046E+01  0.00000000000E+00 0. -1.
         11    1    3    3    0    0  0.78212356615E+01  0.26507606722E+01  0.47948185756E+01  0.95492693358E+01  0.51100000000E-03 0. -1.
        -11    1    3    3    0    0 -0.16245235498E+02  0.18979579013E+02  0.29500505355E+02  0.38657624246E+02  0.51100000000E-03 0.  1.
         12    1    3    3    0    0  0.79061836866E+01 -0.22687323738E+02 -0.34206431682E+02  0.41800746014E+02  0.00000000000E+00 0. -1.
</event>
<event>
 7    1  0.2569312E-015  0.9000759E+02  0.7816164E-02  0.1186339E+00
        -11   -1    0    0    0    0  0.00000000000E+00  0.00000000000E+00  0.45593999997E+02  0.45594000000E+02  0.51100000000E-03 0.  1.
         11   -1    0    0    0    0 -0.00000000000E+00 -0.00000000000E+00 -0.45593999997E+02  0.45594000000E+02  0.51100000000E-03 0. -1.
    9900012    2    1    2    0    0 -0.33894571801E+00  0.10601451476E+01  0.39316479305E+00  0.90007588848E+02  0.89999848220E+02 0.  0.
         12    1    1    2    0    0  0.33894571801E+00 -0.10601451476E+01 -0.39316479305E+00  0.11804111522E+01  0.00000000000E+00 0. -1.
         11    1    3    3    0    0 -0.26245005196E+02  0.20587829729E+01 -0.24225081905E+02  0.35775598928E+02  0.51100000000E-03 0. -1.
        -11    1    3    3    0    0 -0.76340676900E+00 -0.75663043728E+01 -0.83683190419E+01  0.11307542421E+02  0.51100000000E-03 0.  1.
        -12    1    3    3    0    0  0.26669466247E+02  0.65676665475E+01  0.32986565740E+02  0.42924447499E+02  0.00000000000E+00 0.  1.
</event>
<event>
 7    1  0.2569312E-015  0.9000780E+02  0.7816164E-02  0.1186339E+00
        -11   -1    0    0    0    0  0.00000000000E+00  0.00000000000E+00  0.45593999997E+02  0.45594000000E+02  0.51100000000E-03 0. -1.
         11   -1    0    0    0    0 -0.00000000000E+00 -0.00000000000E+00 -0.45593999997E+02  0.45594000000E+02  0.51100000000E-03 0.  1.
    9900012    2    1    2    0    0  0.90627422900E+00 -0.10606521007E+00 -0.74853032137E+00  0.90007796438E+02  0.90000058550E+02 0.  0.
         12    1    1    2    0    0 -0.90627422900E+00  0.10606521007E+00  0.74853032137E+00  0.11802035625E+01  0.00000000000E+00 0. -1.
         11    1    3    3    0    0 -0.26453074370E+02 -0.11343158760E+02  0.19196406208E+02  0.34596739816E+02  0.51100000000E-03 0. -1.
        -11    1    3    3    0    0 -0.66550520372E+01 -0.96221811459E+00  0.74714800698E+01  0.10051795661E+02  0.51100000000E-03 0.  1.
        -12    1    3    3    0    0  0.34014400636E+02  0.12199311665E+02 -0.27416416599E+02  0.45359260961E+02  0.00000000000E+00 0.  1.
</event>
<event>
 7    1  0.2569312E-015  0.9000773E+02  0.7816164E-02  0.1186339E+00
        -11   -1    0    0    0    0  0.00000000000E+00  0.00000000000E+00  0.45593999997E+02  0.45594000000E+02  0.51100000000E-03 0.  1.
         11   -1    0    0    0    0 -0.00000000000E+00 -0.00000000000E+00 -0.45593999997E+02  0.45594000000E+02  0.51100000000E-03 0. -1.
    9900012    2    1    2    0    0 -0.67110740390E+00 -0.81988653602E+00  0.52003796925E+00  0.90007729451E+02  0.89999990680E+02 0.  0.
         12    1    1    2    0    0  0.67110740390E+00  0.81988653602E+00 -0.52003796925E+00  0.11802705491E+01  0.00000000000E+00 0. -1.
         11    1    3    3    0    0  0.28166123913E+02  0.12787419918E+02  0.63641560418E+01  0.31580866468E+02  0.51100000000E-03 0. -1.
        -11    1    3    3    0    0  0.13627683370E+02 -0.23301917556E+01 -0.42391011059E+01  0.14460758144E+02  0.51100000000E-03 0.  1.
        -12    1    3    3    0    0 -0.42464914687E+02 -0.11277114698E+02 -0.16050169667E+01  0.43966104840E+02  0.00000000000E+00 0.  1.
</event>
<event>
 7    1  0.2569312E-015  0.9000782E+02  0.7816164E-02  0.1186339E+00
        -11   -1    0    0    0    0  0.00000000000E+00  0.00000000000E+00  0.45593999997E+02  0.45594000000E+02  0.51100000000E-03 0. -1.
         11   -1    0    0    0    0 -0.00000000000E+00 -0.00000000000E+00 -0.45593999997E+02  0.45594000000E+02  0.51100000000E-03 0.  1.
    9900012    2    1    2    0    0 -0.83678884614E+00 -0.17493688194E+00 -0.81363944962E+00  0.90007818811E+02  0.90000081219E+02 0.  0.
         12    1    1    2    0    0  0.83678884614E+00  0.17493688194E+00  0.81363944962E+00  0.11801811893E+01  0.00000000000E+00 0. -1.
         11    1    3    3    0    0 -0.60520698184E+00  0.37446306581E+01 -0.91365407099E+01  0.98926695417E+01  0.51100000000E-03 0. -1.
        -11    1    3    3    0    0  0.35034712941E+02 -0.51004863602E+01 -0.14318377380E+02  0.38189815436E+02  0.51100000000E-03 0.  1.
         12    1    3    3    0    0 -0.35266294805E+02  0.11809188201E+01  0.22641278640E+02  0.41925333833E+02  0.00000000000E+00 0. -1.
</event>
<event>
 7    1  0.2569312E-015  0.9000772E+02  0.7816164E-02  0.1186339E+00
        -11   -1    0    0    0    0  0.00000000000E+00  0.00000000000E+00  0.45593999997E+02  0.45594000000E+02  0.51100000000E-03 0. -1.
         11   -1    0    0    0    0 -0.00000000000E+00 -0.00000000000E+00 -0.45593999997E+02  0.45594000000E+02  0.51100000000E-03 0.  1.
    9900012    2    1    2    0    0  0.61613546688E+00 -0.87310723398E+00 -0.50112485921E+00  0.90007718135E+02  0.89999979215E+02 0.  0.
         12    1    1    2    0    0 -0.61613546688E+00  0.87310723398E+00  0.50112485921E+00  0.11802818647E+01  0.00000000000E+00 0. -1.
         11    1    3    3    0    0  0.31606906026E+01 -0.67967347320E+00  0.10617138189E+02  0.11098447851E+02  0.51100000000E-03 0. -1.
        -11    1    3    3    0    0  0.36617850977E+02  0.61216256259E+01 -0.12620663716E+02  0.39212529418E+02  0.51100000000E-03 0.  1.
         12    1    3    3    0    0 -0.39162406113E+02 -0.63150593866E+01  0.15024006674E+01  0.39696740866E+02  0.00000000000E+00 0. -1.
</event>
<event>
 7    1  0.2569312E-015  0.9000767E+02  0.7816164E-02  0.1186339E+00
        -11   -1    0    0    0    0  0.00000000000E+00  0.00000000000E+00  0.45593999997E+02  0.45594000000E+02  0.51100000000E-03 0.  1.
         11   -1    0    0    0    0 -0.00000000000E+00 -0.00000000000E+00 -0.45593999997E+02  0.45594000000E+02  0.51100000000E-03 0. -1.
    9900012    2    1    2    0    0  0.32788563245E+00 -0.11338195394E+01 -0.10848366846E-01  0.90007672324E+02  0.89999932799E+02 0.  0.
         12    1    1    2    0    0 -0.32788563245E+00  0.11338195394E+01  0.10848366846E-01  0.11803276761E+01  0.00000000000E+00 0. -1.
         11    1    3    3    0    0  0.89613511462E+01  0.12684559254E+02 -0.25340881593E+01  0.15736119626E+02  0.51100000000E-03 0. -1.
        -11    1    3    3    0    0  0.20843204484E+02  0.15612246029E+02  0.15912595814E+02  0.30518717290E+02  0.51100000000E-03 0.  1.
         12    1    3    3    0    0 -0.29476669998E+02 -0.29430624822E+02 -0.13389356022E+02  0.43752835408E+02  0.00000000000E+00 0. -1.
</event>
<event>
 7    1  0.2569312E-015  0.9000783E+02  0.7816164E-02  0.1186339E+00
        -11   -1    0    0    0    0  0.00000000000E+00  0.00000000000E+00  0.45593999997E+02  0.45594000000E+02  0.51100000000E-03 0.  1.
         11   -1    0    0    0    0 -0.00000000000E+00 -0.00000000000E+00 -0.45593999997E+02  0.45594000000E+02  0.51100000000E-03 0. -1.
    9900012    2    1    2    0    0 -0.10768425858E+01  0.48283091303E+00 -0.93946869770E-02  0.90007828866E+02  0.90000091407E+02 0.  0.
         12    1    1    2    0    0  0.10768425858E+01 -0.48283091303E+00  0.93946869770E-02  0.11801711339E+01  0.00000000000E+00 0. -1.
         11    1    3    3    0    0 -0.94985038390E+01  0.13245974205E+01 -0.25958838859E+01  0.99355295237E+01  0.51100000000E-03 0. -1.
        -11    1    3    3    0    0  0.29584467448E+01 -0.38193125150E+02  0.13761131187E+02  0.40704249749E+02  0.51100000000E-03 0.  1.
         12    1    3    3    0    0  0.54632145084E+01  0.37351358642E+02 -0.11174641989E+02  0.39368049593E+02  0.00000000000E+00 0. -1.
</event>
<event>
 7    1  0.2569312E-015  0.9000667E+02  0.7816164E-02  0.1186341E+00
        -11   -1    0    0    0    0  0.00000000000E+00  0.00000000000E+00  0.45593999997E+02  0.45594000000E+02  0.51100000000E-03 0. -1.
         11   -1    0    0    0    0 -0.00000000000E+00 -0.00000000000E+00 -0.45593999997E+02  0.45594000000E+02  0.51100000000E-03 0.  1.
    9900012    2    1    2    0    0  0.17892192675E+00  0.68534536394E+00 -0.94542938266E+00  0.90006666837E+02  0.89998914033E+02 0.  0.
         12    1    1    2    0    0 -0.17892192675E+00 -0.68534536394E+00  0.94542938266E+00  0.11813331627E+01  0.00000000000E+00 0. -1.
         11    1    3    3    0    0 -0.12936332189E+02 -0.36878685105E+01 -0.33907257739E+01  0.13872493871E+02  0.51100000000E-03 0. -1.
        -11    1    3    3    0    0 -0.30659739855E+02  0.66331105664E+01 -0.47100854811E+01  0.31720698436E+02  0.51100000000E-03 0.  1.
         12    1    3    3    0    0  0.43774993971E+02 -0.22598966919E+01  0.71553818723E+01  0.44413474531E+02  0.00000000000E+00 0. -1.
</event>
<event>
 7    1  0.2569312E-015  0.9000751E+02  0.7816164E-02  0.1186339E+00
        -11   -1    0    0    0    0  0.00000000000E+00  0.00000000000E+00  0.45593999997E+02  0.45594000000E+02  0.51100000000E-03 0.  1.
         11   -1    0    0    0    0 -0.00000000000E+00 -0.00000000000E+00 -0.45593999997E+02  0.45594000000E+02  0.51100000000E-03 0. -1.
    9900012    2    1    2    0    0  0.69655596643E+00  0.42276818383E+00  0.85418082956E+00  0.90007513642E+02  0.89999772022E+02 0.  0.
         12    1    1    2    0    0 -0.69655596643E+00 -0.42276818383E+00 -0.85418082956E+00  0.11804863579E+01  0.00000000000E+00 0. -1.
         11    1    3    3    0    0  0.46296237644E+01 -0.89552995415E+01 -0.14461064963E+01  0.10184401324E+02  0.51100000000E-03 0. -1.
        -11    1    3    3    0    0 -0.28250142033E+02 -0.90042203678E+01  0.27372600557E+02  0.40353510019E+02  0.51100000000E-03 0.  1.
         12    1    3    3    0    0  0.24317074235E+02  0.18382288093E+02 -0.25072313231E+02  0.39469602299E+02  0.00000000000E+00 0. -1.
</event>
<event>
 7    1  0.2569312E-015  0.9000776E+02  0.7816164E-02  0.1186339E+00
        -11   -1    0    0    0    0  0.00000000000E+00  0.00000000000E+00  0.45593999997E+02  0.45594000000E+02  0.51100000000E-03 0. -1.
         11   -1    0    0    0    0 -0.00000000000E+00 -0.00000000000E+00 -0.45593999997E+02  0.45594000000E+02  0.51100000000E-03 0.  1.
    9900012    2    1    2    0    0  0.79612483170E+00  0.34378867178E+00 -0.80059993036E+00  0.90007760343E+02  0.90000021980E+02 0.  0.
         12    1    1    2    0    0 -0.79612483170E+00 -0.34378867178E+00  0.80059993036E+00  0.11802396566E+01  0.00000000000E+00 0. -1.
         11    1    3    3    0    0 -0.35763861323E+02 -0.16061591181E+02 -0.21181186220E+01  0.39262130797E+02  0.51100000000E-03 0. -1.
        -11    1    3    3    0    0  0.34286663282E+01 -0.29760080256E+01  0.10359885285E+02  0.11311038853E+02  0.51100000000E-03 0.  1.
        -12    1    3    3    0    0  0.33131319826E+02  0.19381387878E+02 -0.90423665935E+01  0.39434590693E+02  0.00000000000E+00 0.  1.
</event>
<event>
 7    1  0.2569312E-015  0.9000775E+02  0.7816164E-02  0.1186339E+00
        -11   -1    0    0    0    0  0.00000000000E+00  0.00000000000E+00  0.45593999997E+02  0.45594000000E+02  0.51100000000E-03 0. -1.
         11   -1    0    0    0    0 -0.00000000000E+00 -0.00000000000E+00 -0.45593999997E+02  0.45594000000E+02  0.51100000000E-03 0.  1.
    9900012    2    1    2    0    0 -0.76037261312E+00 -0.69361177448E+00 -0.57769391834E+00  0.90007748303E+02  0.90000009781E+02 0.  0.
         12    1    1    2    0    0  0.76037261312E+00  0.69361177448E+00  0.57769391834E+00  0.11802516968E+01  0.00000000000E+00 0. -1.
         11    1    3    3    0    0  0.25034225471E+02 -0.24629429409E+02  0.87308244808E+01  0.36187684843E+02  0.51100000000E-03 0. -1.
        -11    1    3    3    0    0  0.97826081549E+01 -0.53277349728E+00 -0.99216108921E+00  0.98472155354E+01  0.51100000000E-03 0.  1.
        -12    1    3    3    0    0 -0.35577206239E+02  0.24468591132E+02 -0.83163573099E+01  0.43972847925E+02  0.00000000000E+00 0.  1.
</event>
<event>
 7    1  0.2569312E-015  0.9000771E+02  0.7816164E-02  0.1186339E+00
        -11   -1    0    0    0    0  0.00000000000E+00  0.00000000000E+00  0.45593999997E+02  0.45594000000E+02  0.51100000000E-03 0. -1.
         11   -1    0    0    0    0 -0.00000000000E+00 -0.00000000000E+00 -0.45593999997E+02  0.45594000000E+02  0.51100000000E-03 0.  1.
    9900012    2    1    2    0    0  0.84312849155E+00  0.82419212002E+00  0.54022996486E-01  0.90007713260E+02  0.89999974275E+02 0.  0.
         12    1    1    2    0    0 -0.84312849155E+00 -0.82419212002E+00 -0.54022996486E-01  0.11802867398E+01  0.00000000000E+00 0. -1.
         11    1    3    3    0    0  0.37107329465E+01 -0.64633808287E+01 -0.72165448265E+01  0.10374167448E+02  0.51100000000E-03 0. -1.
        -11    1    3    3    0    0 -0.35816960673E+02  0.17036801802E+02 -0.10388027393E+02  0.41000224400E+02  0.51100000000E-03 0.  1.
         12    1    3    3    0    0  0.32949356218E+02 -0.97492288530E+01  0.17658595216E+02  0.38633321413E+02  0.00000000000E+00 0. -1.
</event>
<event>
 7    1  0.2569312E-015  0.9000777E+02  0.7816164E-02  0.1186339E+00
        -11   -1    0    0    0    0  0.00000000000E+00  0.00000000000E+00  0.45593999997E+02  0.45594000000E+02  0.51100000000E-03 0.  1.
         11   -1    0    0    0    0 -0.00000000000E+00 -0.00000000000E+00 -0.45593999997E+02  0.45594000000E+02  0.51100000000E-03 0. -1.
    9900012    2    1    2    0    0 -0.76748579052E+00  0.81325738695E+00 -0.37751275979E+00  0.90007772098E+02  0.90000033890E+02 0.  0.
         12    1    1    2    0    0  0.76748579052E+00 -0.81325738695E+00  0.37751275979E+00  0.11802279017E+01  0.00000000000E+00 0. -1.
         11    1    3    3    0    0 -0.43733669822E+01  0.52000915911E+01  0.66715787212E+01  0.95224605124E+01  0.51100000000E-03 0. -1.
        -11    1    3    3    0    0  0.19140948503E+02  0.13504981186E+02  0.29041266156E+02  0.37311600966E+02  0.51100000000E-03 0.  1.
         12    1    3    3    0    0 -0.15535067311E+02 -0.17891815390E+02 -0.36090357637E+02  0.43173710620E+02  0.00000000000E+00 0. -1.
</event>
<event>
 7    1  0.2569312E-015  0.9000792E+02  0.7816164E-02  0.1186339E+00
        -11   -1    0    0    0    0  0.00000000000E+00  0.00000000000E+00  0.45593999997E+02  0.45594000000E+02  0.51100000000E-03 0. -1.
         11   -1    0    0    0    0 -0.00000000000E+00 -0.00000000000E+00 -0.45593999997E+02  0.45594000000E+02  0.51100000000E-03 0.  1.
    9900012    2    1    2    0    0  0.74880774967E+00  0.69216391771E+00 -0.59395479988E+00  0.90007921088E+02  0.90000184846E+02 0.  0.
         12    1    1    2    0    0 -0.74880774967E+00 -0.69216391771E+00  0.59395479988E+00  0.11800789123E+01  0.00000000000E+00 0. -1.
         11    1    3    3    0    0 -0.18112607837E+01 -0.37492973614E+02  0.17580408402E+02  0.41449662193E+02  0.51100000000E-03 0. -1.
        -11    1    3    3    0    0  0.54128086573E+01  0.10348913942E+02  0.45270359465E+01  0.12525676511E+02  0.51100000000E-03 0.  1.
        -12    1    3    3    0    0 -0.28527401239E+01  0.27836223590E+02 -0.22701399149E+02  0.36032582384E+02  0.00000000000E+00 0.  1.
</event>
<event>
 7    1  0.2569312E-015  0.9000773E+02  0.7816164E-02  0.1186339E+00
        -11   -1    0    0    0    0  0.00000000000E+00  0.00000000000E+00  0.45593999997E+02  0.45594000000E+02  0.51100000000E-03 0.  1.
         11   -1    0    0    0    0 -0.00000000000E+00 -0.00000000000E+00 -0.45593999997E+02  0.45594000000E+02  0.51100000000E-03 0. -1.
    9900012    2    1    2    0    0  0.95940647645E-01 -0.11513168000E+01 -0.24145382690E+00  0.90007730992E+02  0.89999992241E+02 0.  0.
         12    1    1    2    0    0 -0.95940647645E-01  0.11513168000E+01  0.24145382690E+00  0.11802690085E+01  0.00000000000E+00 0. -1.
         11    1    3    3    0    0  0.36921022156E+01 -0.14766324875E+00 -0.84639427503E+01  0.92353532876E+01  0.51100000000E-03 0. -1.
        -11    1    3    3    0    0 -0.21146815407E+02 -0.33169925912E+02  0.17375129880E+02  0.43003801291E+02  0.51100000000E-03 0.  1.
         12    1    3    3    0    0  0.17550653839E+02  0.32166272361E+02 -0.91526409568E+01  0.37768576413E+02  0.00000000000E+00 0. -1.
</event>
<event>
 7    1  0.2569312E-015  0.9000775E+02  0.7816164E-02  0.1186339E+00
        -11   -1    0    0    0    0  0.00000000000E+00  0.00000000000E+00  0.45593999997E+02  0.45594000000E+02  0.51100000000E-03 0.  1.
         11   -1    0    0    0    0 -0.00000000000E+00 -0.00000000000E+00 -0.45593999997E+02  0.45594000000E+02  0.51100000000E-03 0. -1.
    9900012    2    1    2    0    0  0.68142973835E+00  0.57880313814E+00  0.77046987172E+00  0.90007752829E+02  0.90000014367E+02 0.  0.
         12    1    1    2    0    0 -0.68142973835E+00 -0.57880313814E+00 -0.77046987172E+00  0.11802471708E+01  0.00000000000E+00 0. -1.
         11    1    3    3    0    0  0.31448423696E+01 -0.32407409428E+01 -0.10280201820E+02  0.11228311766E+02  0.51100000000E-03 0. -1.
        -11    1    3    3    0    0  0.30036623196E+02  0.15788358859E+02 -0.13294998994E+02  0.36444862560E+02  0.51100000000E-03 0.  1.
         12    1    3    3    0    0 -0.32500035828E+02 -0.11968814778E+02  0.24345670685E+02  0.42334578504E+02  0.00000000000E+00 0. -1.
</event>
<event>
 7    1  0.2569312E-015  0.9000770E+02  0.7816164E-02  0.1186339E+00
        -11   -1    0    0    0    0  0.00000000000E+00  0.00000000000E+00  0.45593999997E+02  0.45594000000E+02  0.51100000000E-03 0. -1.
         11   -1    0    0    0    0 -0.00000000000E+00 -0.00000000000E+00 -0.45593999997E+02  0.45594000000E+02  0.51100000000E-03 0.  1.
    9900012    2    1    2    0    0 -0.65008911205E-01  0.10846992593E+01 -0.46076207154E+00  0.90007703288E+02  0.89999964171E+02 0.  0.
         12    1    1    2    0    0  0.65008911205E-01 -0.10846992593E+01  0.46076207154E+00  0.11802967120E+01  0.00000000000E+00 0. -1.
         11    1    3    3    0    0 -0.60178249138E+01  0.15285065177E+02  0.31884281627E+02  0.35867183459E+02  0.51100000000E-03 0. -1.
        -11    1    3    3    0    0  0.64915351299E+01 -0.20205632259E+01  0.88610053969E+01  0.11168711698E+02  0.51100000000E-03 0.  1.
        -12    1    3    3    0    0 -0.53871912731E+00 -0.12179802692E+02 -0.41206049096E+02  0.42971808130E+02  0.00000000000E+00 0.  1.
</event>
<event>
 7    1  0.2569312E-015  0.9000771E+02  0.7816164E-02  0.1186339E+00
        -11   -1    0    0    0    0  0.00000000000E+00  0.00000000000E+00  0.45593999997E+02  0.45594000000E+02  0.51100000000E-03 0.  1.
         11   -1    0    0    0    0 -0.00000000000E+00 -0.00000000000E+00 -0.45593999997E+02  0.45594000000E+02  0.51100000000E-03 0. -1.
    9900012    2    1    2    0    0 -0.37884649456E+00  0.94535688636E-01  0.11138376244E+01  0.90007705157E+02  0.89999966065E+02 0.  0.
         12    1    1    2    0    0  0.37884649456E+00 -0.94535688636E-01 -0.11138376244E+01  0.11802948430E+01  0.00000000000E+00 0. -1.
         11    1    3    3    0    0 -0.19593413377E+02  0.34142524102E+02 -0.13552657485E+02  0.41632779453E+02  0.51100000000E-03 0. -1.
        -11    1    3    3    0    0  0.67841523697E+01  0.25148856269E+01  0.54462639179E+00  0.72557557332E+01  0.51100000000E-03 0.  1.
        -12    1    3    3    0    0  0.12430414513E+02 -0.36562874040E+02  0.14121868718E+02  0.41119169971E+02  0.00000000000E+00 0.  1.
</event>
<event>
 7    1  0.2569312E-015  0.9000777E+02  0.7816164E-02  0.1186339E+00
        -11   -1    0    0    0    0  0.00000000000E+00  0.00000000000E+00  0.45593999997E+02  0.45594000000E+02  0.51100000000E-03 0.  1.
         11   -1    0    0    0    0 -0.00000000000E+00 -0.00000000000E+00 -0.45593999997E+02  0.45594000000E+02  0.51100000000E-03 0. -1.
    9900012    2    1    2    0    0  0.81810636193E+00  0.84405672879E+00 -0.10591247478E+00  0.90007768144E+02  0.90000029884E+02 0.  0.
         12    1    1    2    0    0 -0.81810636193E+00 -0.84405672879E+00  0.10591247478E+00  0.11802318557E+01  0.00000000000E+00 0. -1.
         11    1    3    3    0    0 -0.98617854142E+00  0.37843553768E+01  0.87720178770E+01  0.96042798600E+01  0.51100000000E-03 0. -1.
        -11    1    3    3    0    0  0.49935731495E+01  0.10067289902E+02  0.33828525298E+02  0.35646251176E+02  0.51100000000E-03 0.  1.
         12    1    3    3    0    0 -0.31892882462E+01 -0.13007588550E+02 -0.42706455650E+02  0.44757237109E+02  0.00000000000E+00 0. -1.
</event>
<event>
 7    1  0.2569312E-015  0.9000829E+02  0.7816164E-02  0.1186338E+00
        -11   -1    0    0    0    0  0.00000000000E+00  0.00000000000E+00  0.45593999997E+02  0.45594000000E+02  0.51100000000E-03 0.  1.
         11   -1    0    0    0    0 -0.00000000000E+00 -0.00000000000E+00 -0.45593999997E+02  0.45594000000E+02  0.51100000000E-03 0. -1.
    9900012    2    1    2    0    0 -0.39755636853E+00 -0.72031434879E+00  0.84546332795E+00  0.90008291533E+02  0.90000560180E+02 0.  0.
         12    1    1    2    0    0  0.39755636853E+00  0.72031434879E+00 -0.84546332795E+00  0.11797084666E+01  0.00000000000E+00 0. -1.
         11    1    3    3    0    0  0.17657157379E+02 -0.16903487892E+02 -0.12685405361E+02  0.27539473834E+02  0.51100000000E-03 0. -1.
        -11    1    3    3    0    0  0.19435607498E+01  0.14173270817E+01 -0.20324896806E+02  0.20466745586E+02  0.51100000000E-03 0.  1.
        -12    1    3    3    0    0 -0.19998274497E+02  0.14765846461E+02  0.33855765495E+02  0.42002072114E+02  0.00000000000E+00 0.  1.
</event>
<event>
 7    1  0.2569312E-015  0.9000769E+02  0.7816164E-02  0.1186339E+00
        -11   -1    0    0    0    0  0.00000000000E+00  0.00000000000E+00  0.45593999997E+02  0.45594000000E+02  0.51100000000E-03 0. -1.
         11   -1    0    0    0    0 -0.00000000000E+00 -0.00000000000E+00 -0.45593999997E+02  0.45594000000E+02  0.51100000000E-03 0.  1.
    9900012    2    1    2    0    0  0.49370351053E+00 -0.37557213375E+00  0.10041534844E+01  0.90007694190E+02  0.89999954954E+02 0.  0.
         12    1    1    2    0    0 -0.49370351053E+00  0.37557213375E+00 -0.10041534844E+01  0.11803058096E+01  0.00000000000E+00 0. -1.
         11    1    3    3    0    0  0.53174561543E+01 -0.12735305163E+02  0.38995018525E+02  0.41365140004E+02  0.51100000000E-03 0. -1.
        -11    1    3    3    0    0  0.72462091458E+01  0.32552159417E+01 -0.20737660652E+00  0.79465076058E+01  0.51100000000E-03 0.  1.
        -12    1    3    3    0    0 -0.12069961790E+02  0.91045170879E+01 -0.37783488434E+02  0.40696046580E+02  0.00000000000E+00 0.  1.
</event>
<event>
 7    1  0.2569312E-015  0.9000778E+02  0.7816164E-02  0.1186339E+00
        -11   -1    0    0    0    0  0.00000000000E+00  0.00000000000E+00  0.45593999997E+02  0.45594000000E+02  0.51100000000E-03 0. -1.
         11   -1    0    0    0    0 -0.00000000000E+00 -0.00000000000E+00 -0.45593999997E+02  0.45594000000E+02  0.51100000000E-03 0.  1.
    9900012    2    1    2    0    0  0.10753378327E+01  0.22283889482E+00 -0.43234360346E+00  0.90007775607E+02  0.90000037445E+02 0.  0.
         12    1    1    2    0    0 -0.10753378327E+01 -0.22283889482E+00  0.43234360346E+00  0.11802243935E+01  0.00000000000E+00 0. -1.
         11    1    3    3    0    0 -0.38976126254E+01 -0.71995907798E+01 -0.46792422680E+01  0.94297826082E+01  0.51100000000E-03 0. -1.
        -11    1    3    3    0    0  0.24284441495E+02 -0.25283501512E+02 -0.14841832577E+02  0.38069272937E+02  0.51100000000E-03 0.  1.
         12    1    3    3    0    0 -0.19311491037E+02  0.32705931187E+02  0.19088731241E+02  0.42508720061E+02  0.00000000000E+00 0. -1.
</event>
<event>
 7    1  0.2569312E-015  0.9000766E+02  0.7816164E-02  0.1186339E+00
        -11   -1    0    0    0    0  0.00000000000E+00  0.00000000000E+00  0.45593999997E+02  0.45594000000E+02  0.51100000000E-03 0. -1.
         11   -1    0    0    0    0 -0.00000000000E+00 -0.00000000000E+00 -0.45593999997E+02  0.45594000000E+02  0.51100000000E-03 0.  1.
    9900012    2    1    2    0    0 -0.37297429308E+00  0.27343215374E+00 -0.10859694539E+01  0.90007659108E+02  0.89999919408E+02 0.  0.
         12    1    1    2    0    0  0.37297429308E+00 -0.27343215374E+00  0.10859694539E+01  0.11803408918E+01  0.00000000000E+00 0. -1.
         11    1    3    3    0    0  0.15388048402E+02  0.14168356834E+02  0.17114172014E+01  0.20987217969E+02  0.51100000000E-03 0. -1.
        -11    1    3    3    0    0 -0.22196670642E+02  0.22092367084E+02 -0.73832600898E+01  0.32175726888E+02  0.51100000000E-03 0.  1.
         12    1    3    3    0    0  0.64356479470E+01 -0.35987291765E+02  0.45858734346E+01  0.36844714251E+02  0.00000000000E+00 0. -1.
</event>
<event>
 7    1  0.2569312E-015  0.9000771E+02  0.7816164E-02  0.1186339E+00
        -11   -1    0    0    0    0  0.00000000000E+00  0.00000000000E+00  0.45593999997E+02  0.45594000000E+02  0.51100000000E-03 0. -1.
         11   -1    0    0    0    0 -0.00000000000E+00 -0.00000000000E+00 -0.45593999997E+02  0.45594000000E+02  0.51100000000E-03 0.  1.
    9900012    2    1    2    0    0  0.23701425711E+00  0.71625054752E-01 -0.11540248255E+01  0.90007712237E+02  0.89999973238E+02 0.  0.
         12    1    1    2    0    0 -0.23701425711E+00 -0.71625054752E-01  0.11540248255E+01  0.11802877634E+01  0.00000000000E+00 0. -1.
         11    1    3    3    0    0  0.31256719590E+01 -0.84062068730E+01  0.20743503835E+01  0.92052739754E+01  0.51100000000E-03 0. -1.
        -11    1    3    3    0    0  0.35403800660E+02 -0.23146734761E+01 -0.16136376918E+02  0.38976524662E+02  0.51100000000E-03 0.  1.
         12    1    3    3    0    0 -0.38292458362E+02  0.10792505404E+02  0.12908001709E+02  0.41825913599E+02  0.00000000000E+00 0. -1.
</event>
<event>
 7    1  0.2569312E-015  0.9000776E+02  0.7816164E-02  0.1186339E+00
        -11   -1    0    0    0    0  0.00000000000E+00  0.00000000000E+00  0.45593999997E+02  0.45594000000E+02  0.51100000000E-03 0.  1.
         11   -1    0    0    0    0 -0.00000000000E+00 -0.00000000000E+00 -0.45593999997E+02  0.45594000000E+02  0.51100000000E-03 0. -1.
    9900012    2    1    2    0    0 -0.91805606953E-01  0.11456702103E+01 -0.26830599958E+00  0.90007755699E+02  0.90000017274E+02 0.  0.
         12    1    1    2    0    0  0.91805606953E-01 -0.11456702103E+01  0.26830599958E+00  0.11802443008E+01  0.00000000000E+00 0. -1.
         11    1    3    3    0    0  0.27283287806E+02  0.22034089052E+02 -0.13449706989E+02  0.37560264805E+02  0.51100000000E-03 0. -1.
        -11    1    3    3    0    0 -0.25880486222E+01  0.10242241173E+02  0.11839368600E+00  0.10564824525E+02  0.51100000000E-03 0.  1.
        -12    1    3    3    0    0 -0.24787044791E+02 -0.31130660015E+02  0.13063007303E+02  0.41882666370E+02  0.00000000000E+00 0.  1.
</event>
<event>
 7    1  0.2569312E-015  0.9000764E+02  0.7816164E-02  0.1186339E+00
        -11   -1    0    0    0    0  0.00000000000E+00  0.00000000000E+00  0.45593999997E+02  0.45594000000E+02  0.51100000000E-03 0.  1.
         11   -1    0    0    0    0 -0.00000000000E+00 -0.00000000000E+00 -0.45593999997E+02  0.45594000000E+02  0.51100000000E-03 0. -1.
    9900012    2    1    2    0    0 -0.73919203481E+00 -0.21445492001E+00  0.89490787635E+00  0.90007637393E+02  0.89999897406E+02 0.  0.
         12    1    1    2    0    0  0.73919203481E+00  0.21445492001E+00 -0.89490787635E+00  0.11803626071E+01  0.00000000000E+00 0. -1.
         11    1    3    3    0    0  0.24580251041E+02 -0.50962154726E+01  0.11711734588E+02  0.27700629609E+02  0.51100000000E-03 0. -1.
        -11    1    3    3    0    0 -0.19120504652E+02 -0.21936249683E+02  0.64611532148E+01  0.29808375491E+02  0.51100000000E-03 0.  1.
        -12    1    3    3    0    0 -0.61989384240E+01  0.26818010235E+02 -0.17277979927E+02  0.32498632293E+02  0.00000000000E+00 0.  1.
</event>
<event>
 7    1  0.2569312E-015  0.9000767E+02  0.7816164E-02  0.1186339E+00
        -11   -1    0    0    0    0  0.00000000000E+00  0.00000000000E+00  0.45593999997E+02  0.45594000000E+02  0.51100000000E-03 0.  1.
         11   -1    0    0    0    0 -0.00000000000E+00 -0.00000000000E+00 -0.45593999997E+02  0.45594000000E+02  0.51100000000E-03 0. -1.
    9900012    2    1    2    0    0  0.38865068828E+00 -0.93944454357E+00 -0.59964898473E+00  0.90007667711E+02  0.89999928125E+02 0.  0.
         12    1    1    2    0    0 -0.38865068828E+00  0.93944454357E+00  0.59964898473E+00  0.11803322892E+01  0.00000000000E+00 0. -1.
         11    1    3    3    0    0  0.13527562598E+00 -0.84129245771E+01  0.52545967013E+01  0.99199993039E+01  0.51100000000E-03 0. -1.
        -11    1    3    3    0    0  0.14480917354E+02 -0.24203994717E+02  0.21838767258E+02  0.35671586498E+02  0.51100000000E-03 0.  1.
         12    1    3    3    0    0 -0.14227542292E+02  0.31677474750E+02 -0.27693012944E+02  0.44416081909E+02  0.00000000000E+00 0. -1.
</event>
<event>
 7    1  0.2569312E-015  0.9000752E+02  0.7816164E-02  0.1186339E+00
        -11   -1    0    0    0    0  0.00000000000E+00  0.00000000000E+00  0.45593999997E+02  0.45594000000E+02  0.51100000000E-03 0. -1.
         11   -1    0    0    0    0 -0.00000000000E+00 -0.00000000000E+00 -0.45593999997E+02  0.45594000000E+02  0.51100000000E-03 0.  1.
    9900012    2    1    2    0    0  0.63669889305E+00  0.42249803387E+00 -0.89980450266E+00  0.90007517805E+02  0.89999776240E+02 0.  0.
         12    1    1    2    0    0 -0.63669889305E+00 -0.42249803387E+00  0.89980450266E+00  0.11804821947E+01  0.00000000000E+00 0. -1.
         11    1    3    3    0    0 -0.31409104207E+02  0.15857106648E+02 -0.20353344410E+01  0.35243754693E+02  0.51100000000E-03 0. -1.
        -11    1    3    3    0    0 -0.88545817604E+01  0.28464408803E+01 -0.30015062610E+01  0.97731716414E+01  0.51100000000E-03 0.  1.
        -12    1    3    3    0    0  0.40900384860E+02 -0.18281049494E+02  0.41370361993E+01  0.44990591471E+02  0.00000000000E+00 0.  1.
</event>
<event>
 7    1  0.2569312E-015  0.9000768E+02  0.7816164E-02  0.1186339E+00
        -11   -1    0    0    0    0  0.00000000000E+00  0.00000000000E+00  0.45593999997E+02  0.45594000000E+02  0.51100000000E-03 0.  1.
         11   -1    0    0    0    0 -0.00000000000E+00 -0.00000000000E+00 -0.45593999997E+02  0.45594000000E+02  0.51100000000E-03 0. -1.
    9900012    2    1    2    0    0 -0.19608283988E+00 -0.11306589366E+01  0.27626544775E+00  0.90007677710E+02  0.89999938256E+02 0.  0.
         12    1    1    2    0    0  0.19608283988E+00  0.11306589366E+01 -0.27626544775E+00  0.11803222901E+01  0.00000000000E+00 0. -1.
         11    1    3    3    0    0 -0.32385282029E+02 -0.33469073436E+01  0.90807970418E+01  0.33800431299E+02  0.51100000000E-03 0. -1.
        -11    1    3    3    0    0  0.11687496437E+02 -0.41263044249E+01  0.18009735980E+02  0.21862629108E+02  0.51100000000E-03 0.  1.
         12    1    3    3    0    0  0.20501702752E+02  0.63425528320E+01 -0.26814267574E+02  0.34344617303E+02  0.00000000000E+00 0. -1.
</event>
<event>
 7    1  0.2569312E-015  0.9000775E+02  0.7816164E-02  0.1186339E+00
        -11   -1    0    0    0    0  0.00000000000E+00  0.00000000000E+00  0.45593999997E+02  0.45594000000E+02  0.51100000000E-03 0.  1.
         11   -1    0    0    0    0 -0.00000000000E+00 -0.00000000000E+00 -0.45593999997E+02  0.45594000000E+02  0.51100000000E-03 0. -1.
    9900012    2    1    2    0    0  0.12168320318E+00 -0.81541480009E+00  0.84456230622E+00  0.90007748507E+02  0.90000009987E+02 0.  0.
         12    1    1    2    0    0 -0.12168320318E+00  0.81541480009E+00 -0.84456230622E+00  0.11802514932E+01  0.00000000000E+00 0. -1.
         11    1    3    3    0    0  0.67455612766E+01  0.55684378751E+01  0.30008629763E+01  0.92474470082E+01  0.51100000000E-03 0. -1.
        -11    1    3    3    0    0 -0.44863603281E+01 -0.29362432801E+02  0.29315831455E+02  0.41733653844E+02  0.51100000000E-03 0.  1.
         12    1    3    3    0    0 -0.21375177453E+01  0.22978580126E+02 -0.31472132125E+02  0.39026647655E+02  0.00000000000E+00 0. -1.
</event>
<event>
 7    1  0.2569312E-015  0.9000747E+02  0.7816164E-02  0.1186340E+00
        -11   -1    0    0    0    0  0.00000000000E+00  0.00000000000E+00  0.45593999997E+02  0.45594000000E+02  0.51100000000E-03 0. -1.
         11   -1    0    0    0    0 -0.00000000000E+00 -0.00000000000E+00 -0.45593999997E+02  0.45594000000E+02  0.51100000000E-03 0.  1.
    9900012    2    1    2    0    0 -0.14922652795E+00 -0.74312413696E+00 -0.90507230110E+00  0.90007467108E+02  0.89999724873E+02 0.  0.
         12    1    1    2    0    0  0.14922652795E+00  0.74312413696E+00  0.90507230110E+00  0.11805328923E+01  0.00000000000E+00 0. -1.
         11    1    3    3    0    0  0.19888174567E+01 -0.67907845678E+01 -0.63885033141E+01  0.95332641198E+01  0.51100000000E-03 0. -1.
        -11    1    3    3    0    0  0.50833584699E+01 -0.84163679141E+00 -0.36733727639E+02  0.37093336765E+02  0.51100000000E-03 0.  1.
         12    1    3    3    0    0 -0.72214024546E+01  0.68892972223E+01  0.42217158652E+02  0.43380866223E+02  0.00000000000E+00 0. -1.
</event>
<event>
 7    1  0.2569312E-015  0.9000777E+02  0.7816164E-02  0.1186339E+00
        -11   -1    0    0    0    0  0.00000000000E+00  0.00000000000E+00  0.45593999997E+02  0.45594000000E+02  0.51100000000E-03 0.  1.
         11   -1    0    0    0    0 -0.00000000000E+00 -0.00000000000E+00 -0.45593999997E+02  0.45594000000E+02  0.51100000000E-03 0. -1.
    9900012    2    1    2    0    0  0.11506044226E+01 -0.57145274116E-01  0.25650667623E+00  0.90007766212E+02  0.90000027926E+02 0.  0.
         12    1    1    2    0    0 -0.11506044226E+01  0.57145274116E-01 -0.25650667623E+00  0.11802337881E+01  0.00000000000E+00 0. -1.
         11    1    3    3    0    0 -0.11549597637E+02 -0.13716509451E+02  0.30173572963E+01  0.18183516778E+02  0.51100000000E-03 0. -1.
        -11    1    3    3    0    0  0.37296068399E+02  0.68514056417E+01  0.14949314899E+02  0.40760526168E+02  0.51100000000E-03 0.  1.
         12    1    3    3    0    0 -0.24595866340E+02  0.68079585356E+01 -0.17710165519E+02  0.31063723266E+02  0.00000000000E+00 0. -1.
</event>
<event>
 7    1  0.2569312E-015  0.9000772E+02  0.7816164E-02  0.1186339E+00
        -11   -1    0    0    0    0  0.00000000000E+00  0.00000000000E+00  0.45593999997E+02  0.45594000000E+02  0.51100000000E-03 0.  1.
         11   -1    0    0    0    0 -0.00000000000E+00 -0.00000000000E+00 -0.45593999997E+02  0.45594000000E+02  0.51100000000E-03 0. -1.
    9900012    2    1    2    0    0 -0.15083127472E+00  0.82433273312E+00 -0.83113663357E+00  0.90007719257E+02  0.89999980351E+02 0.  0.
         12    1    1    2    0    0  0.15083127472E+00 -0.82433273312E+00  0.83113663357E+00  0.11802807429E+01  0.00000000000E+00 0. -1.
         11    1    3    3    0    0 -0.48035321214E+01  0.36549304808E+02 -0.69284689013E+01  0.37509056031E+02  0.51100000000E-03 0. -1.
        -11    1    3    3    0    0 -0.52743833396E+01  0.30619814836E+01 -0.79933896337E+01  0.10054308943E+02  0.51100000000E-03 0.  1.
        -12    1    3    3    0    0  0.99270841863E+01 -0.38786953559E+02  0.14090721901E+02  0.42444354283E+02  0.00000000000E+00 0.  1.
</event>
<event>
 7    1  0.2569312E-015  0.9000771E+02  0.7816164E-02  0.1186339E+00
        -11   -1    0    0    0    0  0.00000000000E+00  0.00000000000E+00  0.45593999997E+02  0.45594000000E+02  0.51100000000E-03 0.  1.
         11   -1    0    0    0    0 -0.00000000000E+00 -0.00000000000E+00 -0.45593999997E+02  0.45594000000E+02  0.51100000000E-03 0. -1.
    9900012    2    1    2    0    0 -0.10023753956E+01 -0.31554088340E+00  0.53737052414E+00  0.90007707848E+02  0.89999968792E+02 0.  0.
         12    1    1    2    0    0  0.10023753956E+01  0.31554088340E+00 -0.53737052414E+00  0.11802921515E+01  0.00000000000E+00 0. -1.
         11    1    3    3    0    0  0.26737417566E+02 -0.10023104586E+02 -0.23328401677E+02  0.36872299206E+02  0.51100000000E-03 0. -1.
        -11    1    3    3    0    0 -0.52087917151E+01 -0.13655353439E+02  0.10682775919E+02  0.18103090627E+02  0.51100000000E-03 0.  1.
        -12    1    3    3    0    0 -0.22531001246E+02  0.23362917142E+02  0.13182996283E+02  0.35032318015E+02  0.00000000000E+00 0.  1.
</event>
<event>
 7    1  0.2569312E-015  0.9000736E+02  0.7816164E-02  0.1186340E+00
        -11   -1    0    0    0    0  0.00000000000E+00  0.00000000000E+00  0.45593999997E+02  0.45594000000E+02  0.51100000000E-03 0.  1.
         11   -1    0    0    0    0 -0.00000000000E+00 -0.00000000000E+00 -0.45593999997E+02  0.45594000000E+02  0.51100000000E-03 0. -1.
    9900012    2    1    2    0    0  0.78317174183E+00 -0.59981792316E+00  0.64867326421E+00  0.90007357581E+02  0.89999613900E+02 0.  0.
         12    1    1    2    0    0 -0.78317174183E+00  0.59981792316E+00 -0.64867326421E+00  0.11806424191E+01  0.00000000000E+00 0. -1.
         11    1    3    3    0    0  0.28959908130E+01 -0.29382158610E+02 -0.26198244357E+02  0.39472091597E+02  0.51100000000E-03 0. -1.
        -11    1    3    3    0    0  0.26174521767E+01  0.44629071969E+01 -0.69287042460E+01  0.86472850847E+01  0.51100000000E-03 0.  1.
        -12    1    3    3    0    0 -0.47302712479E+01  0.24319433490E+02  0.33775621867E+02  0.41887980900E+02  0.00000000000E+00 0.  1.
</event>
<event>
 7    1  0.2569312E-015  0.9000775E+02  0.7816164E-02  0.1186339E+00
        -11   -1    0    0    0    0  0.00000000000E+00  0.00000000000E+00  0.45593999997E+02  0.45594000000E+02  0.51100000000E-03 0.  1.
         11   -1    0    0    0    0 -0.00000000000E+00 -0.00000000000E+00 -0.45593999997E+02  0.45594000000E+02  0.51100000000E-03 0. -1.
    9900012    2    1    2    0    0  0.11602986442E+01 -0.16563021753E+00  0.13883086670E+00  0.90007745654E+02  0.90000007096E+02 0.  0.
         12    1    1    2    0    0 -0.11602986442E+01  0.16563021753E+00 -0.13883086670E+00  0.11802543464E+01  0.00000000000E+00 0. -1.
         11    1    3    3    0    0 -0.83552710245E+01 -0.48015803849E+01 -0.35063566638E+01  0.10254767935E+02  0.51100000000E-03 0. -1.
        -11    1    3    3    0    0 -0.33426061834E+02 -0.64838901691E+01 -0.54209062211E+01  0.34477944631E+02  0.51100000000E-03 0.  1.
         12    1    3    3    0    0  0.42941631502E+02  0.11119840337E+02  0.90660937517E+01  0.45275033088E+02  0.00000000000E+00 0. -1.
</event>
<event>
 7    1  0.2569312E-015  0.9000778E+02  0.7816164E-02  0.1186339E+00
        -11   -1    0    0    0    0  0.00000000000E+00  0.00000000000E+00  0.45593999997E+02  0.45594000000E+02  0.51100000000E-03 0.  1.
         11   -1    0    0    0    0 -0.00000000000E+00 -0.00000000000E+00 -0.45593999997E+02  0.45594000000E+02  0.51100000000E-03 0. -1.
    9900012    2    1    2    0    0 -0.10441334044E+01  0.15819119559E+00  0.52695886737E+00  0.90007777704E+02  0.90000039569E+02 0.  0.
         12    1    1    2    0    0  0.10441334044E+01 -0.15819119559E+00 -0.52695886737E+00  0.11802222962E+01  0.00000000000E+00 0. -1.
         11    1    3    3    0    0 -0.41240135898E+01 -0.56789299018E+01 -0.50689869200E+01  0.86575031952E+01  0.51100000000E-03 0. -1.
        -11    1    3    3    0    0 -0.68581199068E+01 -0.36755738620E+02  0.36928288891E+01  0.37571999090E+02  0.51100000000E-03 0.  1.
         12    1    3    3    0    0  0.99380000922E+01  0.42592859717E+02  0.19031168983E+01  0.43778275419E+02  0.00000000000E+00 0. -1.
</event>
<event>
 7    1  0.2569312E-015  0.9000783E+02  0.7816164E-02  0.1186339E+00
        -11   -1    0    0    0    0  0.00000000000E+00  0.00000000000E+00  0.45593999997E+02  0.45594000000E+02  0.51100000000E-03 0.  1.
         11   -1    0    0    0    0 -0.00000000000E+00 -0.00000000000E+00 -0.45593999997E+02  0.45594000000E+02  0.51100000000E-03 0. -1.
    9900012    2    1    2    0    0  0.43038367099E+00  0.10983575420E+01  0.34266340638E-01  0.90007833242E+02  0.90000095841E+02 0.  0.
         12    1    1    2    0    0 -0.43038367099E+00 -0.10983575420E+01 -0.34266340638E-01  0.11801667579E+01  0.00000000000E+00 0. -1.
         11    1    3    3    0    0  0.20206744243E+01 -0.10126554685E+02  0.99778328573E+00  0.10374285839E+02  0.51100000000E-03 0. -1.
        -11    1    3    3    0    0 -0.43840365439E+01 -0.23009388915E+02  0.26709060239E+02  0.35525000405E+02  0.51100000000E-03 0.  1.
         12    1    3    3    0    0  0.27937457906E+01  0.34234301142E+02 -0.27672577184E+02  0.44108546998E+02  0.00000000000E+00 0. -1.
</event>
<event>
 7    1  0.3126914E-015  0.9000771E+02  0.7816164E-02  0.1186339E+00
        -11   -1    0    0    0    0  0.00000000000E+00  0.00000000000E+00  0.45593999997E+02  0.45594000000E+02  0.51100000000E-03 0. -1.
         11   -1    0    0    0    0 -0.00000000000E+00 -0.00000000000E+00 -0.45593999997E+02  0.45594000000E+02  0.51100000000E-03 0.  1.
    9900012    2    1    2    0    0 -0.37210092530E+00 -0.50292304403E+00 -0.10008488175E+01  0.90007708069E+02  0.89999969016E+02 0.  0.
         12    1    1    2    0    0  0.37210092530E+00  0.50292304403E+00  0.10008488175E+01  0.11802919309E+01  0.00000000000E+00 0. -1.
         11    1    3    3    0    0  0.34876815053E+02  0.53736742514E+01 -0.67153211795E+01  0.35921638910E+02  0.51100000000E-03 0. -1.
        -11    1    3    3    0    0  0.67973128063E+01  0.46920942350E+01 -0.46937736239E+01  0.95000379363E+01  0.51100000000E-03 0.  1.
        -12    1    3    3    0    0 -0.42046228785E+02 -0.10568691530E+02  0.10408245986E+02  0.44586031222E+02  0.00000000000E+00 0.  1.
</event>
<event>
 7    1  0.2569312E-015  0.9000773E+02  0.7816164E-02  0.1186339E+00
        -11   -1    0    0    0    0  0.00000000000E+00  0.00000000000E+00  0.45593999997E+02  0.45594000000E+02  0.51100000000E-03 0.  1.
         11   -1    0    0    0    0 -0.00000000000E+00 -0.00000000000E+00 -0.45593999997E+02  0.45594000000E+02  0.51100000000E-03 0. -1.
    9900012    2    1    2    0    0 -0.78843424903E+00 -0.60939192526E+00  0.63248599553E+00  0.90007734937E+02  0.89999996239E+02 0.  0.
         12    1    1    2    0    0  0.78843424903E+00  0.60939192526E+00 -0.63248599553E+00  0.11802650627E+01  0.00000000000E+00 0. -1.
         11    1    3    3    0    0 -0.13438145346E+02 -0.15072358498E+02 -0.24962910742E+02  0.32107735112E+02  0.51100000000E-03 0. -1.
        -11    1    3    3    0    0 -0.23455127249E+01  0.26494298684E+02  0.91280078796E+00  0.26613577329E+02  0.51100000000E-03 0.  1.
        -12    1    3    3    0    0  0.14995223822E+02 -0.12031332111E+02  0.24682595950E+02  0.31286422497E+02  0.00000000000E+00 0.  1.
</event>
<event>
 7    1  0.2569312E-015  0.9000713E+02  0.7816164E-02  0.1186340E+00
        -11   -1    0    0    0    0  0.00000000000E+00  0.00000000000E+00  0.45593999997E+02  0.45594000000E+02  0.51100000000E-03 0.  1.
         11   -1    0    0    0    0 -0.00000000000E+00 -0.00000000000E+00 -0.45593999997E+02  0.45594000000E+02  0.51100000000E-03 0. -1.
    9900012    2    1    2    0    0 -0.97571584604E+00  0.43479945382E+00  0.50337521996E+00  0.90007128039E+02  0.89999381327E+02 0.  0.
         12    1    1    2    0    0  0.97571584604E+00 -0.43479945382E+00 -0.50337521996E+00  0.11808719614E+01  0.00000000000E+00 0. -1.
         11    1    3    3    0    0 -0.67092262956E+01  0.53712104808E+00 -0.52212973978E+01  0.85184601475E+01  0.51100000000E-03 0. -1.
        -11    1    3    3    0    0 -0.27491779114E+02  0.18112523711E+02  0.22679364110E+02  0.39977681157E+02  0.51100000000E-03 0.  1.
         12    1    3    3    0    0  0.33225289563E+02 -0.18214845305E+02 -0.16954691492E+02  0.41510986734E+02  0.00000000000E+00 0. -1.
</event>
<event>
 7    1  0.2569312E-015  0.9000766E+02  0.7816164E-02  0.1186339E+00
        -11   -1    0    0    0    0  0.00000000000E+00  0.00000000000E+00  0.45593999997E+02  0.45594000000E+02  0.51100000000E-03 0.  1.
         11   -1    0    0    0    0 -0.00000000000E+00 -0.00000000000E+00 -0.45593999997E+02  0.45594000000E+02  0.51100000000E-03 0. -1.
    9900012    2    1    2    0    0  0.54788661008E+00  0.96709313327E+00  0.39717563720E+00  0.90007662187E+02  0.89999922528E+02 0.  0.
         12    1    1    2    0    0 -0.54788661008E+00 -0.96709313327E+00 -0.39717563720E+00  0.11803378130E+01  0.00000000000E+00 0. -1.
         11    1    3    3    0    0 -0.18919782439E+02  0.24502964187E+02  0.21813851258E+02  0.37870800473E+02  0.51100000000E-03 0. -1.
        -11    1    3    3    0    0 -0.80536840285E+01  0.33306033900E+01 -0.15636610297E+01  0.88543651070E+01  0.51100000000E-03 0.  1.
        -12    1    3    3    0    0  0.27521353077E+02 -0.26866474443E+02 -0.19853014591E+02  0.43282496608E+02  0.00000000000E+00 0.  1.
</event>
<event>
 7    1  0.2569312E-015  0.9000774E+02  0.7816164E-02  0.1186339E+00
        -11   -1    0    0    0    0  0.00000000000E+00  0.00000000000E+00  0.45593999997E+02  0.45594000000E+02  0.51100000000E-03 0. -1.
         11   -1    0    0    0    0 -0.00000000000E+00 -0.00000000000E+00 -0.45593999997E+02  0.45594000000E+02  0.51100000000E-03 0.  1.
    9900012    2    1    2    0    0 -0.31432389647E-01  0.75105912525E+00 -0.90991161653E+00  0.90007738607E+02  0.89999999957E+02 0.  0.
         12    1    1    2    0    0  0.31432389647E-01 -0.75105912525E+00  0.90991161653E+00  0.11802613925E+01  0.00000000000E+00 0. -1.
         11    1    3    3    0    0 -0.27751673181E+01  0.62368930537E+01  0.64164558814E+01  0.93686335688E+01  0.51100000000E-03 0. -1.
        -11    1    3    3    0    0  0.15341891792E+02  0.34791990250E+02 -0.52594075131E+01  0.38386424644E+02  0.51100000000E-03 0.  1.
         12    1    3    3    0    0 -0.12598156863E+02 -0.40277824179E+02 -0.20669599849E+01  0.42252680394E+02  0.00000000000E+00 0. -1.
</event>
<event>
 7    1  0.3844768E-015  0.9000686E+02  0.7816164E-02  0.1186341E+00
        -11   -1    0    0    0    0  0.00000000000E+00  0.00000000000E+00  0.45593999997E+02  0.45594000000E+02  0.51100000000E-03 0. -1.
         11   -1    0    0    0    0 -0.00000000000E+00 -0.00000000000E+00 -0.45593999997E+02  0.45594000000E+02  0.51100000000E-03 0.  1.
    9900012    2    1    2    0    0 -0.18829642114E+00  0.40326937663E+00 -0.10940746822E+01  0.90006864469E+02  0.89999114276E+02 0.  0.
         12    1    1    2    0    0  0.18829642114E+00 -0.40326937663E+00  0.10940746822E+01  0.11811355310E+01  0.00000000000E+00 0. -1.
         11    1    3    3    0    0 -0.22861713184E+01  0.27429542885E+02  0.31364831590E+02  0.41729594571E+02  0.51100000000E-03 0. -1.
        -11    1    3    3    0    0  0.86841353556E+01 -0.34431091666E+01 -0.26684828332E+01  0.97154520482E+01  0.51100000000E-03 0.  1.
        -12    1    3    3    0    0 -0.65862604584E+01 -0.23583164342E+02 -0.29790423438E+02  0.38561817849E+02  0.00000000000E+00 0.  1.
</event>
<event>
 7    1  0.2569312E-015  0.9000796E+02  0.7816164E-02  0.1186339E+00
        -11   -1    0    0    0    0  0.00000000000E+00  0.00000000000E+00  0.45593999997E+02  0.45594000000E+02  0.51100000000E-03 0. -1.
         11   -1    0    0    0    0 -0.00000000000E+00 -0.00000000000E+00 -0.45593999997E+02  0.45594000000E+02  0.51100000000E-03 0.  1.
    9900012    2    1    2    0    0  0.10389188014E+00  0.10260045171E+01  0.57360574319E+00  0.90007956636E+02  0.90000220863E+02 0.  0.
         12    1    1    2    0    0 -0.10389188014E+00 -0.10260045171E+01 -0.57360574319E+00  0.11800433638E+01  0.00000000000E+00 0. -1.
         11    1    3    3    0    0  0.84258498823E+01 -0.27135114366E+02  0.23679589854E+02  0.36986921388E+02  0.51100000000E-03 0. -1.
        -11    1    3    3    0    0  0.36948165661E+01 -0.71191284932E+01  0.17667375046E+01  0.82131006101E+01  0.51100000000E-03 0.  1.
        -12    1    3    3    0    0 -0.12016774568E+02  0.35280247376E+02 -0.24872721616E+02  0.44807934638E+02  0.00000000000E+00 0.  1.
</event>
<event>
 7    1  0.2569312E-015  0.9000767E+02  0.7816164E-02  0.1186339E+00
        -11   -1    0    0    0    0  0.00000000000E+00  0.00000000000E+00  0.45593999997E+02  0.45594000000E+02  0.51100000000E-03 0. -1.
         11   -1    0    0    0    0 -0.00000000000E+00 -0.00000000000E+00 -0.45593999997E+02  0.45594000000E+02  0.51100000000E-03 0.  1.
    9900012    2    1    2    0    0  0.11682883714E+01  0.14973737458E+00 -0.76496082133E-01  0.90007673498E+02  0.89999933988E+02 0.  0.
         12    1    1    2    0    0 -0.11682883714E+01 -0.14973737458E+00  0.76496082133E-01  0.11803265017E+01  0.00000000000E+00 0. -1.
         11    1    3    3    0    0  0.79068111632E+01  0.42777807807E+01  0.17132850630E+01  0.91516346707E+01  0.51100000000E-03 0. -1.
        -11    1    3    3    0    0  0.15878424268E+02 -0.21435306601E+02 -0.30429501256E+02  0.40466668671E+02  0.51100000000E-03 0.  1.
         12    1    3    3    0    0 -0.22616947060E+02  0.17307263195E+02  0.28639720111E+02  0.40389370157E+02  0.00000000000E+00 0. -1.
</event>
<event>
 7    1  0.3719386E-015  0.9000777E+02  0.7816164E-02  0.1186339E+00
        -11   -1    0    0    0    0  0.00000000000E+00  0.00000000000E+00  0.45593999997E+02  0.45594000000E+02  0.51100000000E-03 0. -1.
         11   -1    0    0    0    0 -0.00000000000E+00 -0.00000000000E+00 -0.45593999997E+02  0.45594000000E+02  0.51100000000E-03 0.  1.
    9900012    2    1    2    0    0  0.47148964282E+00  0.58745267038E+00 -0.90859311523E+00  0.90007769272E+02  0.90000031026E+02 0.  0.
         12    1    1    2    0    0 -0.47148964282E+00 -0.58745267038E+00  0.90859311523E+00  0.11802307284E+01  0.00000000000E+00 0. -1.
         11    1    3    3    0    0 -0.29335077137E+02 -0.12402074607E+02  0.19482645732E+02  0.37335394603E+02  0.51100000000E-03 0. -1.
        -11    1    3    3    0    0 -0.83562596045E+01  0.25782825051E+01 -0.16474236359E+01  0.88987988038E+01  0.51100000000E-03 0.  1.
        -12    1    3    3    0    0  0.38162826384E+02  0.10411244773E+02 -0.18743815211E+02  0.43773575865E+02  0.00000000000E+00 0.  1.
</event>
<event>
 7    1  0.2569312E-015  0.9000771E+02  0.7816164E-02  0.1186339E+00
        -11   -1    0    0    0    0  0.00000000000E+00  0.00000000000E+00  0.45593999997E+02  0.45594000000E+02  0.51100000000E-03 0.  1.
         11   -1    0    0    0    0 -0.00000000000E+00 -0.00000000000E+00 -0.45593999997E+02  0.45594000000E+02  0.51100000000E-03 0. -1.
    9900012    2    1    2    0    0 -0.71388718414E-03  0.11043849144E+00  0.11751084914E+01  0.90007713113E+02  0.89999974126E+02 0.  0.
         12    1    1    2    0    0  0.71388718414E-03 -0.11043849144E+00 -0.11751084914E+01  0.11802868874E+01  0.00000000000E+00 0. -1.
         11    1    3    3    0    0 -0.34905687192E+01 -0.23270434715E+00 -0.11797300597E+02  0.12305060867E+02  0.51100000000E-03 0. -1.
        -11    1    3    3    0    0  0.12115327973E+02  0.20499758973E+02  0.37740524416E+02  0.44624751801E+02  0.51100000000E-03 0.  1.
         12    1    3    3    0    0 -0.86254731414E+01 -0.20156616135E+02 -0.24768115328E+02  0.33077900444E+02  0.00000000000E+00 0. -1.
</event>
<event>
 7    1  0.2569312E-015  0.9000767E+02  0.7816164E-02  0.1186339E+00
        -11   -1    0    0    0    0  0.00000000000E+00  0.00000000000E+00  0.45593999997E+02  0.45594000000E+02  0.51100000000E-03 0. -1.
         11   -1    0    0    0    0 -0.00000000000E+00 -0.00000000000E+00 -0.45593999997E+02  0.45594000000E+02  0.51100000000E-03 0.  1.
    9900012    2    1    2    0    0 -0.37573817464E+00 -0.94640148311E+00 -0.59691962470E+00  0.90007674629E+02  0.89999935134E+02 0.  0.
         12    1    1    2    0    0  0.37573817464E+00  0.94640148311E+00  0.59691962470E+00  0.11803253710E+01  0.00000000000E+00 0. -1.
         11    1    3    3    0    0 -0.83411711793E+01  0.14161075132E+01 -0.21776110023E+01  0.87362742099E+01  0.51100000000E-03 0. -1.
        -11    1    3    3    0    0 -0.76523876672E+01  0.23806606542E+02 -0.28867373039E+02  0.38192129797E+02  0.51100000000E-03 0.  1.
         12    1    3    3    0    0  0.15617820672E+02 -0.26169115538E+02  0.30448064416E+02  0.43079270622E+02  0.00000000000E+00 0. -1.
</event>
<event>
 7    1  0.2569312E-015  0.9000773E+02  0.7816164E-02  0.1186339E+00
        -11   -1    0    0    0    0  0.00000000000E+00  0.00000000000E+00  0.45593999997E+02  0.45594000000E+02  0.51100000000E-03 0.  1.
         11   -1    0    0    0    0 -0.00000000000E+00 -0.00000000000E+00 -0.45593999997E+02  0.45594000000E+02  0.51100000000E-03 0. -1.
    9900012    2    1    2    0    0  0.97800464801E+00  0.50112514750E+00  0.43059062621E+00  0.90007734016E+02  0.89999995305E+02 0.  0.
         12    1    1    2    0    0 -0.97800464801E+00 -0.50112514750E+00 -0.43059062621E+00  0.11802659837E+01  0.00000000000E+00 0. -1.
         11    1    3    3    0    0  0.49623149331E+01  0.29672801046E+01  0.80013651304E+01  0.98717356592E+01  0.51100000000E-03 0. -1.
        -11    1    3    3    0    0 -0.41726484422E+02  0.14190152190E+00 -0.10085722425E+01  0.41738912977E+02  0.51100000000E-03 0.  1.
         12    1    3    3    0    0  0.37742174137E+02 -0.26080564790E+01 -0.65622022617E+01  0.38397085380E+02  0.00000000000E+00 0. -1.
</event>
<event>
 7    1  0.2569312E-015  0.9000777E+02  0.7816164E-02  0.1186339E+00
        -11   -1    0    0    0    0  0.00000000000E+00  0.00000000000E+00  0.45593999997E+02  0.45594000000E+02  0.51100000000E-03 0.  1.
         11   -1    0    0    0    0 -0.00000000000E+00 -0.00000000000E+00 -0.45593999997E+02  0.45594000000E+02  0.51100000000E-03 0. -1.
    9900012    2    1    2    0    0 -0.57187055625E+00 -0.99149960917E+00  0.28779815662E+00  0.90007773248E+02  0.90000035054E+02 0.  0.
         12    1    1    2    0    0  0.57187055625E+00  0.99149960917E+00 -0.28779815662E+00  0.11802267524E+01  0.00000000000E+00 0. -1.
         11    1    3    3    0    0 -0.23169012239E+02 -0.32535358380E+02 -0.67298010370E+01  0.40504850269E+02  0.51100000000E-03 0. -1.
        -11    1    3    3    0    0  0.35860123638E+01 -0.59431117292E+01  0.39609055834E+00  0.69524779533E+01  0.51100000000E-03 0.  1.
        -12    1    3    3    0    0  0.19011129319E+02  0.37486970500E+02  0.66215086353E+01  0.42550445025E+02  0.00000000000E+00 0.  1.
</event>
<event>
 7    1  0.2569312E-015  0.9000774E+02  0.7816164E-02  0.1186339E+00
        -11   -1    0    0    0    0  0.00000000000E+00  0.00000000000E+00  0.45593999997E+02  0.45594000000E+02  0.51100000000E-03 0.  1.
         11   -1    0    0    0    0 -0.00000000000E+00 -0.00000000000E+00 -0.45593999997E+02  0.45594000000E+02  0.51100000000E-03 0. -1.
    9900012    2    1    2    0    0 -0.13562989812E+00  0.55550951347E+00  0.10324809973E+01  0.90007744393E+02  0.90000005819E+02 0.  0.
         12    1    1    2    0    0  0.13562989812E+00 -0.55550951347E+00 -0.10324809973E+01  0.11802556074E+01  0.00000000000E+00 0. -1.
         11    1    3    3    0    0  0.53143729845E+01 -0.82675543118E+01  0.70937573136E+01  0.12120907870E+02  0.51100000000E-03 0. -1.
        -11    1    3    3    0    0 -0.17212620587E+02 -0.10917288913E+02  0.29313607005E+02  0.35703628115E+02  0.51100000000E-03 0.  1.
         12    1    3    3    0    0  0.11762617704E+02  0.19740352738E+02 -0.35374883322E+02  0.42183208407E+02  0.00000000000E+00 0. -1.
</event>
<event>
 7    1  0.2569312E-015  0.9000767E+02  0.7816164E-02  0.1186339E+00
        -11   -1    0    0    0    0  0.00000000000E+00  0.00000000000E+00  0.45593999997E+02  0.45594000000E+02  0.51100000000E-03 0. -1.
         11   -1    0    0    0    0 -0.00000000000E+00 -0.00000000000E+00 -0.45593999997E+02  0.45594000000E+02  0.51100000000E-03 0.  1.
    9900012    2    1    2    0    0 -0.32711299820E+00 -0.11096568932E+01  0.23418643536E+00  0.90007667580E+02  0.89999927992E+02 0.  0.
         12    1    1    2    0    0  0.32711299820E+00  0.11096568932E+01 -0.23418643536E+00  0.11803324196E+01  0.00000000000E+00 0. -1.
         11    1    3    3    0    0  0.12823549936E+01 -0.17792940683E+02 -0.39353352969E+01  0.18268005820E+02  0.51100000000E-03 0. -1.
        -11    1    3    3    0    0  0.12397476626E+02 -0.24852805868E+02  0.10106069697E+01  0.27791738213E+02  0.51100000000E-03 0.  1.
         12    1    3    3    0    0 -0.14006944617E+02  0.41536089658E+02  0.31589147626E+01  0.43947923547E+02  0.00000000000E+00 0. -1.
</event>
<event>
 7    1  0.2569312E-015  0.9000778E+02  0.7816164E-02  0.1186339E+00
        -11   -1    0    0    0    0  0.00000000000E+00  0.00000000000E+00  0.45593999997E+02  0.45594000000E+02  0.51100000000E-03 0. -1.
         11   -1    0    0    0    0 -0.00000000000E+00 -0.00000000000E+00 -0.45593999997E+02  0.45594000000E+02  0.51100000000E-03 0.  1.
    9900012    2    1    2    0    0 -0.90774592428E+00  0.67927791214E+00 -0.32786878978E+00  0.90007780068E+02  0.90000041965E+02 0.  0.
         12    1    1    2    0    0  0.90774592428E+00 -0.67927791214E+00  0.32786878978E+00  0.11802199322E+01  0.00000000000E+00 0. -1.
         11    1    3    3    0    0 -0.29057011998E+02 -0.23174120453E+02  0.14505875154E+02  0.39896995116E+02  0.51100000000E-03 0. -1.
        -11    1    3    3    0    0 -0.26643042407E+01 -0.34872070715E+01  0.29012877152E+01  0.52608555306E+01  0.51100000000E-03 0.  1.
        -12    1    3    3    0    0  0.30813570314E+02  0.27340605437E+02 -0.17735031659E+02  0.44849929421E+02  0.00000000000E+00 0.  1.
</event>
<event>
 7    1  0.2569312E-015  0.9000783E+02  0.7816164E-02  0.1186339E+00
        -11   -1    0    0    0    0  0.00000000000E+00  0.00000000000E+00  0.45593999997E+02  0.45594000000E+02  0.51100000000E-03 0. -1.
         11   -1    0    0    0    0 -0.00000000000E+00 -0.00000000000E+00 -0.45593999997E+02  0.45594000000E+02  0.51100000000E-03 0.  1.
    9900012    2    1    2    0    0 -0.72458412660E+00 -0.18545883302E+00 -0.91290130883E+00  0.90007828006E+02  0.90000090536E+02 0.  0.
         12    1    1    2    0    0  0.72458412660E+00  0.18545883302E+00  0.91290130883E+00  0.11801719938E+01  0.00000000000E+00 0. -1.
         11    1    3    3    0    0  0.78171741448E+00 -0.10201894213E+02  0.57505112357E+01  0.11737039976E+02  0.51100000000E-03 0. -1.
        -11    1    3    3    0    0  0.28808222600E+02  0.29274644203E+02  0.26843594102E+01  0.41159740868E+02  0.51100000000E-03 0.  1.
         12    1    3    3    0    0 -0.30314524141E+02 -0.19258208823E+02 -0.93477719547E+01  0.37111047163E+02  0.00000000000E+00 0. -1.
</event>
<event>
 7    1  0.2569312E-015  0.9000776E+02  0.7816164E-02  0.1186339E+00
        -11   -1    0    0    0    0  0.00000000000E+00  0.00000000000E+00  0.45593999997E+02  0.45594000000E+02  0.51100000000E-03 0.  1.
         11   -1    0    0    0    0 -0.00000000000E+00 -0.00000000000E+00 -0.45593999997E+02  0.45594000000E+02  0.51100000000E-03 0. -1.
    9900012    2    1    2    0    0  0.77705604566E+00  0.39079120951E+00 -0.79777041562E+00  0.90007757862E+02  0.90000019466E+02 0.  0.
         12    1    1    2    0    0 -0.77705604566E+00 -0.39079120951E+00  0.79777041562E+00  0.11802421377E+01  0.00000000000E+00 0. -1.
         11    1    3    3    0    0 -0.10803859797E+01 -0.39834573773E+01  0.13888909557E+02  0.14489202031E+02  0.51100000000E-03 0. -1.
        -11    1    3    3    0    0 -0.28519327921E+02  0.28039090126E+01  0.15571625911E+02  0.32614253090E+02  0.51100000000E-03 0.  1.
         12    1    3    3    0    0  0.30376769947E+02  0.15703395742E+01 -0.30258305884E+02  0.42904302742E+02  0.00000000000E+00 0. -1.
</event>
<event>
 7    1  0.2569312E-015  0.9000795E+02  0.7816164E-02  0.1186339E+00
        -11   -1    0    0    0    0  0.00000000000E+00  0.00000000000E+00  0.45593999997E+02  0.45594000000E+02  0.51100000000E-03 0. -1.
         11   -1    0    0    0    0 -0.00000000000E+00 -0.00000000000E+00 -0.45593999997E+02  0.45594000000E+02  0.51100000000E-03 0.  1.
    9900012    2    1    2    0    0 -0.10605459916E+01  0.37146584040E+00  0.36024502438E+00  0.90007948667E+02  0.90000212789E+02 0.  0.
         12    1    1    2    0    0  0.10605459916E+01 -0.37146584040E+00 -0.36024502438E+00  0.11800513329E+01  0.00000000000E+00 0. -1.
         11    1    3    3    0    0  0.27473754329E+01 -0.63355063441E+00 -0.88741297747E+01  0.93112640225E+01  0.51100000000E-03 0. -1.
        -11    1    3    3    0    0 -0.27203517181E+02 -0.29983964389E+02  0.10578663357E+02  0.41844684085E+02  0.51100000000E-03 0.  1.
         12    1    3    3    0    0  0.23395595756E+02  0.30988980864E+02 -0.13442885582E+01  0.38852000560E+02  0.00000000000E+00 0. -1.
</event>
<event>
 7    1  0.2569312E-015  0.9000772E+02  0.7816164E-02  0.1186339E+00
        -11   -1    0    0    0    0  0.00000000000E+00  0.00000000000E+00  0.45593999997E+02  0.45594000000E+02  0.51100000000E-03 0. -1.
         11   -1    0    0    0    0 -0.00000000000E+00 -0.00000000000E+00 -0.45593999997E+02  0.45594000000E+02  0.51100000000E-03 0.  1.
    9900012    2    1    2    0    0 -0.91401366333E+00  0.18821177312E+00 -0.72264561086E+00  0.90007719810E+02  0.89999980911E+02 0.  0.
         12    1    1    2    0    0  0.91401366333E+00 -0.18821177312E+00  0.72264561086E+00  0.11802801901E+01  0.00000000000E+00 0. -1.
         11    1    3    3    0    0  0.35304698888E+02  0.10857825570E+01 -0.21558004405E+02  0.41380529739E+02  0.51100000000E-03 0. -1.
        -11    1    3    3    0    0 -0.25706996189E+01 -0.78407413119E+01 -0.35848411549E+00  0.82591907577E+01  0.51100000000E-03 0.  1.
        -12    1    3    3    0    0 -0.33648012932E+02  0.69431705281E+01  0.21193842910E+02  0.40367999313E+02  0.00000000000E+00 0.  1.
</event>
<event>
 7    1  0.2569312E-015  0.9000776E+02  0.7816164E-02  0.1186339E+00
        -11   -1    0    0    0    0  0.00000000000E+00  0.00000000000E+00  0.45593999997E+02  0.45594000000E+02  0.51100000000E-03 0.  1.
         11   -1    0    0    0    0 -0.00000000000E+00 -0.00000000000E+00 -0.45593999997E+02  0.45594000000E+02  0.51100000000E-03 0. -1.
    9900012    2    1    2    0    0  0.10648719200E+01 -0.45999911652E+00 -0.21776258513E+00  0.90007757679E+02  0.90000019280E+02 0.  0.
         12    1    1    2    0    0 -0.10648719200E+01  0.45999911652E+00  0.21776258513E+00  0.11802423212E+01  0.00000000000E+00 0. -1.
         11    1    3    3    0    0  0.97704798373E+01 -0.38880672394E+02  0.37674866575E+01  0.40266151021E+02  0.51100000000E-03 0. -1.
        -11    1    3    3    0    0 -0.44765015462E+00 -0.33555665445E+01  0.51740571030E+01  0.61831290348E+01  0.51100000000E-03 0.  1.
        -12    1    3    3    0    0 -0.82579577627E+01  0.41776239822E+02 -0.91593063456E+01  0.43558477623E+02  0.00000000000E+00 0.  1.
</event>
<event>
 7    1  0.2569312E-015  0.9000753E+02  0.7816164E-02  0.1186339E+00
        -11   -1    0    0    0    0  0.00000000000E+00  0.00000000000E+00  0.45593999997E+02  0.45594000000E+02  0.51100000000E-03 0. -1.
         11   -1    0    0    0    0 -0.00000000000E+00 -0.00000000000E+00 -0.45593999997E+02  0.45594000000E+02  0.51100000000E-03 0.  1.
    9900012    2    1    2    0    0  0.33534749466E+00 -0.10217866117E+01  0.48683362994E+00  0.90007528567E+02  0.89999787143E+02 0.  0.
         12    1    1    2    0    0 -0.33534749466E+00  0.10217866117E+01 -0.48683362994E+00  0.11804714335E+01  0.00000000000E+00 0. -1.
         11    1    3    3    0    0 -0.34846967432E+02 -0.14825370706E+02  0.79384151801E+01  0.38692650356E+02  0.51100000000E-03 0. -1.
        -11    1    3    3    0    0 -0.77343779750E-01  0.57813297615E+00  0.98534482240E+01  0.98706971366E+01  0.51100000000E-03 0.  1.
        -12    1    3    3    0    0  0.35259658706E+02  0.13225451119E+02 -0.17305029774E+02  0.41444181073E+02  0.00000000000E+00 0.  1.
</event>
<event>
 7    1  0.2569312E-015  0.9000774E+02  0.7816164E-02  0.1186339E+00
        -11   -1    0    0    0    0  0.00000000000E+00  0.00000000000E+00  0.45593999997E+02  0.45594000000E+02  0.51100000000E-03 0. -1.
         11   -1    0    0    0    0 -0.00000000000E+00 -0.00000000000E+00 -0.45593999997E+02  0.45594000000E+02  0.51100000000E-03 0.  1.
    9900012    2    1    2    0    0 -0.33300750607E+00 -0.11302679685E+01  0.67961625815E-01  0.90007737969E+02  0.89999999310E+02 0.  0.
         12    1    1    2    0    0  0.33300750607E+00  0.11302679685E+01 -0.67961625815E-01  0.11802620312E+01  0.00000000000E+00 0. -1.
         11    1    3    3    0    0  0.19044447625E+01 -0.59960449772E+01  0.68697667736E+01  0.93152112701E+01  0.51100000000E-03 0. -1.
        -11    1    3    3    0    0 -0.36744315227E+00 -0.33397371662E+02 -0.21432815106E+02  0.39684820927E+02  0.51100000000E-03 0.  1.
         12    1    3    3    0    0 -0.18700091163E+01  0.38263148670E+02  0.14631009958E+02  0.41007705772E+02  0.00000000000E+00 0. -1.
</event>
<event>
 7    1  0.2569312E-015  0.9000773E+02  0.7816164E-02  0.1186339E+00
        -11   -1    0    0    0    0  0.00000000000E+00  0.00000000000E+00  0.45593999997E+02  0.45594000000E+02  0.51100000000E-03 0.  1.
         11   -1    0    0    0    0 -0.00000000000E+00 -0.00000000000E+00 -0.45593999997E+02  0.45594000000E+02  0.51100000000E-03 0. -1.
    9900012    2    1    2    0    0 -0.15246001560E+00  0.42294009001E+00  0.10912903030E+01  0.90007730157E+02  0.89999991395E+02 0.  0.
         12    1    1    2    0    0  0.15246001560E+00 -0.42294009001E+00 -0.10912903030E+01  0.11802698427E+01  0.00000000000E+00 0. -1.
         11    1    3    3    0    0  0.54185330918E+01  0.19486127805E+01  0.66778257009E+01  0.88176498563E+01  0.51100000000E-03 0. -1.
        -11    1    3    3    0    0 -0.21986818418E+02 -0.18599018787E+02  0.27950967648E+02  0.40132284718E+02  0.51100000000E-03 0.  1.
         12    1    3    3    0    0  0.16415825311E+02  0.17073346097E+02 -0.33537503046E+02  0.41057795583E+02  0.00000000000E+00 0. -1.
</event>
<event>
 7    1  0.2569312E-015  0.9000764E+02  0.7816164E-02  0.1186339E+00
        -11   -1    0    0    0    0  0.00000000000E+00  0.00000000000E+00  0.45593999997E+02  0.45594000000E+02  0.51100000000E-03 0. -1.
         11   -1    0    0    0    0 -0.00000000000E+00 -0.00000000000E+00 -0.45593999997E+02  0.45594000000E+02  0.51100000000E-03 0.  1.
    9900012    2    1    2    0    0  0.10525515805E+01 -0.37884718064E+00  0.37664797777E+00  0.90007638312E+02  0.89999898337E+02 0.  0.
         12    1    1    2    0    0 -0.10525515805E+01  0.37884718064E+00 -0.37664797777E+00  0.11803616882E+01  0.00000000000E+00 0. -1.
         11    1    3    3    0    0 -0.20701634279E+02  0.18667896181E+02 -0.20525521320E+01  0.27951046137E+02  0.51100000000E-03 0. -1.
        -11    1    3    3    0    0  0.85771262065E+01  0.11325134604E+02 -0.18169653179E+02  0.23064302822E+02  0.51100000000E-03 0.  1.
         12    1    3    3    0    0  0.13177059653E+02 -0.30371877965E+02  0.20598853289E+02  0.38992289353E+02  0.00000000000E+00 0. -1.
</event>
<event>
 7    1  0.2569312E-015  0.9000787E+02  0.7816164E-02  0.1186339E+00
        -11   -1    0    0    0    0  0.00000000000E+00  0.00000000000E+00  0.45593999997E+02  0.45594000000E+02  0.51100000000E-03 0.  1.
         11   -1    0    0    0    0 -0.00000000000E+00 -0.00000000000E+00 -0.45593999997E+02  0.45594000000E+02  0.51100000000E-03 0. -1.
    9900012    2    1    2    0    0  0.20421662891E+00  0.11088918780E+01 -0.34837245648E+00  0.90007869076E+02  0.90000132148E+02 0.  0.
         12    1    1    2    0    0 -0.20421662891E+00 -0.11088918780E+01  0.34837245648E+00  0.11801309236E+01  0.00000000000E+00 0. -1.
         11    1    3    3    0    0  0.16679949665E+02 -0.87924376606E+01 -0.30304247057E+02  0.35691386507E+02  0.51100000000E-03 0. -1.
        -11    1    3    3    0    0  0.79484256637E+00 -0.56717307212E+01 -0.79786133592E+01  0.98213326731E+01  0.51100000000E-03 0.  1.
        -12    1    3    3    0    0 -0.17270575602E+02  0.15573060260E+02  0.37934487960E+02  0.44495149896E+02  0.00000000000E+00 0.  1.
</event>
<event>
 7    1  0.2569312E-015  0.9000777E+02  0.7816164E-02  0.1186339E+00
        -11   -1    0    0    0    0  0.00000000000E+00  0.00000000000E+00  0.45593999997E+02  0.45594000000E+02  0.51100000000E-03 0. -1.
         11   -1    0    0    0    0 -0.00000000000E+00 -0.00000000000E+00 -0.45593999997E+02  0.45594000000E+02  0.51100000000E-03 0.  1.
    9900012    2    1    2    0    0 -0.59162213129E+00 -0.10011922693E+01 -0.20133815789E+00  0.90007771310E+02  0.90000033091E+02 0.  0.
         12    1    1    2    0    0  0.59162213129E+00  0.10011922693E+01  0.20133815789E+00  0.11802286898E+01  0.00000000000E+00 0. -1.
         11    1    3    3    0    0 -0.77996489965E+01 -0.47202906240E+01 -0.46178383891E+01  0.10219593910E+02  0.51100000000E-03 0. -1.
        -11    1    3    3    0    0  0.22778570742E+02 -0.16111780127E+02 -0.27458932508E+02  0.39146464957E+02  0.51100000000E-03 0.  1.
         12    1    3    3    0    0 -0.15570543877E+02  0.19830878482E+02  0.31875432739E+02  0.40641712443E+02  0.00000000000E+00 0. -1.
</event>
<event>
 7    1  0.2569312E-015  0.9000767E+02  0.7816164E-02  0.1186339E+00
        -11   -1    0    0    0    0  0.00000000000E+00  0.00000000000E+00  0.45593999997E+02  0.45594000000E+02  0.51100000000E-03 0.  1.
         11   -1    0    0    0    0 -0.00000000000E+00 -0.00000000000E+00 -0.45593999997E+02  0.45594000000E+02  0.51100000000E-03 0. -1.
    9900012    2    1    2    0    0  0.21985475922E-01  0.95116491862E+00  0.69854964865E+00  0.90007673911E+02  0.89999934407E+02 0.  0.
         12    1    1    2    0    0 -0.21985475922E-01 -0.95116491862E+00 -0.69854964865E+00  0.11803260885E+01  0.00000000000E+00 0. -1.
         11    1    3    3    0    0 -0.32630951285E+02  0.65863443348E+01 -0.19787187505E+02  0.38725853161E+02  0.51100000000E-03 0. -1.
        -11    1    3    3    0    0 -0.58775700937E+01  0.22767175867E+01 -0.11234931593E+01  0.64024612701E+01  0.51100000000E-03 0.  1.
        -12    1    3    3    0    0  0.38530506854E+02 -0.79118970029E+01  0.21609230313E+02  0.44879359480E+02  0.00000000000E+00 0.  1.
</event>
<event>
 7    1  0.2569312E-015  0.9000778E+02  0.7816164E-02  0.1186339E+00
        -11   -1    0    0    0    0  0.00000000000E+00  0.00000000000E+00  0.45593999997E+02  0.45594000000E+02  0.51100000000E-03 0.  1.
         11   -1    0    0    0    0 -0.00000000000E+00 -0.00000000000E+00 -0.45593999997E+02  0.45594000000E+02  0.51100000000E-03 0. -1.
    9900012    2    1    2    0    0  0.75181665589E+00 -0.65845114246E+00  0.62780610275E+00  0.90007776846E+02  0.90000038700E+02 0.  0.
         12    1    1    2    0    0 -0.75181665589E+00  0.65845114246E+00 -0.62780610275E+00  0.11802231542E+01  0.00000000000E+00 0. -1.
         11    1    3    3    0    0 -0.82322628456E+01  0.35353957251E+01 -0.90268042939E+00  0.90046658301E+01  0.51100000000E-03 0. -1.
        -11    1    3    3    0    0 -0.62376171195E+00  0.36712573704E+02 -0.87460268673E+01  0.37745133897E+02  0.51100000000E-03 0.  1.
         12    1    3    3    0    0  0.96078412134E+01 -0.40906420572E+02  0.10276513399E+02  0.43257977119E+02  0.00000000000E+00 0. -1.
</event>
<event>
 7    1  0.2569312E-015  0.9000771E+02  0.7816164E-02  0.1186339E+00
        -11   -1    0    0    0    0  0.00000000000E+00  0.00000000000E+00  0.45593999997E+02  0.45594000000E+02  0.51100000000E-03 0.  1.
         11   -1    0    0    0    0 -0.00000000000E+00 -0.00000000000E+00 -0.45593999997E+02  0.45594000000E+02  0.51100000000E-03 0. -1.
    9900012    2    1    2    0    0 -0.11482690088E+01  0.24043571252E-02  0.27306907877E+00  0.90007705876E+02  0.89999966794E+02 0.  0.
         12    1    1    2    0    0  0.11482690088E+01 -0.24043571252E-02 -0.27306907877E+00  0.11802941240E+01  0.00000000000E+00 0. -1.
         11    1    3    3    0    0 -0.25739891705E+00  0.10344623889E+02  0.26958015042E+01  0.10693214840E+02  0.51100000000E-03 0.  1.
        -11    1    3    3    0    0 -0.97215235563E+01  0.32792271166E+02 -0.74327209666E+01  0.35001234402E+02  0.51100000000E-03 0. -1.
        -12    1    3    3    0    0  0.88306534646E+01 -0.43134490697E+02  0.50099885412E+01  0.44313256634E+02  0.00000000000E+00 0.  1.
</event>
<event>
 7    1  0.2569312E-015  0.9000768E+02  0.7816164E-02  0.1186339E+00
        -11   -1    0    0    0    0  0.00000000000E+00  0.00000000000E+00  0.45593999997E+02  0.45594000000E+02  0.51100000000E-03 0. -1.
         11   -1    0    0    0    0 -0.00000000000E+00 -0.00000000000E+00 -0.45593999997E+02  0.45594000000E+02  0.51100000000E-03 0.  1.
    9900012    2    1    2    0    0  0.11105707906E+01  0.39970303365E+00  0.43853791357E-02  0.90007682573E+02  0.89999943183E+02 0.  0.
         12    1    1    2    0    0 -0.11105707906E+01 -0.39970303365E+00 -0.43853791357E-02  0.11803174266E+01  0.00000000000E+00 0. -1.
         11    1    3    3    0    0  0.51307345426E+01  0.60059773845E+01 -0.65657692778E+01  0.10271588376E+02  0.51100000000E-03 0. -1.
        -11    1    3    3    0    0  0.86751359579E+01  0.31572474587E+02 -0.13741754196E+02  0.35509364174E+02  0.51100000000E-03 0.  1.
         12    1    3    3    0    0 -0.12695299710E+02 -0.37178748938E+02  0.20311908853E+02  0.44226730023E+02  0.00000000000E+00 0. -1.
</event>
<event>
 7    1  0.2569312E-015  0.9000763E+02  0.7816164E-02  0.1186339E+00
        -11   -1    0    0    0    0  0.00000000000E+00  0.00000000000E+00  0.45593999997E+02  0.45594000000E+02  0.51100000000E-03 0.  1.
         11   -1    0    0    0    0 -0.00000000000E+00 -0.00000000000E+00 -0.45593999997E+02  0.45594000000E+02  0.51100000000E-03 0. -1.
    9900012    2    1    2    0    0  0.25215813165E+00 -0.11530801652E+01 -0.91622648453E-02  0.90007634998E+02  0.89999894980E+02 0.  0.
         12    1    1    2    0    0 -0.25215813165E+00  0.11530801652E+01  0.91622648453E-02  0.11803650020E+01  0.00000000000E+00 0. -1.
         11    1    3    3    0    0  0.25591927336E+01 -0.99396040805E+01 -0.18532512786E+01  0.10429752504E+02  0.51100000000E-03 0. -1.
        -11    1    3    3    0    0 -0.31855992123E+01 -0.19629832494E+02  0.32289613979E+02  0.37922256490E+02  0.51100000000E-03 0.  1.
         12    1    3    3    0    0  0.87856461032E+00  0.28416356410E+02 -0.30445524966E+02  0.41655626004E+02  0.00000000000E+00 0. -1.
</event>
<event>
 7    1  0.2569312E-015  0.9000777E+02  0.7816164E-02  0.1186339E+00
        -11   -1    0    0    0    0  0.00000000000E+00  0.00000000000E+00  0.45593999997E+02  0.45594000000E+02  0.51100000000E-03 0.  1.
         11   -1    0    0    0    0 -0.00000000000E+00 -0.00000000000E+00 -0.45593999997E+02  0.45594000000E+02  0.51100000000E-03 0. -1.
    9900012    2    1    2    0    0  0.82474058700E+00 -0.74760546168E+00  0.39220273172E+00  0.90007773774E+02  0.90000035588E+02 0.  0.
         12    1    1    2    0    0 -0.82474058700E+00  0.74760546168E+00 -0.39220273172E+00  0.11802262262E+01  0.00000000000E+00 0. -1.
         11    1    3    3    0    0  0.28937924320E+02  0.26295175583E+02  0.13137365110E+02  0.41248394941E+02  0.51100000000E-03 0. -1.
        -11    1    3    3    0    0 -0.67252299240E+01  0.50157523414E+01 -0.87846280992E+00  0.84355311777E+01  0.51100000000E-03 0.  1.
        -12    1    3    3    0    0 -0.21387953810E+02 -0.32058533387E+02 -0.11866699568E+02  0.40323847655E+02  0.00000000000E+00 0.  1.
</event>
<event>
 7    1  0.3128192E-015  0.9000776E+02  0.7816164E-02  0.1186339E+00
        -11   -1    0    0    0    0  0.00000000000E+00  0.00000000000E+00  0.45593999997E+02  0.45594000000E+02  0.51100000000E-03 0.  1.
         11   -1    0    0    0    0 -0.00000000000E+00 -0.00000000000E+00 -0.45593999997E+02  0.45594000000E+02  0.51100000000E-03 0. -1.
    9900012    2    1    2    0    0 -0.20718037901E+00 -0.79090675639E+00  0.85118705549E+00  0.90007755699E+02  0.90000017274E+02 0.  0.
         12    1    1    2    0    0  0.20718037901E+00  0.79090675639E+00 -0.85118705549E+00  0.11802443011E+01  0.00000000000E+00 0. -1.
         11    1    3    3    0    0 -0.80672575370E+01 -0.24826119619E+02 -0.27826127543E+02  0.38153770899E+02  0.51100000000E-03 0. -1.
        -11    1    3    3    0    0 -0.77321555630E+01  0.27409949494E+01 -0.45810316727E+01  0.93960169439E+01  0.51100000000E-03 0.  1.
        -12    1    3    3    0    0  0.15592232721E+02  0.21294217913E+02  0.33258346272E+02  0.42457967856E+02  0.00000000000E+00 0.  1.
</event>
<event>
 7    1  0.2569312E-015  0.9000773E+02  0.7816164E-02  0.1186339E+00
        -11   -1    0    0    0    0  0.00000000000E+00  0.00000000000E+00  0.45593999997E+02  0.45594000000E+02  0.51100000000E-03 0.  1.
         11   -1    0    0    0    0 -0.00000000000E+00 -0.00000000000E+00 -0.45593999997E+02  0.45594000000E+02  0.51100000000E-03 0. -1.
    9900012    2    1    2    0    0 -0.67183012821E+00 -0.94586822923E+00  0.21682324112E+00  0.90007731070E+02  0.89999992321E+02 0.  0.
         12    1    1    2    0    0  0.67183012821E+00  0.94586822923E+00 -0.21682324112E+00  0.11802689296E+01  0.00000000000E+00 0. -1.
         11    1    3    3    0    0  0.82070276854E+01  0.17609651057E+02 -0.35618171023E+02  0.40572271579E+02  0.51100000000E-03 0. -1.
        -11    1    3    3    0    0  0.74761973095E+01  0.16362256716E+01  0.51409186407E+01  0.92195339031E+01  0.51100000000E-03 0.  1.
        -12    1    3    3    0    0 -0.16355055123E+02 -0.20191744958E+02  0.30694075624E+02  0.40215925588E+02  0.00000000000E+00 0.  1.
</event>
<event>
 7    1  0.2569312E-015  0.9000774E+02  0.7816164E-02  0.1186339E+00
        -11   -1    0    0    0    0  0.00000000000E+00  0.00000000000E+00  0.45593999997E+02  0.45594000000E+02  0.51100000000E-03 0.  1.
         11   -1    0    0    0    0 -0.00000000000E+00 -0.00000000000E+00 -0.45593999997E+02  0.45594000000E+02  0.51100000000E-03 0. -1.
    9900012    2    1    2    0    0  0.81221663010E+00 -0.52303458068E+00  0.67804379203E+00  0.90007743922E+02  0.90000005341E+02 0.  0.
         12    1    1    2    0    0 -0.81221663010E+00  0.52303458068E+00 -0.67804379203E+00  0.11802560784E+01  0.00000000000E+00 0. -1.
         11    1    3    3    0    0  0.20623104949E+02 -0.35354345582E+02 -0.11527216106E+02  0.42521981617E+02  0.51100000000E-03 0. -1.
        -11    1    3    3    0    0  0.19087413761E+01  0.69377648830E+01 -0.43931954970E+01  0.84306608370E+01  0.51100000000E-03 0.  1.
        -12    1    3    3    0    0 -0.21719629695E+02  0.27893546118E+02  0.16598455395E+02  0.39055101467E+02  0.00000000000E+00 0.  1.
</event>
<event>
 7    1  0.2569312E-015  0.9000775E+02  0.7816164E-02  0.1186339E+00
        -11   -1    0    0    0    0  0.00000000000E+00  0.00000000000E+00  0.45593999997E+02  0.45594000000E+02  0.51100000000E-03 0. -1.
         11   -1    0    0    0    0 -0.00000000000E+00 -0.00000000000E+00 -0.45593999997E+02  0.45594000000E+02  0.51100000000E-03 0.  1.
    9900012    2    1    2    0    0 -0.58313582861E+00 -0.91558166933E+00 -0.46331679439E+00  0.90007745943E+02  0.90000007389E+02 0.  0.
         12    1    1    2    0    0  0.58313582861E+00  0.91558166933E+00  0.46331679439E+00  0.11802540573E+01  0.00000000000E+00 0. -1.
         11    1    3    3    0    0 -0.51823261233E+01  0.25605730709E+02  0.28419869078E+02  0.38603094537E+02  0.51100000000E-03 0. -1.
        -11    1    3    3    0    0  0.99507320659E+01  0.33505693031E+01 -0.16481716122E+01  0.10628257300E+02  0.51100000000E-03 0.  1.
        -12    1    3    3    0    0 -0.53515417713E+01 -0.29871881682E+02 -0.27235014260E+02  0.40776394106E+02  0.00000000000E+00 0.  1.
</event>
<event>
 7    1  0.2569312E-015  0.9000767E+02  0.7816164E-02  0.1186339E+00
        -11   -1    0    0    0    0  0.00000000000E+00  0.00000000000E+00  0.45593999997E+02  0.45594000000E+02  0.51100000000E-03 0. -1.
         11   -1    0    0    0    0 -0.00000000000E+00 -0.00000000000E+00 -0.45593999997E+02  0.45594000000E+02  0.51100000000E-03 0.  1.
    9900012    2    1    2    0    0  0.16608055108E+00 -0.59308467176E+00 -0.10068964703E+01  0.90007672639E+02  0.89999933118E+02 0.  0.
         12    1    1    2    0    0 -0.16608055108E+00  0.59308467176E+00  0.10068964703E+01  0.11803273611E+01  0.00000000000E+00 0. -1.
         11    1    3    3    0    0  0.15323927481E+02  0.20125578448E+00 -0.11302190683E+01  0.15366868670E+02  0.51100000000E-03 0. -1.
        -11    1    3    3    0    0 -0.87343333149E+00 -0.35799797078E+02 -0.60939457567E+01  0.36325260243E+02  0.51100000000E-03 0.  1.
         12    1    3    3    0    0 -0.14284413598E+02  0.35005456622E+02  0.62172683546E+01  0.38315543725E+02  0.00000000000E+00 0. -1.
</event>
<event>
 7    1  0.2569312E-015  0.9000787E+02  0.7816164E-02  0.1186339E+00
        -11   -1    0    0    0    0  0.00000000000E+00  0.00000000000E+00  0.45593999997E+02  0.45594000000E+02  0.51100000000E-03 0.  1.
         11   -1    0    0    0    0 -0.00000000000E+00 -0.00000000000E+00 -0.45593999997E+02  0.45594000000E+02  0.51100000000E-03 0. -1.
    9900012    2    1    2    0    0  0.18851581219E+00  0.11637642079E+01 -0.53153766431E-01  0.90007868369E+02  0.90000131432E+02 0.  0.
         12    1    1    2    0    0 -0.18851581219E+00 -0.11637642079E+01  0.53153766431E-01  0.11801316308E+01  0.00000000000E+00 0. -1.
         11    1    3    3    0    0  0.16985234683E+02  0.16744755423E+02 -0.24813860613E+02  0.34418203180E+02  0.51100000000E-03 0. -1.
        -11    1    3    3    0    0 -0.16757112126E+01  0.11649834476E+02 -0.47407502119E+01  0.12688631298E+02  0.51100000000E-03 0.  1.
        -12    1    3    3    0    0 -0.15121007658E+02 -0.27230825690E+02  0.29501457058E+02  0.42901033891E+02  0.00000000000E+00 0.  1.
</event>
<event>
 7    1  0.2569312E-015  0.9000831E+02  0.7816164E-02  0.1186338E+00
        -11   -1    0    0    0    0  0.00000000000E+00  0.00000000000E+00  0.45593999997E+02  0.45594000000E+02  0.51100000000E-03 0.  1.
         11   -1    0    0    0    0 -0.00000000000E+00 -0.00000000000E+00 -0.45593999997E+02  0.45594000000E+02  0.51100000000E-03 0. -1.
    9900012    2    1    2    0    0 -0.56677332546E+00  0.45405563194E+00  0.92966493769E+00  0.90008307067E+02  0.90000575919E+02 0.  0.
         12    1    1    2    0    0  0.56677332546E+00 -0.45405563194E+00 -0.92966493769E+00  0.11796929328E+01  0.00000000000E+00 0. -1.
         11    1    3    3    0    0  0.59484982015E+01  0.47390034826E+01  0.26501721037E+01  0.80539553824E+01  0.51100000000E-03 0. -1.
        -11    1    3    3    0    0  0.19447057964E+02 -0.31963656536E+02  0.15224550499E+02  0.40393691844E+02  0.51100000000E-03 0.  1.
         12    1    3    3    0    0 -0.25962329491E+02  0.27678708685E+02 -0.16945057665E+02  0.41560659841E+02  0.00000000000E+00 0. -1.
</event>
<event>
 7    1  0.2569312E-015  0.9000776E+02  0.7816164E-02  0.1186339E+00
        -11   -1    0    0    0    0  0.00000000000E+00  0.00000000000E+00  0.45593999997E+02  0.45594000000E+02  0.51100000000E-03 0.  1.
         11   -1    0    0    0    0 -0.00000000000E+00 -0.00000000000E+00 -0.45593999997E+02  0.45594000000E+02  0.51100000000E-03 0. -1.
    9900012    2    1    2    0    0  0.10185597830E+01 -0.39807063476E+00  0.44388168269E+00  0.90007764765E+02  0.90000026460E+02 0.  0.
         12    1    1    2    0    0 -0.10185597830E+01  0.39807063476E+00 -0.44388168269E+00  0.11802352350E+01  0.00000000000E+00 0. -1.
         11    1    3    3    0    0  0.49679441751E+01 -0.19606653957E+02 -0.36586595849E+02  0.41805266951E+02  0.51100000000E-03 0. -1.
        -11    1    3    3    0    0 -0.14276685934E+01  0.91429035588E+01 -0.49676975097E+00  0.92670223667E+01  0.51100000000E-03 0.  1.
        -12    1    3    3    0    0 -0.25217157987E+01  0.10065679763E+02  0.37527247283E+02  0.38935475447E+02  0.00000000000E+00 0.  1.
</event>
<event>
 7    1  0.2569312E-015  0.9000809E+02  0.7816164E-02  0.1186338E+00
        -11   -1    0    0    0    0  0.00000000000E+00  0.00000000000E+00  0.45593999997E+02  0.45594000000E+02  0.51100000000E-03 0. -1.
         11   -1    0    0    0    0 -0.00000000000E+00 -0.00000000000E+00 -0.45593999997E+02  0.45594000000E+02  0.51100000000E-03 0.  1.
    9900012    2    1    2    0    0  0.92242445503E+00 -0.61054839121E+00  0.41053829828E+00  0.90008094111E+02  0.90000360152E+02 0.  0.
         12    1    1    2    0    0 -0.92242445503E+00  0.61054839121E+00 -0.41053829828E+00  0.11799058893E+01  0.00000000000E+00 0. -1.
         11    1    3    3    0    0 -0.25354970031E+02 -0.20972341777E+02  0.12722279549E+02  0.35278463998E+02  0.51100000000E-03 0. -1.
        -11    1    3    3    0    0 -0.60992812819E+01  0.30409587625E+00 -0.15352218680E+02  0.16522237291E+02  0.51100000000E-03 0.  1.
        -12    1    3    3    0    0  0.32376675768E+02  0.20057697510E+02  0.30404774288E+01  0.38207392821E+02  0.00000000000E+00 0.  1.
</event>
<event>
 7    1  0.2569312E-015  0.9000760E+02  0.7816164E-02  0.1186339E+00
        -11   -1    0    0    0    0  0.00000000000E+00  0.00000000000E+00  0.45593999997E+02  0.45594000000E+02  0.51100000000E-03 0.  1.
         11   -1    0    0    0    0 -0.00000000000E+00 -0.00000000000E+00 -0.45593999997E+02  0.45594000000E+02  0.51100000000E-03 0. -1.
    9900012    2    1    2    0    0 -0.36064122328E+00 -0.11171904840E+01  0.12315351592E+00  0.90007600297E+02  0.89999859821E+02 0.  0.
         12    1    1    2    0    0  0.36064122328E+00  0.11171904840E+01 -0.12315351592E+00  0.11803997027E+01  0.00000000000E+00 0. -1.
         11    1    3    3    0    0  0.21349147674E+02  0.49559476949E+01 -0.33446800089E+02  0.39987947689E+02  0.51100000000E-03 0. -1.
        -11    1    3    3    0    0 -0.28171714148E+01 -0.80103411891E+01 -0.28404970015E+01  0.89537949621E+01  0.51100000000E-03 0.  1.
        -12    1    3    3    0    0 -0.18892617483E+02  0.19372030101E+01  0.36410450606E+02  0.41065857646E+02  0.00000000000E+00 0.  1.
</event>
<event>
 7    1  0.2569312E-015  0.9000765E+02  0.7816164E-02  0.1186339E+00
        -11   -1    0    0    0    0  0.00000000000E+00  0.00000000000E+00  0.45593999997E+02  0.45594000000E+02  0.51100000000E-03 0. -1.
         11   -1    0    0    0    0 -0.00000000000E+00 -0.00000000000E+00 -0.45593999997E+02  0.45594000000E+02  0.51100000000E-03 0.  1.
    9900012    2    1    2    0    0 -0.85614863691E+00  0.81125793215E+00  0.45675834522E-01  0.90007654202E+02  0.89999914437E+02 0.  0.
         12    1    1    2    0    0  0.85614863691E+00 -0.81125793215E+00 -0.45675834522E-01  0.11803457980E+01  0.00000000000E+00 0. -1.
         11    1    3    3    0    0  0.10588005254E+02 -0.31468584160E+02  0.16784761339E+02  0.37203573185E+02  0.51100000000E-03 0. -1.
        -11    1    3    3    0    0  0.60133343990E+01  0.56050636548E+00  0.72014429079E+01  0.93986774706E+01  0.51100000000E-03 0.  1.
        -12    1    3    3    0    0 -0.17457488290E+02  0.31719335727E+02 -0.23940528412E+02  0.43405403546E+02  0.00000000000E+00 0.  1.
</event>
<event>
 7    1  0.2569312E-015  0.9000772E+02  0.7816164E-02  0.1186339E+00
        -11   -1    0    0    0    0  0.00000000000E+00  0.00000000000E+00  0.45593999997E+02  0.45594000000E+02  0.51100000000E-03 0.  1.
         11   -1    0    0    0    0 -0.00000000000E+00 -0.00000000000E+00 -0.45593999997E+02  0.45594000000E+02  0.51100000000E-03 0. -1.
    9900012    2    1    2    0    0  0.52749526378E+00 -0.14981731536E+00 -0.10451605877E+01  0.90007721586E+02  0.89999982711E+02 0.  0.
         12    1    1    2    0    0 -0.52749526378E+00  0.14981731536E+00  0.10451605877E+01  0.11802784143E+01  0.00000000000E+00 0. -1.
         11    1    3    3    0    0  0.43181186803E+01  0.84910128660E+01  0.13730888422E+01  0.96243868198E+01  0.51100000000E-03 0. -1.
        -11    1    3    3    0    0  0.14464576897E+02  0.19334018842E+02 -0.28969125407E+02  0.37712577431E+02  0.51100000000E-03 0.  1.
         12    1    3    3    0    0 -0.18255200313E+02 -0.27974849024E+02  0.26550875977E+02  0.42670757335E+02  0.00000000000E+00 0. -1.
</event>
<event>
 7    1  0.2569312E-015  0.9000765E+02  0.7816164E-02  0.1186339E+00
        -11   -1    0    0    0    0  0.00000000000E+00  0.00000000000E+00  0.45593999997E+02  0.45594000000E+02  0.51100000000E-03 0. -1.
         11   -1    0    0    0    0 -0.00000000000E+00 -0.00000000000E+00 -0.45593999997E+02  0.45594000000E+02  0.51100000000E-03 0.  1.
    9900012    2    1    2    0    0  0.88672754876E+00 -0.77826437444E+00  0.35318913086E-01  0.90007648947E+02  0.89999909113E+02 0.  0.
         12    1    1    2    0    0 -0.88672754876E+00  0.77826437444E+00 -0.35318913086E-01  0.11803510528E+01  0.00000000000E+00 0. -1.
         11    1    3    3    0    0 -0.92145747870E+01 -0.31818686977E+01 -0.38246184774E+01  0.10471885392E+02  0.51100000000E-03 0. -1.
        -11    1    3    3    0    0  0.28140929478E+02  0.62139078709E+01 -0.29612646450E+02  0.41321101061E+02  0.51100000000E-03 0.  1.
         12    1    3    3    0    0 -0.18039627142E+02 -0.38103035476E+01  0.33472583840E+02  0.38214662493E+02  0.00000000000E+00 0. -1.
</event>
<event>
 7    1  0.2569312E-015  0.9000811E+02  0.7816164E-02  0.1186338E+00
        -11   -1    0    0    0    0  0.00000000000E+00  0.00000000000E+00  0.45593999997E+02  0.45594000000E+02  0.51100000000E-03 0.  1.
         11   -1    0    0    0    0 -0.00000000000E+00 -0.00000000000E+00 -0.45593999997E+02  0.45594000000E+02  0.51100000000E-03 0. -1.
    9900012    2    1    2    0    0 -0.32623424081E+00 -0.53598283079E+00  0.99921262839E+00  0.90008113458E+02  0.90000379755E+02 0.  0.
         12    1    1    2    0    0  0.32623424081E+00  0.53598283079E+00 -0.99921262839E+00  0.11798865418E+01  0.00000000000E+00 0. -1.
         11    1    3    3    0    0 -0.15145170107E+01  0.12187437233E+02 -0.11908469564E+02  0.17106695639E+02  0.51100000000E-03 0. -1.
        -11    1    3    3    0    0 -0.32517180920E+02 -0.89788112028E+01 -0.57105266600E+01  0.34213976977E+02  0.51100000000E-03 0.  1.
         12    1    3    3    0    0  0.33705463690E+02 -0.37446088609E+01  0.18618208852E+02  0.38687440842E+02  0.00000000000E+00 0. -1.
</event>
<event>
 7    1  0.2569312E-015  0.9000773E+02  0.7816164E-02  0.1186339E+00
        -11   -1    0    0    0    0  0.00000000000E+00  0.00000000000E+00  0.45593999997E+02  0.45594000000E+02  0.51100000000E-03 0.  1.
         11   -1    0    0    0    0 -0.00000000000E+00 -0.00000000000E+00 -0.45593999997E+02  0.45594000000E+02  0.51100000000E-03 0. -1.
    9900012    2    1    2    0    0  0.36998480529E+00 -0.39412466508E+00  0.10492001651E+01  0.90007727153E+02  0.89999988351E+02 0.  0.
         12    1    1    2    0    0 -0.36998480529E+00  0.39412466508E+00 -0.10492001651E+01  0.11802728473E+01  0.00000000000E+00 0. -1.
         11    1    3    3    0    0 -0.34594501914E+02  0.17656691175E+02  0.91879291069E+01  0.39911857229E+02  0.51100000000E-03 0. -1.
        -11    1    3    3    0    0 -0.36680670021E+01 -0.82019892053E+01 -0.45368174257E+01  0.10065289617E+02  0.51100000000E-03 0.  1.
        -12    1    3    3    0    0  0.38632553721E+02 -0.98488266348E+01 -0.36019115161E+01  0.40030580307E+02  0.00000000000E+00 0.  1.
</event>
<event>
 7    1  0.2658097E-015  0.9000773E+02  0.7816164E-02  0.1186339E+00
        -11   -1    0    0    0    0  0.00000000000E+00  0.00000000000E+00  0.45593999997E+02  0.45594000000E+02  0.51100000000E-03 0. -1.
         11   -1    0    0    0    0 -0.00000000000E+00 -0.00000000000E+00 -0.45593999997E+02  0.45594000000E+02  0.51100000000E-03 0.  1.
    9900012    2    1    2    0    0 -0.69300274887E+00  0.76434570622E+00 -0.57320332106E+00  0.90007729177E+02  0.89999990402E+02 0.  0.
         12    1    1    2    0    0  0.69300274887E+00 -0.76434570622E+00  0.57320332106E+00  0.11802708231E+01  0.00000000000E+00 0. -1.
         11    1    3    3    0    0 -0.19837443632E+02  0.26353204869E+02  0.18363489354E+02  0.37752262425E+02  0.51100000000E-03 0. -1.
        -11    1    3    3    0    0 -0.99174009673E+01 -0.87570644317E+00 -0.72433941352E+00  0.99823029191E+01  0.51100000000E-03 0.  1.
        -12    1    3    3    0    0  0.29061841851E+02 -0.24713152719E+02 -0.18212353261E+02  0.42273163833E+02  0.00000000000E+00 0.  1.
</event>
<event>
 7    1  0.2569312E-015  0.9000772E+02  0.7816164E-02  0.1186339E+00
        -11   -1    0    0    0    0  0.00000000000E+00  0.00000000000E+00  0.45593999997E+02  0.45594000000E+02  0.51100000000E-03 0.  1.
         11   -1    0    0    0    0 -0.00000000000E+00 -0.00000000000E+00 -0.45593999997E+02  0.45594000000E+02  0.51100000000E-03 0. -1.
    9900012    2    1    2    0    0  0.11280803045E+00 -0.90898587121E+00  0.74436583596E+00  0.90007719752E+02  0.89999980853E+02 0.  0.
         12    1    1    2    0    0 -0.11280803045E+00  0.90898587121E+00 -0.74436583596E+00  0.11802802479E+01  0.00000000000E+00 0. -1.
         11    1    3    3    0    0 -0.11824761671E+01  0.28034710409E+01  0.94560614965E+01  0.99335189661E+01  0.51100000000E-03 0. -1.
        -11    1    3    3    0    0 -0.22741398485E+02 -0.71403958943E+01  0.27552713845E+02  0.36432245320E+02  0.51100000000E-03 0.  1.
         12    1    3    3    0    0  0.24036682682E+02  0.34279389822E+01 -0.36264409506E+02  0.43641955466E+02  0.00000000000E+00 0. -1.
</event>
<event>
 7    1  0.2569312E-015  0.9000773E+02  0.7816164E-02  0.1186339E+00
        -11   -1    0    0    0    0  0.00000000000E+00  0.00000000000E+00  0.45593999997E+02  0.45594000000E+02  0.51100000000E-03 0.  1.
         11   -1    0    0    0    0 -0.00000000000E+00 -0.00000000000E+00 -0.45593999997E+02  0.45594000000E+02  0.51100000000E-03 0. -1.
    9900012    2    1    2    0    0 -0.91640634508E+00  0.24569235839E+00  0.70204223757E+00  0.90007733662E+02  0.89999994947E+02 0.  0.
         12    1    1    2    0    0  0.91640634508E+00 -0.24569235839E+00 -0.70204223757E+00  0.11802663376E+01  0.00000000000E+00 0. -1.
         11    1    3    3    0    0  0.23023458759E+01 -0.91919707819E+01 -0.70771184852E+00  0.95023144397E+01  0.51100000000E-03 0. -1.
        -11    1    3    3    0    0  0.22799930870E+02 -0.26927175966E+02  0.50513048895E+01  0.35643026450E+02  0.51100000000E-03 0.  1.
         12    1    3    3    0    0 -0.26018683091E+02  0.36364839107E+02 -0.36415508034E+01  0.44862392773E+02  0.00000000000E+00 0. -1.
</event>
<event>
 7    1  0.2569312E-015  0.9000757E+02  0.7816164E-02  0.1186339E+00
        -11   -1    0    0    0    0  0.00000000000E+00  0.00000000000E+00  0.45593999997E+02  0.45594000000E+02  0.51100000000E-03 0.  1.
         11   -1    0    0    0    0 -0.00000000000E+00 -0.00000000000E+00 -0.45593999997E+02  0.45594000000E+02  0.51100000000E-03 0. -1.
    9900012    2    1    2    0    0 -0.45057227633E+00  0.98151903136E+00 -0.47646651643E+00  0.90007569855E+02  0.89999828977E+02 0.  0.
         12    1    1    2    0    0  0.45057227633E+00 -0.98151903136E+00  0.47646651643E+00  0.11804301447E+01  0.00000000000E+00 0. -1.
         11    1    3    3    0    0 -0.56611622403E+01 -0.36416551848E+02 -0.11757884370E+02  0.38684129194E+02  0.51100000000E-03 0. -1.
        -11    1    3    3    0    0 -0.79507313283E+01 -0.42668657218E+00  0.77626573310E+01  0.11120028740E+02  0.51100000000E-03 0.  1.
        -12    1    3    3    0    0  0.13161321292E+02  0.37824757452E+02  0.35187605223E+01  0.40203411921E+02  0.00000000000E+00 0.  1.
</event>
<event>
 7    1  0.2569312E-015  0.9000777E+02  0.7816164E-02  0.1186339E+00
        -11   -1    0    0    0    0  0.00000000000E+00  0.00000000000E+00  0.45593999997E+02  0.45594000000E+02  0.51100000000E-03 0.  1.
         11   -1    0    0    0    0 -0.00000000000E+00 -0.00000000000E+00 -0.45593999997E+02  0.45594000000E+02  0.51100000000E-03 0. -1.
    9900012    2    1    2    0    0 -0.50049045432E+00 -0.92338831135E+00  0.53834338010E+00  0.90007766861E+02  0.90000028583E+02 0.  0.
         12    1    1    2    0    0  0.50049045432E+00  0.92338831135E+00 -0.53834338010E+00  0.11802331394E+01  0.00000000000E+00 0. -1.
         11    1    3    3    0    0  0.22203119181E+02  0.21761527812E+01 -0.17666723163E+02  0.28457463869E+02  0.51100000000E-03 0. -1.
        -11    1    3    3    0    0  0.12063110991E+02  0.14887236712E+02  0.23008857434E+01  0.19298770406E+02  0.51100000000E-03 0.  1.
        -12    1    3    3    0    0 -0.34766720626E+02 -0.17986777805E+02  0.15904180800E+02  0.42251532586E+02  0.00000000000E+00 0.  1.
</event>
<event>
 7    1  0.2569312E-015  0.9000777E+02  0.7816164E-02  0.1186339E+00
        -11   -1    0    0    0    0  0.00000000000E+00  0.00000000000E+00  0.45593999997E+02  0.45594000000E+02  0.51100000000E-03 0.  1.
         11   -1    0    0    0    0 -0.00000000000E+00 -0.00000000000E+00 -0.45593999997E+02  0.45594000000E+02  0.51100000000E-03 0. -1.
    9900012    2    1    2    0    0  0.22761589315E+00  0.95339139132E+00  0.65740665340E+00  0.90007767969E+02  0.90000029706E+02 0.  0.
         12    1    1    2    0    0 -0.22761589315E+00 -0.95339139132E+00 -0.65740665340E+00  0.11802320313E+01  0.00000000000E+00 0. -1.
         11    1    3    3    0    0  0.55438448025E+01  0.12580408383E+01 -0.68420779615E+01  0.88955558026E+01  0.51100000000E-03 0. -1.
        -11    1    3    3    0    0  0.30025682871E+02 -0.56156270063E+01  0.26675058496E+02  0.40554107617E+02  0.51100000000E-03 0.  1.
         12    1    3    3    0    0 -0.35341911781E+02  0.53109775593E+01 -0.19175573881E+02  0.40558104549E+02  0.00000000000E+00 0. -1.
</event>
<event>
 7    1  0.2569312E-015  0.9000771E+02  0.7816164E-02  0.1186339E+00
        -11   -1    0    0    0    0  0.00000000000E+00  0.00000000000E+00  0.45593999997E+02  0.45594000000E+02  0.51100000000E-03 0.  1.
         11   -1    0    0    0    0 -0.00000000000E+00 -0.00000000000E+00 -0.45593999997E+02  0.45594000000E+02  0.51100000000E-03 0. -1.
    9900012    2    1    2    0    0  0.84421508119E+00 -0.77202697863E+00 -0.29044516461E+00  0.90007710564E+02  0.89999971543E+02 0.  0.
         12    1    1    2    0    0 -0.84421508119E+00  0.77202697863E+00  0.29044516461E+00  0.11802894360E+01  0.00000000000E+00 0. -1.
         11    1    3    3    0    0 -0.11125248223E+02  0.33667737418E+02 -0.72481654683E+01  0.36191485101E+02  0.51100000000E-03 0. -1.
        -11    1    3    3    0    0 -0.71163698679E+01 -0.63619864259E+01 -0.11681612327E+02  0.15085677254E+02  0.51100000000E-03 0.  1.
        -12    1    3    3    0    0  0.19085833172E+02 -0.28077777971E+02  0.18639332631E+02  0.38730548209E+02  0.00000000000E+00 0.  1.
</event>
<event>
 7    1  0.2569312E-015  0.9000778E+02  0.7816164E-02  0.1186339E+00
        -11   -1    0    0    0    0  0.00000000000E+00  0.00000000000E+00  0.45593999997E+02  0.45594000000E+02  0.51100000000E-03 0. -1.
         11   -1    0    0    0    0 -0.00000000000E+00 -0.00000000000E+00 -0.45593999997E+02  0.45594000000E+02  0.51100000000E-03 0.  1.
    9900012    2    1    2    0    0  0.77266104060E+00  0.88535449002E+00 -0.10980873389E+00  0.90007781539E+02  0.90000043456E+02 0.  0.
         12    1    1    2    0    0 -0.77266104060E+00 -0.88535449002E+00  0.10980873389E+00  0.11802184606E+01  0.00000000000E+00 0. -1.
         11    1    3    3    0    0  0.10650136752E+02 -0.22158102414E+02  0.28038682318E+02  0.37290409247E+02  0.51100000000E-03 0. -1.
        -11    1    3    3    0    0 -0.60172694944E+01 -0.51500635921E+01  0.47372609796E+01  0.92288855785E+01  0.51100000000E-03 0.  1.
        -12    1    3    3    0    0 -0.38602062173E+01  0.28193520496E+02 -0.32885752031E+02  0.43488486714E+02  0.00000000000E+00 0.  1.
</event>
<event>
 7    1  0.2569312E-015  0.9000796E+02  0.7816164E-02  0.1186339E+00
        -11   -1    0    0    0    0  0.00000000000E+00  0.00000000000E+00  0.45593999997E+02  0.45594000000E+02  0.51100000000E-03 0. -1.
         11   -1    0    0    0    0 -0.00000000000E+00 -0.00000000000E+00 -0.45593999997E+02  0.45594000000E+02  0.51100000000E-03 0.  1.
    9900012    2    1    2    0    0 -0.34152595170E+00 -0.10520546047E+01 -0.41112840423E+00  0.90007963801E+02  0.90000228123E+02 0.  0.
         12    1    1    2    0    0  0.34152595170E+00  0.10520546047E+01  0.41112840423E+00  0.11800361994E+01  0.00000000000E+00 0. -1.
         11    1    3    3    0    0  0.14141334323E+01 -0.33029060263E+00  0.88955043875E+01  0.90132604432E+01  0.51100000000E-03 0. -1.
        -11    1    3    3    0    0 -0.13058400405E+02  0.31643883955E+02 -0.25882003127E+02  0.42915443596E+02  0.51100000000E-03 0.  1.
         12    1    3    3    0    0  0.11302741021E+02 -0.32365647957E+02  0.16575370335E+02  0.38079259762E+02  0.00000000000E+00 0. -1.
</event>
<event>
 7    1  0.2569312E-015  0.9000735E+02  0.7816164E-02  0.1186340E+00
        -11   -1    0    0    0    0  0.00000000000E+00  0.00000000000E+00  0.45593999997E+02  0.45594000000E+02  0.51100000000E-03 0. -1.
         11   -1    0    0    0    0 -0.00000000000E+00 -0.00000000000E+00 -0.45593999997E+02  0.45594000000E+02  0.51100000000E-03 0.  1.
    9900012    2    1    2    0    0  0.43681369423E+00 -0.54785596640E+00 -0.95025867798E+00  0.90007345979E+02  0.89999602145E+02 0.  0.
         12    1    1    2    0    0 -0.43681369423E+00  0.54785596640E+00  0.95025867798E+00  0.11806540215E+01  0.00000000000E+00 0. -1.
         11    1    3    3    0    0  0.48162260607E+00 -0.31224034463E+01 -0.43295516158E+01  0.53596997184E+01  0.51100000000E-03 0. -1.
        -11    1    3    3    0    0 -0.55341008937E+01 -0.31571700462E+02 -0.24403584379E+02  0.40285648481E+02  0.51100000000E-03 0.  1.
         12    1    3    3    0    0  0.54892919819E+01  0.34146247941E+02  0.27782877317E+02  0.44361997779E+02  0.00000000000E+00 0. -1.
</event>
<event>
 7    1  0.2569312E-015  0.9000770E+02  0.7816164E-02  0.1186339E+00
        -11   -1    0    0    0    0  0.00000000000E+00  0.00000000000E+00  0.45593999997E+02  0.45594000000E+02  0.51100000000E-03 0.  1.
         11   -1    0    0    0    0 -0.00000000000E+00 -0.00000000000E+00 -0.45593999997E+02  0.45594000000E+02  0.51100000000E-03 0. -1.
    9900012    2    1    2    0    0  0.20163200406E+00 -0.11565274015E+01 -0.12208557523E+00  0.90007696656E+02  0.89999957452E+02 0.  0.
         12    1    1    2    0    0 -0.20163200406E+00  0.11565274015E+01  0.12208557523E+00  0.11803033437E+01  0.00000000000E+00 0. -1.
         11    1    3    3    0    0 -0.24303687734E+01 -0.26523860230E+01 -0.42900446983E+02  0.43051018520E+02  0.51100000000E-03 0. -1.
        -11    1    3    3    0    0  0.28701872757E+01 -0.53682705624E+01  0.33773559247E+01  0.69615254889E+01  0.51100000000E-03 0.  1.
        -12    1    3    3    0    0 -0.23818649824E+00  0.68641291839E+01  0.39401005483E+02  0.39995152648E+02  0.00000000000E+00 0.  1.
</event>
<event>
 7    1  0.2569312E-015  0.9000773E+02  0.7816164E-02  0.1186339E+00
        -11   -1    0    0    0    0  0.00000000000E+00  0.00000000000E+00  0.45593999997E+02  0.45594000000E+02  0.51100000000E-03 0.  1.
         11   -1    0    0    0    0 -0.00000000000E+00 -0.00000000000E+00 -0.45593999997E+02  0.45594000000E+02  0.51100000000E-03 0. -1.
    9900012    2    1    2    0    0  0.62573350362E+00 -0.73899040754E+00 -0.67482370552E+00  0.90007730423E+02  0.89999991665E+02 0.  0.
         12    1    1    2    0    0 -0.62573350362E+00  0.73899040754E+00  0.67482370552E+00  0.11802695766E+01  0.00000000000E+00 0. -1.
         11    1    3    3    0    0 -0.43056096100E+01 -0.67256409897E+01 -0.81662350637E+01  0.11421905104E+02  0.51100000000E-03 0. -1.
        -11    1    3    3    0    0 -0.19995515977E+01 -0.21503383812E+01  0.42182930815E+02  0.42285006966E+02  0.51100000000E-03 0.  1.
         12    1    3    3    0    0  0.69308947113E+01  0.81369889634E+01 -0.34691519457E+02  0.36300818353E+02  0.00000000000E+00 0. -1.
</event>
<event>
 7    1  0.2569312E-015  0.9000706E+02  0.7816164E-02  0.1186340E+00
        -11   -1    0    0    0    0  0.00000000000E+00  0.00000000000E+00  0.45593999997E+02  0.45594000000E+02  0.51100000000E-03 0.  1.
         11   -1    0    0    0    0 -0.00000000000E+00 -0.00000000000E+00 -0.45593999997E+02  0.45594000000E+02  0.51100000000E-03 0. -1.
    9900012    2    1    2    0    0  0.11541408850E+01  0.22644434830E+00  0.10631552425E+00  0.90007059182E+02  0.89999311560E+02 0.  0.
         12    1    1    2    0    0 -0.11541408850E+01 -0.22644434830E+00 -0.10631552425E+00  0.11809408182E+01  0.00000000000E+00 0. -1.
         11    1    3    3    0    0 -0.18941925247E+02 -0.22249024650E+02 -0.80400904256E+01  0.30306083288E+02  0.51100000000E-03 0. -1.
        -11    1    3    3    0    0 -0.16958119506E+01 -0.61492851714E+01  0.20651112392E+02  0.21613836531E+02  0.51100000000E-03 0.  1.
        -12    1    3    3    0    0  0.21791878083E+02  0.28624754170E+02 -0.12504706443E+02  0.38087139363E+02  0.00000000000E+00 0.  1.
</event>
<event>
 7    1  0.2569312E-015  0.9000769E+02  0.7816164E-02  0.1186339E+00
        -11   -1    0    0    0    0  0.00000000000E+00  0.00000000000E+00  0.45593999997E+02  0.45594000000E+02  0.51100000000E-03 0. -1.
         11   -1    0    0    0    0 -0.00000000000E+00 -0.00000000000E+00 -0.45593999997E+02  0.45594000000E+02  0.51100000000E-03 0.  1.
    9900012    2    1    2    0    0  0.67314187179E+00  0.45078234832E+00 -0.85837210814E+00  0.90007691828E+02  0.89999952560E+02 0.  0.
         12    1    1    2    0    0 -0.67314187179E+00 -0.45078234832E+00  0.85837210814E+00  0.11803081721E+01  0.00000000000E+00 0. -1.
         11    1    3    3    0    0 -0.80152868153E+01  0.37288053229E+00  0.58557252272E+01  0.99334475798E+01  0.51100000000E-03 0. -1.
        -11    1    3    3    0    0 -0.30417254233E+02  0.35397869099E+01 -0.22251031749E+02  0.37852976905E+02  0.51100000000E-03 0.  1.
         12    1    3    3    0    0  0.39105682920E+02 -0.34618850939E+01  0.15536934413E+02  0.42221267343E+02  0.00000000000E+00 0. -1.
</event>
<event>
 7    1  0.2569312E-015  0.9000771E+02  0.7816164E-02  0.1186339E+00
        -11   -1    0    0    0    0  0.00000000000E+00  0.00000000000E+00  0.45593999997E+02  0.45594000000E+02  0.51100000000E-03 0.  1.
         11   -1    0    0    0    0 -0.00000000000E+00 -0.00000000000E+00 -0.45593999997E+02  0.45594000000E+02  0.51100000000E-03 0. -1.
    9900012    2    1    2    0    0 -0.65075944647E+00 -0.38047650188E+00  0.90820053922E+00  0.90007712558E+02  0.89999973564E+02 0.  0.
         12    1    1    2    0    0  0.65075944647E+00  0.38047650188E+00 -0.90820053922E+00  0.11802874417E+01  0.00000000000E+00 0. -1.
         11    1    3    3    0    0 -0.16731363618E+02  0.20322038895E+02 -0.23592574848E+02  0.35348739463E+02  0.51100000000E-03 0. -1.
        -11    1    3    3    0    0 -0.55481614255E+01  0.36135695206E+01 -0.68104236710E+01  0.94985183436E+01  0.51100000000E-03 0.  1.
        -12    1    3    3    0    0  0.21628765597E+02 -0.24316084918E+02  0.31311199058E+02  0.45160454752E+02  0.00000000000E+00 0.  1.
</event>
<event>
 7    1  0.2569312E-015  0.9000785E+02  0.7816164E-02  0.1186339E+00
        -11   -1    0    0    0    0  0.00000000000E+00  0.00000000000E+00  0.45593999997E+02  0.45594000000E+02  0.51100000000E-03 0. -1.
         11   -1    0    0    0    0 -0.00000000000E+00 -0.00000000000E+00 -0.45593999997E+02  0.45594000000E+02  0.51100000000E-03 0.  1.
    9900012    2    1    2    0    0  0.60152885634E+00 -0.79539251979E+00  0.63108004268E+00  0.90007852447E+02  0.90000115300E+02 0.  0.
         12    1    1    2    0    0 -0.60152885634E+00  0.79539251979E+00 -0.63108004268E+00  0.11801475526E+01  0.00000000000E+00 0. -1.
         11    1    3    3    0    0  0.98223068724E+01  0.23318402689E+01 -0.42756647686E+00  0.10104355729E+02  0.51100000000E-03 0. -1.
        -11    1    3    3    0    0  0.33578003848E+02  0.90447339136E+01 -0.44875429099E+01  0.35063194316E+02  0.51100000000E-03 0.  1.
         12    1    3    3    0    0 -0.42798781864E+02 -0.12171966702E+02  0.55461894294E+01  0.44840302403E+02  0.00000000000E+00 0. -1.
</event>
<event>
 7    1  0.3131279E-015  0.9000774E+02  0.7816164E-02  0.1186339E+00
        -11   -1    0    0    0    0  0.00000000000E+00  0.00000000000E+00  0.45593999997E+02  0.45594000000E+02  0.51100000000E-03 0. -1.
         11   -1    0    0    0    0 -0.00000000000E+00 -0.00000000000E+00 -0.45593999997E+02  0.45594000000E+02  0.51100000000E-03 0.  1.
    9900012    2    1    2    0    0  0.60992635981E-01 -0.93218496921E+00 -0.72134017773E+00  0.90007737076E+02  0.89999998405E+02 0.  0.
         12    1    1    2    0    0 -0.60992635981E-01  0.93218496921E+00  0.72134017773E+00  0.11802629243E+01  0.00000000000E+00 0. -1.
         11    1    3    3    0    0 -0.21724035454E+02 -0.28781164100E+02  0.15013825286E+02  0.39060262075E+02  0.51100000000E-03 0. -1.
        -11    1    3    3    0    0 -0.20079668614E+01  0.38701285204E+01  0.83775974082E+01  0.94442556232E+01  0.51100000000E-03 0.  1.
        -12    1    3    3    0    0  0.23792994951E+02  0.23978850611E+02 -0.24112762872E+02  0.41503219378E+02  0.00000000000E+00 0.  1.
</event>
<event>
 7    1  0.2569312E-015  0.9000770E+02  0.7816164E-02  0.1186339E+00
        -11   -1    0    0    0    0  0.00000000000E+00  0.00000000000E+00  0.45593999997E+02  0.45594000000E+02  0.51100000000E-03 0. -1.
         11   -1    0    0    0    0 -0.00000000000E+00 -0.00000000000E+00 -0.45593999997E+02  0.45594000000E+02  0.51100000000E-03 0.  1.
    9900012    2    1    2    0    0  0.28645024938E-01  0.49344963370E+00 -0.10718154718E+01  0.90007702798E+02  0.89999963675E+02 0.  0.
         12    1    1    2    0    0 -0.28645024938E-01 -0.49344963370E+00  0.10718154718E+01  0.11802972016E+01  0.00000000000E+00 0. -1.
         11    1    3    3    0    0 -0.13883150108E+01 -0.89833473843E+01  0.58445454214E+00  0.91087615058E+01  0.51100000000E-03 0. -1.
        -11    1    3    3    0    0 -0.21924807420E+02 -0.31964872503E+01 -0.33042037435E+02  0.39783048517E+02  0.51100000000E-03 0.  1.
         12    1    3    3    0    0  0.23341767456E+02  0.12673284268E+02  0.31385767421E+02  0.41115892776E+02  0.00000000000E+00 0. -1.
</event>
<event>
 7    1  0.2569312E-015  0.9000782E+02  0.7816164E-02  0.1186339E+00
        -11   -1    0    0    0    0  0.00000000000E+00  0.00000000000E+00  0.45593999997E+02  0.45594000000E+02  0.51100000000E-03 0. -1.
         11   -1    0    0    0    0 -0.00000000000E+00 -0.00000000000E+00 -0.45593999997E+02  0.45594000000E+02  0.51100000000E-03 0.  1.
    9900012    2    1    2    0    0 -0.28699638100E+00 -0.61144627543E+00 -0.96778120126E+00  0.90007816148E+02  0.90000078521E+02 0.  0.
         12    1    1    2    0    0  0.28699638100E+00  0.61144627543E+00  0.96778120126E+00  0.11801838518E+01  0.00000000000E+00 0. -1.
         11    1    3    3    0    0 -0.10256813513E+02  0.24184681272E+02  0.24814774001E+02  0.36136879233E+02  0.51100000000E-03 0. -1.
        -11    1    3    3    0    0 -0.12136569995E+01  0.10115200013E+02 -0.26610115302E+01  0.10529540220E+02  0.51100000000E-03 0.  1.
        -12    1    3    3    0    0  0.11183474131E+02 -0.34911327561E+02 -0.23121543672E+02  0.43341396695E+02  0.00000000000E+00 0.  1.
</event>
<event>
 7    1  0.2569312E-015  0.9000770E+02  0.7816164E-02  0.1186339E+00
        -11   -1    0    0    0    0  0.00000000000E+00  0.00000000000E+00  0.45593999997E+02  0.45594000000E+02  0.51100000000E-03 0.  1.
         11   -1    0    0    0    0 -0.00000000000E+00 -0.00000000000E+00 -0.45593999997E+02  0.45594000000E+02  0.51100000000E-03 0. -1.
    9900012    2    1    2    0    0  0.10500981569E+01 -0.40887208790E+00  0.35104979268E+00  0.90007695598E+02  0.89999956380E+02 0.  0.
         12    1    1    2    0    0 -0.10500981569E+01  0.40887208790E+00 -0.35104979268E+00  0.11803044015E+01  0.00000000000E+00 0. -1.
         11    1    3    3    0    0 -0.12949687102E+01 -0.10608565531E+02  0.26444843230E+01  0.11009627795E+02  0.51100000000E-03 0. -1.
        -11    1    3    3    0    0  0.25322071117E+02 -0.54115890401E+00  0.29139379803E+02  0.38608335812E+02  0.51100000000E-03 0.  1.
         12    1    3    3    0    0 -0.22977004250E+02  0.10740852347E+02 -0.31432814333E+02  0.40389731992E+02  0.00000000000E+00 0. -1.
</event>
<event>
 7    1  0.2569312E-015  0.9000769E+02  0.7816164E-02  0.1186339E+00
        -11   -1    0    0    0    0  0.00000000000E+00  0.00000000000E+00  0.45593999997E+02  0.45594000000E+02  0.51100000000E-03 0. -1.
         11   -1    0    0    0    0 -0.00000000000E+00 -0.00000000000E+00 -0.45593999997E+02  0.45594000000E+02  0.51100000000E-03 0.  1.
    9900012    2    1    2    0    0  0.50899704084E+00  0.10648167728E+01 -0.14531833029E-01  0.90007693294E+02  0.89999954045E+02 0.  0.
         12    1    1    2    0    0 -0.50899704084E+00 -0.10648167728E+01  0.14531833029E-01  0.11803067065E+01  0.00000000000E+00 0. -1.
         11    1    3    3    0    0  0.25549623826E+02 -0.27140052581E+02 -0.80277595712E+01  0.38128869059E+02  0.51100000000E-03 0. -1.
        -11    1    3    3    0    0  0.38619734376E+01 -0.26213557059E+01  0.84122215660E+01  0.96203854656E+01  0.51100000000E-03 0.  1.
        -12    1    3    3    0    0 -0.28902600223E+02  0.30826225060E+02 -0.39899382785E+00  0.42258438769E+02  0.00000000000E+00 0.  1.
</event>
<event>
 7    1  0.2569312E-015  0.9000758E+02  0.7816164E-02  0.1186339E+00
        -11   -1    0    0    0    0  0.00000000000E+00  0.00000000000E+00  0.45593999997E+02  0.45594000000E+02  0.51100000000E-03 0. -1.
         11   -1    0    0    0    0 -0.00000000000E+00 -0.00000000000E+00 -0.45593999997E+02  0.45594000000E+02  0.51100000000E-03 0.  1.
    9900012    2    1    2    0    0  0.57314943605E+00 -0.98406312888E+00  0.31066745549E+00  0.90007578556E+02  0.89999837793E+02 0.  0.
         12    1    1    2    0    0 -0.57314943605E+00  0.98406312888E+00 -0.31066745549E+00  0.11804214440E+01  0.00000000000E+00 0. -1.
         11    1    3    3    0    0 -0.27528992128E+02 -0.25539373891E+02  0.16067525070E+02  0.40844465824E+02  0.51100000000E-03 0. -1.
        -11    1    3    3    0    0  0.39552741174E+01  0.65924623185E+01  0.77944240435E+01  0.10947958677E+02  0.51100000000E-03 0.  1.
        -12    1    3    3    0    0  0.24146867447E+02  0.17962848443E+02 -0.23551281658E+02  0.38215154055E+02  0.00000000000E+00 0.  1.
</event>
<event>
 7    1  0.2569312E-015  0.9000783E+02  0.7816164E-02  0.1186339E+00
        -11   -1    0    0    0    0  0.00000000000E+00  0.00000000000E+00  0.45593999997E+02  0.45594000000E+02  0.51100000000E-03 0. -1.
         11   -1    0    0    0    0 -0.00000000000E+00 -0.00000000000E+00 -0.45593999997E+02  0.45594000000E+02  0.51100000000E-03 0.  1.
    9900012    2    1    2    0    0  0.11203649534E+01 -0.36069547493E+00 -0.86495196697E-01  0.90007830405E+02  0.90000092966E+02 0.  0.
         12    1    1    2    0    0 -0.11203649534E+01  0.36069547493E+00  0.86495196697E-01  0.11801695952E+01  0.00000000000E+00 0. -1.
         11    1    3    3    0    0  0.38883014455E+01  0.35511895829E+02 -0.23294229769E+02  0.42647799173E+02  0.51100000000E-03 0. -1.
        -11    1    3    3    0    0 -0.44463592053E+01 -0.17730355365E+01  0.93691355383E+01  0.10521143768E+02  0.51100000000E-03 0.  1.
        -12    1    3    3    0    0  0.16784227132E+01 -0.34099555767E+02  0.13838599034E+02  0.36838887464E+02  0.00000000000E+00 0.  1.
</event>
<event>
 7    1  0.5918216E-015  0.9000775E+02  0.7816164E-02  0.1186339E+00
        -11   -1    0    0    0    0  0.00000000000E+00  0.00000000000E+00  0.45593999997E+02  0.45594000000E+02  0.51100000000E-03 0. -1.
         11   -1    0    0    0    0 -0.00000000000E+00 -0.00000000000E+00 -0.45593999997E+02  0.45594000000E+02  0.51100000000E-03 0.  1.
    9900012    2    1    2    0    0  0.19190434562E+00  0.51436602128E-02 -0.11645293531E+01  0.90007753268E+02  0.90000014811E+02 0.  0.
         12    1    1    2    0    0 -0.19190434562E+00 -0.51436602128E-02  0.11645293531E+01  0.11802467324E+01  0.00000000000E+00 0. -1.
         11    1    3    3    0    0 -0.10015260095E+02  0.12224796486E+02  0.34446515754E+02  0.37898727311E+02  0.51100000000E-03 0. -1.
        -11    1    3    3    0    0  0.76436460464E+01  0.48967118632E+01  0.31909540640E+01  0.96221255476E+01  0.51100000000E-03 0.  1.
        -12    1    3    3    0    0  0.25635183943E+01 -0.17116364689E+02 -0.38801999171E+02  0.42486900409E+02  0.00000000000E+00 0.  1.
</event>
<event>
 7    1  0.2569312E-015  0.9000775E+02  0.7816164E-02  0.1186339E+00
        -11   -1    0    0    0    0  0.00000000000E+00  0.00000000000E+00  0.45593999997E+02  0.45594000000E+02  0.51100000000E-03 0. -1.
         11   -1    0    0    0    0 -0.00000000000E+00 -0.00000000000E+00 -0.45593999997E+02  0.45594000000E+02  0.51100000000E-03 0.  1.
    9900012    2    1    2    0    0 -0.16798967100E+00 -0.11338241248E+01 -0.28145494388E+00  0.90007748094E+02  0.90000009569E+02 0.  0.
         12    1    1    2    0    0  0.16798967100E+00  0.11338241248E+01  0.28145494388E+00  0.11802519057E+01  0.00000000000E+00 0. -1.
         11    1    3    3    0    0 -0.14797948102E+02 -0.16013226218E+02  0.27914117721E+02  0.35420342324E+02  0.51100000000E-03 0. -1.
        -11    1    3    3    0    0 -0.36848565032E+01 -0.75949858973E+01  0.55465202291E+01  0.10100785373E+02  0.51100000000E-03 0.  1.
        -12    1    3    3    0    0  0.18314814934E+02  0.22474387991E+02 -0.33742092894E+02  0.44486620398E+02  0.00000000000E+00 0.  1.
</event>
<event>
 7    1  0.2569312E-015  0.9000783E+02  0.7816164E-02  0.1186339E+00
        -11   -1    0    0    0    0  0.00000000000E+00  0.00000000000E+00  0.45593999997E+02  0.45594000000E+02  0.51100000000E-03 0.  1.
         11   -1    0    0    0    0 -0.00000000000E+00 -0.00000000000E+00 -0.45593999997E+02  0.45594000000E+02  0.51100000000E-03 0. -1.
    9900012    2    1    2    0    0 -0.18325071848E+00 -0.10861870317E+01 -0.42358060032E+00  0.90007828988E+02  0.90000091530E+02 0.  0.
         12    1    1    2    0    0  0.18325071848E+00  0.10861870317E+01  0.42358060032E+00  0.11801710124E+01  0.00000000000E+00 0. -1.
         11    1    3    3    0    0 -0.80665420479E+01  0.12187299941E+02 -0.11458530232E+02  0.18571410711E+02  0.51100000000E-03 0. -1.
        -11    1    3    3    0    0 -0.11637775169E+02  0.24944340861E+02  0.21328503388E+01  0.27608096687E+02  0.51100000000E-03 0.  1.
         12    1    3    3    0    0  0.19521066498E+02 -0.38217827833E+02  0.89020992932E+01  0.43828321589E+02  0.00000000000E+00 0. -1.
</event>
<event>
 7    1  0.2569312E-015  0.9000770E+02  0.7816164E-02  0.1186339E+00
        -11   -1    0    0    0    0  0.00000000000E+00  0.00000000000E+00  0.45593999997E+02  0.45594000000E+02  0.51100000000E-03 0. -1.
         11   -1    0    0    0    0 -0.00000000000E+00 -0.00000000000E+00 -0.45593999997E+02  0.45594000000E+02  0.51100000000E-03 0.  1.
    9900012    2    1    2    0    0 -0.62333916636E+00  0.86352229111E+00 -0.50880759857E+00  0.90007700192E+02  0.89999961035E+02 0.  0.
         12    1    1    2    0    0  0.62333916636E+00 -0.86352229111E+00  0.50880759857E+00  0.11802998076E+01  0.00000000000E+00 0. -1.
         11    1    3    3    0    0  0.10760313663E+01 -0.26952242217E+00 -0.83232575638E+01  0.83968507533E+01  0.51100000000E-03 0. -1.
        -11    1    3    3    0    0  0.51670451907E+00  0.50452154670E+01 -0.36609913946E+02  0.36959531681E+02  0.51100000000E-03 0.  1.
         12    1    3    3    0    0 -0.22160750518E+01 -0.39121707537E+01  0.44424363911E+02  0.44651317758E+02  0.00000000000E+00 0. -1.
</event>
<event>
 7    1  0.2569312E-015  0.9000750E+02  0.7816164E-02  0.1186340E+00
        -11   -1    0    0    0    0  0.00000000000E+00  0.00000000000E+00  0.45593999997E+02  0.45594000000E+02  0.51100000000E-03 0.  1.
         11   -1    0    0    0    0 -0.00000000000E+00 -0.00000000000E+00 -0.45593999997E+02  0.45594000000E+02  0.51100000000E-03 0. -1.
    9900012    2    1    2    0    0  0.10533412632E+01  0.47512925023E+00  0.24145716198E+00  0.90007501299E+02  0.89999759516E+02 0.  0.
         12    1    1    2    0    0 -0.10533412632E+01 -0.47512925023E+00 -0.24145716198E+00  0.11804987006E+01  0.00000000000E+00 0. -1.
         11    1    3    3    0    0  0.39599726473E+02  0.16097400359E+02 -0.30644620464E+01  0.42856219653E+02  0.51100000000E-03 0. -1.
        -11    1    3    3    0    0 -0.63870780496E+01  0.53061965784E+01  0.28497064058E+01  0.87790269963E+01  0.51100000000E-03 0.  1.
        -12    1    3    3    0    0 -0.32159307160E+02 -0.20928467687E+02  0.45621280262E+00  0.38372254650E+02  0.00000000000E+00 0.  1.
</event>
<event>
 7    1  0.2569312E-015  0.9000763E+02  0.7816164E-02  0.1186339E+00
        -11   -1    0    0    0    0  0.00000000000E+00  0.00000000000E+00  0.45593999997E+02  0.45594000000E+02  0.51100000000E-03 0.  1.
         11   -1    0    0    0    0 -0.00000000000E+00 -0.00000000000E+00 -0.45593999997E+02  0.45594000000E+02  0.51100000000E-03 0. -1.
    9900012    2    1    2    0    0 -0.75931076101E+00  0.17007711930E+00  0.88757422346E+00  0.90007632659E+02  0.89999892610E+02 0.  0.
         12    1    1    2    0    0  0.75931076101E+00 -0.17007711930E+00 -0.88757422346E+00  0.11803673413E+01  0.00000000000E+00 0. -1.
         11    1    3    3    0    0  0.18928692450E+02  0.36408528995E+02  0.11177449994E+02  0.42530127793E+02  0.51100000000E-03 0. -1.
        -11    1    3    3    0    0 -0.67628897348E+01 -0.39974830773E+01  0.52248694675E+01  0.94348190089E+01  0.51100000000E-03 0.  1.
        -12    1    3    3    0    0 -0.12925113476E+02 -0.32240968798E+02 -0.15514745238E+02  0.38042685857E+02  0.00000000000E+00 0.  1.
</event>
<event>
 7    1  0.2710240E-015  0.9000775E+02  0.7816164E-02  0.1186339E+00
        -11   -1    0    0    0    0  0.00000000000E+00  0.00000000000E+00  0.45593999997E+02  0.45594000000E+02  0.51100000000E-03 0. -1.
         11   -1    0    0    0    0 -0.00000000000E+00 -0.00000000000E+00 -0.45593999997E+02  0.45594000000E+02  0.51100000000E-03 0.  1.
    9900012    2    1    2    0    0  0.90380462979E+00 -0.37344592084E+00 -0.66081406884E+00  0.90007745833E+02  0.90000007278E+02 0.  0.
         12    1    1    2    0    0 -0.90380462979E+00  0.37344592084E+00  0.66081406884E+00  0.11802541668E+01  0.00000000000E+00 0. -1.
         11    1    3    3    0    0 -0.30668808725E+02 -0.16374219257E+02  0.20373181942E+02  0.40295873580E+02  0.51100000000E-03 0. -1.
        -11    1    3    3    0    0  0.65410996616E+01  0.24100262485E+01  0.69062120154E+01  0.98127455875E+01  0.51100000000E-03 0.  1.
        -12    1    3    3    0    0  0.25031513693E+02  0.13590747087E+02 -0.27940208026E+02  0.39899126666E+02  0.00000000000E+00 0.  1.
</event>
<event>
 7    1  0.2569312E-015  0.9000774E+02  0.7816164E-02  0.1186339E+00
        -11   -1    0    0    0    0  0.00000000000E+00  0.00000000000E+00  0.45593999997E+02  0.45594000000E+02  0.51100000000E-03 0.  1.
         11   -1    0    0    0    0 -0.00000000000E+00 -0.00000000000E+00 -0.45593999997E+02  0.45594000000E+02  0.51100000000E-03 0. -1.
    9900012    2    1    2    0    0  0.77175097260E+00 -0.81955232649E+00  0.35461659370E+00  0.90007737949E+02  0.89999999290E+02 0.  0.
         12    1    1    2    0    0 -0.77175097260E+00  0.81955232649E+00 -0.35461659370E+00  0.11802620506E+01  0.00000000000E+00 0. -1.
         11    1    3    3    0    0  0.21261533602E+02 -0.14200447967E+02 -0.35206169622E+02  0.43510687346E+02  0.51100000000E-03 0. -1.
        -11    1    3    3    0    0 -0.12065624375E+01 -0.38869385072E+01  0.46455745007E+01  0.61762000111E+01  0.51100000000E-03 0.  1.
        -12    1    3    3    0    0 -0.19283220192E+02  0.17267834148E+02  0.30915211715E+02  0.40320850593E+02  0.00000000000E+00 0.  1.
</event>
<event>
 7    1  0.2569312E-015  0.9000783E+02  0.7816164E-02  0.1186339E+00
        -11   -1    0    0    0    0  0.00000000000E+00  0.00000000000E+00  0.45593999997E+02  0.45594000000E+02  0.51100000000E-03 0.  1.
         11   -1    0    0    0    0 -0.00000000000E+00 -0.00000000000E+00 -0.45593999997E+02  0.45594000000E+02  0.51100000000E-03 0. -1.
    9900012    2    1    2    0    0 -0.84398383014E+00 -0.77552097752E+00  0.28118617482E+00  0.90007827488E+02  0.90000090011E+02 0.  0.
         12    1    1    2    0    0  0.84398383014E+00  0.77552097752E+00 -0.28118617482E+00  0.11801725116E+01  0.00000000000E+00 0. -1.
         11    1    3    3    0    0 -0.78242262157E+01  0.34979486486E+02  0.16149937543E+02  0.39314163779E+02  0.51100000000E-03 0. -1.
        -11    1    3    3    0    0 -0.44215368178E+01 -0.22610091376E+01  0.69869572551E+01  0.85720313869E+01  0.51100000000E-03 0.  1.
        -12    1    3    3    0    0  0.11401779203E+02 -0.33493998326E+02 -0.22855708623E+02  0.42121632323E+02  0.00000000000E+00 0.  1.
</event>
<event>
 7    1  0.2569312E-015  0.9000814E+02  0.7816164E-02  0.1186338E+00
        -11   -1    0    0    0    0  0.00000000000E+00  0.00000000000E+00  0.45593999997E+02  0.45594000000E+02  0.51100000000E-03 0. -1.
         11   -1    0    0    0    0 -0.00000000000E+00 -0.00000000000E+00 -0.45593999997E+02  0.45594000000E+02  0.51100000000E-03 0.  1.
    9900012    2    1    2    0    0  0.57144134759E+00  0.13978285356E+00 -0.10227293071E+01  0.90008144206E+02  0.90000410908E+02 0.  0.
         12    1    1    2    0    0 -0.57144134759E+00 -0.13978285356E+00  0.10227293071E+01  0.11798557944E+01  0.00000000000E+00 0. -1.
         11    1    3    3    0    0 -0.37951566698E+01 -0.74005178636E+01  0.46807510811E+01  0.95436004601E+01  0.51100000000E-03 0. -1.
        -11    1    3    3    0    0  0.33173773777E+02 -0.10488889219E+02  0.17861856124E+02  0.39109614778E+02  0.51100000000E-03 0.  1.
         12    1    3    3    0    0 -0.28807175759E+02  0.18029189936E+02 -0.23565336512E+02  0.41354928967E+02  0.00000000000E+00 0. -1.
</event>
<event>
 7    1  0.2569312E-015  0.9000778E+02  0.7816164E-02  0.1186339E+00
        -11   -1    0    0    0    0  0.00000000000E+00  0.00000000000E+00  0.45593999997E+02  0.45594000000E+02  0.51100000000E-03 0.  1.
         11   -1    0    0    0    0 -0.00000000000E+00 -0.00000000000E+00 -0.45593999997E+02  0.45594000000E+02  0.51100000000E-03 0. -1.
    9900012    2    1    2    0    0  0.29126889972E-02  0.35740292777E+00  0.11247946355E+01  0.90007784635E+02  0.90000046592E+02 0.  0.
         12    1    1    2    0    0 -0.29126889972E-02 -0.35740292777E+00 -0.11247946355E+01  0.11802153654E+01  0.00000000000E+00 0. -1.
         11    1    3    3    0    0  0.18827012853E+02 -0.14168731491E+02  0.10019173034E+01  0.23584172734E+02  0.51100000000E-03 0. -1.
        -11    1    3    3    0    0  0.21372897734E+02  0.21604786443E+01 -0.91633738403E+01  0.23354567988E+02  0.51100000000E-03 0.  1.
         12    1    3    3    0    0 -0.40196997897E+02  0.12365655775E+02  0.92862511725E+01  0.43069043912E+02  0.00000000000E+00 0. -1.
</event>
<event>
 7    1  0.2569312E-015  0.9000734E+02  0.7816164E-02  0.1186340E+00
        -11   -1    0    0    0    0  0.00000000000E+00  0.00000000000E+00  0.45593999997E+02  0.45594000000E+02  0.51100000000E-03 0.  1.
         11   -1    0    0    0    0 -0.00000000000E+00 -0.00000000000E+00 -0.45593999997E+02  0.45594000000E+02  0.51100000000E-03 0. -1.
    9900012    2    1    2    0    0  0.11644482496E+01  0.99730016007E-01 -0.16756119736E+00  0.90007338085E+02  0.89999594147E+02 0.  0.
         12    1    1    2    0    0 -0.11644482496E+01 -0.99730016007E-01  0.16756119736E+00  0.11806619148E+01  0.00000000000E+00 0. -1.
         11    1    3    3    0    0  0.10544358635E+02  0.36941520209E+00  0.17950331928E+00  0.10552354633E+02  0.51100000000E-03 0. -1.
        -11    1    3    3    0    0 -0.13067288973E+02 -0.34213924393E+02  0.17874137052E+02  0.40753299732E+02  0.51100000000E-03 0.  1.
         12    1    3    3    0    0  0.36873785876E+01  0.33944239206E+02 -0.18221201568E+02  0.38701683720E+02  0.00000000000E+00 0. -1.
</event>
<event>
 7    1  0.2569312E-015  0.9000772E+02  0.7816164E-02  0.1186339E+00
        -11   -1    0    0    0    0  0.00000000000E+00  0.00000000000E+00  0.45593999997E+02  0.45594000000E+02  0.51100000000E-03 0.  1.
         11   -1    0    0    0    0 -0.00000000000E+00 -0.00000000000E+00 -0.45593999997E+02  0.45594000000E+02  0.51100000000E-03 0. -1.
    9900012    2    1    2    0    0 -0.13320449439E+00  0.11727240038E+01 -0.61458120081E-02  0.90007719187E+02  0.89999980280E+02 0.  0.
         12    1    1    2    0    0  0.13320449439E+00 -0.11727240038E+01  0.61458120081E-02  0.11802808130E+01  0.00000000000E+00 0. -1.
         11    1    3    3    0    0 -0.33251366746E+01  0.46501563744E+01  0.24649344843E+01  0.62254630739E+01  0.51100000000E-03 0. -1.
        -11    1    3    3    0    0 -0.27612779778E+02 -0.18040232902E+02  0.23869519245E+02  0.40714488324E+02  0.51100000000E-03 0.  1.
         12    1    3    3    0    0  0.30804711959E+02  0.14562800531E+02 -0.26340599541E+02  0.43067767789E+02  0.00000000000E+00 0. -1.
</event>
<event>
 7    1  0.2569312E-015  0.9000758E+02  0.7816164E-02  0.1186339E+00
        -11   -1    0    0    0    0  0.00000000000E+00  0.00000000000E+00  0.45593999997E+02  0.45594000000E+02  0.51100000000E-03 0. -1.
         11   -1    0    0    0    0 -0.00000000000E+00 -0.00000000000E+00 -0.45593999997E+02  0.45594000000E+02  0.51100000000E-03 0.  1.
    9900012    2    1    2    0    0 -0.98001071763E+00  0.62740236459E+00 -0.19831004780E+00  0.90007584137E+02  0.89999843448E+02 0.  0.
         12    1    1    2    0    0  0.98001071763E+00 -0.62740236459E+00  0.19831004780E+00  0.11804158627E+01  0.00000000000E+00 0. -1.
         11    1    3    3    0    0 -0.29219230105E+01  0.45110060671E+01  0.66381428401E+01  0.85411796869E+01  0.51100000000E-03 0. -1.
        -11    1    3    3    0    0 -0.27759216261E+02  0.12185187482E+02 -0.28284511015E+02  0.41461626174E+02  0.51100000000E-03 0.  1.
         12    1    3    3    0    0  0.29701128553E+02 -0.16068791185E+02  0.21448058127E+02  0.40004778276E+02  0.00000000000E+00 0. -1.
</event>
<event>
 7    1  0.2569312E-015  0.9000773E+02  0.7816164E-02  0.1186339E+00
        -11   -1    0    0    0    0  0.00000000000E+00  0.00000000000E+00  0.45593999997E+02  0.45594000000E+02  0.51100000000E-03 0.  1.
         11   -1    0    0    0    0 -0.00000000000E+00 -0.00000000000E+00 -0.45593999997E+02  0.45594000000E+02  0.51100000000E-03 0. -1.
    9900012    2    1    2    0    0  0.40406152839E+00 -0.10939466381E+01 -0.18179615867E+00  0.90007731044E+02  0.89999992294E+02 0.  0.
         12    1    1    2    0    0 -0.40406152839E+00  0.10939466381E+01  0.18179615867E+00  0.11802689563E+01  0.00000000000E+00 0. -1.
         11    1    3    3    0    0  0.36846878589E+01 -0.32401930870E+02 -0.18038140181E+02  0.37267097420E+02  0.51100000000E-03 0. -1.
        -11    1    3    3    0    0 -0.10162842626E+02  0.15386585303E+01 -0.77516946510E+01  0.12873989690E+02  0.51100000000E-03 0.  1.
        -12    1    3    3    0    0  0.68822162955E+01  0.29769325701E+02  0.25608038673E+02  0.39866643933E+02  0.00000000000E+00 0.  1.
</event>
<event>
 7    1  0.2569312E-015  0.9000772E+02  0.7816164E-02  0.1186339E+00
        -11   -1    0    0    0    0  0.00000000000E+00  0.00000000000E+00  0.45593999997E+02  0.45594000000E+02  0.51100000000E-03 0.  1.
         11   -1    0    0    0    0 -0.00000000000E+00 -0.00000000000E+00 -0.45593999997E+02  0.45594000000E+02  0.51100000000E-03 0. -1.
    9900012    2    1    2    0    0  0.71346466275E+00 -0.91378871678E+00 -0.22141775335E+00  0.90007717210E+02  0.89999978277E+02 0.  0.
         12    1    1    2    0    0 -0.71346466275E+00  0.91378871678E+00  0.22141775335E+00  0.11802827904E+01  0.00000000000E+00 0. -1.
         11    1    3    3    0    0  0.54416863341E+00 -0.33594009312E+02  0.10922742834E+02  0.35329306425E+02  0.51100000000E-03 0. -1.
        -11    1    3    3    0    0  0.46723008875E+01 -0.95138995265E+01  0.70101799738E+00  0.10622434103E+02  0.51100000000E-03 0.  1.
        -12    1    3    3    0    0 -0.45030048582E+01  0.42194120122E+02 -0.11845178585E+02  0.44055976681E+02  0.00000000000E+00 0.  1.
</event>
<event>
 7    1  0.2569312E-015  0.9000782E+02  0.7816164E-02  0.1186339E+00
        -11   -1    0    0    0    0  0.00000000000E+00  0.00000000000E+00  0.45593999997E+02  0.45594000000E+02  0.51100000000E-03 0.  1.
         11   -1    0    0    0    0 -0.00000000000E+00 -0.00000000000E+00 -0.45593999997E+02  0.45594000000E+02  0.51100000000E-03 0. -1.
    9900012    2    1    2    0    0  0.10254981647E+01 -0.38433098182E+00 -0.43985749771E+00  0.90007817214E+02  0.90000079601E+02 0.  0.
         12    1    1    2    0    0 -0.10254981647E+01  0.38433098182E+00  0.43985749771E+00  0.11801827857E+01  0.00000000000E+00 0. -1.
         11    1    3    3    0    0 -0.31715306852E+02 -0.16593123477E+02  0.80756436915E+01  0.36693438879E+02  0.51100000000E-03 0. -1.
        -11    1    3    3    0    0 -0.12341330697E+01  0.83369474862E+01  0.10601705683E+02  0.13543409521E+02  0.51100000000E-03 0.  1.
        -12    1    3    3    0    0  0.33974938087E+02  0.78718450090E+01 -0.19117206872E+02  0.39770968814E+02  0.00000000000E+00 0.  1.
</event>
<event>
 7    1  0.2569312E-015  0.9000778E+02  0.7816164E-02  0.1186339E+00
        -11   -1    0    0    0    0  0.00000000000E+00  0.00000000000E+00  0.45593999997E+02  0.45594000000E+02  0.51100000000E-03 0.  1.
         11   -1    0    0    0    0 -0.00000000000E+00 -0.00000000000E+00 -0.45593999997E+02  0.45594000000E+02  0.51100000000E-03 0. -1.
    9900012    2    1    2    0    0 -0.18087662309E+00  0.24018691348E+00  0.11412818252E+01  0.90007775313E+02  0.90000037148E+02 0.  0.
         12    1    1    2    0    0  0.18087662309E+00 -0.24018691348E+00 -0.11412818252E+01  0.11802246866E+01  0.00000000000E+00 0. -1.
         11    1    3    3    0    0  0.29667261429E+02 -0.27577985627E+01  0.21904126287E+02  0.36980300192E+02  0.51100000000E-03 0. -1.
        -11    1    3    3    0    0  0.49768139088E+01 -0.20594803921E+00  0.68491782261E+01  0.84689039380E+01  0.51100000000E-03 0.  1.
        -12    1    3    3    0    0 -0.34824951961E+02  0.32039335154E+01 -0.27612022687E+02  0.44558571184E+02  0.00000000000E+00 0.  1.
</event>
<event>
 7    1  0.2569312E-015  0.9000769E+02  0.7816164E-02  0.1186339E+00
        -11   -1    0    0    0    0  0.00000000000E+00  0.00000000000E+00  0.45593999997E+02  0.45594000000E+02  0.51100000000E-03 0.  1.
         11   -1    0    0    0    0 -0.00000000000E+00 -0.00000000000E+00 -0.45593999997E+02  0.45594000000E+02  0.51100000000E-03 0. -1.
    9900012    2    1    2    0    0 -0.92883845368E+00 -0.59547647340E+00  0.41928565041E+00  0.90007689210E+02  0.89999949908E+02 0.  0.
         12    1    1    2    0    0  0.92883845368E+00  0.59547647340E+00 -0.41928565041E+00  0.11803107896E+01  0.00000000000E+00 0. -1.
         11    1    3    3    0    0  0.93938000981E+01 -0.16321306767E+02  0.10417776479E+02  0.21521119903E+02  0.51100000000E-03 0. -1.
        -11    1    3    3    0    0 -0.16609265247E+02  0.29040921930E+02  0.17155461479E+02  0.37597243215E+02  0.51100000000E-03 0.  1.
         12    1    3    3    0    0  0.62866266951E+01 -0.13315091636E+02 -0.27153952307E+02  0.30889326092E+02  0.00000000000E+00 0. -1.
</event>
<event>
 7    1  0.2569312E-015  0.9000771E+02  0.7816164E-02  0.1186339E+00
        -11   -1    0    0    0    0  0.00000000000E+00  0.00000000000E+00  0.45593999997E+02  0.45594000000E+02  0.51100000000E-03 0. -1.
         11   -1    0    0    0    0 -0.00000000000E+00 -0.00000000000E+00 -0.45593999997E+02  0.45594000000E+02  0.51100000000E-03 0.  1.
    9900012    2    1    2    0    0 -0.52815473954E+00  0.36625706496E-01 -0.10548949352E+01  0.90007706733E+02  0.89999967662E+02 0.  0.
         12    1    1    2    0    0  0.52815473954E+00 -0.36625706496E-01  0.10548949352E+01  0.11802932668E+01  0.00000000000E+00 0. -1.
         11    1    3    3    0    0 -0.29975230427E+02  0.23497072678E+02  0.15541344364E+02  0.41135875443E+02  0.51100000000E-03 0. -1.
        -11    1    3    3    0    0 -0.18650771864E+01  0.13624807543E+01 -0.75600311631E+01  0.79049945076E+01  0.51100000000E-03 0.  1.
        -12    1    3    3    0    0  0.31312152874E+02 -0.24822927726E+02 -0.90362081357E+01  0.40966836782E+02  0.00000000000E+00 0.  1.
</event>
<event>
 7    1  0.2569312E-015  0.9000775E+02  0.7816164E-02  0.1186339E+00
        -11   -1    0    0    0    0  0.00000000000E+00  0.00000000000E+00  0.45593999997E+02  0.45594000000E+02  0.51100000000E-03 0.  1.
         11   -1    0    0    0    0 -0.00000000000E+00 -0.00000000000E+00 -0.45593999997E+02  0.45594000000E+02  0.51100000000E-03 0. -1.
    9900012    2    1    2    0    0 -0.41686522592E+00  0.10950197862E+01  0.14197313383E+00  0.90007745231E+02  0.90000006668E+02 0.  0.
         12    1    1    2    0    0  0.41686522592E+00 -0.10950197862E+01 -0.14197313383E+00  0.11802547689E+01  0.00000000000E+00 0. -1.
         11    1    3    3    0    0 -0.11537709098E+01 -0.10412012917E+02  0.49438922346E+01  0.11583750299E+02  0.51100000000E-03 0. -1.
        -11    1    3    3    0    0  0.31313160112E+02 -0.52667164943E+01 -0.22884176518E+02  0.39139977440E+02  0.51100000000E-03 0.  1.
         12    1    3    3    0    0 -0.30576254428E+02  0.16773749198E+02  0.18082257417E+02  0.39284017492E+02  0.00000000000E+00 0. -1.
</event>
<event>
 7    1  0.2569312E-015  0.9000762E+02  0.7816164E-02  0.1186339E+00
        -11   -1    0    0    0    0  0.00000000000E+00  0.00000000000E+00  0.45593999997E+02  0.45594000000E+02  0.51100000000E-03 0. -1.
         11   -1    0    0    0    0 -0.00000000000E+00 -0.00000000000E+00 -0.45593999997E+02  0.45594000000E+02  0.51100000000E-03 0.  1.
    9900012    2    1    2    0    0 -0.59542440653E+00 -0.12089333287E+00 -0.10120009500E+01  0.90007622372E+02  0.89999882187E+02 0.  0.
         12    1    1    2    0    0  0.59542440653E+00  0.12089333287E+00  0.10120009500E+01  0.11803776280E+01  0.00000000000E+00 0. -1.
         11    1    3    3    0    0 -0.48196254017E+01 -0.16084562908E+02  0.14694280340E+02  0.22312862388E+02  0.51100000000E-03 0. -1.
        -11    1    3    3    0    0 -0.16201460376E+02 -0.14244347822E+02  0.92862207784E+01  0.23486648544E+02  0.51100000000E-03 0.  1.
        -12    1    3    3    0    0  0.20425661372E+02  0.30208017397E+02 -0.24992502068E+02  0.44208111441E+02  0.00000000000E+00 0.  1.
</event>
<event>
 7    1  0.2569312E-015  0.9000778E+02  0.7816164E-02  0.1186339E+00
        -11   -1    0    0    0    0  0.00000000000E+00  0.00000000000E+00  0.45593999997E+02  0.45594000000E+02  0.51100000000E-03 0.  1.
         11   -1    0    0    0    0 -0.00000000000E+00 -0.00000000000E+00 -0.45593999997E+02  0.45594000000E+02  0.51100000000E-03 0. -1.
    9900012    2    1    2    0    0 -0.15815117404E+00 -0.69467736592E+00  0.94092607857E+00  0.90007775309E+02  0.90000037143E+02 0.  0.
         12    1    1    2    0    0  0.15815117404E+00  0.69467736592E+00 -0.94092607857E+00  0.11802246913E+01  0.00000000000E+00 0. -1.
         11    1    3    3    0    0 -0.46227201114E+01 -0.78176711759E+01 -0.31654507797E-01  0.90822093188E+01  0.51100000000E-03 0. -1.
        -11    1    3    3    0    0  0.33631842704E+02 -0.16202979690E+02  0.16068284532E+02  0.40642676616E+02  0.51100000000E-03 0.  1.
         12    1    3    3    0    0 -0.29167273766E+02  0.23325973500E+02 -0.15095703946E+02  0.40282889374E+02  0.00000000000E+00 0. -1.
</event>
<event>
 7    1  0.2569312E-015  0.9000777E+02  0.7816164E-02  0.1186339E+00
        -11   -1    0    0    0    0  0.00000000000E+00  0.00000000000E+00  0.45593999997E+02  0.45594000000E+02  0.51100000000E-03 0.  1.
         11   -1    0    0    0    0 -0.00000000000E+00 -0.00000000000E+00 -0.45593999997E+02  0.45594000000E+02  0.51100000000E-03 0. -1.
    9900012    2    1    2    0    0 -0.75225793132E+00 -0.55471651041E+00 -0.72064461808E+00  0.90007774993E+02  0.90000036823E+02 0.  0.
         12    1    1    2    0    0  0.75225793132E+00  0.55471651041E+00  0.72064461808E+00  0.11802250072E+01  0.00000000000E+00 0. -1.
         11    1    3    3    0    0  0.17479204779E+01 -0.48613225179E+01 -0.44901480737E+01  0.68446411597E+01  0.51100000000E-03 0. -1.
        -11    1    3    3    0    0  0.45260240134E+01  0.28828730699E+02  0.33209458176E+02  0.44209147467E+02  0.51100000000E-03 0.  1.
         12    1    3    3    0    0 -0.70262024226E+01 -0.24522124692E+02 -0.29439954721E+02  0.38953986366E+02  0.00000000000E+00 0. -1.
</event>
<event>
 7    1  0.2569312E-015  0.9000777E+02  0.7816164E-02  0.1186339E+00
        -11   -1    0    0    0    0  0.00000000000E+00  0.00000000000E+00  0.45593999997E+02  0.45594000000E+02  0.51100000000E-03 0. -1.
         11   -1    0    0    0    0 -0.00000000000E+00 -0.00000000000E+00 -0.45593999997E+02  0.45594000000E+02  0.51100000000E-03 0.  1.
    9900012    2    1    2    0    0  0.18614350323E+00  0.81572529764E+00 -0.83239843238E+00  0.90007769380E+02  0.90000031136E+02 0.  0.
         12    1    1    2    0    0 -0.18614350323E+00 -0.81572529764E+00  0.83239843238E+00  0.11802306195E+01  0.00000000000E+00 0. -1.
         11    1    3    3    0    0 -0.34412335200E+02  0.94124710490E+01 -0.16459140814E+02  0.39290033619E+02  0.51100000000E-03 0. -1.
        -11    1    3    3    0    0 -0.43179648279E+01  0.35774255754E+01  0.71211536677E+01  0.90638636255E+01  0.51100000000E-03 0.  1.
        -12    1    3    3    0    0  0.38916443531E+02 -0.12174171327E+02  0.85055887142E+01  0.41653872136E+02  0.00000000000E+00 0.  1.
</event>
<event>
 7    1  0.2569312E-015  0.9000778E+02  0.7816164E-02  0.1186339E+00
        -11   -1    0    0    0    0  0.00000000000E+00  0.00000000000E+00  0.45593999997E+02  0.45594000000E+02  0.51100000000E-03 0. -1.
         11   -1    0    0    0    0 -0.00000000000E+00 -0.00000000000E+00 -0.45593999997E+02  0.45594000000E+02  0.51100000000E-03 0.  1.
    9900012    2    1    2    0    0  0.33228474589E+00 -0.89491377110E+00 -0.69400454497E+00  0.90007777089E+02  0.90000038947E+02 0.  0.
         12    1    1    2    0    0 -0.33228474589E+00  0.89491377110E+00  0.69400454497E+00  0.11802229105E+01  0.00000000000E+00 0. -1.
         11    1    3    3    0    0  0.35072369621E+02 -0.88337101276E+01  0.68001330355E+01  0.36801458599E+02  0.51100000000E-03 0. -1.
        -11    1    3    3    0    0  0.76745373762E+01 -0.27544317253E+00  0.37762886791E+01  0.85577303842E+01  0.51100000000E-03 0.  1.
        -12    1    3    3    0    0 -0.42414622252E+02  0.82142395290E+01 -0.11270426260E+02  0.44648588106E+02  0.00000000000E+00 0.  1.
</event>
<event>
 7    1  0.2569312E-015  0.9000777E+02  0.7816164E-02  0.1186339E+00
        -11   -1    0    0    0    0  0.00000000000E+00  0.00000000000E+00  0.45593999997E+02  0.45594000000E+02  0.51100000000E-03 0. -1.
         11   -1    0    0    0    0 -0.00000000000E+00 -0.00000000000E+00 -0.45593999997E+02  0.45594000000E+02  0.51100000000E-03 0.  1.
    9900012    2    1    2    0    0  0.83026250097E+00  0.63147473658E+00  0.55212150657E+00  0.90007773614E+02  0.90000035426E+02 0.  0.
         12    1    1    2    0    0 -0.83026250097E+00 -0.63147473658E+00 -0.55212150657E+00  0.11802263857E+01  0.00000000000E+00 0. -1.
         11    1    3    3    0    0 -0.41375457578E+01  0.32221671362E+02 -0.82889847450E+01  0.33527043690E+02  0.51100000000E-03 0. -1.
        -11    1    3    3    0    0  0.19098857516E+01  0.11608417148E+02 -0.17599070007E+01  0.11895389240E+02  0.51100000000E-03 0.  1.
        -12    1    3    3    0    0  0.30579225072E+01 -0.43198613773E+02  0.10601013252E+02  0.44585340684E+02  0.00000000000E+00 0.  1.
</event>
<event>
 7    1  0.2569312E-015  0.9000775E+02  0.7816164E-02  0.1186339E+00
        -11   -1    0    0    0    0  0.00000000000E+00  0.00000000000E+00  0.45593999997E+02  0.45594000000E+02  0.51100000000E-03 0. -1.
         11   -1    0    0    0    0 -0.00000000000E+00 -0.00000000000E+00 -0.45593999997E+02  0.45594000000E+02  0.51100000000E-03 0.  1.
    9900012    2    1    2    0    0 -0.67086087289E+00 -0.33501703980E+00 -0.91142599994E+00  0.90007750839E+02  0.90000012350E+02 0.  0.
         12    1    1    2    0    0  0.67086087289E+00  0.33501703980E+00  0.91142599994E+00  0.11802491606E+01  0.00000000000E+00 0. -1.
         11    1    3    3    0    0 -0.37305489299E+02 -0.92042934361E+01  0.13849364539E+02  0.40843891194E+02  0.51100000000E-03 0. -1.
        -11    1    3    3    0    0 -0.28053475368E+01 -0.15122593344E+01 -0.69407533454E+01  0.76374708091E+01  0.51100000000E-03 0.  1.
        -12    1    3    3    0    0  0.39439975963E+02  0.10381535731E+02 -0.78200371932E+01  0.41526388836E+02  0.00000000000E+00 0.  1.
</event>
<event>
 7    1  0.2569312E-015  0.9000777E+02  0.7816164E-02  0.1186339E+00
        -11   -1    0    0    0    0  0.00000000000E+00  0.00000000000E+00  0.45593999997E+02  0.45594000000E+02  0.51100000000E-03 0.  1.
         11   -1    0    0    0    0 -0.00000000000E+00 -0.00000000000E+00 -0.45593999997E+02  0.45594000000E+02  0.51100000000E-03 0. -1.
    9900012    2    1    2    0    0 -0.37145475093E+00 -0.11012346236E+01  0.20554754908E+00  0.90007768615E+02  0.90000030360E+02 0.  0.
         12    1    1    2    0    0  0.37145475093E+00  0.11012346236E+01 -0.20554754908E+00  0.11802313854E+01  0.00000000000E+00 0. -1.
         11    1    3    3    0    0  0.74116040491E+01 -0.59150934891E+01  0.25631316728E+01  0.98229247070E+01  0.51100000000E-03 0. -1.
        -11    1    3    3    0    0 -0.11380577058E+02 -0.98964986007E+01  0.35953847688E+02  0.38988939234E+02  0.51100000000E-03 0.  1.
         12    1    3    3    0    0  0.35975182577E+01  0.14710357466E+02 -0.38311431812E+02  0.41195904674E+02  0.00000000000E+00 0. -1.
</event>
<event>
 7    1  0.2679516E-015  0.9000777E+02  0.7816164E-02  0.1186339E+00
        -11   -1    0    0    0    0  0.00000000000E+00  0.00000000000E+00  0.45593999997E+02  0.45594000000E+02  0.51100000000E-03 0. -1.
         11   -1    0    0    0    0 -0.00000000000E+00 -0.00000000000E+00 -0.45593999997E+02  0.45594000000E+02  0.51100000000E-03 0.  1.
    9900012    2    1    2    0    0  0.21412937337E+00 -0.49654848417E+00 -0.10490670073E+01  0.90007765544E+02  0.90000027249E+02 0.  0.
         12    1    1    2    0    0 -0.21412937337E+00  0.49654848417E+00  0.10490670073E+01  0.11802344562E+01  0.00000000000E+00 0. -1.
         11    1    3    3    0    0  0.32101824964E+02 -0.18054693269E+00  0.22028513503E+02  0.38933471084E+02  0.51100000000E-03 0. -1.
        -11    1    3    3    0    0  0.13231014192E+01 -0.10397790531E+02 -0.26876013086E+01  0.10820713764E+02  0.51100000000E-03 0.  1.
        -12    1    3    3    0    0 -0.33210797010E+02  0.10081788980E+02 -0.20389979201E+02  0.40253580697E+02  0.00000000000E+00 0.  1.
</event>
<event>
 7    1  0.2569312E-015  0.9000772E+02  0.7816164E-02  0.1186339E+00
        -11   -1    0    0    0    0  0.00000000000E+00  0.00000000000E+00  0.45593999997E+02  0.45594000000E+02  0.51100000000E-03 0.  1.
         11   -1    0    0    0    0 -0.00000000000E+00 -0.00000000000E+00 -0.45593999997E+02  0.45594000000E+02  0.51100000000E-03 0. -1.
    9900012    2    1    2    0    0 -0.44750396750E-01  0.51601386673E+00  0.10605548880E+01  0.90007724787E+02  0.89999985954E+02 0.  0.
         12    1    1    2    0    0  0.44750396750E-01 -0.51601386673E+00 -0.10605548880E+01  0.11802752133E+01  0.00000000000E+00 0. -1.
         11    1    3    3    0    0 -0.17262885946E+02  0.20529736940E+01  0.11167327491E+02  0.20662311965E+02  0.51100000000E-03 0. -1.
        -11    1    3    3    0    0 -0.19520145237E+01  0.27664141800E+02  0.94664307308E+01  0.29304068203E+02  0.51100000000E-03 0.  1.
         12    1    3    3    0    0  0.19170150073E+02 -0.29201101627E+02 -0.19573203334E+02  0.40041344618E+02  0.00000000000E+00 0. -1.
</event>
<event>
 7    1  0.2964890E-015  0.9000766E+02  0.7816164E-02  0.1186339E+00
        -11   -1    0    0    0    0  0.00000000000E+00  0.00000000000E+00  0.45593999997E+02  0.45594000000E+02  0.51100000000E-03 0. -1.
         11   -1    0    0    0    0 -0.00000000000E+00 -0.00000000000E+00 -0.45593999997E+02  0.45594000000E+02  0.51100000000E-03 0.  1.
    9900012    2    1    2    0    0 -0.51755670043E+00 -0.73932488363E+00 -0.76074189365E+00  0.90007663416E+02  0.89999923774E+02 0.  0.
         12    1    1    2    0    0  0.51755670043E+00  0.73932488363E+00  0.76074189365E+00  0.11803365835E+01  0.00000000000E+00 0. -1.
         11    1    3    3    0    0  0.47020271137E+01  0.10317526155E+02  0.36287192585E+02  0.38017374329E+02  0.51100000000E-03 0. -1.
        -11    1    3    3    0    0  0.62585429990E+01  0.62824157759E+01  0.69836507257E+00  0.88952696692E+01  0.51100000000E-03 0.  1.
        -12    1    3    3    0    0 -0.11478126813E+02 -0.17339266815E+02 -0.37746299551E+02  0.43095019418E+02  0.00000000000E+00 0.  1.
</event>
<event>
 7    1  0.2569312E-015  0.9000764E+02  0.7816164E-02  0.1186339E+00
        -11   -1    0    0    0    0  0.00000000000E+00  0.00000000000E+00  0.45593999997E+02  0.45594000000E+02  0.51100000000E-03 0. -1.
         11   -1    0    0    0    0 -0.00000000000E+00 -0.00000000000E+00 -0.45593999997E+02  0.45594000000E+02  0.51100000000E-03 0.  1.
    9900012    2    1    2    0    0 -0.91910916989E+00 -0.17624486214E+00 -0.71931770735E+00  0.90007643324E+02  0.89999903416E+02 0.  0.
         12    1    1    2    0    0  0.91910916989E+00  0.17624486214E+00  0.71931770735E+00  0.11803566756E+01  0.00000000000E+00 0. -1.
         11    1    3    3    0    0 -0.48912411133E+01  0.44678649349E+01  0.79286913459E+01  0.10331999004E+02  0.51100000000E-03 0. -1.
        -11    1    3    3    0    0  0.18883802592E+02  0.32788288245E+02 -0.10727758533E+02  0.39328801784E+02  0.51100000000E-03 0.  1.
         12    1    3    3    0    0 -0.14911670649E+02 -0.37432398042E+02  0.20797494795E+01  0.40346842536E+02  0.00000000000E+00 0. -1.
</event>
<event>
 7    1  0.2569312E-015  0.9000727E+02  0.7816164E-02  0.1186340E+00
        -11   -1    0    0    0    0  0.00000000000E+00  0.00000000000E+00  0.45593999997E+02  0.45594000000E+02  0.51100000000E-03 0.  1.
         11   -1    0    0    0    0 -0.00000000000E+00 -0.00000000000E+00 -0.45593999997E+02  0.45594000000E+02  0.51100000000E-03 0. -1.
    9900012    2    1    2    0    0  0.40936568074E+00  0.77686989868E+00  0.78930979464E+00  0.90007272660E+02  0.89999527858E+02 0.  0.
         12    1    1    2    0    0 -0.40936568074E+00 -0.77686989868E+00 -0.78930979464E+00  0.11807273402E+01  0.00000000000E+00 0. -1.
         11    1    3    3    0    0 -0.53085646415E+01  0.10499330049E+01  0.81210994403E+01  0.97588664428E+01  0.51100000000E-03 0. -1.
        -11    1    3    3    0    0 -0.77587376386E+01 -0.18885689352E+00  0.34985973670E+02  0.35836462305E+02  0.51100000000E-03 0.  1.
         12    1    3    3    0    0  0.13476667961E+02 -0.84206212715E-01 -0.42317763315E+02  0.44411943912E+02  0.00000000000E+00 0. -1.
</event>
<event>
 7    1  0.2569312E-015  0.9000772E+02  0.7816164E-02  0.1186339E+00
        -11   -1    0    0    0    0  0.00000000000E+00  0.00000000000E+00  0.45593999997E+02  0.45594000000E+02  0.51100000000E-03 0.  1.
         11   -1    0    0    0    0 -0.00000000000E+00 -0.00000000000E+00 -0.45593999997E+02  0.45594000000E+02  0.51100000000E-03 0. -1.
    9900012    2    1    2    0    0  0.26500154005E+00  0.86890318034E+00  0.75355943544E+00  0.90007715977E+02  0.89999977028E+02 0.  0.
         12    1    1    2    0    0 -0.26500154005E+00 -0.86890318034E+00 -0.75355943544E+00  0.11802840234E+01  0.00000000000E+00 0. -1.
         11    1    3    3    0    0 -0.28417770192E+01  0.54708090373E+01  0.85884064639E+01  0.10571952232E+02  0.51100000000E-03 0. -1.
        -11    1    3    3    0    0  0.16895191130E+01  0.36731593880E+02  0.23398042462E+01  0.36844798113E+02  0.51100000000E-03 0.  1.
         12    1    3    3    0    0  0.14172594462E+01 -0.41333499737E+02 -0.10174651275E+02  0.42590965631E+02  0.00000000000E+00 0. -1.
</event>
<event>
 7    1  0.2569312E-015  0.9000772E+02  0.7816164E-02  0.1186339E+00
        -11   -1    0    0    0    0  0.00000000000E+00  0.00000000000E+00  0.45593999997E+02  0.45594000000E+02  0.51100000000E-03 0.  1.
         11   -1    0    0    0    0 -0.00000000000E+00 -0.00000000000E+00 -0.45593999997E+02  0.45594000000E+02  0.51100000000E-03 0. -1.
    9900012    2    1    2    0    0 -0.68798433531E-02  0.11508948380E+01  0.26165987006E+00  0.90007715226E+02  0.89999976267E+02 0.  0.
         12    1    1    2    0    0  0.68798433531E-02 -0.11508948380E+01 -0.26165987006E+00  0.11802847741E+01  0.00000000000E+00 0. -1.
         11    1    3    3    0    0 -0.25784653522E+02 -0.39055555523E+01 -0.26720592573E+02  0.37337538605E+02  0.51100000000E-03 0. -1.
        -11    1    3    3    0    0  0.96576485007E+00 -0.93946752275E+01 -0.41521561302E+01  0.10316638269E+02  0.51100000000E-03 0.  1.
        -12    1    3    3    0    0  0.24812008828E+02  0.14451125618E+02  0.31134408573E+02  0.42353538352E+02  0.00000000000E+00 0.  1.
</event>
<event>
 7    1  0.2569312E-015  0.9000773E+02  0.7816164E-02  0.1186339E+00
        -11   -1    0    0    0    0  0.00000000000E+00  0.00000000000E+00  0.45593999997E+02  0.45594000000E+02  0.51100000000E-03 0.  1.
         11   -1    0    0    0    0 -0.00000000000E+00 -0.00000000000E+00 -0.45593999997E+02  0.45594000000E+02  0.51100000000E-03 0. -1.
    9900012    2    1    2    0    0 -0.41905046420E+00  0.80098034230E+00  0.75885276535E+00  0.90007732946E+02  0.89999994220E+02 0.  0.
         12    1    1    2    0    0  0.41905046420E+00 -0.80098034230E+00 -0.75885276535E+00  0.11802670544E+01  0.00000000000E+00 0. -1.
         11    1    3    3    0    0  0.33456256215E+02 -0.10530864939E+02  0.38012279648E+01  0.35279874300E+02  0.51100000000E-03 0. -1.
        -11    1    3    3    0    0  0.91302766018E+01 -0.23718038841E+01 -0.16047779600E+01  0.95688409461E+01  0.51100000000E-03 0.  1.
        -12    1    3    3    0    0 -0.43005583281E+02  0.13703649165E+02 -0.14375972394E+01  0.45159017700E+02  0.00000000000E+00 0.  1.
</event>
<event>
 7    1  0.2569312E-015  0.9000770E+02  0.7816164E-02  0.1186339E+00
        -11   -1    0    0    0    0  0.00000000000E+00  0.00000000000E+00  0.45593999997E+02  0.45594000000E+02  0.51100000000E-03 0.  1.
         11   -1    0    0    0    0 -0.00000000000E+00 -0.00000000000E+00 -0.45593999997E+02  0.45594000000E+02  0.51100000000E-03 0. -1.
    9900012    2    1    2    0    0  0.90227028053E+00  0.67525492779E+00  0.35078923503E+00  0.90007697512E+02  0.89999958319E+02 0.  0.
         12    1    1    2    0    0 -0.90227028053E+00 -0.67525492779E+00 -0.35078923503E+00  0.11803024884E+01  0.00000000000E+00 0. -1.
         11    1    3    3    0    0 -0.16829171161E+02 -0.10446218221E+02  0.12624591188E+02  0.23488822448E+02  0.51100000000E-03 0. -1.
        -11    1    3    3    0    0 -0.24947221777E+01 -0.13069768840E+02  0.18281229047E+02  0.22610745941E+02  0.51100000000E-03 0.  1.
         12    1    3    3    0    0  0.20226163619E+02  0.24191241988E+02 -0.30555031000E+02  0.43908129123E+02  0.00000000000E+00 0. -1.
</event>
<event>
 7    1  0.2569312E-015  0.9000776E+02  0.7816164E-02  0.1186339E+00
        -11   -1    0    0    0    0  0.00000000000E+00  0.00000000000E+00  0.45593999997E+02  0.45594000000E+02  0.51100000000E-03 0. -1.
         11   -1    0    0    0    0 -0.00000000000E+00 -0.00000000000E+00 -0.45593999997E+02  0.45594000000E+02  0.51100000000E-03 0.  1.
    9900012    2    1    2    0    0  0.35886369062E+00  0.36296912390E+00 -0.10641594595E+01  0.90007760580E+02  0.90000022220E+02 0.  0.
         12    1    1    2    0    0 -0.35886369062E+00 -0.36296912390E+00  0.10641594595E+01  0.11802394200E+01  0.00000000000E+00 0. -1.
         11    1    3    3    0    0 -0.22747208698E+02  0.23220323529E+02 -0.17247958374E+02  0.36798247196E+02  0.51100000000E-03 0. -1.
        -11    1    3    3    0    0 -0.93543479304E+01  0.18423805036E+01  0.62789101002E+00  0.95547076619E+01  0.51100000000E-03 0.  1.
        -12    1    3    3    0    0  0.32460420319E+02 -0.24699734909E+02  0.15555907904E+02  0.43654805722E+02  0.00000000000E+00 0.  1.
</event>
<event>
 7    1  0.2569312E-015  0.9000785E+02  0.7816164E-02  0.1186339E+00
        -11   -1    0    0    0    0  0.00000000000E+00  0.00000000000E+00  0.45593999997E+02  0.45594000000E+02  0.51100000000E-03 0. -1.
         11   -1    0    0    0    0 -0.00000000000E+00 -0.00000000000E+00 -0.45593999997E+02  0.45594000000E+02  0.51100000000E-03 0.  1.
    9900012    2    1    2    0    0  0.45828304085E+00  0.82256900737E+00  0.71141555980E+00  0.90007849494E+02  0.90000112308E+02 0.  0.
         12    1    1    2    0    0 -0.45828304085E+00 -0.82256900737E+00 -0.71141555980E+00  0.11801505057E+01  0.00000000000E+00 0. -1.
         11    1    3    3    0    0 -0.20113057186E+02  0.26164412725E+02  0.12580438595E+02  0.35318253044E+02  0.51100000000E-03 0. -1.
        -11    1    3    3    0    0 -0.10232840901E+02 -0.42415907263E+01  0.67450126684E+01  0.12969090984E+02  0.51100000000E-03 0.  1.
        -12    1    3    3    0    0  0.30804181127E+02 -0.21100252991E+02 -0.18614035703E+02  0.41720505466E+02  0.00000000000E+00 0.  1.
</event>
<event>
 7    1  0.2569312E-015  0.9000778E+02  0.7816164E-02  0.1186339E+00
        -11   -1    0    0    0    0  0.00000000000E+00  0.00000000000E+00  0.45593999997E+02  0.45594000000E+02  0.51100000000E-03 0. -1.
         11   -1    0    0    0    0 -0.00000000000E+00 -0.00000000000E+00 -0.45593999997E+02  0.45594000000E+02  0.51100000000E-03 0.  1.
    9900012    2    1    2    0    0 -0.81083451705E+00  0.60975042201E+00 -0.60305546831E+00  0.90007777949E+02  0.90000039818E+02 0.  0.
         12    1    1    2    0    0  0.81083451705E+00 -0.60975042201E+00  0.60305546831E+00  0.11802220507E+01  0.00000000000E+00 0. -1.
         11    1    3    3    0    0 -0.88456828093E+01 -0.12575709188E+02  0.33375373838E+02  0.36746566439E+02  0.51100000000E-03 0. -1.
        -11    1    3    3    0    0 -0.33511762560E+01  0.10295404506E+01  0.76551297005E+01  0.84196999253E+01  0.51100000000E-03 0.  1.
        -12    1    3    3    0    0  0.11386024548E+02  0.12155919159E+02 -0.41633559007E+02  0.44841511585E+02  0.00000000000E+00 0.  1.
</event>
<event>
 7    1  0.2569312E-015  0.9000771E+02  0.7816164E-02  0.1186339E+00
        -11   -1    0    0    0    0  0.00000000000E+00  0.00000000000E+00  0.45593999997E+02  0.45594000000E+02  0.51100000000E-03 0. -1.
         11   -1    0    0    0    0 -0.00000000000E+00 -0.00000000000E+00 -0.45593999997E+02  0.45594000000E+02  0.51100000000E-03 0.  1.
    9900012    2    1    2    0    0  0.57200502690E+00  0.34424833097E+00 -0.97333442475E+00  0.90007713354E+02  0.89999974370E+02 0.  0.
         12    1    1    2    0    0 -0.57200502690E+00 -0.34424833097E+00  0.97333442475E+00  0.11802866459E+01  0.00000000000E+00 0. -1.
         11    1    3    3    0    0 -0.58882795677E+01  0.50650416889E+01 -0.26927853192E+01  0.82205581693E+01  0.51100000000E-03 0. -1.
        -11    1    3    3    0    0  0.23728521423E+02  0.10824297971E+02  0.33477267248E+02  0.42437431334E+02  0.51100000000E-03 0.  1.
         12    1    3    3    0    0 -0.17268236829E+02 -0.15545091329E+02 -0.31757816354E+02  0.39349723851E+02  0.00000000000E+00 0. -1.
</event>
<event>
 7    1  0.2569312E-015  0.9000762E+02  0.7816164E-02  0.1186339E+00
        -11   -1    0    0    0    0  0.00000000000E+00  0.00000000000E+00  0.45593999997E+02  0.45594000000E+02  0.51100000000E-03 0.  1.
         11   -1    0    0    0    0 -0.00000000000E+00 -0.00000000000E+00 -0.45593999997E+02  0.45594000000E+02  0.51100000000E-03 0. -1.
    9900012    2    1    2    0    0  0.44706162022E-01  0.87052733672E+00  0.79591929476E+00  0.90007617008E+02  0.89999876752E+02 0.  0.
         12    1    1    2    0    0 -0.44706162022E-01 -0.87052733672E+00 -0.79591929476E+00  0.11803829924E+01  0.00000000000E+00 0. -1.
         11    1    3    3    0    0  0.25125644408E+02 -0.13203775618E+02 -0.23005390141E+02  0.36536087274E+02  0.51100000000E-03 0. -1.
        -11    1    3    3    0    0  0.95234497794E+01 -0.45063080113E+00  0.10674405379E+01  0.95936746548E+01  0.51100000000E-03 0.  1.
        -12    1    3    3    0    0 -0.34604388026E+02  0.14524933756E+02  0.22733868898E+02  0.43877855079E+02  0.00000000000E+00 0.  1.
</event>
<event>
 7    1  0.2569312E-015  0.9000772E+02  0.7816164E-02  0.1186339E+00
        -11   -1    0    0    0    0  0.00000000000E+00  0.00000000000E+00  0.45593999997E+02  0.45594000000E+02  0.51100000000E-03 0.  1.
         11   -1    0    0    0    0 -0.00000000000E+00 -0.00000000000E+00 -0.45593999997E+02  0.45594000000E+02  0.51100000000E-03 0. -1.
    9900012    2    1    2    0    0  0.14755435667E+00 -0.82307425246E+00  0.83296404732E+00  0.90007723500E+02  0.89999984650E+02 0.  0.
         12    1    1    2    0    0 -0.14755435667E+00  0.82307425246E+00 -0.83296404732E+00  0.11802765004E+01  0.00000000000E+00 0. -1.
         11    1    3    3    0    0 -0.40776365024E+01  0.50977908267E+01 -0.43838937733E+01  0.78634035656E+01  0.51100000000E-03 0. -1.
        -11    1    3    3    0    0 -0.30560503052E+02 -0.16896650677E+02  0.22745584543E+02  0.41674965715E+02  0.51100000000E-03 0.  1.
         12    1    3    3    0    0  0.34785693911E+02  0.10975785598E+02 -0.17528726723E+02  0.40469354219E+02  0.00000000000E+00 0. -1.
</event>
<event>
 7    1  0.2569312E-015  0.9000778E+02  0.7816164E-02  0.1186339E+00
        -11   -1    0    0    0    0  0.00000000000E+00  0.00000000000E+00  0.45593999997E+02  0.45594000000E+02  0.51100000000E-03 0.  1.
         11   -1    0    0    0    0 -0.00000000000E+00 -0.00000000000E+00 -0.45593999997E+02  0.45594000000E+02  0.51100000000E-03 0. -1.
    9900012    2    1    2    0    0 -0.63592256843E+00  0.99276685078E+00 -0.54177762419E-01  0.90007780206E+02  0.90000042104E+02 0.  0.
         12    1    1    2    0    0  0.63592256843E+00 -0.99276685078E+00  0.54177762419E-01  0.11802197944E+01  0.00000000000E+00 0. -1.
         11    1    3    3    0    0 -0.76792603716E+01  0.73063080054E+01 -0.41407255855E+01  0.11379753300E+02  0.51100000000E-03 0. -1.
        -11    1    3    3    0    0  0.34549995060E+02  0.20302402622E+02 -0.51434766284E+00  0.40076854475E+02  0.51100000000E-03 0.  1.
         12    1    3    3    0    0 -0.27506657257E+02 -0.26615943776E+02  0.46008954860E+01  0.38551172431E+02  0.00000000000E+00 0. -1.
</event>
<event>
 7    1  0.2569312E-015  0.9000750E+02  0.7816164E-02  0.1186340E+00
        -11   -1    0    0    0    0  0.00000000000E+00  0.00000000000E+00  0.45593999997E+02  0.45594000000E+02  0.51100000000E-03 0. -1.
         11   -1    0    0    0    0 -0.00000000000E+00 -0.00000000000E+00 -0.45593999997E+02  0.45594000000E+02  0.51100000000E-03 0.  1.
    9900012    2    1    2    0    0 -0.97791255019E+00  0.40567529541E+00 -0.52221278104E+00  0.90007495197E+02  0.89999753333E+02 0.  0.
         12    1    1    2    0    0  0.97791255019E+00 -0.40567529541E+00  0.52221278104E+00  0.11805048030E+01  0.00000000000E+00 0. -1.
         11    1    3    3    0    0 -0.61406839052E+00  0.10367588016E+02  0.45377033916E+01  0.11333786374E+02  0.51100000000E-03 0. -1.
        -11    1    3    3    0    0 -0.21202720099E+02  0.26757712786E+02 -0.11371334918E+02  0.35983854591E+02  0.51100000000E-03 0.  1.
         12    1    3    3    0    0  0.20838875940E+02 -0.36719625506E+02  0.63114187450E+01  0.42689854232E+02  0.00000000000E+00 0. -1.
</event>
<event>
 7    1  0.2569312E-015  0.9000776E+02  0.7816164E-02  0.1186339E+00
        -11   -1    0    0    0    0  0.00000000000E+00  0.00000000000E+00  0.45593999997E+02  0.45594000000E+02  0.51100000000E-03 0.  1.
         11   -1    0    0    0    0 -0.00000000000E+00 -0.00000000000E+00 -0.45593999997E+02  0.45594000000E+02  0.51100000000E-03 0. -1.
    9900012    2    1    2    0    0 -0.61644627097E+00  0.10015057778E+01  0.99758733572E-01  0.90007757808E+02  0.90000019411E+02 0.  0.
         12    1    1    2    0    0  0.61644627097E+00 -0.10015057778E+01 -0.99758733572E-01  0.11802421925E+01  0.00000000000E+00 0. -1.
         11    1    3    3    0    0 -0.10728240497E+02 -0.30163165498E+02 -0.21917218908E+02  0.38797888885E+02  0.51100000000E-03 0. -1.
        -11    1    3    3    0    0 -0.99794238760E+01  0.10847543274E+01  0.41020447731E+01  0.10844001311E+02  0.51100000000E-03 0.  1.
        -12    1    3    3    0    0  0.20091218102E+02  0.30079916948E+02  0.17914932868E+02  0.40365867612E+02  0.00000000000E+00 0.  1.
</event>
<event>
 7    1  0.2569312E-015  0.9000785E+02  0.7816164E-02  0.1186339E+00
        -11   -1    0    0    0    0  0.00000000000E+00  0.00000000000E+00  0.45593999997E+02  0.45594000000E+02  0.51100000000E-03 0.  1.
         11   -1    0    0    0    0 -0.00000000000E+00 -0.00000000000E+00 -0.45593999997E+02  0.45594000000E+02  0.51100000000E-03 0. -1.
    9900012    2    1    2    0    0  0.91502584480E+00  0.40831243730E+00  0.62350958576E+00  0.90007849354E+02  0.90000112166E+02 0.  0.
         12    1    1    2    0    0 -0.91502584480E+00 -0.40831243730E+00 -0.62350958576E+00  0.11801506457E+01  0.00000000000E+00 0. -1.
         11    1    3    3    0    0  0.33560940331E+02  0.76381372700E+01 -0.21033640487E+02  0.40337227089E+02  0.51100000000E-03 0. -1.
        -11    1    3    3    0    0  0.34208803511E+01 -0.25473928001E+00  0.10849238012E+02  0.11378632615E+02  0.51100000000E-03 0.  1.
        -12    1    3    3    0    0 -0.36066794837E+02 -0.69750855527E+01  0.10807912060E+02  0.38291989650E+02  0.00000000000E+00 0.  1.
</event>
<event>
 7    1  0.2569312E-015  0.9000776E+02  0.7816164E-02  0.1186339E+00
        -11   -1    0    0    0    0  0.00000000000E+00  0.00000000000E+00  0.45593999997E+02  0.45594000000E+02  0.51100000000E-03 0.  1.
         11   -1    0    0    0    0 -0.00000000000E+00 -0.00000000000E+00 -0.45593999997E+02  0.45594000000E+02  0.51100000000E-03 0. -1.
    9900012    2    1    2    0    0 -0.10305855056E+01  0.76441806339E-01  0.57010673449E+00  0.90007757854E+02  0.90000019458E+02 0.  0.
         12    1    1    2    0    0  0.10305855056E+01 -0.76441806339E-01 -0.57010673449E+00  0.11802421458E+01  0.00000000000E+00 0. -1.
         11    1    3    3    0    0 -0.30318464315E+01  0.25403721404E+02 -0.24454094069E+02  0.35391296543E+02  0.51100000000E-03 0. -1.
        -11    1    3    3    0    0  0.76226219649E+01  0.92510468524E+01  0.77824331347E+00  0.12012156193E+02  0.51100000000E-03 0.  1.
        -12    1    3    3    0    0 -0.56213610390E+01 -0.34578326451E+02  0.24245957490E+02  0.42604305119E+02  0.00000000000E+00 0.  1.
</event>
<event>
 7    1  0.2569312E-015  0.9000773E+02  0.7816164E-02  0.1186339E+00
        -11   -1    0    0    0    0  0.00000000000E+00  0.00000000000E+00  0.45593999997E+02  0.45594000000E+02  0.51100000000E-03 0. -1.
         11   -1    0    0    0    0 -0.00000000000E+00 -0.00000000000E+00 -0.45593999997E+02  0.45594000000E+02  0.51100000000E-03 0.  1.
    9900012    2    1    2    0    0  0.47580735401E+00  0.88798114799E+00 -0.61492855326E+00  0.90007728725E+02  0.89999989944E+02 0.  0.
         12    1    1    2    0    0 -0.47580735401E+00 -0.88798114799E+00  0.61492855326E+00  0.11802712751E+01  0.00000000000E+00 0. -1.
         11    1    3    3    0    0 -0.12402218477E+02  0.40438093266E+02 -0.38548586743E+01  0.42472512827E+02  0.51100000000E-03 0. -1.
        -11    1    3    3    0    0  0.50157195146E+01 -0.75435817446E+00  0.59976783490E+01  0.78548484609E+01  0.51100000000E-03 0.  1.
        -12    1    3    3    0    0  0.78623063168E+01 -0.38795753944E+02 -0.27577482279E+01  0.39680367437E+02  0.00000000000E+00 0.  1.
</event>
<event>
 7    1  0.2569312E-015  0.9000765E+02  0.7816164E-02  0.1186339E+00
        -11   -1    0    0    0    0  0.00000000000E+00  0.00000000000E+00  0.45593999997E+02  0.45594000000E+02  0.51100000000E-03 0. -1.
         11   -1    0    0    0    0 -0.00000000000E+00 -0.00000000000E+00 -0.45593999997E+02  0.45594000000E+02  0.51100000000E-03 0.  1.
    9900012    2    1    2    0    0 -0.43400674532E+00 -0.91560739435E+00 -0.60541637669E+00  0.90007649313E+02  0.89999909484E+02 0.  0.
         12    1    1    2    0    0  0.43400674532E+00  0.91560739435E+00  0.60541637669E+00  0.11803506872E+01  0.00000000000E+00 0. -1.
         11    1    3    3    0    0  0.15180746112E+02 -0.29205862293E+02  0.14232751329E+02  0.35860962835E+02  0.51100000000E-03 0. -1.
        -11    1    3    3    0    0  0.25043231915E+01 -0.53268715889E+01  0.77848028182E+01  0.97596286175E+01  0.51100000000E-03 0.  1.
        -12    1    3    3    0    0 -0.18119076049E+02  0.33617126488E+02 -0.22622970524E+02  0.44387057860E+02  0.00000000000E+00 0.  1.
</event>
<event>
 7    1  0.2569312E-015  0.9000778E+02  0.7816164E-02  0.1186339E+00
        -11   -1    0    0    0    0  0.00000000000E+00  0.00000000000E+00  0.45593999997E+02  0.45594000000E+02  0.51100000000E-03 0.  1.
         11   -1    0    0    0    0 -0.00000000000E+00 -0.00000000000E+00 -0.45593999997E+02  0.45594000000E+02  0.51100000000E-03 0. -1.
    9900012    2    1    2    0    0  0.26461918919E+00 -0.10038292985E+01  0.56144569686E+00  0.90007780594E+02  0.90000042498E+02 0.  0.
         12    1    1    2    0    0 -0.26461918919E+00  0.10038292985E+01 -0.56144569686E+00  0.11802194060E+01  0.00000000000E+00 0. -1.
         11    1    3    3    0    0 -0.41780508392E+02 -0.38663203874E+01  0.90277927543E+01  0.42919230621E+02  0.51100000000E-03 0. -1.
        -11    1    3    3    0    0  0.46496026398E+01  0.82812072658E+00 -0.84011993331E+01  0.96376729111E+01  0.51100000000E-03 0.  1.
        -12    1    3    3    0    0  0.37395524942E+02  0.20343703624E+01 -0.65147724348E-01  0.37450877061E+02  0.00000000000E+00 0.  1.
</event>
<event>
 7    1  0.2569312E-015  0.9000794E+02  0.7816164E-02  0.1186339E+00
        -11   -1    0    0    0    0  0.00000000000E+00  0.00000000000E+00  0.45593999997E+02  0.45594000000E+02  0.51100000000E-03 0.  1.
         11   -1    0    0    0    0 -0.00000000000E+00 -0.00000000000E+00 -0.45593999997E+02  0.45594000000E+02  0.51100000000E-03 0. -1.
    9900012    2    1    2    0    0  0.10179884471E+01 -0.58936995802E+00  0.94220007938E-01  0.90007942868E+02  0.90000206913E+02 0.  0.
         12    1    1    2    0    0 -0.10179884471E+01  0.58936995802E+00 -0.94220007938E-01  0.11800571324E+01  0.00000000000E+00 0. -1.
         11    1    3    3    0    0  0.43136311062E+01 -0.11326741554E+02 -0.47315172934E+01  0.13011139217E+02  0.51100000000E-03 0. -1.
        -11    1    3    3    0    0  0.16214452798E+02  0.18035009473E+02  0.33622146860E+02  0.41456227589E+02  0.51100000000E-03 0.  1.
         12    1    3    3    0    0 -0.19510095457E+02 -0.72976378765E+01 -0.28796409558E+02  0.35540576062E+02  0.00000000000E+00 0. -1.
</event>
<event>
 7    1  0.2569312E-015  0.9000774E+02  0.7816164E-02  0.1186339E+00
        -11   -1    0    0    0    0  0.00000000000E+00  0.00000000000E+00  0.45593999997E+02  0.45594000000E+02  0.51100000000E-03 0.  1.
         11   -1    0    0    0    0 -0.00000000000E+00 -0.00000000000E+00 -0.45593999997E+02  0.45594000000E+02  0.51100000000E-03 0. -1.
    9900012    2    1    2    0    0 -0.23735192141E-01 -0.11623014877E+01  0.20372830903E+00  0.90007740142E+02  0.90000001512E+02 0.  0.
         12    1    1    2    0    0  0.23735192141E-01  0.11623014877E+01 -0.20372830903E+00  0.11802598576E+01  0.00000000000E+00 0. -1.
         11    1    3    3    0    0  0.39647694329E+02 -0.15465190993E+01 -0.17523657349E+01  0.39716522668E+02  0.51100000000E-03 0. -1.
        -11    1    3    3    0    0  0.51802144551E+01 -0.78344436086E+00  0.13917488114E+01  0.54208276012E+01  0.51100000000E-03 0.  1.
        -12    1    3    3    0    0 -0.44851643976E+02  0.11676619726E+01  0.56434523254E+00  0.44870389873E+02  0.00000000000E+00 0.  1.
</event>
<event>
 7    1  0.2569312E-015  0.9000775E+02  0.7816164E-02  0.1186339E+00
        -11   -1    0    0    0    0  0.00000000000E+00  0.00000000000E+00  0.45593999997E+02  0.45594000000E+02  0.51100000000E-03 0. -1.
         11   -1    0    0    0    0 -0.00000000000E+00 -0.00000000000E+00 -0.45593999997E+02  0.45594000000E+02  0.51100000000E-03 0.  1.
    9900012    2    1    2    0    0  0.89316985687E+00  0.76903119839E+00 -0.61810134251E-01  0.90007753471E+02  0.90000015016E+02 0.  0.
         12    1    1    2    0    0 -0.89316985687E+00 -0.76903119839E+00  0.61810134251E-01  0.11802465293E+01  0.00000000000E+00 0. -1.
         11    1    3    3    0    0 -0.38699528435E+02 -0.15900644426E+02  0.26612737002E+01  0.41923339230E+02  0.51100000000E-03 0. -1.
        -11    1    3    3    0    0  0.53234532513E+01 -0.45516913710E+01  0.25056761895E+01  0.74387809676E+01  0.51100000000E-03 0.  1.
        -12    1    3    3    0    0  0.34269245040E+02  0.21221366996E+02 -0.52287600239E+01  0.40645633273E+02  0.00000000000E+00 0.  1.
</event>
<event>
 7    1  0.2569312E-015  0.9000832E+02  0.7816164E-02  0.1186338E+00
        -11   -1    0    0    0    0  0.00000000000E+00  0.00000000000E+00  0.45593999997E+02  0.45594000000E+02  0.51100000000E-03 0.  1.
         11   -1    0    0    0    0 -0.00000000000E+00 -0.00000000000E+00 -0.45593999997E+02  0.45594000000E+02  0.51100000000E-03 0. -1.
    9900012    2    1    2    0    0  0.43143343484E+00  0.95108302035E+00  0.54858711940E+00  0.90008321422E+02  0.90000590463E+02 0.  0.
         12    1    1    2    0    0 -0.43143343484E+00 -0.95108302035E+00 -0.54858711940E+00  0.11796785782E+01  0.00000000000E+00 0. -1.
         11    1    3    3    0    0  0.37522115530E+02 -0.12566394375E+02  0.98581951417E+01  0.40779988145E+02  0.51100000000E-03 0. -1.
        -11    1    3    3    0    0  0.27782981418E+01  0.59599133619E+01 -0.53114682292E+01  0.84528813346E+01  0.51100000000E-03 0.  1.
        -12    1    3    3    0    0 -0.39868980237E+02  0.75575640330E+01 -0.39981397932E+01  0.40775451942E+02  0.00000000000E+00 0.  1.
</event>
<event>
 7    1  0.2569312E-015  0.9000782E+02  0.7816164E-02  0.1186339E+00
        -11   -1    0    0    0    0  0.00000000000E+00  0.00000000000E+00  0.45593999997E+02  0.45594000000E+02  0.51100000000E-03 0.  1.
         11   -1    0    0    0    0 -0.00000000000E+00 -0.00000000000E+00 -0.45593999997E+02  0.45594000000E+02  0.51100000000E-03 0. -1.
    9900012    2    1    2    0    0 -0.85030994071E+00 -0.56641115008E+00  0.59073684577E+00  0.90007822637E+02  0.90000085096E+02 0.  0.
         12    1    1    2    0    0  0.85030994071E+00  0.56641115008E+00 -0.59073684577E+00  0.11801773626E+01  0.00000000000E+00 0. -1.
         11    1    3    3    0    0  0.73647384361E+01 -0.38529569371E+02 -0.68532546381E+01  0.39821278076E+02  0.51100000000E-03 0. -1.
        -11    1    3    3    0    0 -0.68247335240E+01 -0.19195046540E+01 -0.46605939572E+01  0.84842573090E+01  0.51100000000E-03 0.  1.
        -12    1    3    3    0    0 -0.13903148528E+01  0.39882662875E+02  0.12104585441E+02  0.41702287253E+02  0.00000000000E+00 0.  1.
</event>
<event>
 7    1  0.2569312E-015  0.9000766E+02  0.7816164E-02  0.1186339E+00
        -11   -1    0    0    0    0  0.00000000000E+00  0.00000000000E+00  0.45593999997E+02  0.45594000000E+02  0.51100000000E-03 0.  1.
         11   -1    0    0    0    0 -0.00000000000E+00 -0.00000000000E+00 -0.45593999997E+02  0.45594000000E+02  0.51100000000E-03 0. -1.
    9900012    2    1    2    0    0 -0.42968422080E+00  0.70416778138E+00  0.84422385654E+00  0.90007663305E+02  0.89999923660E+02 0.  0.
         12    1    1    2    0    0  0.42968422080E+00 -0.70416778138E+00 -0.84422385654E+00  0.11803366951E+01  0.00000000000E+00 0. -1.
         11    1    3    3    0    0  0.22213906827E+02 -0.18255407083E+02 -0.20769953748E+02  0.35469825531E+02  0.51100000000E-03 0. -1.
        -11    1    3    3    0    0  0.27562787421E+01  0.78826674352E+01 -0.96496968104E+01  0.12761276080E+02  0.51100000000E-03 0.  1.
        -12    1    3    3    0    0 -0.25399869789E+02  0.11076907429E+02  0.31263874415E+02  0.41776561694E+02  0.00000000000E+00 0.  1.
</event>
<event>
 7    1  0.2858103E-015  0.9000776E+02  0.7816164E-02  0.1186339E+00
        -11   -1    0    0    0    0  0.00000000000E+00  0.00000000000E+00  0.45593999997E+02  0.45594000000E+02  0.51100000000E-03 0. -1.
         11   -1    0    0    0    0 -0.00000000000E+00 -0.00000000000E+00 -0.45593999997E+02  0.45594000000E+02  0.51100000000E-03 0.  1.
    9900012    2    1    2    0    0 -0.21502762895E+00 -0.25322930377E+00 -0.11325238525E+01  0.90007757551E+02  0.90000019151E+02 0.  0.
         12    1    1    2    0    0  0.21502762895E+00  0.25322930377E+00  0.11325238525E+01  0.11802424488E+01  0.00000000000E+00 0. -1.
         11    1    3    3    0    0  0.14490311245E+02  0.34294669220E+02  0.75095755579E+01  0.37980089286E+02  0.51100000000E-03 0. -1.
        -11    1    3    3    0    0 -0.24618481202E+01  0.58844883146E+01 -0.73920078392E+01  0.97636918759E+01  0.51100000000E-03 0.  1.
        -12    1    3    3    0    0 -0.12243490754E+02 -0.40432386838E+02 -0.12500915711E+01  0.42263976389E+02  0.00000000000E+00 0.  1.
</event>
<event>
 7    1  0.2569312E-015  0.9000769E+02  0.7816164E-02  0.1186339E+00
        -11   -1    0    0    0    0  0.00000000000E+00  0.00000000000E+00  0.45593999997E+02  0.45594000000E+02  0.51100000000E-03 0.  1.
         11   -1    0    0    0    0 -0.00000000000E+00 -0.00000000000E+00 -0.45593999997E+02  0.45594000000E+02  0.51100000000E-03 0. -1.
    9900012    2    1    2    0    0 -0.60274333176E+00  0.52760503051E+00  0.86686825370E+00  0.90007691921E+02  0.89999952654E+02 0.  0.
         12    1    1    2    0    0  0.60274333176E+00 -0.52760503051E+00 -0.86686825370E+00  0.11803080791E+01  0.00000000000E+00 0. -1.
         11    1    3    3    0    0  0.44669845291E+01  0.89144366025E+01  0.10956326721E+00  0.99716164735E+01  0.51100000000E-03 0. -1.
        -11    1    3    3    0    0  0.37231128982E+02 -0.54088106522E+01  0.80134080825E+00  0.37630497543E+02  0.51100000000E-03 0.  1.
         12    1    3    3    0    0 -0.42300856843E+02 -0.29780209198E+01 -0.44035821755E-01  0.42405577905E+02  0.00000000000E+00 0. -1.
</event>
<event>
 7    1  0.2569312E-015  0.9000827E+02  0.7816164E-02  0.1186338E+00
        -11   -1    0    0    0    0  0.00000000000E+00  0.00000000000E+00  0.45593999997E+02  0.45594000000E+02  0.51100000000E-03 0.  1.
         11   -1    0    0    0    0 -0.00000000000E+00 -0.00000000000E+00 -0.45593999997E+02  0.45594000000E+02  0.51100000000E-03 0. -1.
    9900012    2    1    2    0    0  0.10942470196E+01  0.41227709274E-01 -0.43897224395E+00  0.90008265752E+02  0.90000534059E+02 0.  0.
         12    1    1    2    0    0 -0.10942470196E+01 -0.41227709274E-01  0.43897224395E+00  0.11797342476E+01  0.00000000000E+00 0. -1.
         11    1    3    3    0    0 -0.61841612960E+01  0.83374499248E+01  0.50735735582E+01  0.11554136536E+02  0.51100000000E-03 0. -1.
        -11    1    3    3    0    0  0.14536614337E+02  0.31203273281E+02  0.92857497222E+01  0.35653647331E+02  0.51100000000E-03 0.  1.
         12    1    3    3    0    0 -0.72582060212E+01 -0.39499495497E+02 -0.14798295524E+02  0.42800481885E+02  0.00000000000E+00 0. -1.
</event>
<event>
 7    1  0.2569312E-015  0.9000775E+02  0.7816164E-02  0.1186339E+00
        -11   -1    0    0    0    0  0.00000000000E+00  0.00000000000E+00  0.45593999997E+02  0.45594000000E+02  0.51100000000E-03 0. -1.
         11   -1    0    0    0    0 -0.00000000000E+00 -0.00000000000E+00 -0.45593999997E+02  0.45594000000E+02  0.51100000000E-03 0.  1.
    9900012    2    1    2    0    0  0.32820800031E+00 -0.70785653298E+00 -0.88555980106E+00  0.90007746839E+02  0.90000008297E+02 0.  0.
         12    1    1    2    0    0 -0.32820800031E+00  0.70785653298E+00  0.88555980106E+00  0.11802531610E+01  0.00000000000E+00 0. -1.
         11    1    3    3    0    0 -0.40694085949E+01  0.57082202912E+01  0.40839498196E+01  0.81131073946E+01  0.51100000000E-03 0. -1.
        -11    1    3    3    0    0  0.15816291084E+02 -0.35919633663E+02  0.17619973927E+02  0.43021374079E+02  0.51100000000E-03 0.  1.
         12    1    3    3    0    0 -0.11418674489E+02  0.29503556839E+02 -0.22589483548E+02  0.38873265366E+02  0.00000000000E+00 0. -1.
</event>
<event>
 7    1  0.2569312E-015  0.9000760E+02  0.7816164E-02  0.1186339E+00
        -11   -1    0    0    0    0  0.00000000000E+00  0.00000000000E+00  0.45593999997E+02  0.45594000000E+02  0.51100000000E-03 0. -1.
         11   -1    0    0    0    0 -0.00000000000E+00 -0.00000000000E+00 -0.45593999997E+02  0.45594000000E+02  0.51100000000E-03 0.  1.
    9900012    2    1    2    0    0  0.83454019783E+00  0.60084528561E+00  0.57954393046E+00  0.90007600251E+02  0.89999859775E+02 0.  0.
         12    1    1    2    0    0 -0.83454019783E+00 -0.60084528561E+00 -0.57954393046E+00  0.11803997485E+01  0.00000000000E+00 0. -1.
         11    1    3    3    0    0 -0.18766064290E+01  0.48398492035E+01 -0.71890574351E+01  0.88672622081E+01  0.51100000000E-03 0. -1.
        -11    1    3    3    0    0  0.26776833586E+02 -0.17308257176E+02 -0.23475082720E+02  0.39593611761E+02  0.51100000000E-03 0.  1.
         12    1    3    3    0    0 -0.24065686959E+02  0.13069253258E+02  0.31243684085E+02  0.41546726282E+02  0.00000000000E+00 0. -1.
</event>
<event>
 7    1  0.2569312E-015  0.9000766E+02  0.7816164E-02  0.1186339E+00
        -11   -1    0    0    0    0  0.00000000000E+00  0.00000000000E+00  0.45593999997E+02  0.45594000000E+02  0.51100000000E-03 0.  1.
         11   -1    0    0    0    0 -0.00000000000E+00 -0.00000000000E+00 -0.45593999997E+02  0.45594000000E+02  0.51100000000E-03 0. -1.
    9900012    2    1    2    0    0  0.87550152207E-01 -0.11693883000E+01 -0.13442391641E+00  0.90007659450E+02  0.89999919754E+02 0.  0.
         12    1    1    2    0    0 -0.87550152207E-01  0.11693883000E+01  0.13442391641E+00  0.11803405503E+01  0.00000000000E+00 0. -1.
         11    1    3    3    0    0 -0.54561050258E+01  0.54132331803E+01 -0.67989831274E+01  0.10261498299E+02  0.51100000000E-03 0. -1.
        -11    1    3    3    0    0 -0.12426345557E+02 -0.27724330295E+02 -0.23759893456E+02  0.38569224668E+02  0.51100000000E-03 0.  1.
         12    1    3    3    0    0  0.17970000735E+02  0.21141708814E+02  0.30424452667E+02  0.41176936483E+02  0.00000000000E+00 0. -1.
</event>
<event>
 7    1  0.2569312E-015  0.9000767E+02  0.7816164E-02  0.1186339E+00
        -11   -1    0    0    0    0  0.00000000000E+00  0.00000000000E+00  0.45593999997E+02  0.45594000000E+02  0.51100000000E-03 0. -1.
         11   -1    0    0    0    0 -0.00000000000E+00 -0.00000000000E+00 -0.45593999997E+02  0.45594000000E+02  0.51100000000E-03 0.  1.
    9900012    2    1    2    0    0 -0.28737758465E+00 -0.69268402436E+00 -0.91147338236E+00  0.90007669216E+02  0.89999929649E+02 0.  0.
         12    1    1    2    0    0  0.28737758465E+00  0.69268402436E+00  0.91147338236E+00  0.11803307844E+01  0.00000000000E+00 0. -1.
         11    1    3    3    0    0 -0.99602170480E+01 -0.18288079109E+01 -0.33165009164E+01  0.10655967371E+02  0.51100000000E-03 0. -1.
        -11    1    3    3    0    0 -0.29716494528E+02  0.35002518476E+01  0.20161373265E+02  0.36080504184E+02  0.51100000000E-03 0.  1.
         12    1    3    3    0    0  0.39389333991E+02 -0.23641279610E+01 -0.17756345731E+02  0.43271197661E+02  0.00000000000E+00 0. -1.
</event>
<event>
 7    1  0.2851828E-015  0.9000781E+02  0.7816164E-02  0.1186339E+00
        -11   -1    0    0    0    0  0.00000000000E+00  0.00000000000E+00  0.45593999997E+02  0.45594000000E+02  0.51100000000E-03 0. -1.
         11   -1    0    0    0    0 -0.00000000000E+00 -0.00000000000E+00 -0.45593999997E+02  0.45594000000E+02  0.51100000000E-03 0.  1.
    9900012    2    1    2    0    0  0.76040826409E+00 -0.51539059639E+00 -0.74093827569E+00  0.90007814539E+02  0.90000076890E+02 0.  0.
         12    1    1    2    0    0 -0.76040826409E+00  0.51539059639E+00  0.74093827569E+00  0.11801854614E+01  0.00000000000E+00 0. -1.
         11    1    3    3    0    0  0.72504988432E+01 -0.83234632574E+01  0.33364570505E+02  0.35143197625E+02  0.51100000000E-03 0. -1.
        -11    1    3    3    0    0  0.45476833575E+01 -0.30351603805E+00  0.87539827353E+01  0.98694356422E+01  0.51100000000E-03 0.  1.
        -12    1    3    3    0    0 -0.11037773937E+02  0.81115886991E+01 -0.42859491516E+02  0.44995181272E+02  0.00000000000E+00 0.  1.
</event>
<event>
 7    1  0.2569312E-015  0.9000769E+02  0.7816164E-02  0.1186339E+00
        -11   -1    0    0    0    0  0.00000000000E+00  0.00000000000E+00  0.45593999997E+02  0.45594000000E+02  0.51100000000E-03 0.  1.
         11   -1    0    0    0    0 -0.00000000000E+00 -0.00000000000E+00 -0.45593999997E+02  0.45594000000E+02  0.51100000000E-03 0. -1.
    9900012    2    1    2    0    0  0.11166793322E+01 -0.10474126533E+00  0.36767967762E+00  0.90007689952E+02  0.89999950660E+02 0.  0.
         12    1    1    2    0    0 -0.11166793322E+01  0.10474126533E+00 -0.36767967762E+00  0.11803100478E+01  0.00000000000E+00 0. -1.
         11    1    3    3    0    0 -0.33320004033E+02  0.18001086840E+02 -0.14177700408E+02  0.40438459235E+02  0.51100000000E-03 0. -1.
        -11    1    3    3    0    0  0.36290888236E+01  0.67488144361E+01  0.97694346455E+00  0.77247136372E+01  0.51100000000E-03 0.  1.
        -12    1    3    3    0    0  0.30807594542E+02 -0.24854642542E+02  0.13568436621E+02  0.41844517080E+02  0.00000000000E+00 0.  1.
</event>
<event>
 7    1  0.2778255E-015  0.9000770E+02  0.7816164E-02  0.1186339E+00
        -11   -1    0    0    0    0  0.00000000000E+00  0.00000000000E+00  0.45593999997E+02  0.45594000000E+02  0.51100000000E-03 0.  1.
         11   -1    0    0    0    0 -0.00000000000E+00 -0.00000000000E+00 -0.45593999997E+02  0.45594000000E+02  0.51100000000E-03 0. -1.
    9900012    2    1    2    0    0  0.95004000955E-03  0.28160715694E+00  0.11462132416E+01  0.90007699916E+02  0.89999960755E+02 0.  0.
         12    1    1    2    0    0 -0.95004000955E-03 -0.28160715694E+00 -0.11462132416E+01  0.11803000842E+01  0.00000000000E+00 0. -1.
         11    1    3    3    0    0  0.41845145255E+00  0.13508966187E+01 -0.36731933306E+02  0.36759147813E+02  0.51100000000E-03 0. -1.
        -11    1    3    3    0    0  0.74196321956E+01 -0.38814733828E+01 -0.48769208458E+01  0.96902597869E+01  0.51100000000E-03 0.  1.
        -12    1    3    3    0    0 -0.78371336081E+01  0.28121839210E+01  0.42755067394E+02  0.43558292316E+02  0.00000000000E+00 0.  1.
</event>
<event>
 7    1  0.2569312E-015  0.9000754E+02  0.7816164E-02  0.1186339E+00
        -11   -1    0    0    0    0  0.00000000000E+00  0.00000000000E+00  0.45593999997E+02  0.45594000000E+02  0.51100000000E-03 0. -1.
         11   -1    0    0    0    0 -0.00000000000E+00 -0.00000000000E+00 -0.45593999997E+02  0.45594000000E+02  0.51100000000E-03 0.  1.
    9900012    2    1    2    0    0 -0.23286565705E+00 -0.71269579234E+00 -0.91176351852E+00  0.90007544825E+02  0.89999803616E+02 0.  0.
         12    1    1    2    0    0  0.23286565705E+00  0.71269579234E+00  0.91176351852E+00  0.11804551751E+01  0.00000000000E+00 0. -1.
         11    1    3    3    0    0  0.10281378363E+02  0.42099590905E+00 -0.42836515345E+01  0.11146014953E+02  0.51100000000E-03 0. -1.
        -11    1    3    3    0    0  0.62808288651E+01 -0.33005764200E+02 -0.16808547953E+02  0.37568025849E+02  0.51100000000E-03 0.  1.
         12    1    3    3    0    0 -0.16795072885E+02  0.31872072499E+02  0.20180435969E+02  0.41293504023E+02  0.00000000000E+00 0. -1.
</event>
<event>
 8    1  0.2569312E-015  0.9000773E+02  0.7816164E-02  0.1186339E+00
        -11   -1    0    0    0    0  0.00000000000E+00  0.00000000000E+00  0.45593999997E+02  0.45594000000E+02  0.51100000000E-03 0.  1.
         11   -1    0    0    0    0 -0.00000000000E+00 -0.00000000000E+00 -0.45593999997E+02  0.45594000000E+02  0.51100000000E-03 0. -1.
    9900012    2    1    2    0    0 -0.28919848078E+00 -0.89783645823E+00  0.70942427812E+00  0.90007733558E+02  0.89999994841E+02 0.  0.
         23    2    3    3    0    0 -0.22135015712E+02 -0.66630082600E+01  0.15572511103E+02  0.62963542198E+02  0.56458391267E+02 0.  0.
         12    1    1    2    0    0  0.28919848078E+00  0.89783645823E+00 -0.70942427812E+00  0.11802664417E+01  0.00000000000E+00 0. -1.
         11    1    4    4    0    0  0.97907809094E+01 -0.21188937060E+02 -0.25550784338E+01  0.23481032145E+02  0.51100000000E-03 0. -1.
        -11    1    4    4    0    0 -0.31925796621E+02  0.14525928800E+02  0.18127589536E+02  0.39482510053E+02  0.51100000000E-03 0.  1.
         12    1    3    3    0    0  0.21845817231E+02  0.57651718017E+01 -0.14863086824E+02  0.27044191361E+02  0.00000000000E+00 0. -1.
</event>
<event>
 7    1  0.2569312E-015  0.9000763E+02  0.7816164E-02  0.1186339E+00
        -11   -1    0    0    0    0  0.00000000000E+00  0.00000000000E+00  0.45593999997E+02  0.45594000000E+02  0.51100000000E-03 0.  1.
         11   -1    0    0    0    0 -0.00000000000E+00 -0.00000000000E+00 -0.45593999997E+02  0.45594000000E+02  0.51100000000E-03 0. -1.
    9900012    2    1    2    0    0 -0.15339494811E+00  0.70664565623E+00  0.93294362381E+00  0.90007634845E+02  0.89999894825E+02 0.  0.
         12    1    1    2    0    0  0.15339494811E+00 -0.70664565623E+00 -0.93294362381E+00  0.11803651549E+01  0.00000000000E+00 0. -1.
         11    1    3    3    0    0 -0.55295528911E+01 -0.63517518684E+01  0.36899883599E+01  0.91943853156E+01  0.51100000000E-03 0. -1.
        -11    1    3    3    0    0 -0.19325956765E+00  0.55164470893E+01  0.38631172303E+02  0.39023531510E+02  0.51100000000E-03 0.  1.
         12    1    3    3    0    0  0.55694175106E+01  0.15419504353E+01 -0.41388217039E+02  0.41789718020E+02  0.00000000000E+00 0. -1.
</event>
<event>
 7    1  0.2569312E-015  0.9000764E+02  0.7816164E-02  0.1186339E+00
        -11   -1    0    0    0    0  0.00000000000E+00  0.00000000000E+00  0.45593999997E+02  0.45594000000E+02  0.51100000000E-03 0. -1.
         11   -1    0    0    0    0 -0.00000000000E+00 -0.00000000000E+00 -0.45593999997E+02  0.45594000000E+02  0.51100000000E-03 0.  1.
    9900012    2    1    2    0    0 -0.87284091627E+00 -0.71136854712E+00 -0.35404234316E+00  0.90007643081E+02  0.89999903170E+02 0.  0.
         12    1    1    2    0    0  0.87284091627E+00  0.71136854712E+00  0.35404234316E+00  0.11803569188E+01  0.00000000000E+00 0. -1.
         11    1    3    3    0    0  0.51549762479E+01 -0.34628938332E+02  0.61939238383E+01  0.35554209918E+02  0.51100000000E-03 0. -1.
        -11    1    3    3    0    0 -0.78962478147E+00 -0.82195658854E+01  0.59650639127E+01  0.10186596997E+02  0.51100000000E-03 0.  1.
        -12    1    3    3    0    0 -0.52381923827E+01  0.42137135671E+02 -0.12513030094E+02  0.44266836166E+02  0.00000000000E+00 0.  1.
</event>
<event>
 7    1  0.2569312E-015  0.9000776E+02  0.7816164E-02  0.1186339E+00
        -11   -1    0    0    0    0  0.00000000000E+00  0.00000000000E+00  0.45593999997E+02  0.45594000000E+02  0.51100000000E-03 0.  1.
         11   -1    0    0    0    0 -0.00000000000E+00 -0.00000000000E+00 -0.45593999997E+02  0.45594000000E+02  0.51100000000E-03 0. -1.
    9900012    2    1    2    0    0  0.44022828302E-01 -0.11460064670E+01 -0.27876060214E+00  0.90007755828E+02  0.90000017405E+02 0.  0.
         12    1    1    2    0    0 -0.44022828302E-01  0.11460064670E+01  0.27876060214E+00  0.11802441718E+01  0.00000000000E+00 0. -1.
         11    1    3    3    0    0  0.75867108775E+01  0.44261152898E+01  0.60889840677E+01  0.10687581847E+02  0.51100000000E-03 0. -1.
        -11    1    3    3    0    0 -0.83354594703E+01 -0.16258706838E+02  0.33434267039E+02  0.38100861477E+02  0.51100000000E-03 0.  1.
         12    1    3    3    0    0  0.79277142106E+00  0.10686585081E+02 -0.39802011709E+02  0.41219312504E+02  0.00000000000E+00 0. -1.
</event>
<event>
 7    1  0.2569312E-015  0.9000781E+02  0.7816164E-02  0.1186339E+00
        -11   -1    0    0    0    0  0.00000000000E+00  0.00000000000E+00  0.45593999997E+02  0.45594000000E+02  0.51100000000E-03 0.  1.
         11   -1    0    0    0    0 -0.00000000000E+00 -0.00000000000E+00 -0.45593999997E+02  0.45594000000E+02  0.51100000000E-03 0. -1.
    9900012    2    1    2    0    0  0.61415911343E+00 -0.83851066532E+00  0.55906970518E+00  0.90007809131E+02  0.90000071411E+02 0.  0.
         12    1    1    2    0    0 -0.61415911343E+00  0.83851066532E+00 -0.55906970518E+00  0.11801908692E+01  0.00000000000E+00 0. -1.
         11    1    3    3    0    0  0.20910030544E+02 -0.26244523447E+02 -0.16861344195E+02  0.37554085219E+02  0.51100000000E-03 0. -1.
        -11    1    3    3    0    0 -0.46111827723E+01 -0.83853374164E+01 -0.29243229834E+01  0.10006425701E+02  0.51100000000E-03 0.  1.
        -12    1    3    3    0    0 -0.15684688658E+02  0.33791350198E+02  0.20344736884E+02  0.42447298210E+02  0.00000000000E+00 0.  1.
</event>
<event>
 7    1  0.2569312E-015  0.9000759E+02  0.7816164E-02  0.1186339E+00
        -11   -1    0    0    0    0  0.00000000000E+00  0.00000000000E+00  0.45593999997E+02  0.45594000000E+02  0.51100000000E-03 0.  1.
         11   -1    0    0    0    0 -0.00000000000E+00 -0.00000000000E+00 -0.45593999997E+02  0.45594000000E+02  0.51100000000E-03 0. -1.
    9900012    2    1    2    0    0 -0.39573081913E+00  0.77510451842E+00  0.79747938905E+00  0.90007591905E+02  0.89999851318E+02 0.  0.
         12    1    1    2    0    0  0.39573081913E+00 -0.77510451842E+00 -0.79747938905E+00  0.11804080954E+01  0.00000000000E+00 0. -1.
         11    1    3    3    0    0 -0.11367918215E+02  0.38298288418E+02  0.13008949779E+01  0.39970999340E+02  0.51100000000E-03 0. -1.
        -11    1    3    3    0    0  0.93152214630E+01  0.25844683242E+01  0.17809500674E+01  0.98297818301E+01  0.51100000000E-03 0.  1.
        -12    1    3    3    0    0  0.16569659332E+01 -0.40107652223E+02 -0.22843656563E+01  0.40206810734E+02  0.00000000000E+00 0.  1.
</event>
<event>
 7    1  0.2569312E-015  0.9000775E+02  0.7816164E-02  0.1186339E+00
        -11   -1    0    0    0    0  0.00000000000E+00  0.00000000000E+00  0.45593999997E+02  0.45594000000E+02  0.51100000000E-03 0.  1.
         11   -1    0    0    0    0 -0.00000000000E+00 -0.00000000000E+00 -0.45593999997E+02  0.45594000000E+02  0.51100000000E-03 0. -1.
    9900012    2    1    2    0    0 -0.70005555682E-02  0.11733400665E+01  0.12730246300E+00  0.90007753485E+02  0.90000015031E+02 0.  0.
         12    1    1    2    0    0  0.70005555682E-02 -0.11733400665E+01 -0.12730246300E+00  0.11802465151E+01  0.00000000000E+00 0. -1.
         11    1    3    3    0    0 -0.14824163144E+02  0.22860852359E+01 -0.17398243874E+01  0.15099966482E+02  0.51100000000E-03 0. -1.
        -11    1    3    3    0    0  0.14209166181E+02  0.16436001622E+02  0.32797304502E+02  0.39340891395E+02  0.51100000000E-03 0.  1.
         12    1    3    3    0    0  0.60799640701E+00 -0.17548746791E+02 -0.30930177652E+02  0.35566895607E+02  0.00000000000E+00 0. -1.
</event>
<event>
 7    1  0.2569312E-015  0.9000771E+02  0.7816164E-02  0.1186339E+00
        -11   -1    0    0    0    0  0.00000000000E+00  0.00000000000E+00  0.45593999997E+02  0.45594000000E+02  0.51100000000E-03 0.  1.
         11   -1    0    0    0    0 -0.00000000000E+00 -0.00000000000E+00 -0.45593999997E+02  0.45594000000E+02  0.51100000000E-03 0. -1.
    9900012    2    1    2    0    0  0.35321783411E+00 -0.62710280150E+00 -0.93544242036E+00  0.90007714745E+02  0.89999975779E+02 0.  0.
         12    1    1    2    0    0 -0.35321783411E+00  0.62710280150E+00  0.93544242036E+00  0.11802852553E+01  0.00000000000E+00 0. -1.
         11    1    3    3    0    0  0.18591667986E+01 -0.71419041714E+01  0.53767485059E+01  0.91308663957E+01  0.51100000000E-03 0. -1.
        -11    1    3    3    0    0 -0.25377162576E+02  0.11310658718E+02  0.27578086338E+02  0.39146931263E+02  0.51100000000E-03 0.  1.
         12    1    3    3    0    0  0.23871213611E+02 -0.47958573483E+01 -0.33890277264E+02  0.41729917086E+02  0.00000000000E+00 0. -1.
</event>
<event>
 7    1  0.2569312E-015  0.9000773E+02  0.7816164E-02  0.1186339E+00
        -11   -1    0    0    0    0  0.00000000000E+00  0.00000000000E+00  0.45593999997E+02  0.45594000000E+02  0.51100000000E-03 0. -1.
         11   -1    0    0    0    0 -0.00000000000E+00 -0.00000000000E+00 -0.45593999997E+02  0.45594000000E+02  0.51100000000E-03 0.  1.
    9900012    2    1    2    0    0  0.49784953548E+00  0.95033976609E+00 -0.49198321961E+00  0.90007725744E+02  0.89999986924E+02 0.  0.
         12    1    1    2    0    0 -0.49784953548E+00 -0.95033976609E+00  0.49198321961E+00  0.11802742560E+01  0.00000000000E+00 0. -1.
         11    1    3    3    0    0  0.53085611190E+01  0.36632122462E+02  0.13017774861E+02  0.39237172169E+02  0.51100000000E-03 0. -1.
        -11    1    3    3    0    0  0.55193774627E+01  0.91979837929E+00  0.58500017890E+01  0.80951885603E+01  0.51100000000E-03 0.  1.
        -12    1    3    3    0    0 -0.10330089046E+02 -0.36601581076E+02 -0.19359759869E+02  0.42675365015E+02  0.00000000000E+00 0.  1.
</event>
<event>
 7    1  0.2569312E-015  0.9000706E+02  0.7816164E-02  0.1186340E+00
        -11   -1    0    0    0    0  0.00000000000E+00  0.00000000000E+00  0.45593999997E+02  0.45594000000E+02  0.51100000000E-03 0.  1.
         11   -1    0    0    0    0 -0.00000000000E+00 -0.00000000000E+00 -0.45593999997E+02  0.45594000000E+02  0.51100000000E-03 0. -1.
    9900012    2    1    2    0    0 -0.68254808448E+00  0.92402253092E+00  0.27374874044E+00  0.90007056353E+02  0.89999308694E+02 0.  0.
         12    1    1    2    0    0  0.68254808448E+00 -0.92402253092E+00 -0.27374874044E+00  0.11809436473E+01  0.00000000000E+00 0. -1.
         11    1    3    3    0    0  0.10416574475E+01  0.89904496447E+01 -0.36139378001E+02  0.37255440913E+02  0.51100000000E-03 0. -1.
        -11    1    3    3    0    0  0.50632411230E+00  0.10312557754E+02 -0.16204020076E+01  0.10451359455E+02  0.51100000000E-03 0.  1.
        -12    1    3    3    0    0 -0.22305296443E+01 -0.18378984868E+02  0.38033528749E+02  0.42300255985E+02  0.00000000000E+00 0.  1.
</event>
<event>
 7    1  0.2569312E-015  0.9000774E+02  0.7816164E-02  0.1186339E+00
        -11   -1    0    0    0    0  0.00000000000E+00  0.00000000000E+00  0.45593999997E+02  0.45594000000E+02  0.51100000000E-03 0. -1.
         11   -1    0    0    0    0 -0.00000000000E+00 -0.00000000000E+00 -0.45593999997E+02  0.45594000000E+02  0.51100000000E-03 0.  1.
    9900012    2    1    2    0    0 -0.11091737558E+01  0.17541908446E+00 -0.36327015924E+00  0.90007744314E+02  0.90000005739E+02 0.  0.
         12    1    1    2    0    0  0.11091737558E+01 -0.17541908446E+00  0.36327015924E+00  0.11802556860E+01  0.00000000000E+00 0. -1.
         11    1    3    3    0    0  0.83802365861E+01 -0.62182537480E+01 -0.34659787364E+01  0.10995819832E+02  0.51100000000E-03 0. -1.
        -11    1    3    3    0    0  0.62870117217E+01 -0.13107984487E+01 -0.35778560201E+02  0.36350379355E+02  0.51100000000E-03 0.  1.
         12    1    3    3    0    0 -0.15776422064E+02  0.77044712812E+01  0.38881268778E+02  0.42661545127E+02  0.00000000000E+00 0. -1.
</event>
<event>
 7    1  0.2569312E-015  0.9000753E+02  0.7816164E-02  0.1186339E+00
        -11   -1    0    0    0    0  0.00000000000E+00  0.00000000000E+00  0.45593999997E+02  0.45594000000E+02  0.51100000000E-03 0.  1.
         11   -1    0    0    0    0 -0.00000000000E+00 -0.00000000000E+00 -0.45593999997E+02  0.45594000000E+02  0.51100000000E-03 0. -1.
    9900012    2    1    2    0    0 -0.77222878016E+00 -0.75822628749E+00  0.47144479675E+00  0.90007532047E+02  0.89999790670E+02 0.  0.
         12    1    1    2    0    0  0.77222878016E+00  0.75822628749E+00 -0.47144479675E+00  0.11804679531E+01  0.00000000000E+00 0. -1.
         11    1    3    3    0    0  0.22555008895E+00  0.32774098169E+02 -0.23123318530E+02  0.40110849452E+02  0.51100000000E-03 0. -1.
        -11    1    3    3    0    0 -0.25858600946E+01  0.15838134082E+01  0.12756157439E+02  0.13111624240E+02  0.51100000000E-03 0.  1.
        -12    1    3    3    0    0  0.15880812255E+01 -0.35116137865E+02  0.10838605887E+02  0.36785058354E+02  0.00000000000E+00 0.  1.
</event>
<event>
 7    1  0.2569312E-015  0.9000777E+02  0.7816164E-02  0.1186339E+00
        -11   -1    0    0    0    0  0.00000000000E+00  0.00000000000E+00  0.45593999997E+02  0.45594000000E+02  0.51100000000E-03 0. -1.
         11   -1    0    0    0    0 -0.00000000000E+00 -0.00000000000E+00 -0.45593999997E+02  0.45594000000E+02  0.51100000000E-03 0.  1.
    9900012    2    1    2    0    0 -0.77000989650E+00 -0.89378107961E+00 -0.34372600142E-01  0.90007770643E+02  0.90000032416E+02 0.  0.
         12    1    1    2    0    0  0.77000989650E+00  0.89378107961E+00  0.34372600142E-01  0.11802293568E+01  0.00000000000E+00 0. -1.
         11    1    3    3    0    0  0.17464616477E+02 -0.80393717335E+01  0.29094610271E+02  0.34873208537E+02  0.51100000000E-03 0. -1.
        -11    1    3    3    0    0  0.44109845448E+01 -0.77977074252E+00  0.90183686848E+01  0.10069548205E+02  0.51100000000E-03 0.  1.
        -12    1    3    3    0    0 -0.22645610918E+02  0.79253613964E+01 -0.38147351556E+02  0.45065013901E+02  0.00000000000E+00 0.  1.
</event>
<event>
 7    1  0.2569312E-015  0.9000779E+02  0.7816164E-02  0.1186339E+00
        -11   -1    0    0    0    0  0.00000000000E+00  0.00000000000E+00  0.45593999997E+02  0.45594000000E+02  0.51100000000E-03 0. -1.
         11   -1    0    0    0    0 -0.00000000000E+00 -0.00000000000E+00 -0.45593999997E+02  0.45594000000E+02  0.51100000000E-03 0.  1.
    9900012    2    1    2    0    0  0.88673549454E+00 -0.20296742490E-01 -0.77857308106E+00  0.90007793307E+02  0.90000055379E+02 0.  0.
         12    1    1    2    0    0 -0.88673549454E+00  0.20296742490E-01  0.77857308106E+00  0.11802066927E+01  0.00000000000E+00 0. -1.
         11    1    3    3    0    0  0.91549780840E+01  0.49502466350E+01 -0.11892354487E+00  0.10408299983E+02  0.51100000000E-03 0. -1.
        -11    1    3    3    0    0  0.33187398469E+01 -0.34677221575E+02 -0.22027322633E+02  0.41215612005E+02  0.51100000000E-03 0.  1.
         12    1    3    3    0    0 -0.11586982436E+02  0.29706678198E+02  0.21367673097E+02  0.38383881319E+02  0.00000000000E+00 0. -1.
</event>
<event>
 7    1  0.2569312E-015  0.9000773E+02  0.7816164E-02  0.1186339E+00
        -11   -1    0    0    0    0  0.00000000000E+00  0.00000000000E+00  0.45593999997E+02  0.45594000000E+02  0.51100000000E-03 0.  1.
         11   -1    0    0    0    0 -0.00000000000E+00 -0.00000000000E+00 -0.45593999997E+02  0.45594000000E+02  0.51100000000E-03 0. -1.
    9900012    2    1    2    0    0 -0.38406147297E+00  0.10661350638E+01 -0.32998325686E+00  0.90007730480E+02  0.89999991723E+02 0.  0.
         12    1    1    2    0    0  0.38406147297E+00 -0.10661350638E+01  0.32998325686E+00  0.11802695196E+01  0.00000000000E+00 0. -1.
         11    1    3    3    0    0 -0.20298576777E+02  0.28325400554E+02  0.66886876748E+01  0.35483786140E+02  0.51100000000E-03 0. -1.
        -11    1    3    3    0    0  0.12804354969E+01  0.82601512369E+01  0.81181994754E+01  0.11652243411E+02  0.51100000000E-03 0.  1.
        -12    1    3    3    0    0  0.18634079807E+02 -0.35519416727E+02 -0.15136870407E+02  0.42871700930E+02  0.00000000000E+00 0.  1.
</event>
<event>
 7    1  0.2569312E-015  0.9000771E+02  0.7816164E-02  0.1186339E+00
        -11   -1    0    0    0    0  0.00000000000E+00  0.00000000000E+00  0.45593999997E+02  0.45594000000E+02  0.51100000000E-03 0.  1.
         11   -1    0    0    0    0 -0.00000000000E+00 -0.00000000000E+00 -0.45593999997E+02  0.45594000000E+02  0.51100000000E-03 0. -1.
    9900012    2    1    2    0    0 -0.96901663535E+00 -0.62809004868E+00 -0.24412487863E+00  0.90007708805E+02  0.89999969761E+02 0.  0.
         12    1    1    2    0    0  0.96901663535E+00  0.62809004868E+00  0.24412487863E+00  0.11802911951E+01  0.00000000000E+00 0. -1.
         11    1    3    3    0    0 -0.11699584396E+01  0.31490338301E+02  0.95526967533E+01  0.32928167646E+02  0.51100000000E-03 0. -1.
        -11    1    3    3    0    0 -0.18817693621E+01 -0.20271775773E-02  0.15828550678E+02  0.15940014958E+02  0.51100000000E-03 0.  1.
        -12    1    3    3    0    0  0.20827111663E+01 -0.32116401172E+02 -0.25625372309E+02  0.41139526201E+02  0.00000000000E+00 0.  1.
</event>
<event>
 7    1  0.2569312E-015  0.9000744E+02  0.7816164E-02  0.1186340E+00
        -11   -1    0    0    0    0  0.00000000000E+00  0.00000000000E+00  0.45593999997E+02  0.45594000000E+02  0.51100000000E-03 0.  1.
         11   -1    0    0    0    0 -0.00000000000E+00 -0.00000000000E+00 -0.45593999997E+02  0.45594000000E+02  0.51100000000E-03 0. -1.
    9900012    2    1    2    0    0  0.30744383787E+00 -0.11396058522E+01 -0.22313931725E-01  0.90007440335E+02  0.89999697747E+02 0.  0.
         12    1    1    2    0    0 -0.30744383787E+00  0.11396058522E+01  0.22313931725E-01  0.11805596653E+01  0.00000000000E+00 0. -1.
         11    1    3    3    0    0  0.48726146947E+01  0.69917389079E+01  0.40914680877E+01  0.94534067030E+01  0.51100000000E-03 0. -1.
        -11    1    3    3    0    0  0.12138692820E+02 -0.14630283362E+02  0.33708611684E+02  0.38699658351E+02  0.51100000000E-03 0.  1.
         12    1    3    3    0    0 -0.16703863676E+02  0.64989386017E+01 -0.37822393703E+02  0.41854375280E+02  0.00000000000E+00 0. -1.
</event>
<event>
 7    1  0.2820545E-015  0.9000778E+02  0.7816164E-02  0.1186339E+00
        -11   -1    0    0    0    0  0.00000000000E+00  0.00000000000E+00  0.45593999997E+02  0.45594000000E+02  0.51100000000E-03 0.  1.
         11   -1    0    0    0    0 -0.00000000000E+00 -0.00000000000E+00 -0.45593999997E+02  0.45594000000E+02  0.51100000000E-03 0. -1.
    9900012    2    1    2    0    0 -0.15284863193E+00  0.11701735236E+01  0.15707247992E-01  0.90007781589E+02  0.90000043506E+02 0.  0.
         12    1    1    2    0    0  0.15284863193E+00 -0.11701735236E+01 -0.15707247992E-01  0.11802184108E+01  0.00000000000E+00 0. -1.
         11    1    3    3    0    0  0.40739936652E+02 -0.11452736298E+01 -0.84051231351E+00  0.40764697365E+02  0.51100000000E-03 0. -1.
        -11    1    3    3    0    0 -0.26014207449E+01  0.72207651679E+00 -0.92273806102E+01  0.96142257918E+01  0.51100000000E-03 0.  1.
        -12    1    3    3    0    0 -0.38291364539E+02  0.15933706366E+01  0.10083600172E+02  0.39628858432E+02  0.00000000000E+00 0.  1.
</event>
<event>
 7    1  0.2569312E-015  0.9000774E+02  0.7816164E-02  0.1186339E+00
        -11   -1    0    0    0    0  0.00000000000E+00  0.00000000000E+00  0.45593999997E+02  0.45594000000E+02  0.51100000000E-03 0.  1.
         11   -1    0    0    0    0 -0.00000000000E+00 -0.00000000000E+00 -0.45593999997E+02  0.45594000000E+02  0.51100000000E-03 0. -1.
    9900012    2    1    2    0    0  0.11411062163E+01 -0.18988942855E+00  0.23417846112E+00  0.90007736918E+02  0.89999998245E+02 0.  0.
         12    1    1    2    0    0 -0.11411062163E+01  0.18988942855E+00 -0.23417846112E+00  0.11802630824E+01  0.00000000000E+00 0. -1.
         11    1    3    3    0    0  0.12044281465E+02 -0.37271836331E+02  0.39108764594E+01  0.39364317019E+02  0.51100000000E-03 0. -1.
        -11    1    3    3    0    0  0.68619219867E+01 -0.12424800827E+01 -0.46653083232E+01  0.83901628184E+01  0.51100000000E-03 0.  1.
        -12    1    3    3    0    0 -0.17765097235E+02  0.38324426985E+02  0.98861032488E+00  0.42253257080E+02  0.00000000000E+00 0.  1.
</event>
<event>
 7    1  0.2569312E-015  0.9000773E+02  0.7816164E-02  0.1186339E+00
        -11   -1    0    0    0    0  0.00000000000E+00  0.00000000000E+00  0.45593999997E+02  0.45594000000E+02  0.51100000000E-03 0.  1.
         11   -1    0    0    0    0 -0.00000000000E+00 -0.00000000000E+00 -0.45593999997E+02  0.45594000000E+02  0.51100000000E-03 0. -1.
    9900012    2    1    2    0    0 -0.10501933750E+01  0.52889283304E+00  0.10202859520E+00  0.90007727325E+02  0.89999988525E+02 0.  0.
         12    1    1    2    0    0  0.10501933750E+01 -0.52889283304E+00 -0.10202859520E+00  0.11802726753E+01  0.00000000000E+00 0. -1.
         11    1    3    3    0    0 -0.10963168020E+02 -0.69539354140E+01 -0.39751821061E+02  0.41818124643E+02  0.51100000000E-03 0. -1.
        -11    1    3    3    0    0  0.93361534203E+01 -0.29656999481E+01  0.35687540380E+01  0.10425696260E+02  0.51100000000E-03 0.  1.
        -12    1    3    3    0    0  0.57682122494E+00  0.10448528195E+02  0.36285095618E+02  0.37763906421E+02  0.00000000000E+00 0.  1.
</event>
<event>
 7    1  0.2569312E-015  0.9000770E+02  0.7816164E-02  0.1186339E+00
        -11   -1    0    0    0    0  0.00000000000E+00  0.00000000000E+00  0.45593999997E+02  0.45594000000E+02  0.51100000000E-03 0. -1.
         11   -1    0    0    0    0 -0.00000000000E+00 -0.00000000000E+00 -0.45593999997E+02  0.45594000000E+02  0.51100000000E-03 0.  1.
    9900012    2    1    2    0    0 -0.45795609250E+00  0.10859429998E+01  0.64212464523E-01  0.90007695284E+02  0.89999956062E+02 0.  0.
         12    1    1    2    0    0  0.45795609250E+00 -0.10859429998E+01 -0.64212464523E-01  0.11803047158E+01  0.00000000000E+00 0. -1.
         11    1    3    3    0    0 -0.65318446856E+01  0.63357712390E+01  0.29840704949E+01  0.95766209682E+01  0.51100000000E-03 0. -1.
        -11    1    3    3    0    0 -0.25188649072E+02  0.25115563110E+02 -0.82773471711E+01  0.36520871140E+02  0.51100000000E-03 0.  1.
         12    1    3    3    0    0  0.31262537665E+02 -0.30365391349E+02  0.53574891407E+01  0.43910203176E+02  0.00000000000E+00 0. -1.
</event>
<event>
 7    1  0.2569312E-015  0.9000774E+02  0.7816164E-02  0.1186339E+00
        -11   -1    0    0    0    0  0.00000000000E+00  0.00000000000E+00  0.45593999997E+02  0.45594000000E+02  0.51100000000E-03 0.  1.
         11   -1    0    0    0    0 -0.00000000000E+00 -0.00000000000E+00 -0.45593999997E+02  0.45594000000E+02  0.51100000000E-03 0. -1.
    9900012    2    1    2    0    0  0.98283622064E+00  0.21533844631E+00  0.61698572474E+00  0.90007741949E+02  0.90000003342E+02 0.  0.
         12    1    1    2    0    0 -0.98283622064E+00 -0.21533844631E+00 -0.61698572474E+00  0.11802580513E+01  0.00000000000E+00 0. -1.
         11    1    3    3    0    0 -0.79336004074E+01 -0.13692660551E+02  0.89981254897E+01  0.18204319020E+02  0.51100000000E-03 0. -1.
        -11    1    3    3    0    0 -0.19783599351E+02  0.10170300948E+02  0.20978560843E+02  0.30576557032E+02  0.51100000000E-03 0.  1.
         12    1    3    3    0    0  0.28700035979E+02  0.37376980503E+01 -0.29359700608E+02  0.41226865897E+02  0.00000000000E+00 0. -1.
</event>
<event>
 7    1  0.2569312E-015  0.9000768E+02  0.7816164E-02  0.1186339E+00
        -11   -1    0    0    0    0  0.00000000000E+00  0.00000000000E+00  0.45593999997E+02  0.45594000000E+02  0.51100000000E-03 0.  1.
         11   -1    0    0    0    0 -0.00000000000E+00 -0.00000000000E+00 -0.45593999997E+02  0.45594000000E+02  0.51100000000E-03 0. -1.
    9900012    2    1    2    0    0 -0.29347717988E+00  0.11418041338E+01  0.57502715340E-01  0.90007681358E+02  0.89999941952E+02 0.  0.
         12    1    1    2    0    0  0.29347717988E+00 -0.11418041338E+01 -0.57502715340E-01  0.11803186423E+01  0.00000000000E+00 0. -1.
         11    1    3    3    0    0 -0.10129641941E+01 -0.57326469572E+01  0.60584268574E+01  0.84020160582E+01  0.51100000000E-03 0. -1.
        -11    1    3    3    0    0  0.24006213926E+02 -0.34984094819E+01  0.29314235253E+02  0.38050776138E+02  0.51100000000E-03 0.  1.
         12    1    3    3    0    0 -0.23286726912E+02  0.10372860573E+02 -0.35315159396E+02  0.43554889161E+02  0.00000000000E+00 0. -1.
</event>
<event>
 7    1  0.2569312E-015  0.9000780E+02  0.7816164E-02  0.1186339E+00
        -11   -1    0    0    0    0  0.00000000000E+00  0.00000000000E+00  0.45593999997E+02  0.45594000000E+02  0.51100000000E-03 0. -1.
         11   -1    0    0    0    0 -0.00000000000E+00 -0.00000000000E+00 -0.45593999997E+02  0.45594000000E+02  0.51100000000E-03 0.  1.
    9900012    2    1    2    0    0 -0.74180866245E+00 -0.76071438917E+00 -0.51371112194E+00  0.90007802732E+02  0.90000064928E+02 0.  0.
         12    1    1    2    0    0  0.74180866245E+00  0.76071438917E+00  0.51371112194E+00  0.11801972676E+01  0.00000000000E+00 0. -1.
         11    1    3    3    0    0  0.13007126588E+02  0.11099266405E+02 -0.27584736145E+01  0.17320168410E+02  0.51100000000E-03 0. -1.
        -11    1    3    3    0    0  0.22263089252E+02  0.35344984337E+01  0.19579901492E+02  0.29858170823E+02  0.51100000000E-03 0.  1.
         12    1    3    3    0    0 -0.36012024503E+02 -0.15394479228E+02 -0.17335138999E+02  0.42829463499E+02  0.00000000000E+00 0. -1.
</event>
<event>
 7    1  0.2569312E-015  0.9000771E+02  0.7816164E-02  0.1186339E+00
        -11   -1    0    0    0    0  0.00000000000E+00  0.00000000000E+00  0.45593999997E+02  0.45594000000E+02  0.51100000000E-03 0.  1.
         11   -1    0    0    0    0 -0.00000000000E+00 -0.00000000000E+00 -0.45593999997E+02  0.45594000000E+02  0.51100000000E-03 0. -1.
    9900012    2    1    2    0    0  0.14367413049E+00  0.10691215436E+01  0.47898961958E+00  0.90007705890E+02  0.89999966808E+02 0.  0.
         12    1    1    2    0    0 -0.14367413049E+00 -0.10691215436E+01 -0.47898961958E+00  0.11802941101E+01  0.00000000000E+00 0. -1.
         11    1    3    3    0    0 -0.33620463059E+02 -0.16686843582E+02  0.25038704758E+01  0.37617225477E+02  0.51100000000E-03 0. -1.
        -11    1    3    3    0    0 -0.26149528185E+01 -0.12685005969E+00  0.98164484360E+01  0.10159563442E+02  0.51100000000E-03 0.  1.
        -12    1    3    3    0    0  0.36379090008E+02  0.17882815185E+02 -0.11841329292E+02  0.42230916970E+02  0.00000000000E+00 0.  1.
</event>
<event>
 7    1  0.2569312E-015  0.9000770E+02  0.7816164E-02  0.1186339E+00
        -11   -1    0    0    0    0  0.00000000000E+00  0.00000000000E+00  0.45593999997E+02  0.45594000000E+02  0.51100000000E-03 0. -1.
         11   -1    0    0    0    0 -0.00000000000E+00 -0.00000000000E+00 -0.45593999997E+02  0.45594000000E+02  0.51100000000E-03 0.  1.
    9900012    2    1    2    0    0  0.78955182253E+00  0.91711997636E-01 -0.87252683735E+00  0.90007700778E+02  0.89999961629E+02 0.  0.
         12    1    1    2    0    0 -0.78955182253E+00 -0.91711997636E-01  0.87252683735E+00  0.11802992218E+01  0.00000000000E+00 0. -1.
         11    1    3    3    0    0  0.15815819189E+02 -0.92352972891E+01  0.24838254036E+02  0.30860487949E+02  0.51100000000E-03 0. -1.
        -11    1    3    3    0    0  0.17889748871E+02 -0.25015978422E+01 -0.11372083418E+02  0.21345383294E+02  0.51100000000E-03 0.  1.
         12    1    3    3    0    0 -0.32916016237E+02  0.11828607129E+02 -0.14338697455E+02  0.37801829536E+02  0.00000000000E+00 0. -1.
</event>
<event>
 7    1  0.2569312E-015  0.9000774E+02  0.7816164E-02  0.1186339E+00
        -11   -1    0    0    0    0  0.00000000000E+00  0.00000000000E+00  0.45593999997E+02  0.45594000000E+02  0.51100000000E-03 0.  1.
         11   -1    0    0    0    0 -0.00000000000E+00 -0.00000000000E+00 -0.45593999997E+02  0.45594000000E+02  0.51100000000E-03 0. -1.
    9900012    2    1    2    0    0  0.18128781333E+00  0.98362657723E+00  0.62659135970E+00  0.90007744415E+02  0.90000005841E+02 0.  0.
         12    1    1    2    0    0 -0.18128781333E+00 -0.98362657723E+00 -0.62659135970E+00  0.11802555853E+01  0.00000000000E+00 0. -1.
         11    1    3    3    0    0  0.81834173764E+00 -0.69372466798E+01 -0.34484883363E+02  0.35185256224E+02  0.51100000000E-03 0. -1.
        -11    1    3    3    0    0  0.11796440379E+02 -0.10436810837E+02  0.33750628127E+01  0.16108199009E+02  0.51100000000E-03 0.  1.
        -12    1    3    3    0    0 -0.12433494304E+02  0.18357684094E+02  0.31736411910E+02  0.38714289182E+02  0.00000000000E+00 0.  1.
</event>
<event>
 7    1  0.2569312E-015  0.9000774E+02  0.7816164E-02  0.1186339E+00
        -11   -1    0    0    0    0  0.00000000000E+00  0.00000000000E+00  0.45593999997E+02  0.45594000000E+02  0.51100000000E-03 0.  1.
         11   -1    0    0    0    0 -0.00000000000E+00 -0.00000000000E+00 -0.45593999997E+02  0.45594000000E+02  0.51100000000E-03 0. -1.
    9900012    2    1    2    0    0 -0.93507809768E+00  0.67992698314E+00  0.23736842300E+00  0.90007739216E+02  0.90000000573E+02 0.  0.
         12    1    1    2    0    0  0.93507809768E+00 -0.67992698314E+00 -0.23736842300E+00  0.11802607845E+01  0.00000000000E+00 0. -1.
         11    1    3    3    0    0  0.36148646347E+01  0.39434755997E+01 -0.97817602875E+01  0.11149039453E+02  0.51100000000E-03 0. -1.
        -11    1    3    3    0    0  0.20959136994E+02  0.29475093920E+02  0.93228690242E+01  0.37349464149E+02  0.51100000000E-03 0.  1.
         12    1    3    3    0    0 -0.25509079727E+02 -0.32738642537E+02  0.69625968639E+00  0.41509235613E+02  0.00000000000E+00 0. -1.
</event>
<event>
 7    1  0.2569312E-015  0.9000783E+02  0.7816164E-02  0.1186339E+00
        -11   -1    0    0    0    0  0.00000000000E+00  0.00000000000E+00  0.45593999997E+02  0.45594000000E+02  0.51100000000E-03 0. -1.
         11   -1    0    0    0    0 -0.00000000000E+00 -0.00000000000E+00 -0.45593999997E+02  0.45594000000E+02  0.51100000000E-03 0.  1.
    9900012    2    1    2    0    0  0.29142317473E+00 -0.10896741610E+01  0.34711498370E+00  0.90007827955E+02  0.90000090484E+02 0.  0.
         12    1    1    2    0    0 -0.29142317473E+00  0.10896741610E+01 -0.34711498370E+00  0.11801720450E+01  0.00000000000E+00 0. -1.
         11    1    3    3    0    0  0.34690900157E+01 -0.70887217380E+01  0.36576658074E+02  0.37418397582E+02  0.51100000000E-03 0. -1.
        -11    1    3    3    0    0  0.31568428466E+01 -0.93189261650E+01  0.27630945515E+01  0.10219722765E+02  0.51100000000E-03 0.  1.
        -12    1    3    3    0    0 -0.63345096876E+01  0.15317973742E+02 -0.38992637642E+02  0.42369707609E+02  0.00000000000E+00 0.  1.
</event>
<event>
 7    1  0.2569312E-015  0.9000775E+02  0.7816164E-02  0.1186339E+00
        -11   -1    0    0    0    0  0.00000000000E+00  0.00000000000E+00  0.45593999997E+02  0.45594000000E+02  0.51100000000E-03 0. -1.
         11   -1    0    0    0    0 -0.00000000000E+00 -0.00000000000E+00 -0.45593999997E+02  0.45594000000E+02  0.51100000000E-03 0.  1.
    9900012    2    1    2    0    0 -0.12923395700E-01 -0.20071096547E+00 -0.11629875892E+01  0.90007749163E+02  0.90000010652E+02 0.  0.
         12    1    1    2    0    0  0.12923395700E-01  0.20071096547E+00  0.11629875892E+01  0.11802508371E+01  0.00000000000E+00 0. -1.
         11    1    3    3    0    0 -0.17467627131E+01  0.83276986718E+01 -0.47948123843E+01  0.97668813450E+01  0.51100000000E-03 0. -1.
        -11    1    3    3    0    0  0.23233473041E+02 -0.62942618361E+01 -0.31103054365E+02  0.39329530796E+02  0.51100000000E-03 0.  1.
         12    1    3    3    0    0 -0.21499633724E+02 -0.22341478012E+01  0.34734879160E+02  0.40911337021E+02  0.00000000000E+00 0. -1.
</event>
<event>
 7    1  0.2569312E-015  0.9000774E+02  0.7816164E-02  0.1186339E+00
        -11   -1    0    0    0    0  0.00000000000E+00  0.00000000000E+00  0.45593999997E+02  0.45594000000E+02  0.51100000000E-03 0.  1.
         11   -1    0    0    0    0 -0.00000000000E+00 -0.00000000000E+00 -0.45593999997E+02  0.45594000000E+02  0.51100000000E-03 0. -1.
    9900012    2    1    2    0    0 -0.32161628747E+00  0.74174484152E+00  0.85987949938E+00  0.90007739351E+02  0.90000000710E+02 0.  0.
         12    1    1    2    0    0  0.32161628747E+00 -0.74174484152E+00 -0.85987949938E+00  0.11802606491E+01  0.00000000000E+00 0. -1.
         11    1    3    3    0    0  0.55331182683E+01 -0.86252073527E+01  0.13140582932E+01  0.10331328526E+02  0.51100000000E-03 0. -1.
        -11    1    3    3    0    0  0.11772225912E+02 -0.29442903101E+02  0.14006725000E+02  0.34664941821E+02  0.51100000000E-03 0.  1.
         12    1    3    3    0    0 -0.17626960467E+02  0.38809855296E+02 -0.14460903794E+02  0.45011469004E+02  0.00000000000E+00 0. -1.
</event>
<event>
 7    1  0.2569312E-015  0.9000819E+02  0.7816164E-02  0.1186338E+00
        -11   -1    0    0    0    0  0.00000000000E+00  0.00000000000E+00  0.45593999997E+02  0.45594000000E+02  0.51100000000E-03 0. -1.
         11   -1    0    0    0    0 -0.00000000000E+00 -0.00000000000E+00 -0.45593999997E+02  0.45594000000E+02  0.51100000000E-03 0.  1.
    9900012    2    1    2    0    0  0.99482371205E+00 -0.62354999020E+00 -0.11598182452E+00  0.90008194680E+02  0.90000462049E+02 0.  0.
         12    1    1    2    0    0 -0.99482371205E+00  0.62354999020E+00  0.11598182452E+00  0.11798053195E+01  0.00000000000E+00 0. -1.
         11    1    3    3    0    0  0.28398738628E+02  0.16954660204E+02  0.21336306291E+02  0.39359710678E+02  0.51100000000E-03 0. -1.
        -11    1    3    3    0    0 -0.43858613435E+01 -0.22939300959E+01  0.85388920773E+01  0.98696794871E+01  0.51100000000E-03 0.  1.
        -12    1    3    3    0    0 -0.23018053572E+02 -0.15284280098E+02 -0.29991180193E+02  0.40778804515E+02  0.00000000000E+00 0.  1.
</event>
<event>
 7    1  0.2569312E-015  0.9000778E+02  0.7816164E-02  0.1186339E+00
        -11   -1    0    0    0    0  0.00000000000E+00  0.00000000000E+00  0.45593999997E+02  0.45594000000E+02  0.51100000000E-03 0.  1.
         11   -1    0    0    0    0 -0.00000000000E+00 -0.00000000000E+00 -0.45593999997E+02  0.45594000000E+02  0.51100000000E-03 0. -1.
    9900012    2    1    2    0    0  0.64355183552E+00  0.37462614575E+00  0.91565335101E+00  0.90007777659E+02  0.90000039524E+02 0.  0.
         12    1    1    2    0    0 -0.64355183552E+00 -0.37462614575E+00 -0.91565335101E+00  0.11802223406E+01  0.00000000000E+00 0. -1.
         11    1    3    3    0    0 -0.71799616318E+01 -0.23152458529E+01 -0.39765154966E+01  0.85278888448E+01  0.51100000000E-03 0. -1.
        -11    1    3    3    0    0 -0.35825320441E+02 -0.21920620514E+01  0.10009203632E+02  0.37261815285E+02  0.51100000000E-03 0.  1.
         12    1    3    3    0    0  0.43648833909E+02  0.48819340501E+01 -0.51170347840E+01  0.44218073529E+02  0.00000000000E+00 0. -1.
</event>
<event>
 7    1  0.2569312E-015  0.9000774E+02  0.7816164E-02  0.1186339E+00
        -11   -1    0    0    0    0  0.00000000000E+00  0.00000000000E+00  0.45593999997E+02  0.45594000000E+02  0.51100000000E-03 0.  1.
         11   -1    0    0    0    0 -0.00000000000E+00 -0.00000000000E+00 -0.45593999997E+02  0.45594000000E+02  0.51100000000E-03 0. -1.
    9900012    2    1    2    0    0 -0.60854059970E-01 -0.42341783267E+00  0.11000091451E+01  0.90007743250E+02  0.90000004660E+02 0.  0.
         12    1    1    2    0    0  0.60854059970E-01  0.42341783267E+00 -0.11000091451E+01  0.11802567505E+01  0.00000000000E+00 0. -1.
         11    1    3    3    0    0  0.17776068367E+02  0.18874805015E+02 -0.32299316223E+02  0.41418506730E+02  0.51100000000E-03 0. -1.
        -11    1    3    3    0    0 -0.56148192918E+01 -0.15514109428E+01 -0.27989153576E+01  0.64627392825E+01  0.51100000000E-03 0.  1.
        -12    1    3    3    0    0 -0.12222103135E+02 -0.17746811905E+02  0.36198240726E+02  0.42126497238E+02  0.00000000000E+00 0.  1.
</event>
<event>
 7    1  0.2569312E-015  0.9000775E+02  0.7816164E-02  0.1186339E+00
        -11   -1    0    0    0    0  0.00000000000E+00  0.00000000000E+00  0.45593999997E+02  0.45594000000E+02  0.51100000000E-03 0. -1.
         11   -1    0    0    0    0 -0.00000000000E+00 -0.00000000000E+00 -0.45593999997E+02  0.45594000000E+02  0.51100000000E-03 0.  1.
    9900012    2    1    2    0    0  0.64516979935E+00 -0.97930642760E+00  0.13301990282E+00  0.90007754499E+02  0.90000016058E+02 0.  0.
         12    1    1    2    0    0 -0.64516979935E+00  0.97930642760E+00 -0.13301990282E+00  0.11802455014E+01  0.00000000000E+00 0. -1.
         11    1    3    3    0    0  0.10788136702E+02 -0.19428580335E+02  0.32802521308E+02  0.39621446614E+02  0.51100000000E-03 0. -1.
        -11    1    3    3    0    0 -0.58562484366E+01 -0.65772498994E+01  0.25267217894E+00  0.88102046220E+01  0.51100000000E-03 0.  1.
        -12    1    3    3    0    0 -0.42867184665E+01  0.25026523806E+02 -0.32922173584E+02  0.41576103263E+02  0.00000000000E+00 0.  1.
</event>
<event>
 7    1  0.2569312E-015  0.9000768E+02  0.7816164E-02  0.1186339E+00
        -11   -1    0    0    0    0  0.00000000000E+00  0.00000000000E+00  0.45593999997E+02  0.45594000000E+02  0.51100000000E-03 0. -1.
         11   -1    0    0    0    0 -0.00000000000E+00 -0.00000000000E+00 -0.45593999997E+02  0.45594000000E+02  0.51100000000E-03 0.  1.
    9900012    2    1    2    0    0 -0.10255860142E+01  0.20604152649E+00  0.54669044566E+00  0.90007682150E+02  0.89999942755E+02 0.  0.
         12    1    1    2    0    0  0.10255860142E+01 -0.20604152649E+00 -0.54669044566E+00  0.11803178498E+01  0.00000000000E+00 0. -1.
         11    1    3    3    0    0 -0.36550638313E+01  0.33106087178E+02  0.20795060071E+02  0.39265850601E+02  0.51100000000E-03 0. -1.
        -11    1    3    3    0    0  0.71919150818E+01 -0.80551045248E+00  0.57051015701E+01  0.92152413869E+01  0.51100000000E-03 0.  1.
        -12    1    3    3    0    0 -0.45624372646E+01 -0.32094535199E+02 -0.25953471195E+02  0.41526590162E+02  0.00000000000E+00 0.  1.
</event>
<event>
 7    1  0.2569312E-015  0.9000783E+02  0.7816164E-02  0.1186339E+00
        -11   -1    0    0    0    0  0.00000000000E+00  0.00000000000E+00  0.45593999997E+02  0.45594000000E+02  0.51100000000E-03 0.  1.
         11   -1    0    0    0    0 -0.00000000000E+00 -0.00000000000E+00 -0.45593999997E+02  0.45594000000E+02  0.51100000000E-03 0. -1.
    9900012    2    1    2    0    0 -0.10386705002E+01  0.14768826464E+00  0.54050918357E+00  0.90007831195E+02  0.90000093766E+02 0.  0.
         12    1    1    2    0    0  0.10386705002E+01 -0.14768826464E+00 -0.54050918357E+00  0.11801688053E+01  0.00000000000E+00 0. -1.
         11    1    3    3    0    0 -0.79561311230E+01 -0.28341634630E+02 -0.17432105314E+02  0.34211497656E+02  0.51100000000E-03 0. -1.
        -11    1    3    3    0    0  0.40874233665E+00 -0.11783347251E+02  0.18686597126E+01  0.11937597418E+02  0.51100000000E-03 0.  1.
        -12    1    3    3    0    0  0.65087182862E+01  0.40272670145E+02  0.16103954785E+02  0.43858736120E+02  0.00000000000E+00 0.  1.
</event>
<event>
 7    1  0.2569312E-015  0.9000773E+02  0.7816164E-02  0.1186339E+00
        -11   -1    0    0    0    0  0.00000000000E+00  0.00000000000E+00  0.45593999997E+02  0.45594000000E+02  0.51100000000E-03 0.  1.
         11   -1    0    0    0    0 -0.00000000000E+00 -0.00000000000E+00 -0.45593999997E+02  0.45594000000E+02  0.51100000000E-03 0. -1.
    9900012    2    1    2    0    0 -0.81030253324E+00 -0.39271293884E+00  0.76302847749E+00  0.90007734731E+02  0.89999996029E+02 0.  0.
         12    1    1    2    0    0  0.81030253324E+00  0.39271293884E+00 -0.76302847749E+00  0.11802652690E+01  0.00000000000E+00 0. -1.
         11    1    3    3    0    0 -0.33993977119E+02  0.21588856982E+02  0.30860259340E+00  0.40271136835E+02  0.51100000000E-03 0. -1.
        -11    1    3    3    0    0 -0.21951578276E+01 -0.80495160975E+01  0.73190109172E+01  0.11098709310E+02  0.51100000000E-03 0.  1.
        -12    1    3    3    0    0  0.35378832414E+02 -0.13932053823E+02 -0.68645850331E+01  0.38637888586E+02  0.00000000000E+00 0.  1.
</event>
<event>
 7    1  0.2569312E-015  0.9000767E+02  0.7816164E-02  0.1186339E+00
        -11   -1    0    0    0    0  0.00000000000E+00  0.00000000000E+00  0.45593999997E+02  0.45594000000E+02  0.51100000000E-03 0. -1.
         11   -1    0    0    0    0 -0.00000000000E+00 -0.00000000000E+00 -0.45593999997E+02  0.45594000000E+02  0.51100000000E-03 0.  1.
    9900012    2    1    2    0    0  0.98246690007E+00 -0.58443863590E+00  0.29388022096E+00  0.90007671523E+02  0.89999931987E+02 0.  0.
         12    1    1    2    0    0 -0.98246690007E+00  0.58443863590E+00 -0.29388022096E+00  0.11803284768E+01  0.00000000000E+00 0. -1.
         11    1    3    3    0    0  0.11881913140E+02 -0.94386513276E+01  0.33385580951E+02  0.36672401264E+02  0.51100000000E-03 0. -1.
        -11    1    3    3    0    0 -0.19591791846E+01  0.22794504974E+01  0.91651806842E+01  0.96454556596E+01  0.51100000000E-03 0.  1.
        -12    1    3    3    0    0 -0.89402670549E+01  0.65747621943E+01 -0.42256881414E+02  0.43689814600E+02  0.00000000000E+00 0.  1.
</event>
<event>
 7    1  0.2569312E-015  0.9000700E+02  0.7816164E-02  0.1186341E+00
        -11   -1    0    0    0    0  0.00000000000E+00  0.00000000000E+00  0.45593999997E+02  0.45594000000E+02  0.51100000000E-03 0. -1.
         11   -1    0    0    0    0 -0.00000000000E+00 -0.00000000000E+00 -0.45593999997E+02  0.45594000000E+02  0.51100000000E-03 0.  1.
    9900012    2    1    2    0    0 -0.10582698268E+01 -0.36019523789E-01 -0.52301012399E+00  0.90006995333E+02  0.89999246869E+02 0.  0.
         12    1    1    2    0    0  0.10582698268E+01  0.36019523789E-01  0.52301012399E+00  0.11810046665E+01  0.00000000000E+00 0. -1.
         11    1    3    3    0    0  0.58670104309E+01 -0.92598433602E+01  0.10836287387E+01  0.11015478290E+02  0.51100000000E-03 0. -1.
        -11    1    3    3    0    0  0.35507563287E+02  0.15664087511E+01  0.27803633832E+01  0.35650681729E+02  0.51100000000E-03 0.  1.
         12    1    3    3    0    0 -0.42432843544E+02  0.76574150853E+01 -0.43870022458E+01  0.43340835315E+02  0.00000000000E+00 0. -1.
</event>
<event>
 7    1  0.2569312E-015  0.9000782E+02  0.7816164E-02  0.1186339E+00
        -11   -1    0    0    0    0  0.00000000000E+00  0.00000000000E+00  0.45593999997E+02  0.45594000000E+02  0.51100000000E-03 0.  1.
         11   -1    0    0    0    0 -0.00000000000E+00 -0.00000000000E+00 -0.45593999997E+02  0.45594000000E+02  0.51100000000E-03 0. -1.
    9900012    2    1    2    0    0  0.86012254455E+00  0.26337441568E+00 -0.76397433326E+00  0.90007816262E+02  0.90000078636E+02 0.  0.
         12    1    1    2    0    0 -0.86012254455E+00 -0.26337441568E+00  0.76397433326E+00  0.11801837384E+01  0.00000000000E+00 0. -1.
         11    1    3    3    0    0 -0.85285579797E+00  0.10110696816E+02 -0.34119333702E+01  0.10704898071E+02  0.51100000000E-03 0. -1.
        -11    1    3    3    0    0  0.19279072284E+02  0.28941903948E+02 -0.73960188058E+01  0.35553024157E+02  0.51100000000E-03 0.  1.
         12    1    3    3    0    0 -0.17566093942E+02 -0.38789226348E+02  0.10043977843E+02  0.43749894034E+02  0.00000000000E+00 0. -1.
</event>
<event>
 7    1  0.2569312E-015  0.9000785E+02  0.7816164E-02  0.1186339E+00
        -11   -1    0    0    0    0  0.00000000000E+00  0.00000000000E+00  0.45593999997E+02  0.45594000000E+02  0.51100000000E-03 0.  1.
         11   -1    0    0    0    0 -0.00000000000E+00 -0.00000000000E+00 -0.45593999997E+02  0.45594000000E+02  0.51100000000E-03 0. -1.
    9900012    2    1    2    0    0 -0.25986967990E+00  0.10726548235E+01  0.41790225915E+00  0.90007846231E+02  0.90000109001E+02 0.  0.
         12    1    1    2    0    0  0.25986967990E+00 -0.10726548235E+01 -0.41790225915E+00  0.11801537693E+01  0.00000000000E+00 0. -1.
         11    1    3    3    0    0  0.53245291046E+01 -0.89778725425E+01 -0.21167759631E+01  0.10650518594E+02  0.51100000000E-03 0. -1.
        -11    1    3    3    0    0 -0.12429842800E+02 -0.32534651787E+02  0.84043922876E+01  0.35827899310E+02  0.51100000000E-03 0.  1.
         12    1    3    3    0    0  0.68454440157E+01  0.42585179153E+02 -0.58697140654E+01  0.43529428327E+02  0.00000000000E+00 0. -1.
</event>
<event>
 7    1  0.2569312E-015  0.9000770E+02  0.7816164E-02  0.1186339E+00
        -11   -1    0    0    0    0  0.00000000000E+00  0.00000000000E+00  0.45593999997E+02  0.45594000000E+02  0.51100000000E-03 0. -1.
         11   -1    0    0    0    0 -0.00000000000E+00 -0.00000000000E+00 -0.45593999997E+02  0.45594000000E+02  0.51100000000E-03 0.  1.
    9900012    2    1    2    0    0 -0.18485454887E+00 -0.99116624944E+00 -0.61361476750E+00  0.90007701385E+02  0.89999962243E+02 0.  0.
         12    1    1    2    0    0  0.18485454887E+00  0.99116624944E+00  0.61361476750E+00  0.11802986153E+01  0.00000000000E+00 0. -1.
         11    1    3    3    0    0 -0.81882087640E+01  0.30593636319E+02 -0.10370426275E+02  0.33325111963E+02  0.51100000000E-03 0. -1.
        -11    1    3    3    0    0  0.14658288754E+02  0.56179432864E+01 -0.44351668302E+01  0.16312492791E+02  0.51100000000E-03 0.  1.
         12    1    3    3    0    0 -0.66549345391E+01 -0.37202745855E+02  0.14191978338E+02  0.40370096631E+02  0.00000000000E+00 0. -1.
</event>
<event>
 7    1  0.2569312E-015  0.9000770E+02  0.7816164E-02  0.1186339E+00
        -11   -1    0    0    0    0  0.00000000000E+00  0.00000000000E+00  0.45593999997E+02  0.45594000000E+02  0.51100000000E-03 0.  1.
         11   -1    0    0    0    0 -0.00000000000E+00 -0.00000000000E+00 -0.45593999997E+02  0.45594000000E+02  0.51100000000E-03 0. -1.
    9900012    2    1    2    0    0  0.10617773605E+00 -0.11454043746E+01 -0.26436466281E+00  0.90007697679E+02  0.89999958489E+02 0.  0.
         12    1    1    2    0    0 -0.10617773605E+00  0.11454043746E+01  0.26436466281E+00  0.11803023206E+01  0.00000000000E+00 0. -1.
         11    1    3    3    0    0  0.99083165620E+01 -0.27469745250E+01 -0.16144021680E+01  0.10408020982E+02  0.51100000000E-03 0. -1.
        -11    1    3    3    0    0  0.47874974356E+01  0.18273779134E+02  0.34730936698E+02  0.39535921637E+02  0.51100000000E-03 0.  1.
         12    1    3    3    0    0 -0.14589636262E+02 -0.16672208984E+02 -0.33380899193E+02  0.40063755061E+02  0.00000000000E+00 0. -1.
</event>
<event>
 7    1  0.2569312E-015  0.9000786E+02  0.7816164E-02  0.1186339E+00
        -11   -1    0    0    0    0  0.00000000000E+00  0.00000000000E+00  0.45593999997E+02  0.45594000000E+02  0.51100000000E-03 0.  1.
         11   -1    0    0    0    0 -0.00000000000E+00 -0.00000000000E+00 -0.45593999997E+02  0.45594000000E+02  0.51100000000E-03 0. -1.
    9900012    2    1    2    0    0  0.22295762558E+00  0.10823450063E+01 -0.41418473406E+00  0.90007860259E+02  0.90000123214E+02 0.  0.
         12    1    1    2    0    0 -0.22295762558E+00 -0.10823450063E+01  0.41418473406E+00  0.11801397414E+01  0.00000000000E+00 0. -1.
         11    1    3    3    0    0 -0.88521984998E+00  0.15905208062E+01 -0.10307123420E+02  0.10466621426E+02  0.51100000000E-03 0. -1.
        -11    1    3    3    0    0 -0.36327140401E+02  0.88403422019E+01  0.15647186185E+02  0.40529584451E+02  0.51100000000E-03 0.  1.
         12    1    3    3    0    0  0.37435317876E+02 -0.93485180019E+01 -0.57542474996E+01  0.39011654382E+02  0.00000000000E+00 0. -1.
</event>
<event>
 7    1  0.2569312E-015  0.9000774E+02  0.7816164E-02  0.1186339E+00
        -11   -1    0    0    0    0  0.00000000000E+00  0.00000000000E+00  0.45593999997E+02  0.45594000000E+02  0.51100000000E-03 0. -1.
         11   -1    0    0    0    0 -0.00000000000E+00 -0.00000000000E+00 -0.45593999997E+02  0.45594000000E+02  0.51100000000E-03 0.  1.
    9900012    2    1    2    0    0  0.38910894503E+00 -0.10407019090E+01  0.39817224371E+00  0.90007742668E+02  0.90000004071E+02 0.  0.
         12    1    1    2    0    0 -0.38910894503E+00  0.10407019090E+01 -0.39817224371E+00  0.11802573322E+01  0.00000000000E+00 0. -1.
         11    1    3    3    0    0 -0.61083638728E+00 -0.36468830161E+02 -0.43552866820E+00  0.36476545613E+02  0.51100000000E-03 0. -1.
        -11    1    3    3    0    0  0.15653158834E+01 -0.85480411475E+01  0.37284191054E+01  0.94562323661E+01  0.51100000000E-03 0.  1.
        -12    1    3    3    0    0 -0.56537055107E+00  0.43976169399E+02 -0.28947181935E+01  0.44074964689E+02  0.00000000000E+00 0.  1.
</event>
<event>
 7    1  0.2569312E-015  0.9000773E+02  0.7816164E-02  0.1186339E+00
        -11   -1    0    0    0    0  0.00000000000E+00  0.00000000000E+00  0.45593999997E+02  0.45594000000E+02  0.51100000000E-03 0.  1.
         11   -1    0    0    0    0 -0.00000000000E+00 -0.00000000000E+00 -0.45593999997E+02  0.45594000000E+02  0.51100000000E-03 0. -1.
    9900012    2    1    2    0    0 -0.93752728722E+00 -0.71697950977E+00 -0.49383160565E-02  0.90007728244E+02  0.89999989457E+02 0.  0.
         12    1    1    2    0    0  0.93752728722E+00  0.71697950977E+00  0.49383160565E-02  0.11802717563E+01  0.00000000000E+00 0. -1.
         11    1    3    3    0    0  0.21251206686E+00 -0.10163042380E+01  0.53128678054E+00  0.11663196761E+01  0.51100000000E-03 0. -1.
        -11    1    3    3    0    0  0.15996980686E+02 -0.17476655251E+02  0.36983793755E+02  0.43921952036E+02  0.51100000000E-03 0.  1.
         12    1    3    3    0    0 -0.17147020040E+02  0.17775979980E+02 -0.37520018852E+02  0.44919456532E+02  0.00000000000E+00 0. -1.
</event>
<event>
 7    1  0.2569312E-015  0.9000772E+02  0.7816164E-02  0.1186339E+00
        -11   -1    0    0    0    0  0.00000000000E+00  0.00000000000E+00  0.45593999997E+02  0.45594000000E+02  0.51100000000E-03 0. -1.
         11   -1    0    0    0    0 -0.00000000000E+00 -0.00000000000E+00 -0.45593999997E+02  0.45594000000E+02  0.51100000000E-03 0.  1.
    9900012    2    1    2    0    0 -0.49642659628E+00  0.47719965096E+00 -0.95858987663E+00  0.90007723158E+02  0.89999984304E+02 0.  0.
         12    1    1    2    0    0  0.49642659628E+00 -0.47719965096E+00  0.95858987663E+00  0.11802768421E+01  0.00000000000E+00 0. -1.
         11    1    3    3    0    0  0.88174109041E+00 -0.23656873520E+01 -0.70375980885E+01  0.74767460245E+01  0.51100000000E-03 0. -1.
        -11    1    3    3    0    0 -0.24308418630E+02 -0.26906330506E+01 -0.30445187939E+02  0.39051865402E+02  0.51100000000E-03 0.  1.
         12    1    3    3    0    0  0.22930250943E+02  0.55335200536E+01  0.36524196150E+02  0.43479111731E+02  0.00000000000E+00 0. -1.
</event>
<event>
 7    1  0.2569312E-015  0.9000761E+02  0.7816164E-02  0.1186339E+00
        -11   -1    0    0    0    0  0.00000000000E+00  0.00000000000E+00  0.45593999997E+02  0.45594000000E+02  0.51100000000E-03 0. -1.
         11   -1    0    0    0    0 -0.00000000000E+00 -0.00000000000E+00 -0.45593999997E+02  0.45594000000E+02  0.51100000000E-03 0.  1.
    9900012    2    1    2    0    0  0.85814144410E+00  0.78257407974E+00  0.21091342704E+00  0.90007613029E+02  0.89999872721E+02 0.  0.
         12    1    1    2    0    0 -0.85814144410E+00 -0.78257407974E+00 -0.21091342704E+00  0.11803869713E+01  0.00000000000E+00 0. -1.
         11    1    3    3    0    0 -0.81171740152E+01 -0.21718798963E+01  0.44872648567E+00  0.84146854960E+01  0.51100000000E-03 0. -1.
        -11    1    3    3    0    0 -0.30902509119E+02 -0.18715700709E+02 -0.18888724271E+01  0.36177484188E+02  0.51100000000E-03 0.  1.
         12    1    3    3    0    0  0.39877824578E+02  0.21670154685E+02  0.16510593684E+01  0.45415443345E+02  0.00000000000E+00 0. -1.
</event>
<event>
 7    1  0.2569312E-015  0.9000769E+02  0.7816164E-02  0.1186339E+00
        -11   -1    0    0    0    0  0.00000000000E+00  0.00000000000E+00  0.45593999997E+02  0.45594000000E+02  0.51100000000E-03 0.  1.
         11   -1    0    0    0    0 -0.00000000000E+00 -0.00000000000E+00 -0.45593999997E+02  0.45594000000E+02  0.51100000000E-03 0. -1.
    9900012    2    1    2    0    0 -0.47114512525E+00  0.10820406745E+01 -0.18489228975E-01  0.90007690040E+02  0.89999950748E+02 0.  0.
         12    1    1    2    0    0  0.47114512525E+00 -0.10820406745E+01  0.18489228975E-01  0.11803099601E+01  0.00000000000E+00 0. -1.
         11    1    3    3    0    0 -0.39976469262E+01  0.10120400044E+01 -0.78850774408E+01  0.88983061548E+01  0.51100000000E-03 0. -1.
        -11    1    3    3    0    0 -0.32450382506E+02 -0.21232393413E+02  0.14260051236E+01  0.38805609720E+02  0.51100000000E-03 0.  1.
         12    1    3    3    0    0  0.35976884307E+02  0.21302394083E+02  0.64405830882E+01  0.42303774165E+02  0.00000000000E+00 0. -1.
</event>
<event>
 7    1  0.2569312E-015  0.9000774E+02  0.7816164E-02  0.1186339E+00
        -11   -1    0    0    0    0  0.00000000000E+00  0.00000000000E+00  0.45593999997E+02  0.45594000000E+02  0.51100000000E-03 0.  1.
         11   -1    0    0    0    0 -0.00000000000E+00 -0.00000000000E+00 -0.45593999997E+02  0.45594000000E+02  0.51100000000E-03 0. -1.
    9900012    2    1    2    0    0 -0.66452091697E+00  0.97483186326E+00  0.33660842253E-01  0.90007738053E+02  0.89999999396E+02 0.  0.
         12    1    1    2    0    0  0.66452091697E+00 -0.97483186326E+00 -0.33660842253E-01  0.11802619468E+01  0.00000000000E+00 0. -1.
         11    1    3    3    0    0  0.70192068390E+01 -0.37944548835E+02  0.77141919393E+01  0.39351833610E+02  0.51100000000E-03 0. -1.
        -11    1    3    3    0    0  0.88407773326E+01  0.12414712776E+01 -0.12837157196E+01  0.90193414997E+01  0.51100000000E-03 0.  1.
        -12    1    3    3    0    0 -0.16524505089E+02  0.37677909421E+02 -0.63968153774E+01  0.41636562943E+02  0.00000000000E+00 0.  1.
</event>
<event>
 7    1  0.2569312E-015  0.9000780E+02  0.7816164E-02  0.1186339E+00
        -11   -1    0    0    0    0  0.00000000000E+00  0.00000000000E+00  0.45593999997E+02  0.45594000000E+02  0.51100000000E-03 0.  1.
         11   -1    0    0    0    0 -0.00000000000E+00 -0.00000000000E+00 -0.45593999997E+02  0.45594000000E+02  0.51100000000E-03 0. -1.
    9900012    2    1    2    0    0  0.11729868422E+01 -0.10152262806E+00 -0.81587129379E-01  0.90007804493E+02  0.90000066712E+02 0.  0.
         12    1    1    2    0    0 -0.11729868422E+01  0.10152262806E+00  0.81587129379E-01  0.11801955074E+01  0.00000000000E+00 0. -1.
         11    1    3    3    0    0  0.30498983585E+02  0.13601103286E+02  0.15437077866E+02  0.36789691268E+02  0.51100000000E-03 0. -1.
        -11    1    3    3    0    0  0.55215034351E+01 -0.37111120674E+01  0.76941320568E+01  0.10171480784E+02  0.51100000000E-03 0.  1.
        -12    1    3    3    0    0 -0.34847500177E+02 -0.99915138466E+01 -0.23212797052E+02  0.43046632441E+02  0.00000000000E+00 0.  1.
</event>
<event>
 7    1  0.2569312E-015  0.9000774E+02  0.7816164E-02  0.1186339E+00
        -11   -1    0    0    0    0  0.00000000000E+00  0.00000000000E+00  0.45593999997E+02  0.45594000000E+02  0.51100000000E-03 0. -1.
         11   -1    0    0    0    0 -0.00000000000E+00 -0.00000000000E+00 -0.45593999997E+02  0.45594000000E+02  0.51100000000E-03 0.  1.
    9900012    2    1    2    0    0 -0.11363430478E+00  0.46696215120E+00 -0.10779824692E+01  0.90007740448E+02  0.90000001822E+02 0.  0.
         12    1    1    2    0    0  0.11363430478E+00 -0.46696215120E+00  0.10779824692E+01  0.11802595519E+01  0.00000000000E+00 0. -1.
         11    1    3    3    0    0  0.20058914654E+01 -0.11083873506E+02  0.28018784882E+02  0.30198148271E+02  0.51100000000E-03 0. -1.
        -11    1    3    3    0    0  0.13861348038E+02 -0.15503559154E+02 -0.12685810994E+02  0.24360359536E+02  0.51100000000E-03 0.  1.
        -12    1    3    3    0    0 -0.15980873808E+02  0.27054394811E+02 -0.16410956357E+02  0.35449232641E+02  0.00000000000E+00 0.  1.
</event>
<event>
 7    1  0.2569312E-015  0.9000787E+02  0.7816164E-02  0.1186339E+00
        -11   -1    0    0    0    0  0.00000000000E+00  0.00000000000E+00  0.45593999997E+02  0.45594000000E+02  0.51100000000E-03 0.  1.
         11   -1    0    0    0    0 -0.00000000000E+00 -0.00000000000E+00 -0.45593999997E+02  0.45594000000E+02  0.51100000000E-03 0. -1.
    9900012    2    1    2    0    0  0.10224011869E+01  0.55958348366E+00  0.18512031404E+00  0.90007869756E+02  0.90000132837E+02 0.  0.
         12    1    1    2    0    0 -0.10224011869E+01 -0.55958348366E+00 -0.18512031404E+00  0.11801302440E+01  0.00000000000E+00 0. -1.
         11    1    3    3    0    0  0.27598179011E+02  0.22592429971E+02 -0.11351588013E+02  0.37429078634E+02  0.51100000000E-03 0. -1.
        -11    1    3    3    0    0 -0.75317932376E+01  0.51238435443E+01 -0.96109110594E+01  0.13242027552E+02  0.51100000000E-03 0.  1.
        -12    1    3    3    0    0 -0.19043984586E+02 -0.27156690032E+02  0.21147619386E+02  0.39336763570E+02  0.00000000000E+00 0.  1.
</event>
<event>
 7    1  0.2569312E-015  0.9000787E+02  0.7816164E-02  0.1186339E+00
        -11   -1    0    0    0    0  0.00000000000E+00  0.00000000000E+00  0.45593999997E+02  0.45594000000E+02  0.51100000000E-03 0.  1.
         11   -1    0    0    0    0 -0.00000000000E+00 -0.00000000000E+00 -0.45593999997E+02  0.45594000000E+02  0.51100000000E-03 0. -1.
    9900012    2    1    2    0    0 -0.26339682539E+00  0.98390833800E+00  0.59603738038E+00  0.90007866930E+02  0.90000129973E+02 0.  0.
         12    1    1    2    0    0  0.26339682539E+00 -0.98390833800E+00 -0.59603738038E+00  0.11801330705E+01  0.00000000000E+00 0. -1.
         11    1    3    3    0    0  0.10642169204E+01  0.63546185042E+01 -0.71596463644E+01  0.96319401115E+01  0.51100000000E-03 0. -1.
        -11    1    3    3    0    0 -0.37706301795E+02 -0.16795820034E+02  0.89070456281E+01  0.42227955524E+02  0.51100000000E-03 0.  1.
         12    1    3    3    0    0  0.36378688049E+02  0.11425109868E+02 -0.11513618833E+01  0.38147971294E+02  0.00000000000E+00 0. -1.
</event>
<event>
 7    1  0.2569312E-015  0.9000828E+02  0.7816164E-02  0.1186338E+00
        -11   -1    0    0    0    0  0.00000000000E+00  0.00000000000E+00  0.45593999997E+02  0.45594000000E+02  0.51100000000E-03 0.  1.
         11   -1    0    0    0    0 -0.00000000000E+00 -0.00000000000E+00 -0.45593999997E+02  0.45594000000E+02  0.51100000000E-03 0. -1.
    9900012    2    1    2    0    0 -0.79746393609E+00 -0.81759539749E+00  0.29549390210E+00  0.90008284946E+02  0.90000553505E+02 0.  0.
         12    1    1    2    0    0  0.79746393609E+00  0.81759539749E+00 -0.29549390210E+00  0.11797150544E+01  0.00000000000E+00 0. -1.
         11    1    3    3    0    0 -0.57238188063E+01 -0.64986822475E+01 -0.39806239038E+01  0.95310198618E+01  0.51100000000E-03 0. -1.
        -11    1    3    3    0    0  0.28184878785E+02  0.57891965841E+01 -0.28360566351E+02  0.40400790998E+02  0.51100000000E-03 0.  1.
         12    1    3    3    0    0 -0.23258523915E+02 -0.10810973405E+00  0.32636684157E+02  0.40076474086E+02  0.00000000000E+00 0. -1.
</event>
<event>
 7    1  0.2569312E-015  0.9000779E+02  0.7816164E-02  0.1186339E+00
        -11   -1    0    0    0    0  0.00000000000E+00  0.00000000000E+00  0.45593999997E+02  0.45594000000E+02  0.51100000000E-03 0.  1.
         11   -1    0    0    0    0 -0.00000000000E+00 -0.00000000000E+00 -0.45593999997E+02  0.45594000000E+02  0.51100000000E-03 0. -1.
    9900012    2    1    2    0    0  0.11367602539E+01  0.16106439451E+00 -0.27338442160E+00  0.90007786182E+02  0.90000048160E+02 0.  0.
         12    1    1    2    0    0 -0.11367602539E+01 -0.16106439451E+00  0.27338442160E+00  0.11802138179E+01  0.00000000000E+00 0. -1.
         11    1    3    3    0    0  0.11820618271E+02  0.26650222207E+02 -0.17777662813E+02  0.34146839610E+02  0.51100000000E-03 0. -1.
        -11    1    3    3    0    0 -0.58457695016E+01  0.98124842946E+01 -0.54331432460E+01  0.12648198089E+02  0.51100000000E-03 0.  1.
        -12    1    3    3    0    0 -0.48380885151E+01 -0.36301642107E+02  0.22937421637E+02  0.43212748484E+02  0.00000000000E+00 0.  1.
</event>
<event>
 7    1  0.2569312E-015  0.9000765E+02  0.7816164E-02  0.1186339E+00
        -11   -1    0    0    0    0  0.00000000000E+00  0.00000000000E+00  0.45593999997E+02  0.45594000000E+02  0.51100000000E-03 0. -1.
         11   -1    0    0    0    0 -0.00000000000E+00 -0.00000000000E+00 -0.45593999997E+02  0.45594000000E+02  0.51100000000E-03 0.  1.
    9900012    2    1    2    0    0 -0.64256179911E+00  0.33181510912E+00 -0.93287236402E+00  0.90007645062E+02  0.89999905177E+02 0.  0.
         12    1    1    2    0    0  0.64256179911E+00 -0.33181510912E+00  0.93287236402E+00  0.11803549381E+01  0.00000000000E+00 0. -1.
         11    1    3    3    0    0  0.69735515920E+01  0.32169528516E+01 -0.47703043735E+01  0.90407417579E+01  0.51100000000E-03 0. -1.
        -11    1    3    3    0    0 -0.12517020894E+02  0.13602005296E+02 -0.34392829008E+02  0.39045576543E+02  0.51100000000E-03 0.  1.
         12    1    3    3    0    0  0.49009075027E+01 -0.16487143038E+02  0.38230261018E+02  0.41921326761E+02  0.00000000000E+00 0. -1.
</event>
<event>
 7    1  0.2569312E-015  0.9000778E+02  0.7816164E-02  0.1186339E+00
        -11   -1    0    0    0    0  0.00000000000E+00  0.00000000000E+00  0.45593999997E+02  0.45594000000E+02  0.51100000000E-03 0.  1.
         11   -1    0    0    0    0 -0.00000000000E+00 -0.00000000000E+00 -0.45593999997E+02  0.45594000000E+02  0.51100000000E-03 0. -1.
    9900012    2    1    2    0    0 -0.99495912306E+00 -0.63392918454E+00 -0.33298107504E-01  0.90007780261E+02  0.90000042161E+02 0.  0.
         12    1    1    2    0    0  0.99495912306E+00  0.63392918454E+00  0.33298107504E-01  0.11802197387E+01  0.00000000000E+00 0. -1.
         11    1    3    3    0    0  0.25055645178E+02  0.21855629606E+02 -0.11638465367E+02  0.35226520934E+02  0.51100000000E-03 0. -1.
        -11    1    3    3    0    0  0.70857257921E+01  0.49047015742E+01 -0.33714669535E+01  0.92536693918E+01  0.51100000000E-03 0.  1.
        -12    1    3    3    0    0 -0.33136330094E+02 -0.27394260364E+02  0.14976634213E+02  0.45527589935E+02  0.00000000000E+00 0.  1.
</event>
<event>
 7    1  0.2569312E-015  0.9000775E+02  0.7816164E-02  0.1186339E+00
        -11   -1    0    0    0    0  0.00000000000E+00  0.00000000000E+00  0.45593999997E+02  0.45594000000E+02  0.51100000000E-03 0. -1.
         11   -1    0    0    0    0 -0.00000000000E+00 -0.00000000000E+00 -0.45593999997E+02  0.45594000000E+02  0.51100000000E-03 0.  1.
    9900012    2    1    2    0    0 -0.70902100895E+00 -0.66034433831E+00 -0.67395527115E+00  0.90007753778E+02  0.90000015328E+02 0.  0.
         12    1    1    2    0    0  0.70902100895E+00  0.66034433831E+00  0.67395527115E+00  0.11802462217E+01  0.00000000000E+00 0. -1.
         11    1    3    3    0    0 -0.82288508415E+01  0.61551831846E+01 -0.18539190543E+02  0.21196741553E+02  0.51100000000E-03 0. -1.
        -11    1    3    3    0    0  0.34608704248E+02  0.67323367716E+01  0.39449333244E+01  0.35477447305E+02  0.51100000000E-03 0.  1.
         12    1    3    3    0    0 -0.27088874415E+02 -0.13547864295E+02  0.13920301947E+02  0.33333564921E+02  0.00000000000E+00 0. -1.
</event>
<event>
 7    1  0.2569312E-015  0.9000780E+02  0.7816164E-02  0.1186339E+00
        -11   -1    0    0    0    0  0.00000000000E+00  0.00000000000E+00  0.45593999997E+02  0.45594000000E+02  0.51100000000E-03 0. -1.
         11   -1    0    0    0    0 -0.00000000000E+00 -0.00000000000E+00 -0.45593999997E+02  0.45594000000E+02  0.51100000000E-03 0.  1.
    9900012    2    1    2    0    0  0.31407588534E+00  0.11059062158E+01 -0.26682203925E+00  0.90007802465E+02  0.90000064658E+02 0.  0.
         12    1    1    2    0    0 -0.31407588534E+00 -0.11059062158E+01  0.26682203925E+00  0.11801975345E+01  0.00000000000E+00 0. -1.
         11    1    3    3    0    0 -0.44666993854E+01  0.87835749463E+01  0.65641121482E+00  0.98759034109E+01  0.51100000000E-03 0. -1.
        -11    1    3    3    0    0 -0.21234370767E+02  0.14580019850E+02 -0.26833428416E+02  0.37195542227E+02  0.51100000000E-03 0.  1.
         12    1    3    3    0    0  0.26015146038E+02 -0.22257688581E+02  0.25910195162E+02  0.42936356828E+02  0.00000000000E+00 0. -1.
</event>
<event>
 7    1  0.2569312E-015  0.9000766E+02  0.7816164E-02  0.1186339E+00
        -11   -1    0    0    0    0  0.00000000000E+00  0.00000000000E+00  0.45593999997E+02  0.45594000000E+02  0.51100000000E-03 0.  1.
         11   -1    0    0    0    0 -0.00000000000E+00 -0.00000000000E+00 -0.45593999997E+02  0.45594000000E+02  0.51100000000E-03 0. -1.
    9900012    2    1    2    0    0  0.85268200328E+00 -0.55881990434E+00  0.59486168336E+00  0.90007658225E+02  0.89999918513E+02 0.  0.
         12    1    1    2    0    0 -0.85268200328E+00  0.55881990434E+00 -0.59486168336E+00  0.11803417753E+01  0.00000000000E+00 0. -1.
         11    1    3    3    0    0 -0.10761199735E+01  0.11704106771E+02 -0.12099325474E+02  0.16868249070E+02  0.51100000000E-03 0. -1.
        -11    1    3    3    0    0 -0.30236413681E+02  0.10940361050E+02  0.84863658652E+01  0.33255835849E+02  0.51100000000E-03 0.  1.
         12    1    3    3    0    0  0.32165215658E+02 -0.23203287725E+02  0.42078212923E+01  0.39883573305E+02  0.00000000000E+00 0. -1.
</event>
<event>
 7    1  0.2569312E-015  0.9000772E+02  0.7816164E-02  0.1186339E+00
        -11   -1    0    0    0    0  0.00000000000E+00  0.00000000000E+00  0.45593999997E+02  0.45594000000E+02  0.51100000000E-03 0.  1.
         11   -1    0    0    0    0 -0.00000000000E+00 -0.00000000000E+00 -0.45593999997E+02  0.45594000000E+02  0.51100000000E-03 0. -1.
    9900012    2    1    2    0    0  0.96728454140E+00 -0.39493237048E+00  0.54905276946E+00  0.90007716176E+02  0.89999977230E+02 0.  0.
         12    1    1    2    0    0 -0.96728454140E+00  0.39493237048E+00 -0.54905276946E+00  0.11802838239E+01  0.00000000000E+00 0. -1.
         11    1    3    3    0    0 -0.93087271164E+01 -0.21888128312E+02 -0.28263429731E+02  0.36940005711E+02  0.51100000000E-03 0. -1.
        -11    1    3    3    0    0  0.12403498274E+01 -0.55481626257E+01 -0.58692121356E+01  0.81711827522E+01  0.51100000000E-03 0.  1.
        -12    1    3    3    0    0  0.90356618304E+01  0.27041358567E+02  0.34681694636E+02  0.44896527713E+02  0.00000000000E+00 0.  1.
</event>
<event>
 7    1  0.2569312E-015  0.9000818E+02  0.7816164E-02  0.1186338E+00
        -11   -1    0    0    0    0  0.00000000000E+00  0.00000000000E+00  0.45593999997E+02  0.45594000000E+02  0.51100000000E-03 0.  1.
         11   -1    0    0    0    0 -0.00000000000E+00 -0.00000000000E+00 -0.45593999997E+02  0.45594000000E+02  0.51100000000E-03 0. -1.
    9900012    2    1    2    0    0 -0.83197160113E+00  0.64404319492E+00 -0.53386467370E+00  0.90008178034E+02  0.90000445183E+02 0.  0.
         12    1    1    2    0    0  0.83197160113E+00 -0.64404319492E+00  0.53386467370E+00  0.11798219662E+01  0.00000000000E+00 0. -1.
         11    1    3    3    0    0  0.32722032497E+02 -0.13733522878E+02 -0.23287440653E+02  0.42445800190E+02  0.51100000000E-03 0. -1.
        -11    1    3    3    0    0 -0.38117391628E+01  0.64907930389E+01 -0.23127410587E+01  0.78745489512E+01  0.51100000000E-03 0.  1.
        -12    1    3    3    0    0 -0.29742264935E+02  0.78867730339E+01  0.25066317038E+02  0.39687828893E+02  0.00000000000E+00 0.  1.
</event>
<event>
 7    1  0.2569312E-015  0.9000777E+02  0.7816164E-02  0.1186339E+00
        -11   -1    0    0    0    0  0.00000000000E+00  0.00000000000E+00  0.45593999997E+02  0.45594000000E+02  0.51100000000E-03 0.  1.
         11   -1    0    0    0    0 -0.00000000000E+00 -0.00000000000E+00 -0.45593999997E+02  0.45594000000E+02  0.51100000000E-03 0. -1.
    9900012    2    1    2    0    0  0.37760698806E+00 -0.11178562983E+01 -0.27343641613E-01  0.90007772303E+02  0.90000034098E+02 0.  0.
         12    1    1    2    0    0 -0.37760698806E+00  0.11178562983E+01  0.27343641613E-01  0.11802276966E+01  0.00000000000E+00 0. -1.
         11    1    3    3    0    0 -0.21448987693E+02  0.21415994418E+02  0.18752388857E+02  0.35642053505E+02  0.51100000000E-03 0. -1.
        -11    1    3    3    0    0 -0.90251045531E+01  0.79573843809E+00  0.35183825214E+01  0.97192966661E+01  0.51100000000E-03 0.  1.
        -12    1    3    3    0    0  0.30851699234E+02 -0.23329589155E+02 -0.22298115020E+02  0.44646422132E+02  0.00000000000E+00 0.  1.
</event>
<event>
 7    1  0.2569312E-015  0.9000764E+02  0.7816164E-02  0.1186339E+00
        -11   -1    0    0    0    0  0.00000000000E+00  0.00000000000E+00  0.45593999997E+02  0.45594000000E+02  0.51100000000E-03 0.  1.
         11   -1    0    0    0    0 -0.00000000000E+00 -0.00000000000E+00 -0.45593999997E+02  0.45594000000E+02  0.51100000000E-03 0. -1.
    9900012    2    1    2    0    0  0.41504776485E+00  0.10373157665E+01 -0.38072227735E+00  0.90007644927E+02  0.89999905040E+02 0.  0.
         12    1    1    2    0    0 -0.41504776485E+00 -0.10373157665E+01  0.38072227735E+00  0.11803550733E+01  0.00000000000E+00 0. -1.
         11    1    3    3    0    0 -0.29407815453E+01 -0.45658435566E+01  0.84489881106E+01  0.10043929701E+02  0.51100000000E-03 0. -1.
        -11    1    3    3    0    0 -0.34087959535E+02  0.17431374718E+02  0.43747525544E+01  0.38535441739E+02  0.51100000000E-03 0.  1.
         12    1    3    3    0    0  0.37443788845E+02 -0.11828215395E+02 -0.13204462942E+02  0.41428273487E+02  0.00000000000E+00 0. -1.
</event>
<event>
 7    1  0.2569312E-015  0.9000788E+02  0.7816164E-02  0.1186339E+00
        -11   -1    0    0    0    0  0.00000000000E+00  0.00000000000E+00  0.45593999997E+02  0.45594000000E+02  0.51100000000E-03 0. -1.
         11   -1    0    0    0    0 -0.00000000000E+00 -0.00000000000E+00 -0.45593999997E+02  0.45594000000E+02  0.51100000000E-03 0.  1.
    9900012    2    1    2    0    0 -0.11261986449E+01  0.27432755891E+00 -0.22159291995E+00  0.90007880337E+02  0.90000143557E+02 0.  0.
         12    1    1    2    0    0  0.11261986449E+01 -0.27432755891E+00  0.22159291995E+00  0.11801196632E+01  0.00000000000E+00 0. -1.
         11    1    3    3    0    0 -0.28134209980E+02 -0.18671813997E+02  0.69626782225E+01  0.34476793607E+02  0.51100000000E-03 0. -1.
        -11    1    3    3    0    0 -0.94149724759E+01 -0.45719119016E+01  0.32083164401E+01  0.10947026071E+02  0.51100000000E-03 0.  1.
        -12    1    3    3    0    0  0.36422983811E+02  0.23518053457E+02 -0.10392587583E+02  0.44584060659E+02  0.00000000000E+00 0.  1.
</event>
<event>
 7    1  0.2569312E-015  0.9000773E+02  0.7816164E-02  0.1186339E+00
        -11   -1    0    0    0    0  0.00000000000E+00  0.00000000000E+00  0.45593999997E+02  0.45594000000E+02  0.51100000000E-03 0. -1.
         11   -1    0    0    0    0 -0.00000000000E+00 -0.00000000000E+00 -0.45593999997E+02  0.45594000000E+02  0.51100000000E-03 0.  1.
    9900012    2    1    2    0    0  0.10167419712E+01 -0.54277362732E+00  0.25428916932E+00  0.90007732900E+02  0.89999994174E+02 0.  0.
         12    1    1    2    0    0 -0.10167419712E+01  0.54277362732E+00 -0.25428916932E+00  0.11802671004E+01  0.00000000000E+00 0. -1.
         11    1    3    3    0    0  0.11743113864E+02  0.30102823242E+01 -0.29868654987E+01  0.12485346958E+02  0.51100000000E-03 0. -1.
        -11    1    3    3    0    0 -0.13827540307E+02  0.22665077491E+02 -0.26665945107E+02  0.37629499562E+02  0.51100000000E-03 0.  1.
         12    1    3    3    0    0  0.31011684140E+01 -0.26218133442E+02  0.29907099775E+02  0.39892886379E+02  0.00000000000E+00 0. -1.
</event>
<event>
 7    1  0.2717351E-015  0.9000801E+02  0.7816164E-02  0.1186339E+00
        -11   -1    0    0    0    0  0.00000000000E+00  0.00000000000E+00  0.45593999997E+02  0.45594000000E+02  0.51100000000E-03 0.  1.
         11   -1    0    0    0    0 -0.00000000000E+00 -0.00000000000E+00 -0.45593999997E+02  0.45594000000E+02  0.51100000000E-03 0. -1.
    9900012    2    1    2    0    0 -0.85614678704E+00  0.42565822821E+00  0.69152460089E+00  0.90008009101E+02  0.90000274021E+02 0.  0.
         12    1    1    2    0    0  0.85614678704E+00 -0.42565822821E+00 -0.69152460089E+00  0.11799908991E+01  0.00000000000E+00 0. -1.
         11    1    3    3    0    0 -0.29205995065E+02  0.95155548078E+01 -0.28794814798E+02  0.42103174353E+02  0.51100000000E-03 0. -1.
        -11    1    3    3    0    0  0.39179930684E+01  0.72461147452E+01  0.48838503462E+01  0.95764734140E+01  0.51100000000E-03 0.  1.
        -12    1    3    3    0    0  0.24431855209E+02 -0.16336011325E+02  0.24602489053E+02  0.38328361334E+02  0.00000000000E+00 0.  1.
</event>
<event>
 7    1  0.2569312E-015  0.9000772E+02  0.7816164E-02  0.1186339E+00
        -11   -1    0    0    0    0  0.00000000000E+00  0.00000000000E+00  0.45593999997E+02  0.45594000000E+02  0.51100000000E-03 0.  1.
         11   -1    0    0    0    0 -0.00000000000E+00 -0.00000000000E+00 -0.45593999997E+02  0.45594000000E+02  0.51100000000E-03 0. -1.
    9900012    2    1    2    0    0 -0.49121504301E+00 -0.74254801441E+00  0.77484700684E+00  0.90007721365E+02  0.89999982487E+02 0.  0.
         12    1    1    2    0    0  0.49121504301E+00  0.74254801441E+00 -0.77484700684E+00  0.11802786350E+01  0.00000000000E+00 0. -1.
         11    1    3    3    0    0 -0.56798202403E+01 -0.36514049475E+01  0.53914320749E+00  0.67737575770E+01  0.51100000000E-03 0. -1.
        -11    1    3    3    0    0 -0.22093790319E+02  0.29025596342E+02 -0.18692718778E+02  0.40988273313E+02  0.51100000000E-03 0.  1.
         12    1    3    3    0    0  0.27282395516E+02 -0.26116739409E+02  0.18928422577E+02  0.42245690475E+02  0.00000000000E+00 0. -1.
</event>
<event>
 7    1  0.2569312E-015  0.9000777E+02  0.7816164E-02  0.1186339E+00
        -11   -1    0    0    0    0  0.00000000000E+00  0.00000000000E+00  0.45593999997E+02  0.45594000000E+02  0.51100000000E-03 0.  1.
         11   -1    0    0    0    0 -0.00000000000E+00 -0.00000000000E+00 -0.45593999997E+02  0.45594000000E+02  0.51100000000E-03 0. -1.
    9900012    2    1    2    0    0 -0.71727173295E+00  0.35524101472E+00  0.86733716185E+00  0.90007767536E+02  0.90000029267E+02 0.  0.
         12    1    1    2    0    0  0.71727173295E+00 -0.35524101472E+00 -0.86733716185E+00  0.11802324643E+01  0.00000000000E+00 0. -1.
         11    1    3    3    0    0  0.66130188057E+01  0.67883327111E+01  0.95326664263E+01  0.13441919810E+02  0.51100000000E-03 0. -1.
        -11    1    3    3    0    0 -0.37733150291E+01  0.93186984427E+01  0.31611845554E+02  0.33172048875E+02  0.51100000000E-03 0.  1.
         12    1    3    3    0    0 -0.35569755096E+01 -0.15751790139E+02 -0.40277174818E+02  0.43393798851E+02  0.00000000000E+00 0. -1.
</event>
<event>
 7    1  0.2569312E-015  0.9000771E+02  0.7816164E-02  0.1186339E+00
        -11   -1    0    0    0    0  0.00000000000E+00  0.00000000000E+00  0.45593999997E+02  0.45594000000E+02  0.51100000000E-03 0. -1.
         11   -1    0    0    0    0 -0.00000000000E+00 -0.00000000000E+00 -0.45593999997E+02  0.45594000000E+02  0.51100000000E-03 0.  1.
    9900012    2    1    2    0    0 -0.10662973266E+01  0.50139791249E+00  0.68550396056E-01  0.90007708082E+02  0.89999969029E+02 0.  0.
         12    1    1    2    0    0  0.10662973266E+01 -0.50139791249E+00 -0.68550396056E-01  0.11802919182E+01  0.00000000000E+00 0. -1.
         11    1    3    3    0    0 -0.97530997034E+01 -0.35157062581E+02  0.57164386922E+01  0.36929929254E+02  0.51100000000E-03 0. -1.
        -11    1    3    3    0    0 -0.64661230417E+01 -0.57377467997E+01 -0.80133440323E-01  0.86451666934E+01  0.51100000000E-03 0.  1.
        -12    1    3    3    0    0  0.15152925419E+02  0.41396207293E+02 -0.55677548559E+01  0.44432612134E+02  0.00000000000E+00 0.  1.
</event>
<event>
 7    1  0.2569312E-015  0.9000774E+02  0.7816164E-02  0.1186339E+00
        -11   -1    0    0    0    0  0.00000000000E+00  0.00000000000E+00  0.45593999997E+02  0.45594000000E+02  0.51100000000E-03 0.  1.
         11   -1    0    0    0    0 -0.00000000000E+00 -0.00000000000E+00 -0.45593999997E+02  0.45594000000E+02  0.51100000000E-03 0. -1.
    9900012    2    1    2    0    0  0.48514362420E+00  0.91304887855E+00  0.56920061514E+00  0.90007740736E+02  0.90000002113E+02 0.  0.
         12    1    1    2    0    0 -0.48514362420E+00 -0.91304887855E+00 -0.56920061514E+00  0.11802592643E+01  0.00000000000E+00 0. -1.
         11    1    3    3    0    0 -0.19850604692E+02 -0.24659368725E+02 -0.14546849236E+02  0.34838797274E+02  0.51100000000E-03 0. -1.
        -11    1    3    3    0    0 -0.50513414050E+01 -0.39066158852E+01 -0.77506420759E+01  0.10042417563E+02  0.51100000000E-03 0.  1.
        -12    1    3    3    0    0  0.25387089721E+02  0.29479033489E+02  0.22866691927E+02  0.45126525898E+02  0.00000000000E+00 0.  1.
</event>
<event>
 7    1  0.2569312E-015  0.9000780E+02  0.7816164E-02  0.1186339E+00
        -11   -1    0    0    0    0  0.00000000000E+00  0.00000000000E+00  0.45593999997E+02  0.45594000000E+02  0.51100000000E-03 0.  1.
         11   -1    0    0    0    0 -0.00000000000E+00 -0.00000000000E+00 -0.45593999997E+02  0.45594000000E+02  0.51100000000E-03 0. -1.
    9900012    2    1    2    0    0  0.91964098662E+00  0.58696314863E+00  0.45011585317E+00  0.90007801049E+02  0.90000063223E+02 0.  0.
         12    1    1    2    0    0 -0.91964098662E+00 -0.58696314863E+00 -0.45011585317E+00  0.11801989508E+01  0.00000000000E+00 0. -1.
         11    1    3    3    0    0  0.54763531614E+01 -0.22133300290E+00  0.58469607421E+01  0.80141364119E+01  0.51100000000E-03 0. -1.
        -11    1    3    3    0    0  0.26435757734E+02  0.47980712724E+01  0.26219397890E+02  0.37541012252E+02  0.51100000000E-03 0.  1.
         12    1    3    3    0    0 -0.30992469909E+02 -0.39897751208E+01 -0.31616242779E+02  0.44452652385E+02  0.00000000000E+00 0. -1.
</event>
<event>
 7    1  0.2569312E-015  0.9000762E+02  0.7816164E-02  0.1186339E+00
        -11   -1    0    0    0    0  0.00000000000E+00  0.00000000000E+00  0.45593999997E+02  0.45594000000E+02  0.51100000000E-03 0.  1.
         11   -1    0    0    0    0 -0.00000000000E+00 -0.00000000000E+00 -0.45593999997E+02  0.45594000000E+02  0.51100000000E-03 0. -1.
    9900012    2    1    2    0    0 -0.93663466920E+00  0.41279670378E+00  0.58789517700E+00  0.90007616011E+02  0.89999875742E+02 0.  0.
         12    1    1    2    0    0  0.93663466920E+00 -0.41279670378E+00 -0.58789517700E+00  0.11803839889E+01  0.00000000000E+00 0. -1.
         11    1    3    3    0    0 -0.59176503884E+01 -0.70596779758E+01 -0.11490693186E+01  0.92832106408E+01  0.51100000000E-03 0. -1.
        -11    1    3    3    0    0 -0.16797222806E+02  0.38893180145E+02 -0.11916211155E+01  0.42382143845E+02  0.51100000000E-03 0.  1.
         12    1    3    3    0    0  0.21778238525E+02 -0.31420705465E+02  0.29285856110E+01  0.38342261525E+02  0.00000000000E+00 0. -1.
</event>
<event>
 7    1  0.2569312E-015  0.9000739E+02  0.7816164E-02  0.1186340E+00
        -11   -1    0    0    0    0  0.00000000000E+00  0.00000000000E+00  0.45593999997E+02  0.45594000000E+02  0.51100000000E-03 0. -1.
         11   -1    0    0    0    0 -0.00000000000E+00 -0.00000000000E+00 -0.45593999997E+02  0.45594000000E+02  0.51100000000E-03 0.  1.
    9900012    2    1    2    0    0  0.55832464468E-01  0.10588374996E+01 -0.51922198019E+00  0.90007387625E+02  0.89999644341E+02 0.  0.
         12    1    1    2    0    0 -0.55832464468E-01 -0.10588374996E+01  0.51922198019E+00  0.11806123747E+01  0.00000000000E+00 0. -1.
         11    1    3    3    0    0 -0.70840382008E+01  0.42203450802E+01  0.61740038600E+01  0.10301127790E+02  0.51100000000E-03 0. -1.
        -11    1    3    3    0    0 -0.19043713245E+02 -0.17724421916E+02 -0.31467539838E+02  0.40829207807E+02  0.51100000000E-03 0.  1.
         12    1    3    3    0    0  0.26183583910E+02  0.14562914335E+02  0.24774313998E+02  0.38877052028E+02  0.00000000000E+00 0. -1.
</event>
<event>
 7    1  0.2569312E-015  0.9000776E+02  0.7816164E-02  0.1186339E+00
        -11   -1    0    0    0    0  0.00000000000E+00  0.00000000000E+00  0.45593999997E+02  0.45594000000E+02  0.51100000000E-03 0.  1.
         11   -1    0    0    0    0 -0.00000000000E+00 -0.00000000000E+00 -0.45593999997E+02  0.45594000000E+02  0.51100000000E-03 0. -1.
    9900012    2    1    2    0    0 -0.66989143869E+00 -0.39781496110E+00  0.88653899294E+00  0.90007761605E+02  0.90000023258E+02 0.  0.
         12    1    1    2    0    0  0.66989143869E+00  0.39781496110E+00 -0.88653899294E+00  0.11802383949E+01  0.00000000000E+00 0. -1.
         11    1    3    3    0    0 -0.68202472358E+00  0.70130791519E+01  0.81699220875E+01  0.10788700760E+02  0.51100000000E-03 0. -1.
        -11    1    3    3    0    0  0.15176027149E+01  0.23425577988E+02  0.25175904989E+02  0.34422187821E+02  0.51100000000E-03 0.  1.
         12    1    3    3    0    0 -0.15054694300E+01 -0.30836472101E+02 -0.32459288084E+02  0.44796873024E+02  0.00000000000E+00 0. -1.
</event>
<event>
 7    1  0.2569312E-015  0.9000786E+02  0.7816164E-02  0.1186339E+00
        -11   -1    0    0    0    0  0.00000000000E+00  0.00000000000E+00  0.45593999997E+02  0.45594000000E+02  0.51100000000E-03 0.  1.
         11   -1    0    0    0    0 -0.00000000000E+00 -0.00000000000E+00 -0.45593999997E+02  0.45594000000E+02  0.51100000000E-03 0. -1.
    9900012    2    1    2    0    0  0.10212952482E+01  0.57746743535E+00 -0.12737222040E+00  0.90007857506E+02  0.90000120425E+02 0.  0.
         12    1    1    2    0    0 -0.10212952482E+01 -0.57746743535E+00  0.12737222040E+00  0.11801424937E+01  0.00000000000E+00 0. -1.
         11    1    3    3    0    0 -0.45976775660E+01 -0.86141218054E+01  0.18018617918E+01  0.99291711466E+01  0.51100000000E-03 0. -1.
        -11    1    3    3    0    0  0.15868716680E+02 -0.11736647096E+02 -0.34668225783E+02  0.39892993537E+02  0.51100000000E-03 0.  1.
         12    1    3    3    0    0 -0.10249743865E+02  0.20928236337E+02  0.32738991771E+02  0.40185692823E+02  0.00000000000E+00 0. -1.
</event>
<event>
 7    1  0.2569312E-015  0.9000771E+02  0.7816164E-02  0.1186339E+00
        -11   -1    0    0    0    0  0.00000000000E+00  0.00000000000E+00  0.45593999997E+02  0.45594000000E+02  0.51100000000E-03 0.  1.
         11   -1    0    0    0    0 -0.00000000000E+00 -0.00000000000E+00 -0.45593999997E+02  0.45594000000E+02  0.51100000000E-03 0. -1.
    9900012    2    1    2    0    0  0.74264699024E+00 -0.62706103528E+00  0.66959365188E+00  0.90007709463E+02  0.89999970427E+02 0.  0.
         12    1    1    2    0    0 -0.74264699024E+00  0.62706103528E+00 -0.66959365188E+00  0.11802905374E+01  0.00000000000E+00 0. -1.
         11    1    3    3    0    0 -0.43181670249E+01  0.13529795155E+01  0.89521065278E+01  0.10030819088E+02  0.51100000000E-03 0. -1.
        -11    1    3    3    0    0 -0.67260185972E+01 -0.21577179926E+02  0.28678016373E+02  0.36513595319E+02  0.51100000000E-03 0.  1.
         12    1    3    3    0    0  0.11786832612E+02  0.19597139376E+02 -0.36960529249E+02  0.43463295056E+02  0.00000000000E+00 0. -1.
</event>
<event>
 7    1  0.2569312E-015  0.9000784E+02  0.7816164E-02  0.1186339E+00
        -11   -1    0    0    0    0  0.00000000000E+00  0.00000000000E+00  0.45593999997E+02  0.45594000000E+02  0.51100000000E-03 0.  1.
         11   -1    0    0    0    0 -0.00000000000E+00 -0.00000000000E+00 -0.45593999997E+02  0.45594000000E+02  0.51100000000E-03 0. -1.
    9900012    2    1    2    0    0 -0.34414812452E+00 -0.78427629921E+00 -0.81193828877E+00  0.90007842794E+02  0.90000105519E+02 0.  0.
         12    1    1    2    0    0  0.34414812452E+00  0.78427629921E+00  0.81193828877E+00  0.11801572056E+01  0.00000000000E+00 0. -1.
         11    1    3    3    0    0 -0.27891622980E+01 -0.26135055604E+01  0.72489836061E+01  0.81949741440E+01  0.51100000000E-03 0. -1.
        -11    1    3    3    0    0  0.30238222610E+02 -0.16853274590E+02  0.18333719438E+02  0.39172799743E+02  0.51100000000E-03 0.  1.
         12    1    3    3    0    0 -0.27793208436E+02  0.18682503852E+02 -0.26394641333E+02  0.42640068907E+02  0.00000000000E+00 0. -1.
</event>
<event>
 7    1  0.2569312E-015  0.9000776E+02  0.7816164E-02  0.1186339E+00
        -11   -1    0    0    0    0  0.00000000000E+00  0.00000000000E+00  0.45593999997E+02  0.45594000000E+02  0.51100000000E-03 0.  1.
         11   -1    0    0    0    0 -0.00000000000E+00 -0.00000000000E+00 -0.45593999997E+02  0.45594000000E+02  0.51100000000E-03 0. -1.
    9900012    2    1    2    0    0  0.44374732529E+00 -0.10518291423E+01 -0.29952541508E+00  0.90007757776E+02  0.90000019379E+02 0.  0.
         12    1    1    2    0    0 -0.44374732529E+00  0.10518291423E+01  0.29952541508E+00  0.11802422241E+01  0.00000000000E+00 0. -1.
         11    1    3    3    0    0 -0.14923597454E+02  0.14999068501E+01  0.10848383960E+02  0.18510832405E+02  0.51100000000E-03 0. -1.
        -11    1    3    3    0    0 -0.26936954639E+02 -0.76436095977E+01 -0.37654520906E+01  0.28252485247E+02  0.51100000000E-03 0.  1.
         12    1    3    3    0    0  0.42304299418E+02  0.50918736054E+01 -0.73824572846E+01  0.43244440124E+02  0.00000000000E+00 0. -1.
</event>
<event>
 7    1  0.2569312E-015  0.9000776E+02  0.7816164E-02  0.1186339E+00
        -11   -1    0    0    0    0  0.00000000000E+00  0.00000000000E+00  0.45593999997E+02  0.45594000000E+02  0.51100000000E-03 0. -1.
         11   -1    0    0    0    0 -0.00000000000E+00 -0.00000000000E+00 -0.45593999997E+02  0.45594000000E+02  0.51100000000E-03 0.  1.
    9900012    2    1    2    0    0 -0.52296693660E+00 -0.12463462670E+00 -0.10506791796E+01  0.90007764877E+02  0.90000026573E+02 0.  0.
         12    1    1    2    0    0  0.52296693660E+00  0.12463462670E+00  0.10506791796E+01  0.11802351229E+01  0.00000000000E+00 0. -1.
         11    1    3    3    0    0 -0.15290804844E+02  0.32924919136E+02 -0.15708361619E+02  0.39555172075E+02  0.51100000000E-03 0. -1.
        -11    1    3    3    0    0 -0.93273884076E+01 -0.15650596713E+02  0.84838801765E+01  0.20097700741E+02  0.51100000000E-03 0.  1.
        -12    1    3    3    0    0  0.24095226315E+02 -0.17398957050E+02  0.61738022630E+01  0.30354892060E+02  0.00000000000E+00 0.  1.
</event>
<event>
 7    1  0.2569312E-015  0.9000772E+02  0.7816164E-02  0.1186339E+00
        -11   -1    0    0    0    0  0.00000000000E+00  0.00000000000E+00  0.45593999997E+02  0.45594000000E+02  0.51100000000E-03 0. -1.
         11   -1    0    0    0    0 -0.00000000000E+00 -0.00000000000E+00 -0.45593999997E+02  0.45594000000E+02  0.51100000000E-03 0.  1.
    9900012    2    1    2    0    0 -0.18956526332E+00  0.34709447261E+00 -0.11120440258E+01  0.90007723983E+02  0.89999985139E+02 0.  0.
         12    1    1    2    0    0  0.18956526332E+00 -0.34709447261E+00  0.11120440258E+01  0.11802760174E+01  0.00000000000E+00 0. -1.
         11    1    3    3    0    0 -0.27419465639E+02  0.20256448918E+02  0.20278212140E+02  0.39665560711E+02  0.51100000000E-03 0. -1.
        -11    1    3    3    0    0  0.62583611349E+01  0.48139486584E+01  0.42880504515E+01  0.89849074962E+01  0.51100000000E-03 0.  1.
        -12    1    3    3    0    0  0.20971539241E+02 -0.24723303104E+02 -0.25678306617E+02  0.41357255775E+02  0.00000000000E+00 0.  1.
</event>
<event>
 7    1  0.2569312E-015  0.9000765E+02  0.7816164E-02  0.1186339E+00
        -11   -1    0    0    0    0  0.00000000000E+00  0.00000000000E+00  0.45593999997E+02  0.45594000000E+02  0.51100000000E-03 0.  1.
         11   -1    0    0    0    0 -0.00000000000E+00 -0.00000000000E+00 -0.45593999997E+02  0.45594000000E+02  0.51100000000E-03 0. -1.
    9900012    2    1    2    0    0 -0.57582678143E+00 -0.78776471599E+00  0.66414137332E+00  0.90007646878E+02  0.89999907016E+02 0.  0.
         12    1    1    2    0    0  0.57582678143E+00  0.78776471599E+00 -0.66414137332E+00  0.11803531225E+01  0.00000000000E+00 0. -1.
         11    1    3    3    0    0  0.37355592533E+01  0.20526997183E+01  0.88820502781E+01  0.98518422882E+01  0.51100000000E-03 0. -1.
        -11    1    3    3    0    0  0.94451480207E+01  0.36135438606E+02  0.25732559910E+01  0.37437980595E+02  0.51100000000E-03 0.  1.
         12    1    3    3    0    0 -0.13756534055E+02 -0.38975903040E+02 -0.10791164896E+02  0.42717823994E+02  0.00000000000E+00 0. -1.
</event>
<event>
 8    1  0.2569312E-015  0.9000774E+02  0.7816164E-02  0.1186339E+00
        -11   -1    0    0    0    0  0.00000000000E+00  0.00000000000E+00  0.45593999997E+02  0.45594000000E+02  0.51100000000E-03 0.  1.
         11   -1    0    0    0    0 -0.00000000000E+00 -0.00000000000E+00 -0.45593999997E+02  0.45594000000E+02  0.51100000000E-03 0. -1.
    9900012    2    1    2    0    0  0.53436004718E+00  0.92217808657E+00 -0.50701321018E+00  0.90007739233E+02  0.90000000591E+02 0.  0.
         23    2    3    3    0    0 -0.23149104972E+02  0.44655865062E+01 -0.11542441900E+02  0.63640279269E+02  0.57974431059E+02 0.  0.
         12    1    1    2    0    0 -0.53436004718E+00 -0.92217808657E+00  0.50701321018E+00  0.11802607672E+01  0.00000000000E+00 0. -1.
         11    1    4    4    0    0 -0.22959714609E+02 -0.17548910871E+02 -0.24680157022E+02  0.38002933026E+02  0.51100000000E-03 0. -1.
        -11    1    4    4    0    0 -0.18939036352E+00  0.22014497377E+02  0.13137715123E+02  0.25637346243E+02  0.51100000000E-03 0.  1.
        -12    1    3    3    0    0  0.23683465020E+02 -0.35434084196E+01  0.11035428690E+02  0.26367459963E+02  0.00000000000E+00 0.  1.
</event>
<event>
 7    1  0.2569312E-015  0.9000770E+02  0.7816164E-02  0.1186339E+00
        -11   -1    0    0    0    0  0.00000000000E+00  0.00000000000E+00  0.45593999997E+02  0.45594000000E+02  0.51100000000E-03 0.  1.
         11   -1    0    0    0    0 -0.00000000000E+00 -0.00000000000E+00 -0.45593999997E+02  0.45594000000E+02  0.51100000000E-03 0. -1.
    9900012    2    1    2    0    0 -0.90580189607E+00  0.58639534066E-01  0.75445207928E+00  0.90007697662E+02  0.89999958471E+02 0.  0.
         12    1    1    2    0    0  0.90580189607E+00 -0.58639534066E-01 -0.75445207928E+00  0.11803023383E+01  0.00000000000E+00 0. -1.
         11    1    3    3    0    0  0.12009881882E+02 -0.19521030416E+02 -0.23363221859E+02  0.32728397871E+02  0.51100000000E-03 0. -1.
        -11    1    3    3    0    0 -0.13753914836E+02 -0.12851703797E+02  0.44557772681E+01  0.19344002045E+02  0.51100000000E-03 0.  1.
        -12    1    3    3    0    0  0.83823105769E+00  0.32431373747E+02  0.19661896670E+02  0.37935297746E+02  0.00000000000E+00 0.  1.
</event>
<event>
 7    1  0.2569312E-015  0.9000776E+02  0.7816164E-02  0.1186339E+00
        -11   -1    0    0    0    0  0.00000000000E+00  0.00000000000E+00  0.45593999997E+02  0.45594000000E+02  0.51100000000E-03 0. -1.
         11   -1    0    0    0    0 -0.00000000000E+00 -0.00000000000E+00 -0.45593999997E+02  0.45594000000E+02  0.51100000000E-03 0.  1.
    9900012    2    1    2    0    0 -0.94719384932E+00 -0.54900108786E+00  0.44090524342E+00  0.90007756035E+02  0.90000017615E+02 0.  0.
         12    1    1    2    0    0  0.94719384932E+00  0.54900108786E+00 -0.44090524342E+00  0.11802439647E+01  0.00000000000E+00 0. -1.
         11    1    3    3    0    0 -0.10752782469E+02 -0.35671164460E+01  0.12222750050E+01  0.11394762262E+02  0.51100000000E-03 0. -1.
        -11    1    3    3    0    0  0.15813271962E+02  0.20936343330E+01 -0.37837113940E+02  0.41062027062E+02  0.51100000000E-03 0.  1.
         12    1    3    3    0    0 -0.60076833425E+01  0.92448102519E+00  0.37055744179E+02  0.37550966711E+02  0.00000000000E+00 0. -1.
</event>
<event>
 7    1  0.2569312E-015  0.9000771E+02  0.7816164E-02  0.1186339E+00
        -11   -1    0    0    0    0  0.00000000000E+00  0.00000000000E+00  0.45593999997E+02  0.45594000000E+02  0.51100000000E-03 0. -1.
         11   -1    0    0    0    0 -0.00000000000E+00 -0.00000000000E+00 -0.45593999997E+02  0.45594000000E+02  0.51100000000E-03 0.  1.
    9900012    2    1    2    0    0  0.86989445885E+00 -0.43202107989E+00 -0.67061358486E+00  0.90007711407E+02  0.89999972397E+02 0.  0.
         12    1    1    2    0    0 -0.86989445885E+00  0.43202107989E+00  0.67061358486E+00  0.11802885932E+01  0.00000000000E+00 0. -1.
         11    1    3    3    0    0 -0.24361984075E-02  0.79428640492E+01 -0.30967948128E+01  0.85252116462E+01  0.51100000000E-03 0. -1.
        -11    1    3    3    0    0 -0.28313956143E+01 -0.58625286929E+01 -0.39139144139E+02  0.39676928409E+02  0.51100000000E-03 0.  1.
         12    1    3    3    0    0  0.37037262716E+01 -0.25123564362E+01  0.41565325367E+02  0.41805571351E+02  0.00000000000E+00 0. -1.
</event>
<event>
 7    1  0.2569312E-015  0.9000773E+02  0.7816164E-02  0.1186339E+00
        -11   -1    0    0    0    0  0.00000000000E+00  0.00000000000E+00  0.45593999997E+02  0.45594000000E+02  0.51100000000E-03 0. -1.
         11   -1    0    0    0    0 -0.00000000000E+00 -0.00000000000E+00 -0.45593999997E+02  0.45594000000E+02  0.51100000000E-03 0.  1.
    9900012    2    1    2    0    0  0.95303800872E+00  0.54627134484E+00 -0.43167517271E+00  0.90007729996E+02  0.89999991232E+02 0.  0.
         12    1    1    2    0    0 -0.95303800872E+00 -0.54627134484E+00  0.43167517271E+00  0.11802700043E+01  0.00000000000E+00 0. -1.
         11    1    3    3    0    0 -0.58498727275E+00  0.95008300029E+01  0.23071220830E+01  0.97944266509E+01  0.51100000000E-03 0. -1.
        -11    1    3    3    0    0  0.60931036595E+01  0.13861525379E+02 -0.36325629294E+02  0.39355039600E+02  0.51100000000E-03 0.  1.
         12    1    3    3    0    0 -0.45550783781E+01 -0.22816084037E+02  0.33586832039E+02  0.40858263745E+02  0.00000000000E+00 0. -1.
</event>
<event>
 7    1  0.2569312E-015  0.9000770E+02  0.7816164E-02  0.1186339E+00
        -11   -1    0    0    0    0  0.00000000000E+00  0.00000000000E+00  0.45593999997E+02  0.45594000000E+02  0.51100000000E-03 0. -1.
         11   -1    0    0    0    0 -0.00000000000E+00 -0.00000000000E+00 -0.45593999997E+02  0.45594000000E+02  0.51100000000E-03 0.  1.
    9900012    2    1    2    0    0  0.49105237570E+00  0.87170228047E+00  0.62618026427E+00  0.90007703840E+02  0.89999964731E+02 0.  0.
         12    1    1    2    0    0 -0.49105237570E+00 -0.87170228047E+00 -0.62618026427E+00  0.11802961598E+01  0.00000000000E+00 0. -1.
         11    1    3    3    0    0  0.19402111931E+02 -0.25641263941E+02  0.18821818024E+02  0.37258250064E+02  0.51100000000E-03 0. -1.
        -11    1    3    3    0    0  0.69089474867E+01 -0.51595168397E+01 -0.25337097935E+01  0.89874276059E+01  0.51100000000E-03 0.  1.
        -12    1    3    3    0    0 -0.25820007042E+02  0.31672483061E+02 -0.15661927966E+02  0.43762026170E+02  0.00000000000E+00 0.  1.
</event>
<event>
 7    1  0.2569312E-015  0.9000772E+02  0.7816164E-02  0.1186339E+00
        -11   -1    0    0    0    0  0.00000000000E+00  0.00000000000E+00  0.45593999997E+02  0.45594000000E+02  0.51100000000E-03 0. -1.
         11   -1    0    0    0    0 -0.00000000000E+00 -0.00000000000E+00 -0.45593999997E+02  0.45594000000E+02  0.51100000000E-03 0.  1.
    9900012    2    1    2    0    0 -0.50746350940E-01 -0.10763754062E+01 -0.48155028944E+00  0.90007724656E+02  0.89999985821E+02 0.  0.
         12    1    1    2    0    0  0.50746350940E-01  0.10763754062E+01  0.48155028944E+00  0.11802753444E+01  0.00000000000E+00 0. -1.
         11    1    3    3    0    0  0.27382119878E+02 -0.12877952965E+02 -0.98597953743E+01  0.31825111574E+02  0.51100000000E-03 0. -1.
        -11    1    3    3    0    0  0.14222733451E+02  0.50615726609E+01  0.76999432847E+00  0.15116168699E+02  0.51100000000E-03 0.  1.
        -12    1    3    3    0    0 -0.41655599680E+02  0.67400048981E+01  0.86082507564E+01  0.43066444383E+02  0.00000000000E+00 0.  1.
</event>
<event>
 7    1  0.2569312E-015  0.9000783E+02  0.7816164E-02  0.1186339E+00
        -11   -1    0    0    0    0  0.00000000000E+00  0.00000000000E+00  0.45593999997E+02  0.45594000000E+02  0.51100000000E-03 0. -1.
         11   -1    0    0    0    0 -0.00000000000E+00 -0.00000000000E+00 -0.45593999997E+02  0.45594000000E+02  0.51100000000E-03 0.  1.
    9900012    2    1    2    0    0 -0.45144074113E+00  0.77879781810E+00 -0.76319813407E+00  0.90007832141E+02  0.90000094725E+02 0.  0.
         12    1    1    2    0    0  0.45144074113E+00 -0.77879781810E+00  0.76319813407E+00  0.11801678593E+01  0.00000000000E+00 0. -1.
         11    1    3    3    0    0 -0.11275378791E+02  0.30960228690E+02  0.22790830232E+02  0.40063597821E+02  0.51100000000E-03 0. -1.
        -11    1    3    3    0    0 -0.84690255837E+01 -0.22444745096E+01 -0.25084180143E+00  0.87649861398E+01  0.51100000000E-03 0.  1.
        -12    1    3    3    0    0  0.19292963634E+02 -0.27936956363E+02 -0.23303186565E+02  0.41179248180E+02  0.00000000000E+00 0.  1.
</event>
<event>
 7    1  0.2569312E-015  0.9000776E+02  0.7816164E-02  0.1186339E+00
        -11   -1    0    0    0    0  0.00000000000E+00  0.00000000000E+00  0.45593999997E+02  0.45594000000E+02  0.51100000000E-03 0. -1.
         11   -1    0    0    0    0 -0.00000000000E+00 -0.00000000000E+00 -0.45593999997E+02  0.45594000000E+02  0.51100000000E-03 0.  1.
    9900012    2    1    2    0    0 -0.44271752589E+00  0.34823359594E+00 -0.10371647278E+01  0.90007755908E+02  0.90000017486E+02 0.  0.
         12    1    1    2    0    0  0.44271752589E+00 -0.34823359594E+00  0.10371647278E+01  0.11802440924E+01  0.00000000000E+00 0. -1.
         11    1    3    3    0    0 -0.20390820761E+02  0.21772092322E+02  0.26504669489E+02  0.39903722638E+02  0.51100000000E-03 0. -1.
        -11    1    3    3    0    0  0.38508978451E+01  0.76673179694E+01 -0.63923315776E+01  0.10699489816E+02  0.51100000000E-03 0.  1.
        -12    1    3    3    0    0  0.16097205390E+02 -0.29091176696E+02 -0.21149502639E+02  0.39404543454E+02  0.00000000000E+00 0.  1.
</event>
<event>
 7    1  0.2569312E-015  0.9000772E+02  0.7816164E-02  0.1186339E+00
        -11   -1    0    0    0    0  0.00000000000E+00  0.00000000000E+00  0.45593999997E+02  0.45594000000E+02  0.51100000000E-03 0. -1.
         11   -1    0    0    0    0 -0.00000000000E+00 -0.00000000000E+00 -0.45593999997E+02  0.45594000000E+02  0.51100000000E-03 0.  1.
    9900012    2    1    2    0    0  0.49670071263E+00  0.96260454452E+00 -0.46877430647E+00  0.90007716789E+02  0.89999977851E+02 0.  0.
         12    1    1    2    0    0 -0.49670071263E+00 -0.96260454452E+00  0.46877430647E+00  0.11802832107E+01  0.00000000000E+00 0. -1.
         11    1    3    3    0    0 -0.12155880627E+02 -0.94433877511E+01  0.11889550160E+02  0.19450049082E+02  0.51100000000E-03 0. -1.
        -11    1    3    3    0    0 -0.61963716099E+01 -0.23383943530E+02 -0.19673077648E+02  0.31180664209E+02  0.51100000000E-03 0.  1.
        -12    1    3    3    0    0  0.18848952949E+02  0.33789935825E+02  0.73147531821E+01  0.39377003498E+02  0.00000000000E+00 0.  1.
</event>
<event>
 7    1  0.2959851E-015  0.9000778E+02  0.7816164E-02  0.1186339E+00
        -11   -1    0    0    0    0  0.00000000000E+00  0.00000000000E+00  0.45593999997E+02  0.45594000000E+02  0.51100000000E-03 0. -1.
         11   -1    0    0    0    0 -0.00000000000E+00 -0.00000000000E+00 -0.45593999997E+02  0.45594000000E+02  0.51100000000E-03 0.  1.
    9900012    2    1    2    0    0  0.83172832378E+00 -0.53967564667E+00  0.64022974365E+00  0.90007781405E+02  0.90000043319E+02 0.  0.
         12    1    1    2    0    0 -0.83172832378E+00  0.53967564667E+00 -0.64022974365E+00  0.11802185954E+01  0.00000000000E+00 0. -1.
         11    1    3    3    0    0  0.32538930160E+02  0.45766794904E+01 -0.21014644563E+02  0.39004400489E+02  0.51100000000E-03 0. -1.
        -11    1    3    3    0    0 -0.73253246321E+00 -0.74001050832E+01 -0.58928186740E+01  0.94880699428E+01  0.51100000000E-03 0.  1.
        -12    1    3    3    0    0 -0.30974669373E+02  0.22837499462E+01  0.27547692981E+02  0.41515310973E+02  0.00000000000E+00 0.  1.
</event>
<event>
 7    1  0.2569312E-015  0.9000791E+02  0.7816164E-02  0.1186339E+00
        -11   -1    0    0    0    0  0.00000000000E+00  0.00000000000E+00  0.45593999997E+02  0.45594000000E+02  0.51100000000E-03 0. -1.
         11   -1    0    0    0    0 -0.00000000000E+00 -0.00000000000E+00 -0.45593999997E+02  0.45594000000E+02  0.51100000000E-03 0.  1.
    9900012    2    1    2    0    0  0.42907558242E+00  0.73878094817E+00 -0.81406322971E+00  0.90007914373E+02  0.90000178043E+02 0.  0.
         12    1    1    2    0    0 -0.42907558242E+00 -0.73878094817E+00  0.81406322971E+00  0.11800856269E+01  0.00000000000E+00 0. -1.
         11    1    3    3    0    0 -0.40001121539E+02 -0.62192471239E+01 -0.15320469337E+02  0.43283779180E+02  0.51100000000E-03 0. -1.
        -11    1    3    3    0    0  0.63528804492E+01  0.81199743705E+01  0.37487883065E+01  0.10970254683E+02  0.51100000000E-03 0.  1.
        -12    1    3    3    0    0  0.34077316672E+02 -0.11619462985E+01  0.10757617800E+02  0.35753880510E+02  0.00000000000E+00 0.  1.
</event>
<event>
 7    1  0.2569312E-015  0.9000774E+02  0.7816164E-02  0.1186339E+00
        -11   -1    0    0    0    0  0.00000000000E+00  0.00000000000E+00  0.45593999997E+02  0.45594000000E+02  0.51100000000E-03 0.  1.
         11   -1    0    0    0    0 -0.00000000000E+00 -0.00000000000E+00 -0.45593999997E+02  0.45594000000E+02  0.51100000000E-03 0. -1.
    9900012    2    1    2    0    0  0.23055082485E+00  0.47013653023E+00  0.10577481603E+01  0.90007740194E+02  0.90000001564E+02 0.  0.
         12    1    1    2    0    0 -0.23055082485E+00 -0.47013653023E+00 -0.10577481603E+01  0.11802598063E+01  0.00000000000E+00 0. -1.
         11    1    3    3    0    0 -0.31100878992E+00  0.15778884437E+02 -0.11073438405E+01  0.15820750019E+02  0.51100000000E-03 0. -1.
        -11    1    3    3    0    0 -0.10759796985E+01  0.77289861332E+01  0.33985089711E+02  0.34869489269E+02  0.51100000000E-03 0.  1.
         12    1    3    3    0    0  0.16175393133E+01 -0.23037734040E+02 -0.31819997711E+02  0.39317500905E+02  0.00000000000E+00 0. -1.
</event>
<event>
 7    1  0.2569312E-015  0.9000775E+02  0.7816164E-02  0.1186339E+00
        -11   -1    0    0    0    0  0.00000000000E+00  0.00000000000E+00  0.45593999997E+02  0.45594000000E+02  0.51100000000E-03 0.  1.
         11   -1    0    0    0    0 -0.00000000000E+00 -0.00000000000E+00 -0.45593999997E+02  0.45594000000E+02  0.51100000000E-03 0. -1.
    9900012    2    1    2    0    0 -0.74916491539E-01 -0.11173344933E+01  0.37276046790E+00  0.90007746122E+02  0.90000007571E+02 0.  0.
         12    1    1    2    0    0  0.74916491539E-01  0.11173344933E+01 -0.37276046790E+00  0.11802538782E+01  0.00000000000E+00 0. -1.
         11    1    3    3    0    0 -0.87303617403E+01 -0.34331675189E+00  0.30391101354E+01  0.92505823160E+01  0.51100000000E-03 0. -1.
        -11    1    3    3    0    0 -0.33356002478E+02 -0.13160022716E+02  0.52740647492E+01  0.36243963062E+02  0.51100000000E-03 0.  1.
         12    1    3    3    0    0  0.42011447727E+02  0.12386004975E+02 -0.79404144168E+01  0.44513200744E+02  0.00000000000E+00 0. -1.
</event>
<event>
 7    1  0.2569312E-015  0.9000780E+02  0.7816164E-02  0.1186339E+00
        -11   -1    0    0    0    0  0.00000000000E+00  0.00000000000E+00  0.45593999997E+02  0.45594000000E+02  0.51100000000E-03 0.  1.
         11   -1    0    0    0    0 -0.00000000000E+00 -0.00000000000E+00 -0.45593999997E+02  0.45594000000E+02  0.51100000000E-03 0. -1.
    9900012    2    1    2    0    0 -0.11228170138E+01  0.72068405059E-01  0.35630853695E+00  0.90007801849E+02  0.90000064034E+02 0.  0.
         12    1    1    2    0    0  0.11228170138E+01 -0.72068405059E-01 -0.35630853695E+00  0.11801981507E+01  0.00000000000E+00 0. -1.
         11    1    3    3    0    0  0.98879950754E+01 -0.50475150449E+01 -0.39826160794E+01  0.11794536270E+02  0.51100000000E-03 0. -1.
        -11    1    3    3    0    0  0.29257614011E+02  0.12111183533E+02 -0.12454829637E+02  0.34026629656E+02  0.51100000000E-03 0.  1.
         12    1    3    3    0    0 -0.40268426100E+02 -0.69916000830E+01  0.16793754253E+02  0.44186635923E+02  0.00000000000E+00 0. -1.
</event>
<event>
 7    1  0.2569312E-015  0.9000767E+02  0.7816164E-02  0.1186339E+00
        -11   -1    0    0    0    0  0.00000000000E+00  0.00000000000E+00  0.45593999997E+02  0.45594000000E+02  0.51100000000E-03 0.  1.
         11   -1    0    0    0    0 -0.00000000000E+00 -0.00000000000E+00 -0.45593999997E+02  0.45594000000E+02  0.51100000000E-03 0. -1.
    9900012    2    1    2    0    0  0.40702515367E+00 -0.38072832740E+00  0.10404577475E+01  0.90007671292E+02  0.89999931753E+02 0.  0.
         12    1    1    2    0    0 -0.40702515367E+00  0.38072832740E+00 -0.10404577475E+01  0.11803287082E+01  0.00000000000E+00 0. -1.
         11    1    3    3    0    0 -0.42412048526E+01  0.78484079691E+01 -0.39181375034E+01  0.97435685458E+01  0.51100000000E-03 0. -1.
        -11    1    3    3    0    0 -0.27312206291E+02 -0.15695335632E+02  0.26365988777E+02  0.41078772347E+02  0.51100000000E-03 0.  1.
         12    1    3    3    0    0  0.31960436298E+02  0.74661993355E+01 -0.21407393526E+02  0.39185330399E+02  0.00000000000E+00 0. -1.
</event>
<event>
 7    1  0.2569312E-015  0.9000777E+02  0.7816164E-02  0.1186339E+00
        -11   -1    0    0    0    0  0.00000000000E+00  0.00000000000E+00  0.45593999997E+02  0.45594000000E+02  0.51100000000E-03 0. -1.
         11   -1    0    0    0    0 -0.00000000000E+00 -0.00000000000E+00 -0.45593999997E+02  0.45594000000E+02  0.51100000000E-03 0.  1.
    9900012    2    1    2    0    0 -0.12562973225E+00 -0.11630585933E+01 -0.15638402643E+00  0.90007769478E+02  0.90000031235E+02 0.  0.
         12    1    1    2    0    0  0.12562973225E+00  0.11630585933E+01  0.15638402643E+00  0.11802305219E+01  0.00000000000E+00 0. -1.
         11    1    3    3    0    0  0.16470767730E+01 -0.71299599402E+01  0.49036342413E+01  0.88087921805E+01  0.51100000000E-03 0. -1.
        -11    1    3    3    0    0  0.23382790568E+02 -0.25813350058E+02 -0.17259911589E+02  0.38871435326E+02  0.51100000000E-03 0.  1.
         12    1    3    3    0    0 -0.25155497073E+02  0.31780251405E+02  0.12199893321E+02  0.42327541972E+02  0.00000000000E+00 0. -1.
</event>
<event>
 7    1  0.2569312E-015  0.9000769E+02  0.7816164E-02  0.1186339E+00
        -11   -1    0    0    0    0  0.00000000000E+00  0.00000000000E+00  0.45593999997E+02  0.45594000000E+02  0.51100000000E-03 0. -1.
         11   -1    0    0    0    0 -0.00000000000E+00 -0.00000000000E+00 -0.45593999997E+02  0.45594000000E+02  0.51100000000E-03 0.  1.
    9900012    2    1    2    0    0  0.31879900224E+00  0.27563933964E+00  0.11025088446E+01  0.90007688345E+02  0.89999949032E+02 0.  0.
         12    1    1    2    0    0 -0.31879900224E+00 -0.27563933964E+00 -0.11025088446E+01  0.11803116545E+01  0.00000000000E+00 0. -1.
         11    1    3    3    0    0  0.54771434377E+01  0.19697709057E+01  0.87759877393E+01  0.10530767243E+02  0.51100000000E-03 0. -1.
        -11    1    3    3    0    0 -0.12893357998E+02  0.31948028656E+02 -0.23293690114E+02  0.41587392499E+02  0.51100000000E-03 0.  1.
         12    1    3    3    0    0  0.77350135629E+01 -0.33642160222E+02  0.15620211220E+02  0.37889528603E+02  0.00000000000E+00 0. -1.
</event>
<event>
 7    1  0.2816921E-015  0.9000786E+02  0.7816164E-02  0.1186339E+00
        -11   -1    0    0    0    0  0.00000000000E+00  0.00000000000E+00  0.45593999997E+02  0.45594000000E+02  0.51100000000E-03 0.  1.
         11   -1    0    0    0    0 -0.00000000000E+00 -0.00000000000E+00 -0.45593999997E+02  0.45594000000E+02  0.51100000000E-03 0. -1.
    9900012    2    1    2    0    0 -0.84279854957E+00  0.24333352099E+00  0.78944347801E+00  0.90007855262E+02  0.90000118151E+02 0.  0.
         12    1    1    2    0    0  0.84279854957E+00 -0.24333352099E+00 -0.78944347801E+00  0.11801447380E+01  0.00000000000E+00 0. -1.
         11    1    3    3    0    0 -0.28942778554E+01 -0.45076224944E+01 -0.38749113590E+02  0.39117634247E+02  0.51100000000E-03 0. -1.
        -11    1    3    3    0    0 -0.10044374977E+02 -0.56084628779E+00  0.95214719484E+00  0.10104979059E+02  0.51100000000E-03 0.  1.
        -12    1    3    3    0    0  0.12095854283E+02  0.53118023031E+01  0.38586409873E+02  0.40785241956E+02  0.00000000000E+00 0.  1.
</event>
<event>
 7    1  0.2569312E-015  0.9000694E+02  0.7816164E-02  0.1186341E+00
        -11   -1    0    0    0    0  0.00000000000E+00  0.00000000000E+00  0.45593999997E+02  0.45594000000E+02  0.51100000000E-03 0. -1.
         11   -1    0    0    0    0 -0.00000000000E+00 -0.00000000000E+00 -0.45593999997E+02  0.45594000000E+02  0.51100000000E-03 0.  1.
    9900012    2    1    2    0    0  0.64156948810E+00  0.70439769617E+00 -0.69793943215E+00  0.90006938201E+02  0.89999188981E+02 0.  0.
         12    1    1    2    0    0 -0.64156948810E+00 -0.70439769617E+00  0.69793943215E+00  0.11810617991E+01  0.00000000000E+00 0. -1.
         11    1    3    3    0    0 -0.61350997160E+01 -0.69860032267E+01  0.40416675995E+01  0.10137986331E+02  0.51100000000E-03 0. -1.
        -11    1    3    3    0    0  0.19726605576E+02 -0.26893024282E+02 -0.21113206309E+02  0.39473297348E+02  0.51100000000E-03 0.  1.
         12    1    3    3    0    0 -0.12949936372E+02  0.34583425205E+02  0.16373599277E+02  0.40395654522E+02  0.00000000000E+00 0. -1.
</event>
<event>
 7    1  0.2569312E-015  0.9000772E+02  0.7816164E-02  0.1186339E+00
        -11   -1    0    0    0    0  0.00000000000E+00  0.00000000000E+00  0.45593999997E+02  0.45594000000E+02  0.51100000000E-03 0.  1.
         11   -1    0    0    0    0 -0.00000000000E+00 -0.00000000000E+00 -0.45593999997E+02  0.45594000000E+02  0.51100000000E-03 0. -1.
    9900012    2    1    2    0    0 -0.98792760202E+00 -0.31009467137E+00 -0.56647675915E+00  0.90007722248E+02  0.89999983382E+02 0.  0.
         12    1    1    2    0    0  0.98792760202E+00  0.31009467137E+00  0.56647675915E+00  0.11802777515E+01  0.00000000000E+00 0. -1.
         11    1    3    3    0    0  0.13060622610E+01 -0.81447201546E+01  0.17460575999E+01  0.84315468587E+01  0.51100000000E-03 0. -1.
        -11    1    3    3    0    0 -0.35788368800E+02  0.62923140277E+01  0.19828814895E+02  0.41395440058E+02  0.51100000000E-03 0.  1.
         12    1    3    3    0    0  0.33494378937E+02  0.15423114555E+01 -0.22141349254E+02  0.40180735332E+02  0.00000000000E+00 0. -1.
</event>
<event>
 7    1  0.2569312E-015  0.9000777E+02  0.7816164E-02  0.1186339E+00
        -11   -1    0    0    0    0  0.00000000000E+00  0.00000000000E+00  0.45593999997E+02  0.45594000000E+02  0.51100000000E-03 0.  1.
         11   -1    0    0    0    0 -0.00000000000E+00 -0.00000000000E+00 -0.45593999997E+02  0.45594000000E+02  0.51100000000E-03 0. -1.
    9900012    2    1    2    0    0 -0.48045493659E+00 -0.34912815125E+00  0.10199106576E+01  0.90007769022E+02  0.90000030773E+02 0.  0.
         12    1    1    2    0    0  0.48045493659E+00  0.34912815125E+00 -0.10199106576E+01  0.11802309781E+01  0.00000000000E+00 0. -1.
         11    1    3    3    0    0 -0.99427014176E+01  0.58999111310E+01 -0.90943695491E+00  0.11597126311E+02  0.51100000000E-03 0. -1.
        -11    1    3    3    0    0 -0.51517584146E+01 -0.34304963529E+02  0.21877684542E+02  0.41012244741E+02  0.51100000000E-03 0.  1.
         12    1    3    3    0    0  0.14614004896E+02  0.28055924247E+02 -0.19948336930E+02  0.37398397970E+02  0.00000000000E+00 0. -1.
</event>
<event>
 7    1  0.2569312E-015  0.9000777E+02  0.7816164E-02  0.1186339E+00
        -11   -1    0    0    0    0  0.00000000000E+00  0.00000000000E+00  0.45593999997E+02  0.45594000000E+02  0.51100000000E-03 0.  1.
         11   -1    0    0    0    0 -0.00000000000E+00 -0.00000000000E+00 -0.45593999997E+02  0.45594000000E+02  0.51100000000E-03 0. -1.
    9900012    2    1    2    0    0 -0.50967223089E+00 -0.12301609383E+00  0.10573767607E+01  0.90007769363E+02  0.90000031119E+02 0.  0.
         12    1    1    2    0    0  0.50967223089E+00  0.12301609383E+00 -0.10573767607E+01  0.11802306370E+01  0.00000000000E+00 0. -1.
         11    1    3    3    0    0 -0.19462496617E+01 -0.43649554371E+01  0.99810223785E+01  0.11066233853E+02  0.51100000000E-03 0. -1.
        -11    1    3    3    0    0  0.11382642780E+01  0.60206450226E+01  0.34722076876E+02  0.35258565411E+02  0.51100000000E-03 0.  1.
         12    1    3    3    0    0  0.29831315283E+00 -0.17787056794E+01 -0.43645722493E+02  0.43682970098E+02  0.00000000000E+00 0. -1.
</event>
<event>
 7    1  0.2569312E-015  0.9000758E+02  0.7816164E-02  0.1186339E+00
        -11   -1    0    0    0    0  0.00000000000E+00  0.00000000000E+00  0.45593999997E+02  0.45594000000E+02  0.51100000000E-03 0.  1.
         11   -1    0    0    0    0 -0.00000000000E+00 -0.00000000000E+00 -0.45593999997E+02  0.45594000000E+02  0.51100000000E-03 0. -1.
    9900012    2    1    2    0    0  0.81021779862E-01  0.59915393719E+00  0.10138232891E+01  0.90007581587E+02  0.89999840863E+02 0.  0.
         12    1    1    2    0    0 -0.81021779862E-01 -0.59915393719E+00 -0.10138232891E+01  0.11804184134E+01  0.00000000000E+00 0. -1.
         11    1    3    3    0    0 -0.15067314698E+02 -0.24004752000E+02 -0.28981538521E+02  0.40536177250E+02  0.51100000000E-03 0. -1.
        -11    1    3    3    0    0 -0.17724337192E+01  0.85734797170E+01 -0.28402687230E+01  0.92039775329E+01  0.51100000000E-03 0.  1.
        -12    1    3    3    0    0  0.16920770198E+02  0.16030426220E+02  0.32835630533E+02  0.40267426803E+02  0.00000000000E+00 0.  1.
</event>
<event>
 7    1  0.2569312E-015  0.9000774E+02  0.7816164E-02  0.1186339E+00
        -11   -1    0    0    0    0  0.00000000000E+00  0.00000000000E+00  0.45593999997E+02  0.45594000000E+02  0.51100000000E-03 0.  1.
         11   -1    0    0    0    0 -0.00000000000E+00 -0.00000000000E+00 -0.45593999997E+02  0.45594000000E+02  0.51100000000E-03 0. -1.
    9900012    2    1    2    0    0  0.42818110487E+00 -0.74199698230E+00  0.81186313530E+00  0.90007737177E+02  0.89999998508E+02 0.  0.
         12    1    1    2    0    0 -0.42818110487E+00  0.74199698230E+00 -0.81186313530E+00  0.11802628227E+01  0.00000000000E+00 0. -1.
         11    1    3    3    0    0 -0.87691596134E+01  0.68714678121E+01 -0.29540606595E+01  0.11525697587E+02  0.51100000000E-03 0. -1.
        -11    1    3    3    0    0 -0.39495963597E+00  0.71400413216E+01  0.38705770877E+02  0.39360803887E+02  0.51100000000E-03 0.  1.
         12    1    3    3    0    0  0.95923003543E+01 -0.14753506116E+02 -0.34939847083E+02  0.39121235703E+02  0.00000000000E+00 0. -1.
</event>
<event>
 7    1  0.2569312E-015  0.9000774E+02  0.7816164E-02  0.1186339E+00
        -11   -1    0    0    0    0  0.00000000000E+00  0.00000000000E+00  0.45593999997E+02  0.45594000000E+02  0.51100000000E-03 0.  1.
         11   -1    0    0    0    0 -0.00000000000E+00 -0.00000000000E+00 -0.45593999997E+02  0.45594000000E+02  0.51100000000E-03 0. -1.
    9900012    2    1    2    0    0  0.45694546309E+00 -0.66918713446E-01  0.10861551110E+01  0.90007741471E+02  0.90000002858E+02 0.  0.
         12    1    1    2    0    0 -0.45694546309E+00  0.66918713446E-01 -0.10861551110E+01  0.11802585291E+01  0.00000000000E+00 0. -1.
         11    1    3    3    0    0 -0.37611600510E+02 -0.12943049393E+02  0.94776259406E+01  0.40889857107E+02  0.51100000000E-03 0. -1.
        -11    1    3    3    0    0  0.14589385390E+01 -0.63678899295E+01 -0.36613651079E+01  0.74889330702E+01  0.51100000000E-03 0.  1.
        -12    1    3    3    0    0  0.36609607434E+02  0.19244020609E+02 -0.47301057218E+01  0.41628951294E+02  0.00000000000E+00 0.  1.
</event>
<event>
 7    1  0.2569312E-015  0.9000777E+02  0.7816164E-02  0.1186339E+00
        -11   -1    0    0    0    0  0.00000000000E+00  0.00000000000E+00  0.45593999997E+02  0.45594000000E+02  0.51100000000E-03 0.  1.
         11   -1    0    0    0    0 -0.00000000000E+00 -0.00000000000E+00 -0.45593999997E+02  0.45594000000E+02  0.51100000000E-03 0. -1.
    9900012    2    1    2    0    0  0.38203248334E+00 -0.10486229595E+01  0.38390816653E+00  0.90007769340E+02  0.90000031096E+02 0.  0.
         12    1    1    2    0    0 -0.38203248334E+00  0.10486229595E+01 -0.38390816653E+00  0.11802306596E+01  0.00000000000E+00 0. -1.
         11    1    3    3    0    0  0.56140869723E+01 -0.10562401003E+00  0.62677459472E+01  0.84150917097E+01  0.51100000000E-03 0. -1.
        -11    1    3    3    0    0  0.21001311796E+02 -0.33416639470E+02 -0.54648787031E+01  0.39844595495E+02  0.51100000000E-03 0.  1.
         12    1    3    3    0    0 -0.26233366285E+02  0.32473640521E+02 -0.41895907756E+00  0.41748082136E+02  0.00000000000E+00 0. -1.
</event>
<event>
 7    1  0.2569312E-015  0.9000772E+02  0.7816164E-02  0.1186339E+00
        -11   -1    0    0    0    0  0.00000000000E+00  0.00000000000E+00  0.45593999997E+02  0.45594000000E+02  0.51100000000E-03 0. -1.
         11   -1    0    0    0    0 -0.00000000000E+00 -0.00000000000E+00 -0.45593999997E+02  0.45594000000E+02  0.51100000000E-03 0.  1.
    9900012    2    1    2    0    0 -0.58637625379E+00 -0.26010809739E+00  0.99073820253E+00  0.90007722270E+02  0.89999983404E+02 0.  0.
         12    1    1    2    0    0  0.58637625379E+00  0.26010809739E+00 -0.99073820253E+00  0.11802777297E+01  0.00000000000E+00 0. -1.
         11    1    3    3    0    0  0.90347088181E+01  0.37711056931E+01  0.13085417136E+01  0.98772204214E+01  0.51100000000E-03 0. -1.
        -11    1    3    3    0    0 -0.78653911673E+01 -0.13885143728E+02 -0.37961252833E+02  0.41179100421E+02  0.51100000000E-03 0.  1.
         12    1    3    3    0    0 -0.17556939045E+01  0.98539299374E+01  0.37643449322E+02  0.38951401428E+02  0.00000000000E+00 0. -1.
</event>
<event>
 7    1  0.2569312E-015  0.9000774E+02  0.7816164E-02  0.1186339E+00
        -11   -1    0    0    0    0  0.00000000000E+00  0.00000000000E+00  0.45593999997E+02  0.45594000000E+02  0.51100000000E-03 0.  1.
         11   -1    0    0    0    0 -0.00000000000E+00 -0.00000000000E+00 -0.45593999997E+02  0.45594000000E+02  0.51100000000E-03 0. -1.
    9900012    2    1    2    0    0 -0.43527983641E+00 -0.66447388816E+00  0.87294265899E+00  0.90007736059E+02  0.89999997375E+02 0.  0.
         12    1    1    2    0    0  0.43527983641E+00  0.66447388816E+00 -0.87294265899E+00  0.11802639408E+01  0.00000000000E+00 0. -1.
         11    1    3    3    0    0 -0.39234838507E+01 -0.12710193353E+01 -0.40725704388E+01  0.57961233526E+01  0.51100000000E-03 0. -1.
        -11    1    3    3    0    0  0.15402041402E+02 -0.52166688287E+01 -0.36895139311E+02  0.40319819171E+02  0.51100000000E-03 0.  1.
         12    1    3    3    0    0 -0.11913837387E+02  0.58232142758E+01  0.41840652408E+02  0.43891793535E+02  0.00000000000E+00 0. -1.
</event>
<event>
 7    1  0.2569312E-015  0.9000780E+02  0.7816164E-02  0.1186339E+00
        -11   -1    0    0    0    0  0.00000000000E+00  0.00000000000E+00  0.45593999997E+02  0.45594000000E+02  0.51100000000E-03 0.  1.
         11   -1    0    0    0    0 -0.00000000000E+00 -0.00000000000E+00 -0.45593999997E+02  0.45594000000E+02  0.51100000000E-03 0. -1.
    9900012    2    1    2    0    0  0.97067053184E+00 -0.47243925716E+00  0.47693310335E+00  0.90007802848E+02  0.90000065045E+02 0.  0.
         12    1    1    2    0    0 -0.97067053184E+00  0.47243925716E+00 -0.47693310335E+00  0.11801971522E+01  0.00000000000E+00 0. -1.
         11    1    3    3    0    0 -0.62069577704E+01 -0.63601196428E+01  0.34112770678E+01  0.95191521749E+01  0.51100000000E-03 0. -1.
        -11    1    3    3    0    0  0.25998583005E+01 -0.12043958538E+02  0.35637177692E+02  0.37707089977E+02  0.51100000000E-03 0.  1.
         12    1    3    3    0    0  0.45777700017E+01  0.17931638924E+02 -0.38571521656E+02  0.42781560696E+02  0.00000000000E+00 0. -1.
</event>
<event>
 7    1  0.2569312E-015  0.9000861E+02  0.7816164E-02  0.1186337E+00
        -11   -1    0    0    0    0  0.00000000000E+00  0.00000000000E+00  0.45593999997E+02  0.45594000000E+02  0.51100000000E-03 0. -1.
         11   -1    0    0    0    0 -0.00000000000E+00 -0.00000000000E+00 -0.45593999997E+02  0.45594000000E+02  0.51100000000E-03 0.  1.
    9900012    2    1    2    0    0 -0.98108369780E+00  0.65452425114E+00  0.52871802078E-02  0.90008612374E+02  0.90000885253E+02 0.  0.
         12    1    1    2    0    0  0.98108369780E+00 -0.65452425114E+00 -0.52871802078E-02  0.11793876257E+01  0.00000000000E+00 0. -1.
         11    1    3    3    0    0 -0.94528847418E+00  0.12757451317E+02 -0.31419083138E+01  0.13172612593E+02  0.51100000000E-03 0. -1.
        -11    1    3    3    0    0 -0.60467507312E+01  0.70025165704E+01 -0.33672994203E+02  0.34920895916E+02  0.51100000000E-03 0.  1.
         12    1    3    3    0    0  0.60109555076E+01 -0.19105443636E+02  0.36820189697E+02  0.41915103865E+02  0.00000000000E+00 0. -1.
</event>
<event>
 7    1  0.2569312E-015  0.9000772E+02  0.7816164E-02  0.1186339E+00
        -11   -1    0    0    0    0  0.00000000000E+00  0.00000000000E+00  0.45593999997E+02  0.45594000000E+02  0.51100000000E-03 0.  1.
         11   -1    0    0    0    0 -0.00000000000E+00 -0.00000000000E+00 -0.45593999997E+02  0.45594000000E+02  0.51100000000E-03 0. -1.
    9900012    2    1    2    0    0 -0.93156467329E+00 -0.60553890926E+00  0.39819946569E+00  0.90007723369E+02  0.89999984517E+02 0.  0.
         12    1    1    2    0    0  0.93156467329E+00  0.60553890926E+00 -0.39819946569E+00  0.11802766310E+01  0.00000000000E+00 0. -1.
         11    1    3    3    0    0 -0.12302890099E+02  0.66821572744E+01 -0.20510280909E+01  0.14149877989E+02  0.51100000000E-03 0. -1.
        -11    1    3    3    0    0 -0.13736915010E+02 -0.23858911240E+02  0.25834456904E+02  0.37754067905E+02  0.51100000000E-03 0.  1.
         12    1    3    3    0    0  0.25108240436E+02  0.16571215056E+02 -0.23385229348E+02  0.38103777475E+02  0.00000000000E+00 0. -1.
</event>
<event>
 7    1  0.2569312E-015  0.9000774E+02  0.7816164E-02  0.1186339E+00
        -11   -1    0    0    0    0  0.00000000000E+00  0.00000000000E+00  0.45593999997E+02  0.45594000000E+02  0.51100000000E-03 0. -1.
         11   -1    0    0    0    0 -0.00000000000E+00 -0.00000000000E+00 -0.45593999997E+02  0.45594000000E+02  0.51100000000E-03 0.  1.
    9900012    2    1    2    0    0 -0.10348928800E+01  0.48535131392E+00 -0.29400766672E+00  0.90007741690E+02  0.90000003080E+02 0.  0.
         12    1    1    2    0    0  0.10348928800E+01 -0.48535131392E+00  0.29400766672E+00  0.11802583103E+01  0.00000000000E+00 0. -1.
         11    1    3    3    0    0 -0.72832905578E+01  0.52227321859E+00 -0.10397163707E+01  0.73756424165E+01  0.51100000000E-03 0. -1.
        -11    1    3    3    0    0  0.11161947170E+02  0.20256588165E+02 -0.34577299247E+02  0.41599375622E+02  0.51100000000E-03 0.  1.
         12    1    3    3    0    0 -0.49135494920E+01 -0.20293510069E+02  0.35323007951E+02  0.41032723651E+02  0.00000000000E+00 0. -1.
</event>
<event>
 7    1  0.2569312E-015  0.9000768E+02  0.7816164E-02  0.1186339E+00
        -11   -1    0    0    0    0  0.00000000000E+00  0.00000000000E+00  0.45593999997E+02  0.45594000000E+02  0.51100000000E-03 0.  1.
         11   -1    0    0    0    0 -0.00000000000E+00 -0.00000000000E+00 -0.45593999997E+02  0.45594000000E+02  0.51100000000E-03 0. -1.
    9900012    2    1    2    0    0 -0.41132092220E+00  0.18941821954E+00  0.10899969113E+01  0.90007679099E+02  0.89999939663E+02 0.  0.
         12    1    1    2    0    0  0.41132092220E+00 -0.18941821954E+00 -0.10899969113E+01  0.11803209011E+01  0.00000000000E+00 0. -1.
         11    1    3    3    0    0 -0.35793634000E+02  0.91977843578E+01 -0.28179250846E+00  0.36957582163E+02  0.51100000000E-03 0. -1.
        -11    1    3    3    0    0 -0.40172531583E+01 -0.66870091692E+00  0.10925536826E+02  0.11659881606E+02  0.51100000000E-03 0.  1.
        -12    1    3    3    0    0  0.39399566236E+02 -0.83396652214E+01 -0.95537474068E+01  0.41390215331E+02  0.00000000000E+00 0.  1.
</event>
<event>
 7    1  0.2569312E-015  0.9000789E+02  0.7816164E-02  0.1186339E+00
        -11   -1    0    0    0    0  0.00000000000E+00  0.00000000000E+00  0.45593999997E+02  0.45594000000E+02  0.51100000000E-03 0.  1.
         11   -1    0    0    0    0 -0.00000000000E+00 -0.00000000000E+00 -0.45593999997E+02  0.45594000000E+02  0.51100000000E-03 0. -1.
    9900012    2    1    2    0    0 -0.31298817689E+00  0.10891344588E+01  0.32936389821E+00  0.90007891511E+02  0.90000154879E+02 0.  0.
         12    1    1    2    0    0  0.31298817689E+00 -0.10891344588E+01 -0.32936389821E+00  0.11801084890E+01  0.00000000000E+00 0. -1.
         11    1    3    3    0    0 -0.42199956326E+01  0.63926732241E+01  0.11488425198E+02  0.13807916131E+02  0.51100000000E-03 0. -1.
        -11    1    3    3    0    0 -0.18382104025E+01 -0.28898452263E+02  0.21095090179E+02  0.35826001599E+02  0.51100000000E-03 0.  1.
         12    1    3    3    0    0  0.57452178581E+01  0.23594913498E+02 -0.32254151479E+02  0.40373973781E+02  0.00000000000E+00 0. -1.
</event>
<event>
 7    1  0.2780798E-015  0.9000773E+02  0.7816164E-02  0.1186339E+00
        -11   -1    0    0    0    0  0.00000000000E+00  0.00000000000E+00  0.45593999997E+02  0.45594000000E+02  0.51100000000E-03 0. -1.
         11   -1    0    0    0    0 -0.00000000000E+00 -0.00000000000E+00 -0.45593999997E+02  0.45594000000E+02  0.51100000000E-03 0.  1.
    9900012    2    1    2    0    0  0.63974000114E+00 -0.20072849961E+00 -0.97132819999E+00  0.90007729831E+02  0.89999991065E+02 0.  0.
         12    1    1    2    0    0 -0.63974000114E+00  0.20072849961E+00  0.97132819999E+00  0.11802701690E+01  0.00000000000E+00 0. -1.
         11    1    3    3    0    0 -0.25755365332E+02 -0.28876244352E+02  0.13572994158E+02  0.41004908266E+02  0.51100000000E-03 0. -1.
        -11    1    3    3    0    0  0.72206949994E+01 -0.55640792680E+00  0.51416910822E+01  0.88817235660E+01  0.51100000000E-03 0.  1.
        -12    1    3    3    0    0  0.19174410334E+02  0.29231923779E+02 -0.19686013440E+02  0.40121097999E+02  0.00000000000E+00 0.  1.
</event>
<event>
 7    1  0.2569312E-015  0.9000787E+02  0.7816164E-02  0.1186339E+00
        -11   -1    0    0    0    0  0.00000000000E+00  0.00000000000E+00  0.45593999997E+02  0.45594000000E+02  0.51100000000E-03 0.  1.
         11   -1    0    0    0    0 -0.00000000000E+00 -0.00000000000E+00 -0.45593999997E+02  0.45594000000E+02  0.51100000000E-03 0. -1.
    9900012    2    1    2    0    0 -0.27498610620E-01 -0.10918660290E+01  0.44697819589E+00  0.90007865640E+02  0.90000128667E+02 0.  0.
         12    1    1    2    0    0  0.27498610620E-01  0.10918660290E+01 -0.44697819589E+00  0.11801343595E+01  0.00000000000E+00 0. -1.
         11    1    3    3    0    0  0.14020845425E+02  0.31786568805E+02 -0.14874496839E+02  0.37791807569E+02  0.51100000000E-03 0. -1.
        -11    1    3    3    0    0  0.60830915504E+01 -0.15346980941E+01 -0.65078186653E+01  0.90394139795E+01  0.51100000000E-03 0.  1.
        -12    1    3    3    0    0 -0.20131435586E+02 -0.31343736740E+02  0.21829293700E+02  0.43176644092E+02  0.00000000000E+00 0.  1.
</event>
<event>
 7    1  0.2569312E-015  0.9000779E+02  0.7816164E-02  0.1186339E+00
        -11   -1    0    0    0    0  0.00000000000E+00  0.00000000000E+00  0.45593999997E+02  0.45594000000E+02  0.51100000000E-03 0. -1.
         11   -1    0    0    0    0 -0.00000000000E+00 -0.00000000000E+00 -0.45593999997E+02  0.45594000000E+02  0.51100000000E-03 0.  1.
    9900012    2    1    2    0    0  0.23565581099E+00 -0.67996156004E+00 -0.93542513993E+00  0.90007787487E+02  0.90000049481E+02 0.  0.
         12    1    1    2    0    0 -0.23565581099E+00  0.67996156004E+00  0.93542513993E+00  0.11802125134E+01  0.00000000000E+00 0. -1.
         11    1    3    3    0    0  0.33340234242E+02 -0.17813291549E+02  0.11688919786E+02  0.39566594763E+02  0.51100000000E-03 0. -1.
        -11    1    3    3    0    0 -0.21541523268E+01  0.66259828217E+01  0.89017251465E+01  0.11304190880E+02  0.51100000000E-03 0.  1.
        -12    1    3    3    0    0 -0.30950426104E+02  0.10507347167E+02 -0.21526070072E+02  0.39137001844E+02  0.00000000000E+00 0.  1.
</event>
<event>
 7    1  0.2943962E-015  0.9000776E+02  0.7816164E-02  0.1186339E+00
        -11   -1    0    0    0    0  0.00000000000E+00  0.00000000000E+00  0.45593999997E+02  0.45594000000E+02  0.51100000000E-03 0.  1.
         11   -1    0    0    0    0 -0.00000000000E+00 -0.00000000000E+00 -0.45593999997E+02  0.45594000000E+02  0.51100000000E-03 0. -1.
    9900012    2    1    2    0    0 -0.26265125891E+00 -0.92533845706E+00  0.68391439486E+00  0.90007756024E+02  0.90000017603E+02 0.  0.
         12    1    1    2    0    0  0.26265125891E+00  0.92533845706E+00 -0.68391439486E+00  0.11802439762E+01  0.00000000000E+00 0. -1.
         11    1    3    3    0    0 -0.18233786242E+02 -0.34605136091E+02  0.40660769975E+00  0.39117153970E+02  0.51100000000E-03 0. -1.
        -11    1    3    3    0    0  0.61539119109E+01 -0.54854226310E+01  0.51066724807E+01  0.96973500161E+01  0.51100000000E-03 0.  1.
        -12    1    3    3    0    0  0.11817223072E+02  0.39165220265E+02 -0.48293657856E+01  0.41193252038E+02  0.00000000000E+00 0.  1.
</event>
<event>
 7    1  0.2569312E-015  0.9000772E+02  0.7816164E-02  0.1186339E+00
        -11   -1    0    0    0    0  0.00000000000E+00  0.00000000000E+00  0.45593999997E+02  0.45594000000E+02  0.51100000000E-03 0.  1.
         11   -1    0    0    0    0 -0.00000000000E+00 -0.00000000000E+00 -0.45593999997E+02  0.45594000000E+02  0.51100000000E-03 0. -1.
    9900012    2    1    2    0    0 -0.93440657956E+00  0.64973085694E+00  0.31273502509E+00  0.90007716543E+02  0.89999977602E+02 0.  0.
         12    1    1    2    0    0  0.93440657956E+00 -0.64973085694E+00 -0.31273502509E+00  0.11802834568E+01  0.00000000000E+00 0. -1.
         11    1    3    3    0    0 -0.73977474521E+01  0.17064931424E+01 -0.42800166013E+01  0.87153501695E+01  0.51100000000E-03 0. -1.
        -11    1    3    3    0    0 -0.35556610524E+02 -0.47307110392E+01  0.13238912539E+02  0.38235075315E+02  0.51100000000E-03 0.  1.
         12    1    3    3    0    0  0.42019951396E+02  0.36739487538E+01 -0.86461609123E+01  0.43057291059E+02  0.00000000000E+00 0. -1.
</event>
<event>
 7    1  0.2569312E-015  0.9000725E+02  0.7816164E-02  0.1186340E+00
        -11   -1    0    0    0    0  0.00000000000E+00  0.00000000000E+00  0.45593999997E+02  0.45594000000E+02  0.51100000000E-03 0.  1.
         11   -1    0    0    0    0 -0.00000000000E+00 -0.00000000000E+00 -0.45593999997E+02  0.45594000000E+02  0.51100000000E-03 0. -1.
    9900012    2    1    2    0    0  0.16736546549E+00  0.97614207795E+00  0.64289453737E+00  0.90007246875E+02  0.89999501733E+02 0.  0.
         12    1    1    2    0    0 -0.16736546549E+00 -0.97614207795E+00 -0.64289453737E+00  0.11807531247E+01  0.00000000000E+00 0. -1.
         11    1    3    3    0    0 -0.33003975265E+02  0.14480665476E+02 -0.22694595917E+02  0.42591040607E+02  0.51100000000E-03 0. -1.
        -11    1    3    3    0    0  0.41431164376E+01 -0.79016875541E+01 -0.11916876440E+01  0.90012332333E+01  0.51100000000E-03 0.  1.
        -12    1    3    3    0    0  0.29028224293E+02 -0.56028358439E+01  0.24529178098E+02  0.38414973035E+02  0.00000000000E+00 0.  1.
</event>
<event>
 7    1  0.2569312E-015  0.9000782E+02  0.7816164E-02  0.1186339E+00
        -11   -1    0    0    0    0  0.00000000000E+00  0.00000000000E+00  0.45593999997E+02  0.45594000000E+02  0.51100000000E-03 0.  1.
         11   -1    0    0    0    0 -0.00000000000E+00 -0.00000000000E+00 -0.45593999997E+02  0.45594000000E+02  0.51100000000E-03 0. -1.
    9900012    2    1    2    0    0  0.73027885335E+00  0.78599244769E-01  0.92376277272E+00  0.90007820901E+02  0.90000083337E+02 0.  0.
         12    1    1    2    0    0 -0.73027885335E+00 -0.78599244769E-01 -0.92376277272E+00  0.11801790988E+01  0.00000000000E+00 0. -1.
         11    1    3    3    0    0 -0.59396146603E+01 -0.79499372339E+01 -0.14254655326E+01  0.10025591084E+02  0.51100000000E-03 0. -1.
        -11    1    3    3    0    0  0.36903719192E+02 -0.58059753179E+01  0.19962084013E+02  0.42356565465E+02  0.51100000000E-03 0.  1.
         12    1    3    3    0    0 -0.30233825678E+02  0.13834511797E+02 -0.17612855707E+02  0.37625664352E+02  0.00000000000E+00 0. -1.
</event>
<event>
 7    1  0.2569312E-015  0.9000770E+02  0.7816164E-02  0.1186339E+00
        -11   -1    0    0    0    0  0.00000000000E+00  0.00000000000E+00  0.45593999997E+02  0.45594000000E+02  0.51100000000E-03 0. -1.
         11   -1    0    0    0    0 -0.00000000000E+00 -0.00000000000E+00 -0.45593999997E+02  0.45594000000E+02  0.51100000000E-03 0.  1.
    9900012    2    1    2    0    0  0.32296721202E+00 -0.10766922737E+01 -0.35991071883E+00  0.90007699277E+02  0.89999960107E+02 0.  0.
         12    1    1    2    0    0 -0.32296721202E+00  0.10766922737E+01  0.35991071883E+00  0.11803007235E+01  0.00000000000E+00 0. -1.
         11    1    3    3    0    0  0.10923163505E+02 -0.15112386007E+02 -0.29382450885E+02  0.34799829483E+02  0.51100000000E-03 0. -1.
        -11    1    3    3    0    0  0.43466592324E+00  0.35397744313E+01 -0.11435343126E+02  0.11978564611E+02  0.51100000000E-03 0.  1.
        -12    1    3    3    0    0 -0.11034862216E+02  0.10495919303E+02  0.40457883291E+02  0.43229305182E+02  0.00000000000E+00 0.  1.
</event>
<event>
 7    1  0.2569312E-015  0.9000750E+02  0.7816164E-02  0.1186340E+00
        -11   -1    0    0    0    0  0.00000000000E+00  0.00000000000E+00  0.45593999997E+02  0.45594000000E+02  0.51100000000E-03 0.  1.
         11   -1    0    0    0    0 -0.00000000000E+00 -0.00000000000E+00 -0.45593999997E+02  0.45594000000E+02  0.51100000000E-03 0. -1.
    9900012    2    1    2    0    0 -0.11683449031E+01  0.15224044791E+00  0.73337651121E-01  0.90007497828E+02  0.89999755999E+02 0.  0.
         12    1    1    2    0    0  0.11683449031E+01 -0.15224044791E+00 -0.73337651121E-01  0.11805021718E+01  0.00000000000E+00 0. -1.
         11    1    3    3    0    0  0.19280413783E+00  0.20650715309E+01 -0.78492908129E+01  0.81186858783E+01  0.51100000000E-03 0. -1.
        -11    1    3    3    0    0  0.34430697882E+02 -0.47011796747E+00  0.24657136536E+02  0.42351721924E+02  0.51100000000E-03 0.  1.
         12    1    3    3    0    0 -0.35791846923E+02 -0.14427131155E+01 -0.16734508072E+02  0.39537090026E+02  0.00000000000E+00 0. -1.
</event>
<event>
 7    1  0.2569312E-015  0.9000771E+02  0.7816164E-02  0.1186339E+00
        -11   -1    0    0    0    0  0.00000000000E+00  0.00000000000E+00  0.45593999997E+02  0.45594000000E+02  0.51100000000E-03 0. -1.
         11   -1    0    0    0    0 -0.00000000000E+00 -0.00000000000E+00 -0.45593999997E+02  0.45594000000E+02  0.51100000000E-03 0.  1.
    9900012    2    1    2    0    0  0.47983141385E+00 -0.87143185328E+00 -0.63517664587E+00  0.90007711462E+02  0.89999972454E+02 0.  0.
         12    1    1    2    0    0 -0.47983141385E+00  0.87143185328E+00  0.63517664587E+00  0.11802885376E+01  0.00000000000E+00 0. -1.
         11    1    3    3    0    0 -0.14927467059E+02  0.26145143426E+02  0.60679656496E+01  0.30711854469E+02  0.51100000000E-03 0. -1.
        -11    1    3    3    0    0 -0.57547451009E+01 -0.48632697785E+01  0.18275018463E+02  0.19767265471E+02  0.51100000000E-03 0.  1.
        -12    1    3    3    0    0  0.21162043573E+02 -0.22153305501E+02 -0.24978160759E+02  0.39528591522E+02  0.00000000000E+00 0.  1.
</event>
<event>
 7    1  0.2569312E-015  0.9000790E+02  0.7816164E-02  0.1186339E+00
        -11   -1    0    0    0    0  0.00000000000E+00  0.00000000000E+00  0.45593999997E+02  0.45594000000E+02  0.51100000000E-03 0.  1.
         11   -1    0    0    0    0 -0.00000000000E+00 -0.00000000000E+00 -0.45593999997E+02  0.45594000000E+02  0.51100000000E-03 0. -1.
    9900012    2    1    2    0    0  0.47911924173E+00  0.76464358898E+00  0.76052200530E+00  0.90007903061E+02  0.90000166581E+02 0.  0.
         12    1    1    2    0    0 -0.47911924173E+00 -0.76464358898E+00 -0.76052200530E+00  0.11800969395E+01  0.00000000000E+00 0. -1.
         11    1    3    3    0    0 -0.21513591910E+01  0.80838525476E+01  0.59580710197E+01  0.10270132858E+02  0.51100000000E-03 0. -1.
        -11    1    3    3    0    0 -0.48640000075E+01  0.16393195906E+02  0.31245300052E+02  0.35618311915E+02  0.51100000000E-03 0.  1.
         12    1    3    3    0    0  0.74944784402E+01 -0.23712404865E+02 -0.36442849066E+02  0.44119458288E+02  0.00000000000E+00 0. -1.
</event>
<event>
 7    1  0.2569312E-015  0.9000775E+02  0.7816164E-02  0.1186339E+00
        -11   -1    0    0    0    0  0.00000000000E+00  0.00000000000E+00  0.45593999997E+02  0.45594000000E+02  0.51100000000E-03 0. -1.
         11   -1    0    0    0    0 -0.00000000000E+00 -0.00000000000E+00 -0.45593999997E+02  0.45594000000E+02  0.51100000000E-03 0.  1.
    9900012    2    1    2    0    0  0.11768861017E+01  0.89072092195E-01  0.13973226486E-02  0.90007747194E+02  0.90000008657E+02 0.  0.
         12    1    1    2    0    0 -0.11768861017E+01 -0.89072092195E-01 -0.13973226486E-02  0.11802528062E+01  0.00000000000E+00 0. -1.
         11    1    3    3    0    0  0.35929074153E+01  0.61801416128E+01 -0.80079269572E+01  0.10734525069E+02  0.51100000000E-03 0. -1.
        -11    1    3    3    0    0 -0.37090542958E+02 -0.42391793685E+01  0.20230786695E+02  0.42461320625E+02  0.51100000000E-03 0.  1.
         12    1    3    3    0    0  0.34674521645E+02 -0.18518901521E+01 -0.12221462415E+02  0.36811901499E+02  0.00000000000E+00 0. -1.
</event>
<event>
 7    1  0.2569312E-015  0.9000776E+02  0.7816164E-02  0.1186339E+00
        -11   -1    0    0    0    0  0.00000000000E+00  0.00000000000E+00  0.45593999997E+02  0.45594000000E+02  0.51100000000E-03 0. -1.
         11   -1    0    0    0    0 -0.00000000000E+00 -0.00000000000E+00 -0.45593999997E+02  0.45594000000E+02  0.51100000000E-03 0.  1.
    9900012    2    1    2    0    0 -0.80217132294E+00 -0.80332864315E+00  0.32272297384E+00  0.90007760254E+02  0.90000021889E+02 0.  0.
         12    1    1    2    0    0  0.80217132294E+00  0.80332864315E+00 -0.32272297384E+00  0.11802397460E+01  0.00000000000E+00 0. -1.
         11    1    3    3    0    0 -0.32285431615E+02 -0.52509663639E+01 -0.16983237310E+02  0.36855828469E+02  0.51100000000E-03 0. -1.
        -11    1    3    3    0    0 -0.74326257060E+01 -0.16834668994E+00 -0.41082352767E+01  0.84941075366E+01  0.51100000000E-03 0.  1.
        -12    1    3    3    0    0  0.38915885998E+02  0.46159844107E+01  0.21414195560E+02  0.44657824249E+02  0.00000000000E+00 0.  1.
</event>
<event>
 7    1  0.2569312E-015  0.9000779E+02  0.7816164E-02  0.1186339E+00
        -11   -1    0    0    0    0  0.00000000000E+00  0.00000000000E+00  0.45593999997E+02  0.45594000000E+02  0.51100000000E-03 0.  1.
         11   -1    0    0    0    0 -0.00000000000E+00 -0.00000000000E+00 -0.45593999997E+02  0.45594000000E+02  0.51100000000E-03 0. -1.
    9900012    2    1    2    0    0 -0.10347465615E+01  0.94960901424E-01  0.55961464036E+00  0.90007793846E+02  0.90000055925E+02 0.  0.
         12    1    1    2    0    0  0.10347465615E+01 -0.94960901424E-01 -0.55961464036E+00  0.11802061536E+01  0.00000000000E+00 0. -1.
         11    1    3    3    0    0  0.25955386844E+02  0.14653152008E+02  0.23002916290E+02  0.37650114582E+02  0.51100000000E-03 0. -1.
        -11    1    3    3    0    0  0.81296639687E+01 -0.49822150540E+01  0.10971893755E+00  0.95355095089E+01  0.51100000000E-03 0.  1.
        -12    1    3    3    0    0 -0.35119797374E+02 -0.95759760521E+01 -0.22553020587E+02  0.42822169755E+02  0.00000000000E+00 0.  1.
</event>
<event>
 7    1  0.2569312E-015  0.9000779E+02  0.7816164E-02  0.1186339E+00
        -11   -1    0    0    0    0  0.00000000000E+00  0.00000000000E+00  0.45593999997E+02  0.45594000000E+02  0.51100000000E-03 0.  1.
         11   -1    0    0    0    0 -0.00000000000E+00 -0.00000000000E+00 -0.45593999997E+02  0.45594000000E+02  0.51100000000E-03 0. -1.
    9900012    2    1    2    0    0  0.18661386348E+00  0.10274933577E+01  0.54983384721E+00  0.90007794682E+02  0.90000056771E+02 0.  0.
         12    1    1    2    0    0 -0.18661386348E+00 -0.10274933577E+01 -0.54983384721E+00  0.11802053185E+01  0.00000000000E+00 0. -1.
         11    1    3    3    0    0 -0.11524053997E+02 -0.28860555092E+02 -0.22745573357E+02  0.38510992825E+02  0.51100000000E-03 0. -1.
        -11    1    3    3    0    0 -0.53255463650E+01  0.41320696890E+01 -0.59312270854E+01  0.89785800102E+01  0.51100000000E-03 0.  1.
        -12    1    3    3    0    0  0.17036214226E+02  0.25755978761E+02  0.29226634290E+02  0.42518221846E+02  0.00000000000E+00 0.  1.
</event>
<event>
 7    1  0.2569312E-015  0.9000774E+02  0.7816164E-02  0.1186339E+00
        -11   -1    0    0    0    0  0.00000000000E+00  0.00000000000E+00  0.45593999997E+02  0.45594000000E+02  0.51100000000E-03 0. -1.
         11   -1    0    0    0    0 -0.00000000000E+00 -0.00000000000E+00 -0.45593999997E+02  0.45594000000E+02  0.51100000000E-03 0.  1.
    9900012    2    1    2    0    0 -0.75364302242E+00 -0.73153691675E+00 -0.53841893428E+00  0.90007737735E+02  0.89999999073E+02 0.  0.
         12    1    1    2    0    0  0.75364302242E+00  0.73153691675E+00  0.53841893428E+00  0.11802622652E+01  0.00000000000E+00 0. -1.
         11    1    3    3    0    0 -0.86323452655E+01  0.22711680846E+01  0.14306135664E+01  0.90400356575E+01  0.51100000000E-03 0. -1.
        -11    1    3    3    0    0 -0.33515474315E+02 -0.58114994339E+01  0.13627310034E+02  0.36643746032E+02  0.51100000000E-03 0.  1.
         12    1    3    3    0    0  0.41394176558E+02  0.28087944325E+01 -0.15596342534E+02  0.44323956046E+02  0.00000000000E+00 0. -1.
</event>
<event>
 7    1  0.2569312E-015  0.9000773E+02  0.7816164E-02  0.1186339E+00
        -11   -1    0    0    0    0  0.00000000000E+00  0.00000000000E+00  0.45593999997E+02  0.45594000000E+02  0.51100000000E-03 0. -1.
         11   -1    0    0    0    0 -0.00000000000E+00 -0.00000000000E+00 -0.45593999997E+02  0.45594000000E+02  0.51100000000E-03 0.  1.
    9900012    2    1    2    0    0 -0.49332843350E+00  0.10687054609E+01 -0.86737091587E-01  0.90007734086E+02  0.89999995376E+02 0.  0.
         12    1    1    2    0    0  0.49332843350E+00 -0.10687054609E+01  0.86737091587E-01  0.11802659143E+01  0.00000000000E+00 0. -1.
         11    1    3    3    0    0 -0.36918089956E+01 -0.31772528050E+01 -0.89393491850E+01  0.10180194161E+02  0.51100000000E-03 0. -1.
        -11    1    3    3    0    0  0.25153397898E+01 -0.28994780661E+01 -0.35091616946E+02  0.35300927572E+02  0.51100000000E-03 0.  1.
         12    1    3    3    0    0  0.68314077234E+00  0.71454363320E+01  0.43944229039E+02  0.44526612352E+02  0.00000000000E+00 0. -1.
</event>
<event>
 7    1  0.2569312E-015  0.9000778E+02  0.7816164E-02  0.1186339E+00
        -11   -1    0    0    0    0  0.00000000000E+00  0.00000000000E+00  0.45593999997E+02  0.45594000000E+02  0.51100000000E-03 0. -1.
         11   -1    0    0    0    0 -0.00000000000E+00 -0.00000000000E+00 -0.45593999997E+02  0.45594000000E+02  0.51100000000E-03 0.  1.
    9900012    2    1    2    0    0  0.68747664097E+00 -0.72345647340E-01 -0.95658724417E+00  0.90007780876E+02  0.90000042784E+02 0.  0.
         12    1    1    2    0    0 -0.68747664097E+00  0.72345647340E-01  0.95658724417E+00  0.11802191238E+01  0.00000000000E+00 0. -1.
         11    1    3    3    0    0  0.90220142016E+01 -0.53574794726E+01  0.48472340161E+00  0.10504012738E+02  0.51100000000E-03 0. -1.
        -11    1    3    3    0    0  0.32811349039E+02 -0.77598707830E+01 -0.10668859664E+02  0.35364173780E+02  0.51100000000E-03 0.  1.
         12    1    3    3    0    0 -0.41145886599E+02  0.13045004608E+02  0.92275490185E+01  0.44139594359E+02  0.00000000000E+00 0. -1.
</event>
<event>
 7    1  0.2569312E-015  0.9000774E+02  0.7816164E-02  0.1186339E+00
        -11   -1    0    0    0    0  0.00000000000E+00  0.00000000000E+00  0.45593999997E+02  0.45594000000E+02  0.51100000000E-03 0. -1.
         11   -1    0    0    0    0 -0.00000000000E+00 -0.00000000000E+00 -0.45593999997E+02  0.45594000000E+02  0.51100000000E-03 0.  1.
    9900012    2    1    2    0    0  0.56953245305E+00 -0.89512741947E+00  0.51710314560E+00  0.90007739022E+02  0.90000000377E+02 0.  0.
         12    1    1    2    0    0 -0.56953245305E+00  0.89512741947E+00 -0.51710314560E+00  0.11802609776E+01  0.00000000000E+00 0. -1.
         11    1    3    3    0    0 -0.18558529667E+01  0.91985623901E+01  0.39192630909E+00  0.93920895850E+01  0.51100000000E-03 0. -1.
        -11    1    3    3    0    0 -0.86539677177E+01 -0.23762936247E+02 -0.33909572570E+02  0.42301624182E+02  0.51100000000E-03 0.  1.
         12    1    3    3    0    0  0.11079353137E+02  0.13669246437E+02  0.34034749406E+02  0.38314025255E+02  0.00000000000E+00 0. -1.
</event>
<event>
 7    1  0.2569312E-015  0.9000776E+02  0.7816164E-02  0.1186339E+00
        -11   -1    0    0    0    0  0.00000000000E+00  0.00000000000E+00  0.45593999997E+02  0.45594000000E+02  0.51100000000E-03 0.  1.
         11   -1    0    0    0    0 -0.00000000000E+00 -0.00000000000E+00 -0.45593999997E+02  0.45594000000E+02  0.51100000000E-03 0. -1.
    9900012    2    1    2    0    0 -0.84037570766E+00  0.67556947221E+00  0.47994743376E+00  0.90007756389E+02  0.90000017973E+02 0.  0.
         12    1    1    2    0    0  0.84037570766E+00 -0.67556947221E+00 -0.47994743376E+00  0.11802436109E+01  0.00000000000E+00 0. -1.
         11    1    3    3    0    0  0.41966602502E+02  0.40418719918E+01  0.10683061461E+02  0.43493220819E+02  0.51100000000E-03 0. -1.
        -11    1    3    3    0    0 -0.98192226751E+01 -0.63024766095E+01  0.58798553232E+00  0.11682639796E+02  0.51100000000E-03 0.  1.
        -12    1    3    3    0    0 -0.32987755535E+02  0.29361740900E+01 -0.10791099559E+02  0.34831895774E+02  0.00000000000E+00 0.  1.
</event>
<event>
 7    1  0.2569312E-015  0.9000775E+02  0.7816164E-02  0.1186339E+00
        -11   -1    0    0    0    0  0.00000000000E+00  0.00000000000E+00  0.45593999997E+02  0.45594000000E+02  0.51100000000E-03 0. -1.
         11   -1    0    0    0    0 -0.00000000000E+00 -0.00000000000E+00 -0.45593999997E+02  0.45594000000E+02  0.51100000000E-03 0.  1.
    9900012    2    1    2    0    0  0.35751688303E+00  0.36834382182E+00 -0.10627738154E+01  0.90007752706E+02  0.90000014242E+02 0.  0.
         12    1    1    2    0    0 -0.35751688303E+00 -0.36834382182E+00  0.10627738154E+01  0.11802472942E+01  0.00000000000E+00 0. -1.
         11    1    3    3    0    0  0.88614804026E+01 -0.17945876020E+00  0.38022451460E+01  0.96444340831E+01  0.51100000000E-03 0. -1.
        -11    1    3    3    0    0 -0.13926110444E+02 -0.32602992465E+02 -0.22930779648E+02  0.42222178122E+02  0.51100000000E-03 0.  1.
         12    1    3    3    0    0  0.54221469246E+01  0.33150795047E+02  0.18065760687E+02  0.38141140501E+02  0.00000000000E+00 0. -1.
</event>
<event>
 7    1  0.2569312E-015  0.9000768E+02  0.7816164E-02  0.1186339E+00
        -11   -1    0    0    0    0  0.00000000000E+00  0.00000000000E+00  0.45593999997E+02  0.45594000000E+02  0.51100000000E-03 0. -1.
         11   -1    0    0    0    0 -0.00000000000E+00 -0.00000000000E+00 -0.45593999997E+02  0.45594000000E+02  0.51100000000E-03 0.  1.
    9900012    2    1    2    0    0 -0.96922251063E+00  0.47535388337E+00 -0.47728640354E+00  0.90007679747E+02  0.89999940319E+02 0.  0.
         12    1    1    2    0    0  0.96922251063E+00 -0.47535388337E+00  0.47728640354E+00  0.11803202534E+01  0.00000000000E+00 0. -1.
         11    1    3    3    0    0  0.44673079072E+01  0.65305784892E+01 -0.60033916604E+01  0.99320696247E+01  0.51100000000E-03 0. -1.
        -11    1    3    3    0    0  0.20058086183E+02 -0.34010468133E+02 -0.72443273528E+01  0.40143729809E+02  0.51100000000E-03 0.  1.
         12    1    3    3    0    0 -0.25494616601E+02  0.27955243527E+02  0.12770432610E+02  0.39931880313E+02  0.00000000000E+00 0. -1.
</event>
<event>
 7    1  0.2569312E-015  0.9000769E+02  0.7816164E-02  0.1186339E+00
        -11   -1    0    0    0    0  0.00000000000E+00  0.00000000000E+00  0.45593999997E+02  0.45594000000E+02  0.51100000000E-03 0. -1.
         11   -1    0    0    0    0 -0.00000000000E+00 -0.00000000000E+00 -0.45593999997E+02  0.45594000000E+02  0.51100000000E-03 0.  1.
    9900012    2    1    2    0    0 -0.35789307826E+00 -0.93033522586E+00 -0.63207831893E+00  0.90007688986E+02  0.89999949681E+02 0.  0.
         12    1    1    2    0    0  0.35789307826E+00  0.93033522586E+00  0.63207831893E+00  0.11803110138E+01  0.00000000000E+00 0. -1.
         11    1    3    3    0    0 -0.92039342207E+01  0.18612048676E+02  0.29708055934E+02  0.36244852720E+02  0.51100000000E-03 0. -1.
        -11    1    3    3    0    0 -0.68540894350E+00 -0.57768519206E+01  0.91653745627E+01  0.10855684901E+02  0.51100000000E-03 0.  1.
        -12    1    3    3    0    0  0.95314500860E+01 -0.13765531981E+02 -0.39505508816E+02  0.42907151365E+02  0.00000000000E+00 0.  1.
</event>
<event>
 7    1  0.2569312E-015  0.9000776E+02  0.7816164E-02  0.1186339E+00
        -11   -1    0    0    0    0  0.00000000000E+00  0.00000000000E+00  0.45593999997E+02  0.45594000000E+02  0.51100000000E-03 0. -1.
         11   -1    0    0    0    0 -0.00000000000E+00 -0.00000000000E+00 -0.45593999997E+02  0.45594000000E+02  0.51100000000E-03 0.  1.
    9900012    2    1    2    0    0 -0.31661867857E+00  0.85508610779E+00 -0.74936363375E+00  0.90007760408E+02  0.90000022045E+02 0.  0.
         12    1    1    2    0    0  0.31661867857E+00 -0.85508610779E+00  0.74936363375E+00  0.11802395922E+01  0.00000000000E+00 0. -1.
         11    1    3    3    0    0 -0.12386670332E+02  0.70315636064E+01  0.19928208246E+02  0.24495019347E+02  0.51100000000E-03 0. -1.
        -11    1    3    3    0    0 -0.13523285407E+02  0.21584607665E-01  0.15625397179E+02  0.20664770780E+02  0.51100000000E-03 0.  1.
        -12    1    3    3    0    0  0.25593337061E+02 -0.61980621062E+01 -0.36302969059E+02  0.44847970281E+02  0.00000000000E+00 0.  1.
</event>
<event>
 7    1  0.2569312E-015  0.9000775E+02  0.7816164E-02  0.1186339E+00
        -11   -1    0    0    0    0  0.00000000000E+00  0.00000000000E+00  0.45593999997E+02  0.45594000000E+02  0.51100000000E-03 0. -1.
         11   -1    0    0    0    0 -0.00000000000E+00 -0.00000000000E+00 -0.45593999997E+02  0.45594000000E+02  0.51100000000E-03 0.  1.
    9900012    2    1    2    0    0 -0.47005525812E+00  0.69756816256E+00 -0.82791567875E+00  0.90007746782E+02  0.90000008240E+02 0.  0.
         12    1    1    2    0    0  0.47005525812E+00 -0.69756816256E+00  0.82791567875E+00  0.11802532178E+01  0.00000000000E+00 0. -1.
         11    1    3    3    0    0  0.90392845639E+01  0.11678139765E+02  0.83431391953E+01  0.16961591485E+02  0.51100000000E-03 0. -1.
        -11    1    3    3    0    0  0.26392453173E+02 -0.10422558788E+02 -0.20934135867E+02  0.35262293756E+02  0.51100000000E-03 0.  1.
         12    1    3    3    0    0 -0.35901792995E+02 -0.55801281427E+00  0.11763080993E+02  0.37783861541E+02  0.00000000000E+00 0. -1.
</event>
<event>
 7    1  0.2569312E-015  0.9000778E+02  0.7816164E-02  0.1186339E+00
        -11   -1    0    0    0    0  0.00000000000E+00  0.00000000000E+00  0.45593999997E+02  0.45594000000E+02  0.51100000000E-03 0. -1.
         11   -1    0    0    0    0 -0.00000000000E+00 -0.00000000000E+00 -0.45593999997E+02  0.45594000000E+02  0.51100000000E-03 0.  1.
    9900012    2    1    2    0    0 -0.11457017790E+01  0.27349564979E+00  0.74104002781E-01  0.90007778055E+02  0.90000039925E+02 0.  0.
         12    1    1    2    0    0  0.11457017790E+01 -0.27349564979E+00 -0.74104002781E-01  0.11802219453E+01  0.00000000000E+00 0. -1.
         11    1    3    3    0    0  0.23972537963E+02 -0.40615469438E+01  0.11432260358E+02  0.26867737477E+02  0.51100000000E-03 0. -1.
        -11    1    3    3    0    0  0.99219745704E+00  0.21801508097E+02 -0.20992873694E+02  0.30281858551E+02  0.51100000000E-03 0.  1.
         12    1    3    3    0    0 -0.26110437199E+02 -0.17466465503E+02  0.96347173391E+01  0.32858182027E+02  0.00000000000E+00 0. -1.
</event>
<event>
 7    1  0.2569312E-015  0.9000780E+02  0.7816164E-02  0.1186339E+00
        -11   -1    0    0    0    0  0.00000000000E+00  0.00000000000E+00  0.45593999997E+02  0.45594000000E+02  0.51100000000E-03 0.  1.
         11   -1    0    0    0    0 -0.00000000000E+00 -0.00000000000E+00 -0.45593999997E+02  0.45594000000E+02  0.51100000000E-03 0. -1.
    9900012    2    1    2    0    0 -0.10738366665E+01  0.22060830570E+00  0.43712602272E+00  0.90007799860E+02  0.90000062018E+02 0.  0.
         12    1    1    2    0    0  0.10738366665E+01 -0.22060830570E+00 -0.43712602272E+00  0.11802001401E+01  0.00000000000E+00 0. -1.
         11    1    3    3    0    0 -0.50345444097E+01 -0.23122839526E+02 -0.31692089338E+02  0.39552507784E+02  0.51100000000E-03 0. -1.
        -11    1    3    3    0    0  0.26206108814E+01 -0.71542435072E+01  0.27865735904E+01  0.81126933991E+01  0.51100000000E-03 0.  1.
        -12    1    3    3    0    0  0.13400968617E+01  0.30497691339E+02  0.29342641770E+02  0.42342598676E+02  0.00000000000E+00 0.  1.
</event>
<event>
 7    1  0.2569312E-015  0.9000767E+02  0.7816164E-02  0.1186339E+00
        -11   -1    0    0    0    0  0.00000000000E+00  0.00000000000E+00  0.45593999997E+02  0.45594000000E+02  0.51100000000E-03 0.  1.
         11   -1    0    0    0    0 -0.00000000000E+00 -0.00000000000E+00 -0.45593999997E+02  0.45594000000E+02  0.51100000000E-03 0. -1.
    9900012    2    1    2    0    0  0.27499597302E+00  0.74186788509E+00  0.87589728960E+00  0.90007666655E+02  0.89999927055E+02 0.  0.
         12    1    1    2    0    0 -0.27499597302E+00 -0.74186788509E+00 -0.87589728960E+00  0.11803333453E+01  0.00000000000E+00 0. -1.
         11    1    3    3    0    0 -0.81166204130E+01 -0.30499949703E+02 -0.25766736883E+02  0.40743725758E+02  0.51100000000E-03 0. -1.
        -11    1    3    3    0    0  0.14867569102E+02  0.76433763021E+01  0.81905559506E+01  0.18615880837E+02  0.51100000000E-03 0.  1.
        -12    1    3    3    0    0 -0.64759527162E+01  0.23598441286E+02  0.18452078222E+02  0.30648060059E+02  0.00000000000E+00 0.  1.
</event>
<event>
 7    1  0.2569312E-015  0.9000771E+02  0.7816164E-02  0.1186339E+00
        -11   -1    0    0    0    0  0.00000000000E+00  0.00000000000E+00  0.45593999997E+02  0.45594000000E+02  0.51100000000E-03 0.  1.
         11   -1    0    0    0    0 -0.00000000000E+00 -0.00000000000E+00 -0.45593999997E+02  0.45594000000E+02  0.51100000000E-03 0. -1.
    9900012    2    1    2    0    0  0.44312773779E+00  0.33622549982E+00  0.10409946222E+01  0.90007712077E+02  0.89999973076E+02 0.  0.
         12    1    1    2    0    0 -0.44312773779E+00 -0.33622549982E+00 -0.10409946222E+01  0.11802879234E+01  0.00000000000E+00 0. -1.
         11    1    3    3    0    0  0.57227614411E+01 -0.82794661257E+01 -0.75330853595E+00  0.10092919887E+02  0.51100000000E-03 0. -1.
        -11    1    3    3    0    0 -0.20290051489E+02 -0.26821513968E+01  0.35700844529E+02  0.41151311350E+02  0.51100000000E-03 0.  1.
         12    1    3    3    0    0  0.15010417786E+02  0.11297843022E+02 -0.33906541370E+02  0.38763480839E+02  0.00000000000E+00 0. -1.
</event>
<event>
 7    1  0.2569312E-015  0.9000786E+02  0.7816164E-02  0.1186339E+00
        -11   -1    0    0    0    0  0.00000000000E+00  0.00000000000E+00  0.45593999997E+02  0.45594000000E+02  0.51100000000E-03 0. -1.
         11   -1    0    0    0    0 -0.00000000000E+00 -0.00000000000E+00 -0.45593999997E+02  0.45594000000E+02  0.51100000000E-03 0.  1.
    9900012    2    1    2    0    0  0.70484728885E+00 -0.85365557806E+00 -0.40887895348E+00  0.90007864607E+02  0.90000127620E+02 0.  0.
         12    1    1    2    0    0 -0.70484728885E+00  0.85365557806E+00  0.40887895348E+00  0.11801353927E+01  0.00000000000E+00 0. -1.
         11    1    3    3    0    0  0.82598277966E+01 -0.14420118396E+02  0.36589294974E+02  0.40186329475E+02  0.51100000000E-03 0. -1.
        -11    1    3    3    0    0  0.73696906292E+01  0.79890159750E+01 -0.15782084547E+01  0.10983053237E+02  0.51100000000E-03 0.  1.
        -12    1    3    3    0    0 -0.14924671137E+02  0.55774468429E+01 -0.35419965472E+02  0.38838481895E+02  0.00000000000E+00 0.  1.
</event>
<event>
 7    1  0.2569312E-015  0.9000783E+02  0.7816164E-02  0.1186339E+00
        -11   -1    0    0    0    0  0.00000000000E+00  0.00000000000E+00  0.45593999997E+02  0.45594000000E+02  0.51100000000E-03 0.  1.
         11   -1    0    0    0    0 -0.00000000000E+00 -0.00000000000E+00 -0.45593999997E+02  0.45594000000E+02  0.51100000000E-03 0. -1.
    9900012    2    1    2    0    0 -0.86015599339E+00  0.61928914786E+00  0.51906159903E+00  0.90007825299E+02  0.90000087793E+02 0.  0.
         12    1    1    2    0    0  0.86015599339E+00 -0.61928914786E+00 -0.51906159903E+00  0.11801747011E+01  0.00000000000E+00 0. -1.
         11    1    3    3    0    0 -0.34304381105E+02  0.75326076120E+01 -0.10912081371E+02  0.36777768564E+02  0.51100000000E-03 0. -1.
        -11    1    3    3    0    0 -0.40670086866E+01 -0.46446908761E+01 -0.86455842968E+01  0.10623551246E+02  0.51100000000E-03 0.  1.
        -12    1    3    3    0    0  0.37511233798E+02 -0.22686275880E+01  0.20076727267E+02  0.42606505489E+02  0.00000000000E+00 0.  1.
</event>
<event>
 7    1  0.2569312E-015  0.9000775E+02  0.7816164E-02  0.1186339E+00
        -11   -1    0    0    0    0  0.00000000000E+00  0.00000000000E+00  0.45593999997E+02  0.45594000000E+02  0.51100000000E-03 0. -1.
         11   -1    0    0    0    0 -0.00000000000E+00 -0.00000000000E+00 -0.45593999997E+02  0.45594000000E+02  0.51100000000E-03 0.  1.
    9900012    2    1    2    0    0 -0.17245500514E+00 -0.11432972819E+01 -0.23690189759E+00  0.90007749216E+02  0.90000010706E+02 0.  0.
         12    1    1    2    0    0  0.17245500514E+00  0.11432972819E+01  0.23690189759E+00  0.11802507838E+01  0.00000000000E+00 0. -1.
         11    1    3    3    0    0 -0.77403911109E+00  0.85367182765E+01 -0.49583410723E+01  0.99025169492E+01  0.51100000000E-03 0. -1.
        -11    1    3    3    0    0  0.69705693808E+01 -0.53781679569E+01 -0.36820424143E+02  0.37858382987E+02  0.51100000000E-03 0.  1.
         12    1    3    3    0    0 -0.63689852748E+01 -0.43018476015E+01  0.41541863317E+02  0.42246849280E+02  0.00000000000E+00 0. -1.
</event>
<event>
 7    1  0.2569312E-015  0.9000774E+02  0.7816164E-02  0.1186339E+00
        -11   -1    0    0    0    0  0.00000000000E+00  0.00000000000E+00  0.45593999997E+02  0.45594000000E+02  0.51100000000E-03 0. -1.
         11   -1    0    0    0    0 -0.00000000000E+00 -0.00000000000E+00 -0.45593999997E+02  0.45594000000E+02  0.51100000000E-03 0.  1.
    9900012    2    1    2    0    0 -0.17096121299E+00 -0.52280403961E+00 -0.10442532459E+01  0.90007738740E+02  0.90000000091E+02 0.  0.
         12    1    1    2    0    0  0.17096121299E+00  0.52280403961E+00  0.10442532459E+01  0.11802612599E+01  0.00000000000E+00 0. -1.
         11    1    3    3    0    0  0.71081269916E+01  0.82818621284E+00 -0.54645586471E+01  0.90040414926E+01  0.51100000000E-03 0. -1.
        -11    1    3    3    0    0 -0.42119501616E+02  0.60611362916E+01 -0.79637810194E+01  0.43292165549E+02  0.51100000000E-03 0.  1.
         12    1    3    3    0    0  0.34840413411E+02 -0.74121265441E+01  0.12384086421E+02  0.37711531699E+02  0.00000000000E+00 0. -1.
</event>
<event>
 7    1  0.2569312E-015  0.9000764E+02  0.7816164E-02  0.1186339E+00
        -11   -1    0    0    0    0  0.00000000000E+00  0.00000000000E+00  0.45593999997E+02  0.45594000000E+02  0.51100000000E-03 0. -1.
         11   -1    0    0    0    0 -0.00000000000E+00 -0.00000000000E+00 -0.45593999997E+02  0.45594000000E+02  0.51100000000E-03 0.  1.
    9900012    2    1    2    0    0 -0.86814929226E+00  0.78777557115E+00 -0.13773240650E+00  0.90007642529E+02  0.89999902610E+02 0.  0.
         12    1    1    2    0    0  0.86814929226E+00 -0.78777557115E+00  0.13773240650E+00  0.11803574713E+01  0.00000000000E+00 0. -1.
         11    1    3    3    0    0 -0.18017648187E+02 -0.27686084133E+02 -0.18154981540E+02  0.37692947030E+02  0.51100000000E-03 0. -1.
        -11    1    3    3    0    0  0.64605170009E+01 -0.57997787163E+01 -0.46571874458E+01  0.98521626176E+01  0.51100000000E-03 0.  1.
        -12    1    3    3    0    0  0.10688981894E+02  0.34273638420E+02  0.22674436579E+02  0.42462532881E+02  0.00000000000E+00 0.  1.
</event>
<event>
 7    1  0.2569312E-015  0.9000760E+02  0.7816164E-02  0.1186339E+00
        -11   -1    0    0    0    0  0.00000000000E+00  0.00000000000E+00  0.45593999997E+02  0.45594000000E+02  0.51100000000E-03 0.  1.
         11   -1    0    0    0    0 -0.00000000000E+00 -0.00000000000E+00 -0.45593999997E+02  0.45594000000E+02  0.51100000000E-03 0. -1.
    9900012    2    1    2    0    0  0.33462099444E-01 -0.11775668764E+01  0.74579810320E-01  0.90007599386E+02  0.89999858898E+02 0.  0.
         12    1    1    2    0    0 -0.33462099444E-01  0.11775668764E+01 -0.74579810320E-01  0.11804006136E+01  0.00000000000E+00 0. -1.
         11    1    3    3    0    0 -0.12203807501E+02  0.75223108919E+01 -0.33583791469E+02  0.36515601164E+02  0.51100000000E-03 0. -1.
        -11    1    3    3    0    0 -0.14598619145E+01 -0.54001194289E+01 -0.78604849329E+01  0.96477826622E+01  0.51100000000E-03 0.  1.
        -12    1    3    3    0    0  0.13697131515E+02 -0.32997583393E+01  0.41518856213E+02  0.43844215560E+02  0.00000000000E+00 0.  1.
</event>
<event>
 7    1  0.2569312E-015  0.9000774E+02  0.7816164E-02  0.1186339E+00
        -11   -1    0    0    0    0  0.00000000000E+00  0.00000000000E+00  0.45593999997E+02  0.45594000000E+02  0.51100000000E-03 0.  1.
         11   -1    0    0    0    0 -0.00000000000E+00 -0.00000000000E+00 -0.45593999997E+02  0.45594000000E+02  0.51100000000E-03 0. -1.
    9900012    2    1    2    0    0 -0.54356126891E-01  0.14440869729E+00  0.11701282278E+01  0.90007742176E+02  0.90000003573E+02 0.  0.
         12    1    1    2    0    0  0.54356126891E-01 -0.14440869729E+00 -0.11701282278E+01  0.11802578235E+01  0.00000000000E+00 0. -1.
         11    1    3    3    0    0  0.10281098430E+02  0.18854870569E+02 -0.31328319023E+02  0.37982505212E+02  0.51100000000E-03 0. -1.
        -11    1    3    3    0    0  0.13852367077E+01  0.93177172350E+01  0.35662523764E+01  0.10072581173E+02  0.51100000000E-03 0.  1.
        -12    1    3    3    0    0 -0.11720691264E+02 -0.28028179107E+02  0.28932194875E+02  0.41952655792E+02  0.00000000000E+00 0.  1.
</event>
<event>
 7    1  0.2569312E-015  0.9000774E+02  0.7816164E-02  0.1186339E+00
        -11   -1    0    0    0    0  0.00000000000E+00  0.00000000000E+00  0.45593999997E+02  0.45594000000E+02  0.51100000000E-03 0. -1.
         11   -1    0    0    0    0 -0.00000000000E+00 -0.00000000000E+00 -0.45593999997E+02  0.45594000000E+02  0.51100000000E-03 0.  1.
    9900012    2    1    2    0    0 -0.10215467695E+01 -0.55302337079E+00  0.20888358642E+00  0.90007735198E+02  0.89999996502E+02 0.  0.
         12    1    1    2    0    0  0.10215467695E+01  0.55302337079E+00 -0.20888358642E+00  0.11802648024E+01  0.00000000000E+00 0. -1.
         11    1    3    3    0    0 -0.19158750859E+02 -0.28757179925E+02 -0.13189938935E+01  0.34579949058E+02  0.51100000000E-03 0. -1.
        -11    1    3    3    0    0 -0.59924589822E+01 -0.86370451153E+01  0.41688871809E+01  0.11308745888E+02  0.51100000000E-03 0.  1.
        -12    1    3    3    0    0  0.24129663072E+02  0.36841201670E+02 -0.26410097009E+01  0.44119040251E+02  0.00000000000E+00 0.  1.
</event>
<event>
 7    1  0.2569312E-015  0.9000776E+02  0.7816164E-02  0.1186339E+00
        -11   -1    0    0    0    0  0.00000000000E+00  0.00000000000E+00  0.45593999997E+02  0.45594000000E+02  0.51100000000E-03 0. -1.
         11   -1    0    0    0    0 -0.00000000000E+00 -0.00000000000E+00 -0.45593999997E+02  0.45594000000E+02  0.51100000000E-03 0.  1.
    9900012    2    1    2    0    0 -0.66928689664E+00 -0.85057585483E+00 -0.47067870035E+00  0.90007761603E+02  0.90000023256E+02 0.  0.
         12    1    1    2    0    0  0.66928689664E+00  0.85057585483E+00  0.47067870035E+00  0.11802383970E+01  0.00000000000E+00 0. -1.
         11    1    3    3    0    0 -0.36449770136E+02  0.54739518861E+01 -0.43675422110E+01  0.37116375327E+02  0.51100000000E-03 0. -1.
        -11    1    3    3    0    0 -0.22417313073E+01 -0.12052162172E+02  0.73367411155E+01  0.14286628109E+02  0.51100000000E-03 0.  1.
        -12    1    3    3    0    0  0.38022214546E+02  0.57276344309E+01 -0.34398776049E+01  0.38604758167E+02  0.00000000000E+00 0.  1.
</event>
<event>
 7    1  0.2569312E-015  0.9000780E+02  0.7816164E-02  0.1186339E+00
        -11   -1    0    0    0    0  0.00000000000E+00  0.00000000000E+00  0.45593999997E+02  0.45594000000E+02  0.51100000000E-03 0. -1.
         11   -1    0    0    0    0 -0.00000000000E+00 -0.00000000000E+00 -0.45593999997E+02  0.45594000000E+02  0.51100000000E-03 0.  1.
    9900012    2    1    2    0    0  0.24689303060E+00 -0.97079078896E+00 -0.62407647921E+00  0.90007804094E+02  0.90000066308E+02 0.  0.
         12    1    1    2    0    0 -0.24689303060E+00  0.97079078896E+00  0.62407647921E+00  0.11801959059E+01  0.00000000000E+00 0. -1.
         11    1    3    3    0    0 -0.13743557707E+02 -0.16155720640E+02  0.32141194572E+02  0.38509077847E+02  0.51100000000E-03 0. -1.
        -11    1    3    3    0    0 -0.75822120340E+01  0.22004978781E+01  0.23971244539E+01  0.82509597108E+01  0.51100000000E-03 0.  1.
        -12    1    3    3    0    0  0.21572662771E+02  0.12984431973E+02 -0.35162395505E+02  0.43247766536E+02  0.00000000000E+00 0.  1.
</event>
<event>
 7    1  0.2569312E-015  0.9000805E+02  0.7816164E-02  0.1186338E+00
        -11   -1    0    0    0    0  0.00000000000E+00  0.00000000000E+00  0.45593999997E+02  0.45594000000E+02  0.51100000000E-03 0. -1.
         11   -1    0    0    0    0 -0.00000000000E+00 -0.00000000000E+00 -0.45593999997E+02  0.45594000000E+02  0.51100000000E-03 0.  1.
    9900012    2    1    2    0    0 -0.11369917347E+01 -0.31246253432E+00 -0.43611591689E-01  0.90008048725E+02  0.90000314168E+02 0.  0.
         12    1    1    2    0    0  0.11369917347E+01  0.31246253432E+00  0.43611591689E-01  0.11799512749E+01  0.00000000000E+00 0. -1.
         11    1    3    3    0    0 -0.13440804306E+02 -0.26515753957E+02  0.27622517209E+02  0.40580092231E+02  0.51100000000E-03 0. -1.
        -11    1    3    3    0    0 -0.33369569997E+01 -0.49205749773E+01 -0.57684138072E+01  0.82838359615E+01  0.51100000000E-03 0.  1.
        -12    1    3    3    0    0  0.15640769571E+02  0.31123866400E+02 -0.21897714993E+02  0.41144120532E+02  0.00000000000E+00 0.  1.
</event>
<event>
 7    1  0.2569312E-015  0.9000853E+02  0.7816164E-02  0.1186337E+00
        -11   -1    0    0    0    0  0.00000000000E+00  0.00000000000E+00  0.45593999997E+02  0.45594000000E+02  0.51100000000E-03 0. -1.
         11   -1    0    0    0    0 -0.00000000000E+00 -0.00000000000E+00 -0.45593999997E+02  0.45594000000E+02  0.51100000000E-03 0.  1.
    9900012    2    1    2    0    0  0.10594066501E+01  0.82180172067E-01  0.51190889169E+00  0.90008531160E+02  0.90000802968E+02 0.  0.
         12    1    1    2    0    0 -0.10594066501E+01 -0.82180172067E-01 -0.51190889169E+00  0.11794688400E+01  0.00000000000E+00 0. -1.
         11    1    3    3    0    0  0.43193523803E+00 -0.28308408610E+02  0.30717313013E+02  0.41774464510E+02  0.51100000000E-03 0. -1.
        -11    1    3    3    0    0 -0.90810985229E+01  0.17541783989E+01 -0.70688206044E+01  0.11640950014E+02  0.51100000000E-03 0.  1.
        -12    1    3    3    0    0  0.97085699350E+01  0.26636410383E+02 -0.23136583517E+02  0.36593116636E+02  0.00000000000E+00 0.  1.
</event>
<event>
 7    1  0.2569312E-015  0.9000792E+02  0.7816164E-02  0.1186339E+00
        -11   -1    0    0    0    0  0.00000000000E+00  0.00000000000E+00  0.45593999997E+02  0.45594000000E+02  0.51100000000E-03 0.  1.
         11   -1    0    0    0    0 -0.00000000000E+00 -0.00000000000E+00 -0.45593999997E+02  0.45594000000E+02  0.51100000000E-03 0. -1.
    9900012    2    1    2    0    0 -0.33585465664E+00  0.83959076267E+00  0.75820435039E+00  0.90007921682E+02  0.90000185448E+02 0.  0.
         12    1    1    2    0    0  0.33585465664E+00 -0.83959076267E+00 -0.75820435039E+00  0.11800783178E+01  0.00000000000E+00 0. -1.
         11    1    3    3    0    0 -0.29565523060E+02 -0.11328259823E+02 -0.22973418030E+02  0.39118123175E+02  0.51100000000E-03 0. -1.
        -11    1    3    3    0    0 -0.51995990851E+01  0.32014831063E+01 -0.25910088188E+01  0.66331479469E+01  0.51100000000E-03 0.  1.
        -12    1    3    3    0    0  0.34429267489E+02  0.89663674791E+01  0.26322631199E+02  0.44256650561E+02  0.00000000000E+00 0.  1.
</event>
<event>
 7    1  0.2569312E-015  0.9000767E+02  0.7816164E-02  0.1186339E+00
        -11   -1    0    0    0    0  0.00000000000E+00  0.00000000000E+00  0.45593999997E+02  0.45594000000E+02  0.51100000000E-03 0.  1.
         11   -1    0    0    0    0 -0.00000000000E+00 -0.00000000000E+00 -0.45593999997E+02  0.45594000000E+02  0.51100000000E-03 0. -1.
    9900012    2    1    2    0    0 -0.16220582338E+00  0.33191085276E+00  0.11210305821E+01  0.90007667373E+02  0.89999927783E+02 0.  0.
         12    1    1    2    0    0  0.16220582338E+00 -0.33191085276E+00 -0.11210305821E+01  0.11803326266E+01  0.00000000000E+00 0. -1.
         11    1    3    3    0    0 -0.27445443152E+02 -0.12434372517E+02 -0.18513682235E+02  0.35364140027E+02  0.51100000000E-03 0. -1.
        -11    1    3    3    0    0  0.27227948998E+01 -0.14160741166E+02  0.38405104787E+01  0.14922792079E+02  0.51100000000E-03 0.  1.
        -12    1    3    3    0    0  0.24560442429E+02  0.26927024536E+02  0.15794202339E+02  0.39720735267E+02  0.00000000000E+00 0.  1.
</event>
<event>
 7    1  0.2569312E-015  0.9000791E+02  0.7816164E-02  0.1186339E+00
        -11   -1    0    0    0    0  0.00000000000E+00  0.00000000000E+00  0.45593999997E+02  0.45594000000E+02  0.51100000000E-03 0.  1.
         11   -1    0    0    0    0 -0.00000000000E+00 -0.00000000000E+00 -0.45593999997E+02  0.45594000000E+02  0.51100000000E-03 0. -1.
    9900012    2    1    2    0    0 -0.10878342237E+01  0.37829534572E+00 -0.25712937433E+00  0.90007912638E+02  0.90000176285E+02 0.  0.
         12    1    1    2    0    0  0.10878342237E+01 -0.37829534572E+00  0.25712937433E+00  0.11800873620E+01  0.00000000000E+00 0. -1.
         11    1    3    3    0    0  0.97768648733E+01 -0.96907915265E+00  0.14306133746E+01  0.99283863766E+01  0.51100000000E-03 0. -1.
        -11    1    3    3    0    0 -0.28501978632E+00 -0.40439964954E+01  0.38224252532E+02  0.38438634547E+02  0.51100000000E-03 0.  1.
         12    1    3    3    0    0 -0.10579679311E+02  0.53913709938E+01 -0.39911995281E+02  0.41640891715E+02  0.00000000000E+00 0. -1.
</event>
<event>
 7    1  0.2569312E-015  0.9000797E+02  0.7816164E-02  0.1186339E+00
        -11   -1    0    0    0    0  0.00000000000E+00  0.00000000000E+00  0.45593999997E+02  0.45594000000E+02  0.51100000000E-03 0.  1.
         11   -1    0    0    0    0 -0.00000000000E+00 -0.00000000000E+00 -0.45593999997E+02  0.45594000000E+02  0.51100000000E-03 0. -1.
    9900012    2    1    2    0    0 -0.50293840265E+00 -0.49832389573E-01  0.10663195525E+01  0.90007971317E+02  0.90000235738E+02 0.  0.
         12    1    1    2    0    0  0.50293840265E+00  0.49832389573E-01 -0.10663195525E+01  0.11800286827E+01  0.00000000000E+00 0. -1.
         11    1    3    3    0    0 -0.43625674053E+01  0.75862805785E+01  0.17210381353E+01  0.89188351204E+01  0.51100000000E-03 0. -1.
        -11    1    3    3    0    0  0.33229582029E+02  0.16656415825E+02  0.14735413448E+02  0.39984668558E+02  0.51100000000E-03 0.  1.
         12    1    3    3    0    0 -0.29369953026E+02 -0.24292528793E+02 -0.15390132031E+02  0.41104467639E+02  0.00000000000E+00 0. -1.
</event>
<event>
 7    1  0.2569312E-015  0.9000772E+02  0.7816164E-02  0.1186339E+00
        -11   -1    0    0    0    0  0.00000000000E+00  0.00000000000E+00  0.45593999997E+02  0.45594000000E+02  0.51100000000E-03 0.  1.
         11   -1    0    0    0    0 -0.00000000000E+00 -0.00000000000E+00 -0.45593999997E+02  0.45594000000E+02  0.51100000000E-03 0. -1.
    9900012    2    1    2    0    0  0.63625967052E-03 -0.96999403977E+00  0.67244389045E+00  0.90007716293E+02  0.89999977349E+02 0.  0.
         12    1    1    2    0    0 -0.63625967052E-03  0.96999403977E+00 -0.67244389045E+00  0.11802837065E+01  0.00000000000E+00 0. -1.
         11    1    3    3    0    0  0.52162778728E+01 -0.50029291309E+01  0.47890233652E+01  0.86702710332E+01  0.51100000000E-03 0. -1.
        -11    1    3    3    0    0 -0.21386856694E+02 -0.24378617957E+01  0.33536903396E+02  0.39850529470E+02  0.51100000000E-03 0.  1.
         12    1    3    3    0    0  0.16171215081E+02  0.64707968868E+01 -0.37653482870E+02  0.41486915791E+02  0.00000000000E+00 0. -1.
</event>
<event>
 7    1  0.2569312E-015  0.9000730E+02  0.7816164E-02  0.1186340E+00
        -11   -1    0    0    0    0  0.00000000000E+00  0.00000000000E+00  0.45593999997E+02  0.45594000000E+02  0.51100000000E-03 0.  1.
         11   -1    0    0    0    0 -0.00000000000E+00 -0.00000000000E+00 -0.45593999997E+02  0.45594000000E+02  0.51100000000E-03 0. -1.
    9900012    2    1    2    0    0  0.14347557275E+00 -0.59014660909E+00  0.10125140552E+01  0.90007304031E+02  0.89999559643E+02 0.  0.
         12    1    1    2    0    0 -0.14347557275E+00  0.59014660909E+00 -0.10125140552E+01  0.11806959694E+01  0.00000000000E+00 0. -1.
         11    1    3    3    0    0 -0.29273318078E+01 -0.54945822726E+00  0.87185928571E+01  0.92133076322E+01  0.51100000000E-03 0. -1.
        -11    1    3    3    0    0  0.68825070921E+01 -0.25652558390E+02  0.26747868292E+02  0.37694444077E+02  0.51100000000E-03 0.  1.
         12    1    3    3    0    0 -0.38116997116E+01  0.25611870008E+02 -0.34453947094E+02  0.43099552322E+02  0.00000000000E+00 0. -1.
</event>
<event>
 7    1  0.2569312E-015  0.9000789E+02  0.7816164E-02  0.1186339E+00
        -11   -1    0    0    0    0  0.00000000000E+00  0.00000000000E+00  0.45593999997E+02  0.45594000000E+02  0.51100000000E-03 0. -1.
         11   -1    0    0    0    0 -0.00000000000E+00 -0.00000000000E+00 -0.45593999997E+02  0.45594000000E+02  0.51100000000E-03 0.  1.
    9900012    2    1    2    0    0 -0.95885957197E+00  0.94784278949E-01 -0.68136538073E+00  0.90007892157E+02  0.90000155534E+02 0.  0.
         12    1    1    2    0    0  0.95885957197E+00 -0.94784278949E-01  0.68136538073E+00  0.11801078427E+01  0.00000000000E+00 0. -1.
         11    1    3    3    0    0 -0.31956385702E+02 -0.96719215870E+01  0.14152374744E+02  0.36263568019E+02  0.51100000000E-03 0. -1.
        -11    1    3    3    0    0 -0.81965561928E+01  0.74255494184E+01  0.16092236246E+01  0.11176400070E+02  0.51100000000E-03 0.  1.
        -12    1    3    3    0    0  0.39194082323E+02  0.23411564476E+01 -0.16442963749E+02  0.42567924068E+02  0.00000000000E+00 0.  1.
</event>
<event>
 7    1  0.2569312E-015  0.9000754E+02  0.7816164E-02  0.1186339E+00
        -11   -1    0    0    0    0  0.00000000000E+00  0.00000000000E+00  0.45593999997E+02  0.45594000000E+02  0.51100000000E-03 0.  1.
         11   -1    0    0    0    0 -0.00000000000E+00 -0.00000000000E+00 -0.45593999997E+02  0.45594000000E+02  0.51100000000E-03 0. -1.
    9900012    2    1    2    0    0 -0.25774476305E+00 -0.40171794973E+00  0.10796669022E+01  0.90007538102E+02  0.89999796804E+02 0.  0.
         12    1    1    2    0    0  0.25774476305E+00  0.40171794973E+00 -0.10796669022E+01  0.11804618984E+01  0.00000000000E+00 0. -1.
         11    1    3    3    0    0  0.18872051395E+02  0.31310375937E+02  0.17416994347E+02  0.40495007809E+02  0.51100000000E-03 0. -1.
        -11    1    3    3    0    0  0.67011553971E+01 -0.60912013535E+01  0.11806699324E+01  0.91324804590E+01  0.51100000000E-03 0.  1.
        -12    1    3    3    0    0 -0.25830951555E+02 -0.25620892533E+02 -0.17517997377E+02  0.40380049833E+02  0.00000000000E+00 0.  1.
</event>
<event>
 7    1  0.2569312E-015  0.9000775E+02  0.7816164E-02  0.1186339E+00
        -11   -1    0    0    0    0  0.00000000000E+00  0.00000000000E+00  0.45593999997E+02  0.45594000000E+02  0.51100000000E-03 0.  1.
         11   -1    0    0    0    0 -0.00000000000E+00 -0.00000000000E+00 -0.45593999997E+02  0.45594000000E+02  0.51100000000E-03 0. -1.
    9900012    2    1    2    0    0 -0.97076248269E+00  0.12197438933E+00  0.66009677462E+00  0.90007752017E+02  0.90000013544E+02 0.  0.
         12    1    1    2    0    0  0.97076248269E+00 -0.12197438933E+00 -0.66009677462E+00  0.11802479830E+01  0.00000000000E+00 0. -1.
         11    1    3    3    0    0 -0.28576509732E+02  0.12474493462E+02 -0.32149780707E+02  0.44786586109E+02  0.51100000000E-03 0. -1.
        -11    1    3    3    0    0  0.52166154080E+01 -0.43104976940E+01  0.40084634871E+01  0.78651920812E+01  0.51100000000E-03 0.  1.
        -12    1    3    3    0    0  0.22389131841E+02 -0.80420213783E+01  0.28801413994E+02  0.37355973826E+02  0.00000000000E+00 0.  1.
</event>
<event>
 7    1  0.2569312E-015  0.9000774E+02  0.7816164E-02  0.1186339E+00
        -11   -1    0    0    0    0  0.00000000000E+00  0.00000000000E+00  0.45593999997E+02  0.45594000000E+02  0.51100000000E-03 0. -1.
         11   -1    0    0    0    0 -0.00000000000E+00 -0.00000000000E+00 -0.45593999997E+02  0.45594000000E+02  0.51100000000E-03 0.  1.
    9900012    2    1    2    0    0 -0.93395533991E+00  0.41974003709E+00  0.58700093890E+00  0.90007735463E+02  0.89999996771E+02 0.  0.
         12    1    1    2    0    0  0.93395533991E+00 -0.41974003709E+00 -0.58700093890E+00  0.11802645373E+01  0.00000000000E+00 0. -1.
         11    1    3    3    0    0 -0.85129573812E+01 -0.44938317282E+01 -0.57470841863E+01  0.11211331049E+02  0.51100000000E-03 0. -1.
        -11    1    3    3    0    0 -0.13276120584E+02  0.31441397461E+02 -0.16644166536E+02  0.37971635888E+02  0.51100000000E-03 0.  1.
         12    1    3    3    0    0  0.20855122625E+02 -0.26527825696E+02  0.22978251661E+02  0.40824768526E+02  0.00000000000E+00 0. -1.
</event>
<event>
 7    1  0.2569312E-015  0.9000768E+02  0.7816164E-02  0.1186339E+00
        -11   -1    0    0    0    0  0.00000000000E+00  0.00000000000E+00  0.45593999997E+02  0.45594000000E+02  0.51100000000E-03 0.  1.
         11   -1    0    0    0    0 -0.00000000000E+00 -0.00000000000E+00 -0.45593999997E+02  0.45594000000E+02  0.51100000000E-03 0. -1.
    9900012    2    1    2    0    0 -0.82309181467E+00 -0.83123306843E+00  0.15728194581E+00  0.90007675401E+02  0.89999935916E+02 0.  0.
         12    1    1    2    0    0  0.82309181467E+00  0.83123306843E+00 -0.15728194581E+00  0.11803245994E+01  0.00000000000E+00 0. -1.
         11    1    3    3    0    0  0.26938701964E+01  0.66394453921E+01  0.59509181382E+01  0.93141075095E+01  0.51100000000E-03 0. -1.
        -11    1    3    3    0    0 -0.31263270850E+02 -0.24171375651E+02  0.14931924605E+02  0.42244643184E+02  0.51100000000E-03 0.  1.
         12    1    3    3    0    0  0.27746308839E+02  0.16700697190E+02 -0.20725560797E+02  0.38448924707E+02  0.00000000000E+00 0. -1.
</event>
<event>
 7    1  0.2569312E-015  0.9000771E+02  0.7816164E-02  0.1186339E+00
        -11   -1    0    0    0    0  0.00000000000E+00  0.00000000000E+00  0.45593999997E+02  0.45594000000E+02  0.51100000000E-03 0.  1.
         11   -1    0    0    0    0 -0.00000000000E+00 -0.00000000000E+00 -0.45593999997E+02  0.45594000000E+02  0.51100000000E-03 0. -1.
    9900012    2    1    2    0    0 -0.56733385622E+00 -0.61726116055E+00  0.83079049268E+00  0.90007706864E+02  0.89999967794E+02 0.  0.
         12    1    1    2    0    0  0.56733385622E+00  0.61726116055E+00 -0.83079049268E+00  0.11802931362E+01  0.00000000000E+00 0. -1.
         11    1    3    3    0    0  0.14409643921E+02 -0.94268323980E+01 -0.58707853549E+01  0.18192556938E+02  0.51100000000E-03 0. -1.
        -11    1    3    3    0    0  0.14005215684E+02  0.30979615138E+02 -0.27866958751E+01  0.34112289495E+02  0.51100000000E-03 0.  1.
        -12    1    3    3    0    0 -0.28982193461E+02 -0.22170043900E+02  0.94882717227E+01  0.37702860431E+02  0.00000000000E+00 0.  1.
</event>
<event>
 7    1  0.2569312E-015  0.9000764E+02  0.7816164E-02  0.1186339E+00
        -11   -1    0    0    0    0  0.00000000000E+00  0.00000000000E+00  0.45593999997E+02  0.45594000000E+02  0.51100000000E-03 0. -1.
         11   -1    0    0    0    0 -0.00000000000E+00 -0.00000000000E+00 -0.45593999997E+02  0.45594000000E+02  0.51100000000E-03 0.  1.
    9900012    2    1    2    0    0 -0.87655342901E+00 -0.35879840261E+00 -0.70439397306E+00  0.90007638582E+02  0.89999898611E+02 0.  0.
         12    1    1    2    0    0  0.87655342901E+00  0.35879840261E+00  0.70439397306E+00  0.11803614179E+01  0.00000000000E+00 0. -1.
         11    1    3    3    0    0  0.36701865650E+02 -0.10134781612E+02 -0.61887473449E+01  0.38575138813E+02  0.51100000000E-03 0. -1.
        -11    1    3    3    0    0  0.35789694254E+01  0.77677521779E+01 -0.35286877214E+01  0.92519529474E+01  0.51100000000E-03 0.  1.
        -12    1    3    3    0    0 -0.41157388504E+02  0.20082310318E+01  0.90130410932E+01  0.42180546821E+02  0.00000000000E+00 0.  1.
</event>
<event>
 7    1  0.2569312E-015  0.9000785E+02  0.7816164E-02  0.1186339E+00
        -11   -1    0    0    0    0  0.00000000000E+00  0.00000000000E+00  0.45593999997E+02  0.45594000000E+02  0.51100000000E-03 0.  1.
         11   -1    0    0    0    0 -0.00000000000E+00 -0.00000000000E+00 -0.45593999997E+02  0.45594000000E+02  0.51100000000E-03 0. -1.
    9900012    2    1    2    0    0  0.87849448605E+00 -0.63508878141E+00  0.46655036691E+00  0.90007847651E+02  0.90000110440E+02 0.  0.
         12    1    1    2    0    0 -0.87849448605E+00  0.63508878141E+00 -0.46655036691E+00  0.11801523491E+01  0.00000000000E+00 0. -1.
         11    1    3    3    0    0  0.22418941641E+02 -0.18514614501E+02 -0.32434847146E+02  0.43559375616E+02  0.51100000000E-03 0. -1.
        -11    1    3    3    0    0 -0.17145173833E+01  0.87521965090E+01  0.29612437293E+01  0.93973122900E+01  0.51100000000E-03 0.  1.
        -12    1    3    3    0    0 -0.19825929772E+02  0.91273292109E+01  0.29940153783E+02  0.37051159745E+02  0.00000000000E+00 0.  1.
</event>
<event>
 7    1  0.2569312E-015  0.9000772E+02  0.7816164E-02  0.1186339E+00
        -11   -1    0    0    0    0  0.00000000000E+00  0.00000000000E+00  0.45593999997E+02  0.45594000000E+02  0.51100000000E-03 0.  1.
         11   -1    0    0    0    0 -0.00000000000E+00 -0.00000000000E+00 -0.45593999997E+02  0.45594000000E+02  0.51100000000E-03 0. -1.
    9900012    2    1    2    0    0 -0.35758819594E+00 -0.10933960704E+01  0.26394146079E+00  0.90007724871E+02  0.89999986040E+02 0.  0.
         12    1    1    2    0    0  0.35758819594E+00  0.10933960704E+01 -0.26394146079E+00  0.11802751287E+01  0.00000000000E+00 0. -1.
         11    1    3    3    0    0  0.35425577142E+02  0.96468474953E+01 -0.11254029441E+02  0.38401645295E+02  0.51100000000E-03 0. -1.
        -11    1    3    3    0    0  0.63416924867E+01 -0.10522633700E+01 -0.12212232594E+01  0.65433713257E+01  0.51100000000E-03 0.  1.
        -12    1    3    3    0    0 -0.42124857825E+02 -0.96879801957E+01  0.12739194161E+02  0.45062708251E+02  0.00000000000E+00 0.  1.
</event>
<event>
 7    1  0.2569312E-015  0.9000796E+02  0.7816164E-02  0.1186339E+00
        -11   -1    0    0    0    0  0.00000000000E+00  0.00000000000E+00  0.45593999997E+02  0.45594000000E+02  0.51100000000E-03 0.  1.
         11   -1    0    0    0    0 -0.00000000000E+00 -0.00000000000E+00 -0.45593999997E+02  0.45594000000E+02  0.51100000000E-03 0. -1.
    9900012    2    1    2    0    0  0.47630390580E+00 -0.10796040893E+01 -0.97576418363E-02  0.90007955250E+02  0.90000219459E+02 0.  0.
         12    1    1    2    0    0 -0.47630390580E+00  0.10796040893E+01  0.97576418363E-02  0.11800447499E+01  0.00000000000E+00 0. -1.
         11    1    3    3    0    0 -0.30807114830E+02 -0.96066435842E+01  0.22715566903E+02  0.39463437573E+02  0.51100000000E-03 0. -1.
        -11    1    3    3    0    0 -0.33274319505E+01  0.98255871337E+01 -0.36059485443E+01  0.10982569420E+02  0.51100000000E-03 0.  1.
        -12    1    3    3    0    0  0.34610850686E+02 -0.12985476389E+01 -0.19119376000E+02  0.39561948257E+02  0.00000000000E+00 0.  1.
</event>
<event>
 7    1  0.2569312E-015  0.9000767E+02  0.7816164E-02  0.1186339E+00
        -11   -1    0    0    0    0  0.00000000000E+00  0.00000000000E+00  0.45593999997E+02  0.45594000000E+02  0.51100000000E-03 0.  1.
         11   -1    0    0    0    0 -0.00000000000E+00 -0.00000000000E+00 -0.45593999997E+02  0.45594000000E+02  0.51100000000E-03 0. -1.
    9900012    2    1    2    0    0 -0.21464139153E+00  0.56984479659E+00  0.10111268115E+01  0.90007673160E+02  0.89999933646E+02 0.  0.
         12    1    1    2    0    0  0.21464139153E+00 -0.56984479659E+00 -0.10111268115E+01  0.11803268395E+01  0.00000000000E+00 0. -1.
         11    1    3    3    0    0  0.74876995545E+00  0.66955334723E+01  0.70578567228E+01  0.97572622546E+01  0.51100000000E-03 0. -1.
        -11    1    3    3    0    0  0.23960525422E+02 -0.54203113173E+01  0.28512270367E+02  0.37635569811E+02  0.51100000000E-03 0.  1.
         12    1    3    3    0    0 -0.24923936769E+02 -0.70537735839E+00 -0.34559000278E+02  0.42614841095E+02  0.00000000000E+00 0. -1.
</event>
<event>
 7    1  0.2569312E-015  0.9000780E+02  0.7816164E-02  0.1186339E+00
        -11   -1    0    0    0    0  0.00000000000E+00  0.00000000000E+00  0.45593999997E+02  0.45594000000E+02  0.51100000000E-03 0. -1.
         11   -1    0    0    0    0 -0.00000000000E+00 -0.00000000000E+00 -0.45593999997E+02  0.45594000000E+02  0.51100000000E-03 0.  1.
    9900012    2    1    2    0    0 -0.74514736753E+00  0.14402405640E+00  0.90382239981E+00  0.90007795586E+02  0.90000057688E+02 0.  0.
         12    1    1    2    0    0  0.74514736753E+00 -0.14402405640E+00 -0.90382239981E+00  0.11802044139E+01  0.00000000000E+00 0. -1.
         11    1    3    3    0    0 -0.30279201803E+01  0.66526899714E+01 -0.38160173344E+01  0.82455183604E+01  0.51100000000E-03 0. -1.
        -11    1    3    3    0    0 -0.32530136044E+02 -0.12674518993E+02 -0.18454268008E+02  0.39489406057E+02  0.51100000000E-03 0.  1.
         12    1    3    3    0    0  0.34812908856E+02  0.61658530785E+01  0.23174107742E+02  0.42272871169E+02  0.00000000000E+00 0. -1.
</event>
<event>
 7    1  0.2569312E-015  0.9000880E+02  0.7816164E-02  0.1186337E+00
        -11   -1    0    0    0    0  0.00000000000E+00  0.00000000000E+00  0.45593999997E+02  0.45594000000E+02  0.51100000000E-03 0.  1.
         11   -1    0    0    0    0 -0.00000000000E+00 -0.00000000000E+00 -0.45593999997E+02  0.45594000000E+02  0.51100000000E-03 0. -1.
    9900012    2    1    2    0    0  0.53389222578E+00  0.27743501668E-01  0.10510427943E+01  0.90008804696E+02  0.90001080111E+02 0.  0.
         12    1    1    2    0    0 -0.53389222578E+00 -0.27743501668E-01 -0.10510427943E+01  0.11791953045E+01  0.00000000000E+00 0. -1.
         11    1    3    3    0    0 -0.15916615117E+01  0.27872274615E+01 -0.73974457654E+01  0.80637601281E+01  0.51100000000E-03 0. -1.
        -11    1    3    3    0    0  0.24220618179E+02  0.31828981133E+02  0.85567131887E+01  0.40901585859E+02  0.51100000000E-03 0.  1.
         12    1    3    3    0    0 -0.22095064442E+02 -0.34588465093E+02 -0.10822462901E+00  0.41043458708E+02  0.00000000000E+00 0. -1.
</event>
<event>
 7    1  0.2569312E-015  0.9000774E+02  0.7816164E-02  0.1186339E+00
        -11   -1    0    0    0    0  0.00000000000E+00  0.00000000000E+00  0.45593999997E+02  0.45594000000E+02  0.51100000000E-03 0. -1.
         11   -1    0    0    0    0 -0.00000000000E+00 -0.00000000000E+00 -0.45593999997E+02  0.45594000000E+02  0.51100000000E-03 0.  1.
    9900012    2    1    2    0    0 -0.96650015769E+00  0.56612379182E+00  0.37201687293E+00  0.90007739327E+02  0.90000000686E+02 0.  0.
         12    1    1    2    0    0  0.96650015769E+00 -0.56612379182E+00 -0.37201687293E+00  0.11802606730E+01  0.00000000000E+00 0. -1.
         11    1    3    3    0    0 -0.12617843373E+01 -0.38823401309E+01  0.81007333099E+01  0.90711931423E+01  0.51100000000E-03 0. -1.
        -11    1    3    3    0    0 -0.29778797828E+02  0.24793239067E+02 -0.18673341189E+02  0.43013662654E+02  0.51100000000E-03 0.  1.
         12    1    3    3    0    0  0.30074082008E+02 -0.20344775144E+02  0.10944624752E+02  0.37922883530E+02  0.00000000000E+00 0. -1.
</event>
<event>
 7    1  0.2569312E-015  0.9000771E+02  0.7816164E-02  0.1186339E+00
        -11   -1    0    0    0    0  0.00000000000E+00  0.00000000000E+00  0.45593999997E+02  0.45594000000E+02  0.51100000000E-03 0.  1.
         11   -1    0    0    0    0 -0.00000000000E+00 -0.00000000000E+00 -0.45593999997E+02  0.45594000000E+02  0.51100000000E-03 0. -1.
    9900012    2    1    2    0    0  0.18627718201E+00  0.45424763455E+00  0.10733377666E+01  0.90007705942E+02  0.89999966860E+02 0.  0.
         12    1    1    2    0    0 -0.18627718201E+00 -0.45424763455E+00 -0.10733377666E+01  0.11802940580E+01  0.00000000000E+00 0. -1.
         11    1    3    3    0    0  0.23254481184E+02  0.21081599308E+02  0.97754426438E+01  0.32874975341E+02  0.51100000000E-03 0. -1.
        -11    1    3    3    0    0  0.94515997284E+01  0.65417512466E+01  0.50870008602E+01  0.12569997009E+02  0.51100000000E-03 0.  1.
        -12    1    3    3    0    0 -0.32519803730E+02 -0.27169102921E+02 -0.13789105737E+02  0.44562733592E+02  0.00000000000E+00 0.  1.
</event>
<event>
 7    1  0.2569312E-015  0.9000776E+02  0.7816164E-02  0.1186339E+00
        -11   -1    0    0    0    0  0.00000000000E+00  0.00000000000E+00  0.45593999997E+02  0.45594000000E+02  0.51100000000E-03 0.  1.
         11   -1    0    0    0    0 -0.00000000000E+00 -0.00000000000E+00 -0.45593999997E+02  0.45594000000E+02  0.51100000000E-03 0. -1.
    9900012    2    1    2    0    0  0.30189261222E+00  0.77142927846E+00  0.84067068633E+00  0.90007758718E+02  0.90000020333E+02 0.  0.
         12    1    1    2    0    0 -0.30189261222E+00 -0.77142927846E+00 -0.84067068633E+00  0.11802412820E+01  0.00000000000E+00 0. -1.
         11    1    3    3    0    0  0.21101421984E+02 -0.15406295100E+02 -0.26056733358E+02  0.36899556800E+02  0.51100000000E-03 0. -1.
        -11    1    3    3    0    0  0.58439232303E+00 -0.40866537179E+01 -0.70439593768E+01  0.81645340933E+01  0.51100000000E-03 0.  1.
        -12    1    3    3    0    0 -0.21383921694E+02  0.20264378097E+02  0.33941363421E+02  0.44943667825E+02  0.00000000000E+00 0.  1.
</event>
<event>
 7    1  0.2569312E-015  0.9000765E+02  0.7816164E-02  0.1186339E+00
        -11   -1    0    0    0    0  0.00000000000E+00  0.00000000000E+00  0.45593999997E+02  0.45594000000E+02  0.51100000000E-03 0. -1.
         11   -1    0    0    0    0 -0.00000000000E+00 -0.00000000000E+00 -0.45593999997E+02  0.45594000000E+02  0.51100000000E-03 0.  1.
    9900012    2    1    2    0    0 -0.66811259802E+00  0.82286724768E+00  0.51937555501E+00  0.90007645851E+02  0.89999905976E+02 0.  0.
         12    1    1    2    0    0  0.66811259802E+00 -0.82286724768E+00 -0.51937555501E+00  0.11803541494E+01  0.00000000000E+00 0. -1.
         11    1    3    3    0    0  0.11999604194E+01  0.52639793509E+01  0.10249831051E+02  0.11584835797E+02  0.51100000000E-03 0. -1.
        -11    1    3    3    0    0 -0.28242426489E+02  0.23670865763E+02  0.49365756579E+01  0.37179487885E+02  0.51100000000E-03 0.  1.
         12    1    3    3    0    0  0.26374353472E+02 -0.28111977866E+02 -0.14667031154E+02  0.41243322168E+02  0.00000000000E+00 0. -1.
</event>
<event>
 7    1  0.2569312E-015  0.9000729E+02  0.7816164E-02  0.1186340E+00
        -11   -1    0    0    0    0  0.00000000000E+00  0.00000000000E+00  0.45593999997E+02  0.45594000000E+02  0.51100000000E-03 0. -1.
         11   -1    0    0    0    0 -0.00000000000E+00 -0.00000000000E+00 -0.45593999997E+02  0.45594000000E+02  0.51100000000E-03 0.  1.
    9900012    2    1    2    0    0  0.96677360587E+00 -0.67756986748E+00 -0.17960046648E-01  0.90007290597E+02  0.89999546032E+02 0.  0.
         12    1    1    2    0    0 -0.96677360587E+00  0.67756986748E+00  0.17960046648E-01  0.11807094027E+01  0.00000000000E+00 0. -1.
         11    1    3    3    0    0  0.19365760005E+01 -0.74891242297E+01 -0.13999023538E+02  0.15994060416E+02  0.51100000000E-03 0. -1.
        -11    1    3    3    0    0  0.19997181776E+02  0.15670721211E+02 -0.20535309970E+02  0.32667380337E+02  0.51100000000E-03 0.  1.
         12    1    3    3    0    0 -0.20966984171E+02 -0.88591668486E+01  0.34516373460E+02  0.41345849844E+02  0.00000000000E+00 0. -1.
</event>
<event>
 7    1  0.2569312E-015  0.9000799E+02  0.7816164E-02  0.1186339E+00
        -11   -1    0    0    0    0  0.00000000000E+00  0.00000000000E+00  0.45593999997E+02  0.45594000000E+02  0.51100000000E-03 0. -1.
         11   -1    0    0    0    0 -0.00000000000E+00 -0.00000000000E+00 -0.45593999997E+02  0.45594000000E+02  0.51100000000E-03 0.  1.
    9900012    2    1    2    0    0  0.64673221199E+00  0.41211790904E+00 -0.89683562034E+00  0.90007992434E+02  0.90000257134E+02 0.  0.
         12    1    1    2    0    0 -0.64673221199E+00 -0.41211790904E+00  0.89683562034E+00  0.11800075656E+01  0.00000000000E+00 0. -1.
         11    1    3    3    0    0 -0.14839940581E+02  0.16335678989E+02  0.91517481359E+01  0.23892106200E+02  0.51100000000E-03 0. -1.
        -11    1    3    3    0    0 -0.21354239989E+02 -0.10301512868E+02 -0.15680400142E+02  0.28425335209E+02  0.51100000000E-03 0.  1.
         12    1    3    3    0    0  0.36840912782E+02 -0.56220482119E+01  0.56318163857E+01  0.37690551025E+02  0.00000000000E+00 0. -1.
</event>
<event>
 7    1  0.2569312E-015  0.9000775E+02  0.7816164E-02  0.1186339E+00
        -11   -1    0    0    0    0  0.00000000000E+00  0.00000000000E+00  0.45593999997E+02  0.45594000000E+02  0.51100000000E-03 0. -1.
         11   -1    0    0    0    0 -0.00000000000E+00 -0.00000000000E+00 -0.45593999997E+02  0.45594000000E+02  0.51100000000E-03 0.  1.
    9900012    2    1    2    0    0 -0.86138538185E+00 -0.80276575520E+00 -0.81128966968E-01  0.90007745984E+02  0.90000007431E+02 0.  0.
         12    1    1    2    0    0  0.86138538185E+00  0.80276575520E+00  0.81128966968E-01  0.11802540163E+01  0.00000000000E+00 0. -1.
         11    1    3    3    0    0 -0.55144322464E+01 -0.59365637241E+01  0.34665649069E+02  0.35599985638E+02  0.51100000000E-03 0. -1.
        -11    1    3    3    0    0  0.61803884233E+00 -0.12803021405E+01  0.94549277213E+01  0.95612135243E+01  0.51100000000E-03 0.  1.
        -12    1    3    3    0    0  0.40350080223E+01  0.64141001094E+01 -0.44201705757E+02  0.44846546821E+02  0.00000000000E+00 0.  1.
</event>
<event>
 7    1  0.2569312E-015  0.9000785E+02  0.7816164E-02  0.1186339E+00
        -11   -1    0    0    0    0  0.00000000000E+00  0.00000000000E+00  0.45593999997E+02  0.45594000000E+02  0.51100000000E-03 0. -1.
         11   -1    0    0    0    0 -0.00000000000E+00 -0.00000000000E+00 -0.45593999997E+02  0.45594000000E+02  0.51100000000E-03 0.  1.
    9900012    2    1    2    0    0  0.95721841062E+00 -0.64403005474E+00 -0.24842166710E+00  0.90007849534E+02  0.90000112348E+02 0.  0.
         12    1    1    2    0    0 -0.95721841062E+00  0.64403005474E+00  0.24842166710E+00  0.11801504657E+01  0.00000000000E+00 0. -1.
         11    1    3    3    0    0 -0.27845508565E+02  0.11511798035E+02  0.24102314138E+02  0.38585170575E+02  0.51100000000E-03 0. -1.
        -11    1    3    3    0    0  0.10290631241E+01 -0.10351451925E+02  0.45010953002E+01  0.11334521914E+02  0.51100000000E-03 0.  1.
        -12    1    3    3    0    0  0.27773663852E+02 -0.18043761653E+01 -0.28851831105E+02  0.40088157045E+02  0.00000000000E+00 0.  1.
</event>
<event>
 7    1  0.2569312E-015  0.9000765E+02  0.7816164E-02  0.1186339E+00
        -11   -1    0    0    0    0  0.00000000000E+00  0.00000000000E+00  0.45593999997E+02  0.45594000000E+02  0.51100000000E-03 0.  1.
         11   -1    0    0    0    0 -0.00000000000E+00 -0.00000000000E+00 -0.45593999997E+02  0.45594000000E+02  0.51100000000E-03 0. -1.
    9900012    2    1    2    0    0  0.54799524305E+00  0.44439718418E+00  0.94627572325E+00  0.90007650311E+02  0.89999910495E+02 0.  0.
         12    1    1    2    0    0 -0.54799524305E+00 -0.44439718418E+00 -0.94627572325E+00  0.11803496889E+01  0.00000000000E+00 0. -1.
         11    1    3    3    0    0  0.66559384708E+01 -0.16351269720E+02  0.19290168480E+02  0.26149113534E+02  0.51100000000E-03 0. -1.
        -11    1    3    3    0    0 -0.22163293113E+02 -0.14057432210E+02 -0.57488089304E+01  0.26867671398E+02  0.51100000000E-03 0.  1.
         12    1    3    3    0    0  0.16055349885E+02  0.30853099114E+02 -0.12595083826E+02  0.36990865379E+02  0.00000000000E+00 0. -1.
</event>
<event>
 7    1  0.2569312E-015  0.9000772E+02  0.7816164E-02  0.1186339E+00
        -11   -1    0    0    0    0  0.00000000000E+00  0.00000000000E+00  0.45593999997E+02  0.45594000000E+02  0.51100000000E-03 0.  1.
         11   -1    0    0    0    0 -0.00000000000E+00 -0.00000000000E+00 -0.45593999997E+02  0.45594000000E+02  0.51100000000E-03 0. -1.
    9900012    2    1    2    0    0  0.33836206927E+00  0.11276202631E+01  0.83974957562E-01  0.90007716923E+02  0.89999977987E+02 0.  0.
         12    1    1    2    0    0 -0.33836206927E+00 -0.11276202631E+01 -0.83974957562E-01  0.11802830767E+01  0.00000000000E+00 0. -1.
         11    1    3    3    0    0  0.11805270639E+02 -0.23547219367E+02 -0.22367064914E+02  0.34556063837E+02  0.51100000000E-03 0. -1.
        -11    1    3    3    0    0  0.62661671190E+01 -0.46491776330E+01 -0.68355291921E+01  0.10373242628E+02  0.51100000000E-03 0.  1.
        -12    1    3    3    0    0 -0.17733075688E+02  0.29324017264E+02  0.29286569064E+02  0.45078410458E+02  0.00000000000E+00 0.  1.
</event>
<event>
 7    1  0.2569312E-015  0.9000771E+02  0.7816164E-02  0.1186339E+00
        -11   -1    0    0    0    0  0.00000000000E+00  0.00000000000E+00  0.45593999997E+02  0.45594000000E+02  0.51100000000E-03 0. -1.
         11   -1    0    0    0    0 -0.00000000000E+00 -0.00000000000E+00 -0.45593999997E+02  0.45594000000E+02  0.51100000000E-03 0.  1.
    9900012    2    1    2    0    0 -0.73507370395E+00 -0.70284611133E+00 -0.59896021001E+00  0.90007712179E+02  0.89999973180E+02 0.  0.
         12    1    1    2    0    0  0.73507370395E+00  0.70284611133E+00  0.59896021001E+00  0.11802878207E+01  0.00000000000E+00 0. -1.
         11    1    3    3    0    0 -0.83255481919E+01 -0.18125790545E+01 -0.79596584626E+01  0.11660032531E+02  0.51100000000E-03 0. -1.
        -11    1    3    3    0    0 -0.29844984169E+02  0.15570281914E+02 -0.92567868428E+01  0.34911958723E+02  0.51100000000E-03 0.  1.
         12    1    3    3    0    0  0.37435458657E+02 -0.14460548971E+02  0.16617485095E+02  0.43435720925E+02  0.00000000000E+00 0. -1.
</event>
<event>
 7    1  0.2569312E-015  0.9000781E+02  0.7816164E-02  0.1186339E+00
        -11   -1    0    0    0    0  0.00000000000E+00  0.00000000000E+00  0.45593999997E+02  0.45594000000E+02  0.51100000000E-03 0. -1.
         11   -1    0    0    0    0 -0.00000000000E+00 -0.00000000000E+00 -0.45593999997E+02  0.45594000000E+02  0.51100000000E-03 0.  1.
    9900012    2    1    2    0    0  0.80876507332E+00  0.66039974581E+00 -0.55010956736E+00  0.90007809632E+02  0.90000071919E+02 0.  0.
         12    1    1    2    0    0 -0.80876507332E+00 -0.66039974580E+00  0.55010956736E+00  0.11801903678E+01  0.00000000000E+00 0. -1.
         11    1    3    3    0    0  0.19575791204E+02  0.31810148570E+02  0.74744682503E+01  0.38091532251E+02  0.51100000000E-03 0. -1.
        -11    1    3    3    0    0  0.26814810460E+01  0.50826542899E+01  0.52342275564E+01  0.77730852050E+01  0.51100000000E-03 0.  1.
        -12    1    3    3    0    0 -0.21448507177E+02 -0.36232403114E+02 -0.13258805374E+02  0.44143192176E+02  0.00000000000E+00 0.  1.
</event>
<event>
 7    1  0.2569312E-015  0.9000777E+02  0.7816164E-02  0.1186339E+00
        -11   -1    0    0    0    0  0.00000000000E+00  0.00000000000E+00  0.45593999997E+02  0.45594000000E+02  0.51100000000E-03 0.  1.
         11   -1    0    0    0    0 -0.00000000000E+00 -0.00000000000E+00 -0.45593999997E+02  0.45594000000E+02  0.51100000000E-03 0. -1.
    9900012    2    1    2    0    0 -0.39238715439E+00 -0.10653340339E+01  0.32256001132E+00  0.90007767293E+02  0.90000029021E+02 0.  0.
         12    1    1    2    0    0  0.39238715439E+00  0.10653340339E+01 -0.32256001132E+00  0.11802327074E+01  0.00000000000E+00 0. -1.
         11    1    3    3    0    0 -0.29984952549E+02 -0.26779097570E+02 -0.12782672406E+01  0.40222523708E+02  0.51100000000E-03 0. -1.
        -11    1    3    3    0    0 -0.10053332093E+01 -0.57529383188E+01  0.73420035620E+00  0.58860890739E+01  0.51100000000E-03 0.  1.
        -12    1    3    3    0    0  0.30597898604E+02  0.31466701855E+02  0.86662689574E+00  0.43899154511E+02  0.00000000000E+00 0.  1.
</event>
<event>
 7    1  0.3403427E-015  0.9000781E+02  0.7816164E-02  0.1186339E+00
        -11   -1    0    0    0    0  0.00000000000E+00  0.00000000000E+00  0.45593999997E+02  0.45594000000E+02  0.51100000000E-03 0. -1.
         11   -1    0    0    0    0 -0.00000000000E+00 -0.00000000000E+00 -0.45593999997E+02  0.45594000000E+02  0.51100000000E-03 0.  1.
    9900012    2    1    2    0    0  0.41210017944E+00 -0.96312488934E-01 -0.11017016400E+01  0.90007809695E+02  0.90000071983E+02 0.  0.
         12    1    1    2    0    0 -0.41210017944E+00  0.96312488934E-01  0.11017016400E+01  0.11801903054E+01  0.00000000000E+00 0. -1.
         11    1    3    3    0    0  0.47055867411E+00  0.14943036818E+02  0.34005402884E+02  0.37146779139E+02  0.51100000000E-03 0. -1.
        -11    1    3    3    0    0  0.49600970414E+00 -0.48927722313E+01  0.75499158791E+01  0.90103538098E+01  0.51100000000E-03 0.  1.
        -12    1    3    3    0    0 -0.55446819882E+00 -0.10146577076E+02 -0.42657020404E+02  0.43850676746E+02  0.00000000000E+00 0.  1.
</event>
<event>
 7    1  0.3588477E-015  0.9000815E+02  0.7816164E-02  0.1186338E+00
        -11   -1    0    0    0    0  0.00000000000E+00  0.00000000000E+00  0.45593999997E+02  0.45594000000E+02  0.51100000000E-03 0.  1.
         11   -1    0    0    0    0 -0.00000000000E+00 -0.00000000000E+00 -0.45593999997E+02  0.45594000000E+02  0.51100000000E-03 0. -1.
    9900012    2    1    2    0    0  0.42222031418E+00 -0.71364031673E+00 -0.83934560758E+00  0.90008146812E+02  0.90000413549E+02 0.  0.
         12    1    1    2    0    0 -0.42222031418E+00  0.71364031673E+00  0.83934560758E+00  0.11798531876E+01  0.00000000000E+00 0. -1.
         11    1    3    3    0    0  0.31629625104E+02 -0.10643360164E+02  0.20237598353E+02  0.39029151761E+02  0.51100000000E-03 0. -1.
        -11    1    3    3    0    0 -0.23645873771E+01  0.37475851725E+01  0.82617471862E+01  0.93750805287E+01  0.51100000000E-03 0.  1.
        -12    1    3    3    0    0 -0.28842817413E+02  0.61821346748E+01 -0.29338691147E+02  0.41603914523E+02  0.00000000000E+00 0.  1.
</event>
<event>
 7    1  0.2569312E-015  0.9000769E+02  0.7816164E-02  0.1186339E+00
        -11   -1    0    0    0    0  0.00000000000E+00  0.00000000000E+00  0.45593999997E+02  0.45594000000E+02  0.51100000000E-03 0. -1.
         11   -1    0    0    0    0 -0.00000000000E+00 -0.00000000000E+00 -0.45593999997E+02  0.45594000000E+02  0.51100000000E-03 0.  1.
    9900012    2    1    2    0    0 -0.25865174712E+00  0.72252418334E+00 -0.89677003075E+00  0.90007687156E+02  0.89999947826E+02 0.  0.
         12    1    1    2    0    0  0.25865174712E+00 -0.72252418334E+00  0.89677003075E+00  0.11803128441E+01  0.00000000000E+00 0. -1.
         11    1    3    3    0    0 -0.27384620213E+02 -0.23864664592E+02  0.38608250090E+00  0.36326143482E+02  0.51100000000E-03 0. -1.
        -11    1    3    3    0    0 -0.60897625047E+01 -0.50558722095E+01  0.39669670258E+01  0.88534670501E+01  0.51100000000E-03 0.  1.
        -12    1    3    3    0    0  0.33215730971E+02  0.29643060984E+02 -0.52498195575E+01  0.44828076624E+02  0.00000000000E+00 0.  1.
</event>
<event>
 7    1  0.2569312E-015  0.9000773E+02  0.7816164E-02  0.1186339E+00
        -11   -1    0    0    0    0  0.00000000000E+00  0.00000000000E+00  0.45593999997E+02  0.45594000000E+02  0.51100000000E-03 0.  1.
         11   -1    0    0    0    0 -0.00000000000E+00 -0.00000000000E+00 -0.45593999997E+02  0.45594000000E+02  0.51100000000E-03 0. -1.
    9900012    2    1    2    0    0  0.11553629843E+00  0.78229006510E+00  0.87619564782E+00  0.90007726644E+02  0.89999987835E+02 0.  0.
         12    1    1    2    0    0 -0.11553629843E+00 -0.78229006510E+00 -0.87619564782E+00  0.11802733562E+01  0.00000000000E+00 0. -1.
         11    1    3    3    0    0  0.54861373420E+01 -0.58354633729E+01  0.63556004956E+01  0.10224675723E+02  0.51100000000E-03 0. -1.
        -11    1    3    3    0    0  0.32178545654E+02 -0.70491553866E+01 -0.18468993038E+02  0.37765766193E+02  0.51100000000E-03 0.  1.
         12    1    3    3    0    0 -0.37549146698E+02  0.13666908825E+02  0.12989588190E+02  0.42017284728E+02  0.00000000000E+00 0. -1.
</event>
<event>
 7    1  0.2569312E-015  0.9000774E+02  0.7816164E-02  0.1186339E+00
        -11   -1    0    0    0    0  0.00000000000E+00  0.00000000000E+00  0.45593999997E+02  0.45594000000E+02  0.51100000000E-03 0.  1.
         11   -1    0    0    0    0 -0.00000000000E+00 -0.00000000000E+00 -0.45593999997E+02  0.45594000000E+02  0.51100000000E-03 0. -1.
    9900012    2    1    2    0    0 -0.49937525601E-01  0.10706680453E+01  0.49415330664E+00  0.90007740999E+02  0.90000002380E+02 0.  0.
         12    1    1    2    0    0  0.49937525601E-01 -0.10706680453E+01 -0.49415330664E+00  0.11802590013E+01  0.00000000000E+00 0. -1.
         11    1    3    3    0    0  0.12804667295E+01  0.11488417909E+01 -0.94434515633E+01  0.95988650472E+01  0.51100000000E-03 0. -1.
        -11    1    3    3    0    0  0.80652596555E+01  0.31470866844E+02  0.27974998119E+02  0.42872653210E+02  0.51100000000E-03 0.  1.
         12    1    3    3    0    0 -0.93956639106E+01 -0.31549040590E+02 -0.18037393249E+02  0.37536222741E+02  0.00000000000E+00 0. -1.
</event>
<event>
 7    1  0.2569312E-015  0.9000774E+02  0.7816164E-02  0.1186339E+00
        -11   -1    0    0    0    0  0.00000000000E+00  0.00000000000E+00  0.45593999997E+02  0.45594000000E+02  0.51100000000E-03 0.  1.
         11   -1    0    0    0    0 -0.00000000000E+00 -0.00000000000E+00 -0.45593999997E+02  0.45594000000E+02  0.51100000000E-03 0. -1.
    9900012    2    1    2    0    0 -0.99762093059E+00 -0.46753972674E+00  0.42327892630E+00  0.90007743262E+02  0.90000004673E+02 0.  0.
         12    1    1    2    0    0  0.99762093059E+00  0.46753972674E+00 -0.42327892630E+00  0.11802567376E+01  0.00000000000E+00 0. -1.
         11    1    3    3    0    0  0.38115876877E+02 -0.22923233823E+01 -0.12754293318E+02  0.40258499909E+02  0.51100000000E-03 0. -1.
        -11    1    3    3    0    0 -0.79175514867E-01  0.59761149748E+01  0.82490439687E+01  0.10186606187E+02  0.51100000000E-03 0.  1.
        -12    1    3    3    0    0 -0.39034322293E+02 -0.41513313193E+01  0.49285282758E+01  0.39562637166E+02  0.00000000000E+00 0.  1.
</event>
<event>
 7    1  0.2569312E-015  0.9000745E+02  0.7816164E-02  0.1186340E+00
        -11   -1    0    0    0    0  0.00000000000E+00  0.00000000000E+00  0.45593999997E+02  0.45594000000E+02  0.51100000000E-03 0. -1.
         11   -1    0    0    0    0 -0.00000000000E+00 -0.00000000000E+00 -0.45593999997E+02  0.45594000000E+02  0.51100000000E-03 0.  1.
    9900012    2    1    2    0    0  0.50071021178E+00  0.57392576264E+00 -0.90199126196E+00  0.90007453629E+02  0.89999711217E+02 0.  0.
         12    1    1    2    0    0 -0.50071021178E+00 -0.57392576264E+00  0.90199126196E+00  0.11805463709E+01  0.00000000000E+00 0. -1.
         11    1    3    3    0    0  0.17752030196E+01 -0.36966187342E+01 -0.88368903569E+01  0.97420206974E+01  0.51100000000E-03 0. -1.
        -11    1    3    3    0    0  0.34137044225E+02  0.46660854916E+00  0.23449346422E+02  0.41417717946E+02  0.51100000000E-03 0.  1.
         12    1    3    3    0    0 -0.35411537033E+02  0.38039359477E+01 -0.15514447327E+02  0.38847714986E+02  0.00000000000E+00 0. -1.
</event>
<event>
 7    1  0.2569312E-015  0.9000772E+02  0.7816164E-02  0.1186339E+00
        -11   -1    0    0    0    0  0.00000000000E+00  0.00000000000E+00  0.45593999997E+02  0.45594000000E+02  0.51100000000E-03 0. -1.
         11   -1    0    0    0    0 -0.00000000000E+00 -0.00000000000E+00 -0.45593999997E+02  0.45594000000E+02  0.51100000000E-03 0.  1.
    9900012    2    1    2    0    0 -0.34001381839E-01 -0.11190004582E+01  0.37382097711E+00  0.90007720269E+02  0.89999981377E+02 0.  0.
         12    1    1    2    0    0  0.34001381839E-01  0.11190004582E+01 -0.37382097711E+00  0.11802797306E+01  0.00000000000E+00 0. -1.
         11    1    3    3    0    0  0.15264898559E+02 -0.63484694257E+01  0.32849555926E+02  0.36775175280E+02  0.51100000000E-03 0. -1.
        -11    1    3    3    0    0  0.41713288493E+00 -0.96861711381E+01  0.42546257822E+01  0.10587622583E+02  0.51100000000E-03 0.  1.
        -12    1    3    3    0    0 -0.15716032826E+02  0.14915640106E+02 -0.36730360731E+02  0.42644922406E+02  0.00000000000E+00 0.  1.
</event>
<event>
 7    1  0.2569312E-015  0.9000775E+02  0.7816164E-02  0.1186339E+00
        -11   -1    0    0    0    0  0.00000000000E+00  0.00000000000E+00  0.45593999997E+02  0.45594000000E+02  0.51100000000E-03 0.  1.
         11   -1    0    0    0    0 -0.00000000000E+00 -0.00000000000E+00 -0.45593999997E+02  0.45594000000E+02  0.51100000000E-03 0. -1.
    9900012    2    1    2    0    0  0.51854475456E+00  0.10317213433E+01  0.24424849339E+00  0.90007747942E+02  0.90000009415E+02 0.  0.
         12    1    1    2    0    0 -0.51854475456E+00 -0.10317213433E+01 -0.24424849339E+00  0.11802520575E+01  0.00000000000E+00 0. -1.
         11    1    3    3    0    0 -0.92046930771E+01  0.11321215382E+02  0.26001308874E+01  0.14820829034E+02  0.51100000000E-03 0. -1.
        -11    1    3    3    0    0  0.75662379520E+01 -0.18739272025E+02  0.33041144776E+02  0.38731453899E+02  0.51100000000E-03 0.  1.
         12    1    3    3    0    0  0.21569998797E+01  0.84497779858E+01 -0.35397027170E+02  0.36455465009E+02  0.00000000000E+00 0. -1.
</event>
<event>
 7    1  0.2569312E-015  0.9000773E+02  0.7816164E-02  0.1186339E+00
        -11   -1    0    0    0    0  0.00000000000E+00  0.00000000000E+00  0.45593999997E+02  0.45594000000E+02  0.51100000000E-03 0.  1.
         11   -1    0    0    0    0 -0.00000000000E+00 -0.00000000000E+00 -0.45593999997E+02  0.45594000000E+02  0.51100000000E-03 0. -1.
    9900012    2    1    2    0    0  0.94155902931E+00 -0.38857907607E+00 -0.59623884967E+00  0.90007733983E+02  0.89999995272E+02 0.  0.
         12    1    1    2    0    0 -0.94155902931E+00  0.38857907607E+00  0.59623884967E+00  0.11802660166E+01  0.00000000000E+00 0. -1.
         11    1    3    3    0    0 -0.77103307709E+01  0.14539702565E+01  0.33703128447E+01  0.85394519166E+01  0.51100000000E-03 0. -1.
        -11    1    3    3    0    0 -0.72906240982E+01 -0.28031934951E+02  0.25760693964E+02  0.38762816340E+02  0.51100000000E-03 0.  1.
         12    1    3    3    0    0  0.15942513898E+02  0.26189385618E+02 -0.29727245659E+02  0.42705465727E+02  0.00000000000E+00 0. -1.
</event>
<event>
 7    1  0.2569312E-015  0.9000775E+02  0.7816164E-02  0.1186339E+00
        -11   -1    0    0    0    0  0.00000000000E+00  0.00000000000E+00  0.45593999997E+02  0.45594000000E+02  0.51100000000E-03 0.  1.
         11   -1    0    0    0    0 -0.00000000000E+00 -0.00000000000E+00 -0.45593999997E+02  0.45594000000E+02  0.51100000000E-03 0. -1.
    9900012    2    1    2    0    0  0.85260166027E+00 -0.18682142713E+00  0.79446188088E+00  0.90007745147E+02  0.90000006583E+02 0.  0.
         12    1    1    2    0    0 -0.85260166027E+00  0.18682142713E+00 -0.79446188088E+00  0.11802548525E+01  0.00000000000E+00 0. -1.
         11    1    3    3    0    0 -0.15311914760E+02 -0.23237233582E+02 -0.30515223519E+02  0.41298942176E+02  0.51100000000E-03 0. -1.
        -11    1    3    3    0    0 -0.57055337903E+01  0.11300035510E+01  0.82814593625E+01  0.10119910735E+02  0.51100000000E-03 0.  1.
        -12    1    3    3    0    0  0.21870050210E+02  0.21920408604E+02  0.23028226038E+02  0.38588892236E+02  0.00000000000E+00 0.  1.
</event>
<event>
 7    1  0.2569312E-015  0.9000771E+02  0.7816164E-02  0.1186339E+00
        -11   -1    0    0    0    0  0.00000000000E+00  0.00000000000E+00  0.45593999997E+02  0.45594000000E+02  0.51100000000E-03 0. -1.
         11   -1    0    0    0    0 -0.00000000000E+00 -0.00000000000E+00 -0.45593999997E+02  0.45594000000E+02  0.51100000000E-03 0.  1.
    9900012    2    1    2    0    0 -0.56249826955E+00 -0.18707219352E-01  0.10374635769E+01  0.90007709808E+02  0.89999970778E+02 0.  0.
         12    1    1    2    0    0  0.56249826955E+00  0.18707219352E-01 -0.10374635769E+01  0.11802901917E+01  0.00000000000E+00 0. -1.
         11    1    3    3    0    0 -0.34947044272E+01 -0.37604946835E+01 -0.70449238657E+01  0.87169508334E+01  0.51100000000E-03 0. -1.
        -11    1    3    3    0    0  0.49296052761E+01 -0.14696668671E+02 -0.32865957518E+02  0.36338192609E+02  0.51100000000E-03 0.  1.
         12    1    3    3    0    0 -0.19973991184E+01  0.18438456135E+02  0.40948344961E+02  0.44952566366E+02  0.00000000000E+00 0. -1.
</event>
<event>
 7    1  0.2569312E-015  0.9000783E+02  0.7816164E-02  0.1186339E+00
        -11   -1    0    0    0    0  0.00000000000E+00  0.00000000000E+00  0.45593999997E+02  0.45594000000E+02  0.51100000000E-03 0.  1.
         11   -1    0    0    0    0 -0.00000000000E+00 -0.00000000000E+00 -0.45593999997E+02  0.45594000000E+02  0.51100000000E-03 0. -1.
    9900012    2    1    2    0    0 -0.11335693752E+01  0.26032727814E+00 -0.20013042682E+00  0.90007829670E+02  0.90000092222E+02 0.  0.
         12    1    1    2    0    0  0.11335693752E+01 -0.26032727814E+00  0.20013042682E+00  0.11801703301E+01  0.00000000000E+00 0. -1.
         11    1    3    3    0    0  0.34913824882E+01  0.81818870507E+01  0.49146038194E+01  0.10162989637E+02  0.51100000000E-03 0. -1.
        -11    1    3    3    0    0  0.19420398210E+02  0.26714385291E+02 -0.15404379440E+02  0.36443177061E+02  0.51100000000E-03 0.  1.
         12    1    3    3    0    0 -0.24045350073E+02 -0.34635945064E+02  0.10289645194E+02  0.43401662973E+02  0.00000000000E+00 0. -1.
</event>
<event>
 7    1  0.2569312E-015  0.9000760E+02  0.7816164E-02  0.1186339E+00
        -11   -1    0    0    0    0  0.00000000000E+00  0.00000000000E+00  0.45593999997E+02  0.45594000000E+02  0.51100000000E-03 0.  1.
         11   -1    0    0    0    0 -0.00000000000E+00 -0.00000000000E+00 -0.45593999997E+02  0.45594000000E+02  0.51100000000E-03 0. -1.
    9900012    2    1    2    0    0 -0.88459173300E+00 -0.65450183997E+00  0.42715629392E+00  0.90007602740E+02  0.89999862296E+02 0.  0.
         12    1    1    2    0    0  0.88459173300E+00  0.65450183997E+00 -0.42715629392E+00  0.11803972603E+01  0.00000000000E+00 0. -1.
         11    1    3    3    0    0 -0.28433823131E-01 -0.13173076637E+02  0.10857530054E+02  0.17070931893E+02  0.51100000000E-03 0. -1.
        -11    1    3    3    0    0  0.50999564972E+01 -0.22018853971E+02  0.17122812655E+02  0.28355426288E+02  0.51100000000E-03 0.  1.
         12    1    3    3    0    0 -0.59561144071E+01  0.34537428768E+02 -0.27553186416E+02  0.44581244559E+02  0.00000000000E+00 0. -1.
</event>
<event>
 7    1  0.2569312E-015  0.9000778E+02  0.7816164E-02  0.1186339E+00
        -11   -1    0    0    0    0  0.00000000000E+00  0.00000000000E+00  0.45593999997E+02  0.45594000000E+02  0.51100000000E-03 0. -1.
         11   -1    0    0    0    0 -0.00000000000E+00 -0.00000000000E+00 -0.45593999997E+02  0.45594000000E+02  0.51100000000E-03 0.  1.
    9900012    2    1    2    0    0  0.30800587072E+00  0.94274616370E+00 -0.63975290162E+00  0.90007778953E+02  0.90000040835E+02 0.  0.
         12    1    1    2    0    0 -0.30800587072E+00 -0.94274616370E+00  0.63975290162E+00  0.11802210474E+01  0.00000000000E+00 0. -1.
         11    1    3    3    0    0  0.22272403318E+02  0.32122796338E+02 -0.37567158895E+01  0.39268905112E+02  0.51100000000E-03 0. -1.
        -11    1    3    3    0    0 -0.49959027505E+01  0.57250339146E+01  0.64724518434E+01  0.99813671780E+01  0.51100000000E-03 0.  1.
        -12    1    3    3    0    0 -0.16968494697E+02 -0.36905084089E+02 -0.33554888555E+01  0.40757506663E+02  0.00000000000E+00 0.  1.
</event>
<event>
 7    1  0.2569312E-015  0.9000766E+02  0.7816164E-02  0.1186339E+00
        -11   -1    0    0    0    0  0.00000000000E+00  0.00000000000E+00  0.45593999997E+02  0.45594000000E+02  0.51100000000E-03 0. -1.
         11   -1    0    0    0    0 -0.00000000000E+00 -0.00000000000E+00 -0.45593999997E+02  0.45594000000E+02  0.51100000000E-03 0.  1.
    9900012    2    1    2    0    0 -0.75629025122E+00 -0.88698556395E+00 -0.18569909482E+00  0.90007660011E+02  0.89999920324E+02 0.  0.
         12    1    1    2    0    0  0.75629025122E+00  0.88698556395E+00  0.18569909482E+00  0.11803399885E+01  0.00000000000E+00 0. -1.
         11    1    3    3    0    0 -0.62726385642E+01  0.78622097950E+01 -0.17564235921E+01  0.10210061778E+02  0.51100000000E-03 0. -1.
        -11    1    3    3    0    0  0.29807297313E+02  0.18199320109E+02 -0.17221213540E+02  0.38939188763E+02  0.51100000000E-03 0.  1.
         12    1    3    3    0    0 -0.24290949000E+02 -0.26948515468E+02  0.18791938037E+02  0.40858409470E+02  0.00000000000E+00 0. -1.
</event>
<event>
 7    1  0.2569312E-015  0.9000770E+02  0.7816164E-02  0.1186339E+00
        -11   -1    0    0    0    0  0.00000000000E+00  0.00000000000E+00  0.45593999997E+02  0.45594000000E+02  0.51100000000E-03 0.  1.
         11   -1    0    0    0    0 -0.00000000000E+00 -0.00000000000E+00 -0.45593999997E+02  0.45594000000E+02  0.51100000000E-03 0. -1.
    9900012    2    1    2    0    0 -0.43866758124E-01 -0.10670404859E+01 -0.50259589942E+00  0.90007702440E+02  0.89999963313E+02 0.  0.
         12    1    1    2    0    0  0.43866758124E-01  0.10670404859E+01  0.50259589942E+00  0.11802975596E+01  0.00000000000E+00 0. -1.
         11    1    3    3    0    0 -0.72753576718E+01 -0.47044844086E+01  0.26219900644E+01  0.90519519973E+01  0.51100000000E-03 0. -1.
        -11    1    3    3    0    0 -0.98987304873E+01  0.19530163425E+02  0.31996799942E+02  0.38771218132E+02  0.51100000000E-03 0.  1.
         12    1    3    3    0    0  0.17130221401E+02 -0.15892719502E+02 -0.35121385905E+02  0.42184532311E+02  0.00000000000E+00 0. -1.
</event>
<event>
 7    1  0.2569312E-015  0.9000764E+02  0.7816164E-02  0.1186339E+00
        -11   -1    0    0    0    0  0.00000000000E+00  0.00000000000E+00  0.45593999997E+02  0.45594000000E+02  0.51100000000E-03 0.  1.
         11   -1    0    0    0    0 -0.00000000000E+00 -0.00000000000E+00 -0.45593999997E+02  0.45594000000E+02  0.51100000000E-03 0. -1.
    9900012    2    1    2    0    0 -0.10343215174E+01  0.17955443632E+00  0.53962880212E+00  0.90007635632E+02  0.89999895622E+02 0.  0.
         12    1    1    2    0    0  0.10343215174E+01 -0.17955443632E+00 -0.53962880212E+00  0.11803643680E+01  0.00000000000E+00 0. -1.
         11    1    3    3    0    0 -0.78374396673E+01 -0.27941260063E+01 -0.83751033865E+01  0.11805717160E+02  0.51100000000E-03 0. -1.
        -11    1    3    3    0    0  0.34581030311E+02  0.24210626649E+02  0.40675129870E+00  0.42215726300E+02  0.51100000000E-03 0.  1.
         12    1    3    3    0    0 -0.27777912161E+02 -0.21236946206E+02  0.85079808899E+01  0.35986192172E+02  0.00000000000E+00 0. -1.
</event>
<event>
 7    1  0.3313496E-015  0.9000775E+02  0.7816164E-02  0.1186339E+00
        -11   -1    0    0    0    0  0.00000000000E+00  0.00000000000E+00  0.45593999997E+02  0.45594000000E+02  0.51100000000E-03 0.  1.
         11   -1    0    0    0    0 -0.00000000000E+00 -0.00000000000E+00 -0.45593999997E+02  0.45594000000E+02  0.51100000000E-03 0. -1.
    9900012    2    1    2    0    0 -0.50560426875E+00 -0.67881364602E-01  0.10643004538E+01  0.90007754681E+02  0.90000016243E+02 0.  0.
         12    1    1    2    0    0  0.50560426875E+00  0.67881364602E-01 -0.10643004538E+01  0.11802453187E+01  0.00000000000E+00 0. -1.
         11    1    3    3    0    0 -0.17381072398E+02 -0.13132279724E+01 -0.35283384092E+02  0.39354077789E+02  0.51100000000E-03 0. -1.
        -11    1    3    3    0    0 -0.73649058874E+01  0.48135959900E+01  0.30484119442E+01  0.93115713350E+01  0.51100000000E-03 0.  1.
        -12    1    3    3    0    0  0.24240374017E+02 -0.35682493822E+01  0.33299272601E+02  0.41342105557E+02  0.00000000000E+00 0.  1.
</event>
<event>
 7    1  0.2569312E-015  0.9000793E+02  0.7816164E-02  0.1186339E+00
        -11   -1    0    0    0    0  0.00000000000E+00  0.00000000000E+00  0.45593999997E+02  0.45594000000E+02  0.51100000000E-03 0. -1.
         11   -1    0    0    0    0 -0.00000000000E+00 -0.00000000000E+00 -0.45593999997E+02  0.45594000000E+02  0.51100000000E-03 0.  1.
    9900012    2    1    2    0    0  0.32984165807E+00 -0.74990518399E+00 -0.84935344745E+00  0.90007934501E+02  0.90000198436E+02 0.  0.
         12    1    1    2    0    0 -0.32984165807E+00  0.74990518399E+00  0.84935344745E+00  0.11800654995E+01  0.00000000000E+00 0. -1.
         11    1    3    3    0    0 -0.21532473407E+02  0.31535261348E+02  0.87245572420E+00  0.38195304667E+02  0.51100000000E-03 0. -1.
        -11    1    3    3    0    0 -0.28430146789E+01  0.99174892028E-01  0.92098432762E+01  0.96391795064E+01  0.51100000000E-03 0.  1.
        -12    1    3    3    0    0  0.24705329744E+02 -0.32384341424E+02 -0.10931652448E+02  0.42173450327E+02  0.00000000000E+00 0.  1.
</event>
<event>
 7    1  0.2569312E-015  0.9000758E+02  0.7816164E-02  0.1186339E+00
        -11   -1    0    0    0    0  0.00000000000E+00  0.00000000000E+00  0.45593999997E+02  0.45594000000E+02  0.51100000000E-03 0.  1.
         11   -1    0    0    0    0 -0.00000000000E+00 -0.00000000000E+00 -0.45593999997E+02  0.45594000000E+02  0.51100000000E-03 0. -1.
    9900012    2    1    2    0    0  0.76134707632E+00  0.27866322991E+00  0.85796133036E+00  0.90007576258E+02  0.89999835464E+02 0.  0.
         12    1    1    2    0    0 -0.76134707632E+00 -0.27866322991E+00 -0.85796133036E+00  0.11804237420E+01  0.00000000000E+00 0. -1.
         11    1    3    3    0    0 -0.63196231540E+01 -0.39924490204E+00  0.55207088972E-01  0.63324625056E+01  0.51100000000E-03 0. -1.
        -11    1    3    3    0    0 -0.19322039139E+02 -0.20194726167E+02  0.28625359009E+02  0.40007241096E+02  0.51100000000E-03 0.  1.
         12    1    3    3    0    0  0.26403009369E+02  0.20872634299E+02 -0.27822604768E+02  0.43667872657E+02  0.00000000000E+00 0. -1.
</event>
<event>
 7    1  0.2569312E-015  0.9000771E+02  0.7816164E-02  0.1186339E+00
        -11   -1    0    0    0    0  0.00000000000E+00  0.00000000000E+00  0.45593999997E+02  0.45594000000E+02  0.51100000000E-03 0.  1.
         11   -1    0    0    0    0 -0.00000000000E+00 -0.00000000000E+00 -0.45593999997E+02  0.45594000000E+02  0.51100000000E-03 0. -1.
    9900012    2    1    2    0    0  0.95751331214E+00  0.55944794301E+00  0.40406806885E+00  0.90007709888E+02  0.89999970859E+02 0.  0.
         12    1    1    2    0    0 -0.95751331214E+00 -0.55944794301E+00 -0.40406806885E+00  0.11802901118E+01  0.00000000000E+00 0. -1.
         11    1    3    3    0    0  0.29647443219E+02  0.21356106885E+02 -0.10257385199E+02  0.37950864840E+02  0.51100000000E-03 0. -1.
        -11    1    3    3    0    0  0.87470120718E+01 -0.49655043354E+01  0.41999374998E+01  0.10899813244E+02  0.51100000000E-03 0.  1.
        -12    1    3    3    0    0 -0.37436941979E+02 -0.15831154606E+02  0.64615157680E+01  0.41157031804E+02  0.00000000000E+00 0.  1.
</event>
<event>
 7    1  0.2569312E-015  0.9000758E+02  0.7816164E-02  0.1186339E+00
        -11   -1    0    0    0    0  0.00000000000E+00  0.00000000000E+00  0.45593999997E+02  0.45594000000E+02  0.51100000000E-03 0. -1.
         11   -1    0    0    0    0 -0.00000000000E+00 -0.00000000000E+00 -0.45593999997E+02  0.45594000000E+02  0.51100000000E-03 0.  1.
    9900012    2    1    2    0    0 -0.30984691082E+00  0.64657244542E+00  0.93772219002E+00  0.90007583149E+02  0.89999842447E+02 0.  0.
         12    1    1    2    0    0  0.30984691082E+00 -0.64657244542E+00 -0.93772219002E+00  0.11804168505E+01  0.00000000000E+00 0. -1.
         11    1    3    3    0    0 -0.21638415459E+02  0.10885059300E+01  0.28160456688E+02  0.35530510689E+02  0.51100000000E-03 0. -1.
        -11    1    3    3    0    0 -0.51694652422E+01  0.14199451747E+01  0.84460515497E+01  0.10003769401E+02  0.51100000000E-03 0.  1.
        -12    1    3    3    0    0  0.26498033790E+02 -0.18618786593E+01 -0.35668786047E+02  0.44473303059E+02  0.00000000000E+00 0.  1.
</event>
<event>
 7    1  0.2569312E-015  0.9000689E+02  0.7816164E-02  0.1186341E+00
        -11   -1    0    0    0    0  0.00000000000E+00  0.00000000000E+00  0.45593999997E+02  0.45594000000E+02  0.51100000000E-03 0.  1.
         11   -1    0    0    0    0 -0.00000000000E+00 -0.00000000000E+00 -0.45593999997E+02  0.45594000000E+02  0.51100000000E-03 0. -1.
    9900012    2    1    2    0    0  0.66455261173E+00  0.50548369364E-01  0.97511165273E+00  0.90006886946E+02  0.89999137049E+02 0.  0.
         12    1    1    2    0    0 -0.66455261173E+00 -0.50548369364E-01 -0.97511165273E+00  0.11811130542E+01  0.00000000000E+00 0. -1.
         11    1    3    3    0    0 -0.42934580059E+01 -0.34954746830E+02 -0.23509500780E+02  0.42343414302E+02  0.51100000000E-03 0. -1.
        -11    1    3    3    0    0 -0.18737027373E+01  0.82246259066E+01 -0.27392216619E+01  0.88689666155E+01  0.51100000000E-03 0.  1.
        -12    1    3    3    0    0  0.68317133550E+01  0.26780669293E+02  0.27223834095E+02  0.38794506028E+02  0.00000000000E+00 0.  1.
</event>
<event>
 7    1  0.2569312E-015  0.9000772E+02  0.7816164E-02  0.1186339E+00
        -11   -1    0    0    0    0  0.00000000000E+00  0.00000000000E+00  0.45593999997E+02  0.45594000000E+02  0.51100000000E-03 0. -1.
         11   -1    0    0    0    0 -0.00000000000E+00 -0.00000000000E+00 -0.45593999997E+02  0.45594000000E+02  0.51100000000E-03 0.  1.
    9900012    2    1    2    0    0  0.41678743081E+00  0.10151558311E+01 -0.43451909423E+00  0.90007720386E+02  0.89999981495E+02 0.  0.
         12    1    1    2    0    0 -0.41678743081E+00 -0.10151558311E+01  0.43451909423E+00  0.11802796140E+01  0.00000000000E+00 0. -1.
         11    1    3    3    0    0  0.41567090974E+01 -0.53856417980E+01  0.60685185941E+01  0.91164843161E+01  0.51100000000E-03 0. -1.
        -11    1    3    3    0    0  0.26069470681E+02 -0.33897051536E+01  0.25107754255E+02  0.36352533977E+02  0.51100000000E-03 0.  1.
         12    1    3    3    0    0 -0.29809392347E+02  0.97905027827E+01 -0.31610791943E+02  0.44538702093E+02  0.00000000000E+00 0. -1.
</event>
<event>
 7    1  0.2569312E-015  0.9000793E+02  0.7816164E-02  0.1186339E+00
        -11   -1    0    0    0    0  0.00000000000E+00  0.00000000000E+00  0.45593999997E+02  0.45594000000E+02  0.51100000000E-03 0.  1.
         11   -1    0    0    0    0 -0.00000000000E+00 -0.00000000000E+00 -0.45593999997E+02  0.45594000000E+02  0.51100000000E-03 0. -1.
    9900012    2    1    2    0    0 -0.52642457894E-01 -0.88247810986E+00  0.78168893185E+00  0.90007925244E+02  0.90000189057E+02 0.  0.
         12    1    1    2    0    0  0.52642457894E-01  0.88247810986E+00 -0.78168893185E+00  0.11800747557E+01  0.00000000000E+00 0. -1.
         11    1    3    3    0    0 -0.69298963496E+01  0.64217254154E+00 -0.93801203456E+01  0.11680004578E+02  0.51100000000E-03 0. -1.
        -11    1    3    3    0    0 -0.14702896703E+02  0.17104424797E+02 -0.24597263392E+02  0.33373071266E+02  0.51100000000E-03 0.  1.
         12    1    3    3    0    0  0.21580150595E+02 -0.18629075448E+02  0.34759072669E+02  0.44954849400E+02  0.00000000000E+00 0. -1.
</event>
<event>
 7    1  0.2569312E-015  0.9000728E+02  0.7816164E-02  0.1186340E+00
        -11   -1    0    0    0    0  0.00000000000E+00  0.00000000000E+00  0.45593999997E+02  0.45594000000E+02  0.51100000000E-03 0. -1.
         11   -1    0    0    0    0 -0.00000000000E+00 -0.00000000000E+00 -0.45593999997E+02  0.45594000000E+02  0.51100000000E-03 0.  1.
    9900012    2    1    2    0    0  0.61844404222E-02  0.10852783996E+01  0.46500488187E+00  0.90007281155E+02  0.89999536465E+02 0.  0.
         12    1    1    2    0    0 -0.61844404222E-02 -0.10852783996E+01 -0.46500488187E+00  0.11807188455E+01  0.00000000000E+00 0. -1.
         11    1    3    3    0    0  0.32781754448E+01  0.10891676287E+02 -0.54246153649E+01  0.12601646667E+02  0.51100000000E-03 0. -1.
        -11    1    3    3    0    0  0.99800145440E+01 -0.18538411601E+02 -0.30870184087E+02  0.37366317196E+02  0.51100000000E-03 0.  1.
         12    1    3    3    0    0 -0.13252005548E+02  0.87320137139E+01  0.36759804333E+02  0.40039317292E+02  0.00000000000E+00 0. -1.
</event>
<event>
 7    1  0.2569312E-015  0.9000766E+02  0.7816164E-02  0.1186339E+00
        -11   -1    0    0    0    0  0.00000000000E+00  0.00000000000E+00  0.45593999997E+02  0.45594000000E+02  0.51100000000E-03 0. -1.
         11   -1    0    0    0    0 -0.00000000000E+00 -0.00000000000E+00 -0.45593999997E+02  0.45594000000E+02  0.51100000000E-03 0.  1.
    9900012    2    1    2    0    0 -0.88337028991E+00 -0.77887775752E+00  0.78724520971E-01  0.90007664802E+02  0.89999925177E+02 0.  0.
         12    1    1    2    0    0  0.88337028991E+00  0.77887775752E+00 -0.78724520971E-01  0.11803351983E+01  0.00000000000E+00 0. -1.
         11    1    3    3    0    0 -0.52562931156E+01  0.65551238905E+01  0.43206504607E+01  0.94480837846E+01  0.51100000000E-03 0. -1.
        -11    1    3    3    0    0 -0.22672846847E+02  0.26846003218E+02  0.63417824535E+01  0.35706919188E+02  0.51100000000E-03 0.  1.
         12    1    3    3    0    0  0.27045769673E+02 -0.34180004866E+02 -0.10583708393E+02  0.44852661829E+02  0.00000000000E+00 0. -1.
</event>
<event>
 7    1  0.2569312E-015  0.9000781E+02  0.7816164E-02  0.1186339E+00
        -11   -1    0    0    0    0  0.00000000000E+00  0.00000000000E+00  0.45593999997E+02  0.45594000000E+02  0.51100000000E-03 0. -1.
         11   -1    0    0    0    0 -0.00000000000E+00 -0.00000000000E+00 -0.45593999997E+02  0.45594000000E+02  0.51100000000E-03 0.  1.
    9900012    2    1    2    0    0 -0.49408509881E+00 -0.44862739681E+00 -0.97337953084E+00  0.90007807500E+02  0.90000069759E+02 0.  0.
         12    1    1    2    0    0  0.49408509881E+00  0.44862739681E+00  0.97337953084E+00  0.11801925000E+01  0.00000000000E+00 0. -1.
         11    1    3    3    0    0  0.12327785810E+02  0.30218003134E+02  0.12004327112E+02  0.34773637803E+02  0.51100000000E-03 0. -1.
        -11    1    3    3    0    0  0.43571472061E+01  0.70454800029E+01  0.54134678414E+01  0.98959160555E+01  0.51100000000E-03 0.  1.
        -12    1    3    3    0    0 -0.17179018115E+02 -0.37712110534E+02 -0.18391174484E+02  0.45338253641E+02  0.00000000000E+00 0.  1.
</event>
<event>
 7    1  0.2569312E-015  0.9000765E+02  0.7816164E-02  0.1186339E+00
        -11   -1    0    0    0    0  0.00000000000E+00  0.00000000000E+00  0.45593999997E+02  0.45594000000E+02  0.51100000000E-03 0.  1.
         11   -1    0    0    0    0 -0.00000000000E+00 -0.00000000000E+00 -0.45593999997E+02  0.45594000000E+02  0.51100000000E-03 0. -1.
    9900012    2    1    2    0    0  0.10409129526E+01  0.52745940252E+00  0.17750013631E+00  0.90007652808E+02  0.89999913025E+02 0.  0.
         12    1    1    2    0    0 -0.10409129526E+01 -0.52745940252E+00 -0.17750013631E+00  0.11803471924E+01  0.00000000000E+00 0. -1.
         11    1    3    3    0    0 -0.13595092900E+02  0.55545943226E+01 -0.51265020353E+01  0.15555098599E+02  0.51100000000E-03 0. -1.
        -11    1    3    3    0    0 -0.29416675713E+02 -0.44270301563E+01  0.61978451327E+01  0.30386718983E+02  0.51100000000E-03 0.  1.
        -12    1    3    3    0    0  0.44052681566E+02 -0.60010476379E+00 -0.89384296100E+00  0.44065835225E+02  0.00000000000E+00 0.  1.
</event>
<event>
 7    1  0.2569312E-015  0.9000771E+02  0.7816164E-02  0.1186339E+00
        -11   -1    0    0    0    0  0.00000000000E+00  0.00000000000E+00  0.45593999997E+02  0.45594000000E+02  0.51100000000E-03 0. -1.
         11   -1    0    0    0    0 -0.00000000000E+00 -0.00000000000E+00 -0.45593999997E+02  0.45594000000E+02  0.51100000000E-03 0.  1.
    9900012    2    1    2    0    0 -0.27018538129E+00 -0.11368237970E+01  0.16647820704E+00  0.90007710426E+02  0.89999971403E+02 0.  0.
         12    1    1    2    0    0  0.27018538129E+00  0.11368237970E+01 -0.16647820704E+00  0.11802895743E+01  0.00000000000E+00 0. -1.
         11    1    3    3    0    0  0.15136412453E+02  0.12927792448E+02 -0.28714884780E+02  0.34939711043E+02  0.51100000000E-03 0. -1.
        -11    1    3    3    0    0  0.76088032077E+01  0.50280252945E+00 -0.67735529372E+01  0.10199397840E+02  0.51100000000E-03 0.  1.
        -12    1    3    3    0    0 -0.23015401042E+02 -0.14567418774E+02  0.35654915925E+02  0.44868601543E+02  0.00000000000E+00 0.  1.
</event>
<event>
 7    1  0.2569312E-015  0.9000778E+02  0.7816164E-02  0.1186339E+00
        -11   -1    0    0    0    0  0.00000000000E+00  0.00000000000E+00  0.45593999997E+02  0.45594000000E+02  0.51100000000E-03 0.  1.
         11   -1    0    0    0    0 -0.00000000000E+00 -0.00000000000E+00 -0.45593999997E+02  0.45594000000E+02  0.51100000000E-03 0. -1.
    9900012    2    1    2    0    0 -0.10807398089E+01 -0.45886284379E+00  0.11984306323E+00  0.90007781375E+02  0.90000043289E+02 0.  0.
         12    1    1    2    0    0  0.10807398089E+01  0.45886284379E+00 -0.11984306323E+00  0.11802186254E+01  0.00000000000E+00 0. -1.
         11    1    3    3    0    0  0.27661789368E+01 -0.22555978858E+01  0.20279165997E+02  0.20590872772E+02  0.51100000000E-03 0. -1.
        -11    1    3    3    0    0  0.19948387958E+02  0.35981022310E+01  0.16184569933E+02  0.25938867091E+02  0.51100000000E-03 0.  1.
         12    1    3    3    0    0 -0.23795306704E+02 -0.18013671889E+01 -0.36343892867E+02  0.43478041511E+02  0.00000000000E+00 0. -1.
</event>
<event>
 7    1  0.2708274E-015  0.9000749E+02  0.7816164E-02  0.1186340E+00
        -11   -1    0    0    0    0  0.00000000000E+00  0.00000000000E+00  0.45593999997E+02  0.45594000000E+02  0.51100000000E-03 0. -1.
         11   -1    0    0    0    0 -0.00000000000E+00 -0.00000000000E+00 -0.45593999997E+02  0.45594000000E+02  0.51100000000E-03 0.  1.
    9900012    2    1    2    0    0 -0.41727989409E+00 -0.10821892058E+01 -0.21988237448E+00  0.90007489837E+02  0.89999747902E+02 0.  0.
         12    1    1    2    0    0  0.41727989409E+00  0.10821892058E+01  0.21988237448E+00  0.11805101633E+01  0.00000000000E+00 0. -1.
         11    1    3    3    0    0 -0.10764036126E+01  0.15066418910E+02  0.33675342219E+02  0.36907780986E+02  0.51100000000E-03 0. -1.
        -11    1    3    3    0    0 -0.79224056492E+01  0.41726927738E+00  0.54024868387E+01  0.95982023954E+01  0.51100000000E-03 0.  1.
        -12    1    3    3    0    0  0.85815293677E+01 -0.16565877393E+02 -0.39297711432E+02  0.43501506455E+02  0.00000000000E+00 0.  1.
</event>
<event>
 7    1  0.2569312E-015  0.9000776E+02  0.7816164E-02  0.1186339E+00
        -11   -1    0    0    0    0  0.00000000000E+00  0.00000000000E+00  0.45593999997E+02  0.45594000000E+02  0.51100000000E-03 0. -1.
         11   -1    0    0    0    0 -0.00000000000E+00 -0.00000000000E+00 -0.45593999997E+02  0.45594000000E+02  0.51100000000E-03 0.  1.
    9900012    2    1    2    0    0 -0.64811768830E+00 -0.40622449438E-01 -0.98552591573E+00  0.90007759325E+02  0.90000020948E+02 0.  0.
         12    1    1    2    0    0  0.64811768830E+00  0.40622449438E-01  0.98552591573E+00  0.11802406754E+01  0.00000000000E+00 0. -1.
         11    1    3    3    0    0  0.42073446796E+01 -0.49218966294E+01 -0.74420618881E+01  0.98646389235E+01  0.51100000000E-03 0. -1.
        -11    1    3    3    0    0  0.25167302245E+02  0.26798627691E+02  0.18385006551E+02  0.41104355177E+02  0.51100000000E-03 0.  1.
         12    1    3    3    0    0 -0.30022764613E+02 -0.21917353511E+02 -0.11928470578E+02  0.39038765224E+02  0.00000000000E+00 0. -1.
</event>
<event>
 7    1  0.2569312E-015  0.9000767E+02  0.7816164E-02  0.1186339E+00
        -11   -1    0    0    0    0  0.00000000000E+00  0.00000000000E+00  0.45593999997E+02  0.45594000000E+02  0.51100000000E-03 0.  1.
         11   -1    0    0    0    0 -0.00000000000E+00 -0.00000000000E+00 -0.45593999997E+02  0.45594000000E+02  0.51100000000E-03 0. -1.
    9900012    2    1    2    0    0 -0.49085282972E+00 -0.78086832700E+00  0.73653320515E+00  0.90007672500E+02  0.89999932977E+02 0.  0.
         12    1    1    2    0    0  0.49085282972E+00  0.78086832700E+00 -0.73653320515E+00  0.11803274998E+01  0.00000000000E+00 0. -1.
         11    1    3    3    0    0  0.36912446763E+02  0.17820828997E+02 -0.93007308459E+01  0.42031110701E+02  0.51100000000E-03 0. -1.
        -11    1    3    3    0    0 -0.90445253991E+01  0.46986944836E+01  0.27529140465E+01  0.10557447871E+02  0.51100000000E-03 0.  1.
        -12    1    3    3    0    0 -0.28358774194E+02 -0.23300391808E+02  0.72843500045E+01  0.37419113928E+02  0.00000000000E+00 0.  1.
</event>
<event>
 7    1  0.2569312E-015  0.9000792E+02  0.7816164E-02  0.1186339E+00
        -11   -1    0    0    0    0  0.00000000000E+00  0.00000000000E+00  0.45593999997E+02  0.45594000000E+02  0.51100000000E-03 0.  1.
         11   -1    0    0    0    0 -0.00000000000E+00 -0.00000000000E+00 -0.45593999997E+02  0.45594000000E+02  0.51100000000E-03 0. -1.
    9900012    2    1    2    0    0 -0.10596981847E+01  0.17099293947E+00  0.49029939694E+00  0.90007918508E+02  0.90000182233E+02 0.  0.
         12    1    1    2    0    0  0.10596981847E+01 -0.17099293947E+00 -0.49029939694E+00  0.11800814915E+01  0.00000000000E+00 0. -1.
         11    1    3    3    0    0 -0.45713930725E+01  0.19777535715E+02 -0.26071899173E+02  0.33042283219E+02  0.51100000000E-03 0. -1.
        -11    1    3    3    0    0 -0.60735301699E+01  0.55452038925E+01 -0.91131186501E+01  0.12275422059E+02  0.51100000000E-03 0.  1.
        -12    1    3    3    0    0  0.95852250577E+01 -0.25151746668E+02  0.35675317220E+02  0.44690213231E+02  0.00000000000E+00 0.  1.
</event>
<event>
 7    1  0.2569312E-015  0.9000771E+02  0.7816164E-02  0.1186339E+00
        -11   -1    0    0    0    0  0.00000000000E+00  0.00000000000E+00  0.45593999997E+02  0.45594000000E+02  0.51100000000E-03 0. -1.
         11   -1    0    0    0    0 -0.00000000000E+00 -0.00000000000E+00 -0.45593999997E+02  0.45594000000E+02  0.51100000000E-03 0.  1.
    9900012    2    1    2    0    0 -0.22061916244E+00  0.13528995446E+00 -0.11515631349E+01  0.90007714509E+02  0.89999975540E+02 0.  0.
         12    1    1    2    0    0  0.22061916244E+00 -0.13528995446E+00  0.11515631349E+01  0.11802854910E+01  0.00000000000E+00 0. -1.
         11    1    3    3    0    0 -0.78647478308E+01  0.31634401054E+01  0.44398611003E+01  0.95694293766E+01  0.51100000000E-03 0. -1.
        -11    1    3    3    0    0 -0.25735097225E+02 -0.26555947045E+02 -0.12468699657E+02  0.39025402292E+02  0.51100000000E-03 0.  1.
         12    1    3    3    0    0  0.33379225894E+02  0.23527796894E+02  0.68772754214E+01  0.41412882841E+02  0.00000000000E+00 0. -1.
</event>
<event>
 7    1  0.2569312E-015  0.9000780E+02  0.7816164E-02  0.1186339E+00
        -11   -1    0    0    0    0  0.00000000000E+00  0.00000000000E+00  0.45593999997E+02  0.45594000000E+02  0.51100000000E-03 0.  1.
         11   -1    0    0    0    0 -0.00000000000E+00 -0.00000000000E+00 -0.45593999997E+02  0.45594000000E+02  0.51100000000E-03 0. -1.
    9900012    2    1    2    0    0 -0.14107821448E+00  0.49751386728E+00  0.10608700230E+01  0.90007801577E+02  0.90000063758E+02 0.  0.
         12    1    1    2    0    0  0.14107821448E+00 -0.49751386728E+00 -0.10608700230E+01  0.11801984225E+01  0.00000000000E+00 0. -1.
         11    1    3    3    0    0  0.26716617319E+02  0.69276488515E+01  0.22105317850E+02  0.35361208083E+02  0.51100000000E-03 0. -1.
        -11    1    3    3    0    0  0.10263829531E+02 -0.46068773457E+00  0.21124786758E+01  0.10489089391E+02  0.51100000000E-03 0.  1.
        -12    1    3    3    0    0 -0.37121525065E+02 -0.59694472496E+01 -0.23156926502E+02  0.44157504104E+02  0.00000000000E+00 0.  1.
</event>
<event>
 7    1  0.2569312E-015  0.9000776E+02  0.7816164E-02  0.1186339E+00
        -11   -1    0    0    0    0  0.00000000000E+00  0.00000000000E+00  0.45593999997E+02  0.45594000000E+02  0.51100000000E-03 0. -1.
         11   -1    0    0    0    0 -0.00000000000E+00 -0.00000000000E+00 -0.45593999997E+02  0.45594000000E+02  0.51100000000E-03 0.  1.
    9900012    2    1    2    0    0 -0.90400379568E-01 -0.79107145274E-01 -0.11741089818E+01  0.90007761859E+02  0.90000023515E+02 0.  0.
         12    1    1    2    0    0  0.90400379568E-01  0.79107145274E-01  0.11741089818E+01  0.11802381413E+01  0.00000000000E+00 0. -1.
         11    1    3    3    0    0 -0.33435676934E+02  0.24685456867E+02 -0.26853595489E+01  0.41647658145E+02  0.51100000000E-03 0. -1.
        -11    1    3    3    0    0  0.19083038538E+01  0.25672284535E+01 -0.52600241427E+01  0.61563089408E+01  0.51100000000E-03 0.  1.
        -12    1    3    3    0    0  0.31436972701E+02 -0.27331792466E+02  0.67712747099E+01  0.42203794773E+02  0.00000000000E+00 0.  1.
</event>
<event>
 7    1  0.2569312E-015  0.9000777E+02  0.7816164E-02  0.1186339E+00
        -11   -1    0    0    0    0  0.00000000000E+00  0.00000000000E+00  0.45593999997E+02  0.45594000000E+02  0.51100000000E-03 0.  1.
         11   -1    0    0    0    0 -0.00000000000E+00 -0.00000000000E+00 -0.45593999997E+02  0.45594000000E+02  0.51100000000E-03 0. -1.
    9900012    2    1    2    0    0  0.63350809600E+00  0.49104730657E+00  0.86629778530E+00  0.90007774675E+02  0.90000036501E+02 0.  0.
         12    1    1    2    0    0 -0.63350809600E+00 -0.49104730657E+00 -0.86629778530E+00  0.11802253250E+01  0.00000000000E+00 0. -1.
         11    1    3    3    0    0 -0.11823511843E+02 -0.29903388455E+02  0.11811623619E+01  0.32177681989E+02  0.51100000000E-03 0. -1.
        -11    1    3    3    0    0  0.63374988597E+01 -0.86443943126E+01 -0.12511538277E+02  0.16475073146E+02  0.51100000000E-03 0.  1.
        -12    1    3    3    0    0  0.61195210794E+01  0.39038830074E+02  0.12196673701E+02  0.41355019540E+02  0.00000000000E+00 0.  1.
</event>
<event>
 7    1  0.2569312E-015  0.9000774E+02  0.7816164E-02  0.1186339E+00
        -11   -1    0    0    0    0  0.00000000000E+00  0.00000000000E+00  0.45593999997E+02  0.45594000000E+02  0.51100000000E-03 0.  1.
         11   -1    0    0    0    0 -0.00000000000E+00 -0.00000000000E+00 -0.45593999997E+02  0.45594000000E+02  0.51100000000E-03 0. -1.
    9900012    2    1    2    0    0  0.13835907397E+00 -0.11454594797E+01 -0.24858424677E+00  0.90007739528E+02  0.90000000890E+02 0.  0.
         12    1    1    2    0    0 -0.13835907397E+00  0.11454594797E+01  0.24858424677E+00  0.11802604716E+01  0.00000000000E+00 0. -1.
         11    1    3    3    0    0 -0.30042491688E+01 -0.96576201156E+01  0.15815209079E+01  0.10237008743E+02  0.51100000000E-03 0. -1.
        -11    1    3    3    0    0  0.23286294740E+01 -0.11860980911E+02  0.35354072951E+02  0.37363295597E+02  0.51100000000E-03 0.  1.
         12    1    3    3    0    0  0.81397876882E+00  0.20373141547E+02 -0.37184178105E+02  0.42407435189E+02  0.00000000000E+00 0. -1.
</event>
<event>
 7    1  0.2569312E-015  0.9000778E+02  0.7816164E-02  0.1186339E+00
        -11   -1    0    0    0    0  0.00000000000E+00  0.00000000000E+00  0.45593999997E+02  0.45594000000E+02  0.51100000000E-03 0. -1.
         11   -1    0    0    0    0 -0.00000000000E+00 -0.00000000000E+00 -0.45593999997E+02  0.45594000000E+02  0.51100000000E-03 0.  1.
    9900012    2    1    2    0    0  0.17531793992E-01 -0.92855005365E+00  0.72828534337E+00  0.90007783025E+02  0.90000044961E+02 0.  0.
         12    1    1    2    0    0 -0.17531793992E-01  0.92855005365E+00 -0.72828534337E+00  0.11802169747E+01  0.00000000000E+00 0. -1.
         11    1    3    3    0    0 -0.45324843753E+00  0.86297832203E+01  0.53413514359E+00  0.86581691591E+01  0.51100000000E-03 0. -1.
        -11    1    3    3    0    0 -0.99837643657E+01  0.28407417278E+02 -0.20922517749E+02  0.36666178647E+02  0.51100000000E-03 0.  1.
         12    1    3    3    0    0  0.10454544597E+02 -0.37965750552E+02  0.21116667949E+02  0.44683435219E+02  0.00000000000E+00 0. -1.
</event>
<event>
 7    1  0.2569312E-015  0.9000771E+02  0.7816164E-02  0.1186339E+00
        -11   -1    0    0    0    0  0.00000000000E+00  0.00000000000E+00  0.45593999997E+02  0.45594000000E+02  0.51100000000E-03 0. -1.
         11   -1    0    0    0    0 -0.00000000000E+00 -0.00000000000E+00 -0.45593999997E+02  0.45594000000E+02  0.51100000000E-03 0.  1.
    9900012    2    1    2    0    0  0.40582305417E-01 -0.11131375191E+01  0.39033642125E+00  0.90007709959E+02  0.89999970930E+02 0.  0.
         12    1    1    2    0    0 -0.40582305417E-01  0.11131375191E+01 -0.39033642125E+00  0.11802900414E+01  0.00000000000E+00 0. -1.
         11    1    3    3    0    0  0.15889536218E+02  0.33098128820E+02  0.15859621932E+02  0.39993638253E+02  0.51100000000E-03 0. -1.
        -11    1    3    3    0    0  0.77389342874E+01 -0.32356613491E+01 -0.47122685214E+01  0.96211269168E+01  0.51100000000E-03 0.  1.
        -12    1    3    3    0    0 -0.23587888200E+02 -0.30975604990E+02 -0.10757016989E+02  0.40392944789E+02  0.00000000000E+00 0.  1.
</event>
<event>
 7    1  0.2569312E-015  0.9000775E+02  0.7816164E-02  0.1186339E+00
        -11   -1    0    0    0    0  0.00000000000E+00  0.00000000000E+00  0.45593999997E+02  0.45594000000E+02  0.51100000000E-03 0.  1.
         11   -1    0    0    0    0 -0.00000000000E+00 -0.00000000000E+00 -0.45593999997E+02  0.45594000000E+02  0.51100000000E-03 0. -1.
    9900012    2    1    2    0    0  0.63390091483E+00 -0.20462708118E+00  0.97431234376E+00  0.90007751232E+02  0.90000012748E+02 0.  0.
         12    1    1    2    0    0 -0.63390091483E+00  0.20462708118E+00 -0.97431234376E+00  0.11802487684E+01  0.00000000000E+00 0. -1.
         11    1    3    3    0    0  0.91719005644E+00 -0.95519947217E+01 -0.50896772080E+01  0.10862166225E+02  0.51100000000E-03 0. -1.
        -11    1    3    3    0    0 -0.30627343624E+02 -0.17828516735E+02 -0.74784944174E+01  0.36219029052E+02  0.51100000000E-03 0.  1.
         12    1    3    3    0    0  0.30344054483E+02  0.27175884376E+02  0.13542483969E+02  0.42926555954E+02  0.00000000000E+00 0. -1.
</event>
<event>
 7    1  0.2569312E-015  0.9000775E+02  0.7816164E-02  0.1186339E+00
        -11   -1    0    0    0    0  0.00000000000E+00  0.00000000000E+00  0.45593999997E+02  0.45594000000E+02  0.51100000000E-03 0.  1.
         11   -1    0    0    0    0 -0.00000000000E+00 -0.00000000000E+00 -0.45593999997E+02  0.45594000000E+02  0.51100000000E-03 0. -1.
    9900012    2    1    2    0    0  0.28507770459E+00 -0.99729071681E+00  0.56314596273E+00  0.90007749414E+02  0.90000010906E+02 0.  0.
         12    1    1    2    0    0 -0.28507770459E+00  0.99729071681E+00 -0.56314596273E+00  0.11802505865E+01  0.00000000000E+00 0. -1.
         11    1    3    3    0    0 -0.18813743748E+02  0.16407210229E+02 -0.30508032097E+02  0.39419456161E+02  0.51100000000E-03 0. -1.
        -11    1    3    3    0    0  0.85530207044E+01 -0.20116625975E+01 -0.49038937730E+01  0.10062262369E+02  0.51100000000E-03 0.  1.
        -12    1    3    3    0    0  0.10545800748E+02 -0.15392838349E+02  0.35975071833E+02  0.40526030884E+02  0.00000000000E+00 0.  1.
</event>
<event>
 7    1  0.2569312E-015  0.9000770E+02  0.7816164E-02  0.1186339E+00
        -11   -1    0    0    0    0  0.00000000000E+00  0.00000000000E+00  0.45593999997E+02  0.45594000000E+02  0.51100000000E-03 0.  1.
         11   -1    0    0    0    0 -0.00000000000E+00 -0.00000000000E+00 -0.45593999997E+02  0.45594000000E+02  0.51100000000E-03 0. -1.
    9900012    2    1    2    0    0  0.90136769056E+00 -0.75286633542E+00  0.11764259415E+00  0.90007698677E+02  0.89999959500E+02 0.  0.
         12    1    1    2    0    0 -0.90136769056E+00  0.75286633542E+00 -0.11764259415E+00  0.11803013228E+01  0.00000000000E+00 0. -1.
         11    1    3    3    0    0 -0.97995210758E+01  0.42824975529E+01  0.10968832667E+02  0.15319454591E+02  0.51100000000E-03 0. -1.
        -11    1    3    3    0    0 -0.27224518830E+02 -0.19126932143E+02 -0.24150545260E+01  0.33359353221E+02  0.51100000000E-03 0.  1.
         12    1    3    3    0    0  0.37925407596E+02  0.14091568255E+02 -0.84361355472E+01  0.41328890865E+02  0.00000000000E+00 0. -1.
</event>
<event>
 7    1  0.2569312E-015  0.9000767E+02  0.7816164E-02  0.1186339E+00
        -11   -1    0    0    0    0  0.00000000000E+00  0.00000000000E+00  0.45593999997E+02  0.45594000000E+02  0.51100000000E-03 0.  1.
         11   -1    0    0    0    0 -0.00000000000E+00 -0.00000000000E+00 -0.45593999997E+02  0.45594000000E+02  0.51100000000E-03 0. -1.
    9900012    2    1    2    0    0 -0.16601398484E+00  0.10693250767E+01  0.47133147665E+00  0.90007673722E+02  0.89999934215E+02 0.  0.
         12    1    1    2    0    0  0.16601398484E+00 -0.10693250767E+01 -0.47133147665E+00  0.11803262785E+01  0.00000000000E+00 0. -1.
         11    1    3    3    0    0  0.11056438290E+02 -0.25952352864E+02 -0.21759680760E+02  0.35626579318E+02  0.51100000000E-03 0. -1.
        -11    1    3    3    0    0 -0.18597213562E+01 -0.82525221546E+01 -0.40780599700E+01  0.93911265998E+01  0.51100000000E-03 0.  1.
        -12    1    3    3    0    0 -0.93627309190E+01  0.35274200095E+02  0.26309072207E+02  0.44989967804E+02  0.00000000000E+00 0.  1.
</event>
<event>
 7    1  0.2569312E-015  0.9000782E+02  0.7816164E-02  0.1186339E+00
        -11   -1    0    0    0    0  0.00000000000E+00  0.00000000000E+00  0.45593999997E+02  0.45594000000E+02  0.51100000000E-03 0. -1.
         11   -1    0    0    0    0 -0.00000000000E+00 -0.00000000000E+00 -0.45593999997E+02  0.45594000000E+02  0.51100000000E-03 0.  1.
    9900012    2    1    2    0    0  0.37532773154E+00  0.37871256544E+00 -0.10528714815E+01  0.90007816764E+02  0.90000079146E+02 0.  0.
         12    1    1    2    0    0 -0.37532773154E+00 -0.37871256544E+00  0.10528714815E+01  0.11801832357E+01  0.00000000000E+00 0. -1.
         11    1    3    3    0    0  0.12944181764E+02  0.31316791459E+02  0.26061079499E+02  0.42748954768E+02  0.51100000000E-03 0. -1.
        -11    1    3    3    0    0 -0.21757879875E+01  0.12021739944E+01 -0.81501269429E+01  0.85207889967E+01  0.51100000000E-03 0.  1.
        -12    1    3    3    0    0 -0.10393066045E+02 -0.32140252888E+02 -0.18963824038E+02  0.38738072999E+02  0.00000000000E+00 0.  1.
</event>
<event>
 7    1  0.2569312E-015  0.9000777E+02  0.7816164E-02  0.1186339E+00
        -11   -1    0    0    0    0  0.00000000000E+00  0.00000000000E+00  0.45593999997E+02  0.45594000000E+02  0.51100000000E-03 0.  1.
         11   -1    0    0    0    0 -0.00000000000E+00 -0.00000000000E+00 -0.45593999997E+02  0.45594000000E+02  0.51100000000E-03 0. -1.
    9900012    2    1    2    0    0  0.37300505536E+00 -0.55374589599E+00  0.97322529119E+00  0.90007773430E+02  0.90000035239E+02 0.  0.
         12    1    1    2    0    0 -0.37300505536E+00  0.55374589599E+00 -0.97322529119E+00  0.11802265698E+01  0.00000000000E+00 0. -1.
         11    1    3    3    0    0 -0.75884937311E+01  0.34963603799E+02  0.75418137066E+01  0.36563886308E+02  0.51100000000E-03 0. -1.
        -11    1    3    3    0    0 -0.38036989988E+00  0.81371648196E+01  0.14721521274E+01  0.82780048749E+01  0.51100000000E-03 0.  1.
        -12    1    3    3    0    0  0.83418686864E+01 -0.43654514514E+02 -0.80407405428E+01  0.45165882247E+02  0.00000000000E+00 0.  1.
</event>
<event>
 7    1  0.2569312E-015  0.9000767E+02  0.7816164E-02  0.1186339E+00
        -11   -1    0    0    0    0  0.00000000000E+00  0.00000000000E+00  0.45593999997E+02  0.45594000000E+02  0.51100000000E-03 0.  1.
         11   -1    0    0    0    0 -0.00000000000E+00 -0.00000000000E+00 -0.45593999997E+02  0.45594000000E+02  0.51100000000E-03 0. -1.
    9900012    2    1    2    0    0 -0.62489858587E+00  0.24284184218E+00  0.97144453830E+00  0.90007671701E+02  0.89999932167E+02 0.  0.
         12    1    1    2    0    0  0.62489858587E+00 -0.24284184218E+00 -0.97144453830E+00  0.11803282992E+01  0.00000000000E+00 0. -1.
         11    1    3    3    0    0  0.32159601465E+02  0.25637897704E+02  0.10535740851E+02  0.42456372909E+02  0.51100000000E-03 0. -1.
        -11    1    3    3    0    0 -0.66184012564E+01 -0.30239970945E+01  0.63197754786E+01  0.96378086710E+01  0.51100000000E-03 0.  1.
        -12    1    3    3    0    0 -0.26166098794E+02 -0.22371058767E+02 -0.15884071791E+02  0.37913490121E+02  0.00000000000E+00 0.  1.
</event>
<event>
 7    1  0.2569312E-015  0.9000825E+02  0.7816164E-02  0.1186338E+00
        -11   -1    0    0    0    0  0.00000000000E+00  0.00000000000E+00  0.45593999997E+02  0.45594000000E+02  0.51100000000E-03 0.  1.
         11   -1    0    0    0    0 -0.00000000000E+00 -0.00000000000E+00 -0.45593999997E+02  0.45594000000E+02  0.51100000000E-03 0. -1.
    9900012    2    1    2    0    0  0.78643240648E+00 -0.26458634486E+00  0.83864722614E+00  0.90008249588E+02  0.90000517681E+02 0.  0.
         12    1    1    2    0    0 -0.78643240648E+00  0.26458634486E+00 -0.83864722614E+00  0.11797504116E+01  0.00000000000E+00 0. -1.
         11    1    3    3    0    0 -0.16636265898E+01 -0.46545618931E+01 -0.76310611255E+01  0.90920676421E+01  0.51100000000E-03 0. -1.
        -11    1    3    3    0    0  0.83037001166E+01 -0.68527872206E+01  0.42898156694E+02  0.44228542552E+02  0.51100000000E-03 0.  1.
         12    1    3    3    0    0 -0.58536411203E+01  0.11242762769E+02 -0.34428448342E+02  0.36687639394E+02  0.00000000000E+00 0. -1.
</event>
<event>
 7    1  0.2569312E-015  0.9000769E+02  0.7816164E-02  0.1186339E+00
        -11   -1    0    0    0    0  0.00000000000E+00  0.00000000000E+00  0.45593999997E+02  0.45594000000E+02  0.51100000000E-03 0.  1.
         11   -1    0    0    0    0 -0.00000000000E+00 -0.00000000000E+00 -0.45593999997E+02  0.45594000000E+02  0.51100000000E-03 0. -1.
    9900012    2    1    2    0    0  0.76599235540E+00  0.71563399427E+00  0.54244584178E+00  0.90007693348E+02  0.89999954100E+02 0.  0.
         12    1    1    2    0    0 -0.76599235540E+00 -0.71563399427E+00 -0.54244584178E+00  0.11803066523E+01  0.00000000000E+00 0. -1.
         11    1    3    3    0    0  0.54175876021E+01 -0.92688125478E+00  0.59485194498E+00  0.55284006172E+01  0.51100000000E-03 0. -1.
        -11    1    3    3    0    0  0.12844744390E+02  0.36751191673E+02 -0.16057853343E+02  0.42112850795E+02  0.51100000000E-03 0.  1.
         12    1    3    3    0    0 -0.17496339637E+02 -0.35108676424E+02  0.16005447240E+02  0.42366441935E+02  0.00000000000E+00 0. -1.
</event>
<event>
 7    1  0.2569312E-015  0.9000774E+02  0.7816164E-02  0.1186339E+00
        -11   -1    0    0    0    0  0.00000000000E+00  0.00000000000E+00  0.45593999997E+02  0.45594000000E+02  0.51100000000E-03 0. -1.
         11   -1    0    0    0    0 -0.00000000000E+00 -0.00000000000E+00 -0.45593999997E+02  0.45594000000E+02  0.51100000000E-03 0.  1.
    9900012    2    1    2    0    0  0.76437372157E+00 -0.89484629280E+00 -0.89379166298E-01  0.90007743371E+02  0.90000004784E+02 0.  0.
         12    1    1    2    0    0 -0.76437372157E+00  0.89484629280E+00  0.89379166298E-01  0.11802566286E+01  0.00000000000E+00 0. -1.
         11    1    3    3    0    0  0.16284128313E+02  0.11058371035E+01  0.36498415583E+02  0.39981621415E+02  0.51100000000E-03 0. -1.
        -11    1    3    3    0    0  0.60107888567E+01 -0.70101795630E+01 -0.28000024354E+01  0.96494670363E+01  0.51100000000E-03 0.  1.
        -12    1    3    3    0    0 -0.21530543449E+02  0.50094961667E+01 -0.33787792314E+02  0.40376654920E+02  0.00000000000E+00 0.  1.
</event>
<event>
 7    1  0.2569312E-015  0.9000778E+02  0.7816164E-02  0.1186339E+00
        -11   -1    0    0    0    0  0.00000000000E+00  0.00000000000E+00  0.45593999997E+02  0.45594000000E+02  0.51100000000E-03 0.  1.
         11   -1    0    0    0    0 -0.00000000000E+00 -0.00000000000E+00 -0.45593999997E+02  0.45594000000E+02  0.51100000000E-03 0. -1.
    9900012    2    1    2    0    0  0.46533100237E+00  0.92490421365E+00 -0.56652210772E+00  0.90007776273E+02  0.90000038120E+02 0.  0.
         12    1    1    2    0    0 -0.46533100237E+00 -0.92490421365E+00  0.56652210772E+00  0.11802237266E+01  0.00000000000E+00 0. -1.
         11    1    3    3    0    0 -0.17922812533E+02 -0.28390381414E+02 -0.26264759593E+02  0.42627204490E+02  0.51100000000E-03 0. -1.
        -11    1    3    3    0    0  0.98188331309E+01  0.26269352184E+01  0.13529029732E+01  0.10253809995E+02  0.51100000000E-03 0.  1.
        -12    1    3    3    0    0  0.85693104042E+01  0.26688350409E+02  0.24345334512E+02  0.37126761788E+02  0.00000000000E+00 0.  1.
</event>
<event>
 7    1  0.2569312E-015  0.9000769E+02  0.7816164E-02  0.1186339E+00
        -11   -1    0    0    0    0  0.00000000000E+00  0.00000000000E+00  0.45593999997E+02  0.45594000000E+02  0.51100000000E-03 0. -1.
         11   -1    0    0    0    0 -0.00000000000E+00 -0.00000000000E+00 -0.45593999997E+02  0.45594000000E+02  0.51100000000E-03 0.  1.
    9900012    2    1    2    0    0 -0.30762783169E+00 -0.80592932308E+00 -0.80558504316E+00  0.90007693168E+02  0.89999953917E+02 0.  0.
         12    1    1    2    0    0  0.30762783169E+00  0.80592932308E+00  0.80558504316E+00  0.11803068323E+01  0.00000000000E+00 0. -1.
         11    1    3    3    0    0 -0.28905574254E+01 -0.40794644298E+01  0.87790639353E+01  0.10102936014E+02  0.51100000000E-03 0. -1.
        -11    1    3    3    0    0 -0.92588420748E+01 -0.28706038172E+02 -0.27994090332E+02  0.41151328992E+02  0.51100000000E-03 0.  1.
         12    1    3    3    0    0  0.11841771668E+02  0.31979573278E+02  0.18409441353E+02  0.38753428161E+02  0.00000000000E+00 0. -1.
</event>
<event>
 7    1  0.2967141E-015  0.9000798E+02  0.7816164E-02  0.1186339E+00
        -11   -1    0    0    0    0  0.00000000000E+00  0.00000000000E+00  0.45593999997E+02  0.45594000000E+02  0.51100000000E-03 0. -1.
         11   -1    0    0    0    0 -0.00000000000E+00 -0.00000000000E+00 -0.45593999997E+02  0.45594000000E+02  0.51100000000E-03 0.  1.
    9900012    2    1    2    0    0  0.37656560486E+00 -0.92152808362E+00 -0.63358615819E+00  0.90007980050E+02  0.90000244586E+02 0.  0.
         12    1    1    2    0    0 -0.37656560486E+00  0.92152808362E+00  0.63358615819E+00  0.11800199505E+01  0.00000000000E+00 0. -1.
         11    1    3    3    0    0  0.24497616631E+02 -0.30795641787E+01  0.31021443417E+02  0.39647785412E+02  0.51100000000E-03 0. -1.
        -11    1    3    3    0    0 -0.37966169094E+01 -0.80834475078E+01  0.25390658031E+01  0.92845720947E+01  0.51100000000E-03 0.  1.
        -12    1    3    3    0    0 -0.20324434117E+02  0.10241483603E+02 -0.34194095378E+02  0.41075622543E+02  0.00000000000E+00 0.  1.
</event>
<event>
 7    1  0.2569312E-015  0.9000776E+02  0.7816164E-02  0.1186339E+00
        -11   -1    0    0    0    0  0.00000000000E+00  0.00000000000E+00  0.45593999997E+02  0.45594000000E+02  0.51100000000E-03 0.  1.
         11   -1    0    0    0    0 -0.00000000000E+00 -0.00000000000E+00 -0.45593999997E+02  0.45594000000E+02  0.51100000000E-03 0. -1.
    9900012    2    1    2    0    0 -0.99383275846E-01  0.11572911243E+01  0.20919961859E+00  0.90007760930E+02  0.90000022574E+02 0.  0.
         12    1    1    2    0    0  0.99383275846E-01 -0.11572911243E+01 -0.20919961859E+00  0.11802390700E+01  0.00000000000E+00 0. -1.
         11    1    3    3    0    0 -0.19937696669E+02 -0.28792311064E+01 -0.32695100676E+02  0.38402751577E+02  0.51100000000E-03 0. -1.
        -11    1    3    3    0    0 -0.63799823354E+01  0.57646129445E+00 -0.29501508617E+01  0.70526500403E+01  0.51100000000E-03 0.  1.
        -12    1    3    3    0    0  0.26218295729E+02  0.34600609362E+01  0.35854451156E+02  0.44552359313E+02  0.00000000000E+00 0.  1.
</event>
<event>
 7    1  0.2569312E-015  0.9000776E+02  0.7816164E-02  0.1186339E+00
        -11   -1    0    0    0    0  0.00000000000E+00  0.00000000000E+00  0.45593999997E+02  0.45594000000E+02  0.51100000000E-03 0. -1.
         11   -1    0    0    0    0 -0.00000000000E+00 -0.00000000000E+00 -0.45593999997E+02  0.45594000000E+02  0.51100000000E-03 0.  1.
    9900012    2    1    2    0    0 -0.15340082634E+00 -0.56308311207E+00 -0.10258572899E+01  0.90007755286E+02  0.90000016856E+02 0.  0.
         12    1    1    2    0    0  0.15340082634E+00  0.56308311207E+00  0.10258572899E+01  0.11802447136E+01  0.00000000000E+00 0. -1.
         11    1    3    3    0    0 -0.63451350532E+01  0.87975676061E+01 -0.88112607985E+01  0.13974843532E+02  0.51100000000E-03 0. -1.
        -11    1    3    3    0    0  0.18801987899E+02 -0.29127566899E+02 -0.19724178975E+02  0.39887004637E+02  0.51100000000E-03 0.  1.
         12    1    3    3    0    0 -0.12610253672E+02  0.19766916180E+02  0.27509582483E+02  0.36145907118E+02  0.00000000000E+00 0. -1.
</event>
<event>
 7    1  0.2569312E-015  0.9000734E+02  0.7816164E-02  0.1186340E+00
        -11   -1    0    0    0    0  0.00000000000E+00  0.00000000000E+00  0.45593999997E+02  0.45594000000E+02  0.51100000000E-03 0.  1.
         11   -1    0    0    0    0 -0.00000000000E+00 -0.00000000000E+00 -0.45593999997E+02  0.45594000000E+02  0.51100000000E-03 0. -1.
    9900012    2    1    2    0    0 -0.54509575851E+00  0.51426689503E+00  0.91233478852E+00  0.90007341458E+02  0.89999597565E+02 0.  0.
         12    1    1    2    0    0  0.54509575851E+00 -0.51426689503E+00 -0.91233478852E+00  0.11806585415E+01  0.00000000000E+00 0. -1.
         11    1    3    3    0    0 -0.26936642887E+02  0.11770307241E+02 -0.10718334235E+02  0.31289064409E+02  0.51100000000E-03 0. -1.
        -11    1    3    3    0    0 -0.11428428172E+02 -0.87949017744E+01 -0.75100782793E+01  0.16259167990E+02  0.51100000000E-03 0.  1.
        -12    1    3    3    0    0  0.37819975300E+02 -0.24611385713E+01  0.19140747303E+02  0.42459109059E+02  0.00000000000E+00 0.  1.
</event>
<event>
 7    1  0.2569312E-015  0.9000771E+02  0.7816164E-02  0.1186339E+00
        -11   -1    0    0    0    0  0.00000000000E+00  0.00000000000E+00  0.45593999997E+02  0.45594000000E+02  0.51100000000E-03 0. -1.
         11   -1    0    0    0    0 -0.00000000000E+00 -0.00000000000E+00 -0.45593999997E+02  0.45594000000E+02  0.51100000000E-03 0.  1.
    9900012    2    1    2    0    0  0.93536977577E+00 -0.96111058563E-01 -0.71339129862E+00  0.90007711434E+02  0.89999972425E+02 0.  0.
         12    1    1    2    0    0 -0.93536977577E+00  0.96111058563E-01  0.71339129862E+00  0.11802885655E+01  0.00000000000E+00 0. -1.
         11    1    3    3    0    0 -0.23197726178E+02  0.25689571551E+02  0.14056310212E+02  0.37358646166E+02  0.51100000000E-03 0. -1.
        -11    1    3    3    0    0 -0.13853231655E+01  0.48649445898E+01  0.58643911934E+01  0.77445393966E+01  0.51100000000E-03 0.  1.
        -12    1    3    3    0    0  0.25518419120E+02 -0.30650627199E+02 -0.20634092704E+02  0.44904525872E+02  0.00000000000E+00 0.  1.
</event>
<event>
 7    1  0.2569312E-015  0.9000781E+02  0.7816164E-02  0.1186339E+00
        -11   -1    0    0    0    0  0.00000000000E+00  0.00000000000E+00  0.45593999997E+02  0.45594000000E+02  0.51100000000E-03 0. -1.
         11   -1    0    0    0    0 -0.00000000000E+00 -0.00000000000E+00 -0.45593999997E+02  0.45594000000E+02  0.51100000000E-03 0.  1.
    9900012    2    1    2    0    0  0.94085372909E+00  0.69472342412E+00 -0.15810410799E+00  0.90007812183E+02  0.90000074503E+02 0.  0.
         12    1    1    2    0    0 -0.94085372909E+00 -0.69472342412E+00  0.15810410799E+00  0.11801878175E+01  0.00000000000E+00 0. -1.
         11    1    3    3    0    0 -0.86902856781E+01 -0.11485735631E+02  0.59977426290E+01  0.15601798136E+02  0.51100000000E-03 0. -1.
        -11    1    3    3    0    0 -0.25210625668E+02 -0.12599927680E+02  0.81200258550E+01  0.29330336586E+02  0.51100000000E-03 0.  1.
        -12    1    3    3    0    0  0.34841765075E+02  0.24780386735E+02 -0.14275872592E+02  0.45075677461E+02  0.00000000000E+00 0.  1.
</event>
<event>
 7    1  0.2569312E-015  0.9000769E+02  0.7816164E-02  0.1186339E+00
        -11   -1    0    0    0    0  0.00000000000E+00  0.00000000000E+00  0.45593999997E+02  0.45594000000E+02  0.51100000000E-03 0. -1.
         11   -1    0    0    0    0 -0.00000000000E+00 -0.00000000000E+00 -0.45593999997E+02  0.45594000000E+02  0.51100000000E-03 0.  1.
    9900012    2    1    2    0    0  0.57389791312E+00  0.59406004313E+00 -0.84312861056E+00  0.90007689870E+02  0.89999950576E+02 0.  0.
         12    1    1    2    0    0 -0.57389791312E+00 -0.59406004313E+00  0.84312861056E+00  0.11803101302E+01  0.00000000000E+00 0. -1.
         11    1    3    3    0    0  0.22536145248E+01 -0.59568125481E+01  0.44329914637E+01  0.77597556493E+01  0.51100000000E-03 0. -1.
        -11    1    3    3    0    0  0.35374062360E+02 -0.15801043918E+02 -0.89193979659E+00  0.38752971933E+02  0.51100000000E-03 0.  1.
         12    1    3    3    0    0 -0.37053778972E+02  0.22351916509E+02 -0.43841802777E+01  0.43494962288E+02  0.00000000000E+00 0. -1.
</event>
<event>
 7    1  0.2569312E-015  0.9000776E+02  0.7816164E-02  0.1186339E+00
        -11   -1    0    0    0    0  0.00000000000E+00  0.00000000000E+00  0.45593999997E+02  0.45594000000E+02  0.51100000000E-03 0.  1.
         11   -1    0    0    0    0 -0.00000000000E+00 -0.00000000000E+00 -0.45593999997E+02  0.45594000000E+02  0.51100000000E-03 0. -1.
    9900012    2    1    2    0    0 -0.87556986227E+00  0.36240948906E+00  0.70355669362E+00  0.90007764751E+02  0.90000026446E+02 0.  0.
         12    1    1    2    0    0  0.87556986227E+00 -0.36240948906E+00 -0.70355669362E+00  0.11802352488E+01  0.00000000000E+00 0. -1.
         11    1    3    3    0    0 -0.13953386058E+01 -0.82318758068E+01  0.48957297876E+01  0.96787870902E+01  0.51100000000E-03 0. -1.
        -11    1    3    3    0    0 -0.35847749850E+02 -0.12377543876E+02  0.15548307545E+01  0.37956320431E+02  0.51100000000E-03 0.  1.
         12    1    3    3    0    0  0.36367518594E+02  0.20971829172E+02 -0.57470038485E+01  0.42372657230E+02  0.00000000000E+00 0. -1.
</event>
<event>
 7    1  0.2569312E-015  0.9000776E+02  0.7816164E-02  0.1186339E+00
        -11   -1    0    0    0    0  0.00000000000E+00  0.00000000000E+00  0.45593999997E+02  0.45594000000E+02  0.51100000000E-03 0. -1.
         11   -1    0    0    0    0 -0.00000000000E+00 -0.00000000000E+00 -0.45593999997E+02  0.45594000000E+02  0.51100000000E-03 0.  1.
    9900012    2    1    2    0    0  0.67450613472E+00 -0.44521428724E+00 -0.86011158448E+00  0.90007760098E+02  0.90000021732E+02 0.  0.
         12    1    1    2    0    0 -0.67450613472E+00  0.44521428724E+00  0.86011158448E+00  0.11802399015E+01  0.00000000000E+00 0. -1.
         11    1    3    3    0    0 -0.56518445790E+01  0.41495366569E+01  0.72429834439E+01  0.10080814007E+02  0.51100000000E-03 0. -1.
        -11    1    3    3    0    0 -0.26994261671E+02  0.90899498788E+01 -0.27002567596E+02  0.39248643403E+02  0.51100000000E-03 0.  1.
         12    1    3    3    0    0  0.33320612384E+02 -0.13684700823E+02  0.18899472568E+02  0.40678302689E+02  0.00000000000E+00 0. -1.
</event>
<event>
 7    1  0.2569312E-015  0.9000767E+02  0.7816164E-02  0.1186339E+00
        -11   -1    0    0    0    0  0.00000000000E+00  0.00000000000E+00  0.45593999997E+02  0.45594000000E+02  0.51100000000E-03 0.  1.
         11   -1    0    0    0    0 -0.00000000000E+00 -0.00000000000E+00 -0.45593999997E+02  0.45594000000E+02  0.51100000000E-03 0. -1.
    9900012    2    1    2    0    0 -0.21838073470E+00 -0.11590084062E+01  0.46777464428E-01  0.90007670062E+02  0.89999930507E+02 0.  0.
         12    1    1    2    0    0  0.21838073470E+00  0.11590084062E+01 -0.46777464428E-01  0.11803299378E+01  0.00000000000E+00 0. -1.
         11    1    3    3    0    0  0.95553640420E+01  0.36750527382E+01 -0.25366078149E+01  0.10547292263E+02  0.51100000000E-03 0. -1.
        -11    1    3    3    0    0  0.66195251876E+00 -0.95802279318E+01  0.39579957061E+02  0.40728269661E+02  0.51100000000E-03 0.  1.
         12    1    3    3    0    0 -0.10435697296E+02  0.47461667874E+01 -0.36996571782E+02  0.38732108138E+02  0.00000000000E+00 0. -1.
</event>
<event>
 7    1  0.2569312E-015  0.9000767E+02  0.7816164E-02  0.1186339E+00
        -11   -1    0    0    0    0  0.00000000000E+00  0.00000000000E+00  0.45593999997E+02  0.45594000000E+02  0.51100000000E-03 0. -1.
         11   -1    0    0    0    0 -0.00000000000E+00 -0.00000000000E+00 -0.45593999997E+02  0.45594000000E+02  0.51100000000E-03 0.  1.
    9900012    2    1    2    0    0  0.54597244961E+00 -0.10463148937E+01  0.17516659198E-01  0.90007674788E+02  0.89999935295E+02 0.  0.
         12    1    1    2    0    0 -0.54597244961E+00  0.10463148937E+01 -0.17516659198E-01  0.11803252119E+01  0.00000000000E+00 0. -1.
         11    1    3    3    0    0  0.88911662312E+01 -0.37955677541E+02 -0.59964972092E+01  0.39441656578E+02  0.51100000000E-03 0. -1.
        -11    1    3    3    0    0  0.53625646470E+01  0.64801426948E+00 -0.77348890602E+01  0.94342742763E+01  0.51100000000E-03 0.  1.
        -12    1    3    3    0    0 -0.13707758429E+02  0.36261348378E+02  0.13748902929E+02  0.41131743934E+02  0.00000000000E+00 0.  1.
</event>
<event>
 7    1  0.2569312E-015  0.9000766E+02  0.7816164E-02  0.1186339E+00
        -11   -1    0    0    0    0  0.00000000000E+00  0.00000000000E+00  0.45593999997E+02  0.45594000000E+02  0.51100000000E-03 0.  1.
         11   -1    0    0    0    0 -0.00000000000E+00 -0.00000000000E+00 -0.45593999997E+02  0.45594000000E+02  0.51100000000E-03 0. -1.
    9900012    2    1    2    0    0 -0.80932825916E+00  0.84163212543E+00 -0.17273555440E+00  0.90007663422E+02  0.89999923779E+02 0.  0.
         12    1    1    2    0    0  0.80932825916E+00 -0.84163212543E+00  0.17273555440E+00  0.11803365780E+01  0.00000000000E+00 0. -1.
         11    1    3    3    0    0 -0.25432866960E+02  0.13732916748E+02 -0.22582940694E+02  0.36679870977E+02  0.51100000000E-03 0. -1.
        -11    1    3    3    0    0 -0.59616835792E+01  0.83307148674E+01  0.78131379241E+00  0.10273895698E+02  0.51100000000E-03 0.  1.
        -12    1    3    3    0    0  0.30585222280E+02 -0.21221999490E+02  0.21628891347E+02  0.43053896748E+02  0.00000000000E+00 0.  1.
</event>
<event>
 7    1  0.2707915E-015  0.9000773E+02  0.7816164E-02  0.1186339E+00
        -11   -1    0    0    0    0  0.00000000000E+00  0.00000000000E+00  0.45593999997E+02  0.45594000000E+02  0.51100000000E-03 0. -1.
         11   -1    0    0    0    0 -0.00000000000E+00 -0.00000000000E+00 -0.45593999997E+02  0.45594000000E+02  0.51100000000E-03 0.  1.
    9900012    2    1    2    0    0  0.47806179735E+00 -0.10789768590E+01 -0.17433264196E-01  0.90007729665E+02  0.89999990897E+02 0.  0.
         12    1    1    2    0    0 -0.47806179735E+00  0.10789768590E+01  0.17433264196E-01  0.11802703347E+01  0.00000000000E+00 0. -1.
         11    1    3    3    0    0 -0.22460080449E+02  0.18670217711E+02  0.21973308474E+02  0.36549398473E+02  0.51100000000E-03 0. -1.
        -11    1    3    3    0    0 -0.10707808563E+01  0.62186703953E+00  0.91145808385E+01  0.91983082347E+01  0.51100000000E-03 0.  1.
        -12    1    3    3    0    0  0.24008923102E+02 -0.20371061609E+02 -0.31105322577E+02  0.44260022958E+02  0.00000000000E+00 0.  1.
</event>
<event>
 7    1  0.2569312E-015  0.9000772E+02  0.7816164E-02  0.1186339E+00
        -11   -1    0    0    0    0  0.00000000000E+00  0.00000000000E+00  0.45593999997E+02  0.45594000000E+02  0.51100000000E-03 0. -1.
         11   -1    0    0    0    0 -0.00000000000E+00 -0.00000000000E+00 -0.45593999997E+02  0.45594000000E+02  0.51100000000E-03 0.  1.
    9900012    2    1    2    0    0  0.48701009557E-01 -0.11166566855E+01 -0.37915767254E+00  0.90007722710E+02  0.89999983849E+02 0.  0.
         12    1    1    2    0    0 -0.48701009557E-01  0.11166566855E+01  0.37915767254E+00  0.11802772904E+01  0.00000000000E+00 0. -1.
         11    1    3    3    0    0 -0.23194029634E+01 -0.10688756434E+02  0.90282894926E+01  0.14182353671E+02  0.51100000000E-03 0. -1.
        -11    1    3    3    0    0  0.34247820824E+02 -0.92863931057E+01  0.54806594034E+01  0.35905263623E+02  0.51100000000E-03 0.  1.
         12    1    3    3    0    0 -0.31879716851E+02  0.18858492855E+02 -0.14888106568E+02  0.39920105416E+02  0.00000000000E+00 0. -1.
</event>
<event>
 7    1  0.2569312E-015  0.9000775E+02  0.7816164E-02  0.1186339E+00
        -11   -1    0    0    0    0  0.00000000000E+00  0.00000000000E+00  0.45593999997E+02  0.45594000000E+02  0.51100000000E-03 0. -1.
         11   -1    0    0    0    0 -0.00000000000E+00 -0.00000000000E+00 -0.45593999997E+02  0.45594000000E+02  0.51100000000E-03 0.  1.
    9900012    2    1    2    0    0  0.11657210077E+01 -0.64454182059E-01 -0.17302823878E+00  0.90007746391E+02  0.90000007844E+02 0.  0.
         12    1    1    2    0    0 -0.11657210077E+01  0.64454182059E-01  0.17302823878E+00  0.11802536086E+01  0.00000000000E+00 0. -1.
         11    1    3    3    0    0  0.75776267749E+01  0.48668237776E+01 -0.61372241348E+01  0.10898253143E+02  0.51100000000E-03 0. -1.
        -11    1    3    3    0    0  0.21935275231E+02  0.17012587207E+02 -0.20535875498E+02  0.34529793015E+02  0.51100000000E-03 0.  1.
         12    1    3    3    0    0 -0.28347180998E+02 -0.21943865167E+02  0.26500071394E+02  0.44579700233E+02  0.00000000000E+00 0. -1.
</event>
<event>
 7    1  0.2569312E-015  0.9000783E+02  0.7816164E-02  0.1186339E+00
        -11   -1    0    0    0    0  0.00000000000E+00  0.00000000000E+00  0.45593999997E+02  0.45594000000E+02  0.51100000000E-03 0. -1.
         11   -1    0    0    0    0 -0.00000000000E+00 -0.00000000000E+00 -0.45593999997E+02  0.45594000000E+02  0.51100000000E-03 0.  1.
    9900012    2    1    2    0    0  0.73175276640E+00 -0.92564285734E+00  0.23114817594E-01  0.90007825816E+02  0.90000088316E+02 0.  0.
         12    1    1    2    0    0 -0.73175276640E+00  0.92564285734E+00 -0.23114817594E-01  0.11801741843E+01  0.00000000000E+00 0. -1.
         11    1    3    3    0    0 -0.50540169160E+01  0.99250927646E+01 -0.29570950480E+01  0.11523669761E+02  0.51100000000E-03 0. -1.
        -11    1    3    3    0    0  0.29577287927E+02  0.17796774469E+02  0.17270048465E+02  0.38597871921E+02  0.51100000000E-03 0.  1.
         12    1    3    3    0    0 -0.23791518244E+02 -0.28647510091E+02 -0.14289838600E+02  0.39886284134E+02  0.00000000000E+00 0. -1.
</event>
<event>
 7    1  0.2569312E-015  0.9000772E+02  0.7816164E-02  0.1186339E+00
        -11   -1    0    0    0    0  0.00000000000E+00  0.00000000000E+00  0.45593999997E+02  0.45594000000E+02  0.51100000000E-03 0.  1.
         11   -1    0    0    0    0 -0.00000000000E+00 -0.00000000000E+00 -0.45593999997E+02  0.45594000000E+02  0.51100000000E-03 0. -1.
    9900012    2    1    2    0    0 -0.10570828778E+01 -0.23865014717E+00  0.46763142626E+00  0.90007721535E+02  0.89999982660E+02 0.  0.
         12    1    1    2    0    0  0.10570828778E+01  0.23865014717E+00 -0.46763142626E+00  0.11802784647E+01  0.00000000000E+00 0. -1.
         11    1    3    3    0    0  0.27947068772E+01 -0.79151124521E+01 -0.54389665745E+01  0.10002087248E+02  0.51100000000E-03 0. -1.
        -11    1    3    3    0    0 -0.35773019657E+02 -0.82375036774E+01 -0.13845598758E+02  0.39233480695E+02  0.51100000000E-03 0.  1.
         12    1    3    3    0    0  0.31921229902E+02  0.15913965982E+02  0.19752196759E+02  0.40772153592E+02  0.00000000000E+00 0. -1.
</event>
<event>
 7    1  0.2569312E-015  0.9000770E+02  0.7816164E-02  0.1186339E+00
        -11   -1    0    0    0    0  0.00000000000E+00  0.00000000000E+00  0.45593999997E+02  0.45594000000E+02  0.51100000000E-03 0.  1.
         11   -1    0    0    0    0 -0.00000000000E+00 -0.00000000000E+00 -0.45593999997E+02  0.45594000000E+02  0.51100000000E-03 0. -1.
    9900012    2    1    2    0    0  0.11737991064E+01  0.82457516284E-01 -0.92158524028E-01  0.90007704792E+02  0.89999965695E+02 0.  0.
         12    1    1    2    0    0 -0.11737991064E+01 -0.82457516284E-01  0.92158524028E-01  0.11802952079E+01  0.00000000000E+00 0. -1.
         11    1    3    3    0    0 -0.26589977786E+02  0.21317197329E+02 -0.14205670870E+02  0.36922227801E+02  0.51100000000E-03 0. -1.
        -11    1    3    3    0    0 -0.36831078755E+01  0.75161369460E+01  0.40783798946E+01  0.93107884220E+01  0.51100000000E-03 0.  1.
        -12    1    3    3    0    0  0.31446884768E+02 -0.28750876759E+02  0.10035132452E+02  0.43774688569E+02  0.00000000000E+00 0.  1.
</event>
<event>
 7    1  0.2569312E-015  0.9000775E+02  0.7816164E-02  0.1186339E+00
        -11   -1    0    0    0    0  0.00000000000E+00  0.00000000000E+00  0.45593999997E+02  0.45594000000E+02  0.51100000000E-03 0.  1.
         11   -1    0    0    0    0 -0.00000000000E+00 -0.00000000000E+00 -0.45593999997E+02  0.45594000000E+02  0.51100000000E-03 0. -1.
    9900012    2    1    2    0    0 -0.69397880730E+00 -0.86151848220E+00  0.41128941831E+00  0.90007754404E+02  0.90000015963E+02 0.  0.
         12    1    1    2    0    0  0.69397880730E+00  0.86151848220E+00 -0.41128941831E+00  0.11802455955E+01  0.00000000000E+00 0. -1.
         11    1    3    3    0    0 -0.19173320125E+02  0.26132415000E+01 -0.33843185789E+02  0.38984695206E+02  0.51100000000E-03 0. -1.
        -11    1    3    3    0    0  0.10777554519E+02  0.48974014223E+00 -0.42206504122E+01  0.11584878807E+02  0.51100000000E-03 0.  1.
        -12    1    3    3    0    0  0.77017867987E+01 -0.39645001245E+01  0.38475125619E+02  0.39438180391E+02  0.00000000000E+00 0.  1.
</event>
<event>
 7    1  0.2569312E-015  0.9000775E+02  0.7816164E-02  0.1186339E+00
        -11   -1    0    0    0    0  0.00000000000E+00  0.00000000000E+00  0.45593999997E+02  0.45594000000E+02  0.51100000000E-03 0.  1.
         11   -1    0    0    0    0 -0.00000000000E+00 -0.00000000000E+00 -0.45593999997E+02  0.45594000000E+02  0.51100000000E-03 0. -1.
    9900012    2    1    2    0    0  0.96042420460E+00 -0.44457348523E+00 -0.52242158689E+00  0.90007752335E+02  0.90000013866E+02 0.  0.
         12    1    1    2    0    0 -0.96042420460E+00  0.44457348523E+00  0.52242158689E+00  0.11802476651E+01  0.00000000000E+00 0. -1.
         11    1    3    3    0    0  0.68081549110E+01 -0.51316240485E+01  0.76203910407E+01  0.11434810822E+02  0.51100000000E-03 0. -1.
        -11    1    3    3    0    0  0.21948628057E+02  0.13691994781E+02  0.23892192892E+02  0.35214341910E+02  0.51100000000E-03 0.  1.
         12    1    3    3    0    0 -0.27796358764E+02 -0.90049442179E+01 -0.32035005519E+02  0.43358599603E+02  0.00000000000E+00 0. -1.
</event>
<event>
 7    1  0.2569312E-015  0.9000779E+02  0.7816164E-02  0.1186339E+00
        -11   -1    0    0    0    0  0.00000000000E+00  0.00000000000E+00  0.45593999997E+02  0.45594000000E+02  0.51100000000E-03 0. -1.
         11   -1    0    0    0    0 -0.00000000000E+00 -0.00000000000E+00 -0.45593999997E+02  0.45594000000E+02  0.51100000000E-03 0.  1.
    9900012    2    1    2    0    0  0.60309002793E+00  0.96475370063E+00  0.31373030152E+00  0.90007790702E+02  0.90000052739E+02 0.  0.
         12    1    1    2    0    0 -0.60309002793E+00 -0.96475370063E+00 -0.31373030152E+00  0.11802092979E+01  0.00000000000E+00 0. -1.
         11    1    3    3    0    0 -0.78573226224E+01 -0.43197851789E+01  0.88170862283E+01  0.12575335884E+02  0.51100000000E-03 0. -1.
        -11    1    3    3    0    0 -0.29414954463E+02 -0.11507019219E+02 -0.15875750609E+02  0.35350961727E+02  0.51100000000E-03 0.  1.
         12    1    3    3    0    0  0.37875367113E+02  0.16791558099E+02  0.73723946826E+01  0.42081493090E+02  0.00000000000E+00 0. -1.
</event>
<event>
 7    1  0.2569312E-015  0.9000780E+02  0.7816164E-02  0.1186339E+00
        -11   -1    0    0    0    0  0.00000000000E+00  0.00000000000E+00  0.45593999997E+02  0.45594000000E+02  0.51100000000E-03 0.  1.
         11   -1    0    0    0    0 -0.00000000000E+00 -0.00000000000E+00 -0.45593999997E+02  0.45594000000E+02  0.51100000000E-03 0. -1.
    9900012    2    1    2    0    0 -0.73648398357E-02 -0.45800986516E+00  0.10876781753E+01  0.90007800402E+02  0.90000062568E+02 0.  0.
         12    1    1    2    0    0  0.73648398357E-02  0.45800986516E+00 -0.10876781753E+01  0.11801995977E+01  0.00000000000E+00 0. -1.
         11    1    3    3    0    0  0.14114559308E+02  0.19462873087E+02 -0.19782013467E+02  0.31134422595E+02  0.51100000000E-03 0. -1.
        -11    1    3    3    0    0  0.13987137711E+01  0.80872540756E+01 -0.10980923197E+02  0.13709148523E+02  0.51100000000E-03 0.  1.
        -12    1    3    3    0    0 -0.15520637919E+02 -0.28008137028E+02  0.31850614840E+02  0.45164229284E+02  0.00000000000E+00 0.  1.
</event>
<event>
 7    1  0.2569312E-015  0.9000772E+02  0.7816164E-02  0.1186339E+00
        -11   -1    0    0    0    0  0.00000000000E+00  0.00000000000E+00  0.45593999997E+02  0.45594000000E+02  0.51100000000E-03 0. -1.
         11   -1    0    0    0    0 -0.00000000000E+00 -0.00000000000E+00 -0.45593999997E+02  0.45594000000E+02  0.51100000000E-03 0.  1.
    9900012    2    1    2    0    0 -0.87522082492E+00  0.64552613067E+00 -0.45862311371E+00  0.90007724338E+02  0.89999985499E+02 0.  0.
         12    1    1    2    0    0  0.87522082492E+00 -0.64552613067E+00  0.45862311371E+00  0.11802756619E+01  0.00000000000E+00 0. -1.
         11    1    3    3    0    0 -0.70166839147E+01  0.16736685430E+01  0.89921577962E+01  0.11527962597E+02  0.51100000000E-03 0. -1.
        -11    1    3    3    0    0  0.58567656992E+01 -0.37116874122E+02  0.79595228647E+01  0.38409869221E+02  0.51100000000E-03 0.  1.
         12    1    3    3    0    0  0.28469739067E+00  0.36088731710E+02 -0.17410303775E+02  0.40069892520E+02  0.00000000000E+00 0. -1.
</event>
<event>
 7    1  0.2569312E-015  0.9000775E+02  0.7816164E-02  0.1186339E+00
        -11   -1    0    0    0    0  0.00000000000E+00  0.00000000000E+00  0.45593999997E+02  0.45594000000E+02  0.51100000000E-03 0.  1.
         11   -1    0    0    0    0 -0.00000000000E+00 -0.00000000000E+00 -0.45593999997E+02  0.45594000000E+02  0.51100000000E-03 0. -1.
    9900012    2    1    2    0    0  0.22772536440E+00 -0.12445142381E+00  0.11513618822E+01  0.90007753762E+02  0.90000015312E+02 0.  0.
         12    1    1    2    0    0 -0.22772536440E+00  0.12445142381E+00 -0.11513618822E+01  0.11802462379E+01  0.00000000000E+00 0. -1.
         11    1    3    3    0    0  0.80121880567E+01  0.69754683999E+01 -0.87074290996E+01  0.13735779506E+02  0.51100000000E-03 0. -1.
        -11    1    3    3    0    0  0.16768660711E+02  0.14966389913E+02  0.30087141174E+02  0.37555517216E+02  0.51100000000E-03 0.  1.
         12    1    3    3    0    0 -0.24553123403E+02 -0.22066309737E+02 -0.20228350192E+02  0.38716457040E+02  0.00000000000E+00 0. -1.
</event>
<event>
 7    1  0.2569312E-015  0.9000774E+02  0.7816164E-02  0.1186339E+00
        -11   -1    0    0    0    0  0.00000000000E+00  0.00000000000E+00  0.45593999997E+02  0.45594000000E+02  0.51100000000E-03 0.  1.
         11   -1    0    0    0    0 -0.00000000000E+00 -0.00000000000E+00 -0.45593999997E+02  0.45594000000E+02  0.51100000000E-03 0. -1.
    9900012    2    1    2    0    0 -0.48483041476E+00 -0.20749313576E+00 -0.10558887043E+01  0.90007739483E+02  0.90000000844E+02 0.  0.
         12    1    1    2    0    0  0.48483041476E+00  0.20749313576E+00  0.10558887043E+01  0.11802605172E+01  0.00000000000E+00 0. -1.
         11    1    3    3    0    0 -0.36286251432E+01 -0.71297954840E+00  0.60962766179E+01  0.71302068083E+01  0.51100000000E-03 0. -1.
        -11    1    3    3    0    0 -0.15581093627E+02  0.34344727935E+01  0.34007324775E+02  0.37564134764E+02  0.51100000000E-03 0.  1.
         12    1    3    3    0    0  0.18724888355E+02 -0.29289863808E+01 -0.41159490097E+02  0.45313397910E+02  0.00000000000E+00 0. -1.
</event>
<event>
 7    1  0.2569312E-015  0.9000779E+02  0.7816164E-02  0.1186339E+00
        -11   -1    0    0    0    0  0.00000000000E+00  0.00000000000E+00  0.45593999997E+02  0.45594000000E+02  0.51100000000E-03 0.  1.
         11   -1    0    0    0    0 -0.00000000000E+00 -0.00000000000E+00 -0.45593999997E+02  0.45594000000E+02  0.51100000000E-03 0. -1.
    9900012    2    1    2    0    0 -0.85423247061E+00  0.78905571227E+00  0.20145604817E+00  0.90007785371E+02  0.90000047338E+02 0.  0.
         12    1    1    2    0    0  0.85423247061E+00 -0.78905571227E+00 -0.20145604817E+00  0.11802146289E+01  0.00000000000E+00 0. -1.
         11    1    3    3    0    0 -0.15815622577E+02  0.63255746493E+01 -0.35163389908E+02  0.39071867146E+02  0.51100000000E-03 0. -1.
        -11    1    3    3    0    0  0.38222507496E+00 -0.98602710865E+01 -0.24591539735E+01  0.10169487717E+02  0.51100000000E-03 0.  1.
        -12    1    3    3    0    0  0.14579165032E+02  0.43237521496E+01  0.37823999930E+02  0.40766430508E+02  0.00000000000E+00 0.  1.
</event>
<event>
 7    1  0.2569312E-015  0.9000772E+02  0.7816164E-02  0.1186339E+00
        -11   -1    0    0    0    0  0.00000000000E+00  0.00000000000E+00  0.45593999997E+02  0.45594000000E+02  0.51100000000E-03 0. -1.
         11   -1    0    0    0    0 -0.00000000000E+00 -0.00000000000E+00 -0.45593999997E+02  0.45594000000E+02  0.51100000000E-03 0.  1.
    9900012    2    1    2    0    0  0.17419856426E+00  0.92901636898E+00 -0.70685316173E+00  0.90007721242E+02  0.89999982363E+02 0.  0.
         12    1    1    2    0    0 -0.17419856426E+00 -0.92901636898E+00  0.70685316173E+00  0.11802787577E+01  0.00000000000E+00 0. -1.
         11    1    3    3    0    0  0.17139532655E+02  0.35174415819E+02  0.21906055384E+01  0.39189307989E+02  0.51100000000E-03 0. -1.
        -11    1    3    3    0    0  0.41259781534E+01  0.93604019847E+00  0.74020863349E+01  0.85258870123E+01  0.51100000000E-03 0.  1.
        -12    1    3    3    0    0 -0.21091312244E+02 -0.35181439648E+02 -0.10299545035E+02  0.42292526241E+02  0.00000000000E+00 0.  1.
</event>
<event>
 7    1  0.2569312E-015  0.9000773E+02  0.7816164E-02  0.1186339E+00
        -11   -1    0    0    0    0  0.00000000000E+00  0.00000000000E+00  0.45593999997E+02  0.45594000000E+02  0.51100000000E-03 0.  1.
         11   -1    0    0    0    0 -0.00000000000E+00 -0.00000000000E+00 -0.45593999997E+02  0.45594000000E+02  0.51100000000E-03 0. -1.
    9900012    2    1    2    0    0 -0.83420133719E+00 -0.63049284412E+00  0.54738379185E+00  0.90007727950E+02  0.89999989159E+02 0.  0.
         12    1    1    2    0    0  0.83420133719E+00  0.63049284412E+00 -0.54738379185E+00  0.11802720504E+01  0.00000000000E+00 0. -1.
         11    1    3    3    0    0  0.90798544823E+01 -0.28515232928E+01 -0.70177015399E+01  0.11824680870E+02  0.51100000000E-03 0. -1.
        -11    1    3    3    0    0 -0.18612735293E+02 -0.33564055929E+02 -0.61812569312E+01  0.38873997775E+02  0.51100000000E-03 0.  1.
         12    1    3    3    0    0  0.86986794732E+01  0.35785086378E+02  0.13746342263E+02  0.39309049305E+02  0.00000000000E+00 0. -1.
</event>
<event>
 7    1  0.2569312E-015  0.9000787E+02  0.7816164E-02  0.1186339E+00
        -11   -1    0    0    0    0  0.00000000000E+00  0.00000000000E+00  0.45593999997E+02  0.45594000000E+02  0.51100000000E-03 0. -1.
         11   -1    0    0    0    0 -0.00000000000E+00 -0.00000000000E+00 -0.45593999997E+02  0.45594000000E+02  0.51100000000E-03 0.  1.
    9900012    2    1    2    0    0  0.89666065742E-02 -0.77271253932E+00 -0.89193093326E+00  0.90007870406E+02  0.90000133495E+02 0.  0.
         12    1    1    2    0    0 -0.89666065742E-02  0.77271253932E+00  0.89193093326E+00  0.11801295938E+01  0.00000000000E+00 0. -1.
         11    1    3    3    0    0 -0.76301157127E+01 -0.31548864182E+01  0.38271726993E+02  0.39152229328E+02  0.51100000000E-03 0. -1.
        -11    1    3    3    0    0 -0.10718465014E+02 -0.55679471838E+01 -0.11193128648E+02  0.16467351253E+02  0.51100000000E-03 0.  1.
        -12    1    3    3    0    0  0.18357547333E+02  0.79501210627E+01 -0.27970529278E+02  0.34388289825E+02  0.00000000000E+00 0.  1.
</event>
<event>
 7    1  0.2569312E-015  0.9000778E+02  0.7816164E-02  0.1186339E+00
        -11   -1    0    0    0    0  0.00000000000E+00  0.00000000000E+00  0.45593999997E+02  0.45594000000E+02  0.51100000000E-03 0.  1.
         11   -1    0    0    0    0 -0.00000000000E+00 -0.00000000000E+00 -0.45593999997E+02  0.45594000000E+02  0.51100000000E-03 0. -1.
    9900012    2    1    2    0    0 -0.50766285478E+00  0.28226956597E+00  0.10273893488E+01  0.90007776904E+02  0.90000038759E+02 0.  0.
         12    1    1    2    0    0  0.50766285478E+00 -0.28226956597E+00 -0.10273893488E+01  0.11802230959E+01  0.00000000000E+00 0. -1.
         11    1    3    3    0    0  0.55644471664E+01 -0.21076050320E+01 -0.71383537396E+01  0.92930708386E+01  0.51100000000E-03 0. -1.
        -11    1    3    3    0    0 -0.14779248299E+02 -0.27858251814E+02  0.29101556591E+02  0.42911641435E+02  0.51100000000E-03 0.  1.
         12    1    3    3    0    0  0.87071382781E+01  0.30248126412E+02 -0.20935813503E+02  0.37803064630E+02  0.00000000000E+00 0. -1.
</event>
<event>
 7    1  0.4784208E-015  0.9000784E+02  0.7816164E-02  0.1186339E+00
        -11   -1    0    0    0    0  0.00000000000E+00  0.00000000000E+00  0.45593999997E+02  0.45594000000E+02  0.51100000000E-03 0.  1.
         11   -1    0    0    0    0 -0.00000000000E+00 -0.00000000000E+00 -0.45593999997E+02  0.45594000000E+02  0.51100000000E-03 0. -1.
    9900012    2    1    2    0    0 -0.66308680734E+00  0.64970942770E+00  0.72868224932E+00  0.90007837183E+02  0.90000099834E+02 0.  0.
         12    1    1    2    0    0  0.66308680734E+00 -0.64970942770E+00 -0.72868224932E+00  0.11801628172E+01  0.00000000000E+00 0. -1.
         11    1    3    3    0    0  0.15493234200E+02  0.21612402409E+02 -0.25194621484E+02  0.36632024184E+02  0.51100000000E-03 0. -1.
        -11    1    3    3    0    0 -0.33509611111E+01  0.21303279617E+01 -0.88575732283E+01  0.97068965869E+01  0.51100000000E-03 0.  1.
        -12    1    3    3    0    0 -0.12805359896E+02 -0.23093020943E+02  0.34780876961E+02  0.43668916412E+02  0.00000000000E+00 0.  1.
</event>
<event>
 7    1  0.2569312E-015  0.9000773E+02  0.7816164E-02  0.1186339E+00
        -11   -1    0    0    0    0  0.00000000000E+00  0.00000000000E+00  0.45593999997E+02  0.45594000000E+02  0.51100000000E-03 0. -1.
         11   -1    0    0    0    0 -0.00000000000E+00 -0.00000000000E+00 -0.45593999997E+02  0.45594000000E+02  0.51100000000E-03 0.  1.
    9900012    2    1    2    0    0  0.70313478675E+00 -0.60364473232E+00 -0.73092712613E+00  0.90007728864E+02  0.89999990085E+02 0.  0.
         12    1    1    2    0    0 -0.70313478675E+00  0.60364473232E+00  0.73092712613E+00  0.11802711362E+01  0.00000000000E+00 0. -1.
         11    1    3    3    0    0  0.34141296148E+00 -0.41333376502E+02 -0.22044110383E+01  0.41393526114E+02  0.51100000000E-03 0. -1.
        -11    1    3    3    0    0 -0.52776286679E+01  0.40927286397E+01 -0.79338679075E+01  0.10370634132E+02  0.51100000000E-03 0.  1.
        -12    1    3    3    0    0  0.56393504932E+01  0.36637003130E+02  0.94073518196E+01  0.38243568617E+02  0.00000000000E+00 0.  1.
</event>
<event>
 7    1  0.2569312E-015  0.9000780E+02  0.7816164E-02  0.1186339E+00
        -11   -1    0    0    0    0  0.00000000000E+00  0.00000000000E+00  0.45593999997E+02  0.45594000000E+02  0.51100000000E-03 0.  1.
         11   -1    0    0    0    0 -0.00000000000E+00 -0.00000000000E+00 -0.45593999997E+02  0.45594000000E+02  0.51100000000E-03 0. -1.
    9900012    2    1    2    0    0  0.98525260833E+00 -0.45515302421E+00  0.46366812704E+00  0.90007798700E+02  0.90000060842E+02 0.  0.
         12    1    1    2    0    0 -0.98525260833E+00  0.45515302421E+00 -0.46366812704E+00  0.11802013005E+01  0.00000000000E+00 0. -1.
         11    1    3    3    0    0 -0.51842295750E+01 -0.16870406158E+01  0.15239722653E+02  0.16185533329E+02  0.51100000000E-03 0. -1.
        -11    1    3    3    0    0 -0.19941357111E+02 -0.26956203970E+01  0.21178305926E+02  0.29213776457E+02  0.51100000000E-03 0.  1.
         12    1    3    3    0    0  0.26110839294E+02  0.39275079886E+01 -0.35954360452E+02  0.44608488914E+02  0.00000000000E+00 0. -1.
</event>
<event>
 7    1  0.2569312E-015  0.9000778E+02  0.7816164E-02  0.1186339E+00
        -11   -1    0    0    0    0  0.00000000000E+00  0.00000000000E+00  0.45593999997E+02  0.45594000000E+02  0.51100000000E-03 0.  1.
         11   -1    0    0    0    0 -0.00000000000E+00 -0.00000000000E+00 -0.45593999997E+02  0.45594000000E+02  0.51100000000E-03 0. -1.
    9900012    2    1    2    0    0 -0.75618856440E+00  0.48762786075E+00  0.76375532078E+00  0.90007777874E+02  0.90000039742E+02 0.  0.
         12    1    1    2    0    0  0.75618856440E+00 -0.48762786075E+00 -0.76375532078E+00  0.11802221255E+01  0.00000000000E+00 0. -1.
         11    1    3    3    0    0 -0.49185778943E+01  0.10243869716E+02 -0.11975583191E+01  0.11426435203E+02  0.51100000000E-03 0. -1.
        -11    1    3    3    0    0 -0.32788038003E+02  0.11505263495E+02 -0.58608601674E+01  0.35238845133E+02  0.51100000000E-03 0.  1.
         12    1    3    3    0    0  0.36950427333E+02 -0.21261505350E+02  0.78221738073E+01  0.43342497539E+02  0.00000000000E+00 0. -1.
</event>
<event>
 7    1  0.2569312E-015  0.9000760E+02  0.7816164E-02  0.1186339E+00
        -11   -1    0    0    0    0  0.00000000000E+00  0.00000000000E+00  0.45593999997E+02  0.45594000000E+02  0.51100000000E-03 0. -1.
         11   -1    0    0    0    0 -0.00000000000E+00 -0.00000000000E+00 -0.45593999997E+02  0.45594000000E+02  0.51100000000E-03 0.  1.
    9900012    2    1    2    0    0 -0.67992072246E+00  0.19065305642E-01  0.96472480879E+00  0.90007597682E+02  0.89999857172E+02 0.  0.
         12    1    1    2    0    0  0.67992072246E+00 -0.19065305642E-01 -0.96472480879E+00  0.11804023176E+01  0.00000000000E+00 0. -1.
         11    1    3    3    0    0 -0.77636862155E+01 -0.26874764959E+01  0.37933383846E+01  0.90491308936E+01  0.51100000000E-03 0. -1.
        -11    1    3    3    0    0  0.19338506461E+01 -0.12208521048E+02 -0.39311757207E+02  0.41209246772E+02  0.51100000000E-03 0.  1.
         12    1    3    3    0    0  0.51499148469E+01  0.14915062849E+02  0.36483143632E+02  0.39749220017E+02  0.00000000000E+00 0. -1.
</event>
<event>
 7    1  0.2569312E-015  0.9000786E+02  0.7816164E-02  0.1186339E+00
        -11   -1    0    0    0    0  0.00000000000E+00  0.00000000000E+00  0.45593999997E+02  0.45594000000E+02  0.51100000000E-03 0.  1.
         11   -1    0    0    0    0 -0.00000000000E+00 -0.00000000000E+00 -0.45593999997E+02  0.45594000000E+02  0.51100000000E-03 0. -1.
    9900012    2    1    2    0    0 -0.62281475666E+00 -0.99407466112E+00  0.12904391614E+00  0.90007858066E+02  0.90000120992E+02 0.  0.
         12    1    1    2    0    0  0.62281475666E+00  0.99407466112E+00 -0.12904391614E+00  0.11801419344E+01  0.00000000000E+00 0. -1.
         11    1    3    3    0    0  0.77384245621E+01 -0.19540843728E+01  0.37245729659E+01  0.88076162768E+01  0.51100000000E-03 0. -1.
        -11    1    3    3    0    0  0.35942733837E+02 -0.22465497400E+00  0.42416017351E+01  0.36192841434E+02  0.51100000000E-03 0.  1.
         12    1    3    3    0    0 -0.44303973155E+02  0.11846646857E+01 -0.78371307848E+01  0.45007400355E+02  0.00000000000E+00 0. -1.
</event>
<event>
 7    1  0.2569312E-015  0.9000770E+02  0.7816164E-02  0.1186339E+00
        -11   -1    0    0    0    0  0.00000000000E+00  0.00000000000E+00  0.45593999997E+02  0.45594000000E+02  0.51100000000E-03 0.  1.
         11   -1    0    0    0    0 -0.00000000000E+00 -0.00000000000E+00 -0.45593999997E+02  0.45594000000E+02  0.51100000000E-03 0. -1.
    9900012    2    1    2    0    0 -0.53634046832E+00  0.75079984313E+00  0.73603467167E+00  0.90007699809E+02  0.89999960647E+02 0.  0.
         12    1    1    2    0    0  0.53634046832E+00 -0.75079984313E+00 -0.73603467167E+00  0.11803001908E+01  0.00000000000E+00 0. -1.
         11    1    3    3    0    0 -0.65347162755E+01 -0.94551442218E+01  0.17795365896E+01  0.11630521046E+02  0.51100000000E-03 0. -1.
        -11    1    3    3    0    0 -0.20258359204E+02  0.49337774066E+01  0.30533102464E+02  0.36973147330E+02  0.51100000000E-03 0.  1.
         12    1    3    3    0    0  0.26256735011E+02  0.52721666584E+01 -0.31576604382E+02  0.41404031434E+02  0.00000000000E+00 0. -1.
</event>
<event>
 7    1  0.2569312E-015  0.9000761E+02  0.7816164E-02  0.1186339E+00
        -11   -1    0    0    0    0  0.00000000000E+00  0.00000000000E+00  0.45593999997E+02  0.45594000000E+02  0.51100000000E-03 0. -1.
         11   -1    0    0    0    0 -0.00000000000E+00 -0.00000000000E+00 -0.45593999997E+02  0.45594000000E+02  0.51100000000E-03 0.  1.
    9900012    2    1    2    0    0  0.15729707806E+00 -0.58583788196E+00 -0.10126084348E+01  0.90007608439E+02  0.89999868070E+02 0.  0.
         12    1    1    2    0    0 -0.15729707806E+00  0.58583788196E+00  0.10126084348E+01  0.11803915609E+01  0.00000000000E+00 0. -1.
         11    1    3    3    0    0 -0.12023107158E+02 -0.68529037293E+01  0.17175928383E+02  0.22057423043E+02  0.51100000000E-03 0. -1.
        -11    1    3    3    0    0  0.12018121906E+02 -0.28190410961E+02 -0.49790838245E+01  0.31047154464E+02  0.51100000000E-03 0.  1.
        -12    1    3    3    0    0  0.16228232941E+00  0.34457476809E+02 -0.13209452993E+02  0.36903030932E+02  0.00000000000E+00 0.  1.
</event>
<event>
 7    1  0.2569312E-015  0.9000773E+02  0.7816164E-02  0.1186339E+00
        -11   -1    0    0    0    0  0.00000000000E+00  0.00000000000E+00  0.45593999997E+02  0.45594000000E+02  0.51100000000E-03 0.  1.
         11   -1    0    0    0    0 -0.00000000000E+00 -0.00000000000E+00 -0.45593999997E+02  0.45594000000E+02  0.51100000000E-03 0. -1.
    9900012    2    1    2    0    0  0.73630813962E+00 -0.85199079837E-01 -0.91849174761E+00  0.90007730687E+02  0.89999991933E+02 0.  0.
         12    1    1    2    0    0 -0.73630813962E+00  0.85199079837E-01  0.91849174761E+00  0.11802693125E+01  0.00000000000E+00 0. -1.
         11    1    3    3    0    0  0.16503646631E+02 -0.66209881493E+01 -0.32658317462E+02  0.37185663042E+02  0.51100000000E-03 0. -1.
        -11    1    3    3    0    0 -0.11782096558E+01  0.40993532472E+01 -0.87396247708E+01  0.97249121556E+01  0.51100000000E-03 0.  1.
        -12    1    3    3    0    0 -0.14589128835E+02  0.24364358222E+01  0.40479450485E+02  0.43097155489E+02  0.00000000000E+00 0.  1.
</event>
<event>
 7    1  0.2569312E-015  0.9000769E+02  0.7816164E-02  0.1186339E+00
        -11   -1    0    0    0    0  0.00000000000E+00  0.00000000000E+00  0.45593999997E+02  0.45594000000E+02  0.51100000000E-03 0.  1.
         11   -1    0    0    0    0 -0.00000000000E+00 -0.00000000000E+00 -0.45593999997E+02  0.45594000000E+02  0.51100000000E-03 0. -1.
    9900012    2    1    2    0    0  0.16557304720E+00 -0.11202439969E+01 -0.33281839034E+00  0.90007691088E+02  0.89999951810E+02 0.  0.
         12    1    1    2    0    0 -0.16557304720E+00  0.11202439969E+01  0.33281839034E+00  0.11803089119E+01  0.00000000000E+00 0. -1.
         11    1    3    3    0    0  0.28565717958E-01 -0.54930302655E+01 -0.64468565642E+01  0.84697200259E+01  0.51100000000E-03 0. -1.
        -11    1    3    3    0    0 -0.54398546410E+01  0.29768098550E+02 -0.26224613575E+02  0.40043252456E+02  0.51100000000E-03 0.  1.
         12    1    3    3    0    0  0.55768619703E+01 -0.25395312282E+02  0.32338651748E+02  0.41494718607E+02  0.00000000000E+00 0. -1.
</event>
<event>
 7    1  0.2569312E-015  0.9000676E+02  0.7816164E-02  0.1186341E+00
        -11   -1    0    0    0    0  0.00000000000E+00  0.00000000000E+00  0.45593999997E+02  0.45594000000E+02  0.51100000000E-03 0. -1.
         11   -1    0    0    0    0 -0.00000000000E+00 -0.00000000000E+00 -0.45593999997E+02  0.45594000000E+02  0.51100000000E-03 0.  1.
    9900012    2    1    2    0    0  0.98006292691E+00  0.40536195602E+00 -0.52008398867E+00  0.90006759545E+02  0.89999007966E+02 0.  0.
         12    1    1    2    0    0 -0.98006292691E+00 -0.40536195602E+00  0.52008398867E+00  0.11812404545E+01  0.00000000000E+00 0. -1.
         11    1    3    3    0    0  0.13583363548E+01 -0.26151585449E+01 -0.95201126287E+01  0.99657752629E+01  0.51100000000E-03 0. -1.
        -11    1    3    3    0    0 -0.73546101714E+01 -0.35075329415E+02  0.18257327919E+02  0.40220629624E+02  0.51100000000E-03 0.  1.
         12    1    3    3    0    0  0.69763367435E+01  0.38095849916E+02 -0.92572992791E+01  0.39820354658E+02  0.00000000000E+00 0. -1.
</event>
<event>
 7    1  0.2569312E-015  0.9000767E+02  0.7816164E-02  0.1186339E+00
        -11   -1    0    0    0    0  0.00000000000E+00  0.00000000000E+00  0.45593999997E+02  0.45594000000E+02  0.51100000000E-03 0. -1.
         11   -1    0    0    0    0 -0.00000000000E+00 -0.00000000000E+00 -0.45593999997E+02  0.45594000000E+02  0.51100000000E-03 0.  1.
    9900012    2    1    2    0    0  0.87482416398E+00 -0.79150763457E+00  0.37171272187E-01  0.90007668116E+02  0.89999928535E+02 0.  0.
         12    1    1    2    0    0 -0.87482416398E+00  0.79150763457E+00 -0.37171272187E-01  0.11803318842E+01  0.00000000000E+00 0. -1.
         11    1    3    3    0    0 -0.37975566502E+02  0.10759845130E+01 -0.11336874225E+02  0.39646262261E+02  0.51100000000E-03 0. -1.
        -11    1    3    3    0    0 -0.36159219222E+01  0.36614813104E+01  0.47960099414E+01  0.70344188355E+01  0.51100000000E-03 0.  1.
        -12    1    3    3    0    0  0.42466312588E+02 -0.55289734580E+01  0.65780355559E+01  0.43326987019E+02  0.00000000000E+00 0.  1.
</event>
<event>
 7    1  0.2569312E-015  0.9000829E+02  0.7816164E-02  0.1186338E+00
        -11   -1    0    0    0    0  0.00000000000E+00  0.00000000000E+00  0.45593999997E+02  0.45594000000E+02  0.51100000000E-03 0.  1.
         11   -1    0    0    0    0 -0.00000000000E+00 -0.00000000000E+00 -0.45593999997E+02  0.45594000000E+02  0.51100000000E-03 0. -1.
    9900012    2    1    2    0    0 -0.36190752224E+00 -0.10712509974E+01 -0.33638011982E+00  0.90008293537E+02  0.90000562210E+02 0.  0.
         12    1    1    2    0    0  0.36190752224E+00  0.10712509974E+01  0.33638011982E+00  0.11797064631E+01  0.00000000000E+00 0. -1.
         11    1    3    3    0    0  0.14715125109E+02  0.15262302571E+02 -0.32250096315E+02  0.38594578626E+02  0.51100000000E-03 0. -1.
        -11    1    3    3    0    0  0.61276745911E+01  0.62900485612E+01  0.38355908288E+01  0.95825291058E+01  0.51100000000E-03 0.  1.
        -12    1    3    3    0    0 -0.21204707223E+02 -0.22623602130E+02  0.28078125367E+02  0.41831185805E+02  0.00000000000E+00 0.  1.
</event>
<event>
 7    1  0.3142185E-015  0.9000777E+02  0.7816164E-02  0.1186339E+00
        -11   -1    0    0    0    0  0.00000000000E+00  0.00000000000E+00  0.45593999997E+02  0.45594000000E+02  0.51100000000E-03 0. -1.
         11   -1    0    0    0    0 -0.00000000000E+00 -0.00000000000E+00 -0.45593999997E+02  0.45594000000E+02  0.51100000000E-03 0.  1.
    9900012    2    1    2    0    0  0.15495340608E+00 -0.10086677135E+01 -0.59288646462E+00  0.90007773126E+02  0.90000034931E+02 0.  0.
         12    1    1    2    0    0 -0.15495340608E+00  0.10086677135E+01  0.59288646462E+00  0.11802268741E+01  0.00000000000E+00 0. -1.
         11    1    3    3    0    0  0.21479374696E+02  0.12009098307E+02  0.34353518614E+02  0.42258090597E+02  0.51100000000E-03 0. -1.
        -11    1    3    3    0    0  0.13859410777E+01  0.30063322061E+01 -0.95217064509E+01  0.10080761876E+02  0.51100000000E-03 0.  1.
        -12    1    3    3    0    0 -0.22710362368E+02 -0.16024098227E+02 -0.25424698627E+02  0.37668920653E+02  0.00000000000E+00 0.  1.
</event>
<event>
 7    1  0.2569312E-015  0.9000772E+02  0.7816164E-02  0.1186339E+00
        -11   -1    0    0    0    0  0.00000000000E+00  0.00000000000E+00  0.45593999997E+02  0.45594000000E+02  0.51100000000E-03 0.  1.
         11   -1    0    0    0    0 -0.00000000000E+00 -0.00000000000E+00 -0.45593999997E+02  0.45594000000E+02  0.51100000000E-03 0. -1.
    9900012    2    1    2    0    0  0.77168649291E+00  0.87475482995E+00  0.17993280168E+00  0.90007715344E+02  0.89999976387E+02 0.  0.
         12    1    1    2    0    0 -0.77168649291E+00 -0.87475482995E+00 -0.17993280168E+00  0.11802846559E+01  0.00000000000E+00 0. -1.
         11    1    3    3    0    0 -0.57601590455E+01 -0.49075323234E+01 -0.64987545446E+01  0.99748241401E+01  0.51100000000E-03 0. -1.
        -11    1    3    3    0    0 -0.21615549824E+01 -0.18355858784E+02  0.36367401577E+02  0.40794580147E+02  0.51100000000E-03 0.  1.
         12    1    3    3    0    0  0.86934005208E+01  0.24138145937E+02 -0.29688714231E+02  0.39238311057E+02  0.00000000000E+00 0. -1.
</event>
<event>
 7    1  0.2569312E-015  0.9000781E+02  0.7816164E-02  0.1186339E+00
        -11   -1    0    0    0    0  0.00000000000E+00  0.00000000000E+00  0.45593999997E+02  0.45594000000E+02  0.51100000000E-03 0.  1.
         11   -1    0    0    0    0 -0.00000000000E+00 -0.00000000000E+00 -0.45593999997E+02  0.45594000000E+02  0.51100000000E-03 0. -1.
    9900012    2    1    2    0    0 -0.43955618247E+00 -0.42694877892E+00 -0.10086429219E+01  0.90007807032E+02  0.90000069285E+02 0.  0.
         12    1    1    2    0    0  0.43955618247E+00  0.42694877892E+00  0.10086429219E+01  0.11801929678E+01  0.00000000000E+00 0. -1.
         11    1    3    3    0    0 -0.96429921766E+01 -0.26988417973E+02 -0.32175665348E+02  0.43088692759E+02  0.51100000000E-03 0. -1.
        -11    1    3    3    0    0  0.83511777992E+01  0.50414195079E+01  0.93418098334E+00  0.97995293591E+01  0.51100000000E-03 0.  1.
        -12    1    3    3    0    0  0.85225819492E+00  0.21520049686E+02  0.30232841443E+02  0.37119584915E+02  0.00000000000E+00 0.  1.
</event>
<event>
 8    1  0.2569312E-015  0.9000775E+02  0.7816164E-02  0.1186339E+00
        -11   -1    0    0    0    0  0.00000000000E+00  0.00000000000E+00  0.45593999997E+02  0.45594000000E+02  0.51100000000E-03 0. -1.
         11   -1    0    0    0    0 -0.00000000000E+00 -0.00000000000E+00 -0.45593999997E+02  0.45594000000E+02  0.51100000000E-03 0.  1.
    9900012    2    1    2    0    0 -0.16193248359E+00 -0.11020758767E+01  0.39013848606E+00  0.90007745195E+02  0.90000006631E+02 0.  0.
         23    2    3    3    0    0 -0.20668027846E+01  0.46907577113E+01  0.27801893400E+02  0.61925904811E+02  0.55096256937E+02 0.  0.
         12    1    1    2    0    0  0.16193248359E+00  0.11020758767E+01 -0.39013848606E+00  0.11802548053E+01  0.00000000000E+00 0. -1.
         11    1    4    4    0    0 -0.26028024358E+02  0.99254513873E+01  0.24652136113E+02  0.37198124313E+02  0.51100000000E-03 0. -1.
        -11    1    4    4    0    0  0.23961221573E+02 -0.52346936760E+01  0.31497572875E+01  0.24727780499E+02  0.51100000000E-03 0.  1.
        -12    1    3    3    0    0  0.19048703010E+01 -0.57928335880E+01 -0.27411754914E+02  0.28081840383E+02  0.00000000000E+00 0.  1.
</event>
<event>
 7    1  0.2569312E-015  0.9000776E+02  0.7816164E-02  0.1186339E+00
        -11   -1    0    0    0    0  0.00000000000E+00  0.00000000000E+00  0.45593999997E+02  0.45594000000E+02  0.51100000000E-03 0. -1.
         11   -1    0    0    0    0 -0.00000000000E+00 -0.00000000000E+00 -0.45593999997E+02  0.45594000000E+02  0.51100000000E-03 0.  1.
    9900012    2    1    2    0    0  0.10725926900E+01 -0.20188976585E+00 -0.44918106500E+00  0.90007755032E+02  0.90000016598E+02 0.  0.
         12    1    1    2    0    0 -0.10725926900E+01  0.20188976585E+00  0.44918106500E+00  0.11802449684E+01  0.00000000000E+00 0. -1.
         11    1    3    3    0    0  0.15192376995E+02  0.29769259101E+02 -0.10104769329E+02  0.34915948643E+02  0.51100000000E-03 0. -1.
        -11    1    3    3    0    0 -0.81878893283E+01  0.10090414955E+02  0.63379673468E+01  0.14457794990E+02  0.51100000000E-03 0.  1.
        -12    1    3    3    0    0 -0.59318949767E+01 -0.40061563822E+02  0.33176209168E+01  0.40634011399E+02  0.00000000000E+00 0.  1.
</event>
<event>
 7    1  0.2569312E-015  0.9000774E+02  0.7816164E-02  0.1186339E+00
        -11   -1    0    0    0    0  0.00000000000E+00  0.00000000000E+00  0.45593999997E+02  0.45594000000E+02  0.51100000000E-03 0. -1.
         11   -1    0    0    0    0 -0.00000000000E+00 -0.00000000000E+00 -0.45593999997E+02  0.45594000000E+02  0.51100000000E-03 0.  1.
    9900012    2    1    2    0    0  0.31285318448E-01 -0.10782457276E+01 -0.47897379121E+00  0.90007742184E+02  0.90000003581E+02 0.  0.
         12    1    1    2    0    0 -0.31285318448E-01  0.10782457276E+01  0.47897379121E+00  0.11802578163E+01  0.00000000000E+00 0. -1.
         11    1    3    3    0    0 -0.38350828478E+01  0.67359486882E+01  0.48461010038E+01  0.91414200417E+01  0.51100000000E-03 0. -1.
        -11    1    3    3    0    0  0.15280765718E+01 -0.44198808844E+02 -0.34059871615E+01  0.44356177360E+02  0.51100000000E-03 0.  1.
         12    1    3    3    0    0  0.23382915945E+01  0.36384614428E+02 -0.19190876335E+01  0.36510144782E+02  0.00000000000E+00 0. -1.
</event>
<event>
 7    1  0.2569312E-015  0.9000762E+02  0.7816164E-02  0.1186339E+00
        -11   -1    0    0    0    0  0.00000000000E+00  0.00000000000E+00  0.45593999997E+02  0.45594000000E+02  0.51100000000E-03 0.  1.
         11   -1    0    0    0    0 -0.00000000000E+00 -0.00000000000E+00 -0.45593999997E+02  0.45594000000E+02  0.51100000000E-03 0. -1.
    9900012    2    1    2    0    0 -0.93113724360E+00  0.70246565159E+00  0.18115287587E+00  0.90007622551E+02  0.89999882368E+02 0.  0.
         12    1    1    2    0    0  0.93113724360E+00 -0.70246565159E+00 -0.18115287587E+00  0.11803774492E+01  0.00000000000E+00 0. -1.
         11    1    3    3    0    0 -0.52216831539E+01 -0.10408937222E+02 -0.18167320620E+00  0.11646671390E+02  0.51100000000E-03 0. -1.
        -11    1    3    3    0    0 -0.25981776684E+02 -0.47788338946E+01  0.24880273766E+02  0.36289364778E+02  0.51100000000E-03 0.  1.
         12    1    3    3    0    0  0.30272322595E+02  0.15890236768E+02 -0.24517447684E+02  0.42071586383E+02  0.00000000000E+00 0. -1.
</event>
<event>
 7    1  0.2569312E-015  0.9000779E+02  0.7816164E-02  0.1186339E+00
        -11   -1    0    0    0    0  0.00000000000E+00  0.00000000000E+00  0.45593999997E+02  0.45594000000E+02  0.51100000000E-03 0.  1.
         11   -1    0    0    0    0 -0.00000000000E+00 -0.00000000000E+00 -0.45593999997E+02  0.45594000000E+02  0.51100000000E-03 0. -1.
    9900012    2    1    2    0    0 -0.28170795463E+00 -0.11233678958E+01 -0.22711164196E+00  0.90007790485E+02  0.90000052520E+02 0.  0.
         12    1    1    2    0    0  0.28170795463E+00  0.11233678958E+01  0.22711164196E+00  0.11802095148E+01  0.00000000000E+00 0. -1.
         11    1    3    3    0    0  0.20948690934E+02 -0.14193439048E+02 -0.29890611123E+02  0.39163120374E+02  0.51100000000E-03 0. -1.
        -11    1    3    3    0    0 -0.62500858444E+01 -0.73033652941E+01 -0.24980667865E+01  0.99319210434E+01  0.51100000000E-03 0.  1.
        -12    1    3    3    0    0 -0.14980313045E+02  0.20373436446E+02  0.32161566267E+02  0.40912749068E+02  0.00000000000E+00 0.  1.
</event>
<event>
 7    1  0.2769549E-015  0.9000735E+02  0.7816164E-02  0.1186340E+00
        -11   -1    0    0    0    0  0.00000000000E+00  0.00000000000E+00  0.45593999997E+02  0.45594000000E+02  0.51100000000E-03 0. -1.
         11   -1    0    0    0    0 -0.00000000000E+00 -0.00000000000E+00 -0.45593999997E+02  0.45594000000E+02  0.51100000000E-03 0.  1.
    9900012    2    1    2    0    0 -0.13246139359E+00  0.70420281018E+00 -0.93833849251E+00  0.90007353251E+02  0.89999609513E+02 0.  0.
         12    1    1    2    0    0  0.13246139359E+00 -0.70420281018E+00  0.93833849251E+00  0.11806467487E+01  0.00000000000E+00 0. -1.
         11    1    3    3    0    0  0.33519522533E+02 -0.16564897629E+02 -0.79231758101E+00  0.37397620134E+02  0.51100000000E-03 0. -1.
        -11    1    3    3    0    0  0.78035593316E+01  0.52993946290E+01  0.62845481626E+00  0.94537864050E+01  0.51100000000E-03 0.  1.
        -12    1    3    3    0    0 -0.41455543258E+02  0.11969705810E+02 -0.77447572776E+00  0.43155946712E+02  0.00000000000E+00 0.  1.
</event>
<event>
 7    1  0.2569312E-015  0.9000748E+02  0.7816164E-02  0.1186340E+00
        -11   -1    0    0    0    0  0.00000000000E+00  0.00000000000E+00  0.45593999997E+02  0.45594000000E+02  0.51100000000E-03 0.  1.
         11   -1    0    0    0    0 -0.00000000000E+00 -0.00000000000E+00 -0.45593999997E+02  0.45594000000E+02  0.51100000000E-03 0. -1.
    9900012    2    1    2    0    0  0.72224315414E-01  0.11123552582E+00  0.11730506135E+01  0.90007475779E+02  0.89999733659E+02 0.  0.
         12    1    1    2    0    0 -0.72224315414E-01 -0.11123552582E+00 -0.11730506135E+01  0.11805242208E+01  0.00000000000E+00 0. -1.
         11    1    3    3    0    0  0.22683473157E+02  0.14383117597E+02 -0.27399229507E+02  0.38368369840E+02  0.51100000000E-03 0. -1.
        -11    1    3    3    0    0 -0.13905361501E+01 -0.49099002075E+01 -0.73089271024E+01  0.89140970648E+01  0.51100000000E-03 0.  1.
        -12    1    3    3    0    0 -0.21220712691E+02 -0.93619818640E+01  0.35881207223E+02  0.42725008875E+02  0.00000000000E+00 0.  1.
</event>
<event>
 7    1  0.2569312E-015  0.9000773E+02  0.7816164E-02  0.1186339E+00
        -11   -1    0    0    0    0  0.00000000000E+00  0.00000000000E+00  0.45593999997E+02  0.45594000000E+02  0.51100000000E-03 0.  1.
         11   -1    0    0    0    0 -0.00000000000E+00 -0.00000000000E+00 -0.45593999997E+02  0.45594000000E+02  0.51100000000E-03 0. -1.
    9900012    2    1    2    0    0  0.89262247809E+00  0.54187495271E+00 -0.55012314118E+00  0.90007729343E+02  0.89999990571E+02 0.  0.
         12    1    1    2    0    0 -0.89262247809E+00 -0.54187495271E+00  0.55012314118E+00  0.11802706568E+01  0.00000000000E+00 0. -1.
         11    1    3    3    0    0 -0.17812358698E+02 -0.34031728220E+02  0.24807266513E+01  0.38491462079E+02  0.51100000000E-03 0. -1.
        -11    1    3    3    0    0 -0.22963270448E+00 -0.21162692758E+01  0.84080746129E+01  0.86733526265E+01  0.51100000000E-03 0.  1.
        -12    1    3    3    0    0  0.18934613881E+02  0.36689872448E+02 -0.11438924405E+02  0.42842914637E+02  0.00000000000E+00 0.  1.
</event>
<event>
 7    1  0.2569312E-015  0.9000779E+02  0.7816164E-02  0.1186339E+00
        -11   -1    0    0    0    0  0.00000000000E+00  0.00000000000E+00  0.45593999997E+02  0.45594000000E+02  0.51100000000E-03 0.  1.
         11   -1    0    0    0    0 -0.00000000000E+00 -0.00000000000E+00 -0.45593999997E+02  0.45594000000E+02  0.51100000000E-03 0. -1.
    9900012    2    1    2    0    0  0.66765690453E+00 -0.73525283058E+00 -0.63759419558E+00  0.90007792889E+02  0.90000054955E+02 0.  0.
         12    1    1    2    0    0 -0.66765690453E+00  0.73525283058E+00  0.63759419558E+00  0.11802071112E+01  0.00000000000E+00 0. -1.
         11    1    3    3    0    0  0.37664559727E+02  0.17168716964E+02  0.50607973634E+01  0.41701265830E+02  0.51100000000E-03 0. -1.
        -11    1    3    3    0    0 -0.25115796539E+01 -0.47316299271E+01  0.74006442365E+01  0.91359668072E+01  0.51100000000E-03 0.  1.
        -12    1    3    3    0    0 -0.34485323169E+02 -0.13172339868E+02 -0.13099035796E+02  0.39170560251E+02  0.00000000000E+00 0.  1.
</event>
<event>
 7    1  0.2569312E-015  0.9000807E+02  0.7816164E-02  0.1186338E+00
        -11   -1    0    0    0    0  0.00000000000E+00  0.00000000000E+00  0.45593999997E+02  0.45594000000E+02  0.51100000000E-03 0. -1.
         11   -1    0    0    0    0 -0.00000000000E+00 -0.00000000000E+00 -0.45593999997E+02  0.45594000000E+02  0.51100000000E-03 0.  1.
    9900012    2    1    2    0    0  0.11299778517E+01 -0.31966221594E+00 -0.11492635943E+00  0.90008066974E+02  0.90000332657E+02 0.  0.
         12    1    1    2    0    0 -0.11299778517E+01  0.31966221594E+00  0.11492635943E+00  0.11799330260E+01  0.00000000000E+00 0. -1.
         11    1    3    3    0    0 -0.99481673491E+01  0.41126817881E+01  0.17933394467E+01  0.10913122914E+02  0.51100000000E-03 0. -1.
        -11    1    3    3    0    0 -0.13697355618E+02  0.13685939981E+02 -0.31165749283E+02  0.36690958460E+02  0.51100000000E-03 0.  1.
         12    1    3    3    0    0  0.24775500819E+02 -0.18118283985E+02  0.29257483477E+02  0.42403985600E+02  0.00000000000E+00 0. -1.
</event>
<event>
 7    1  0.2569312E-015  0.9000785E+02  0.7816164E-02  0.1186339E+00
        -11   -1    0    0    0    0  0.00000000000E+00  0.00000000000E+00  0.45593999997E+02  0.45594000000E+02  0.51100000000E-03 0.  1.
         11   -1    0    0    0    0 -0.00000000000E+00 -0.00000000000E+00 -0.45593999997E+02  0.45594000000E+02  0.51100000000E-03 0. -1.
    9900012    2    1    2    0    0  0.10898292676E+01  0.12699799668E+00 -0.43461006694E+00  0.90007854994E+02  0.90000117880E+02 0.  0.
         12    1    1    2    0    0 -0.10898292676E+01 -0.12699799668E+00  0.43461006694E+00  0.11801450055E+01  0.00000000000E+00 0. -1.
         11    1    3    3    0    0 -0.63963318288E+01 -0.21438958821E+01  0.73405461384E+01  0.99696022132E+01  0.51100000000E-03 0. -1.
        -11    1    3    3    0    0  0.32960333179E+02 -0.14493266972E+02  0.17866588634E+02  0.40195190515E+02  0.51100000000E-03 0.  1.
         12    1    3    3    0    0 -0.25474172083E+02  0.16764160851E+02 -0.25641744839E+02  0.39843062267E+02  0.00000000000E+00 0. -1.
</event>
<event>
 7    1  0.2569312E-015  0.9000774E+02  0.7816164E-02  0.1186339E+00
        -11   -1    0    0    0    0  0.00000000000E+00  0.00000000000E+00  0.45593999997E+02  0.45594000000E+02  0.51100000000E-03 0. -1.
         11   -1    0    0    0    0 -0.00000000000E+00 -0.00000000000E+00 -0.45593999997E+02  0.45594000000E+02  0.51100000000E-03 0.  1.
    9900012    2    1    2    0    0 -0.42077170959E+00 -0.75665017981E+00 -0.80215024480E+00  0.90007740138E+02  0.90000001508E+02 0.  0.
         12    1    1    2    0    0  0.42077170959E+00  0.75665017981E+00  0.80215024480E+00  0.11802598618E+01  0.00000000000E+00 0. -1.
         11    1    3    3    0    0 -0.41994399655E+01 -0.55500479202E+01 -0.75836122062E+01  0.10293177464E+02  0.51100000000E-03 0. -1.
        -11    1    3    3    0    0  0.12647679915E+02 -0.26296587339E+02 -0.21909208968E+02  0.36489556736E+02  0.51100000000E-03 0.  1.
         12    1    3    3    0    0 -0.88690116586E+01  0.31089985080E+02  0.28690670929E+02  0.43225005939E+02  0.00000000000E+00 0. -1.
</event>
<event>
 7    1  0.2569312E-015  0.9000779E+02  0.7816164E-02  0.1186339E+00
        -11   -1    0    0    0    0  0.00000000000E+00  0.00000000000E+00  0.45593999997E+02  0.45594000000E+02  0.51100000000E-03 0.  1.
         11   -1    0    0    0    0 -0.00000000000E+00 -0.00000000000E+00 -0.45593999997E+02  0.45594000000E+02  0.51100000000E-03 0. -1.
    9900012    2    1    2    0    0  0.51944590930E+00 -0.37323011523E+00  0.99185119877E+00  0.90007790878E+02  0.90000052917E+02 0.  0.
         12    1    1    2    0    0 -0.51944590930E+00  0.37323011523E+00 -0.99185119877E+00  0.11802091222E+01  0.00000000000E+00 0. -1.
         11    1    3    3    0    0 -0.15298383753E+02  0.17246805943E+02 -0.30069660541E+02  0.37890333147E+02  0.51100000000E-03 0. -1.
        -11    1    3    3    0    0  0.66104456445E+01  0.11618493554E+01 -0.63601167057E+01  0.92465653253E+01  0.51100000000E-03 0.  1.
        -12    1    3    3    0    0  0.92073840174E+01 -0.18781885414E+02  0.37421628445E+02  0.42870892406E+02  0.00000000000E+00 0.  1.
</event>
<event>
 7    1  0.2569312E-015  0.9000767E+02  0.7816164E-02  0.1186339E+00
        -11   -1    0    0    0    0  0.00000000000E+00  0.00000000000E+00  0.45593999997E+02  0.45594000000E+02  0.51100000000E-03 0. -1.
         11   -1    0    0    0    0 -0.00000000000E+00 -0.00000000000E+00 -0.45593999997E+02  0.45594000000E+02  0.51100000000E-03 0.  1.
    9900012    2    1    2    0    0  0.89805433479E+00 -0.56197527351E+00 -0.52043193678E+00  0.90007674961E+02  0.89999935471E+02 0.  0.
         12    1    1    2    0    0 -0.89805433479E+00  0.56197527351E+00  0.52043193678E+00  0.11803250387E+01  0.00000000000E+00 0. -1.
         11    1    3    3    0    0 -0.11436901933E+02  0.12923717856E+02  0.10322827544E+02  0.20109350507E+02  0.51100000000E-03 0. -1.
        -11    1    3    3    0    0  0.19634256411E+02  0.23914637028E+02 -0.44812710567E+01  0.31264927307E+02  0.51100000000E-03 0.  1.
         12    1    3    3    0    0 -0.72993001428E+01 -0.37400330157E+02 -0.63619884243E+01  0.38633397147E+02  0.00000000000E+00 0. -1.
</event>
<event>
 7    1  0.2569312E-015  0.9000777E+02  0.7816164E-02  0.1186339E+00
        -11   -1    0    0    0    0  0.00000000000E+00  0.00000000000E+00  0.45593999997E+02  0.45594000000E+02  0.51100000000E-03 0.  1.
         11   -1    0    0    0    0 -0.00000000000E+00 -0.00000000000E+00 -0.45593999997E+02  0.45594000000E+02  0.51100000000E-03 0. -1.
    9900012    2    1    2    0    0  0.22272857557E+00 -0.49093082874E+00  0.10499110380E+01  0.90007773630E+02  0.90000035442E+02 0.  0.
         12    1    1    2    0    0 -0.22272857557E+00  0.49093082874E+00 -0.10499110380E+01  0.11802263701E+01  0.00000000000E+00 0. -1.
         11    1    3    3    0    0  0.38150345515E+01  0.31178105863E+02 -0.22238061822E+02  0.38485843731E+02  0.51100000000E-03 0. -1.
        -11    1    3    3    0    0  0.70322368788E+01  0.43994148790E+01  0.31928350972E+01  0.88882733428E+01  0.51100000000E-03 0.  1.
        -12    1    3    3    0    0 -0.10624542855E+02 -0.36068451571E+02  0.20095137763E+02  0.42633656556E+02  0.00000000000E+00 0.  1.
</event>
<event>
 7    1  0.2569312E-015  0.9000767E+02  0.7816164E-02  0.1186339E+00
        -11   -1    0    0    0    0  0.00000000000E+00  0.00000000000E+00  0.45593999997E+02  0.45594000000E+02  0.51100000000E-03 0. -1.
         11   -1    0    0    0    0 -0.00000000000E+00 -0.00000000000E+00 -0.45593999997E+02  0.45594000000E+02  0.51100000000E-03 0.  1.
    9900012    2    1    2    0    0 -0.51480815030E+00  0.20408263288E+00 -0.10423506616E+01  0.90007672904E+02  0.89999933386E+02 0.  0.
         12    1    1    2    0    0  0.51480815030E+00 -0.20408263288E+00  0.10423506616E+01  0.11803270963E+01  0.00000000000E+00 0. -1.
         11    1    3    3    0    0 -0.66331492741E+01 -0.15252737441E+01 -0.76052827015E+01  0.10206147879E+02  0.51100000000E-03 0. -1.
        -11    1    3    3    0    0  0.28211494938E+02 -0.18734196342E+02 -0.20269095030E+02  0.39467642098E+02  0.51100000000E-03 0.  1.
         12    1    3    3    0    0 -0.22093153814E+02  0.20463552719E+02  0.26832027069E+02  0.40333882927E+02  0.00000000000E+00 0. -1.
</event>
<event>
 7    1  0.2569312E-015  0.9000787E+02  0.7816164E-02  0.1186339E+00
        -11   -1    0    0    0    0  0.00000000000E+00  0.00000000000E+00  0.45593999997E+02  0.45594000000E+02  0.51100000000E-03 0.  1.
         11   -1    0    0    0    0 -0.00000000000E+00 -0.00000000000E+00 -0.45593999997E+02  0.45594000000E+02  0.51100000000E-03 0. -1.
    9900012    2    1    2    0    0 -0.75087038930E+00 -0.53380136989E+00 -0.73753229781E+00  0.90007871137E+02  0.90000134235E+02 0.  0.
         12    1    1    2    0    0  0.75087038930E+00  0.53380136989E+00  0.73753229781E+00  0.11801288635E+01  0.00000000000E+00 0. -1.
         11    1    3    3    0    0  0.21517930343E+01 -0.15864044137E+02 -0.36953420388E+01  0.16430266665E+02  0.51100000000E-03 0. -1.
        -11    1    3    3    0    0 -0.29127697191E+01 -0.20054403837E+02  0.24775290539E+02  0.32007473538E+02  0.51100000000E-03 0.  1.
         12    1    3    3    0    0  0.10106295491E-01  0.35384646604E+02 -0.21817480798E+02  0.41570130934E+02  0.00000000000E+00 0. -1.
</event>
<event>
 7    1  0.2569312E-015  0.9000776E+02  0.7816164E-02  0.1186339E+00
        -11   -1    0    0    0    0  0.00000000000E+00  0.00000000000E+00  0.45593999997E+02  0.45594000000E+02  0.51100000000E-03 0.  1.
         11   -1    0    0    0    0 -0.00000000000E+00 -0.00000000000E+00 -0.45593999997E+02  0.45594000000E+02  0.51100000000E-03 0. -1.
    9900012    2    1    2    0    0 -0.10705987363E+01  0.39588465209E+00  0.30010473407E+00  0.90007758854E+02  0.90000020471E+02 0.  0.
         12    1    1    2    0    0  0.10705987363E+01 -0.39588465209E+00 -0.30010473407E+00  0.11802411463E+01  0.00000000000E+00 0. -1.
         11    1    3    3    0    0 -0.14244540620E+01 -0.20079513639E+02  0.28335903758E+02  0.34758299432E+02  0.51100000000E-03 0. -1.
        -11    1    3    3    0    0  0.15755249380E+01 -0.34386774394E+01  0.97822715551E+01  0.10488070290E+02  0.51100000000E-03 0.  1.
        -12    1    3    3    0    0 -0.12216696123E+01  0.23914075731E+02 -0.37818070579E+02  0.44761389132E+02  0.00000000000E+00 0.  1.
</event>
<event>
 7    1  0.2569312E-015  0.9000827E+02  0.7816164E-02  0.1186338E+00
        -11   -1    0    0    0    0  0.00000000000E+00  0.00000000000E+00  0.45593999997E+02  0.45594000000E+02  0.51100000000E-03 0.  1.
         11   -1    0    0    0    0 -0.00000000000E+00 -0.00000000000E+00 -0.45593999997E+02  0.45594000000E+02  0.51100000000E-03 0. -1.
    9900012    2    1    2    0    0 -0.97098772521E+00 -0.42786316989E+00 -0.51563435639E+00  0.90008270012E+02  0.90000538375E+02 0.  0.
         12    1    1    2    0    0  0.97098772521E+00  0.42786316989E+00  0.51563435639E+00  0.11797299878E+01  0.00000000000E+00 0. -1.
         11    1    3    3    0    0 -0.24019692228E+02  0.39481478654E+01 -0.29883803551E+02  0.38543160239E+02  0.51100000000E-03 0. -1.
        -11    1    3    3    0    0 -0.32730171924E+01  0.76294719413E+01 -0.22572906848E+01  0.86033043154E+01  0.51100000000E-03 0.  1.
        -12    1    3    3    0    0  0.26321721695E+02 -0.12005482977E+02  0.31625459879E+02  0.42861805458E+02  0.00000000000E+00 0.  1.
</event>
<event>
 7    1  0.2569312E-015  0.9000749E+02  0.7816164E-02  0.1186340E+00
        -11   -1    0    0    0    0  0.00000000000E+00  0.00000000000E+00  0.45593999997E+02  0.45594000000E+02  0.51100000000E-03 0. -1.
         11   -1    0    0    0    0 -0.00000000000E+00 -0.00000000000E+00 -0.45593999997E+02  0.45594000000E+02  0.51100000000E-03 0.  1.
    9900012    2    1    2    0    0  0.99944945469E+00 -0.32470826508E+00 -0.53784828962E+00  0.90007485090E+02  0.89999743093E+02 0.  0.
         12    1    1    2    0    0 -0.99944945469E+00  0.32470826508E+00  0.53784828962E+00  0.11805149099E+01  0.00000000000E+00 0. -1.
         11    1    3    3    0    0  0.91305854592E+01 -0.40188300789E+02 -0.20317768898E+01  0.41262516025E+02  0.51100000000E-03 0. -1.
        -11    1    3    3    0    0 -0.84039456337E+01  0.60056486314E+00 -0.35801742803E+01  0.91544867965E+01  0.51100000000E-03 0.  1.
        -12    1    3    3    0    0  0.27280962924E+00  0.39263027661E+02  0.50741028805E+01  0.39590482268E+02  0.00000000000E+00 0.  1.
</event>
<event>
 7    1  0.2569312E-015  0.9000779E+02  0.7816164E-02  0.1186339E+00
        -11   -1    0    0    0    0  0.00000000000E+00  0.00000000000E+00  0.45593999997E+02  0.45594000000E+02  0.51100000000E-03 0. -1.
         11   -1    0    0    0    0 -0.00000000000E+00 -0.00000000000E+00 -0.45593999997E+02  0.45594000000E+02  0.51100000000E-03 0.  1.
    9900012    2    1    2    0    0 -0.84046451195E+00  0.17166875735E+00  0.81058129232E+00  0.90007791209E+02  0.90000053253E+02 0.  0.
         12    1    1    2    0    0  0.84046451195E+00 -0.17166875735E+00 -0.81058129232E+00  0.11802087907E+01  0.00000000000E+00 0. -1.
         11    1    3    3    0    0 -0.27886452995E+02 -0.19219296575E+02  0.19148173710E+02  0.38906145764E+02  0.51100000000E-03 0. -1.
        -11    1    3    3    0    0  0.84344214916E+00  0.34428948151E+01  0.92128837717E+01  0.98712788948E+01  0.51100000000E-03 0.  1.
        -12    1    3    3    0    0  0.26202546334E+02  0.15948070518E+02 -0.27550476189E+02  0.41230366551E+02  0.00000000000E+00 0.  1.
</event>
<event>
 7    1  0.2569312E-015  0.9000765E+02  0.7816164E-02  0.1186339E+00
        -11   -1    0    0    0    0  0.00000000000E+00  0.00000000000E+00  0.45593999997E+02  0.45594000000E+02  0.51100000000E-03 0.  1.
         11   -1    0    0    0    0 -0.00000000000E+00 -0.00000000000E+00 -0.45593999997E+02  0.45594000000E+02  0.51100000000E-03 0. -1.
    9900012    2    1    2    0    0  0.10440487314E+01 -0.54891859092E+00 -0.43400195313E-01  0.90007647108E+02  0.89999907250E+02 0.  0.
         12    1    1    2    0    0 -0.10440487314E+01  0.54891859092E+00  0.43400195313E-01  0.11803528921E+01  0.00000000000E+00 0. -1.
         11    1    3    3    0    0 -0.23313233437E+01  0.50691559047E+01 -0.35908079661E+02  0.36338981759E+02  0.51100000000E-03 0. -1.
        -11    1    3    3    0    0 -0.23544812766E+01 -0.52640015239E+01 -0.77599129387E+01  0.96679647912E+01  0.51100000000E-03 0.  1.
        -12    1    3    3    0    0  0.57298533517E+01 -0.35407297171E+00  0.43624592404E+02  0.44000700557E+02  0.00000000000E+00 0.  1.
</event>
<event>
 7    1  0.2569312E-015  0.9000771E+02  0.7816164E-02  0.1186339E+00
        -11   -1    0    0    0    0  0.00000000000E+00  0.00000000000E+00  0.45593999997E+02  0.45594000000E+02  0.51100000000E-03 0. -1.
         11   -1    0    0    0    0 -0.00000000000E+00 -0.00000000000E+00 -0.45593999997E+02  0.45594000000E+02  0.51100000000E-03 0.  1.
    9900012    2    1    2    0    0  0.59960792144E+00 -0.17639270520E+00 -0.10012197189E+01  0.90007709794E+02  0.89999970763E+02 0.  0.
         12    1    1    2    0    0 -0.59960792144E+00  0.17639270520E+00  0.10012197189E+01  0.11802902065E+01  0.00000000000E+00 0. -1.
         11    1    3    3    0    0 -0.39077880657E+02  0.14603340153E+02  0.25931337483E+01  0.41797878453E+02  0.51100000000E-03 0. -1.
        -11    1    3    3    0    0  0.55200822794E+01  0.53559807990E+01  0.25130598316E+01  0.80915578641E+01  0.51100000000E-03 0.  1.
        -12    1    3    3    0    0  0.34157406299E+02 -0.20135713657E+02 -0.61074132988E+01  0.40118273477E+02  0.00000000000E+00 0.  1.
</event>
<event>
 7    1  0.2569312E-015  0.9000772E+02  0.7816164E-02  0.1186339E+00
        -11   -1    0    0    0    0  0.00000000000E+00  0.00000000000E+00  0.45593999997E+02  0.45594000000E+02  0.51100000000E-03 0. -1.
         11   -1    0    0    0    0 -0.00000000000E+00 -0.00000000000E+00 -0.45593999997E+02  0.45594000000E+02  0.51100000000E-03 0.  1.
    9900012    2    1    2    0    0 -0.14675079428E+00  0.63751673024E+00 -0.98239161738E+00  0.90007721784E+02  0.89999982912E+02 0.  0.
         12    1    1    2    0    0  0.14675079428E+00 -0.63751673024E+00  0.98239161738E+00  0.11802782159E+01  0.00000000000E+00 0. -1.
         11    1    3    3    0    0 -0.14734307686E+00 -0.10091075921E+02 -0.77713662250E+01  0.12737568704E+02  0.51100000000E-03 0. -1.
        -11    1    3    3    0    0 -0.76155864603E+01 -0.27049397687E+02 -0.16160389228E+02  0.32416434916E+02  0.51100000000E-03 0.  1.
         12    1    3    3    0    0  0.76161787429E+01  0.37777990339E+02  0.22949363836E+02  0.44853718164E+02  0.00000000000E+00 0. -1.
</event>
<event>
 7    1  0.2569312E-015  0.9000766E+02  0.7816164E-02  0.1186339E+00
        -11   -1    0    0    0    0  0.00000000000E+00  0.00000000000E+00  0.45593999997E+02  0.45594000000E+02  0.51100000000E-03 0. -1.
         11   -1    0    0    0    0 -0.00000000000E+00 -0.00000000000E+00 -0.45593999997E+02  0.45594000000E+02  0.51100000000E-03 0.  1.
    9900012    2    1    2    0    0  0.52101778548E+00 -0.10324059808E+01 -0.23638231922E+00  0.90007661810E+02  0.89999922146E+02 0.  0.
         12    1    1    2    0    0 -0.52101778548E+00  0.10324059808E+01  0.23638231922E+00  0.11803381900E+01  0.00000000000E+00 0. -1.
         11    1    3    3    0    0  0.68340952291E+01  0.38959653497E+01 -0.60455730030E+01  0.99213082203E+01  0.51100000000E-03 0. -1.
        -11    1    3    3    0    0 -0.93827630024E+01  0.23478648791E+02 -0.26722760069E+02  0.36788436996E+02  0.51100000000E-03 0.  1.
         12    1    3    3    0    0  0.30696855588E+01 -0.28407020121E+02  0.32531950753E+02  0.43297916594E+02  0.00000000000E+00 0. -1.
</event>
<event>
 7    1  0.2569312E-015  0.9000773E+02  0.7816164E-02  0.1186339E+00
        -11   -1    0    0    0    0  0.00000000000E+00  0.00000000000E+00  0.45593999997E+02  0.45594000000E+02  0.51100000000E-03 0. -1.
         11   -1    0    0    0    0 -0.00000000000E+00 -0.00000000000E+00 -0.45593999997E+02  0.45594000000E+02  0.51100000000E-03 0.  1.
    9900012    2    1    2    0    0 -0.66653931163E+00  0.91314388793E+00 -0.33902171776E+00  0.90007727939E+02  0.89999989147E+02 0.  0.
         12    1    1    2    0    0  0.66653931163E+00 -0.91314388793E+00  0.33902171776E+00  0.11802720615E+01  0.00000000000E+00 0. -1.
         11    1    3    3    0    0 -0.69439730439E+01 -0.22144594369E+01  0.48184154778E+01  0.87372604522E+01  0.51100000000E-03 0. -1.
        -11    1    3    3    0    0 -0.18122524815E+02  0.20674201410E+02 -0.31141774001E+02  0.41541047144E+02  0.51100000000E-03 0.  1.
         12    1    3    3    0    0  0.24399958548E+02 -0.17546598085E+02  0.25984336806E+02  0.39729420342E+02  0.00000000000E+00 0. -1.
</event>
<event>
 7    1  0.2569312E-015  0.9000786E+02  0.7816164E-02  0.1186339E+00
        -11   -1    0    0    0    0  0.00000000000E+00  0.00000000000E+00  0.45593999997E+02  0.45594000000E+02  0.51100000000E-03 0.  1.
         11   -1    0    0    0    0 -0.00000000000E+00 -0.00000000000E+00 -0.45593999997E+02  0.45594000000E+02  0.51100000000E-03 0. -1.
    9900012    2    1    2    0    0 -0.38440157070E+00 -0.22355914062E+00  0.10931515891E+01  0.90007862867E+02  0.90000125856E+02 0.  0.
         12    1    1    2    0    0  0.38440157070E+00  0.22355914062E+00 -0.10931515891E+01  0.11801371334E+01  0.00000000000E+00 0. -1.
         11    1    3    3    0    0  0.11119059489E+02 -0.31324122412E+02  0.15972805724E+02  0.36877698570E+02  0.51100000000E-03 0. -1.
        -11    1    3    3    0    0 -0.54270913633E+01 -0.85279702568E+01  0.66538173249E+00  0.10130268036E+02  0.51100000000E-03 0.  1.
        -12    1    3    3    0    0 -0.60763696969E+01  0.39628533529E+02 -0.15545035868E+02  0.42999896261E+02  0.00000000000E+00 0.  1.
</event>
<event>
 7    1  0.2569312E-015  0.9000774E+02  0.7816164E-02  0.1186339E+00
        -11   -1    0    0    0    0  0.00000000000E+00  0.00000000000E+00  0.45593999997E+02  0.45594000000E+02  0.51100000000E-03 0. -1.
         11   -1    0    0    0    0 -0.00000000000E+00 -0.00000000000E+00 -0.45593999997E+02  0.45594000000E+02  0.51100000000E-03 0.  1.
    9900012    2    1    2    0    0 -0.65417187611E+00  0.98070157549E+00  0.57436483820E-01  0.90007739277E+02  0.90000000636E+02 0.  0.
         12    1    1    2    0    0  0.65417187611E+00 -0.98070157549E+00 -0.57436483820E-01  0.11802607226E+01  0.00000000000E+00 0. -1.
         11    1    3    3    0    0  0.75308912110E+01 -0.75319782653E+01 -0.39956215413E+01  0.11375852090E+02  0.51100000000E-03 0. -1.
        -11    1    3    3    0    0 -0.22256101313E+01 -0.21879486942E+02 -0.26966903643E+02  0.34797689314E+02  0.51100000000E-03 0.  1.
         12    1    3    3    0    0 -0.59594529558E+01  0.30392166782E+02  0.31019961668E+02  0.43834197873E+02  0.00000000000E+00 0. -1.
</event>
<event>
 7    1  0.2569312E-015  0.9000773E+02  0.7816164E-02  0.1186339E+00
        -11   -1    0    0    0    0  0.00000000000E+00  0.00000000000E+00  0.45593999997E+02  0.45594000000E+02  0.51100000000E-03 0. -1.
         11   -1    0    0    0    0 -0.00000000000E+00 -0.00000000000E+00 -0.45593999997E+02  0.45594000000E+02  0.51100000000E-03 0.  1.
    9900012    2    1    2    0    0  0.23905951822E-01  0.11529142496E+01 -0.25150531381E+00  0.90007729826E+02  0.89999991059E+02 0.  0.
         12    1    1    2    0    0 -0.23905951822E-01 -0.11529142496E+01  0.25150531381E+00  0.11802701743E+01  0.00000000000E+00 0. -1.
         11    1    3    3    0    0  0.43305897033E+01 -0.59579632397E+01 -0.42949577404E+01  0.85263119458E+01  0.51100000000E-03 0. -1.
        -11    1    3    3    0    0 -0.37932088968E+02 -0.67592944918E+01 -0.13851798519E+02  0.40943909901E+02  0.51100000000E-03 0.  1.
         12    1    3    3    0    0  0.33625405216E+02  0.13870171981E+02  0.17895250946E+02  0.40537507979E+02  0.00000000000E+00 0. -1.
</event>
<event>
 7    1  0.2569312E-015  0.9000809E+02  0.7816164E-02  0.1186338E+00
        -11   -1    0    0    0    0  0.00000000000E+00  0.00000000000E+00  0.45593999997E+02  0.45594000000E+02  0.51100000000E-03 0. -1.
         11   -1    0    0    0    0 -0.00000000000E+00 -0.00000000000E+00 -0.45593999997E+02  0.45594000000E+02  0.51100000000E-03 0.  1.
    9900012    2    1    2    0    0 -0.34072641969E+00 -0.11069946825E+01  0.22508829909E+00  0.90008086248E+02  0.90000352186E+02 0.  0.
         12    1    1    2    0    0  0.34072641969E+00  0.11069946825E+01 -0.22508829909E+00  0.11799137522E+01  0.00000000000E+00 0. -1.
         11    1    3    3    0    0  0.43579483883E+02  0.50065634313E+01 -0.31399622137E+00  0.43867250732E+02  0.51100000000E-03 0. -1.
        -11    1    3    3    0    0 -0.67305155301E+01 -0.58886087182E+01 -0.14755376536E+00  0.89441223332E+01  0.51100000000E-03 0.  1.
        -12    1    3    3    0    0 -0.37189694772E+02 -0.22494939571E+00  0.68663828581E+00  0.37196713183E+02  0.00000000000E+00 0.  1.
</event>
<event>
 7    1  0.2569312E-015  0.9000773E+02  0.7816164E-02  0.1186339E+00
        -11   -1    0    0    0    0  0.00000000000E+00  0.00000000000E+00  0.45593999997E+02  0.45594000000E+02  0.51100000000E-03 0. -1.
         11   -1    0    0    0    0 -0.00000000000E+00 -0.00000000000E+00 -0.45593999997E+02  0.45594000000E+02  0.51100000000E-03 0.  1.
    9900012    2    1    2    0    0 -0.96281332348E-01  0.11530130814E+01  0.23309934376E+00  0.90007726911E+02  0.89999988106E+02 0.  0.
         12    1    1    2    0    0  0.96281332348E-01 -0.11530130814E+01 -0.23309934376E+00  0.11802730891E+01  0.00000000000E+00 0. -1.
         11    1    3    3    0    0  0.33814599072E+02 -0.14365827763E+02 -0.30835757064E+01  0.36868856195E+02  0.51100000000E-03 0. -1.
        -11    1    3    3    0    0 -0.80834116878E+00 -0.84720585698E+01 -0.69495532442E+01  0.10987514842E+02  0.51100000000E-03 0.  1.
        -12    1    3    3    0    0 -0.33102539236E+02  0.23990899414E+02  0.10266228294E+02  0.42151355873E+02  0.00000000000E+00 0.  1.
</event>
<event>
 7    1  0.2569312E-015  0.9000772E+02  0.7816164E-02  0.1186339E+00
        -11   -1    0    0    0    0  0.00000000000E+00  0.00000000000E+00  0.45593999997E+02  0.45594000000E+02  0.51100000000E-03 0.  1.
         11   -1    0    0    0    0 -0.00000000000E+00 -0.00000000000E+00 -0.45593999997E+02  0.45594000000E+02  0.51100000000E-03 0. -1.
    9900012    2    1    2    0    0 -0.76188528376E+00 -0.89816970921E+00  0.76757260733E-01  0.90007716267E+02  0.89999977322E+02 0.  0.
         12    1    1    2    0    0  0.76188528376E+00  0.89816970921E+00 -0.76757260733E-01  0.11802837325E+01  0.00000000000E+00 0. -1.
         11    1    3    3    0    0 -0.36397273062E+01  0.32736766052E+02 -0.28458166354E+02  0.43529423370E+02  0.51100000000E-03 0. -1.
        -11    1    3    3    0    0 -0.37911155455E+01 -0.68119657171E+01  0.17505374299E+01  0.79899822006E+01  0.51100000000E-03 0.  1.
        -12    1    3    3    0    0  0.66689575679E+01 -0.26822970044E+02  0.26784386185E+02  0.38488310697E+02  0.00000000000E+00 0.  1.
</event>
<event>
 7    1  0.2569312E-015  0.9000777E+02  0.7816164E-02  0.1186339E+00
        -11   -1    0    0    0    0  0.00000000000E+00  0.00000000000E+00  0.45593999997E+02  0.45594000000E+02  0.51100000000E-03 0.  1.
         11   -1    0    0    0    0 -0.00000000000E+00 -0.00000000000E+00 -0.45593999997E+02  0.45594000000E+02  0.51100000000E-03 0. -1.
    9900012    2    1    2    0    0 -0.96471806671E+00 -0.61154760110E+00 -0.29711703071E+00  0.90007766995E+02  0.90000028719E+02 0.  0.
         12    1    1    2    0    0  0.96471806671E+00  0.61154760110E+00  0.29711703071E+00  0.11802330052E+01  0.00000000000E+00 0. -1.
         11    1    3    3    0    0  0.14786070547E+02 -0.24079839371E+02  0.49147117207E+01  0.28681369177E+02  0.51100000000E-03 0. -1.
        -11    1    3    3    0    0 -0.20708073767E+02 -0.11693916590E+02 -0.93963604157E+01  0.25570756611E+02  0.51100000000E-03 0.  1.
        -12    1    3    3    0    0  0.49572851535E+01  0.35162208360E+02  0.41845316643E+01  0.35755641206E+02  0.00000000000E+00 0.  1.
</event>
<event>
 7    1  0.2569312E-015  0.9000752E+02  0.7816164E-02  0.1186339E+00
        -11   -1    0    0    0    0  0.00000000000E+00  0.00000000000E+00  0.45593999997E+02  0.45594000000E+02  0.51100000000E-03 0. -1.
         11   -1    0    0    0    0 -0.00000000000E+00 -0.00000000000E+00 -0.45593999997E+02  0.45594000000E+02  0.51100000000E-03 0.  1.
    9900012    2    1    2    0    0  0.35575155573E+00  0.86606522792E+00  0.71895300820E+00  0.90007524851E+02  0.89999783379E+02 0.  0.
         12    1    1    2    0    0 -0.35575155573E+00 -0.86606522792E+00 -0.71895300820E+00  0.11804751486E+01  0.00000000000E+00 0. -1.
         11    1    3    3    0    0  0.27710887900E+01  0.64720720709E+01  0.46542299841E+01  0.84396982753E+01  0.51100000000E-03 0. -1.
        -11    1    3    3    0    0 -0.10065175028E+02  0.13189493089E+02 -0.38254832234E+02  0.41697753726E+02  0.51100000000E-03 0.  1.
         12    1    3    3    0    0  0.76498377936E+01 -0.18795499932E+02  0.34319555258E+02  0.39870072850E+02  0.00000000000E+00 0. -1.
</event>
<event>
 7    1  0.2569312E-015  0.9000779E+02  0.7816164E-02  0.1186339E+00
        -11   -1    0    0    0    0  0.00000000000E+00  0.00000000000E+00  0.45593999997E+02  0.45594000000E+02  0.51100000000E-03 0.  1.
         11   -1    0    0    0    0 -0.00000000000E+00 -0.00000000000E+00 -0.45593999997E+02  0.45594000000E+02  0.51100000000E-03 0. -1.
    9900012    2    1    2    0    0 -0.61576144396E+00  0.21667718914E+00  0.98324957624E+00  0.90007792014E+02  0.90000054069E+02 0.  0.
         12    1    1    2    0    0  0.61576144396E+00 -0.21667718914E+00 -0.98324957624E+00  0.11802079856E+01  0.00000000000E+00 0. -1.
         11    1    3    3    0    0 -0.23843946404E+01 -0.38856380943E+02  0.28122456185E+01  0.39030915996E+02  0.51100000000E-03 0. -1.
        -11    1    3    3    0    0 -0.96420770573E+01  0.63250368370E+00 -0.47598334958E+01  0.10771523850E+02  0.51100000000E-03 0.  1.
        -12    1    3    3    0    0  0.11410710254E+02  0.38440554448E+02  0.29308374536E+01  0.40205352168E+02  0.00000000000E+00 0.  1.
</event>
<event>
 7    1  0.2569312E-015  0.9000756E+02  0.7816164E-02  0.1186339E+00
        -11   -1    0    0    0    0  0.00000000000E+00  0.00000000000E+00  0.45593999997E+02  0.45594000000E+02  0.51100000000E-03 0.  1.
         11   -1    0    0    0    0 -0.00000000000E+00 -0.00000000000E+00 -0.45593999997E+02  0.45594000000E+02  0.51100000000E-03 0. -1.
    9900012    2    1    2    0    0 -0.10974338120E+01 -0.40045090248E+00  0.16944343885E+00  0.90007562379E+02  0.89999821403E+02 0.  0.
         12    1    1    2    0    0  0.10974338120E+01  0.40045090248E+00 -0.16944343885E+00  0.11804376205E+01  0.00000000000E+00 0. -1.
         11    1    3    3    0    0 -0.32914594058E+02  0.15008388712E+02  0.39760533129E-01  0.36174905873E+02  0.51100000000E-03 0. -1.
        -11    1    3    3    0    0 -0.94376006184E+01 -0.46414858181E+01 -0.33921414884E+01  0.11050715822E+02  0.51100000000E-03 0.  1.
        -12    1    3    3    0    0  0.41254760864E+02 -0.10767353796E+02  0.35218243941E+01  0.42781940685E+02  0.00000000000E+00 0.  1.
</event>
<event>
 7    1  0.2569312E-015  0.9000777E+02  0.7816164E-02  0.1186339E+00
        -11   -1    0    0    0    0  0.00000000000E+00  0.00000000000E+00  0.45593999997E+02  0.45594000000E+02  0.51100000000E-03 0.  1.
         11   -1    0    0    0    0 -0.00000000000E+00 -0.00000000000E+00 -0.45593999997E+02  0.45594000000E+02  0.51100000000E-03 0. -1.
    9900012    2    1    2    0    0  0.94088463033E+00 -0.18635731551E+00  0.68770846029E+00  0.90007772961E+02  0.90000034764E+02 0.  0.
         12    1    1    2    0    0 -0.94088463033E+00  0.18635731551E+00 -0.68770846029E+00  0.11802270387E+01  0.00000000000E+00 0. -1.
         11    1    3    3    0    0  0.21821082741E+02 -0.35642738210E+02 -0.20600122905E+01  0.41842658735E+02  0.51100000000E-03 0. -1.
        -11    1    3    3    0    0  0.56077843159E+01  0.85663420353E+01 -0.70264396276E+00  0.10262707713E+02  0.51100000000E-03 0.  1.
        -12    1    3    3    0    0 -0.26487982427E+02  0.26890038859E+02  0.34503647136E+01  0.37902406514E+02  0.00000000000E+00 0.  1.
</event>
<event>
 7    1  0.2569312E-015  0.9000775E+02  0.7816164E-02  0.1186339E+00
        -11   -1    0    0    0    0  0.00000000000E+00  0.00000000000E+00  0.45593999997E+02  0.45594000000E+02  0.51100000000E-03 0. -1.
         11   -1    0    0    0    0 -0.00000000000E+00 -0.00000000000E+00 -0.45593999997E+02  0.45594000000E+02  0.51100000000E-03 0.  1.
    9900012    2    1    2    0    0  0.37397671364E+00 -0.20942037487E+00 -0.10996707914E+01  0.90007749465E+02  0.90000010958E+02 0.  0.
         12    1    1    2    0    0 -0.37397671364E+00  0.20942037487E+00  0.10996707914E+01  0.11802505349E+01  0.00000000000E+00 0. -1.
         11    1    3    3    0    0  0.12899050399E+02 -0.31903963893E+02  0.10804338826E+02  0.36069130167E+02  0.51100000000E-03 0. -1.
        -11    1    3    3    0    0  0.31271556595E+01 -0.86004008169E+01 -0.19762344580E+00  0.91534175049E+01  0.51100000000E-03 0.  1.
        -12    1    3    3    0    0 -0.15652229345E+02  0.40294944335E+02 -0.11706386171E+02  0.44785201793E+02  0.00000000000E+00 0.  1.
</event>
<event>
 7    1  0.2569312E-015  0.9000764E+02  0.7816164E-02  0.1186339E+00
        -11   -1    0    0    0    0  0.00000000000E+00  0.00000000000E+00  0.45593999997E+02  0.45594000000E+02  0.51100000000E-03 0.  1.
         11   -1    0    0    0    0 -0.00000000000E+00 -0.00000000000E+00 -0.45593999997E+02  0.45594000000E+02  0.51100000000E-03 0. -1.
    9900012    2    1    2    0    0 -0.63128244429E+00 -0.97747577596E+00  0.19820144544E+00  0.90007635552E+02  0.89999895541E+02 0.  0.
         12    1    1    2    0    0  0.63128244429E+00  0.97747577596E+00 -0.19820144544E+00  0.11803644480E+01  0.00000000000E+00 0. -1.
         11    1    3    3    0    0  0.31607801948E+01  0.75891453895E+01  0.59503491939E+01  0.10148512944E+02  0.51100000000E-03 0. -1.
        -11    1    3    3    0    0  0.22428903845E+02  0.21501617433E+02  0.15428119273E+02  0.34690087121E+02  0.51100000000E-03 0.  1.
         12    1    3    3    0    0 -0.26220966484E+02 -0.30068238598E+02 -0.21180267021E+02  0.45169035487E+02  0.00000000000E+00 0. -1.
</event>
<event>
 7    1  0.2569312E-015  0.9000780E+02  0.7816164E-02  0.1186339E+00
        -11   -1    0    0    0    0  0.00000000000E+00  0.00000000000E+00  0.45593999997E+02  0.45594000000E+02  0.51100000000E-03 0. -1.
         11   -1    0    0    0    0 -0.00000000000E+00 -0.00000000000E+00 -0.45593999997E+02  0.45594000000E+02  0.51100000000E-03 0.  1.
    9900012    2    1    2    0    0  0.15415667723E+00 -0.99027474085E+00 -0.62326604359E+00  0.90007801328E+02  0.90000063506E+02 0.  0.
         12    1    1    2    0    0 -0.15415667723E+00  0.99027474085E+00  0.62326604359E+00  0.11801986717E+01  0.00000000000E+00 0. -1.
         11    1    3    3    0    0 -0.34048479822E+01 -0.80508826965E+01 -0.17647723164E+01  0.89176299298E+01  0.51100000000E-03 0. -1.
        -11    1    3    3    0    0  0.14010238933E+02 -0.22279072066E+02 -0.28007164986E+02  0.38432344944E+02  0.51100000000E-03 0.  1.
         12    1    3    3    0    0 -0.10451234274E+02  0.29339680022E+02  0.29148671259E+02  0.42657826454E+02  0.00000000000E+00 0. -1.
</event>
<event>
 7    1  0.2569312E-015  0.9000768E+02  0.7816164E-02  0.1186339E+00
        -11   -1    0    0    0    0  0.00000000000E+00  0.00000000000E+00  0.45593999997E+02  0.45594000000E+02  0.51100000000E-03 0.  1.
         11   -1    0    0    0    0 -0.00000000000E+00 -0.00000000000E+00 -0.45593999997E+02  0.45594000000E+02  0.51100000000E-03 0. -1.
    9900012    2    1    2    0    0 -0.40106662673E-01  0.10916259808E+01  0.44709486247E+00  0.90007682398E+02  0.89999943005E+02 0.  0.
         12    1    1    2    0    0  0.40106662673E-01 -0.10916259808E+01 -0.44709486247E+00  0.11803176023E+01  0.00000000000E+00 0. -1.
         11    1    3    3    0    0  0.77644310789E+01 -0.17616460934E+01 -0.26901557525E+01  0.84039707978E+01  0.51100000000E-03 0. -1.
        -11    1    3    3    0    0  0.17384672214E+02 -0.24678345980E+02  0.24257283622E+02  0.38725487696E+02  0.51100000000E-03 0.  1.
         12    1    3    3    0    0 -0.25189209956E+02  0.27531618054E+02 -0.21120033007E+02  0.42878223904E+02  0.00000000000E+00 0. -1.
</event>
<event>
 7    1  0.2569312E-015  0.9000800E+02  0.7816164E-02  0.1186339E+00
        -11   -1    0    0    0    0  0.00000000000E+00  0.00000000000E+00  0.45593999997E+02  0.45594000000E+02  0.51100000000E-03 0. -1.
         11   -1    0    0    0    0 -0.00000000000E+00 -0.00000000000E+00 -0.45593999997E+02  0.45594000000E+02  0.51100000000E-03 0.  1.
    9900012    2    1    2    0    0  0.11669478665E+01  0.22547406177E-01 -0.17357221804E+00  0.90007998719E+02  0.90000263502E+02 0.  0.
         12    1    1    2    0    0 -0.11669478665E+01 -0.22547406177E-01  0.17357221804E+00  0.11800012812E+01  0.00000000000E+00 0. -1.
         11    1    3    3    0    0 -0.25751049335E+02 -0.13249923805E+02 -0.59852992061E+01  0.29571960191E+02  0.51100000000E-03 0. -1.
        -11    1    3    3    0    0 -0.14030586626E+02 -0.35337998584E+01 -0.41771459902E+01  0.15059669698E+02  0.51100000000E-03 0.  1.
        -12    1    3    3    0    0  0.40948583828E+02  0.16806271070E+02  0.99888729784E+01  0.45376368830E+02  0.00000000000E+00 0.  1.
</event>
<event>
 7    1  0.2569312E-015  0.9000790E+02  0.7816164E-02  0.1186339E+00
        -11   -1    0    0    0    0  0.00000000000E+00  0.00000000000E+00  0.45593999997E+02  0.45594000000E+02  0.51100000000E-03 0. -1.
         11   -1    0    0    0    0 -0.00000000000E+00 -0.00000000000E+00 -0.45593999997E+02  0.45594000000E+02  0.51100000000E-03 0.  1.
    9900012    2    1    2    0    0 -0.94012018112E+00 -0.35590710679E+00 -0.61817819606E+00  0.90007898265E+02  0.90000161722E+02 0.  0.
         12    1    1    2    0    0  0.94012018112E+00  0.35590710679E+00  0.61817819606E+00  0.11801017353E+01  0.00000000000E+00 0. -1.
         11    1    3    3    0    0 -0.55188922012E+01  0.25797444183E+01 -0.89603630118E+01  0.10835190721E+02  0.51100000000E-03 0. -1.
        -11    1    3    3    0    0 -0.27372791308E+02  0.32613907576E+00 -0.21900633766E+02  0.35057293539E+02  0.51100000000E-03 0.  1.
         12    1    3    3    0    0  0.31951563328E+02 -0.32617906009E+01  0.30242818582E+02  0.44115414005E+02  0.00000000000E+00 0. -1.
</event>
<event>
 7    1  0.2569312E-015  0.9000772E+02  0.7816164E-02  0.1186339E+00
        -11   -1    0    0    0    0  0.00000000000E+00  0.00000000000E+00  0.45593999997E+02  0.45594000000E+02  0.51100000000E-03 0. -1.
         11   -1    0    0    0    0 -0.00000000000E+00 -0.00000000000E+00 -0.45593999997E+02  0.45594000000E+02  0.51100000000E-03 0.  1.
    9900012    2    1    2    0    0  0.54529594540E+00  0.10398678304E+01 -0.11998162704E+00  0.90007716829E+02  0.89999977891E+02 0.  0.
         12    1    1    2    0    0 -0.54529594540E+00 -0.10398678304E+01  0.11998162704E+00  0.11802831710E+01  0.00000000000E+00 0. -1.
         11    1    3    3    0    0 -0.22592078984E+02  0.24314537812E+02  0.12135635249E+02  0.35339389143E+02  0.51100000000E-03 0. -1.
        -11    1    3    3    0    0 -0.40344457177E+01  0.34249970590E+01  0.94449982608E+01  0.10826603785E+02  0.51100000000E-03 0.  1.
        -12    1    3    3    0    0  0.27171820647E+02 -0.26699667041E+02 -0.21700615137E+02  0.43841723902E+02  0.00000000000E+00 0.  1.
</event>
<event>
 7    1  0.2569312E-015  0.9000680E+02  0.7816164E-02  0.1186341E+00
        -11   -1    0    0    0    0  0.00000000000E+00  0.00000000000E+00  0.45593999997E+02  0.45594000000E+02  0.51100000000E-03 0.  1.
         11   -1    0    0    0    0 -0.00000000000E+00 -0.00000000000E+00 -0.45593999997E+02  0.45594000000E+02  0.51100000000E-03 0. -1.
    9900012    2    1    2    0    0  0.15517971100E+00 -0.82768465265E+00  0.82831003278E+00  0.90006797165E+02  0.89999046083E+02 0.  0.
         12    1    1    2    0    0 -0.15517971100E+00  0.82768465265E+00 -0.82831003278E+00  0.11812028350E+01  0.00000000000E+00 0. -1.
         11    1    3    3    0    0  0.62075311458E+01  0.49926720596E+00  0.58772117396E+01  0.85629626159E+01  0.51100000000E-03 0. -1.
        -11    1    3    3    0    0  0.13884567615E+02  0.33039177423E+02  0.12574531974E+02  0.37980091064E+02  0.51100000000E-03 0.  1.
         12    1    3    3    0    0 -0.19936919050E+02 -0.34366129281E+02 -0.17623433681E+02  0.43463743485E+02  0.00000000000E+00 0. -1.
</event>
<event>
 7    1  0.2569312E-015  0.9000772E+02  0.7816164E-02  0.1186339E+00
        -11   -1    0    0    0    0  0.00000000000E+00  0.00000000000E+00  0.45593999997E+02  0.45594000000E+02  0.51100000000E-03 0.  1.
         11   -1    0    0    0    0 -0.00000000000E+00 -0.00000000000E+00 -0.45593999997E+02  0.45594000000E+02  0.51100000000E-03 0. -1.
    9900012    2    1    2    0    0 -0.10849582822E+01  0.45333706700E+00 -0.10205156469E+00  0.90007718893E+02  0.89999979982E+02 0.  0.
         12    1    1    2    0    0  0.10849582822E+01 -0.45333706700E+00  0.10205156469E+00  0.11802811073E+01  0.00000000000E+00 0. -1.
         11    1    3    3    0    0  0.19037998137E+02 -0.30758060101E+02 -0.13390136381E+02  0.38572002629E+02  0.51100000000E-03 0. -1.
        -11    1    3    3    0    0 -0.46802717372E+01 -0.57125924831E+01  0.82888045818E+01  0.11101483598E+02  0.51100000000E-03 0.  1.
        -12    1    3    3    0    0 -0.15442684682E+02  0.36923989651E+02  0.49992802349E+01  0.40334232666E+02  0.00000000000E+00 0.  1.
</event>
<event>
 7    1  0.4284817E-015  0.9000775E+02  0.7816164E-02  0.1186339E+00
        -11   -1    0    0    0    0  0.00000000000E+00  0.00000000000E+00  0.45593999997E+02  0.45594000000E+02  0.51100000000E-03 0. -1.
         11   -1    0    0    0    0 -0.00000000000E+00 -0.00000000000E+00 -0.45593999997E+02  0.45594000000E+02  0.51100000000E-03 0.  1.
    9900012    2    1    2    0    0 -0.45136239494E-01 -0.33947664764E+00 -0.11294731262E+01  0.90007749511E+02  0.90000011004E+02 0.  0.
         12    1    1    2    0    0  0.45136239494E-01  0.33947664764E+00  0.11294731262E+01  0.11802504892E+01  0.00000000000E+00 0. -1.
         11    1    3    3    0    0 -0.25347117481E+02 -0.21847371251E+02  0.25364586544E+02  0.41989835032E+02  0.51100000000E-03 0. -1.
        -11    1    3    3    0    0  0.56518023044E+01  0.73651094489E+01  0.30951832084E+01  0.97861057545E+01  0.51100000000E-03 0.  1.
        -12    1    3    3    0    0  0.19650178937E+02  0.14142785154E+02 -0.29589242879E+02  0.38231808724E+02  0.00000000000E+00 0.  1.
</event>
<event>
 7    1  0.2569312E-015  0.9000772E+02  0.7816164E-02  0.1186339E+00
        -11   -1    0    0    0    0  0.00000000000E+00  0.00000000000E+00  0.45593999997E+02  0.45594000000E+02  0.51100000000E-03 0.  1.
         11   -1    0    0    0    0 -0.00000000000E+00 -0.00000000000E+00 -0.45593999997E+02  0.45594000000E+02  0.51100000000E-03 0. -1.
    9900012    2    1    2    0    0  0.18319226512E+00  0.10788636096E+01  0.44222325274E+00  0.90007717195E+02  0.89999978262E+02 0.  0.
         12    1    1    2    0    0 -0.18319226512E+00 -0.10788636096E+01 -0.44222325274E+00  0.11802828048E+01  0.00000000000E+00 0. -1.
         11    1    3    3    0    0  0.92200460267E+01 -0.16511737250E+01  0.13154455333E+01  0.94586479275E+01  0.51100000000E-03 0. -1.
        -11    1    3    3    0    0  0.15743531478E+02 -0.16464645496E+02  0.29251096041E+02  0.37075193251E+02  0.51100000000E-03 0.  1.
         12    1    3    3    0    0 -0.24780385240E+02  0.19194682831E+02 -0.30124318322E+02  0.43473876017E+02  0.00000000000E+00 0. -1.
</event>
<event>
 7    1  0.2569312E-015  0.9000770E+02  0.7816164E-02  0.1186339E+00
        -11   -1    0    0    0    0  0.00000000000E+00  0.00000000000E+00  0.45593999997E+02  0.45594000000E+02  0.51100000000E-03 0. -1.
         11   -1    0    0    0    0 -0.00000000000E+00 -0.00000000000E+00 -0.45593999997E+02  0.45594000000E+02  0.51100000000E-03 0.  1.
    9900012    2    1    2    0    0  0.11472348311E+01  0.23918546548E+00 -0.14053656953E+00  0.90007700050E+02  0.89999960891E+02 0.  0.
         12    1    1    2    0    0 -0.11472348311E+01 -0.23918546548E+00  0.14053656953E+00  0.11802999500E+01  0.00000000000E+00 0. -1.
         11    1    3    3    0    0 -0.62674663337E+01  0.64119562522E+00 -0.48190312845E+01  0.79319183592E+01  0.51100000000E-03 0. -1.
        -11    1    3    3    0    0 -0.28519662618E+02  0.17901560007E+02 -0.15399351989E+02  0.37026707232E+02  0.51100000000E-03 0.  1.
         12    1    3    3    0    0  0.35934363783E+02 -0.18303570167E+02  0.20077846704E+02  0.45049074459E+02  0.00000000000E+00 0. -1.
</event>
<event>
 7    1  0.2569312E-015  0.9000780E+02  0.7816164E-02  0.1186339E+00
        -11   -1    0    0    0    0  0.00000000000E+00  0.00000000000E+00  0.45593999997E+02  0.45594000000E+02  0.51100000000E-03 0. -1.
         11   -1    0    0    0    0 -0.00000000000E+00 -0.00000000000E+00 -0.45593999997E+02  0.45594000000E+02  0.51100000000E-03 0.  1.
    9900012    2    1    2    0    0  0.36853782772E+00  0.10561714055E+01 -0.37622185723E+00  0.90007804654E+02  0.90000066876E+02 0.  0.
         12    1    1    2    0    0 -0.36853782772E+00 -0.10561714055E+01  0.37622185723E+00  0.11801953458E+01  0.00000000000E+00 0. -1.
         11    1    3    3    0    0 -0.50406626108E+01  0.21733707433E+01 -0.96975198545E+01  0.11143325874E+02  0.51100000000E-03 0. -1.
        -11    1    3    3    0    0  0.46349741894E+01  0.37823660923E+02 -0.24236866007E+01  0.38183590302E+02  0.51100000000E-03 0.  1.
         12    1    3    3    0    0  0.77422624908E+00 -0.38940860261E+02  0.11744984598E+02  0.40680888478E+02  0.00000000000E+00 0. -1.
</event>
<event>
 7    1  0.2569312E-015  0.9000764E+02  0.7816164E-02  0.1186339E+00
        -11   -1    0    0    0    0  0.00000000000E+00  0.00000000000E+00  0.45593999997E+02  0.45594000000E+02  0.51100000000E-03 0.  1.
         11   -1    0    0    0    0 -0.00000000000E+00 -0.00000000000E+00 -0.45593999997E+02  0.45594000000E+02  0.51100000000E-03 0. -1.
    9900012    2    1    2    0    0 -0.62895836711E+00 -0.96066812491E+00 -0.27343416300E+00  0.90007644920E+02  0.89999905033E+02 0.  0.
         12    1    1    2    0    0  0.62895836711E+00  0.96066812491E+00  0.27343416300E+00  0.11803550802E+01  0.00000000000E+00 0. -1.
         11    1    3    3    0    0  0.21400395648E+02  0.30633597637E+02  0.12102055972E+02  0.39279180199E+02  0.51100000000E-03 0. -1.
        -11    1    3    3    0    0  0.52473987042E+01 -0.76667880441E+00 -0.76318049573E+01  0.92934082401E+01  0.51100000000E-03 0.  1.
        -12    1    3    3    0    0 -0.27276752719E+02 -0.30827586958E+02 -0.47436851774E+01  0.41435056481E+02  0.00000000000E+00 0.  1.
</event>
<event>
 7    1  0.2569312E-015  0.9000798E+02  0.7816164E-02  0.1186339E+00
        -11   -1    0    0    0    0  0.00000000000E+00  0.00000000000E+00  0.45593999997E+02  0.45594000000E+02  0.51100000000E-03 0.  1.
         11   -1    0    0    0    0 -0.00000000000E+00 -0.00000000000E+00 -0.45593999997E+02  0.45594000000E+02  0.51100000000E-03 0. -1.
    9900012    2    1    2    0    0  0.10877866317E+01  0.20971852018E+00 -0.40643781519E+00  0.90007977411E+02  0.90000241912E+02 0.  0.
         12    1    1    2    0    0 -0.10877866317E+01 -0.20971852018E+00  0.40643781519E+00  0.11800225894E+01  0.00000000000E+00 0. -1.
         11    1    3    3    0    0 -0.46457287821E+01 -0.63894690756E+01 -0.39680236614E+01  0.88404368118E+01  0.51100000000E-03 0. -1.
        -11    1    3    3    0    0  0.42364271630E+02  0.10287529838E+02  0.71468797066E+01  0.44177400000E+02  0.51100000000E-03 0.  1.
         12    1    3    3    0    0 -0.36630756216E+02 -0.36883422421E+01 -0.35852938604E+01  0.36990140599E+02  0.00000000000E+00 0. -1.
</event>
<event>
 7    1  0.2569312E-015  0.9000887E+02  0.7816164E-02  0.1186337E+00
        -11   -1    0    0    0    0  0.00000000000E+00  0.00000000000E+00  0.45593999997E+02  0.45594000000E+02  0.51100000000E-03 0. -1.
         11   -1    0    0    0    0 -0.00000000000E+00 -0.00000000000E+00 -0.45593999997E+02  0.45594000000E+02  0.51100000000E-03 0.  1.
    9900012    2    1    2    0    0  0.19660589031E+00  0.10556420523E+01  0.48715679599E+00  0.90008866520E+02  0.90001142751E+02 0.  0.
         12    1    1    2    0    0 -0.19660589031E+00 -0.10556420523E+01 -0.48715679599E+00  0.11791334795E+01  0.00000000000E+00 0. -1.
         11    1    3    3    0    0  0.46286081535E+01  0.46512158787E+01  0.22218609651E+01  0.69278054966E+01  0.51100000000E-03 0. -1.
        -11    1    3    3    0    0 -0.32006171929E+02  0.10122775460E+02  0.25351783846E+02  0.42066359113E+02  0.51100000000E-03 0.  1.
         12    1    3    3    0    0  0.27574169665E+02 -0.13718349286E+02 -0.27086488015E+02  0.41014701911E+02  0.00000000000E+00 0. -1.
</event>
<event>
 7    1  0.2569312E-015  0.9000771E+02  0.7816164E-02  0.1186339E+00
        -11   -1    0    0    0    0  0.00000000000E+00  0.00000000000E+00  0.45593999997E+02  0.45594000000E+02  0.51100000000E-03 0.  1.
         11   -1    0    0    0    0 -0.00000000000E+00 -0.00000000000E+00 -0.45593999997E+02  0.45594000000E+02  0.51100000000E-03 0. -1.
    9900012    2    1    2    0    0  0.19996414038E+00 -0.96402286197E+00  0.65097633868E+00  0.90007705152E+02  0.89999966060E+02 0.  0.
         12    1    1    2    0    0 -0.19996414038E+00  0.96402286197E+00 -0.65097633868E+00  0.11802948485E+01  0.00000000000E+00 0. -1.
         11    1    3    3    0    0  0.16305085558E+02 -0.14266471370E+02  0.34573823155E+02  0.40801191995E+02  0.51100000000E-03 0. -1.
        -11    1    3    3    0    0  0.41032105102E+01 -0.46549324568E+01 -0.50916643249E+00  0.62260728702E+01  0.51100000000E-03 0.  1.
         12    1    3    3    0    0 -0.20208331928E+02  0.17957380965E+02 -0.33413680384E+02  0.42980440286E+02  0.00000000000E+00 0. -1.
</event>
<event>
 7    1  0.2569312E-015  0.9000762E+02  0.7816164E-02  0.1186339E+00
        -11   -1    0    0    0    0  0.00000000000E+00  0.00000000000E+00  0.45593999997E+02  0.45594000000E+02  0.51100000000E-03 0. -1.
         11   -1    0    0    0    0 -0.00000000000E+00 -0.00000000000E+00 -0.45593999997E+02  0.45594000000E+02  0.51100000000E-03 0.  1.
    9900012    2    1    2    0    0 -0.96130922925E+00 -0.68087968457E+00 -0.74794144882E-01  0.90007615849E+02  0.89999875578E+02 0.  0.
         12    1    1    2    0    0  0.96130922925E+00  0.68087968457E+00  0.74794144882E-01  0.11803841507E+01  0.00000000000E+00 0. -1.
         11    1    3    3    0    0 -0.36232234034E+01  0.13913132176E+02 -0.78511857869E+00  0.14398590425E+02  0.51100000000E-03 0. -1.
        -11    1    3    3    0    0 -0.53344813803E+01 -0.42159799598E+01 -0.35997106939E+02  0.36633630545E+02  0.51100000000E-03 0.  1.
         12    1    3    3    0    0  0.79963955544E+01 -0.10378031901E+02  0.36707431373E+02  0.38975394880E+02  0.00000000000E+00 0. -1.
</event>
<event>
 7    1  0.2569312E-015  0.9000761E+02  0.7816164E-02  0.1186339E+00
        -11   -1    0    0    0    0  0.00000000000E+00  0.00000000000E+00  0.45593999997E+02  0.45594000000E+02  0.51100000000E-03 0. -1.
         11   -1    0    0    0    0 -0.00000000000E+00 -0.00000000000E+00 -0.45593999997E+02  0.45594000000E+02  0.51100000000E-03 0.  1.
    9900012    2    1    2    0    0  0.49447612088E+00 -0.12851136476E+00 -0.10640928287E+01  0.90007612202E+02  0.89999871883E+02 0.  0.
         12    1    1    2    0    0 -0.49447612088E+00  0.12851136476E+00  0.10640928287E+01  0.11803877978E+01  0.00000000000E+00 0. -1.
         11    1    3    3    0    0  0.43236632932E+01  0.86899357458E+01 -0.17490134439E+01  0.98624589138E+01  0.51100000000E-03 0. -1.
        -11    1    3    3    0    0  0.22903503467E+02 -0.16257416330E+02 -0.28402728956E+02  0.39944825312E+02  0.51100000000E-03 0.  1.
         12    1    3    3    0    0 -0.26732690639E+02  0.74389692198E+01  0.29087649571E+02  0.40200327977E+02  0.00000000000E+00 0. -1.
</event>
<event>
 7    1  0.2569312E-015  0.9000772E+02  0.7816164E-02  0.1186339E+00
        -11   -1    0    0    0    0  0.00000000000E+00  0.00000000000E+00  0.45593999997E+02  0.45594000000E+02  0.51100000000E-03 0. -1.
         11   -1    0    0    0    0 -0.00000000000E+00 -0.00000000000E+00 -0.45593999997E+02  0.45594000000E+02  0.51100000000E-03 0.  1.
    9900012    2    1    2    0    0 -0.62273498135E+00  0.49682425090E+00 -0.87087669073E+00  0.90007720625E+02  0.89999981737E+02 0.  0.
         12    1    1    2    0    0  0.62273498135E+00 -0.49682425090E+00  0.87087669073E+00  0.11802793753E+01  0.00000000000E+00 0. -1.
         11    1    3    3    0    0 -0.82853783155E+01 -0.48101006918E+01  0.31845045936E+01  0.10095822515E+02  0.51100000000E-03 0. -1.
        -11    1    3    3    0    0 -0.10187935411E+02  0.77193587235E+01 -0.38758830125E+02  0.40812123689E+02  0.51100000000E-03 0.  1.
         12    1    3    3    0    0  0.17850578745E+02 -0.24124337807E+01  0.34703448841E+02  0.39099774421E+02  0.00000000000E+00 0. -1.
</event>
<event>
 7    1  0.2569312E-015  0.9000786E+02  0.7816164E-02  0.1186339E+00
        -11   -1    0    0    0    0  0.00000000000E+00  0.00000000000E+00  0.45593999997E+02  0.45594000000E+02  0.51100000000E-03 0.  1.
         11   -1    0    0    0    0 -0.00000000000E+00 -0.00000000000E+00 -0.45593999997E+02  0.45594000000E+02  0.51100000000E-03 0. -1.
    9900012    2    1    2    0    0 -0.77265237192E-01 -0.53766342587E+00  0.10477041000E+01  0.90007857738E+02  0.90000120660E+02 0.  0.
         12    1    1    2    0    0  0.77265237192E-01  0.53766342587E+00 -0.10477041000E+01  0.11801422616E+01  0.00000000000E+00 0. -1.
         11    1    3    3    0    0 -0.14657335964E+01 -0.85235878102E+01 -0.26336520115E+01  0.90407990417E+01  0.51100000000E-03 0. -1.
        -11    1    3    3    0    0  0.13358674405E+01 -0.36418206878E+02  0.45002144143E+00  0.36445477820E+02  0.51100000000E-03 0.  1.
         12    1    3    3    0    0  0.52600918694E-01  0.44404131262E+02  0.32313346701E+01  0.44521580876E+02  0.00000000000E+00 0. -1.
</event>
<event>
 7    1  0.2569312E-015  0.9000779E+02  0.7816164E-02  0.1186339E+00
        -11   -1    0    0    0    0  0.00000000000E+00  0.00000000000E+00  0.45593999997E+02  0.45594000000E+02  0.51100000000E-03 0.  1.
         11   -1    0    0    0    0 -0.00000000000E+00 -0.00000000000E+00 -0.45593999997E+02  0.45594000000E+02  0.51100000000E-03 0. -1.
    9900012    2    1    2    0    0 -0.11077589453E+01 -0.21792590843E+00  0.34390846349E+00  0.90007790437E+02  0.90000052470E+02 0.  0.
         12    1    1    2    0    0  0.11077589453E+01  0.21792590843E+00 -0.34390846349E+00  0.11802095635E+01  0.00000000000E+00 0. -1.
         11    1    3    3    0    0 -0.52212289493E+00 -0.35413240378E+02 -0.10019881702E+02  0.36807176420E+02  0.51100000000E-03 0. -1.
        -11    1    3    3    0    0 -0.11640134925E+02 -0.33251399327E+01  0.23207940285E+01  0.12326207115E+02  0.51100000000E-03 0.  1.
        -12    1    3    3    0    0  0.11054498875E+02  0.38520454403E+02  0.80429961371E+01  0.40874406902E+02  0.00000000000E+00 0.  1.
</event>
<event>
 7    1  0.2569312E-015  0.9000769E+02  0.7816164E-02  0.1186339E+00
        -11   -1    0    0    0    0  0.00000000000E+00  0.00000000000E+00  0.45593999997E+02  0.45594000000E+02  0.51100000000E-03 0.  1.
         11   -1    0    0    0    0 -0.00000000000E+00 -0.00000000000E+00 -0.45593999997E+02  0.45594000000E+02  0.51100000000E-03 0. -1.
    9900012    2    1    2    0    0  0.11141254906E+01 -0.38331180441E-01 -0.38778303930E+00  0.90007694712E+02  0.89999955482E+02 0.  0.
         12    1    1    2    0    0 -0.11141254906E+01  0.38331180441E-01  0.38778303930E+00  0.11803052884E+01  0.00000000000E+00 0. -1.
         11    1    3    3    0    0  0.14100750742E-01  0.73111280339E+01  0.16075745908E+02  0.17660192488E+02  0.51100000000E-03 0. -1.
        -11    1    3    3    0    0 -0.51279425049E+01  0.16584319572E+02  0.21131618377E+02  0.27347408387E+02  0.51100000000E-03 0.  1.
         12    1    3    3    0    0  0.62279672448E+01 -0.23933778787E+02 -0.37595147324E+02  0.45000093837E+02  0.00000000000E+00 0. -1.
</event>
<event>
 7    1  0.2569312E-015  0.9000773E+02  0.7816164E-02  0.1186339E+00
        -11   -1    0    0    0    0  0.00000000000E+00  0.00000000000E+00  0.45593999997E+02  0.45594000000E+02  0.51100000000E-03 0. -1.
         11   -1    0    0    0    0 -0.00000000000E+00 -0.00000000000E+00 -0.45593999997E+02  0.45594000000E+02  0.51100000000E-03 0.  1.
    9900012    2    1    2    0    0  0.91574304707E+00 -0.53885999116E+00 -0.51388134390E+00  0.90007733312E+02  0.89999994592E+02 0.  0.
         12    1    1    2    0    0 -0.91574304707E+00  0.53885999116E+00  0.51388134390E+00  0.11802666876E+01  0.00000000000E+00 0. -1.
         11    1    3    3    0    0 -0.74224731738E+01 -0.56129770367E+01 -0.59633368108E+01  0.11052601748E+02  0.51100000000E-03 0. -1.
        -11    1    3    3    0    0 -0.31577970016E+02  0.18104834932E+02  0.63836623957E+01  0.36955437815E+02  0.51100000000E-03 0.  1.
         12    1    3    3    0    0  0.39916186237E+02 -0.13030717887E+02 -0.93420692882E+00  0.41999693748E+02  0.00000000000E+00 0. -1.
</event>
<event>
 7    1  0.2569312E-015  0.9000766E+02  0.7816164E-02  0.1186339E+00
        -11   -1    0    0    0    0  0.00000000000E+00  0.00000000000E+00  0.45593999997E+02  0.45594000000E+02  0.51100000000E-03 0.  1.
         11   -1    0    0    0    0 -0.00000000000E+00 -0.00000000000E+00 -0.45593999997E+02  0.45594000000E+02  0.51100000000E-03 0. -1.
    9900012    2    1    2    0    0  0.46210743911E+00 -0.66881380798E+00  0.85577621960E+00  0.90007657620E+02  0.89999917901E+02 0.  0.
         12    1    1    2    0    0 -0.46210743911E+00  0.66881380798E+00 -0.85577621960E+00  0.11803423796E+01  0.00000000000E+00 0. -1.
         11    1    3    3    0    0 -0.18240628928E+01  0.83684400575E+01  0.28915353919E+01  0.90398546236E+01  0.51100000000E-03 0. -1.
        -11    1    3    3    0    0 -0.37517519156E+02  0.21318450805E+01  0.80132915165E+01  0.38422933884E+02  0.51100000000E-03 0.  1.
         12    1    3    3    0    0  0.39803689488E+02 -0.11169098946E+02 -0.10049050689E+02  0.42544869113E+02  0.00000000000E+00 0. -1.
</event>
<event>
 7    1  0.2569312E-015  0.9000775E+02  0.7816164E-02  0.1186339E+00
        -11   -1    0    0    0    0  0.00000000000E+00  0.00000000000E+00  0.45593999997E+02  0.45594000000E+02  0.51100000000E-03 0. -1.
         11   -1    0    0    0    0 -0.00000000000E+00 -0.00000000000E+00 -0.45593999997E+02  0.45594000000E+02  0.51100000000E-03 0.  1.
    9900012    2    1    2    0    0  0.15220577346E+00  0.92972153259E+00  0.71095213247E+00  0.90007745087E+02  0.90000006522E+02 0.  0.
         12    1    1    2    0    0 -0.15220577346E+00 -0.92972153259E+00 -0.71095213247E+00  0.11802549133E+01  0.00000000000E+00 0. -1.
         11    1    3    3    0    0 -0.17231611933E+01 -0.58696719512E+00 -0.10421230061E+02  0.10579028842E+02  0.51100000000E-03 0. -1.
        -11    1    3    3    0    0  0.17318321939E+02 -0.30039820123E+02 -0.12753543451E+02  0.36945472505E+02  0.51100000000E-03 0.  1.
         12    1    3    3    0    0 -0.15442954972E+02  0.31556508851E+02  0.23885725644E+02  0.42483243740E+02  0.00000000000E+00 0. -1.
</event>
<event>
 7    1  0.2569312E-015  0.9000778E+02  0.7816164E-02  0.1186339E+00
        -11   -1    0    0    0    0  0.00000000000E+00  0.00000000000E+00  0.45593999997E+02  0.45594000000E+02  0.51100000000E-03 0. -1.
         11   -1    0    0    0    0 -0.00000000000E+00 -0.00000000000E+00 -0.45593999997E+02  0.45594000000E+02  0.51100000000E-03 0.  1.
    9900012    2    1    2    0    0 -0.11623601303E+01  0.22898762763E-01 -0.20324549262E+00  0.90007782157E+02  0.90000044082E+02 0.  0.
         12    1    1    2    0    0  0.11623601303E+01 -0.22898762763E-01  0.20324549262E+00  0.11802178427E+01  0.00000000000E+00 0. -1.
         11    1    3    3    0    0  0.44404175936E+01 -0.94797233093E+01  0.37587322674E+01  0.11122523587E+02  0.51100000000E-03 0. -1.
        -11    1    3    3    0    0 -0.79769382920E+01 -0.14933761329E+02 -0.35255545550E+02  0.39110129944E+02  0.51100000000E-03 0.  1.
         12    1    3    3    0    0  0.23741605681E+01  0.24436383401E+02  0.31293567790E+02  0.39775128626E+02  0.00000000000E+00 0. -1.
</event>
<event>
 7    1  0.2569312E-015  0.9000777E+02  0.7816164E-02  0.1186339E+00
        -11   -1    0    0    0    0  0.00000000000E+00  0.00000000000E+00  0.45593999997E+02  0.45594000000E+02  0.51100000000E-03 0. -1.
         11   -1    0    0    0    0 -0.00000000000E+00 -0.00000000000E+00 -0.45593999997E+02  0.45594000000E+02  0.51100000000E-03 0.  1.
    9900012    2    1    2    0    0  0.37582789376E+00 -0.11167897102E+01  0.66903675828E-01  0.90007770376E+02  0.90000032145E+02 0.  0.
         12    1    1    2    0    0 -0.37582789376E+00  0.11167897102E+01 -0.66903675828E-01  0.11802296236E+01  0.00000000000E+00 0. -1.
         11    1    3    3    0    0 -0.15274283727E+02 -0.48577889283E+01  0.38068361660E+02  0.41304987790E+02  0.51100000000E-03 0. -1.
        -11    1    3    3    0    0  0.52132216386E+00 -0.25059899847E+01  0.33580147753E+01  0.42223247263E+01  0.51100000000E-03 0.  1.
        -12    1    3    3    0    0  0.15128789457E+02  0.62469892028E+01 -0.41359472759E+02  0.44480457860E+02  0.00000000000E+00 0.  1.
</event>
<event>
 7    1  0.2569312E-015  0.9000770E+02  0.7816164E-02  0.1186339E+00
        -11   -1    0    0    0    0  0.00000000000E+00  0.00000000000E+00  0.45593999997E+02  0.45594000000E+02  0.51100000000E-03 0.  1.
         11   -1    0    0    0    0 -0.00000000000E+00 -0.00000000000E+00 -0.45593999997E+02  0.45594000000E+02  0.51100000000E-03 0. -1.
    9900012    2    1    2    0    0 -0.68997888051E+00  0.81328459273E+00  0.50556366487E+00  0.90007704569E+02  0.89999965470E+02 0.  0.
         12    1    1    2    0    0  0.68997888051E+00 -0.81328459273E+00 -0.50556366487E+00  0.11802954306E+01  0.00000000000E+00 0. -1.
         11    1    3    3    0    0 -0.26920542437E+02 -0.17155510943E+02 -0.22466156401E+02  0.39035308946E+02  0.51100000000E-03 0. -1.
        -11    1    3    3    0    0  0.28448236453E+01  0.14253553400E+01 -0.81050303444E+01  0.87072485070E+01  0.51100000000E-03 0.  1.
        -12    1    3    3    0    0  0.23385739911E+02  0.16543440195E+02  0.31076750410E+02  0.42265147116E+02  0.00000000000E+00 0.  1.
</event>
<event>
 7    1  0.2569312E-015  0.9000779E+02  0.7816164E-02  0.1186339E+00
        -11   -1    0    0    0    0  0.00000000000E+00  0.00000000000E+00  0.45593999997E+02  0.45594000000E+02  0.51100000000E-03 0.  1.
         11   -1    0    0    0    0 -0.00000000000E+00 -0.00000000000E+00 -0.45593999997E+02  0.45594000000E+02  0.51100000000E-03 0. -1.
    9900012    2    1    2    0    0 -0.24678855492E+00  0.90008135460E+00  0.72239162596E+00  0.90007787859E+02  0.90000049859E+02 0.  0.
         12    1    1    2    0    0  0.24678855492E+00 -0.90008135460E+00 -0.72239162596E+00  0.11802121407E+01  0.00000000000E+00 0. -1.
         11    1    3    3    0    0  0.28009836617E+01  0.87123332292E+01 -0.87716335463E+00  0.91934583037E+01  0.51100000000E-03 0. -1.
        -11    1    3    3    0    0 -0.23164655114E+02 -0.23969073701E+02  0.28269032346E+02  0.43706474700E+02  0.51100000000E-03 0.  1.
         12    1    3    3    0    0  0.20116882897E+02  0.16156821826E+02 -0.26669477366E+02  0.37107854856E+02  0.00000000000E+00 0. -1.
</event>
<event>
 7    1  0.2569312E-015  0.9000764E+02  0.7816164E-02  0.1186339E+00
        -11   -1    0    0    0    0  0.00000000000E+00  0.00000000000E+00  0.45593999997E+02  0.45594000000E+02  0.51100000000E-03 0.  1.
         11   -1    0    0    0    0 -0.00000000000E+00 -0.00000000000E+00 -0.45593999997E+02  0.45594000000E+02  0.51100000000E-03 0. -1.
    9900012    2    1    2    0    0 -0.11326393121E+00 -0.99390397152E+00  0.62656778419E+00  0.90007635221E+02  0.89999895206E+02 0.  0.
         12    1    1    2    0    0  0.11326393121E+00  0.99390397152E+00 -0.62656778419E+00  0.11803647787E+01  0.00000000000E+00 0. -1.
         11    1    3    3    0    0  0.49078107256E+01  0.57986542443E+01  0.20473483612E+01  0.78678226173E+01  0.51100000000E-03 0. -1.
        -11    1    3    3    0    0  0.16985313500E+02 -0.39329716116E+02 -0.22781581595E+00  0.42841327533E+02  0.51100000000E-03 0.  1.
         12    1    3    3    0    0 -0.22006388157E+02  0.32537157900E+02 -0.11929647611E+01  0.39298485071E+02  0.00000000000E+00 0. -1.
</event>
<event>
 7    1  0.2569312E-015  0.9000769E+02  0.7816164E-02  0.1186339E+00
        -11   -1    0    0    0    0  0.00000000000E+00  0.00000000000E+00  0.45593999997E+02  0.45594000000E+02  0.51100000000E-03 0. -1.
         11   -1    0    0    0    0 -0.00000000000E+00 -0.00000000000E+00 -0.45593999997E+02  0.45594000000E+02  0.51100000000E-03 0.  1.
    9900012    2    1    2    0    0  0.10697776138E+01  0.49152909927E+00  0.84364938370E-01  0.90007685448E+02  0.89999946096E+02 0.  0.
         12    1    1    2    0    0 -0.10697776138E+01 -0.49152909927E+00 -0.84364938370E-01  0.11803145518E+01  0.00000000000E+00 0. -1.
         11    1    3    3    0    0  0.55064957110E+00 -0.37463934738E+02  0.15850111931E+02  0.40682621222E+02  0.51100000000E-03 0. -1.
        -11    1    3    3    0    0 -0.31950338517E+01  0.74981340571E+01  0.72980680147E+01  0.10940386312E+02  0.51100000000E-03 0.  1.
        -12    1    3    3    0    0  0.37141618944E+01  0.30457329780E+02 -0.23063815007E+02  0.38384677914E+02  0.00000000000E+00 0.  1.
</event>
<event>
 7    1  0.2569312E-015  0.9000780E+02  0.7816164E-02  0.1186339E+00
        -11   -1    0    0    0    0  0.00000000000E+00  0.00000000000E+00  0.45593999997E+02  0.45594000000E+02  0.51100000000E-03 0.  1.
         11   -1    0    0    0    0 -0.00000000000E+00 -0.00000000000E+00 -0.45593999997E+02  0.45594000000E+02  0.51100000000E-03 0. -1.
    9900012    2    1    2    0    0  0.32228482011E+00  0.47137269209E+00  0.10328685344E+01  0.90007797844E+02  0.90000059975E+02 0.  0.
         12    1    1    2    0    0 -0.32228482011E+00 -0.47137269209E+00 -0.10328685344E+01  0.11802021562E+01  0.00000000000E+00 0. -1.
         11    1    3    3    0    0  0.16009694342E+02  0.36562180780E+02 -0.23501914758E+01  0.39982831022E+02  0.51100000000E-03 0. -1.
        -11    1    3    3    0    0  0.89252039226E+01 -0.52014942641E+01 -0.47378597277E+00  0.10341145055E+02  0.51100000000E-03 0.  1.
        -12    1    3    3    0    0 -0.24612613445E+02 -0.30889313824E+02  0.38568459830E+01  0.39683821767E+02  0.00000000000E+00 0.  1.
</event>
<event>
 7    1  0.2569312E-015  0.9000764E+02  0.7816164E-02  0.1186339E+00
        -11   -1    0    0    0    0  0.00000000000E+00  0.00000000000E+00  0.45593999997E+02  0.45594000000E+02  0.51100000000E-03 0. -1.
         11   -1    0    0    0    0 -0.00000000000E+00 -0.00000000000E+00 -0.45593999997E+02  0.45594000000E+02  0.51100000000E-03 0.  1.
    9900012    2    1    2    0    0 -0.75973651006E+00  0.79636325660E+00  0.42643934610E+00  0.90007642208E+02  0.89999902285E+02 0.  0.
         12    1    1    2    0    0  0.75973651006E+00 -0.79636325660E+00 -0.42643934610E+00  0.11803577920E+01  0.00000000000E+00 0. -1.
         11    1    3    3    0    0 -0.58150322686E+01  0.80258874774E+01 -0.67059693098E+00  0.99337390035E+01  0.51100000000E-03 0. -1.
        -11    1    3    3    0    0  0.60366485275E+01  0.26691261774E+02 -0.25154624121E+02  0.37170145217E+02  0.51100000000E-03 0.  1.
         12    1    3    3    0    0 -0.98135276895E+00 -0.33920785995E+02  0.26251660398E+02  0.42903757987E+02  0.00000000000E+00 0. -1.
</event>
<event>
 7    1  0.2569312E-015  0.9000770E+02  0.7816164E-02  0.1186339E+00
        -11   -1    0    0    0    0  0.00000000000E+00  0.00000000000E+00  0.45593999997E+02  0.45594000000E+02  0.51100000000E-03 0.  1.
         11   -1    0    0    0    0 -0.00000000000E+00 -0.00000000000E+00 -0.45593999997E+02  0.45594000000E+02  0.51100000000E-03 0. -1.
    9900012    2    1    2    0    0  0.19036853338E+00  0.67124012803E+00  0.95199846418E+00  0.90007701494E+02  0.89999962353E+02 0.  0.
         12    1    1    2    0    0 -0.19036853338E+00 -0.67124012803E+00 -0.95199846418E+00  0.11802985062E+01  0.00000000000E+00 0. -1.
         11    1    3    3    0    0 -0.29585422128E+02 -0.41624524904E+01 -0.25632192544E+02  0.39365371942E+02  0.51100000000E-03 0. -1.
        -11    1    3    3    0    0 -0.55267213927E+01 -0.36256137848E+01  0.24462015692E+01  0.70479519754E+01  0.51100000000E-03 0.  1.
        -12    1    3    3    0    0  0.35302512054E+02  0.84593064032E+01  0.24137989439E+02  0.43594377577E+02  0.00000000000E+00 0.  1.
</event>
<event>
 7    1  0.2569312E-015  0.9000756E+02  0.7816164E-02  0.1186339E+00
        -11   -1    0    0    0    0  0.00000000000E+00  0.00000000000E+00  0.45593999997E+02  0.45594000000E+02  0.51100000000E-03 0.  1.
         11   -1    0    0    0    0 -0.00000000000E+00 -0.00000000000E+00 -0.45593999997E+02  0.45594000000E+02  0.51100000000E-03 0. -1.
    9900012    2    1    2    0    0 -0.68990052112E+00 -0.49448954990E+00  0.82034336444E+00  0.90007556914E+02  0.89999815865E+02 0.  0.
         12    1    1    2    0    0  0.68990052112E+00  0.49448954990E+00 -0.82034336444E+00  0.11804430861E+01  0.00000000000E+00 0. -1.
         11    1    3    3    0    0  0.96880181672E+01 -0.84730858388E+00 -0.40027238776E+01  0.10516531108E+02  0.51100000000E-03 0. -1.
        -11    1    3    3    0    0 -0.20952177902E+02 -0.30622772207E+02  0.21366702590E+02  0.42816864859E+02  0.51100000000E-03 0.  1.
         12    1    3    3    0    0  0.10574259214E+02  0.30975591241E+02 -0.16543635348E+02  0.36674160947E+02  0.00000000000E+00 0. -1.
</event>
<event>
 7    1  0.2569312E-015  0.9000805E+02  0.7816164E-02  0.1186338E+00
        -11   -1    0    0    0    0  0.00000000000E+00  0.00000000000E+00  0.45593999997E+02  0.45594000000E+02  0.51100000000E-03 0.  1.
         11   -1    0    0    0    0 -0.00000000000E+00 -0.00000000000E+00 -0.45593999997E+02  0.45594000000E+02  0.51100000000E-03 0. -1.
    9900012    2    1    2    0    0 -0.91303818497E+00 -0.50720817968E+00 -0.54898832769E+00  0.90008047862E+02  0.90000313293E+02 0.  0.
         12    1    1    2    0    0  0.91303818497E+00  0.50720817968E+00  0.54898832769E+00  0.11799521383E+01  0.00000000000E+00 0. -1.
         11    1    3    3    0    0 -0.37747274688E+01  0.59047756981E-01 -0.94097600285E+01  0.10138818381E+02  0.51100000000E-03 0. -1.
        -11    1    3    3    0    0 -0.27276017489E+01  0.24845759440E+02  0.34985978016E+02  0.42997328190E+02  0.51100000000E-03 0.  1.
         12    1    3    3    0    0  0.55892910327E+01 -0.25412015377E+02 -0.26125206316E+02  0.36871901291E+02  0.00000000000E+00 0. -1.
</event>
<event>
 7    1  0.2569312E-015  0.9000748E+02  0.7816164E-02  0.1186340E+00
        -11   -1    0    0    0    0  0.00000000000E+00  0.00000000000E+00  0.45593999997E+02  0.45594000000E+02  0.51100000000E-03 0. -1.
         11   -1    0    0    0    0 -0.00000000000E+00 -0.00000000000E+00 -0.45593999997E+02  0.45594000000E+02  0.51100000000E-03 0.  1.
    9900012    2    1    2    0    0 -0.43780787408E+00  0.49624099538E+00 -0.97759817503E+00  0.90007479330E+02  0.89999737257E+02 0.  0.
         12    1    1    2    0    0  0.43780787408E+00 -0.49624099538E+00  0.97759817503E+00  0.11805206698E+01  0.00000000000E+00 0. -1.
         11    1    3    3    0    0 -0.35106698100E+01 -0.65160948902E+01 -0.52156493904E+01  0.90546835372E+01  0.51100000000E-03 0. -1.
        -11    1    3    3    0    0 -0.13251507257E+02 -0.21009903601E+02 -0.26463439368E+02  0.36295070152E+02  0.51100000000E-03 0.  1.
         12    1    3    3    0    0  0.16324369193E+02  0.28022239486E+02  0.30701490584E+02  0.44657725641E+02  0.00000000000E+00 0. -1.
</event>
<event>
 7    1  0.2569312E-015  0.9000718E+02  0.7816164E-02  0.1186340E+00
        -11   -1    0    0    0    0  0.00000000000E+00  0.00000000000E+00  0.45593999997E+02  0.45594000000E+02  0.51100000000E-03 0.  1.
         11   -1    0    0    0    0 -0.00000000000E+00 -0.00000000000E+00 -0.45593999997E+02  0.45594000000E+02  0.51100000000E-03 0. -1.
    9900012    2    1    2    0    0  0.60136517907E+00  0.97963702339E+00 -0.27017987491E+00  0.90007184205E+02  0.89999438235E+02 0.  0.
         12    1    1    2    0    0 -0.60136517907E+00 -0.97963702339E+00  0.27017987491E+00  0.11808157947E+01  0.00000000000E+00 0. -1.
         11    1    3    3    0    0 -0.84910018243E+01  0.90160682778E+01 -0.19281187159E+02  0.22916168478E+02  0.51100000000E-03 0. -1.
        -11    1    3    3    0    0 -0.98154925372E+01  0.16870005677E+02  0.28383230913E+02  0.34446317402E+02  0.51100000000E-03 0.  1.
         12    1    3    3    0    0  0.18907859541E+02 -0.24906436931E+02 -0.93722236283E+01  0.32644698325E+02  0.00000000000E+00 0. -1.
</event>
<event>
 7    1  0.2569312E-015  0.9000770E+02  0.7816164E-02  0.1186339E+00
        -11   -1    0    0    0    0  0.00000000000E+00  0.00000000000E+00  0.45593999997E+02  0.45594000000E+02  0.51100000000E-03 0.  1.
         11   -1    0    0    0    0 -0.00000000000E+00 -0.00000000000E+00 -0.45593999997E+02  0.45594000000E+02  0.51100000000E-03 0. -1.
    9900012    2    1    2    0    0  0.18157990106E+00 -0.10965116477E+01  0.39724437732E+00  0.90007698280E+02  0.89999959098E+02 0.  0.
         12    1    1    2    0    0 -0.18157990106E+00  0.10965116477E+01 -0.39724437732E+00  0.11803017197E+01  0.00000000000E+00 0. -1.
         11    1    3    3    0    0 -0.82879760094E+00  0.97411627043E+01 -0.45527916189E+01  0.10784482745E+02  0.51100000000E-03 0. -1.
        -11    1    3    3    0    0 -0.10151815612E+02 -0.39335193813E+02  0.19814594045E+02  0.45198838149E+02  0.51100000000E-03 0.  1.
         12    1    3    3    0    0  0.11162193114E+02  0.28497519461E+02 -0.14864558049E+02  0.34024377387E+02  0.00000000000E+00 0. -1.
</event>
<event>
 7    1  0.2569312E-015  0.9000796E+02  0.7816164E-02  0.1186339E+00
        -11   -1    0    0    0    0  0.00000000000E+00  0.00000000000E+00  0.45593999997E+02  0.45594000000E+02  0.51100000000E-03 0.  1.
         11   -1    0    0    0    0 -0.00000000000E+00 -0.00000000000E+00 -0.45593999997E+02  0.45594000000E+02  0.51100000000E-03 0. -1.
    9900012    2    1    2    0    0  0.44632445471E+00  0.10872668306E+01 -0.10551279168E+00  0.90007962870E+02  0.90000227179E+02 0.  0.
         12    1    1    2    0    0 -0.44632445471E+00 -0.10872668306E+01  0.10551279168E+00  0.11800371304E+01  0.00000000000E+00 0. -1.
         11    1    3    3    0    0 -0.18451112957E+02  0.35417107931E+02  0.18150077340E+02  0.43866164766E+02  0.51100000000E-03 0. -1.
        -11    1    3    3    0    0  0.73970933977E+01 -0.17056697363E+01 -0.50374022442E+01  0.91105280645E+01  0.51100000000E-03 0.  1.
        -12    1    3    3    0    0  0.11500344014E+02 -0.32624171365E+02 -0.13218187888E+02  0.37031270039E+02  0.00000000000E+00 0.  1.
</event>
<event>
 7    1  0.2569312E-015  0.9000775E+02  0.7816164E-02  0.1186339E+00
        -11   -1    0    0    0    0  0.00000000000E+00  0.00000000000E+00  0.45593999997E+02  0.45594000000E+02  0.51100000000E-03 0.  1.
         11   -1    0    0    0    0 -0.00000000000E+00 -0.00000000000E+00 -0.45593999997E+02  0.45594000000E+02  0.51100000000E-03 0. -1.
    9900012    2    1    2    0    0 -0.41892966901E+00 -0.10499260550E+01  0.33934094030E+00  0.90007746187E+02  0.90000007637E+02 0.  0.
         12    1    1    2    0    0  0.41892966901E+00  0.10499260550E+01 -0.33934094030E+00  0.11802538126E+01  0.00000000000E+00 0. -1.
         11    1    3    3    0    0  0.41029641924E+01 -0.72309970784E+01 -0.36583370832E+02  0.37516191912E+02  0.51100000000E-03 0. -1.
        -11    1    3    3    0    0 -0.19726179857E+01  0.85792083630E+01 -0.51996656734E+01  0.10224018839E+02  0.51100000000E-03 0.  1.
        -12    1    3    3    0    0 -0.25492758757E+01 -0.23981373395E+01  0.42122377445E+02  0.42267535436E+02  0.00000000000E+00 0.  1.
</event>
<event>
 7    1  0.2569312E-015  0.9000782E+02  0.7816164E-02  0.1186339E+00
        -11   -1    0    0    0    0  0.00000000000E+00  0.00000000000E+00  0.45593999997E+02  0.45594000000E+02  0.51100000000E-03 0.  1.
         11   -1    0    0    0    0 -0.00000000000E+00 -0.00000000000E+00 -0.45593999997E+02  0.45594000000E+02  0.51100000000E-03 0. -1.
    9900012    2    1    2    0    0  0.27861410342E+00 -0.75170273687E+00  0.86610351808E+00  0.90007822841E+02  0.90000085302E+02 0.  0.
         12    1    1    2    0    0 -0.27861410342E+00  0.75170273687E+00 -0.86610351808E+00  0.11801771593E+01  0.00000000000E+00 0. -1.
         11    1    3    3    0    0  0.24755562275E+02  0.24921829357E+02  0.42743036607E+01  0.35386510341E+02  0.51100000000E-03 0. -1.
        -11    1    3    3    0    0  0.67152586096E+01  0.64494841936E+01  0.19916852229E+01  0.95214155904E+01  0.51100000000E-03 0.  1.
        -12    1    3    3    0    0 -0.31192206781E+02 -0.32123016288E+02 -0.53998853655E+01  0.45099896910E+02  0.00000000000E+00 0.  1.
</event>
<event>
 7    1  0.2569312E-015  0.9000804E+02  0.7816164E-02  0.1186338E+00
        -11   -1    0    0    0    0  0.00000000000E+00  0.00000000000E+00  0.45593999997E+02  0.45594000000E+02  0.51100000000E-03 0. -1.
         11   -1    0    0    0    0 -0.00000000000E+00 -0.00000000000E+00 -0.45593999997E+02  0.45594000000E+02  0.51100000000E-03 0.  1.
    9900012    2    1    2    0    0  0.81108140556E-03 -0.72556098554E+00 -0.93052513427E+00  0.90008035413E+02  0.90000300680E+02 0.  0.
         12    1    1    2    0    0 -0.81108140556E-03  0.72556098554E+00  0.93052513427E+00  0.11799645872E+01  0.00000000000E+00 0. -1.
         11    1    3    3    0    0  0.23164017184E+01 -0.11066872781E+02  0.15855188876E+01  0.11417322824E+02  0.51100000000E-03 0. -1.
        -11    1    3    3    0    0  0.65267861841E+01 -0.20385451380E+02 -0.29709250171E+02  0.36617005774E+02  0.51100000000E-03 0.  1.
         12    1    3    3    0    0 -0.88423768211E+01  0.30726763175E+02  0.27193206149E+02  0.41973706815E+02  0.00000000000E+00 0. -1.
</event>
<event>
 7    1  0.2569312E-015  0.9000779E+02  0.7816164E-02  0.1186339E+00
        -11   -1    0    0    0    0  0.00000000000E+00  0.00000000000E+00  0.45593999997E+02  0.45594000000E+02  0.51100000000E-03 0.  1.
         11   -1    0    0    0    0 -0.00000000000E+00 -0.00000000000E+00 -0.45593999997E+02  0.45594000000E+02  0.51100000000E-03 0. -1.
    9900012    2    1    2    0    0  0.13255612190E-01  0.29273949900E+00  0.11432493923E+01  0.90007791841E+02  0.90000053893E+02 0.  0.
         12    1    1    2    0    0 -0.13255612190E-01 -0.29273949900E+00 -0.11432493923E+01  0.11802081590E+01  0.00000000000E+00 0. -1.
         11    1    3    3    0    0  0.71086766614E+01 -0.10748158616E+02 -0.31632025566E+02  0.34156130331E+02  0.51100000000E-03 0. -1.
        -11    1    3    3    0    0  0.50228173281E+01 -0.13857173979E+02  0.27259399642E+01  0.14989353340E+02  0.51100000000E-03 0.  1.
        -12    1    3    3    0    0 -0.12118238377E+02  0.24898072094E+02  0.30049334994E+02  0.40862308170E+02  0.00000000000E+00 0.  1.
</event>
<event>
 7    1  0.2569312E-015  0.9000771E+02  0.7816164E-02  0.1186339E+00
        -11   -1    0    0    0    0  0.00000000000E+00  0.00000000000E+00  0.45593999997E+02  0.45594000000E+02  0.51100000000E-03 0.  1.
         11   -1    0    0    0    0 -0.00000000000E+00 -0.00000000000E+00 -0.45593999997E+02  0.45594000000E+02  0.51100000000E-03 0. -1.
    9900012    2    1    2    0    0  0.81929091687E-01  0.11653022108E+01 -0.16868184628E+00  0.90007705467E+02  0.89999966380E+02 0.  0.
         12    1    1    2    0    0 -0.81929091687E-01 -0.11653022108E+01  0.16868184628E+00  0.11802945326E+01  0.00000000000E+00 0. -1.
         11    1    3    3    0    0  0.40658826257E+01  0.76163971746E+00  0.95518720717E+01  0.10409118931E+02  0.51100000000E-03 0. -1.
        -11    1    3    3    0    0 -0.37942948819E+02  0.14676099021E+02  0.25765470914E+01  0.40763879142E+02  0.51100000000E-03 0.  1.
         12    1    3    3    0    0  0.33958995285E+02 -0.14272436527E+02 -0.12297101009E+02  0.38834707394E+02  0.00000000000E+00 0. -1.
</event>
<event>
 7    1  0.2569312E-015  0.9000776E+02  0.7816164E-02  0.1186339E+00
        -11   -1    0    0    0    0  0.00000000000E+00  0.00000000000E+00  0.45593999997E+02  0.45594000000E+02  0.51100000000E-03 0.  1.
         11   -1    0    0    0    0 -0.00000000000E+00 -0.00000000000E+00 -0.45593999997E+02  0.45594000000E+02  0.51100000000E-03 0. -1.
    9900012    2    1    2    0    0  0.51997056516E+00 -0.61852253773E+00  0.86025087328E+00  0.90007758040E+02  0.90000019646E+02 0.  0.
         12    1    1    2    0    0 -0.51997056516E+00  0.61852253773E+00 -0.86025087328E+00  0.11802419596E+01  0.00000000000E+00 0. -1.
         11    1    3    3    0    0  0.19338489353E+02 -0.26931713709E+02 -0.19869200270E+02  0.38653324480E+02  0.51100000000E-03 0. -1.
        -11    1    3    3    0    0 -0.69905000219E+00 -0.79970552718E+01  0.51803035932E+01  0.95539054582E+01  0.51100000000E-03 0.  1.
        -12    1    3    3    0    0 -0.18119468786E+02  0.34310246443E+02  0.15549147550E+02  0.41800528102E+02  0.00000000000E+00 0.  1.
</event>
<event>
 7    1  0.2569312E-015  0.9000774E+02  0.7816164E-02  0.1186339E+00
        -11   -1    0    0    0    0  0.00000000000E+00  0.00000000000E+00  0.45593999997E+02  0.45594000000E+02  0.51100000000E-03 0.  1.
         11   -1    0    0    0    0 -0.00000000000E+00 -0.00000000000E+00 -0.45593999997E+02  0.45594000000E+02  0.51100000000E-03 0. -1.
    9900012    2    1    2    0    0  0.82240364373E+00 -0.84579216406E+00 -0.35920646540E-01  0.90007744760E+02  0.90000006191E+02 0.  0.
         12    1    1    2    0    0 -0.82240364373E+00  0.84579216406E+00  0.35920646540E-01  0.11802552397E+01  0.00000000000E+00 0. -1.
         11    1    3    3    0    0 -0.52122384625E+01  0.72586612664E+00 -0.76876497375E+01  0.93163442493E+01  0.51100000000E-03 0. -1.
        -11    1    3    3    0    0 -0.32835844653E+02  0.17153374708E+02  0.11970613597E+01  0.37065670291E+02  0.51100000000E-03 0.  1.
         12    1    3    3    0    0  0.38870486759E+02 -0.18725032998E+02  0.64546677313E+01  0.43625730220E+02  0.00000000000E+00 0. -1.
</event>
<event>
 7    1  0.2569312E-015  0.9000776E+02  0.7816164E-02  0.1186339E+00
        -11   -1    0    0    0    0  0.00000000000E+00  0.00000000000E+00  0.45593999997E+02  0.45594000000E+02  0.51100000000E-03 0.  1.
         11   -1    0    0    0    0 -0.00000000000E+00 -0.00000000000E+00 -0.45593999997E+02  0.45594000000E+02  0.51100000000E-03 0. -1.
    9900012    2    1    2    0    0 -0.90409230755E+00  0.75656629829E+00  0.56463379806E-01  0.90007761220E+02  0.90000022868E+02 0.  0.
         12    1    1    2    0    0  0.90409230755E+00 -0.75656629829E+00 -0.56463379806E-01  0.11802387799E+01  0.00000000000E+00 0. -1.
         11    1    3    3    0    0 -0.12130798115E+02 -0.66868846053E+01 -0.33438640229E+02  0.36194106554E+02  0.51100000000E-03 0. -1.
        -11    1    3    3    0    0  0.11523909124E+02 -0.85327981537E+01 -0.23852115104E+01  0.14536105395E+02  0.51100000000E-03 0.  1.
        -12    1    3    3    0    0 -0.29720331659E+00  0.15976249057E+02  0.35880315119E+02  0.39277549272E+02  0.00000000000E+00 0.  1.
</event>
<event>
 7    1  0.2569312E-015  0.9000776E+02  0.7816164E-02  0.1186339E+00
        -11   -1    0    0    0    0  0.00000000000E+00  0.00000000000E+00  0.45593999997E+02  0.45594000000E+02  0.51100000000E-03 0. -1.
         11   -1    0    0    0    0 -0.00000000000E+00 -0.00000000000E+00 -0.45593999997E+02  0.45594000000E+02  0.51100000000E-03 0.  1.
    9900012    2    1    2    0    0  0.55051792968E+00 -0.29182364572E+00 -0.10023631063E+01  0.90007761538E+02  0.90000023190E+02 0.  0.
         12    1    1    2    0    0 -0.55051792968E+00  0.29182364572E+00  0.10023631063E+01  0.11802384623E+01  0.00000000000E+00 0. -1.
         11    1    3    3    0    0  0.88111527713E+01  0.30145786834E+01 -0.15675669126E+01  0.94435885173E+01  0.51100000000E-03 0. -1.
        -11    1    3    3    0    0  0.28635628017E+02  0.52774681796E+01 -0.21978905368E+02  0.36481819359E+02  0.51100000000E-03 0.  1.
         12    1    3    3    0    0 -0.36896262859E+02 -0.85838705087E+01  0.22544109174E+02  0.44082353661E+02  0.00000000000E+00 0. -1.
</event>
<event>
 7    1  0.2569312E-015  0.9000776E+02  0.7816164E-02  0.1186339E+00
        -11   -1    0    0    0    0  0.00000000000E+00  0.00000000000E+00  0.45593999997E+02  0.45594000000E+02  0.51100000000E-03 0.  1.
         11   -1    0    0    0    0 -0.00000000000E+00 -0.00000000000E+00 -0.45593999997E+02  0.45594000000E+02  0.51100000000E-03 0. -1.
    9900012    2    1    2    0    0  0.10033145290E+01  0.59701865625E+00  0.17290754034E+00  0.90007759204E+02  0.90000020825E+02 0.  0.
         12    1    1    2    0    0 -0.10033145290E+01 -0.59701865625E+00 -0.17290754034E+00  0.11802407964E+01  0.00000000000E+00 0. -1.
         11    1    3    3    0    0  0.32033302159E+01  0.39723224808E+02 -0.84128506539E+01  0.40730479619E+02  0.51100000000E-03 0. -1.
        -11    1    3    3    0    0 -0.34344653703E+00  0.46012522285E+01  0.19543833223E+01  0.50108973274E+01  0.51100000000E-03 0.  1.
        -12    1    3    3    0    0 -0.18565691498E+01 -0.43727458380E+02  0.66313748719E+01  0.44266382257E+02  0.00000000000E+00 0.  1.
</event>
<event>
 7    1  0.2569312E-015  0.9000778E+02  0.7816164E-02  0.1186339E+00
        -11   -1    0    0    0    0  0.00000000000E+00  0.00000000000E+00  0.45593999997E+02  0.45594000000E+02  0.51100000000E-03 0.  1.
         11   -1    0    0    0    0 -0.00000000000E+00 -0.00000000000E+00 -0.45593999997E+02  0.45594000000E+02  0.51100000000E-03 0. -1.
    9900012    2    1    2    0    0  0.96524126644E+00  0.64318546902E+00  0.21803650114E+00  0.90007780459E+02  0.90000042361E+02 0.  0.
         12    1    1    2    0    0 -0.96524126644E+00 -0.64318546902E+00 -0.21803650114E+00  0.11802195414E+01  0.00000000000E+00 0. -1.
         11    1    3    3    0    0  0.47539821125E+01 -0.15218120920E+02 -0.19635630166E+02  0.25293270301E+02  0.51100000000E-03 0. -1.
        -11    1    3    3    0    0  0.28890951201E+01 -0.21944476770E+02  0.15628926972E+01  0.22188951421E+02  0.51100000000E-03 0.  1.
        -12    1    3    3    0    0 -0.66778359662E+01  0.37805783159E+02  0.18290773970E+02  0.42525558736E+02  0.00000000000E+00 0.  1.
</event>
<event>
 7    1  0.2569312E-015  0.9000814E+02  0.7816164E-02  0.1186338E+00
        -11   -1    0    0    0    0  0.00000000000E+00  0.00000000000E+00  0.45593999997E+02  0.45594000000E+02  0.51100000000E-03 0. -1.
         11   -1    0    0    0    0 -0.00000000000E+00 -0.00000000000E+00 -0.45593999997E+02  0.45594000000E+02  0.51100000000E-03 0.  1.
    9900012    2    1    2    0    0  0.71370925881E-01 -0.63251883645E+00 -0.99342991098E+00  0.90008136925E+02  0.90000403532E+02 0.  0.
         12    1    1    2    0    0 -0.71370925881E-01  0.63251883645E+00  0.99342991098E+00  0.11798630749E+01  0.00000000000E+00 0. -1.
         11    1    3    3    0    0 -0.14404685266E+01  0.47128895151E+01 -0.70948672266E+01  0.86384847271E+01  0.51100000000E-03 0. -1.
        -11    1    3    3    0    0 -0.80141527525E+01  0.80341118648E+01 -0.35167229334E+02  0.36952775499E+02  0.51100000000E-03 0.  1.
         12    1    3    3    0    0  0.95259922050E+01 -0.13379520216E+02  0.41268666649E+02  0.44416876699E+02  0.00000000000E+00 0. -1.
</event>
<event>
 7    1  0.2569312E-015  0.9000773E+02  0.7816164E-02  0.1186339E+00
        -11   -1    0    0    0    0  0.00000000000E+00  0.00000000000E+00  0.45593999997E+02  0.45594000000E+02  0.51100000000E-03 0.  1.
         11   -1    0    0    0    0 -0.00000000000E+00 -0.00000000000E+00 -0.45593999997E+02  0.45594000000E+02  0.51100000000E-03 0. -1.
    9900012    2    1    2    0    0 -0.84438382177E+00 -0.27903698346E+00  0.77600947136E+00  0.90007730380E+02  0.89999991621E+02 0.  0.
         12    1    1    2    0    0  0.84438382177E+00  0.27903698346E+00 -0.77600947136E+00  0.11802696201E+01  0.00000000000E+00 0. -1.
         11    1    3    3    0    0  0.56506262747E-01 -0.62778701319E+01 -0.59646528240E+01  0.86597880991E+01  0.51100000000E-03 0. -1.
        -11    1    3    3    0    0 -0.21177855902E+02  0.14270966501E+02  0.36409216611E+02  0.44472386039E+02  0.51100000000E-03 0.  1.
         12    1    3    3    0    0  0.20276965818E+02 -0.82721333526E+01 -0.29668554316E+02  0.36875556242E+02  0.00000000000E+00 0. -1.
</event>
<event>
 7    1  0.2569312E-015  0.9000766E+02  0.7816164E-02  0.1186339E+00
        -11   -1    0    0    0    0  0.00000000000E+00  0.00000000000E+00  0.45593999997E+02  0.45594000000E+02  0.51100000000E-03 0.  1.
         11   -1    0    0    0    0 -0.00000000000E+00 -0.00000000000E+00 -0.45593999997E+02  0.45594000000E+02  0.51100000000E-03 0. -1.
    9900012    2    1    2    0    0  0.36540680065E+00  0.87276881422E+00  0.70565231867E+00  0.90007664146E+02  0.89999924513E+02 0.  0.
         12    1    1    2    0    0 -0.36540680065E+00 -0.87276881422E+00 -0.70565231867E+00  0.11803358538E+01  0.00000000000E+00 0. -1.
         11    1    3    3    0    0  0.15004348168E+02  0.20476763232E+02 -0.30463686272E+02  0.39654312224E+02  0.51100000000E-03 0. -1.
        -11    1    3    3    0    0  0.49513026947E+01 -0.39916081898E+01 -0.37460710283E+01  0.73811505015E+01  0.51100000000E-03 0.  1.
        -12    1    3    3    0    0 -0.19590244062E+02 -0.15612386228E+02  0.34915409619E+02  0.42972201421E+02  0.00000000000E+00 0.  1.
</event>
<event>
 7    1  0.2569312E-015  0.9000773E+02  0.7816164E-02  0.1186339E+00
        -11   -1    0    0    0    0  0.00000000000E+00  0.00000000000E+00  0.45593999997E+02  0.45594000000E+02  0.51100000000E-03 0.  1.
         11   -1    0    0    0    0 -0.00000000000E+00 -0.00000000000E+00 -0.45593999997E+02  0.45594000000E+02  0.51100000000E-03 0. -1.
    9900012    2    1    2    0    0 -0.85136862188E-01 -0.87606432058E+00  0.78631610232E+00  0.90007733084E+02  0.89999994361E+02 0.  0.
         12    1    1    2    0    0  0.85136862188E-01  0.87606432058E+00 -0.78631610232E+00  0.11802669155E+01  0.00000000000E+00 0. -1.
         11    1    3    3    0    0  0.96759956327E+01 -0.84362471645E+01 -0.33283491783E+02  0.35673323131E+02  0.51100000000E-03 0. -1.
        -11    1    3    3    0    0  0.27704732461E+00 -0.45915045456E+01 -0.81001764677E+01  0.93151236321E+01  0.51100000000E-03 0.  1.
        -12    1    3    3    0    0 -0.10038179820E+02  0.12151687390E+02  0.42169984353E+02  0.45019286321E+02  0.00000000000E+00 0.  1.
</event>
<event>
 7    1  0.2569312E-015  0.9000770E+02  0.7816164E-02  0.1186339E+00
        -11   -1    0    0    0    0  0.00000000000E+00  0.00000000000E+00  0.45593999997E+02  0.45594000000E+02  0.51100000000E-03 0. -1.
         11   -1    0    0    0    0 -0.00000000000E+00 -0.00000000000E+00 -0.45593999997E+02  0.45594000000E+02  0.51100000000E-03 0.  1.
    9900012    2    1    2    0    0  0.11216386772E+00 -0.43246881389E+00 -0.10924724332E+01  0.90007700875E+02  0.89999961726E+02 0.  0.
         12    1    1    2    0    0 -0.11216386772E+00  0.43246881389E+00  0.10924724332E+01  0.11802991255E+01  0.00000000000E+00 0. -1.
         11    1    3    3    0    0  0.50566182358E+01  0.86387597560E+01  0.26907132686E+01  0.10365206040E+02  0.51100000000E-03 0. -1.
        -11    1    3    3    0    0 -0.15915489546E+02  0.27773472922E+02 -0.20188506090E+02  0.37845004743E+02  0.51100000000E-03 0.  1.
         12    1    3    3    0    0  0.10971035178E+02 -0.36844701492E+02  0.16405320388E+02  0.41797490091E+02  0.00000000000E+00 0. -1.
</event>
<event>
 7    1  0.2569312E-015  0.9000773E+02  0.7816164E-02  0.1186339E+00
        -11   -1    0    0    0    0  0.00000000000E+00  0.00000000000E+00  0.45593999997E+02  0.45594000000E+02  0.51100000000E-03 0.  1.
         11   -1    0    0    0    0 -0.00000000000E+00 -0.00000000000E+00 -0.45593999997E+02  0.45594000000E+02  0.51100000000E-03 0. -1.
    9900012    2    1    2    0    0  0.43331018747E+00  0.70360054157E+00  0.84275287425E+00  0.90007727215E+02  0.89999988414E+02 0.  0.
         12    1    1    2    0    0 -0.43331018747E+00 -0.70360054157E+00 -0.84275287425E+00  0.11802727853E+01  0.00000000000E+00 0. -1.
         11    1    3    3    0    0 -0.12317696632E+02  0.37129029681E+02 -0.12362843912E+02  0.41025972326E+02  0.51100000000E-03 0. -1.
        -11    1    3    3    0    0  0.90235298480E+01  0.95617866049E+00  0.55682131750E+01  0.10646284177E+02  0.51100000000E-03 0.  1.
        -12    1    3    3    0    0  0.37274769713E+01 -0.37381607800E+02  0.76373836118E+01  0.38335470712E+02  0.00000000000E+00 0.  1.
</event>
<event>
 7    1  0.2569312E-015  0.9000788E+02  0.7816164E-02  0.1186339E+00
        -11   -1    0    0    0    0  0.00000000000E+00  0.00000000000E+00  0.45593999997E+02  0.45594000000E+02  0.51100000000E-03 0. -1.
         11   -1    0    0    0    0 -0.00000000000E+00 -0.00000000000E+00 -0.45593999997E+02  0.45594000000E+02  0.51100000000E-03 0.  1.
    9900012    2    1    2    0    0  0.24310365044E+00 -0.11376185910E+01 -0.19852788697E+00  0.90007877648E+02  0.90000140833E+02 0.  0.
         12    1    1    2    0    0 -0.24310365044E+00  0.11376185910E+01  0.19852788697E+00  0.11801223519E+01  0.00000000000E+00 0. -1.
         11    1    3    3    0    0 -0.37235658495E+02 -0.74007308181E+01  0.12670664611E+00  0.37964208605E+02  0.51100000000E-03 0. -1.
        -11    1    3    3    0    0 -0.42037291942E+01  0.90749325321E+01  0.20098537604E+01  0.10201237768E+02  0.51100000000E-03 0.  1.
        -12    1    3    3    0    0  0.41682491339E+02 -0.28118203050E+01 -0.23350882935E+01  0.41842431275E+02  0.00000000000E+00 0.  1.
</event>
<event>
 7    1  0.2569312E-015  0.9000729E+02  0.7816164E-02  0.1186340E+00
        -11   -1    0    0    0    0  0.00000000000E+00  0.00000000000E+00  0.45593999997E+02  0.45594000000E+02  0.51100000000E-03 0. -1.
         11   -1    0    0    0    0 -0.00000000000E+00 -0.00000000000E+00 -0.45593999997E+02  0.45594000000E+02  0.51100000000E-03 0.  1.
    9900012    2    1    2    0    0  0.52825347038E+00  0.86196305903E+00 -0.60996251402E+00  0.90007285677E+02  0.89999541047E+02 0.  0.
         12    1    1    2    0    0 -0.52825347038E+00 -0.86196305903E+00  0.60996251402E+00  0.11807143230E+01  0.00000000000E+00 0. -1.
         11    1    3    3    0    0  0.12297389170E+01 -0.42556695033E+01 -0.57391521970E+01  0.72498861320E+01  0.51100000000E-03 0. -1.
        -11    1    3    3    0    0 -0.26431354260E+02  0.26429774932E+02  0.23967189488E+02  0.44402428574E+02  0.51100000000E-03 0.  1.
         12    1    3    3    0    0  0.25729868814E+02 -0.21312142370E+02 -0.18837999805E+02  0.38354970971E+02  0.00000000000E+00 0. -1.
</event>
<event>
 7    1  0.2569312E-015  0.9000779E+02  0.7816164E-02  0.1186339E+00
        -11   -1    0    0    0    0  0.00000000000E+00  0.00000000000E+00  0.45593999997E+02  0.45594000000E+02  0.51100000000E-03 0.  1.
         11   -1    0    0    0    0 -0.00000000000E+00 -0.00000000000E+00 -0.45593999997E+02  0.45594000000E+02  0.51100000000E-03 0. -1.
    9900012    2    1    2    0    0  0.38395677532E+00 -0.68813321637E+00  0.87860483593E+00  0.90007789601E+02  0.90000051623E+02 0.  0.
         12    1    1    2    0    0 -0.38395677532E+00  0.68813321637E+00 -0.87860483593E+00  0.11802103993E+01  0.00000000000E+00 0. -1.
         11    1    3    3    0    0  0.13040041793E+01 -0.33526656661E+00 -0.10212039368E+02  0.10300416443E+02  0.51100000000E-03 0. -1.
        -11    1    3    3    0    0  0.84448922496E+01  0.37482574389E+02  0.13322530173E+02  0.40666317738E+02  0.51100000000E-03 0.  1.
         12    1    3    3    0    0 -0.93649396536E+01 -0.37835441039E+02 -0.22318859685E+01  0.39041055420E+02  0.00000000000E+00 0. -1.
</event>
<event>
 7    1  0.2569312E-015  0.9000772E+02  0.7816164E-02  0.1186339E+00
        -11   -1    0    0    0    0  0.00000000000E+00  0.00000000000E+00  0.45593999997E+02  0.45594000000E+02  0.51100000000E-03 0. -1.
         11   -1    0    0    0    0 -0.00000000000E+00 -0.00000000000E+00 -0.45593999997E+02  0.45594000000E+02  0.51100000000E-03 0.  1.
    9900012    2    1    2    0    0  0.11058957396E+01 -0.27386493562E+00 -0.30830205995E+00  0.90007721410E+02  0.89999982533E+02 0.  0.
         12    1    1    2    0    0 -0.11058957396E+01  0.27386493562E+00  0.30830205995E+00  0.11802785900E+01  0.00000000000E+00 0. -1.
         11    1    3    3    0    0 -0.30702846640E+02  0.12068684558E+02 -0.36127078618E+01  0.33186888934E+02  0.51100000000E-03 0. -1.
        -11    1    3    3    0    0 -0.89043046778E+01  0.53106381085E+01 -0.52610834000E+01  0.11626199625E+02  0.51100000000E-03 0.  1.
        -12    1    3    3    0    0  0.40713047058E+02 -0.17653187602E+02  0.85654892018E+01  0.45194632851E+02  0.00000000000E+00 0.  1.
</event>
<event>
 7    1  0.2569312E-015  0.9000772E+02  0.7816164E-02  0.1186339E+00
        -11   -1    0    0    0    0  0.00000000000E+00  0.00000000000E+00  0.45593999997E+02  0.45594000000E+02  0.51100000000E-03 0.  1.
         11   -1    0    0    0    0 -0.00000000000E+00 -0.00000000000E+00 -0.45593999997E+02  0.45594000000E+02  0.51100000000E-03 0. -1.
    9900012    2    1    2    0    0  0.73756220400E+00 -0.91346577433E+00 -0.12103452120E+00  0.90007717372E+02  0.89999978442E+02 0.  0.
         12    1    1    2    0    0 -0.73756220400E+00  0.91346577433E+00  0.12103452120E+00  0.11802826276E+01  0.00000000000E+00 0. -1.
         11    1    3    3    0    0 -0.23333611318E+02 -0.12876969907E+02 -0.31039907701E+02  0.40911485447E+02  0.51100000000E-03 0. -1.
        -11    1    3    3    0    0 -0.35819640902E+01  0.79538885661E+01  0.21357474844E+01  0.89808812287E+01  0.51100000000E-03 0.  1.
        -12    1    3    3    0    0  0.27653137612E+02  0.40096155663E+01  0.28783125695E+02  0.40115350697E+02  0.00000000000E+00 0.  1.
</event>
<event>
 7    1  0.2569312E-015  0.9000774E+02  0.7816164E-02  0.1186339E+00
        -11   -1    0    0    0    0  0.00000000000E+00  0.00000000000E+00  0.45593999997E+02  0.45594000000E+02  0.51100000000E-03 0. -1.
         11   -1    0    0    0    0 -0.00000000000E+00 -0.00000000000E+00 -0.45593999997E+02  0.45594000000E+02  0.51100000000E-03 0.  1.
    9900012    2    1    2    0    0  0.50607011307E+00  0.83761582487E+00 -0.65977512069E+00  0.90007741368E+02  0.90000002754E+02 0.  0.
         12    1    1    2    0    0 -0.50607011307E+00 -0.83761582487E+00  0.65977512069E+00  0.11802586324E+01  0.00000000000E+00 0. -1.
         11    1    3    3    0    0 -0.28961548480E+02 -0.48642003866E+01  0.16971085256E+02  0.33918276354E+02  0.51100000000E-03 0. -1.
        -11    1    3    3    0    0 -0.78984743826E+01 -0.56163702899E+01  0.50587851980E+01  0.10932557832E+02  0.51100000000E-03 0.  1.
        -12    1    3    3    0    0  0.37366092976E+02  0.11318186501E+02 -0.22689645575E+02  0.45156907182E+02  0.00000000000E+00 0.  1.
</event>
<event>
 7    1  0.2569312E-015  0.9000725E+02  0.7816164E-02  0.1186340E+00
        -11   -1    0    0    0    0  0.00000000000E+00  0.00000000000E+00  0.45593999997E+02  0.45594000000E+02  0.51100000000E-03 0.  1.
         11   -1    0    0    0    0 -0.00000000000E+00 -0.00000000000E+00 -0.45593999997E+02  0.45594000000E+02  0.51100000000E-03 0. -1.
    9900012    2    1    2    0    0 -0.16095518522E+00  0.13250192942E+00  0.11622023110E+01  0.90007247043E+02  0.89999501903E+02 0.  0.
         12    1    1    2    0    0  0.16095518522E+00 -0.13250192942E+00 -0.11622023110E+01  0.11807529567E+01  0.00000000000E+00 0. -1.
         11    1    3    3    0    0 -0.17624546355E+01  0.16173834277E+01  0.85620526188E+01  0.88899336782E+01  0.51100000000E-03 0. -1.
        -11    1    3    3    0    0  0.41579266736E+01  0.21853673812E+01  0.36595224802E+02  0.36895455864E+02  0.51100000000E-03 0.  1.
         12    1    3    3    0    0 -0.25564272234E+01 -0.36702488794E+01 -0.43995075110E+02  0.44221857502E+02  0.00000000000E+00 0. -1.
</event>
<event>
 7    1  0.3404351E-015  0.9000779E+02  0.7816164E-02  0.1186339E+00
        -11   -1    0    0    0    0  0.00000000000E+00  0.00000000000E+00  0.45593999997E+02  0.45594000000E+02  0.51100000000E-03 0. -1.
         11   -1    0    0    0    0 -0.00000000000E+00 -0.00000000000E+00 -0.45593999997E+02  0.45594000000E+02  0.51100000000E-03 0.  1.
    9900012    2    1    2    0    0 -0.26605608579E+00  0.89159722348E+00 -0.72605345809E+00  0.90007794478E+02  0.90000056565E+02 0.  0.
         12    1    1    2    0    0  0.26605608579E+00 -0.89159722348E+00  0.72605345809E+00  0.11802055218E+01  0.00000000000E+00 0. -1.
         11    1    3    3    0    0 -0.29028268375E+02  0.53950196073E+01  0.24765332990E+02  0.38536584174E+02  0.51100000000E-03 0. -1.
        -11    1    3    3    0    0 -0.16603068792E+01 -0.82953133713E+01  0.36125809889E+01  0.91988903963E+01  0.51100000000E-03 0.  1.
        -12    1    3    3    0    0  0.30422519168E+02  0.37918909875E+01 -0.29103967437E+02  0.42272319908E+02  0.00000000000E+00 0.  1.
</event>
<event>
 7    1  0.2569312E-015  0.9000779E+02  0.7816164E-02  0.1186339E+00
        -11   -1    0    0    0    0  0.00000000000E+00  0.00000000000E+00  0.45593999997E+02  0.45594000000E+02  0.51100000000E-03 0.  1.
         11   -1    0    0    0    0 -0.00000000000E+00 -0.00000000000E+00 -0.45593999997E+02  0.45594000000E+02  0.51100000000E-03 0. -1.
    9900012    2    1    2    0    0  0.37312109482E+00 -0.74001534691E+00  0.84027314556E+00  0.90007787721E+02  0.90000049719E+02 0.  0.
         12    1    1    2    0    0 -0.37312109482E+00  0.74001534691E+00 -0.84027314556E+00  0.11802122793E+01  0.00000000000E+00 0. -1.
         11    1    3    3    0    0  0.12376605459E+02 -0.30911113455E+02 -0.24893699505E+02  0.41573712524E+02  0.51100000000E-03 0. -1.
        -11    1    3    3    0    0 -0.47029208743E+01 -0.39441125089E+01  0.35459565107E+01  0.70885327163E+01  0.51100000000E-03 0.  1.
        -12    1    3    3    0    0 -0.73005634903E+01  0.34115210617E+02  0.22188016140E+02  0.41345542480E+02  0.00000000000E+00 0.  1.
</event>
<event>
 7    1  0.2569312E-015  0.9000772E+02  0.7816164E-02  0.1186339E+00
        -11   -1    0    0    0    0  0.00000000000E+00  0.00000000000E+00  0.45593999997E+02  0.45594000000E+02  0.51100000000E-03 0. -1.
         11   -1    0    0    0    0 -0.00000000000E+00 -0.00000000000E+00 -0.45593999997E+02  0.45594000000E+02  0.51100000000E-03 0.  1.
    9900012    2    1    2    0    0 -0.27771401834E+00  0.17431676358E+00 -0.11338248849E+01  0.90007716017E+02  0.89999977069E+02 0.  0.
         12    1    1    2    0    0  0.27771401834E+00 -0.17431676358E+00  0.11338248849E+01  0.11802839826E+01  0.00000000000E+00 0. -1.
         11    1    3    3    0    0 -0.14202224913E+02 -0.31535654378E+02 -0.57424257093E+01  0.35059608423E+02  0.51100000000E-03 0. -1.
        -11    1    3    3    0    0  0.86995974681E+00 -0.10494807667E+02  0.75335569271E-03  0.10530803329E+02  0.51100000000E-03 0.  1.
        -12    1    3    3    0    0  0.13054551148E+02  0.42204778808E+02  0.46078474687E+01  0.44417304265E+02  0.00000000000E+00 0.  1.
</event>
<event>
 7    1  0.2569312E-015  0.9000767E+02  0.7816164E-02  0.1186339E+00
        -11   -1    0    0    0    0  0.00000000000E+00  0.00000000000E+00  0.45593999997E+02  0.45594000000E+02  0.51100000000E-03 0.  1.
         11   -1    0    0    0    0 -0.00000000000E+00 -0.00000000000E+00 -0.45593999997E+02  0.45594000000E+02  0.51100000000E-03 0. -1.
    9900012    2    1    2    0    0 -0.81884996230E+00  0.84671532302E+00  0.75792356782E-01  0.90007666750E+02  0.89999927151E+02 0.  0.
         12    1    1    2    0    0  0.81884996230E+00 -0.84671532302E+00 -0.75792356782E-01  0.11803332497E+01  0.00000000000E+00 0. -1.
         11    1    3    3    0    0  0.11728099881E+02 -0.22417433804E+02 -0.25993301601E+02  0.36273149760E+02  0.51100000000E-03 0. -1.
        -11    1    3    3    0    0  0.43048415921E+01 -0.13856174964E+01 -0.75306065782E+01  0.87841694358E+01  0.51100000000E-03 0.  1.
        -12    1    3    3    0    0 -0.16851791435E+02  0.24649766623E+02  0.33599700536E+02  0.44950347554E+02  0.00000000000E+00 0.  1.
</event>
<event>
 7    1  0.2569312E-015  0.9000783E+02  0.7816164E-02  0.1186339E+00
        -11   -1    0    0    0    0  0.00000000000E+00  0.00000000000E+00  0.45593999997E+02  0.45594000000E+02  0.51100000000E-03 0.  1.
         11   -1    0    0    0    0 -0.00000000000E+00 -0.00000000000E+00 -0.45593999997E+02  0.45594000000E+02  0.51100000000E-03 0. -1.
    9900012    2    1    2    0    0  0.10524907907E+01  0.49278147847E+00 -0.20547442782E+00  0.90007834677E+02  0.90000097294E+02 0.  0.
         12    1    1    2    0    0 -0.10524907907E+01 -0.49278147847E+00  0.20547442782E+00  0.11801653234E+01  0.00000000000E+00 0. -1.
         11    1    3    3    0    0 -0.49493769498E+01 -0.34026860506E+01 -0.10510601069E+02  0.12105673862E+02  0.51100000000E-03 0. -1.
        -11    1    3    3    0    0  0.77775579298E+01  0.40076612480E+02  0.28912501046E+01  0.40926575750E+02  0.51100000000E-03 0.  1.
         12    1    3    3    0    0 -0.17756901893E+01 -0.36181144951E+02  0.74138765369E+01  0.36975585065E+02  0.00000000000E+00 0. -1.
</event>
<event>
 7    1  0.2569312E-015  0.9000750E+02  0.7816164E-02  0.1186340E+00
        -11   -1    0    0    0    0  0.00000000000E+00  0.00000000000E+00  0.45593999997E+02  0.45594000000E+02  0.51100000000E-03 0.  1.
         11   -1    0    0    0    0 -0.00000000000E+00 -0.00000000000E+00 -0.45593999997E+02  0.45594000000E+02  0.51100000000E-03 0. -1.
    9900012    2    1    2    0    0 -0.29320649763E+00 -0.30593956624E+00  0.11018198565E+01  0.90007501773E+02  0.89999759996E+02 0.  0.
         12    1    1    2    0    0  0.29320649763E+00  0.30593956624E+00 -0.11018198565E+01  0.11804982273E+01  0.00000000000E+00 0. -1.
         11    1    3    3    0    0  0.14842286322E+02  0.33351209779E+02 -0.79818990892E+01  0.37367196447E+02  0.51100000000E-03 0. -1.
        -11    1    3    3    0    0  0.93463895221E+01  0.10021071585E+01  0.21668238257E+01  0.96464678307E+01  0.51100000000E-03 0.  1.
        -12    1    3    3    0    0 -0.24481882342E+02 -0.34659256504E+02  0.69168951200E+01  0.42993837495E+02  0.00000000000E+00 0.  1.
</event>
<event>
 7    1  0.2569312E-015  0.9000764E+02  0.7816164E-02  0.1186339E+00
        -11   -1    0    0    0    0  0.00000000000E+00  0.00000000000E+00  0.45593999997E+02  0.45594000000E+02  0.51100000000E-03 0. -1.
         11   -1    0    0    0    0 -0.00000000000E+00 -0.00000000000E+00 -0.45593999997E+02  0.45594000000E+02  0.51100000000E-03 0.  1.
    9900012    2    1    2    0    0  0.10163382158E+01 -0.14342714004E+00  0.58286078312E+00  0.90007643526E+02  0.89999903620E+02 0.  0.
         12    1    1    2    0    0 -0.10163382158E+01  0.14342714004E+00 -0.58286078312E+00  0.11803564741E+01  0.00000000000E+00 0. -1.
         11    1    3    3    0    0  0.19347195747E+01 -0.33864908177E+02  0.12856445760E+02  0.36274830717E+02  0.51100000000E-03 0. -1.
        -11    1    3    3    0    0 -0.47620579748E+01 -0.70546868417E+01 -0.93914781670E+01  0.12674607095E+02  0.51100000000E-03 0.  1.
        -12    1    3    3    0    0  0.38436766160E+01  0.40776167879E+02 -0.28821068097E+01  0.41058205714E+02  0.00000000000E+00 0.  1.
</event>
<event>
 7    1  0.2569312E-015  0.9000777E+02  0.7816164E-02  0.1186339E+00
        -11   -1    0    0    0    0  0.00000000000E+00  0.00000000000E+00  0.45593999997E+02  0.45594000000E+02  0.51100000000E-03 0.  1.
         11   -1    0    0    0    0 -0.00000000000E+00 -0.00000000000E+00 -0.45593999997E+02  0.45594000000E+02  0.51100000000E-03 0. -1.
    9900012    2    1    2    0    0  0.21110131687E+00  0.78542970975E+00  0.85526218840E+00  0.90007772477E+02  0.90000034274E+02 0.  0.
         12    1    1    2    0    0 -0.21110131687E+00 -0.78542970975E+00 -0.85526218840E+00  0.11802275229E+01  0.00000000000E+00 0. -1.
         11    1    3    3    0    0 -0.21891611062E+01  0.60384638405E+01  0.73099824624E+01  0.97309462934E+01  0.51100000000E-03 0. -1.
        -11    1    3    3    0    0 -0.99854371336E+01  0.34163120855E+02 -0.14055307507E+02  0.38267211169E+02  0.51100000000E-03 0.  1.
         12    1    3    3    0    0  0.12385699557E+02 -0.39416154986E+02  0.76005872331E+01  0.42009615014E+02  0.00000000000E+00 0. -1.
</event>
<event>
 7    1  0.2569312E-015  0.9000768E+02  0.7816164E-02  0.1186339E+00
        -11   -1    0    0    0    0  0.00000000000E+00  0.00000000000E+00  0.45593999997E+02  0.45594000000E+02  0.51100000000E-03 0. -1.
         11   -1    0    0    0    0 -0.00000000000E+00 -0.00000000000E+00 -0.45593999997E+02  0.45594000000E+02  0.51100000000E-03 0.  1.
    9900012    2    1    2    0    0  0.19203608706E+00 -0.64630621714E+00 -0.96879539378E+00  0.90007680509E+02  0.89999941092E+02 0.  0.
         12    1    1    2    0    0 -0.19203608706E+00  0.64630621714E+00  0.96879539378E+00  0.11803194907E+01  0.00000000000E+00 0. -1.
         11    1    3    3    0    0 -0.28203804868E+01  0.66775639205E+01 -0.64903658786E+01  0.97298127167E+01  0.51100000000E-03 0. -1.
        -11    1    3    3    0    0 -0.10493814997E+02  0.33473762177E+02 -0.64461372465E+01  0.35667430425E+02  0.51100000000E-03 0.  1.
         12    1    3    3    0    0  0.13506231571E+02 -0.40797632315E+02  0.11967707731E+02  0.44610437367E+02  0.00000000000E+00 0. -1.
</event>
<event>
 7    1  0.2569312E-015  0.9000772E+02  0.7816164E-02  0.1186339E+00
        -11   -1    0    0    0    0  0.00000000000E+00  0.00000000000E+00  0.45593999997E+02  0.45594000000E+02  0.51100000000E-03 0.  1.
         11   -1    0    0    0    0 -0.00000000000E+00 -0.00000000000E+00 -0.45593999997E+02  0.45594000000E+02  0.51100000000E-03 0. -1.
    9900012    2    1    2    0    0 -0.85173961084E+00  0.72498278655E+00 -0.37683801061E+00  0.90007717283E+02  0.89999978351E+02 0.  0.
         12    1    1    2    0    0  0.85173961084E+00 -0.72498278655E+00  0.37683801061E+00  0.11802827169E+01  0.00000000000E+00 0. -1.
         11    1    3    3    0    0  0.35991260291E+02  0.62462058641E+01 -0.16889224405E+02  0.40244649412E+02  0.51100000000E-03 0. -1.
        -11    1    3    3    0    0  0.11838535332E+01 -0.81497041245E+01  0.31949490371E-01  0.82353025163E+01  0.51100000000E-03 0.  1.
        -12    1    3    3    0    0 -0.38026853435E+02  0.26284810469E+01  0.16480436904E+02  0.41527765355E+02  0.00000000000E+00 0.  1.
</event>
<event>
 7    1  0.2961798E-015  0.9000808E+02  0.7816164E-02  0.1186338E+00
        -11   -1    0    0    0    0  0.00000000000E+00  0.00000000000E+00  0.45593999997E+02  0.45594000000E+02  0.51100000000E-03 0. -1.
         11   -1    0    0    0    0 -0.00000000000E+00 -0.00000000000E+00 -0.45593999997E+02  0.45594000000E+02  0.51100000000E-03 0.  1.
    9900012    2    1    2    0    0  0.60608226246E+00 -0.24093705962E+00 -0.98327447701E+00  0.90008078362E+02  0.90000344195E+02 0.  0.
         12    1    1    2    0    0 -0.60608226246E+00  0.24093705962E+00  0.98327447701E+00  0.11799216384E+01  0.00000000000E+00 0. -1.
         11    1    3    3    0    0 -0.35196719479E+02  0.12617557864E+02  0.42678242364E+00  0.37392432016E+02  0.51100000000E-03 0. -1.
        -11    1    3    3    0    0 -0.13815973425E+01  0.88078697430E+01  0.28726053748E+01  0.93669227885E+01  0.51100000000E-03 0.  1.
        -12    1    3    3    0    0  0.37184399084E+02 -0.21666364667E+02 -0.42826622754E+01  0.43248723557E+02  0.00000000000E+00 0.  1.
</event>
<event>
 7    1  0.2569312E-015  0.9000765E+02  0.7816164E-02  0.1186339E+00
        -11   -1    0    0    0    0  0.00000000000E+00  0.00000000000E+00  0.45593999997E+02  0.45594000000E+02  0.51100000000E-03 0.  1.
         11   -1    0    0    0    0 -0.00000000000E+00 -0.00000000000E+00 -0.45593999997E+02  0.45594000000E+02  0.51100000000E-03 0. -1.
    9900012    2    1    2    0    0 -0.87401184252E+00  0.23807099766E+00  0.75673968031E+00  0.90007648593E+02  0.89999908754E+02 0.  0.
         12    1    1    2    0    0  0.87401184252E+00 -0.23807099766E+00 -0.75673968031E+00  0.11803514072E+01  0.00000000000E+00 0. -1.
         11    1    3    3    0    0  0.18474230674E+02  0.12104943783E+01 -0.22261610765E+02  0.28954132861E+02  0.51100000000E-03 0. -1.
        -11    1    3    3    0    0  0.17326021722E+02 -0.59227390579E+01  0.18084271600E+01  0.18399464006E+02  0.51100000000E-03 0.  1.
        -12    1    3    3    0    0 -0.36674264239E+02  0.49503156773E+01  0.21209923285E+02  0.42654051725E+02  0.00000000000E+00 0.  1.
</event>
<event>
 7    1  0.2569312E-015  0.9000777E+02  0.7816164E-02  0.1186339E+00
        -11   -1    0    0    0    0  0.00000000000E+00  0.00000000000E+00  0.45593999997E+02  0.45594000000E+02  0.51100000000E-03 0.  1.
         11   -1    0    0    0    0 -0.00000000000E+00 -0.00000000000E+00 -0.45593999997E+02  0.45594000000E+02  0.51100000000E-03 0. -1.
    9900012    2    1    2    0    0 -0.94647519033E+00  0.15756373878E+00  0.68724153362E+00  0.90007770131E+02  0.90000031897E+02 0.  0.
         12    1    1    2    0    0  0.94647519033E+00 -0.15756373878E+00 -0.68724153362E+00  0.11802298688E+01  0.00000000000E+00 0. -1.
         11    1    3    3    0    0 -0.14299343132E+02  0.19509107834E+02 -0.36391751972E+02  0.43697095033E+02  0.51100000000E-03 0. -1.
        -11    1    3    3    0    0  0.24895723687E+01 -0.50597598440E+01  0.62169064670E+00  0.56732389143E+01  0.51100000000E-03 0.  1.
        -12    1    3    3    0    0  0.10863295573E+02 -0.14291784251E+02  0.36457302859E+02  0.40637436183E+02  0.00000000000E+00 0.  1.
</event>
<event>
 7    1  0.2569312E-015  0.9000774E+02  0.7816164E-02  0.1186339E+00
        -11   -1    0    0    0    0  0.00000000000E+00  0.00000000000E+00  0.45593999997E+02  0.45594000000E+02  0.51100000000E-03 0. -1.
         11   -1    0    0    0    0 -0.00000000000E+00 -0.00000000000E+00 -0.45593999997E+02  0.45594000000E+02  0.51100000000E-03 0.  1.
    9900012    2    1    2    0    0  0.16839100922E+00  0.36385289162E+00 -0.11100758233E+01  0.90007740371E+02  0.90000001744E+02 0.  0.
         12    1    1    2    0    0 -0.16839100922E+00 -0.36385289162E+00  0.11100758233E+01  0.11802596291E+01  0.00000000000E+00 0. -1.
         11    1    3    3    0    0 -0.76052733537E+01  0.10902457565E+02  0.14186290503E+02  0.19441054556E+02  0.51100000000E-03 0. -1.
        -11    1    3    3    0    0  0.14651349781E+02 -0.35993096784E+02  0.21990177134E+01  0.38923010491E+02  0.51100000000E-03 0.  1.
         12    1    3    3    0    0 -0.68776854181E+01  0.25454492111E+02 -0.17495384039E+02  0.31643675324E+02  0.00000000000E+00 0. -1.
</event>
<event>
 8    1  0.2569312E-015  0.9000774E+02  0.7816164E-02  0.1186339E+00
        -11   -1    0    0    0    0  0.00000000000E+00  0.00000000000E+00  0.45593999997E+02  0.45594000000E+02  0.51100000000E-03 0. -1.
         11   -1    0    0    0    0 -0.00000000000E+00 -0.00000000000E+00 -0.45593999997E+02  0.45594000000E+02  0.51100000000E-03 0.  1.
    9900012    2    1    2    0    0 -0.91146862350E+00 -0.23038828526E+00 -0.71354744706E+00  0.90007744192E+02  0.90000005615E+02 0.  0.
         23    2    3    3    0    0 -0.32938577854E+00 -0.12551966851E+02 -0.22774108999E+02  0.64732687421E+02  0.59279004826E+02 0.  0.
         12    1    1    2    0    0  0.91146862350E+00  0.23038828526E+00  0.71354744706E+00  0.11802558082E+01  0.00000000000E+00 0. -1.
         11    1    4    4    0    0 -0.19653278586E+02  0.31164778438E+01  0.11037389455E+02  0.22754950221E+02  0.51100000000E-03 0. -1.
        -11    1    4    4    0    0  0.19323892807E+02 -0.15668444695E+02 -0.33811498455E+02  0.41977737199E+02  0.51100000000E-03 0.  1.
         12    1    3    3    0    0 -0.58208284497E+00  0.12321578565E+02  0.22060561552E+02  0.25275056771E+02  0.00000000000E+00 0. -1.
</event>
<event>
 7    1  0.2569312E-015  0.9000770E+02  0.7816164E-02  0.1186339E+00
        -11   -1    0    0    0    0  0.00000000000E+00  0.00000000000E+00  0.45593999997E+02  0.45594000000E+02  0.51100000000E-03 0.  1.
         11   -1    0    0    0    0 -0.00000000000E+00 -0.00000000000E+00 -0.45593999997E+02  0.45594000000E+02  0.51100000000E-03 0. -1.
    9900012    2    1    2    0    0 -0.36866335834E+00 -0.27245695416E+00  0.10876427294E+01  0.90007698271E+02  0.89999959089E+02 0.  0.
         12    1    1    2    0    0  0.36866335834E+00  0.27245695416E+00 -0.10876427294E+01  0.11803017286E+01  0.00000000000E+00 0. -1.
         11    1    3    3    0    0 -0.23274476810E+02  0.24312717133E+02 -0.90618276138E+01  0.34855791558E+02  0.51100000000E-03 0. -1.
        -11    1    3    3    0    0 -0.62930158008E+01  0.65165634161E+01 -0.44102092675E+01  0.10075593912E+02  0.51100000000E-03 0.  1.
        -12    1    3    3    0    0  0.29198829253E+02 -0.31101737503E+02  0.14559679611E+02  0.45076312802E+02  0.00000000000E+00 0.  1.
</event>
<event>
 7    1  0.2569312E-015  0.9000774E+02  0.7816164E-02  0.1186339E+00
        -11   -1    0    0    0    0  0.00000000000E+00  0.00000000000E+00  0.45593999997E+02  0.45594000000E+02  0.51100000000E-03 0.  1.
         11   -1    0    0    0    0 -0.00000000000E+00 -0.00000000000E+00 -0.45593999997E+02  0.45594000000E+02  0.51100000000E-03 0. -1.
    9900012    2    1    2    0    0  0.26273705607E-01  0.70834475606E+00  0.94369611913E+00  0.90007743686E+02  0.90000005103E+02 0.  0.
         12    1    1    2    0    0 -0.26273705607E-01 -0.70834475606E+00 -0.94369611913E+00  0.11802563138E+01  0.00000000000E+00 0. -1.
         11    1    3    3    0    0  0.17181779173E+02  0.17131730447E+02 -0.26575842291E+02  0.35985901647E+02  0.51100000000E-03 0. -1.
        -11    1    3    3    0    0  0.89271095685E+01  0.33098786315E+00 -0.40216446835E+01  0.97967578533E+01  0.51100000000E-03 0.  1.
        -12    1    3    3    0    0 -0.26082615036E+02 -0.16754373554E+02  0.31541183093E+02  0.44225084186E+02  0.00000000000E+00 0.  1.
</event>
<event>
 7    1  0.2569312E-015  0.9000773E+02  0.7816164E-02  0.1186339E+00
        -11   -1    0    0    0    0  0.00000000000E+00  0.00000000000E+00  0.45593999997E+02  0.45594000000E+02  0.51100000000E-03 0.  1.
         11   -1    0    0    0    0 -0.00000000000E+00 -0.00000000000E+00 -0.45593999997E+02  0.45594000000E+02  0.51100000000E-03 0. -1.
    9900012    2    1    2    0    0 -0.88157885624E+00 -0.73235079847E+00 -0.28198239593E+00  0.90007731792E+02  0.89999993051E+02 0.  0.
         12    1    1    2    0    0  0.88157885624E+00  0.73235079847E+00  0.28198239593E+00  0.11802682083E+01  0.00000000000E+00 0. -1.
         11    1    3    3    0    0 -0.27856699168E+01  0.35529179236E+02  0.76917810436E+01  0.36458826502E+02  0.51100000000E-03 0. -1.
        -11    1    3    3    0    0  0.16290032333E-01  0.64240804003E+01  0.58013769028E+01  0.86559256342E+01  0.51100000000E-03 0.  1.
        -12    1    3    3    0    0  0.18878010282E+01 -0.42685610434E+02 -0.13775140342E+02  0.44892979655E+02  0.00000000000E+00 0.  1.
</event>
<event>
 7    1  0.3511801E-015  0.9000782E+02  0.7816164E-02  0.1186339E+00
        -11   -1    0    0    0    0  0.00000000000E+00  0.00000000000E+00  0.45593999997E+02  0.45594000000E+02  0.51100000000E-03 0.  1.
         11   -1    0    0    0    0 -0.00000000000E+00 -0.00000000000E+00 -0.45593999997E+02  0.45594000000E+02  0.51100000000E-03 0. -1.
    9900012    2    1    2    0    0  0.68971813538E+00  0.88632625230E+00  0.36266815589E+00  0.90007824791E+02  0.90000087279E+02 0.  0.
         12    1    1    2    0    0 -0.68971813538E+00 -0.88632625230E+00 -0.36266815589E+00  0.11801752086E+01  0.00000000000E+00 0. -1.
         11    1    3    3    0    0 -0.84950782616E+01 -0.15111347887E+02 -0.31102964959E+02  0.35607774701E+02  0.51100000000E-03 0. -1.
        -11    1    3    3    0    0 -0.73884072250E+00 -0.80361824467E+00 -0.92161346613E+01  0.92805617423E+01  0.51100000000E-03 0.  1.
        -12    1    3    3    0    0  0.99236371195E+01  0.16801292384E+02  0.40681767776E+02  0.45119488349E+02  0.00000000000E+00 0.  1.
</event>
<event>
 7    1  0.2569312E-015  0.9000775E+02  0.7816164E-02  0.1186339E+00
        -11   -1    0    0    0    0  0.00000000000E+00  0.00000000000E+00  0.45593999997E+02  0.45594000000E+02  0.51100000000E-03 0. -1.
         11   -1    0    0    0    0 -0.00000000000E+00 -0.00000000000E+00 -0.45593999997E+02  0.45594000000E+02  0.51100000000E-03 0.  1.
    9900012    2    1    2    0    0 -0.11679161981E+01  0.11432778854E+00  0.12602251614E+00  0.90007753939E+02  0.90000015491E+02 0.  0.
         12    1    1    2    0    0  0.11679161981E+01 -0.11432778854E+00 -0.12602251614E+00  0.11802460606E+01  0.00000000000E+00 0. -1.
         11    1    3    3    0    0  0.17486534585E+02 -0.34866707577E+01  0.95922981380E+01  0.20247171373E+02  0.51100000000E-03 0. -1.
        -11    1    3    3    0    0  0.26298204151E+01 -0.28656388048E+02 -0.11665688402E+02  0.31051454355E+02  0.51100000000E-03 0.  1.
        -12    1    3    3    0    0 -0.21284271198E+02  0.32257386594E+02  0.21994127804E+01  0.38709128212E+02  0.00000000000E+00 0.  1.
</event>
<event>
 7    1  0.2569312E-015  0.9000774E+02  0.7816164E-02  0.1186339E+00
        -11   -1    0    0    0    0  0.00000000000E+00  0.00000000000E+00  0.45593999997E+02  0.45594000000E+02  0.51100000000E-03 0. -1.
         11   -1    0    0    0    0 -0.00000000000E+00 -0.00000000000E+00 -0.45593999997E+02  0.45594000000E+02  0.51100000000E-03 0.  1.
    9900012    2    1    2    0    0  0.19533973551E+00 -0.85693749967E+00 -0.78772452434E+00  0.90007741801E+02  0.90000003193E+02 0.  0.
         12    1    1    2    0    0 -0.19533973551E+00  0.85693749967E+00  0.78772452434E+00  0.11802581992E+01  0.00000000000E+00 0. -1.
         11    1    3    3    0    0  0.66704573969E+01  0.20256531822E+01 -0.47475156391E+00  0.69873930766E+01  0.51100000000E-03 0. -1.
        -11    1    3    3    0    0 -0.72101681770E+01 -0.32693203667E+01 -0.41286364157E+02  0.42038540013E+02  0.51100000000E-03 0.  1.
         12    1    3    3    0    0  0.73505051561E+00  0.38672968482E+00  0.40973391197E+02  0.40981808712E+02  0.00000000000E+00 0. -1.
</event>
<event>
 7    1  0.2569312E-015  0.9000769E+02  0.7816164E-02  0.1186339E+00
        -11   -1    0    0    0    0  0.00000000000E+00  0.00000000000E+00  0.45593999997E+02  0.45594000000E+02  0.51100000000E-03 0.  1.
         11   -1    0    0    0    0 -0.00000000000E+00 -0.00000000000E+00 -0.45593999997E+02  0.45594000000E+02  0.51100000000E-03 0. -1.
    9900012    2    1    2    0    0 -0.47840036126E+00  0.14232406277E+00  0.10695784250E+01  0.90007694509E+02  0.89999955277E+02 0.  0.
         12    1    1    2    0    0  0.47840036126E+00 -0.14232406277E+00 -0.10695784250E+01  0.11803054909E+01  0.00000000000E+00 0. -1.
         11    1    3    3    0    0  0.26813407283E+01 -0.18975694730E+01  0.56446827538E+01  0.65309112425E+01  0.51100000000E-03 0. -1.
        -11    1    3    3    0    0  0.66377810307E+01 -0.75092309417E+01  0.37717479900E+02  0.39026362585E+02  0.51100000000E-03 0.  1.
         12    1    3    3    0    0 -0.97975221203E+01  0.95491244775E+01 -0.42292584229E+02  0.44450420681E+02  0.00000000000E+00 0. -1.
</event>
<event>
 7    1  0.2569312E-015  0.9000772E+02  0.7816164E-02  0.1186339E+00
        -11   -1    0    0    0    0  0.00000000000E+00  0.00000000000E+00  0.45593999997E+02  0.45594000000E+02  0.51100000000E-03 0.  1.
         11   -1    0    0    0    0 -0.00000000000E+00 -0.00000000000E+00 -0.45593999997E+02  0.45594000000E+02  0.51100000000E-03 0. -1.
    9900012    2    1    2    0    0  0.18877113809E+00  0.11614342856E+01 -0.92236688460E-01  0.90007715395E+02  0.89999976438E+02 0.  0.
         12    1    1    2    0    0 -0.18877113809E+00 -0.11614342856E+01  0.92236688460E-01  0.11802846051E+01  0.00000000000E+00 0. -1.
         11    1    3    3    0    0  0.24298545753E+02  0.14010282547E+01  0.20262929310E+02  0.31669678090E+02  0.51100000000E-03 0. -1.
        -11    1    3    3    0    0  0.98397501275E+01  0.27264037028E+01  0.88077599066E+01  0.13484457518E+02  0.51100000000E-03 0.  1.
        -12    1    3    3    0    0 -0.33949524742E+02 -0.29659976719E+01 -0.29162925905E+02  0.44853579787E+02  0.00000000000E+00 0.  1.
</event>
<event>
 7    1  0.2569312E-015  0.9000793E+02  0.7816164E-02  0.1186339E+00
        -11   -1    0    0    0    0  0.00000000000E+00  0.00000000000E+00  0.45593999997E+02  0.45594000000E+02  0.51100000000E-03 0. -1.
         11   -1    0    0    0    0 -0.00000000000E+00 -0.00000000000E+00 -0.45593999997E+02  0.45594000000E+02  0.51100000000E-03 0.  1.
    9900012    2    1    2    0    0  0.36414978338E+00  0.33176150388E+00 -0.10723345226E+01  0.90007927083E+02  0.90000190921E+02 0.  0.
         12    1    1    2    0    0 -0.36414978338E+00 -0.33176150388E+00  0.10723345226E+01  0.11800729166E+01  0.00000000000E+00 0. -1.
         11    1    3    3    0    0  0.63476095192E+01  0.70114623188E+01  0.27298255814E+01  0.98440184082E+01  0.51100000000E-03 0. -1.
        -11    1    3    3    0    0  0.29064291955E+02  0.54968029502E+01 -0.23844860837E+02  0.37993753409E+02  0.51100000000E-03 0.  1.
         12    1    3    3    0    0 -0.35047751691E+02 -0.12176503765E+02  0.20042700733E+02  0.42170155266E+02  0.00000000000E+00 0. -1.
</event>
<event>
 7    1  0.2569312E-015  0.9000779E+02  0.7816164E-02  0.1186339E+00
        -11   -1    0    0    0    0  0.00000000000E+00  0.00000000000E+00  0.45593999997E+02  0.45594000000E+02  0.51100000000E-03 0.  1.
         11   -1    0    0    0    0 -0.00000000000E+00 -0.00000000000E+00 -0.45593999997E+02  0.45594000000E+02  0.51100000000E-03 0. -1.
    9900012    2    1    2    0    0  0.97487909186E+00  0.66180077170E+00  0.67266375011E-01  0.90007790582E+02  0.90000052618E+02 0.  0.
         12    1    1    2    0    0 -0.97487909186E+00 -0.66180077170E+00 -0.67266375011E-01  0.11802094180E+01  0.00000000000E+00 0. -1.
         11    1    3    3    0    0 -0.27746265446E+01 -0.96385949739E+01 -0.37574306697E+02  0.38889967723E+02  0.51100000000E-03 0. -1.
        -11    1    3    3    0    0  0.38773998418E+01  0.89382429928E+01 -0.31986829030E+01  0.10254656986E+02  0.51100000000E-03 0.  1.
        -12    1    3    3    0    0 -0.12789420525E+00  0.13621527528E+01  0.40840255975E+02  0.40863165872E+02  0.00000000000E+00 0.  1.
</event>
<event>
 7    1  0.2569312E-015  0.9000775E+02  0.7816164E-02  0.1186339E+00
        -11   -1    0    0    0    0  0.00000000000E+00  0.00000000000E+00  0.45593999997E+02  0.45594000000E+02  0.51100000000E-03 0.  1.
         11   -1    0    0    0    0 -0.00000000000E+00 -0.00000000000E+00 -0.45593999997E+02  0.45594000000E+02  0.51100000000E-03 0. -1.
    9900012    2    1    2    0    0 -0.27185038422E-01 -0.64884768629E+00  0.98551413178E+00  0.90007754072E+02  0.90000015626E+02 0.  0.
         12    1    1    2    0    0  0.27185038422E-01  0.64884768629E+00 -0.98551413178E+00  0.11802459279E+01  0.00000000000E+00 0. -1.
         11    1    3    3    0    0 -0.15959262885E+02  0.62242770539E+01 -0.33847024088E+02  0.37934954021E+02  0.51100000000E-03 0. -1.
        -11    1    3    3    0    0 -0.71929463224E+01  0.35072750257E+01 -0.11226322936E+01  0.80808265933E+01  0.51100000000E-03 0.  1.
        -12    1    3    3    0    0  0.23125024169E+02 -0.10380399766E+02  0.35955170513E+02  0.43991973458E+02  0.00000000000E+00 0.  1.
</event>
<event>
 7    1  0.2569312E-015  0.9000769E+02  0.7816164E-02  0.1186339E+00
        -11   -1    0    0    0    0  0.00000000000E+00  0.00000000000E+00  0.45593999997E+02  0.45594000000E+02  0.51100000000E-03 0.  1.
         11   -1    0    0    0    0 -0.00000000000E+00 -0.00000000000E+00 -0.45593999997E+02  0.45594000000E+02  0.51100000000E-03 0. -1.
    9900012    2    1    2    0    0  0.61386550654E+00 -0.71414396826E+00  0.71154205014E+00  0.90007693024E+02  0.89999953772E+02 0.  0.
         12    1    1    2    0    0 -0.61386550654E+00  0.71414396826E+00 -0.71154205014E+00  0.11803069756E+01  0.00000000000E+00 0. -1.
         11    1    3    3    0    0 -0.10492274090E+02  0.34377862556E+02  0.47188703271E+01  0.36251799775E+02  0.51100000000E-03 0. -1.
        -11    1    3    3    0    0  0.52147349684E+00  0.85490398490E+01 -0.20505717401E+01  0.88069780101E+01  0.51100000000E-03 0.  1.
        -12    1    3    3    0    0  0.10584666099E+02 -0.43641046374E+02 -0.19567565369E+01  0.44948915239E+02  0.00000000000E+00 0.  1.
</event>
<event>
 7    1  0.2569312E-015  0.9000766E+02  0.7816164E-02  0.1186339E+00
        -11   -1    0    0    0    0  0.00000000000E+00  0.00000000000E+00  0.45593999997E+02  0.45594000000E+02  0.51100000000E-03 0.  1.
         11   -1    0    0    0    0 -0.00000000000E+00 -0.00000000000E+00 -0.45593999997E+02  0.45594000000E+02  0.51100000000E-03 0. -1.
    9900012    2    1    2    0    0  0.30116594137E+00 -0.10207823793E+00  0.11366979949E+01  0.90007659701E+02  0.89999920009E+02 0.  0.
         12    1    1    2    0    0 -0.30116594137E+00  0.10207823793E+00 -0.11366979949E+01  0.11803402995E+01  0.00000000000E+00 0. -1.
         11    1    3    3    0    0 -0.25592016411E+01  0.65378968665E+01 -0.84202762730E+01  0.10963332580E+02  0.51100000000E-03 0. -1.
        -11    1    3    3    0    0  0.24531653686E+02  0.14241419398E+02  0.31055074901E+02  0.42059930295E+02  0.51100000000E-03 0.  1.
         12    1    3    3    0    0 -0.21671286103E+02 -0.20881394503E+02 -0.21498100633E+02  0.36984396826E+02  0.00000000000E+00 0. -1.
</event>
<event>
 7    1  0.2569312E-015  0.9000776E+02  0.7816164E-02  0.1186339E+00
        -11   -1    0    0    0    0  0.00000000000E+00  0.00000000000E+00  0.45593999997E+02  0.45594000000E+02  0.51100000000E-03 0.  1.
         11   -1    0    0    0    0 -0.00000000000E+00 -0.00000000000E+00 -0.45593999997E+02  0.45594000000E+02  0.51100000000E-03 0. -1.
    9900012    2    1    2    0    0  0.83606809215E+00 -0.50764800900E+00  0.66049947189E+00  0.90007755996E+02  0.90000017576E+02 0.  0.
         12    1    1    2    0    0 -0.83606809215E+00  0.50764800900E+00 -0.66049947189E+00  0.11802440036E+01  0.00000000000E+00 0. -1.
         11    1    3    3    0    0  0.35651610437E+02 -0.11129211313E+02  0.10377269052E+02  0.38763183363E+02  0.51100000000E-03 0. -1.
        -11    1    3    3    0    0  0.98218430048E+00 -0.90031628048E+01 -0.44222227331E+01  0.10078575328E+02  0.51100000000E-03 0.  1.
        -12    1    3    3    0    0 -0.35797726645E+02  0.19624726109E+02 -0.52945468473E+01  0.41165997305E+02  0.00000000000E+00 0.  1.
</event>
<event>
 7    1  0.2569312E-015  0.9000774E+02  0.7816164E-02  0.1186339E+00
        -11   -1    0    0    0    0  0.00000000000E+00  0.00000000000E+00  0.45593999997E+02  0.45594000000E+02  0.51100000000E-03 0. -1.
         11   -1    0    0    0    0 -0.00000000000E+00 -0.00000000000E+00 -0.45593999997E+02  0.45594000000E+02  0.51100000000E-03 0.  1.
    9900012    2    1    2    0    0 -0.10225611577E+01 -0.27249950174E+00 -0.52261734910E+00  0.90007738930E+02  0.90000000284E+02 0.  0.
         12    1    1    2    0    0  0.10225611577E+01  0.27249950174E+00  0.52261734910E+00  0.11802610699E+01  0.00000000000E+00 0. -1.
         11    1    3    3    0    0 -0.18597063606E+02  0.28887856418E+02  0.89000693130E+01  0.35490424867E+02  0.51100000000E-03 0. -1.
        -11    1    3    3    0    0 -0.11066648139E+02  0.15802052706E+01  0.10147131107E+01  0.11224856021E+02  0.51100000000E-03 0.  1.
        -12    1    3    3    0    0  0.28641150588E+02 -0.30740561191E+02 -0.10437399773E+02  0.43292458042E+02  0.00000000000E+00 0.  1.
</event>
<event>
 7    1  0.2569312E-015  0.9000771E+02  0.7816164E-02  0.1186339E+00
        -11   -1    0    0    0    0  0.00000000000E+00  0.00000000000E+00  0.45593999997E+02  0.45594000000E+02  0.51100000000E-03 0.  1.
         11   -1    0    0    0    0 -0.00000000000E+00 -0.00000000000E+00 -0.45593999997E+02  0.45594000000E+02  0.51100000000E-03 0. -1.
    9900012    2    1    2    0    0  0.10290999140E+01 -0.22917468415E+00  0.53057654040E+00  0.90007712266E+02  0.89999973268E+02 0.  0.
         12    1    1    2    0    0 -0.10290999140E+01  0.22917468415E+00 -0.53057654040E+00  0.11802877336E+01  0.00000000000E+00 0. -1.
         11    1    3    3    0    0  0.28711054704E+02  0.25880069123E+02 -0.28678087008E+00  0.38654687730E+02  0.51100000000E-03 0. -1.
        -11    1    3    3    0    0  0.19775268191E+01  0.36841319760E+01 -0.74171251004E+01  0.85145279230E+01  0.51100000000E-03 0.  1.
        -12    1    3    3    0    0 -0.29659481609E+02 -0.29793375783E+02  0.82344825109E+01  0.42838496613E+02  0.00000000000E+00 0.  1.
</event>
<event>
 7    1  0.2569312E-015  0.9000776E+02  0.7816164E-02  0.1186339E+00
        -11   -1    0    0    0    0  0.00000000000E+00  0.00000000000E+00  0.45593999997E+02  0.45594000000E+02  0.51100000000E-03 0.  1.
         11   -1    0    0    0    0 -0.00000000000E+00 -0.00000000000E+00 -0.45593999997E+02  0.45594000000E+02  0.51100000000E-03 0. -1.
    9900012    2    1    2    0    0 -0.71892353801E+00  0.71233571597E-01  0.93330198651E+00  0.90007755164E+02  0.90000016732E+02 0.  0.
         12    1    1    2    0    0  0.71892353801E+00 -0.71233571597E-01 -0.93330198651E+00  0.11802448361E+01  0.00000000000E+00 0. -1.
         11    1    3    3    0    0 -0.60527191368E+01 -0.86460942292E+01  0.90349200275E+00  0.10592764154E+02  0.51100000000E-03 0. -1.
        -11    1    3    3    0    0 -0.23126881861E+02  0.41171469430E+01  0.29818458984E+02  0.37959768966E+02  0.51100000000E-03 0.  1.
         12    1    3    3    0    0  0.28460677460E+02  0.46001808578E+01 -0.29788649000E+02  0.41455222043E+02  0.00000000000E+00 0. -1.
</event>
<event>
 7    1  0.2569312E-015  0.9000775E+02  0.7816164E-02  0.1186339E+00
        -11   -1    0    0    0    0  0.00000000000E+00  0.00000000000E+00  0.45593999997E+02  0.45594000000E+02  0.51100000000E-03 0. -1.
         11   -1    0    0    0    0 -0.00000000000E+00 -0.00000000000E+00 -0.45593999997E+02  0.45594000000E+02  0.51100000000E-03 0.  1.
    9900012    2    1    2    0    0 -0.27866896800E+00 -0.52280450913E+00  0.10207841532E+01  0.90007753739E+02  0.90000015289E+02 0.  0.
         12    1    1    2    0    0  0.27866896800E+00  0.52280450913E+00 -0.10207841532E+01  0.11802462607E+01  0.00000000000E+00 0. -1.
         11    1    3    3    0    0 -0.13347426756E+01 -0.67384659928E+01 -0.58215857646E+01  0.90044057562E+01  0.51100000000E-03 0. -1.
        -11    1    3    3    0    0 -0.13046979436E+02 -0.33850063187E+01 -0.34089882856E+02  0.36657905744E+02  0.51100000000E-03 0.  1.
         12    1    3    3    0    0  0.14103053143E+02  0.96006678024E+01  0.40932252774E+02  0.44345442239E+02  0.00000000000E+00 0. -1.
</event>
<event>
 7    1  0.2569312E-015  0.9000770E+02  0.7816164E-02  0.1186339E+00
        -11   -1    0    0    0    0  0.00000000000E+00  0.00000000000E+00  0.45593999997E+02  0.45594000000E+02  0.51100000000E-03 0.  1.
         11   -1    0    0    0    0 -0.00000000000E+00 -0.00000000000E+00 -0.45593999997E+02  0.45594000000E+02  0.51100000000E-03 0. -1.
    9900012    2    1    2    0    0  0.71629410223E+00  0.42946023201E+00 -0.83402315136E+00  0.90007700060E+02  0.89999960901E+02 0.  0.
         12    1    1    2    0    0 -0.71629410223E+00 -0.42946023201E+00  0.83402315136E+00  0.11802999402E+01  0.00000000000E+00 0. -1.
         11    1    3    3    0    0 -0.34459288062E+02 -0.11248461497E+02 -0.11335841974E+02  0.37979885904E+02  0.51100000000E-03 0. -1.
        -11    1    3    3    0    0 -0.51004862027E+01 -0.24318862594E+00  0.85751939363E+01  0.99803833352E+01  0.51100000000E-03 0.  1.
        -12    1    3    3    0    0  0.40276068367E+02  0.11921110354E+02  0.19266248868E+01  0.42047430821E+02  0.00000000000E+00 0.  1.
</event>
<event>
 7    1  0.2569312E-015  0.9000772E+02  0.7816164E-02  0.1186339E+00
        -11   -1    0    0    0    0  0.00000000000E+00  0.00000000000E+00  0.45593999997E+02  0.45594000000E+02  0.51100000000E-03 0.  1.
         11   -1    0    0    0    0 -0.00000000000E+00 -0.00000000000E+00 -0.45593999997E+02  0.45594000000E+02  0.51100000000E-03 0. -1.
    9900012    2    1    2    0    0 -0.31913648330E+00 -0.95374870915E+00  0.61771141332E+00  0.90007723725E+02  0.89999984878E+02 0.  0.
         12    1    1    2    0    0  0.31913648330E+00  0.95374870915E+00 -0.61771141332E+00  0.11802762750E+01  0.00000000000E+00 0. -1.
         11    1    3    3    0    0  0.12058943070E+02 -0.35782088665E+02 -0.92021979229E+01  0.38864590877E+02  0.51100000000E-03 0. -1.
        -11    1    3    3    0    0 -0.14958340090E+01 -0.50510841274E+01  0.82342912731E+01  0.97751993983E+01  0.51100000000E-03 0.  1.
        -12    1    3    3    0    0 -0.10882245544E+02  0.39879424083E+02  0.15856180631E+01  0.41367933450E+02  0.00000000000E+00 0.  1.
</event>
<event>
 7    1  0.2569312E-015  0.9000777E+02  0.7816164E-02  0.1186339E+00
        -11   -1    0    0    0    0  0.00000000000E+00  0.00000000000E+00  0.45593999997E+02  0.45594000000E+02  0.51100000000E-03 0. -1.
         11   -1    0    0    0    0 -0.00000000000E+00 -0.00000000000E+00 -0.45593999997E+02  0.45594000000E+02  0.51100000000E-03 0.  1.
    9900012    2    1    2    0    0  0.67569537432E+00 -0.33304870916E+00 -0.90854272694E+00  0.90007773086E+02  0.90000034891E+02 0.  0.
         12    1    1    2    0    0 -0.67569537432E+00  0.33304870916E+00  0.90854272694E+00  0.11802269139E+01  0.00000000000E+00 0. -1.
         11    1    3    3    0    0 -0.12101354531E+02 -0.35336473170E+02 -0.18839321080E+02  0.41833349575E+02  0.51100000000E-03 0. -1.
        -11    1    3    3    0    0  0.85851792129E+01  0.37947959569E+01 -0.35730535123E+01  0.10043529765E+02  0.51100000000E-03 0.  1.
        -12    1    3    3    0    0  0.41918706926E+01  0.31208628504E+02  0.21503831866E+02  0.38130893747E+02  0.00000000000E+00 0.  1.
</event>
<event>
 7    1  0.2569312E-015  0.9000777E+02  0.7816164E-02  0.1186339E+00
        -11   -1    0    0    0    0  0.00000000000E+00  0.00000000000E+00  0.45593999997E+02  0.45594000000E+02  0.51100000000E-03 0. -1.
         11   -1    0    0    0    0 -0.00000000000E+00 -0.00000000000E+00 -0.45593999997E+02  0.45594000000E+02  0.51100000000E-03 0.  1.
    9900012    2    1    2    0    0  0.31517338970E+00  0.95205749028E+00  0.62224812059E+00  0.90007771016E+02  0.90000032794E+02 0.  0.
         12    1    1    2    0    0 -0.31517338970E+00 -0.95205749028E+00 -0.62224812059E+00  0.11802289837E+01  0.00000000000E+00 0. -1.
         11    1    3    3    0    0  0.17491945902E+02 -0.23092577687E+02  0.30865889097E+02  0.42331293692E+02  0.51100000000E-03 0. -1.
        -11    1    3    3    0    0 -0.75138791584E+01 -0.28905496273E+01 -0.47246528278E+01  0.93346666657E+01  0.51100000000E-03 0.  1.
        -12    1    3    3    0    0 -0.96628933536E+01  0.26935184805E+02 -0.25518988148E+02  0.38341810658E+02  0.00000000000E+00 0.  1.
</event>
<event>
 7    1  0.2569312E-015  0.9000774E+02  0.7816164E-02  0.1186339E+00
        -11   -1    0    0    0    0  0.00000000000E+00  0.00000000000E+00  0.45593999997E+02  0.45594000000E+02  0.51100000000E-03 0. -1.
         11   -1    0    0    0    0 -0.00000000000E+00 -0.00000000000E+00 -0.45593999997E+02  0.45594000000E+02  0.51100000000E-03 0.  1.
    9900012    2    1    2    0    0  0.10122579237E+01 -0.81140669580E-01 -0.60146067671E+00  0.90007743732E+02  0.90000005149E+02 0.  0.
         12    1    1    2    0    0 -0.10122579237E+01  0.81140669580E-01  0.60146067671E+00  0.11802562679E+01  0.00000000000E+00 0. -1.
         11    1    3    3    0    0  0.39917562004E+01  0.85720508668E+01  0.16628228859E+01  0.96009975439E+01  0.51100000000E-03 0. -1.
        -11    1    3    3    0    0  0.36806588348E+02 -0.12942214077E+02 -0.84351730492E+01  0.39917139122E+02  0.51100000000E-03 0.  1.
         12    1    3    3    0    0 -0.39786086625E+02  0.42890225408E+01  0.61708894866E+01  0.40489607066E+02  0.00000000000E+00 0. -1.
</event>
<event>
 7    1  0.2569312E-015  0.9000759E+02  0.7816164E-02  0.1186339E+00
        -11   -1    0    0    0    0  0.00000000000E+00  0.00000000000E+00  0.45593999997E+02  0.45594000000E+02  0.51100000000E-03 0.  1.
         11   -1    0    0    0    0 -0.00000000000E+00 -0.00000000000E+00 -0.45593999997E+02  0.45594000000E+02  0.51100000000E-03 0. -1.
    9900012    2    1    2    0    0 -0.96503178229E+00  0.14830637173E+00  0.66339058257E+00  0.90007589823E+02  0.89999849209E+02 0.  0.
         12    1    1    2    0    0  0.96503178229E+00 -0.14830637173E+00 -0.66339058257E+00  0.11804101769E+01  0.00000000000E+00 0. -1.
         11    1    3    3    0    0 -0.31451492762E+02 -0.16306671586E+02 -0.77320086262E+01  0.36261382942E+02  0.51100000000E-03 0. -1.
        -11    1    3    3    0    0 -0.93045482345E+01 -0.31059438914E+00  0.46468054357E+01  0.10404993404E+02  0.51100000000E-03 0.  1.
        -12    1    3    3    0    0  0.39791009214E+02  0.16765572347E+02  0.37485937731E+01  0.43341213477E+02  0.00000000000E+00 0.  1.
</event>
<event>
 7    1  0.2569312E-015  0.9000767E+02  0.7816164E-02  0.1186339E+00
        -11   -1    0    0    0    0  0.00000000000E+00  0.00000000000E+00  0.45593999997E+02  0.45594000000E+02  0.51100000000E-03 0. -1.
         11   -1    0    0    0    0 -0.00000000000E+00 -0.00000000000E+00 -0.45593999997E+02  0.45594000000E+02  0.51100000000E-03 0.  1.
    9900012    2    1    2    0    0  0.62674498278E-02 -0.10853928886E+01 -0.46373730979E+00  0.90007674072E+02  0.89999934570E+02 0.  0.
         12    1    1    2    0    0 -0.62674498278E-02  0.10853928886E+01  0.46373730979E+00  0.11803259279E+01  0.00000000000E+00 0. -1.
         11    1    3    3    0    0  0.35815258444E+02  0.38111193311E+01  0.19419707936E+02  0.40919218279E+02  0.51100000000E-03 0. -1.
        -11    1    3    3    0    0 -0.21985957993E+01 -0.89543779347E+01  0.10575458890E+01  0.92807925984E+01  0.51100000000E-03 0.  1.
        -12    1    3    3    0    0 -0.33610395195E+02  0.40578657150E+01 -0.20940991135E+02  0.39807663195E+02  0.00000000000E+00 0.  1.
</event>
<event>
 7    1  0.2569312E-015  0.9000764E+02  0.7816164E-02  0.1186339E+00
        -11   -1    0    0    0    0  0.00000000000E+00  0.00000000000E+00  0.45593999997E+02  0.45594000000E+02  0.51100000000E-03 0. -1.
         11   -1    0    0    0    0 -0.00000000000E+00 -0.00000000000E+00 -0.45593999997E+02  0.45594000000E+02  0.51100000000E-03 0.  1.
    9900012    2    1    2    0    0  0.54992067649E+00  0.69766864374E+00 -0.77723171262E+00  0.90007642672E+02  0.89999902755E+02 0.  0.
         12    1    1    2    0    0 -0.54992067649E+00 -0.69766864374E+00  0.77723171262E+00  0.11803573281E+01  0.00000000000E+00 0. -1.
         11    1    3    3    0    0  0.82919940440E+01 -0.60450846594E+00  0.31322112275E+01  0.88844438850E+01  0.51100000000E-03 0. -1.
        -11    1    3    3    0    0 -0.37433819781E+01 -0.31429037677E+02  0.22535640505E+02  0.38854245729E+02  0.51100000000E-03 0.  1.
         12    1    3    3    0    0 -0.39986913894E+01  0.32731214787E+02 -0.26445083445E+02  0.42268953058E+02  0.00000000000E+00 0. -1.
</event>
<event>
 7    1  0.2569312E-015  0.9000747E+02  0.7816164E-02  0.1186340E+00
        -11   -1    0    0    0    0  0.00000000000E+00  0.00000000000E+00  0.45593999997E+02  0.45594000000E+02  0.51100000000E-03 0. -1.
         11   -1    0    0    0    0 -0.00000000000E+00 -0.00000000000E+00 -0.45593999997E+02  0.45594000000E+02  0.51100000000E-03 0.  1.
    9900012    2    1    2    0    0 -0.84683635299E-01  0.50457792622E+00 -0.10639023137E+01  0.90007466928E+02  0.89999724691E+02 0.  0.
         12    1    1    2    0    0  0.84683635299E-01 -0.50457792622E+00  0.10639023137E+01  0.11805330723E+01  0.00000000000E+00 0. -1.
         11    1    3    3    0    0  0.14453839136E+02  0.96555599545E+01  0.81293095247E+01  0.19189293302E+02  0.51100000000E-03 0. -1.
        -11    1    3    3    0    0  0.11265595511E+02  0.17438989064E+02  0.15829722112E+02  0.26107701626E+02  0.51100000000E-03 0.  1.
         12    1    3    3    0    0 -0.25804118283E+02 -0.26589971092E+02 -0.25022933950E+02  0.44710472000E+02  0.00000000000E+00 0. -1.
</event>
<event>
 7    1  0.2569312E-015  0.9000770E+02  0.7816164E-02  0.1186339E+00
        -11   -1    0    0    0    0  0.00000000000E+00  0.00000000000E+00  0.45593999997E+02  0.45594000000E+02  0.51100000000E-03 0.  1.
         11   -1    0    0    0    0 -0.00000000000E+00 -0.00000000000E+00 -0.45593999997E+02  0.45594000000E+02  0.51100000000E-03 0. -1.
    9900012    2    1    2    0    0 -0.13070908728E-01 -0.92686854977E+00  0.73064530034E+00  0.90007703973E+02  0.89999964865E+02 0.  0.
         12    1    1    2    0    0  0.13070908728E-01  0.92686854977E+00 -0.73064530034E+00  0.11802960273E+01  0.00000000000E+00 0. -1.
         11    1    3    3    0    0  0.46138632771E+01  0.62708432983E+01  0.95365392922E+01  0.12310840424E+02  0.51100000000E-03 0. -1.
        -11    1    3    3    0    0 -0.32030948458E+02 -0.37342580493E+01  0.19872613796E+02  0.37879375941E+02  0.51100000000E-03 0.  1.
         12    1    3    3    0    0  0.27404014272E+02 -0.34634537988E+01 -0.28678507788E+02  0.39817487608E+02  0.00000000000E+00 0. -1.
</event>
<event>
 7    1  0.2569312E-015  0.9000769E+02  0.7816164E-02  0.1186339E+00
        -11   -1    0    0    0    0  0.00000000000E+00  0.00000000000E+00  0.45593999997E+02  0.45594000000E+02  0.51100000000E-03 0. -1.
         11   -1    0    0    0    0 -0.00000000000E+00 -0.00000000000E+00 -0.45593999997E+02  0.45594000000E+02  0.51100000000E-03 0.  1.
    9900012    2    1    2    0    0 -0.11190460738E+01 -0.28094104030E+00 -0.24889967640E+00  0.90007685198E+02  0.89999945842E+02 0.  0.
         12    1    1    2    0    0  0.11190460738E+01  0.28094104030E+00  0.24889967640E+00  0.11803148022E+01  0.00000000000E+00 0. -1.
         11    1    3    3    0    0  0.33874161478E+02  0.81923674296E+01  0.67964304947E+01  0.35507255142E+02  0.51100000000E-03 0. -1.
        -11    1    3    3    0    0  0.89692044214E+01 -0.17079271451E+01 -0.38404688209E+01  0.99051927851E+01  0.51100000000E-03 0.  1.
        -12    1    3    3    0    0 -0.43962411973E+02 -0.67653813249E+01 -0.32048613502E+01  0.44595237271E+02  0.00000000000E+00 0.  1.
</event>
<event>
 7    1  0.2569312E-015  0.9000785E+02  0.7816164E-02  0.1186339E+00
        -11   -1    0    0    0    0  0.00000000000E+00  0.00000000000E+00  0.45593999997E+02  0.45594000000E+02  0.51100000000E-03 0.  1.
         11   -1    0    0    0    0 -0.00000000000E+00 -0.00000000000E+00 -0.45593999997E+02  0.45594000000E+02  0.51100000000E-03 0. -1.
    9900012    2    1    2    0    0  0.97719431001E-01 -0.10516313468E+01  0.52656033719E+00  0.90007854515E+02  0.90000117395E+02 0.  0.
         12    1    1    2    0    0 -0.97719431001E-01  0.10516313468E+01 -0.52656033719E+00  0.11801454848E+01  0.00000000000E+00 0. -1.
         11    1    3    3    0    0  0.32947833037E+01 -0.57634449234E+01 -0.68867451461E+01  0.95655712518E+01  0.51100000000E-03 0. -1.
        -11    1    3    3    0    0  0.12307219378E+02 -0.34595647438E+02  0.10157496119E+02  0.38098572127E+02  0.51100000000E-03 0.  1.
         12    1    3    3    0    0 -0.15504283251E+02  0.39307461015E+02 -0.27441906357E+01  0.42343711136E+02  0.00000000000E+00 0. -1.
</event>
<event>
 7    1  0.2569312E-015  0.9000768E+02  0.7816164E-02  0.1186339E+00
        -11   -1    0    0    0    0  0.00000000000E+00  0.00000000000E+00  0.45593999997E+02  0.45594000000E+02  0.51100000000E-03 0.  1.
         11   -1    0    0    0    0 -0.00000000000E+00 -0.00000000000E+00 -0.45593999997E+02  0.45594000000E+02  0.51100000000E-03 0. -1.
    9900012    2    1    2    0    0 -0.28441950244E+00  0.95205653106E+00 -0.63705628495E+00  0.90007683601E+02  0.89999944224E+02 0.  0.
         12    1    1    2    0    0  0.28441950244E+00 -0.95205653106E+00  0.63705628495E+00  0.11803163991E+01  0.00000000000E+00 0. -1.
         11    1    3    3    0    0 -0.38534051161E+01  0.30632535136E+01 -0.75500843058E+01  0.90131030374E+01  0.51100000000E-03 0. -1.
        -11    1    3    3    0    0 -0.15664167055E+02 -0.19151157368E+02  0.35041842559E+02  0.42895963543E+02  0.51100000000E-03 0.  1.
         12    1    3    3    0    0  0.19233152669E+02  0.17039960386E+02 -0.28128814538E+02  0.38098617020E+02  0.00000000000E+00 0. -1.
</event>
<event>
 7    1  0.2569312E-015  0.9000773E+02  0.7816164E-02  0.1186339E+00
        -11   -1    0    0    0    0  0.00000000000E+00  0.00000000000E+00  0.45593999997E+02  0.45594000000E+02  0.51100000000E-03 0. -1.
         11   -1    0    0    0    0 -0.00000000000E+00 -0.00000000000E+00 -0.45593999997E+02  0.45594000000E+02  0.51100000000E-03 0.  1.
    9900012    2    1    2    0    0 -0.26182993998E+00  0.53288202631E+00 -0.10200571328E+01  0.90007731079E+02  0.89999992329E+02 0.  0.
         12    1    1    2    0    0  0.26182993998E+00 -0.53288202631E+00  0.10200571328E+01  0.11802689209E+01  0.00000000000E+00 0. -1.
         11    1    3    3    0    0  0.20216929038E+01 -0.16164450139E+00 -0.68816646031E+01  0.71743068734E+01  0.51100000000E-03 0. -1.
        -11    1    3    3    0    0  0.28609352809E+02 -0.98754455418E+01 -0.23968831702E+02  0.38607310010E+02  0.51100000000E-03 0.  1.
         12    1    3    3    0    0 -0.30892875653E+02  0.10569972069E+02  0.29830439172E+02  0.44226114196E+02  0.00000000000E+00 0. -1.
</event>
<event>
 7    1  0.2569312E-015  0.9000765E+02  0.7816164E-02  0.1186339E+00
        -11   -1    0    0    0    0  0.00000000000E+00  0.00000000000E+00  0.45593999997E+02  0.45594000000E+02  0.51100000000E-03 0.  1.
         11   -1    0    0    0    0 -0.00000000000E+00 -0.00000000000E+00 -0.45593999997E+02  0.45594000000E+02  0.51100000000E-03 0. -1.
    9900012    2    1    2    0    0  0.54120298722E+00  0.12767612959E+00  0.10411594319E+01  0.90007654783E+02  0.89999915027E+02 0.  0.
         12    1    1    2    0    0 -0.54120298722E+00 -0.12767612959E+00 -0.10411594319E+01  0.11803452165E+01  0.00000000000E+00 0. -1.
         11    1    3    3    0    0 -0.91290870708E+01 -0.42380751507E+00  0.10758346777E+00  0.91395523971E+01  0.51100000000E-03 0. -1.
        -11    1    3    3    0    0 -0.31521801624E+02  0.12131323975E+02 -0.12508705125E+02  0.36017505510E+02  0.51100000000E-03 0.  1.
         12    1    3    3    0    0  0.41192091682E+02 -0.11579840330E+02  0.13442281089E+02  0.44850596876E+02  0.00000000000E+00 0. -1.
</event>
<event>
 7    1  0.2569312E-015  0.9000776E+02  0.7816164E-02  0.1186339E+00
        -11   -1    0    0    0    0  0.00000000000E+00  0.00000000000E+00  0.45593999997E+02  0.45594000000E+02  0.51100000000E-03 0.  1.
         11   -1    0    0    0    0 -0.00000000000E+00 -0.00000000000E+00 -0.45593999997E+02  0.45594000000E+02  0.51100000000E-03 0. -1.
    9900012    2    1    2    0    0 -0.94526820374E+00  0.20107706188E+00 -0.67749496719E+00  0.90007761299E+02  0.90000022948E+02 0.  0.
         12    1    1    2    0    0  0.94526820374E+00 -0.20107706188E+00  0.67749496719E+00  0.11802387014E+01  0.00000000000E+00 0. -1.
         11    1    3    3    0    0  0.15539421304E+02 -0.34759283553E+02 -0.10952777610E+02  0.39618742347E+02  0.51100000000E-03 0. -1.
        -11    1    3    3    0    0  0.78825366322E+01  0.34422110955E+01 -0.17438428029E+01  0.87763425734E+01  0.51100000000E-03 0.  1.
        -12    1    3    3    0    0 -0.24367226140E+02  0.31518149519E+02  0.12019125446E+02  0.41612676378E+02  0.00000000000E+00 0.  1.
</event>
<event>
 7    1  0.2569312E-015  0.9000772E+02  0.7816164E-02  0.1186339E+00
        -11   -1    0    0    0    0  0.00000000000E+00  0.00000000000E+00  0.45593999997E+02  0.45594000000E+02  0.51100000000E-03 0.  1.
         11   -1    0    0    0    0 -0.00000000000E+00 -0.00000000000E+00 -0.45593999997E+02  0.45594000000E+02  0.51100000000E-03 0. -1.
    9900012    2    1    2    0    0 -0.10290374471E+01  0.54118935045E+00 -0.20310251441E+00  0.90007722655E+02  0.89999983794E+02 0.  0.
         12    1    1    2    0    0  0.10290374471E+01 -0.54118935045E+00  0.20310251441E+00  0.11802773453E+01  0.00000000000E+00 0. -1.
         11    1    3    3    0    0  0.25867667544E+02  0.29069399895E+02 -0.65034799030E+01  0.39452014974E+02  0.51100000000E-03 0. -1.
        -11    1    3    3    0    0 -0.44747751533E+01  0.54612587454E+01  0.68441836076E+01  0.98331993406E+01  0.51100000000E-03 0.  1.
        -12    1    3    3    0    0 -0.22421929838E+02 -0.33989469290E+02 -0.54380621893E+00  0.40722508340E+02  0.00000000000E+00 0.  1.
</event>
<event>
 7    1  0.2569312E-015  0.9000804E+02  0.7816164E-02  0.1186338E+00
        -11   -1    0    0    0    0  0.00000000000E+00  0.00000000000E+00  0.45593999997E+02  0.45594000000E+02  0.51100000000E-03 0.  1.
         11   -1    0    0    0    0 -0.00000000000E+00 -0.00000000000E+00 -0.45593999997E+02  0.45594000000E+02  0.51100000000E-03 0. -1.
    9900012    2    1    2    0    0 -0.80497746688E+00  0.76179902973E+00 -0.40494251853E+00  0.90008040286E+02  0.90000305617E+02 0.  0.
         12    1    1    2    0    0  0.80497746688E+00 -0.76179902973E+00  0.40494251853E+00  0.11799597142E+01  0.00000000000E+00 0. -1.
         11    1    3    3    0    0  0.92873473008E+01  0.15613882027E+01 -0.41122007288E+01  0.10276329505E+02  0.51100000000E-03 0. -1.
        -11    1    3    3    0    0 -0.82151363517E+01  0.23504347086E+02  0.33180845287E+02  0.41483867845E+02  0.51100000000E-03 0.  1.
         12    1    3    3    0    0 -0.18771884161E+01 -0.24303936259E+02 -0.29473587077E+02  0.38247842935E+02  0.00000000000E+00 0. -1.
</event>
<event>
 7    1  0.2569312E-015  0.9000776E+02  0.7816164E-02  0.1186339E+00
        -11   -1    0    0    0    0  0.00000000000E+00  0.00000000000E+00  0.45593999997E+02  0.45594000000E+02  0.51100000000E-03 0.  1.
         11   -1    0    0    0    0 -0.00000000000E+00 -0.00000000000E+00 -0.45593999997E+02  0.45594000000E+02  0.51100000000E-03 0. -1.
    9900012    2    1    2    0    0 -0.46579720081E+00  0.10798884950E+01  0.99164435241E-01  0.90007762829E+02  0.90000024499E+02 0.  0.
         12    1    1    2    0    0  0.46579720081E+00 -0.10798884950E+01 -0.99164435240E-01  0.11802371707E+01  0.00000000000E+00 0. -1.
         11    1    3    3    0    0  0.24367487425E+02 -0.30736482266E+01 -0.29986609493E+02  0.38761043664E+02  0.51100000000E-03 0. -1.
        -11    1    3    3    0    0  0.57046901988E+01  0.23136518393E+01 -0.24143463977E+01  0.66125293109E+01  0.51100000000E-03 0.  1.
        -12    1    3    3    0    0 -0.30537974824E+02  0.18398848823E+01  0.32500120326E+02  0.44634189854E+02  0.00000000000E+00 0.  1.
</event>
<event>
 7    1  0.2569312E-015  0.9000792E+02  0.7816164E-02  0.1186339E+00
        -11   -1    0    0    0    0  0.00000000000E+00  0.00000000000E+00  0.45593999997E+02  0.45594000000E+02  0.51100000000E-03 0.  1.
         11   -1    0    0    0    0 -0.00000000000E+00 -0.00000000000E+00 -0.45593999997E+02  0.45594000000E+02  0.51100000000E-03 0. -1.
    9900012    2    1    2    0    0  0.26384277090E+00  0.62146928629E+00  0.96786374492E+00  0.90007916397E+02  0.90000180093E+02 0.  0.
         12    1    1    2    0    0 -0.26384277090E+00 -0.62146928629E+00 -0.96786374492E+00  0.11800836031E+01  0.00000000000E+00 0. -1.
         11    1    3    3    0    0  0.87246133979E+01  0.31848533796E+01 -0.68282010538E+01  0.11527640690E+02  0.51100000000E-03 0. -1.
        -11    1    3    3    0    0  0.33040394487E+02  0.66713777537E+01 -0.50096097364E+01  0.34077428585E+02  0.51100000000E-03 0.  1.
         12    1    3    3    0    0 -0.41501165114E+02 -0.92347618471E+01  0.12805674535E+02  0.44402847122E+02  0.00000000000E+00 0. -1.
</event>
<event>
 7    1  0.2569312E-015  0.9000765E+02  0.7816164E-02  0.1186339E+00
        -11   -1    0    0    0    0  0.00000000000E+00  0.00000000000E+00  0.45593999997E+02  0.45594000000E+02  0.51100000000E-03 0. -1.
         11   -1    0    0    0    0 -0.00000000000E+00 -0.00000000000E+00 -0.45593999997E+02  0.45594000000E+02  0.51100000000E-03 0.  1.
    9900012    2    1    2    0    0  0.10423883162E+01  0.54073910142E+00 -0.11936293001E+00  0.90007652726E+02  0.89999912942E+02 0.  0.
         12    1    1    2    0    0 -0.10423883162E+01 -0.54073910142E+00  0.11936293001E+00  0.11803472737E+01  0.00000000000E+00 0. -1.
         11    1    3    3    0    0  0.19593102197E+02  0.31610221627E+02 -0.13568465834E+02  0.39587864686E+02  0.51100000000E-03 0. -1.
        -11    1    3    3    0    0  0.90807616438E+01 -0.42582189355E+01  0.38227145761E+01  0.10733396831E+02  0.51100000000E-03 0.  1.
        -12    1    3    3    0    0 -0.27631475525E+02 -0.26811263591E+02  0.96263883279E+01  0.39686391210E+02  0.00000000000E+00 0.  1.
</event>
<event>
 7    1  0.2569312E-015  0.9000799E+02  0.7816164E-02  0.1186339E+00
        -11   -1    0    0    0    0  0.00000000000E+00  0.00000000000E+00  0.45593999997E+02  0.45594000000E+02  0.51100000000E-03 0. -1.
         11   -1    0    0    0    0 -0.00000000000E+00 -0.00000000000E+00 -0.45593999997E+02  0.45594000000E+02  0.51100000000E-03 0.  1.
    9900012    2    1    2    0    0 -0.12866795613E+00  0.48892621716E+00 -0.10662136119E+01  0.90007993324E+02  0.90000258036E+02 0.  0.
         12    1    1    2    0    0  0.12866795613E+00 -0.48892621716E+00  0.10662136119E+01  0.11800066758E+01  0.00000000000E+00 0. -1.
         11    1    3    3    0    0 -0.91946635648E+01  0.28883712678E+01  0.10947449040E+01  0.96996388240E+01  0.51100000000E-03 0. -1.
        -11    1    3    3    0    0  0.15784892197E+02 -0.38881082730E+02 -0.81087254448E+01  0.42739359430E+02  0.51100000000E-03 0.  1.
         12    1    3    3    0    0 -0.67188965882E+01  0.36481637679E+02  0.59477669288E+01  0.37568995070E+02  0.00000000000E+00 0. -1.
</event>
<event>
 7    1  0.2569312E-015  0.9000772E+02  0.7816164E-02  0.1186339E+00
        -11   -1    0    0    0    0  0.00000000000E+00  0.00000000000E+00  0.45593999997E+02  0.45594000000E+02  0.51100000000E-03 0.  1.
         11   -1    0    0    0    0 -0.00000000000E+00 -0.00000000000E+00 -0.45593999997E+02  0.45594000000E+02  0.51100000000E-03 0. -1.
    9900012    2    1    2    0    0  0.66313449856E+00  0.95547301705E+00  0.20096307555E+00  0.90007719437E+02  0.89999980534E+02 0.  0.
         12    1    1    2    0    0 -0.66313449856E+00 -0.95547301705E+00 -0.20096307555E+00  0.11802805629E+01  0.00000000000E+00 0. -1.
         11    1    3    3    0    0  0.64414230458E-01  0.10839402881E+02  0.12384822948E+00  0.10840301779E+02  0.51100000000E-03 0. -1.
        -11    1    3    3    0    0 -0.12816696133E+02 -0.35939426594E+01  0.37032629382E+02  0.39352252321E+02  0.51100000000E-03 0.  1.
         12    1    3    3    0    0  0.13415416401E+02 -0.62899872044E+01 -0.36955514535E+02  0.39815165337E+02  0.00000000000E+00 0. -1.
</event>
<event>
 7    1  0.2569312E-015  0.9000780E+02  0.7816164E-02  0.1186339E+00
        -11   -1    0    0    0    0  0.00000000000E+00  0.00000000000E+00  0.45593999997E+02  0.45594000000E+02  0.51100000000E-03 0. -1.
         11   -1    0    0    0    0 -0.00000000000E+00 -0.00000000000E+00 -0.45593999997E+02  0.45594000000E+02  0.51100000000E-03 0.  1.
    9900012    2    1    2    0    0  0.28582537925E+00  0.10982694695E+01  0.32400611189E+00  0.90007800044E+02  0.90000062205E+02 0.  0.
         12    1    1    2    0    0 -0.28582537925E+00 -0.10982694695E+01 -0.32400611189E+00  0.11801999558E+01  0.00000000000E+00 0. -1.
         11    1    3    3    0    0 -0.10509537451E+01  0.20647240843E+01  0.13159865071E+02  0.13362246752E+02  0.51100000000E-03 0. -1.
        -11    1    3    3    0    0 -0.17910153271E+02  0.15463386160E+02 -0.35507458598E+02  0.42669304166E+02  0.51100000000E-03 0.  1.
         12    1    3    3    0    0  0.19246932395E+02 -0.16429840774E+02  0.22671599639E+02  0.33976249126E+02  0.00000000000E+00 0. -1.
</event>
<event>
 7    1  0.2569312E-015  0.9000774E+02  0.7816164E-02  0.1186339E+00
        -11   -1    0    0    0    0  0.00000000000E+00  0.00000000000E+00  0.45593999997E+02  0.45594000000E+02  0.51100000000E-03 0. -1.
         11   -1    0    0    0    0 -0.00000000000E+00 -0.00000000000E+00 -0.45593999997E+02  0.45594000000E+02  0.51100000000E-03 0.  1.
    9900012    2    1    2    0    0 -0.85523298456E+00 -0.44008740309E+00 -0.68404905729E+00  0.90007735838E+02  0.89999997151E+02 0.  0.
         12    1    1    2    0    0  0.85523298456E+00  0.44008740309E+00  0.68404905729E+00  0.11802641624E+01  0.00000000000E+00 0. -1.
         11    1    3    3    0    0  0.13363390135E+01 -0.88914754603E+01 -0.28978031750E+01  0.94467667126E+01  0.51100000000E-03 0. -1.
        -11    1    3    3    0    0  0.23731716825E+02 -0.18395623884E+02 -0.20971774750E+02  0.36625246729E+02  0.51100000000E-03 0.  1.
         12    1    3    3    0    0 -0.25923288823E+02  0.26847011941E+02  0.23185528868E+02  0.43935722396E+02  0.00000000000E+00 0. -1.
</event>
<event>
 7    1  0.2569312E-015  0.9000775E+02  0.7816164E-02  0.1186339E+00
        -11   -1    0    0    0    0  0.00000000000E+00  0.00000000000E+00  0.45593999997E+02  0.45594000000E+02  0.51100000000E-03 0. -1.
         11   -1    0    0    0    0 -0.00000000000E+00 -0.00000000000E+00 -0.45593999997E+02  0.45594000000E+02  0.51100000000E-03 0.  1.
    9900012    2    1    2    0    0  0.34637693334E+00 -0.38866011632E+00 -0.10592243407E+01  0.90007750082E+02  0.90000011583E+02 0.  0.
         12    1    1    2    0    0 -0.34637693334E+00  0.38866011632E+00  0.10592243407E+01  0.11802499184E+01  0.00000000000E+00 0. -1.
         11    1    3    3    0    0 -0.63244415691E+01  0.42589266399E+01 -0.52357657619E+01  0.92493383904E+01  0.51100000000E-03 0. -1.
        -11    1    3    3    0    0 -0.78315760301E+01 -0.27840678348E+02 -0.26802563138E+02  0.39431134209E+02  0.51100000000E-03 0.  1.
         12    1    3    3    0    0  0.14502394533E+02  0.23193091592E+02  0.30979104559E+02  0.41327277482E+02  0.00000000000E+00 0. -1.
</event>
<event>
 7    1  0.2569312E-015  0.9000768E+02  0.7816164E-02  0.1186339E+00
        -11   -1    0    0    0    0  0.00000000000E+00  0.00000000000E+00  0.45593999997E+02  0.45594000000E+02  0.51100000000E-03 0. -1.
         11   -1    0    0    0    0 -0.00000000000E+00 -0.00000000000E+00 -0.45593999997E+02  0.45594000000E+02  0.51100000000E-03 0.  1.
    9900012    2    1    2    0    0  0.46969735552E+00 -0.91126190539E+00  0.58493754250E+00  0.90007675555E+02  0.89999936073E+02 0.  0.
         12    1    1    2    0    0 -0.46969735552E+00  0.91126190539E+00 -0.58493754250E+00  0.11803244446E+01  0.00000000000E+00 0. -1.
         11    1    3    3    0    0 -0.29108690422E+02  0.29752733375E+02  0.84698711519E+01  0.42476813898E+02  0.51100000000E-03 0. -1.
        -11    1    3    3    0    0 -0.25154780626E+01 -0.55115026050E+01 -0.16683457941E+01  0.62839214507E+01  0.51100000000E-03 0.  1.
        -12    1    3    3    0    0  0.32093865840E+02 -0.25152492675E+02 -0.62165878152E+01  0.41246940207E+02  0.00000000000E+00 0.  1.
</event>
<event>
 7    1  0.2569312E-015  0.9000768E+02  0.7816164E-02  0.1186339E+00
        -11   -1    0    0    0    0  0.00000000000E+00  0.00000000000E+00  0.45593999997E+02  0.45594000000E+02  0.51100000000E-03 0. -1.
         11   -1    0    0    0    0 -0.00000000000E+00 -0.00000000000E+00 -0.45593999997E+02  0.45594000000E+02  0.51100000000E-03 0.  1.
    9900012    2    1    2    0    0  0.78593962767E+00 -0.52622124957E+00 -0.70607127534E+00  0.90007683709E+02  0.89999944334E+02 0.  0.
         12    1    1    2    0    0 -0.78593962767E+00  0.52622124957E+00  0.70607127534E+00  0.11803162914E+01  0.00000000000E+00 0. -1.
         11    1    3    3    0    0  0.13129231298E+02 -0.24260471629E+02  0.40068869884E+01  0.27874761734E+02  0.51100000000E-03 0. -1.
        -11    1    3    3    0    0  0.17338372755E+02 -0.77049836338E-01 -0.14767034459E+02  0.22774775815E+02  0.51100000000E-03 0.  1.
         12    1    3    3    0    0 -0.29681664425E+02  0.23811300215E+02  0.10054076195E+02  0.39358146160E+02  0.00000000000E+00 0. -1.
</event>
<event>
 7    1  0.2569312E-015  0.9000775E+02  0.7816164E-02  0.1186339E+00
        -11   -1    0    0    0    0  0.00000000000E+00  0.00000000000E+00  0.45593999997E+02  0.45594000000E+02  0.51100000000E-03 0. -1.
         11   -1    0    0    0    0 -0.00000000000E+00 -0.00000000000E+00 -0.45593999997E+02  0.45594000000E+02  0.51100000000E-03 0.  1.
    9900012    2    1    2    0    0 -0.17286924099E+00  0.10050571330E+01 -0.59411013899E+00  0.90007749826E+02  0.90000011324E+02 0.  0.
         12    1    1    2    0    0  0.17286924099E+00 -0.10050571330E+01  0.59411013899E+00  0.11802501736E+01  0.00000000000E+00 0. -1.
         11    1    3    3    0    0  0.60567882237E+01 -0.34406261828E+01  0.69092055345E+00  0.69999973992E+01  0.51100000000E-03 0. -1.
        -11    1    3    3    0    0  0.17372112158E+01 -0.11580105062E+02 -0.39291023824E+02  0.40998796196E+02  0.51100000000E-03 0.  1.
         12    1    3    3    0    0 -0.79668686806E+01  0.16025788378E+02  0.38005993132E+02  0.42008956232E+02  0.00000000000E+00 0. -1.
</event>
<event>
 7    1  0.2569312E-015  0.9000773E+02  0.7816164E-02  0.1186339E+00
        -11   -1    0    0    0    0  0.00000000000E+00  0.00000000000E+00  0.45593999997E+02  0.45594000000E+02  0.51100000000E-03 0. -1.
         11   -1    0    0    0    0 -0.00000000000E+00 -0.00000000000E+00 -0.45593999997E+02  0.45594000000E+02  0.51100000000E-03 0.  1.
    9900012    2    1    2    0    0  0.23001403532E+00  0.22620149732E+00 -0.11353287209E+01  0.90007726778E+02  0.89999987972E+02 0.  0.
         12    1    1    2    0    0 -0.23001403532E+00 -0.22620149732E+00  0.11353287209E+01  0.11802732219E+01  0.00000000000E+00 0. -1.
         11    1    3    3    0    0  0.19291768006E+01  0.20290089733E+02  0.96155102524E+01  0.22535915827E+02  0.51100000000E-03 0. -1.
        -11    1    3    3    0    0  0.30572194596E+02 -0.13062884745E+02 -0.19804821467E+01  0.33304959842E+02  0.51100000000E-03 0.  1.
         12    1    3    3    0    0 -0.32271357362E+02 -0.70010034906E+01 -0.87703568266E+01  0.34166851109E+02  0.00000000000E+00 0. -1.
</event>
<event>
 7    1  0.2569312E-015  0.9000777E+02  0.7816164E-02  0.1186339E+00
        -11   -1    0    0    0    0  0.00000000000E+00  0.00000000000E+00  0.45593999997E+02  0.45594000000E+02  0.51100000000E-03 0.  1.
         11   -1    0    0    0    0 -0.00000000000E+00 -0.00000000000E+00 -0.45593999997E+02  0.45594000000E+02  0.51100000000E-03 0. -1.
    9900012    2    1    2    0    0 -0.40273235276E+00 -0.10711892325E+01 -0.28862099037E+00  0.90007770448E+02  0.90000032218E+02 0.  0.
         12    1    1    2    0    0  0.40273235276E+00  0.10711892325E+01  0.28862099037E+00  0.11802295522E+01  0.00000000000E+00 0. -1.
         11    1    3    3    0    0 -0.58737955672E+01  0.10440743766E+01 -0.37257571515E+02  0.37732190515E+02  0.51100000000E-03 0. -1.
        -11    1    3    3    0    0  0.29519611108E+01  0.64552474332E+01 -0.54355696342E+01  0.89403417907E+01  0.51100000000E-03 0.  1.
        -12    1    3    3    0    0  0.25191021036E+01 -0.85705110423E+01  0.42404520158E+02  0.43335238142E+02  0.00000000000E+00 0.  1.
</event>
<event>
 7    1  0.2569312E-015  0.9000771E+02  0.7816164E-02  0.1186339E+00
        -11   -1    0    0    0    0  0.00000000000E+00  0.00000000000E+00  0.45593999997E+02  0.45594000000E+02  0.51100000000E-03 0.  1.
         11   -1    0    0    0    0 -0.00000000000E+00 -0.00000000000E+00 -0.45593999997E+02  0.45594000000E+02  0.51100000000E-03 0. -1.
    9900012    2    1    2    0    0  0.31035764458E+00 -0.11387235826E+01 -0.86291918877E-02  0.90007708626E+02  0.89999969580E+02 0.  0.
         12    1    1    2    0    0 -0.31035764458E+00  0.11387235826E+01  0.86291918877E-02  0.11802913742E+01  0.00000000000E+00 0. -1.
         11    1    3    3    0    0  0.60465273705E+01  0.11392026373E+02 -0.55744677051E+01  0.14050389624E+02  0.51100000000E-03 0. -1.
        -11    1    3    3    0    0  0.87727025937E+01  0.29687947820E+02 -0.99011053222E-01  0.30957137464E+02  0.51100000000E-03 0.  1.
         12    1    3    3    0    0 -0.14508872320E+02 -0.42218697775E+02  0.56648495664E+01  0.45000181538E+02  0.00000000000E+00 0. -1.
</event>
<event>
 7    1  0.2569312E-015  0.9000774E+02  0.7816164E-02  0.1186339E+00
        -11   -1    0    0    0    0  0.00000000000E+00  0.00000000000E+00  0.45593999997E+02  0.45594000000E+02  0.51100000000E-03 0. -1.
         11   -1    0    0    0    0 -0.00000000000E+00 -0.00000000000E+00 -0.45593999997E+02  0.45594000000E+02  0.51100000000E-03 0.  1.
    9900012    2    1    2    0    0 -0.12226236598E+00 -0.64092424334E+00  0.98350779531E+00  0.90007737506E+02  0.89999998841E+02 0.  0.
         12    1    1    2    0    0  0.12226236598E+00  0.64092424334E+00 -0.98350779531E+00  0.11802624942E+01  0.00000000000E+00 0. -1.
         11    1    3    3    0    0  0.91956685621E+01  0.10932947931E+02  0.43299237525E+01  0.14927756386E+02  0.51100000000E-03 0. -1.
        -11    1    3    3    0    0  0.31288544967E+02 -0.11806218567E+01 -0.94883920918E+01  0.32716914568E+02  0.51100000000E-03 0.  1.
         12    1    3    3    0    0 -0.40606475895E+02 -0.10393250317E+02  0.61419761346E+01  0.42363066551E+02  0.00000000000E+00 0. -1.
</event>
<event>
 7    1  0.2569312E-015  0.9000777E+02  0.7816164E-02  0.1186339E+00
        -11   -1    0    0    0    0  0.00000000000E+00  0.00000000000E+00  0.45593999997E+02  0.45594000000E+02  0.51100000000E-03 0.  1.
         11   -1    0    0    0    0 -0.00000000000E+00 -0.00000000000E+00 -0.45593999997E+02  0.45594000000E+02  0.51100000000E-03 0. -1.
    9900012    2    1    2    0    0 -0.26509194162E+00  0.90766483523E+00  0.70627366478E+00  0.90007766260E+02  0.90000027975E+02 0.  0.
         12    1    1    2    0    0  0.26509194162E+00 -0.90766483523E+00 -0.70627366478E+00  0.11802337396E+01  0.00000000000E+00 0. -1.
         11    1    3    3    0    0  0.32052375443E+00 -0.50148430410E+00 -0.12867198093E+02  0.12880955283E+02  0.51100000000E-03 0. -1.
        -11    1    3    3    0    0 -0.10481714500E+02  0.30434371882E+02  0.28525871871E+02  0.43009797686E+02  0.51100000000E-03 0.  1.
         12    1    3    3    0    0  0.98960988040E+01 -0.29025222742E+02 -0.14952400113E+02  0.34117013292E+02  0.00000000000E+00 0. -1.
</event>
<event>
 7    1  0.2569312E-015  0.9000777E+02  0.7816164E-02  0.1186339E+00
        -11   -1    0    0    0    0  0.00000000000E+00  0.00000000000E+00  0.45593999997E+02  0.45594000000E+02  0.51100000000E-03 0. -1.
         11   -1    0    0    0    0 -0.00000000000E+00 -0.00000000000E+00 -0.45593999997E+02  0.45594000000E+02  0.51100000000E-03 0.  1.
    9900012    2    1    2    0    0  0.70667678470E+00  0.40942095418E+00 -0.85200983841E+00  0.90007771903E+02  0.90000033692E+02 0.  0.
         12    1    1    2    0    0 -0.70667678470E+00 -0.40942095418E+00  0.85200983841E+00  0.11802280968E+01  0.00000000000E+00 0. -1.
         11    1    3    3    0    0 -0.21314026716E+02 -0.24676261772E+02 -0.15710158820E+02  0.36194125494E+02  0.51100000000E-03 0. -1.
        -11    1    3    3    0    0 -0.50603588302E+01 -0.63026697853E+01 -0.30710639686E+01  0.86465202292E+01  0.51100000000E-03 0.  1.
        -12    1    3    3    0    0  0.27081062331E+02  0.31388352511E+02  0.17929212950E+02  0.45167126180E+02  0.00000000000E+00 0.  1.
</event>
<event>
 7    1  0.2569312E-015  0.9000779E+02  0.7816164E-02  0.1186339E+00
        -11   -1    0    0    0    0  0.00000000000E+00  0.00000000000E+00  0.45593999997E+02  0.45594000000E+02  0.51100000000E-03 0.  1.
         11   -1    0    0    0    0 -0.00000000000E+00 -0.00000000000E+00 -0.45593999997E+02  0.45594000000E+02  0.51100000000E-03 0. -1.
    9900012    2    1    2    0    0  0.97197305167E+00 -0.47531854856E+00  0.47142279755E+00  0.90007788667E+02  0.90000050678E+02 0.  0.
         12    1    1    2    0    0 -0.97197305167E+00  0.47531854856E+00 -0.47142279755E+00  0.11802113327E+01  0.00000000000E+00 0. -1.
         11    1    3    3    0    0 -0.36893988239E+02 -0.95182269620E+01  0.14511868872E+01  0.38129633572E+02  0.51100000000E-03 0. -1.
        -11    1    3    3    0    0 -0.41820322958E+01  0.87954144574E+01 -0.13198527517E+01  0.98280578522E+01  0.51100000000E-03 0.  1.
        -12    1    3    3    0    0  0.42047993586E+02  0.24749395609E+00  0.34008866200E+00  0.42050097243E+02  0.00000000000E+00 0.  1.
</event>
<event>
 7    1  0.2569312E-015  0.9000777E+02  0.7816164E-02  0.1186339E+00
        -11   -1    0    0    0    0  0.00000000000E+00  0.00000000000E+00  0.45593999997E+02  0.45594000000E+02  0.51100000000E-03 0.  1.
         11   -1    0    0    0    0 -0.00000000000E+00 -0.00000000000E+00 -0.45593999997E+02  0.45594000000E+02  0.51100000000E-03 0. -1.
    9900012    2    1    2    0    0 -0.58456214047E+00  0.92007808701E+00 -0.45241405290E+00  0.90007773302E+02  0.90000035110E+02 0.  0.
         12    1    1    2    0    0  0.58456214047E+00 -0.92007808701E+00  0.45241405290E+00  0.11802266975E+01  0.00000000000E+00 0. -1.
         11    1    3    3    0    0 -0.14629057169E+02  0.16210974200E+02 -0.30405503398E+02  0.37433936946E+02  0.51100000000E-03 0. -1.
        -11    1    3    3    0    0 -0.47055665134E+01  0.98318911980E+01  0.31954639003E+01  0.11358672041E+02  0.51100000000E-03 0.  1.
        -12    1    3    3    0    0  0.18750061542E+02 -0.25122787311E+02  0.26757625444E+02  0.41215164315E+02  0.00000000000E+00 0.  1.
</event>
<event>
 7    1  0.2569312E-015  0.9000741E+02  0.7816164E-02  0.1186340E+00
        -11   -1    0    0    0    0  0.00000000000E+00  0.00000000000E+00  0.45593999997E+02  0.45594000000E+02  0.51100000000E-03 0. -1.
         11   -1    0    0    0    0 -0.00000000000E+00 -0.00000000000E+00 -0.45593999997E+02  0.45594000000E+02  0.51100000000E-03 0.  1.
    9900012    2    1    2    0    0 -0.99572828353E+00  0.62692001594E+00 -0.96418535105E-01  0.90007406905E+02  0.89999663876E+02 0.  0.
         12    1    1    2    0    0  0.99572828353E+00 -0.62692001594E+00  0.96418535105E-01  0.11805930946E+01  0.00000000000E+00 0. -1.
         11    1    3    3    0    0  0.16536976748E+02 -0.22332529151E+02  0.17230383045E+02  0.32697087918E+02  0.51100000000E-03 0. -1.
        -11    1    3    3    0    0  0.12945014978E+02  0.19471063601E+01  0.50759718912E+01  0.14040303660E+02  0.51100000000E-03 0.  1.
        -12    1    3    3    0    0 -0.30477720010E+02  0.21012342806E+02 -0.22402773471E+02  0.43270015327E+02  0.00000000000E+00 0.  1.
</event>
<event>
 7    1  0.2569312E-015  0.9000775E+02  0.7816164E-02  0.1186339E+00
        -11   -1    0    0    0    0  0.00000000000E+00  0.00000000000E+00  0.45593999997E+02  0.45594000000E+02  0.51100000000E-03 0.  1.
         11   -1    0    0    0    0 -0.00000000000E+00 -0.00000000000E+00 -0.45593999997E+02  0.45594000000E+02  0.51100000000E-03 0. -1.
    9900012    2    1    2    0    0  0.15135206125E+00 -0.82054119666E+00 -0.83474087403E+00  0.90007751031E+02  0.90000012545E+02 0.  0.
         12    1    1    2    0    0 -0.15135206125E+00  0.82054119666E+00  0.83474087403E+00  0.11802489689E+01  0.00000000000E+00 0. -1.
         11    1    3    3    0    0  0.19678323345E+01  0.71038347014E+01  0.90648253520E+01  0.11683659122E+02  0.51100000000E-03 0. -1.
        -11    1    3    3    0    0  0.13773242816E+02 -0.28176003306E+00  0.30982927201E+02  0.33907571198E+02  0.51100000000E-03 0.  1.
         12    1    3    3    0    0 -0.15589723089E+02 -0.76426158650E+01 -0.40882493427E+02  0.44416520711E+02  0.00000000000E+00 0. -1.
</event>
<event>
 7    1  0.2569312E-015  0.9000766E+02  0.7816164E-02  0.1186339E+00
        -11   -1    0    0    0    0  0.00000000000E+00  0.00000000000E+00  0.45593999997E+02  0.45594000000E+02  0.51100000000E-03 0. -1.
         11   -1    0    0    0    0 -0.00000000000E+00 -0.00000000000E+00 -0.45593999997E+02  0.45594000000E+02  0.51100000000E-03 0.  1.
    9900012    2    1    2    0    0  0.70244894415E+00 -0.49493179511E+00 -0.80919803106E+00  0.90007663838E+02  0.89999924201E+02 0.  0.
         12    1    1    2    0    0 -0.70244894415E+00  0.49493179511E+00  0.80919803106E+00  0.11803361616E+01  0.00000000000E+00 0. -1.
         11    1    3    3    0    0 -0.21489695342E+02 -0.25381124694E+02  0.25863680609E+02  0.42130018650E+02  0.51100000000E-03 0. -1.
        -11    1    3    3    0    0  0.35311892089E+01 -0.35023176312E+01 -0.71043364004E+01  0.86722039857E+01  0.51100000000E-03 0.  1.
        -12    1    3    3    0    0  0.18660955077E+02  0.28388510530E+02 -0.19568542240E+02  0.39205441202E+02  0.00000000000E+00 0.  1.
</event>
<event>
 7    1  0.2569312E-015  0.9000779E+02  0.7816164E-02  0.1186339E+00
        -11   -1    0    0    0    0  0.00000000000E+00  0.00000000000E+00  0.45593999997E+02  0.45594000000E+02  0.51100000000E-03 0. -1.
         11   -1    0    0    0    0 -0.00000000000E+00 -0.00000000000E+00 -0.45593999997E+02  0.45594000000E+02  0.51100000000E-03 0.  1.
    9900012    2    1    2    0    0 -0.51182218474E+00  0.10616388115E+01 -0.62110652856E-01  0.90007789575E+02  0.90000051597E+02 0.  0.
         12    1    1    2    0    0  0.51182218474E+00 -0.10616388115E+01  0.62110652856E-01  0.11802104254E+01  0.00000000000E+00 0. -1.
         11    1    3    3    0    0  0.13552626041E+02 -0.23161849190E+02 -0.96994565919E+01  0.28534617379E+02  0.51100000000E-03 0. -1.
        -11    1    3    3    0    0 -0.14000054028E+02 -0.10216213031E+02 -0.11744520080E+02  0.20935765418E+02  0.51100000000E-03 0.  1.
        -12    1    3    3    0    0 -0.64394198582E-01  0.34439701032E+02  0.21381866019E+02  0.40537406778E+02  0.00000000000E+00 0.  1.
</event>
<event>
 7    1  0.2569312E-015  0.9000791E+02  0.7816164E-02  0.1186339E+00
        -11   -1    0    0    0    0  0.00000000000E+00  0.00000000000E+00  0.45593999997E+02  0.45594000000E+02  0.51100000000E-03 0.  1.
         11   -1    0    0    0    0 -0.00000000000E+00 -0.00000000000E+00 -0.45593999997E+02  0.45594000000E+02  0.51100000000E-03 0. -1.
    9900012    2    1    2    0    0 -0.21309019931E+00 -0.47298963527E+00  0.10599424740E+01  0.90007913276E+02  0.90000176931E+02 0.  0.
         12    1    1    2    0    0  0.21309019931E+00  0.47298963527E+00 -0.10599424740E+01  0.11800867241E+01  0.00000000000E+00 0. -1.
         11    1    3    3    0    0 -0.88734347543E+01  0.43722091338E+01 -0.42312150856E+02  0.43453103081E+02  0.51100000000E-03 0. -1.
        -11    1    3    3    0    0  0.58906552776E+00  0.44411217412E+01  0.91435796886E+01  0.10182122092E+02  0.51100000000E-03 0.  1.
        -12    1    3    3    0    0  0.80712790272E+01 -0.92863205102E+01  0.34228513641E+02  0.36372688103E+02  0.00000000000E+00 0.  1.
</event>
<event>
 7    1  0.2569312E-015  0.9000770E+02  0.7816164E-02  0.1186339E+00
        -11   -1    0    0    0    0  0.00000000000E+00  0.00000000000E+00  0.45593999997E+02  0.45594000000E+02  0.51100000000E-03 0.  1.
         11   -1    0    0    0    0 -0.00000000000E+00 -0.00000000000E+00 -0.45593999997E+02  0.45594000000E+02  0.51100000000E-03 0. -1.
    9900012    2    1    2    0    0 -0.14527077973E+00  0.95994898266E+00  0.67118669210E+00  0.90007704603E+02  0.89999965504E+02 0.  0.
         12    1    1    2    0    0  0.14527077973E+00 -0.95994898266E+00 -0.67118669210E+00  0.11802953971E+01  0.00000000000E+00 0. -1.
         11    1    3    3    0    0 -0.21280881611E+01  0.91236272443E+00  0.10401959283E+02  0.10656543630E+02  0.51100000000E-03 0. -1.
        -11    1    3    3    0    0  0.53271848891E+01 -0.32830398336E+02  0.16529131351E+02  0.37140626505E+02  0.51100000000E-03 0.  1.
         12    1    3    3    0    0 -0.33443675078E+01  0.32877984594E+02 -0.26259903942E+02  0.42210534467E+02  0.00000000000E+00 0. -1.
</event>
<event>
 7    1  0.2569312E-015  0.9000778E+02  0.7816164E-02  0.1186339E+00
        -11   -1    0    0    0    0  0.00000000000E+00  0.00000000000E+00  0.45593999997E+02  0.45594000000E+02  0.51100000000E-03 0. -1.
         11   -1    0    0    0    0 -0.00000000000E+00 -0.00000000000E+00 -0.45593999997E+02  0.45594000000E+02  0.51100000000E-03 0.  1.
    9900012    2    1    2    0    0  0.88880594822E+00  0.32302795043E+00  0.70610915585E+00  0.90007782558E+02  0.90000044488E+02 0.  0.
         12    1    1    2    0    0 -0.88880594822E+00 -0.32302795043E+00 -0.70610915585E+00  0.11802174420E+01  0.00000000000E+00 0. -1.
         11    1    3    3    0    0 -0.20409758046E+01 -0.96362832136E+01 -0.49761281003E+00  0.98626140134E+01  0.51100000000E-03 0. -1.
        -11    1    3    3    0    0  0.45842559306E+01  0.88671596516E+01 -0.38814681209E+02  0.40077692053E+02  0.51100000000E-03 0.  1.
         12    1    3    3    0    0 -0.16544741778E+01  0.10921515124E+01  0.40018403175E+02  0.40067476491E+02  0.00000000000E+00 0. -1.
</event>
<event>
 7    1  0.2569312E-015  0.9000783E+02  0.7816164E-02  0.1186339E+00
        -11   -1    0    0    0    0  0.00000000000E+00  0.00000000000E+00  0.45593999997E+02  0.45594000000E+02  0.51100000000E-03 0. -1.
         11   -1    0    0    0    0 -0.00000000000E+00 -0.00000000000E+00 -0.45593999997E+02  0.45594000000E+02  0.51100000000E-03 0.  1.
    9900012    2    1    2    0    0  0.58578994701E+00  0.98857868854E+00  0.26900721914E+00  0.90007829432E+02  0.90000091981E+02 0.  0.
         12    1    1    2    0    0 -0.58578994701E+00 -0.98857868854E+00 -0.26900721914E+00  0.11801705679E+01  0.00000000000E+00 0. -1.
         11    1    3    3    0    0 -0.28643461077E+01 -0.81507495598E+01 -0.22581486215E+01  0.89296378688E+01  0.51100000000E-03 0. -1.
        -11    1    3    3    0    0 -0.15838663611E+02  0.29083258538E+02 -0.25381646404E+02  0.41724419308E+02  0.51100000000E-03 0.  1.
         12    1    3    3    0    0  0.19288799665E+02 -0.19943930290E+02  0.27908802245E+02  0.39353772255E+02  0.00000000000E+00 0. -1.
</event>
<event>
 7    1  0.2569312E-015  0.9000778E+02  0.7816164E-02  0.1186339E+00
        -11   -1    0    0    0    0  0.00000000000E+00  0.00000000000E+00  0.45593999997E+02  0.45594000000E+02  0.51100000000E-03 0. -1.
         11   -1    0    0    0    0 -0.00000000000E+00 -0.00000000000E+00 -0.45593999997E+02  0.45594000000E+02  0.51100000000E-03 0.  1.
    9900012    2    1    2    0    0 -0.35440868573E+00  0.10001980965E+01  0.51665021614E+00  0.90007775786E+02  0.90000037627E+02 0.  0.
         12    1    1    2    0    0  0.35440868573E+00 -0.10001980965E+01 -0.51665021614E+00  0.11802242137E+01  0.00000000000E+00 0. -1.
         11    1    3    3    0    0  0.74865404857E+01 -0.16558320598E+01  0.94478967650E+00  0.77254576595E+01  0.51100000000E-03 0. -1.
        -11    1    3    3    0    0 -0.21877820521E+02  0.24897128235E+02  0.28120532749E+02  0.43465738087E+02  0.51100000000E-03 0.  1.
         12    1    3    3    0    0  0.14036871350E+02 -0.22241098079E+02 -0.28548672210E+02  0.38816580040E+02  0.00000000000E+00 0. -1.
</event>
<event>
 7    1  0.2569312E-015  0.9000777E+02  0.7816164E-02  0.1186339E+00
        -11   -1    0    0    0    0  0.00000000000E+00  0.00000000000E+00  0.45593999997E+02  0.45594000000E+02  0.51100000000E-03 0.  1.
         11   -1    0    0    0    0 -0.00000000000E+00 -0.00000000000E+00 -0.45593999997E+02  0.45594000000E+02  0.51100000000E-03 0. -1.
    9900012    2    1    2    0    0 -0.14125543477E+00  0.73398177012E+00  0.91337751859E+00  0.90007770858E+02  0.90000032633E+02 0.  0.
         12    1    1    2    0    0  0.14125543477E+00 -0.73398177012E+00 -0.91337751859E+00  0.11802291422E+01  0.00000000000E+00 0. -1.
         11    1    3    3    0    0  0.74243230714E+01 -0.54668794731E+01  0.41693651349E+01  0.10118841343E+02  0.51100000000E-03 0. -1.
        -11    1    3    3    0    0 -0.25939240502E+02  0.88123960802E+01  0.30728585703E+02  0.41167323232E+02  0.51100000000E-03 0.  1.
         12    1    3    3    0    0  0.18373661996E+02 -0.26115348370E+01 -0.33984573320E+02  0.38721606282E+02  0.00000000000E+00 0. -1.
</event>
<event>
 7    1  0.2569312E-015  0.9000767E+02  0.7816164E-02  0.1186339E+00
        -11   -1    0    0    0    0  0.00000000000E+00  0.00000000000E+00  0.45593999997E+02  0.45594000000E+02  0.51100000000E-03 0. -1.
         11   -1    0    0    0    0 -0.00000000000E+00 -0.00000000000E+00 -0.45593999997E+02  0.45594000000E+02  0.51100000000E-03 0.  1.
    9900012    2    1    2    0    0 -0.11749554350E+01  0.10589969291E+00 -0.38053665591E-01  0.90007668224E+02  0.89999928645E+02 0.  0.
         12    1    1    2    0    0  0.11749554350E+01 -0.10589969291E+00  0.38053665591E-01  0.11803317757E+01  0.00000000000E+00 0. -1.
         11    1    3    3    0    0  0.19710304986E+02  0.18801258674E+02  0.24576282163E+02  0.36687560502E+02  0.51100000000E-03 0. -1.
        -11    1    3    3    0    0  0.31013998100E+01  0.11031888426E+01  0.77582599963E+01  0.84277105335E+01  0.51100000000E-03 0.  1.
        -12    1    3    3    0    0 -0.23986660231E+02 -0.19798547823E+02 -0.32372595825E+02  0.44892397189E+02  0.00000000000E+00 0.  1.
</event>
<event>
 7    1  0.2569312E-015  0.9000765E+02  0.7816164E-02  0.1186339E+00
        -11   -1    0    0    0    0  0.00000000000E+00  0.00000000000E+00  0.45593999997E+02  0.45594000000E+02  0.51100000000E-03 0. -1.
         11   -1    0    0    0    0 -0.00000000000E+00 -0.00000000000E+00 -0.45593999997E+02  0.45594000000E+02  0.51100000000E-03 0.  1.
    9900012    2    1    2    0    0  0.10805287895E+01  0.45505981150E+00 -0.13635786502E+00  0.90007654557E+02  0.89999914797E+02 0.  0.
         12    1    1    2    0    0 -0.10805287895E+01 -0.45505981150E+00  0.13635786502E+00  0.11803454428E+01  0.00000000000E+00 0. -1.
         11    1    3    3    0    0  0.22801508394E+01  0.15870150174E+01  0.90742187422E+01  0.94899499766E+01  0.51100000000E-03 0. -1.
        -11    1    3    3    0    0 -0.20210907230E+02  0.34024689984E+02 -0.33409378596E+00  0.39576153407E+02  0.51100000000E-03 0.  1.
         12    1    3    3    0    0  0.19011285180E+02 -0.35156645190E+02 -0.88764828212E+01  0.40941551174E+02  0.00000000000E+00 0. -1.
</event>
<event>
 7    1  0.2569312E-015  0.9000785E+02  0.7816164E-02  0.1186339E+00
        -11   -1    0    0    0    0  0.00000000000E+00  0.00000000000E+00  0.45593999997E+02  0.45594000000E+02  0.51100000000E-03 0.  1.
         11   -1    0    0    0    0 -0.00000000000E+00 -0.00000000000E+00 -0.45593999997E+02  0.45594000000E+02  0.51100000000E-03 0. -1.
    9900012    2    1    2    0    0 -0.71930155587E+00  0.58741296688E+00 -0.72821535377E+00  0.90007853262E+02  0.90000116125E+02 0.  0.
         12    1    1    2    0    0  0.71930155587E+00 -0.58741296688E+00  0.72821535377E+00  0.11801467381E+01  0.00000000000E+00 0. -1.
         11    1    3    3    0    0 -0.89385973272E+01 -0.32900316947E+01  0.16109020092E+01  0.96601157485E+01  0.51100000000E-03 0. -1.
        -11    1    3    3    0    0 -0.29849201229E+02 -0.14783664850E+02  0.12280870863E+02  0.35501427433E+02  0.51100000000E-03 0.  1.
         12    1    3    3    0    0  0.38068497000E+02  0.18661109511E+02 -0.14619988226E+02  0.44846310080E+02  0.00000000000E+00 0. -1.
</event>
<event>
 7    1  0.2569312E-015  0.9000770E+02  0.7816164E-02  0.1186339E+00
        -11   -1    0    0    0    0  0.00000000000E+00  0.00000000000E+00  0.45593999997E+02  0.45594000000E+02  0.51100000000E-03 0.  1.
         11   -1    0    0    0    0 -0.00000000000E+00 -0.00000000000E+00 -0.45593999997E+02  0.45594000000E+02  0.51100000000E-03 0. -1.
    9900012    2    1    2    0    0 -0.76277015582E-01  0.35016243133E+00  0.11245748171E+01  0.90007703245E+02  0.89999964128E+02 0.  0.
         12    1    1    2    0    0  0.76277015582E-01 -0.35016243133E+00 -0.11245748171E+01  0.11802967553E+01  0.00000000000E+00 0. -1.
         11    1    3    3    0    0 -0.90273731255E+01 -0.76573107600E+01 -0.24577564641E+02  0.27279746289E+02  0.51100000000E-03 0. -1.
        -11    1    3    3    0    0  0.98788821781E+01  0.46737289178E+01 -0.16823606900E+02  0.20061650094E+02  0.51100000000E-03 0.  1.
        -12    1    3    3    0    0 -0.92778606821E+00  0.33337442735E+01  0.42525746359E+02  0.42666306862E+02  0.00000000000E+00 0.  1.
</event>
<event>
 7    1  0.2569312E-015  0.9000780E+02  0.7816164E-02  0.1186339E+00
        -11   -1    0    0    0    0  0.00000000000E+00  0.00000000000E+00  0.45593999997E+02  0.45594000000E+02  0.51100000000E-03 0. -1.
         11   -1    0    0    0    0 -0.00000000000E+00 -0.00000000000E+00 -0.45593999997E+02  0.45594000000E+02  0.51100000000E-03 0.  1.
    9900012    2    1    2    0    0 -0.28504171813E+00 -0.39946406351E+00 -0.10733335941E+01  0.90007802846E+02  0.90000065043E+02 0.  0.
         12    1    1    2    0    0  0.28504171813E+00  0.39946406351E+00  0.10733335941E+01  0.11801971545E+01  0.00000000000E+00 0. -1.
         11    1    3    3    0    0  0.16284677222E+01 -0.63317335548E+01  0.58658980225E+01  0.87835936155E+01  0.51100000000E-03 0. -1.
        -11    1    3    3    0    0  0.41192996129E+00 -0.26776061673E+02 -0.30693404052E+02  0.40733428748E+02  0.51100000000E-03 0.  1.
         12    1    3    3    0    0 -0.23254394017E+01  0.32708331165E+02  0.23754172435E+02  0.40490780482E+02  0.00000000000E+00 0. -1.
</event>
<event>
 7    1  0.2569312E-015  0.9000769E+02  0.7816164E-02  0.1186339E+00
        -11   -1    0    0    0    0  0.00000000000E+00  0.00000000000E+00  0.45593999997E+02  0.45594000000E+02  0.51100000000E-03 0.  1.
         11   -1    0    0    0    0 -0.00000000000E+00 -0.00000000000E+00 -0.45593999997E+02  0.45594000000E+02  0.51100000000E-03 0. -1.
    9900012    2    1    2    0    0  0.34438357837E+00 -0.75711245807E+00  0.83743907682E+00  0.90007693459E+02  0.89999954213E+02 0.  0.
         12    1    1    2    0    0 -0.34438357837E+00  0.75711245807E+00 -0.83743907682E+00  0.11803065409E+01  0.00000000000E+00 0. -1.
         11    1    3    3    0    0 -0.74947332335E+01 -0.15069528049E+01 -0.16015385322E+01  0.78106887615E+01  0.51100000000E-03 0. -1.
        -11    1    3    3    0    0 -0.29113386782E+02  0.94854633788E+01 -0.21405624001E+02  0.37359925650E+02  0.51100000000E-03 0.  1.
         12    1    3    3    0    0  0.36952503594E+02 -0.87356230320E+01  0.23844601610E+02  0.44837079048E+02  0.00000000000E+00 0. -1.
</event>
<event>
 7    1  0.2569312E-015  0.9000726E+02  0.7816164E-02  0.1186340E+00
        -11   -1    0    0    0    0  0.00000000000E+00  0.00000000000E+00  0.45593999997E+02  0.45594000000E+02  0.51100000000E-03 0. -1.
         11   -1    0    0    0    0 -0.00000000000E+00 -0.00000000000E+00 -0.45593999997E+02  0.45594000000E+02  0.51100000000E-03 0.  1.
    9900012    2    1    2    0    0  0.38577680761E-01 -0.66560603327E-01 -0.11782341300E+01  0.90007256922E+02  0.89999511912E+02 0.  0.
         12    1    1    2    0    0 -0.38577680761E-01  0.66560603327E-01  0.11782341300E+01  0.11807430781E+01  0.00000000000E+00 0. -1.
         11    1    3    3    0    0 -0.10537552978E+01 -0.94045813202E+01 -0.56891412838E+01  0.11041869355E+02  0.51100000000E-03 0. -1.
        -11    1    3    3    0    0 -0.21608726135E+02  0.14372362104E+02 -0.28526773113E+02  0.38565251485E+02  0.51100000000E-03 0.  1.
         12    1    3    3    0    0  0.22701059114E+02 -0.50343413874E+01  0.33037680266E+02  0.40400136082E+02  0.00000000000E+00 0. -1.
</event>
<event>
 7    1  0.2569312E-015  0.9000769E+02  0.7816164E-02  0.1186339E+00
        -11   -1    0    0    0    0  0.00000000000E+00  0.00000000000E+00  0.45593999997E+02  0.45594000000E+02  0.51100000000E-03 0.  1.
         11   -1    0    0    0    0 -0.00000000000E+00 -0.00000000000E+00 -0.45593999997E+02  0.45594000000E+02  0.51100000000E-03 0. -1.
    9900012    2    1    2    0    0 -0.20830960962E+00  0.11572410795E+01 -0.10268130795E+00  0.90007685101E+02  0.89999945744E+02 0.  0.
         12    1    1    2    0    0  0.20830960962E+00 -0.11572410795E+01  0.10268130795E+00  0.11803148989E+01  0.00000000000E+00 0. -1.
         11    1    3    3    0    0  0.71848341061E+00 -0.71476549192E+01 -0.47332698730E+01  0.86028502955E+01  0.51100000000E-03 0. -1.
        -11    1    3    3    0    0 -0.39717308854E+02  0.87753480080E+01  0.10894699954E+02  0.42108975797E+02  0.51100000000E-03 0.  1.
         12    1    3    3    0    0  0.38790515834E+02 -0.47045200937E+00 -0.62641113889E+01  0.39295859009E+02  0.00000000000E+00 0. -1.
</event>
<event>
 7    1  0.2569312E-015  0.9000748E+02  0.7816164E-02  0.1186340E+00
        -11   -1    0    0    0    0  0.00000000000E+00  0.00000000000E+00  0.45593999997E+02  0.45594000000E+02  0.51100000000E-03 0. -1.
         11   -1    0    0    0    0 -0.00000000000E+00 -0.00000000000E+00 -0.45593999997E+02  0.45594000000E+02  0.51100000000E-03 0.  1.
    9900012    2    1    2    0    0 -0.11165996706E+00 -0.15443135813E+00 -0.11650377890E+01  0.90007478911E+02  0.89999736832E+02 0.  0.
         12    1    1    2    0    0  0.11165996706E+00  0.15443135813E+00  0.11650377890E+01  0.11805210893E+01  0.00000000000E+00 0. -1.
         11    1    3    3    0    0  0.11007471459E+02  0.12232968284E+02  0.15824366502E+02  0.22830254410E+02  0.51100000000E-03 0. -1.
        -11    1    3    3    0    0 -0.17114873247E+02  0.14906921259E+02 -0.28944686649E+02  0.36782197774E+02  0.51100000000E-03 0.  1.
         12    1    3    3    0    0  0.59957418204E+01 -0.27294320901E+02  0.11955282358E+02  0.30395026726E+02  0.00000000000E+00 0. -1.
</event>
<event>
 7    1  0.2569312E-015  0.9000807E+02  0.7816164E-02  0.1186338E+00
        -11   -1    0    0    0    0  0.00000000000E+00  0.00000000000E+00  0.45593999997E+02  0.45594000000E+02  0.51100000000E-03 0. -1.
         11   -1    0    0    0    0 -0.00000000000E+00 -0.00000000000E+00 -0.45593999997E+02  0.45594000000E+02  0.51100000000E-03 0.  1.
    9900012    2    1    2    0    0 -0.11092786869E+01 -0.61816392862E-01  0.39738044752E+00  0.90008071319E+02  0.90000337060E+02 0.  0.
         12    1    1    2    0    0  0.11092786869E+01  0.61816392862E-01 -0.39738044752E+00  0.11799286807E+01  0.00000000000E+00 0. -1.
         11    1    3    3    0    0 -0.14105039565E+02 -0.19484103491E+02  0.26679149715E+02  0.35921573737E+02  0.51100000000E-03 0. -1.
        -11    1    3    3    0    0  0.13907476097E+02 -0.23978909779E+01  0.58155535027E+01  0.15263958705E+02  0.51100000000E-03 0.  1.
        -12    1    3    3    0    0 -0.91171521929E+00  0.21820178076E+02 -0.32097322770E+02  0.38822538878E+02  0.00000000000E+00 0.  1.
</event>
<event>
 7    1  0.2569312E-015  0.9000755E+02  0.7816164E-02  0.1186339E+00
        -11   -1    0    0    0    0  0.00000000000E+00  0.00000000000E+00  0.45593999997E+02  0.45594000000E+02  0.51100000000E-03 0. -1.
         11   -1    0    0    0    0 -0.00000000000E+00 -0.00000000000E+00 -0.45593999997E+02  0.45594000000E+02  0.51100000000E-03 0.  1.
    9900012    2    1    2    0    0 -0.21828390591E+00  0.92821284153E+00  0.69587846020E+00  0.90007545099E+02  0.89999803894E+02 0.  0.
         12    1    1    2    0    0  0.21828390591E+00 -0.92821284153E+00 -0.69587846020E+00  0.11804549014E+01  0.00000000000E+00 0. -1.
         11    1    3    3    0    0  0.16806377700E+02 -0.14098214591E+02  0.31389017729E+02  0.38294704860E+02  0.51100000000E-03 0. -1.
        -11    1    3    3    0    0 -0.23086603450E+01 -0.91366220984E+01  0.70327142601E+00  0.94499929586E+01  0.51100000000E-03 0.  1.
        -12    1    3    3    0    0 -0.14716001261E+02  0.24163049531E+02 -0.31396410695E+02  0.42262847280E+02  0.00000000000E+00 0.  1.
</event>
<event>
 7    1  0.2569312E-015  0.9000775E+02  0.7816164E-02  0.1186339E+00
        -11   -1    0    0    0    0  0.00000000000E+00  0.00000000000E+00  0.45593999997E+02  0.45594000000E+02  0.51100000000E-03 0. -1.
         11   -1    0    0    0    0 -0.00000000000E+00 -0.00000000000E+00 -0.45593999997E+02  0.45594000000E+02  0.51100000000E-03 0.  1.
    9900012    2    1    2    0    0  0.31922909012E+00 -0.66626090269E+00 -0.92042246672E+00  0.90007750738E+02  0.90000012248E+02 0.  0.
         12    1    1    2    0    0 -0.31922909012E+00  0.66626090269E+00  0.92042246672E+00  0.11802492617E+01  0.00000000000E+00 0. -1.
         11    1    3    3    0    0  0.88976857406E+01  0.11799715221E+02 -0.96397781772E+00  0.14809839443E+02  0.51100000000E-03 0. -1.
        -11    1    3    3    0    0 -0.19256300413E+02 -0.66492729845E+01 -0.33672933706E+02  0.39355868704E+02  0.51100000000E-03 0.  1.
         12    1    3    3    0    0  0.10677843762E+02 -0.58167031392E+01  0.33716489057E+02  0.35842042592E+02  0.00000000000E+00 0. -1.
</event>
<event>
 7    1  0.2569312E-015  0.9000772E+02  0.7816164E-02  0.1186339E+00
        -11   -1    0    0    0    0  0.00000000000E+00  0.00000000000E+00  0.45593999997E+02  0.45594000000E+02  0.51100000000E-03 0.  1.
         11   -1    0    0    0    0 -0.00000000000E+00 -0.00000000000E+00 -0.45593999997E+02  0.45594000000E+02  0.51100000000E-03 0. -1.
    9900012    2    1    2    0    0  0.72256707766E+00  0.88342427339E+00  0.30086105039E+00  0.90007720796E+02  0.89999981910E+02 0.  0.
         12    1    1    2    0    0 -0.72256707766E+00 -0.88342427339E+00 -0.30086105039E+00  0.11802792043E+01  0.00000000000E+00 0. -1.
         11    1    3    3    0    0  0.16797643910E+01 -0.10951988019E+02 -0.35758476728E+02  0.37435762423E+02  0.51100000000E-03 0. -1.
        -11    1    3    3    0    0  0.34695432742E+01 -0.81247815800E+01 -0.22780783088E+01  0.91235654925E+01  0.51100000000E-03 0.  1.
        -12    1    3    3    0    0 -0.44267405876E+01  0.19960193873E+02  0.38337416087E+02  0.43448392881E+02  0.00000000000E+00 0.  1.
</event>
<event>
 7    1  0.2569312E-015  0.9000793E+02  0.7816164E-02  0.1186339E+00
        -11   -1    0    0    0    0  0.00000000000E+00  0.00000000000E+00  0.45593999997E+02  0.45594000000E+02  0.51100000000E-03 0. -1.
         11   -1    0    0    0    0 -0.00000000000E+00 -0.00000000000E+00 -0.45593999997E+02  0.45594000000E+02  0.51100000000E-03 0.  1.
    9900012    2    1    2    0    0 -0.94566894820E+00  0.14315276314E+00 -0.69121416703E+00  0.90007932418E+02  0.90000196326E+02 0.  0.
         12    1    1    2    0    0  0.94566894820E+00 -0.14315276314E+00  0.69121416703E+00  0.11800675819E+01  0.00000000000E+00 0. -1.
         11    1    3    3    0    0  0.50179041635E+01  0.18461416266E-01  0.70217875145E+01  0.86304810513E+01  0.51100000000E-03 0. -1.
        -11    1    3    3    0    0 -0.13776486709E+02 -0.59625605157E+01 -0.42570748071E+02  0.45139919201E+02  0.51100000000E-03 0.  1.
         12    1    3    3    0    0  0.78129135970E+01  0.60872518626E+01  0.34857746389E+02  0.36237532165E+02  0.00000000000E+00 0. -1.
</event>
<event>
 7    1  0.2569312E-015  0.9000774E+02  0.7816164E-02  0.1186339E+00
        -11   -1    0    0    0    0  0.00000000000E+00  0.00000000000E+00  0.45593999997E+02  0.45594000000E+02  0.51100000000E-03 0. -1.
         11   -1    0    0    0    0 -0.00000000000E+00 -0.00000000000E+00 -0.45593999997E+02  0.45594000000E+02  0.51100000000E-03 0.  1.
    9900012    2    1    2    0    0  0.11061644442E+01  0.23816682701E+00 -0.33570893170E+00  0.90007735749E+02  0.89999997061E+02 0.  0.
         12    1    1    2    0    0 -0.11061644442E+01 -0.23816682701E+00  0.33570893170E+00  0.11802642509E+01  0.00000000000E+00 0. -1.
         11    1    3    3    0    0 -0.27212280774E+02  0.25091548342E+02  0.19521231200E+02  0.41847012927E+02  0.51100000000E-03 0. -1.
        -11    1    3    3    0    0 -0.13320038063E+01 -0.98568370984E+01 -0.83839967638E+01  0.13008569242E+02  0.51100000000E-03 0.  1.
        -12    1    3    3    0    0  0.29650449025E+02 -0.14996544416E+02 -0.11472943368E+02  0.35152153580E+02  0.00000000000E+00 0.  1.
</event>
<event>
 7    1  0.2569312E-015  0.9000773E+02  0.7816164E-02  0.1186339E+00
        -11   -1    0    0    0    0  0.00000000000E+00  0.00000000000E+00  0.45593999997E+02  0.45594000000E+02  0.51100000000E-03 0.  1.
         11   -1    0    0    0    0 -0.00000000000E+00 -0.00000000000E+00 -0.45593999997E+02  0.45594000000E+02  0.51100000000E-03 0. -1.
    9900012    2    1    2    0    0 -0.93869970502E+00 -0.61315273019E+00  0.36868152440E+00  0.90007729068E+02  0.89999990292E+02 0.  0.
         12    1    1    2    0    0  0.93869970502E+00  0.61315273019E+00 -0.36868152440E+00  0.11802709321E+01  0.00000000000E+00 0. -1.
         11    1    3    3    0    0 -0.25356625988E+01  0.87888881195E+00  0.76923520686E+01  0.81470430812E+01  0.51100000000E-03 0. -1.
        -11    1    3    3    0    0 -0.82523288605E+01 -0.30677023468E+02  0.22545241953E+02  0.38954699786E+02  0.51100000000E-03 0.  1.
         12    1    3    3    0    0  0.98492917543E+01  0.29184981925E+02 -0.29868912497E+02  0.42905986200E+02  0.00000000000E+00 0. -1.
</event>
<event>
 7    1  0.2569312E-015  0.9000773E+02  0.7816164E-02  0.1186339E+00
        -11   -1    0    0    0    0  0.00000000000E+00  0.00000000000E+00  0.45593999997E+02  0.45594000000E+02  0.51100000000E-03 0.  1.
         11   -1    0    0    0    0 -0.00000000000E+00 -0.00000000000E+00 -0.45593999997E+02  0.45594000000E+02  0.51100000000E-03 0. -1.
    9900012    2    1    2    0    0 -0.61097099031E+00  0.62340905899E+00  0.79442569400E+00  0.90007730290E+02  0.89999991529E+02 0.  0.
         12    1    1    2    0    0  0.61097099031E+00 -0.62340905899E+00 -0.79442569400E+00  0.11802697103E+01  0.00000000000E+00 0. -1.
         11    1    3    3    0    0 -0.63059775452E+01 -0.51376469469E+01  0.11563788813E+01  0.82157155093E+01  0.51100000000E-03 0. -1.
        -11    1    3    3    0    0 -0.34572279166E+02  0.11471552741E+02  0.13466212915E+02  0.38835266183E+02  0.51100000000E-03 0.  1.
         12    1    3    3    0    0  0.40267285721E+02 -0.57104967355E+01 -0.13828166102E+02  0.42956748597E+02  0.00000000000E+00 0. -1.
</event>
<event>
 7    1  0.2569312E-015  0.9000760E+02  0.7816164E-02  0.1186339E+00
        -11   -1    0    0    0    0  0.00000000000E+00  0.00000000000E+00  0.45593999997E+02  0.45594000000E+02  0.51100000000E-03 0.  1.
         11   -1    0    0    0    0 -0.00000000000E+00 -0.00000000000E+00 -0.45593999997E+02  0.45594000000E+02  0.51100000000E-03 0. -1.
    9900012    2    1    2    0    0  0.11250550394E+01  0.25277705429E-01  0.35629748707E+00  0.90007603582E+02  0.89999863149E+02 0.  0.
         12    1    1    2    0    0 -0.11250550394E+01 -0.25277705429E-01 -0.35629748707E+00  0.11803964179E+01  0.00000000000E+00 0. -1.
         11    1    3    3    0    0  0.19648819028E+01 -0.11538343891E+02 -0.11754027797E+02  0.16587685504E+02  0.51100000000E-03 0. -1.
        -11    1    3    3    0    0  0.18607363858E+02 -0.24860792552E+02  0.35981289915E+01  0.31260830580E+02  0.51100000000E-03 0.  1.
         12    1    3    3    0    0 -0.19447190721E+02  0.36424414149E+02  0.85121962930E+01  0.42159087499E+02  0.00000000000E+00 0. -1.
</event>
<event>
 7    1  0.2569312E-015  0.9000764E+02  0.7816164E-02  0.1186339E+00
        -11   -1    0    0    0    0  0.00000000000E+00  0.00000000000E+00  0.45593999997E+02  0.45594000000E+02  0.51100000000E-03 0. -1.
         11   -1    0    0    0    0 -0.00000000000E+00 -0.00000000000E+00 -0.45593999997E+02  0.45594000000E+02  0.51100000000E-03 0.  1.
    9900012    2    1    2    0    0  0.98253164092E+00  0.41233249342E+00  0.50780761163E+00  0.90007637733E+02  0.89999897751E+02 0.  0.
         12    1    1    2    0    0 -0.98253164092E+00 -0.41233249342E+00 -0.50780761163E+00  0.11803622668E+01  0.00000000000E+00 0. -1.
         11    1    3    3    0    0 -0.47368676715E+01  0.83487033037E+01  0.41704984274E+00  0.96079494702E+01  0.51100000000E-03 0. -1.
        -11    1    3    3    0    0 -0.14520092052E+02  0.29775982421E+02  0.13164069299E+02  0.35647369091E+02  0.51100000000E-03 0.  1.
         12    1    3    3    0    0  0.20239491365E+02 -0.37712353231E+02 -0.13073311530E+02  0.44752319172E+02  0.00000000000E+00 0. -1.
</event>
<event>
 7    1  0.2569312E-015  0.9000769E+02  0.7816164E-02  0.1186339E+00
        -11   -1    0    0    0    0  0.00000000000E+00  0.00000000000E+00  0.45593999997E+02  0.45594000000E+02  0.51100000000E-03 0. -1.
         11   -1    0    0    0    0 -0.00000000000E+00 -0.00000000000E+00 -0.45593999997E+02  0.45594000000E+02  0.51100000000E-03 0.  1.
    9900012    2    1    2    0    0  0.72072040748E+00 -0.76390044050E-01 -0.93159143687E+00  0.90007688198E+02  0.89999948882E+02 0.  0.
         12    1    1    2    0    0 -0.72072040748E+00  0.76390044050E-01  0.93159143687E+00  0.11803118020E+01  0.00000000000E+00 0. -1.
         11    1    3    3    0    0 -0.17853518586E+02 -0.27495415932E+02 -0.36277102523E+01  0.32983424702E+02  0.51100000000E-03 0. -1.
        -11    1    3    3    0    0 -0.84685018592E+01 -0.84865361888E+01  0.12037823704E+01  0.12049311701E+02  0.51100000000E-03 0.  1.
        -12    1    3    3    0    0  0.27042740852E+02  0.35905562077E+02  0.14923364451E+01  0.44974951794E+02  0.00000000000E+00 0.  1.
</event>
<event>
 7    1  0.2569312E-015  0.9000764E+02  0.7816164E-02  0.1186339E+00
        -11   -1    0    0    0    0  0.00000000000E+00  0.00000000000E+00  0.45593999997E+02  0.45594000000E+02  0.51100000000E-03 0. -1.
         11   -1    0    0    0    0 -0.00000000000E+00 -0.00000000000E+00 -0.45593999997E+02  0.45594000000E+02  0.51100000000E-03 0.  1.
    9900012    2    1    2    0    0 -0.11085164254E+01 -0.27342209490E+00 -0.29947642931E+00  0.90007638005E+02  0.89999898027E+02 0.  0.
         12    1    1    2    0    0  0.11085164254E+01  0.27342209490E+00  0.29947642931E+00  0.11803619949E+01  0.00000000000E+00 0. -1.
         11    1    3    3    0    0  0.37871381332E+01  0.89889518935E+01  0.27922612335E+00  0.97581575552E+01  0.51100000000E-03 0. -1.
        -11    1    3    3    0    0 -0.18312658658E+02  0.76801562941E+01 -0.34629582519E+02  0.39919246656E+02  0.51100000000E-03 0.  1.
         12    1    3    3    0    0  0.13417004100E+02 -0.16942530282E+02  0.34050879967E+02  0.40330233794E+02  0.00000000000E+00 0. -1.
</event>
<event>
 7    1  0.2569312E-015  0.9000767E+02  0.7816164E-02  0.1186339E+00
        -11   -1    0    0    0    0  0.00000000000E+00  0.00000000000E+00  0.45593999997E+02  0.45594000000E+02  0.51100000000E-03 0.  1.
         11   -1    0    0    0    0 -0.00000000000E+00 -0.00000000000E+00 -0.45593999997E+02  0.45594000000E+02  0.51100000000E-03 0. -1.
    9900012    2    1    2    0    0 -0.11346992792E+01 -0.32437779382E+00  0.20383528682E-01  0.90007670006E+02  0.89999930450E+02 0.  0.
         12    1    1    2    0    0  0.11346992792E+01  0.32437779382E+00 -0.20383528682E-01  0.11803299944E+01  0.00000000000E+00 0. -1.
         11    1    3    3    0    0  0.16161135576E+02  0.13798070033E+02 -0.34473663298E+02  0.40496944343E+02  0.51100000000E-03 0. -1.
        -11    1    3    3    0    0 -0.25544837157E+01 -0.98813787587E+01 -0.15641878116E+01  0.10325391857E+02  0.51100000000E-03 0.  1.
        -12    1    3    3    0    0 -0.14741351139E+02 -0.42410690679E+01  0.36058234638E+02  0.39185333805E+02  0.00000000000E+00 0.  1.
</event>
<event>
 7    1  0.2569312E-015  0.9000767E+02  0.7816164E-02  0.1186339E+00
        -11   -1    0    0    0    0  0.00000000000E+00  0.00000000000E+00  0.45593999997E+02  0.45594000000E+02  0.51100000000E-03 0. -1.
         11   -1    0    0    0    0 -0.00000000000E+00 -0.00000000000E+00 -0.45593999997E+02  0.45594000000E+02  0.51100000000E-03 0.  1.
    9900012    2    1    2    0    0 -0.13573103016E-01  0.21394078538E+00 -0.11607010831E+01  0.90007668736E+02  0.89999929163E+02 0.  0.
         12    1    1    2    0    0  0.13573103016E-01 -0.21394078538E+00  0.11607010831E+01  0.11803312642E+01  0.00000000000E+00 0. -1.
         11    1    3    3    0    0 -0.60641161382E+01  0.63086203658E+01 -0.20336294458E+01  0.89837544735E+01  0.51100000000E-03 0. -1.
        -11    1    3    3    0    0  0.12160385335E+02  0.35929241463E+02 -0.45907706899E+01  0.38208121380E+02  0.51100000000E-03 0.  1.
         12    1    3    3    0    0 -0.61098423001E+01 -0.42023921043E+02  0.54636990525E+01  0.42815792882E+02  0.00000000000E+00 0. -1.
</event>
<event>
 7    1  0.2569312E-015  0.9000784E+02  0.7816164E-02  0.1186339E+00
        -11   -1    0    0    0    0  0.00000000000E+00  0.00000000000E+00  0.45593999997E+02  0.45594000000E+02  0.51100000000E-03 0. -1.
         11   -1    0    0    0    0 -0.00000000000E+00 -0.00000000000E+00 -0.45593999997E+02  0.45594000000E+02  0.51100000000E-03 0.  1.
    9900012    2    1    2    0    0 -0.89534856155E+00  0.50394743711E+00 -0.58065051910E+00  0.90007844463E+02  0.90000107210E+02 0.  0.
         12    1    1    2    0    0  0.89534856155E+00 -0.50394743711E+00  0.58065051910E+00  0.11801555369E+01  0.00000000000E+00 0. -1.
         11    1    3    3    0    0  0.12244290588E+02 -0.58720724860E+01  0.20091025924E+02  0.24249808457E+02  0.51100000000E-03 0. -1.
        -11    1    3    3    0    0  0.10711390124E+02 -0.45642640744E+01  0.16538592408E+02  0.20226008604E+02  0.51100000000E-03 0.  1.
        -12    1    3    3    0    0 -0.23851029273E+02  0.10940283998E+02 -0.37210268852E+02  0.45532027402E+02  0.00000000000E+00 0.  1.
</event>
<event>
 7    1  0.2569312E-015  0.9000772E+02  0.7816164E-02  0.1186339E+00
        -11   -1    0    0    0    0  0.00000000000E+00  0.00000000000E+00  0.45593999997E+02  0.45594000000E+02  0.51100000000E-03 0. -1.
         11   -1    0    0    0    0 -0.00000000000E+00 -0.00000000000E+00 -0.45593999997E+02  0.45594000000E+02  0.51100000000E-03 0.  1.
    9900012    2    1    2    0    0 -0.37714077312E+00  0.77854035785E+00 -0.80293982502E+00  0.90007715028E+02  0.89999976067E+02 0.  0.
         12    1    1    2    0    0  0.37714077312E+00 -0.77854035785E+00  0.80293982502E+00  0.11802849716E+01  0.00000000000E+00 0. -1.
         11    1    3    3    0    0 -0.57027885132E+01  0.37334726759E+01 -0.39441517985E+01  0.78750840452E+01  0.51100000000E-03 0. -1.
        -11    1    3    3    0    0  0.13487761412E+02  0.37056921464E+02  0.10100082320E+02  0.40708067990E+02  0.51100000000E-03 0.  1.
         12    1    3    3    0    0 -0.81621136722E+01 -0.40011853782E+02 -0.69588703461E+01  0.41424562994E+02  0.00000000000E+00 0. -1.
</event>
<event>
 7    1  0.2569312E-015  0.9000753E+02  0.7816164E-02  0.1186339E+00
        -11   -1    0    0    0    0  0.00000000000E+00  0.00000000000E+00  0.45593999997E+02  0.45594000000E+02  0.51100000000E-03 0.  1.
         11   -1    0    0    0    0 -0.00000000000E+00 -0.00000000000E+00 -0.45593999997E+02  0.45594000000E+02  0.51100000000E-03 0. -1.
    9900012    2    1    2    0    0 -0.74836752126E+00 -0.76812441859E+00 -0.49339010174E+00  0.90007532778E+02  0.89999791411E+02 0.  0.
         12    1    1    2    0    0  0.74836752126E+00  0.76812441859E+00  0.49339010174E+00  0.11804672218E+01  0.00000000000E+00 0. -1.
         11    1    3    3    0    0  0.73219723957E+01 -0.44066487453E+01 -0.28846118891E+01  0.90194688834E+01  0.51100000000E-03 0. -1.
        -11    1    3    3    0    0 -0.19649197031E+02 -0.25833303951E+02  0.25921543135E+02  0.41537656840E+02  0.51100000000E-03 0.  1.
         12    1    3    3    0    0  0.11578857114E+02  0.29471828277E+02 -0.23530321347E+02  0.39450407055E+02  0.00000000000E+00 0. -1.
</event>
<event>
 7    1  0.2569312E-015  0.9000775E+02  0.7816164E-02  0.1186339E+00
        -11   -1    0    0    0    0  0.00000000000E+00  0.00000000000E+00  0.45593999997E+02  0.45594000000E+02  0.51100000000E-03 0. -1.
         11   -1    0    0    0    0 -0.00000000000E+00 -0.00000000000E+00 -0.45593999997E+02  0.45594000000E+02  0.51100000000E-03 0.  1.
    9900012    2    1    2    0    0  0.62226325364E+00  0.72292760446E+00  0.69510077039E+00  0.90007745384E+02  0.90000006823E+02 0.  0.
         12    1    1    2    0    0 -0.62226325364E+00 -0.72292760446E+00 -0.69510077039E+00  0.11802546162E+01  0.00000000000E+00 0. -1.
         11    1    3    3    0    0 -0.22562121710E+02  0.19682079220E+02 -0.15165287315E+02  0.33562173918E+02  0.51100000000E-03 0. -1.
        -11    1    3    3    0    0 -0.56853834143E+01  0.32508512477E+01 -0.98731276323E+01  0.11847795909E+02  0.51100000000E-03 0.  1.
        -12    1    3    3    0    0  0.28869768378E+02 -0.22210002863E+02  0.25733515718E+02  0.44597775557E+02  0.00000000000E+00 0.  1.
</event>
<event>
 7    1  0.2569312E-015  0.9000776E+02  0.7816164E-02  0.1186339E+00
        -11   -1    0    0    0    0  0.00000000000E+00  0.00000000000E+00  0.45593999997E+02  0.45594000000E+02  0.51100000000E-03 0.  1.
         11   -1    0    0    0    0 -0.00000000000E+00 -0.00000000000E+00 -0.45593999997E+02  0.45594000000E+02  0.51100000000E-03 0. -1.
    9900012    2    1    2    0    0  0.18276657605E+00 -0.10757816783E+01  0.44972320118E+00  0.90007762398E+02  0.90000024061E+02 0.  0.
         12    1    1    2    0    0 -0.18276657605E+00  0.10757816783E+01 -0.44972320118E+00  0.11802376025E+01  0.00000000000E+00 0. -1.
         11    1    3    3    0    0 -0.27547554195E+02 -0.56082409977E+01 -0.32844438113E+02  0.43232825775E+02  0.51100000000E-03 0. -1.
        -11    1    3    3    0    0  0.87475988586E+01 -0.20746924753E+01  0.14332647913E+01  0.91037949714E+01  0.51100000000E-03 0.  1.
        -12    1    3    3    0    0  0.18982721913E+02  0.66071517947E+01  0.31860896523E+02  0.37671141651E+02  0.00000000000E+00 0.  1.
</event>
<event>
 7    1  0.2569312E-015  0.9000772E+02  0.7816164E-02  0.1186339E+00
        -11   -1    0    0    0    0  0.00000000000E+00  0.00000000000E+00  0.45593999997E+02  0.45594000000E+02  0.51100000000E-03 0. -1.
         11   -1    0    0    0    0 -0.00000000000E+00 -0.00000000000E+00 -0.45593999997E+02  0.45594000000E+02  0.51100000000E-03 0.  1.
    9900012    2    1    2    0    0  0.45524566011E+00  0.97152115901E+00 -0.49189990335E+00  0.90007717200E+02  0.89999978267E+02 0.  0.
         12    1    1    2    0    0 -0.45524566011E+00 -0.97152115901E+00  0.49189990335E+00  0.11802828002E+01  0.00000000000E+00 0. -1.
         11    1    3    3    0    0  0.24520329796E+02 -0.68380506028E+01  0.21389773342E+02  0.33249479894E+02  0.51100000000E-03 0. -1.
        -11    1    3    3    0    0  0.11533164495E+02 -0.36402156936E+00  0.37549336935E+01  0.12134493079E+02  0.51100000000E-03 0.  1.
        -12    1    3    3    0    0 -0.35598248631E+02  0.81735933312E+01 -0.25636606939E+02  0.44623744227E+02  0.00000000000E+00 0.  1.
</event>
<event>
 7    1  0.2569312E-015  0.9000775E+02  0.7816164E-02  0.1186339E+00
        -11   -1    0    0    0    0  0.00000000000E+00  0.00000000000E+00  0.45593999997E+02  0.45594000000E+02  0.51100000000E-03 0. -1.
         11   -1    0    0    0    0 -0.00000000000E+00 -0.00000000000E+00 -0.45593999997E+02  0.45594000000E+02  0.51100000000E-03 0.  1.
    9900012    2    1    2    0    0 -0.46768995322E+00 -0.90067373474E+00 -0.60253856257E+00  0.90007745880E+02  0.90000007325E+02 0.  0.
         12    1    1    2    0    0  0.46768995322E+00  0.90067373474E+00  0.60253856257E+00  0.11802541202E+01  0.00000000000E+00 0. -1.
         11    1    3    3    0    0  0.10616645047E+02 -0.36804294528E+02 -0.90375057016E+01  0.39356648197E+02  0.51100000000E-03 0. -1.
        -11    1    3    3    0    0 -0.38701238468E+01 -0.56358808222E+01  0.47586722133E+01  0.83298242915E+01  0.51100000000E-03 0.  1.
        -12    1    3    3    0    0 -0.72142111530E+01  0.41539501616E+02  0.36762949257E+01  0.42321273391E+02  0.00000000000E+00 0.  1.
</event>
<event>
 7    1  0.2569312E-015  0.9000767E+02  0.7816164E-02  0.1186339E+00
        -11   -1    0    0    0    0  0.00000000000E+00  0.00000000000E+00  0.45593999997E+02  0.45594000000E+02  0.51100000000E-03 0.  1.
         11   -1    0    0    0    0 -0.00000000000E+00 -0.00000000000E+00 -0.45593999997E+02  0.45594000000E+02  0.51100000000E-03 0. -1.
    9900012    2    1    2    0    0 -0.23624083062E+00 -0.89746572376E+00  0.72932469378E+00  0.90007674213E+02  0.89999934712E+02 0.  0.
         12    1    1    2    0    0  0.23624083062E+00  0.89746572376E+00 -0.72932469378E+00  0.11803257874E+01  0.00000000000E+00 0. -1.
         11    1    3    3    0    0  0.37688932176E+02 -0.20844668400E+01  0.28130919191E+01  0.37851209981E+02  0.51100000000E-03 0. -1.
        -11    1    3    3    0    0  0.14961465343E+01  0.32378720346E+01 -0.11105314849E+02  0.11664059667E+02  0.51100000000E-03 0.  1.
        -12    1    3    3    0    0 -0.39421319541E+02 -0.20508709184E+01  0.90215476236E+01  0.40492404565E+02  0.00000000000E+00 0.  1.
</event>
<event>
 7    1  0.2569312E-015  0.9000768E+02  0.7816164E-02  0.1186339E+00
        -11   -1    0    0    0    0  0.00000000000E+00  0.00000000000E+00  0.45593999997E+02  0.45594000000E+02  0.51100000000E-03 0.  1.
         11   -1    0    0    0    0 -0.00000000000E+00 -0.00000000000E+00 -0.45593999997E+02  0.45594000000E+02  0.51100000000E-03 0. -1.
    9900012    2    1    2    0    0  0.11207496744E+00 -0.93369541648E+00  0.71330028530E+00  0.90007684268E+02  0.89999944901E+02 0.  0.
         12    1    1    2    0    0 -0.11207496744E+00  0.93369541648E+00 -0.71330028530E+00  0.11803157315E+01  0.00000000000E+00 0. -1.
         11    1    3    3    0    0 -0.55775672414E+01 -0.17256400211E+02 -0.10070383630E+02  0.20743799828E+02  0.51100000000E-03 0. -1.
        -11    1    3    3    0    0 -0.18372198295E+02 -0.56581241148E+01  0.26775225687E+02  0.32961564732E+02  0.51100000000E-03 0.  1.
         12    1    3    3    0    0  0.24061840504E+02  0.21980828909E+02 -0.15991541772E+02  0.36302319709E+02  0.00000000000E+00 0. -1.
</event>
<event>
 7    1  0.2569312E-015  0.9000889E+02  0.7816164E-02  0.1186337E+00
        -11   -1    0    0    0    0  0.00000000000E+00  0.00000000000E+00  0.45593999997E+02  0.45594000000E+02  0.51100000000E-03 0.  1.
         11   -1    0    0    0    0 -0.00000000000E+00 -0.00000000000E+00 -0.45593999997E+02  0.45594000000E+02  0.51100000000E-03 0. -1.
    9900012    2    1    2    0    0  0.21201169556E+00 -0.44377304615E+00  0.10716464072E+01  0.90008886139E+02  0.90001162628E+02 0.  0.
         12    1    1    2    0    0 -0.21201169556E+00  0.44377304615E+00 -0.10716464072E+01  0.11791138611E+01  0.00000000000E+00 0. -1.
         11    1    3    3    0    0  0.15302242041E+02 -0.14080710139E+02  0.29095794359E+01  0.20997396558E+02  0.51100000000E-03 0. -1.
        -11    1    3    3    0    0  0.68335728136E+01 -0.10155875243E+02  0.24437826845E+02  0.27332158724E+02  0.51100000000E-03 0.  1.
         12    1    3    3    0    0 -0.21923803159E+02  0.23792812335E+02 -0.26275759873E+02  0.41679330857E+02  0.00000000000E+00 0. -1.
</event>
<event>
 7    1  0.2569312E-015  0.9000777E+02  0.7816164E-02  0.1186339E+00
        -11   -1    0    0    0    0  0.00000000000E+00  0.00000000000E+00  0.45593999997E+02  0.45594000000E+02  0.51100000000E-03 0.  1.
         11   -1    0    0    0    0 -0.00000000000E+00 -0.00000000000E+00 -0.45593999997E+02  0.45594000000E+02  0.51100000000E-03 0. -1.
    9900012    2    1    2    0    0  0.79968363756E+00 -0.23537902544E+00  0.83548937683E+00  0.90007771334E+02  0.90000033115E+02 0.  0.
         12    1    1    2    0    0 -0.79968363756E+00  0.23537902544E+00 -0.83548937683E+00  0.11802286662E+01  0.00000000000E+00 0. -1.
         11    1    3    3    0    0  0.53889827511E+00 -0.13054841184E+02 -0.31084298612E+02  0.33718732333E+02  0.51100000000E-03 0. -1.
        -11    1    3    3    0    0  0.43535862679E+01 -0.67321855707E+01 -0.82021216677E+01  0.11469561285E+02  0.51100000000E-03 0.  1.
        -12    1    3    3    0    0 -0.40928009055E+01  0.19551647729E+02  0.40121909657E+02  0.44819477716E+02  0.00000000000E+00 0.  1.
</event>
<event>
 7    1  0.2569312E-015  0.9000783E+02  0.7816164E-02  0.1186339E+00
        -11   -1    0    0    0    0  0.00000000000E+00  0.00000000000E+00  0.45593999997E+02  0.45594000000E+02  0.51100000000E-03 0.  1.
         11   -1    0    0    0    0 -0.00000000000E+00 -0.00000000000E+00 -0.45593999997E+02  0.45594000000E+02  0.51100000000E-03 0. -1.
    9900012    2    1    2    0    0  0.78013181409E+00 -0.24649463261E+00  0.85055337638E+00  0.90007827853E+02  0.90000090380E+02 0.  0.
         12    1    1    2    0    0 -0.78013181409E+00  0.24649463261E+00 -0.85055337638E+00  0.11801721473E+01  0.00000000000E+00 0. -1.
         11    1    3    3    0    0 -0.64438165992E+01  0.28499617177E+02 -0.21013902490E+02  0.35990763395E+02  0.51100000000E-03 0. -1.
        -11    1    3    3    0    0  0.15240091421E+01  0.99989946841E+01  0.30119348920E+01  0.10553399955E+02  0.51100000000E-03 0.  1.
        -12    1    3    3    0    0  0.56999392711E+01 -0.38745106494E+02  0.18852520975E+02  0.43463664503E+02  0.00000000000E+00 0.  1.
</event>
<event>
 7    1  0.2569312E-015  0.9000770E+02  0.7816164E-02  0.1186339E+00
        -11   -1    0    0    0    0  0.00000000000E+00  0.00000000000E+00  0.45593999997E+02  0.45594000000E+02  0.51100000000E-03 0.  1.
         11   -1    0    0    0    0 -0.00000000000E+00 -0.00000000000E+00 -0.45593999997E+02  0.45594000000E+02  0.51100000000E-03 0. -1.
    9900012    2    1    2    0    0  0.72395112951E+00  0.92489166074E+00  0.11648636819E+00  0.90007703895E+02  0.89999964786E+02 0.  0.
         12    1    1    2    0    0 -0.72395112951E+00 -0.92489166074E+00 -0.11648636819E+00  0.11802961052E+01  0.00000000000E+00 0. -1.
         11    1    3    3    0    0 -0.24802600135E+00 -0.16101588521E+01 -0.43375651707E+01  0.46334220936E+01  0.51100000000E-03 0. -1.
        -11    1    3    3    0    0  0.38929594342E+02 -0.17085442579E+02  0.14086185325E+01  0.42537158699E+02  0.51100000000E-03 0.  1.
         12    1    3    3    0    0 -0.37957617211E+02  0.19620493092E+02  0.30454330064E+01  0.42837123102E+02  0.00000000000E+00 0. -1.
</event>
<event>
 7    1  0.2569312E-015  0.9000783E+02  0.7816164E-02  0.1186339E+00
        -11   -1    0    0    0    0  0.00000000000E+00  0.00000000000E+00  0.45593999997E+02  0.45594000000E+02  0.51100000000E-03 0.  1.
         11   -1    0    0    0    0 -0.00000000000E+00 -0.00000000000E+00 -0.45593999997E+02  0.45594000000E+02  0.51100000000E-03 0. -1.
    9900012    2    1    2    0    0  0.32456488515E+00  0.88051778023E+00  0.71563839890E+00  0.90007833807E+02  0.90000096413E+02 0.  0.
         12    1    1    2    0    0 -0.32456488515E+00 -0.88051778023E+00 -0.71563839890E+00  0.11801661934E+01  0.00000000000E+00 0. -1.
         11    1    3    3    0    0  0.29146126261E+01 -0.89490878810E+01 -0.18020134763E+01  0.95827132635E+01  0.51100000000E-03 0. -1.
        -11    1    3    3    0    0 -0.31529397064E+02 -0.17478902715E+02 -0.12112718614E+02  0.38030683294E+02  0.51100000000E-03 0.  1.
         12    1    3    3    0    0  0.28939349323E+02  0.27308508377E+02  0.14630370489E+02  0.42394437249E+02  0.00000000000E+00 0. -1.
</event>
<event>
 7    1  0.2569312E-015  0.9000770E+02  0.7816164E-02  0.1186339E+00
        -11   -1    0    0    0    0  0.00000000000E+00  0.00000000000E+00  0.45593999997E+02  0.45594000000E+02  0.51100000000E-03 0.  1.
         11   -1    0    0    0    0 -0.00000000000E+00 -0.00000000000E+00 -0.45593999997E+02  0.45594000000E+02  0.51100000000E-03 0. -1.
    9900012    2    1    2    0    0  0.11388229067E+01  0.30556171937E+00 -0.53152911064E-01  0.90007698848E+02  0.89999959673E+02 0.  0.
         12    1    1    2    0    0 -0.11388229067E+01 -0.30556171937E+00  0.53152911064E-01  0.11803011519E+01  0.00000000000E+00 0. -1.
         11    1    3    3    0    0  0.65683350323E+01  0.39621936545E+02 -0.13165153838E+02  0.42265377752E+02  0.51100000000E-03 0. -1.
        -11    1    3    3    0    0 -0.85556969962E+01 -0.28015778190E+01  0.46372285251E+01  0.10126829614E+02  0.51100000000E-03 0.  1.
        -12    1    3    3    0    0  0.31261848706E+01 -0.36514797006E+02  0.84747724016E+01  0.37615491483E+02  0.00000000000E+00 0.  1.
</event>
<event>
 7    1  0.2569312E-015  0.9000778E+02  0.7816164E-02  0.1186339E+00
        -11   -1    0    0    0    0  0.00000000000E+00  0.00000000000E+00  0.45593999997E+02  0.45594000000E+02  0.51100000000E-03 0. -1.
         11   -1    0    0    0    0 -0.00000000000E+00 -0.00000000000E+00 -0.45593999997E+02  0.45594000000E+02  0.51100000000E-03 0.  1.
    9900012    2    1    2    0    0  0.19920987217E+00 -0.11631305757E+01 -0.18863468326E-01  0.90007782588E+02  0.90000044518E+02 0.  0.
         12    1    1    2    0    0 -0.19920987217E+00  0.11631305757E+01  0.18863468326E-01  0.11802174121E+01  0.00000000000E+00 0. -1.
         11    1    3    3    0    0  0.23374236592E+02  0.30316450882E+02  0.53389747686E+01  0.38651607757E+02  0.51100000000E-03 0. -1.
        -11    1    3    3    0    0 -0.17074222170E+01  0.67100029388E+01  0.12955234948E+01  0.70439911593E+01  0.51100000000E-03 0.  1.
        -12    1    3    3    0    0 -0.21467604502E+02 -0.38189584397E+02 -0.66533617318E+01  0.44312183672E+02  0.00000000000E+00 0.  1.
</event>
<event>
 7    1  0.2569312E-015  0.9000773E+02  0.7816164E-02  0.1186339E+00
        -11   -1    0    0    0    0  0.00000000000E+00  0.00000000000E+00  0.45593999997E+02  0.45594000000E+02  0.51100000000E-03 0.  1.
         11   -1    0    0    0    0 -0.00000000000E+00 -0.00000000000E+00 -0.45593999997E+02  0.45594000000E+02  0.51100000000E-03 0. -1.
    9900012    2    1    2    0    0 -0.85129702586E+00  0.33504537051E+00 -0.74569848112E+00  0.90007733822E+02  0.89999995108E+02 0.  0.
         12    1    1    2    0    0  0.85129702586E+00 -0.33504537051E+00  0.74569848112E+00  0.11802661782E+01  0.00000000000E+00 0. -1.
         11    1    3    3    0    0 -0.42450524337E+00  0.77359510403E+01 -0.35455570991E+02  0.36292184527E+02  0.51100000000E-03 0. -1.
        -11    1    3    3    0    0  0.21477995900E+01 -0.31280860470E+00 -0.90520466156E+01  0.93086218364E+01  0.51100000000E-03 0.  1.
        -12    1    3    3    0    0 -0.25745913725E+01 -0.70880970651E+01  0.43761919125E+02  0.44406927458E+02  0.00000000000E+00 0.  1.
</event>
<event>
 7    1  0.2569312E-015  0.9000779E+02  0.7816164E-02  0.1186339E+00
        -11   -1    0    0    0    0  0.00000000000E+00  0.00000000000E+00  0.45593999997E+02  0.45594000000E+02  0.51100000000E-03 0. -1.
         11   -1    0    0    0    0 -0.00000000000E+00 -0.00000000000E+00 -0.45593999997E+02  0.45594000000E+02  0.51100000000E-03 0.  1.
    9900012    2    1    2    0    0  0.11096132616E+01 -0.25824221777E+00  0.30815588166E+00  0.90007792103E+02  0.90000054158E+02 0.  0.
         12    1    1    2    0    0 -0.11096132616E+01  0.25824221777E+00 -0.30815588166E+00  0.11802078973E+01  0.00000000000E+00 0. -1.
         11    1    3    3    0    0 -0.22175094707E+01 -0.94627527446E+01  0.39696974518E+02  0.40869436305E+02  0.51100000000E-03 0. -1.
        -11    1    3    3    0    0  0.57801811831E+01 -0.68900931053E+01 -0.33578253758E+01  0.95999410948E+01  0.51100000000E-03 0.  1.
        -12    1    3    3    0    0 -0.24530584508E+01  0.16094603632E+02 -0.36030993261E+02  0.39538414703E+02  0.00000000000E+00 0.  1.
</event>
<event>
 7    1  0.2569312E-015  0.9000770E+02  0.7816164E-02  0.1186339E+00
        -11   -1    0    0    0    0  0.00000000000E+00  0.00000000000E+00  0.45593999997E+02  0.45594000000E+02  0.51100000000E-03 0. -1.
         11   -1    0    0    0    0 -0.00000000000E+00 -0.00000000000E+00 -0.45593999997E+02  0.45594000000E+02  0.51100000000E-03 0.  1.
    9900012    2    1    2    0    0  0.46402006381E+00 -0.73071550851E+00  0.80239566534E+00  0.90007704030E+02  0.89999964923E+02 0.  0.
         12    1    1    2    0    0 -0.46402006381E+00  0.73071550851E+00 -0.80239566534E+00  0.11802959704E+01  0.00000000000E+00 0. -1.
         11    1    3    3    0    0 -0.78426571071E+01 -0.81727144645E+01 -0.49237875699E+00  0.11337679186E+02  0.51100000000E-03 0. -1.
        -11    1    3    3    0    0  0.20925807696E+01  0.69315629880E+00 -0.38129127998E+02  0.38192797254E+02  0.51100000000E-03 0.  1.
         12    1    3    3    0    0  0.62140964014E+01  0.67488426572E+01  0.39423902420E+02  0.40477227590E+02  0.00000000000E+00 0. -1.
</event>
<event>
 7    1  0.2569312E-015  0.9000772E+02  0.7816164E-02  0.1186339E+00
        -11   -1    0    0    0    0  0.00000000000E+00  0.00000000000E+00  0.45593999997E+02  0.45594000000E+02  0.51100000000E-03 0.  1.
         11   -1    0    0    0    0 -0.00000000000E+00 -0.00000000000E+00 -0.45593999997E+02  0.45594000000E+02  0.51100000000E-03 0. -1.
    9900012    2    1    2    0    0  0.66956234852E+00  0.39887287447E+00  0.88637424142E+00  0.90007715033E+02  0.89999976071E+02 0.  0.
         12    1    1    2    0    0 -0.66956234852E+00 -0.39887287447E+00 -0.88637424142E+00  0.11802849675E+01  0.00000000000E+00 0. -1.
         11    1    3    3    0    0  0.97462812323E+01 -0.11676201888E+00  0.69043412326E+00  0.97714037255E+01  0.51100000000E-03 0. -1.
        -11    1    3    3    0    0 -0.14641127458E+02 -0.27349764547E+02  0.27035167065E+02  0.41149392371E+02  0.51100000000E-03 0.  1.
         12    1    3    3    0    0  0.55644085743E+01  0.27865399440E+02 -0.26839226947E+02  0.39086918936E+02  0.00000000000E+00 0. -1.
</event>
<event>
 7    1  0.2569312E-015  0.9000772E+02  0.7816164E-02  0.1186339E+00
        -11   -1    0    0    0    0  0.00000000000E+00  0.00000000000E+00  0.45593999997E+02  0.45594000000E+02  0.51100000000E-03 0.  1.
         11   -1    0    0    0    0 -0.00000000000E+00 -0.00000000000E+00 -0.45593999997E+02  0.45594000000E+02  0.51100000000E-03 0. -1.
    9900012    2    1    2    0    0  0.82859632900E+00  0.10577403542E+00  0.83385172909E+00  0.90007716674E+02  0.89999977734E+02 0.  0.
         12    1    1    2    0    0 -0.82859632900E+00 -0.10577403542E+00 -0.83385172909E+00  0.11802833258E+01  0.00000000000E+00 0. -1.
         11    1    3    3    0    0  0.13032579991E+02 -0.26925046172E+02  0.26464258575E+02  0.39939494674E+02  0.51100000000E-03 0. -1.
        -11    1    3    3    0    0  0.52547294356E+00 -0.65006379048E+01 -0.73006233534E+01  0.97894594638E+01  0.51100000000E-03 0.  1.
        -12    1    3    3    0    0 -0.12729456606E+02  0.33531458112E+02 -0.18329783493E+02  0.40278762537E+02  0.00000000000E+00 0.  1.
</event>
<event>
 7    1  0.2569312E-015  0.9000760E+02  0.7816164E-02  0.1186339E+00
        -11   -1    0    0    0    0  0.00000000000E+00  0.00000000000E+00  0.45593999997E+02  0.45594000000E+02  0.51100000000E-03 0. -1.
         11   -1    0    0    0    0 -0.00000000000E+00 -0.00000000000E+00 -0.45593999997E+02  0.45594000000E+02  0.51100000000E-03 0.  1.
    9900012    2    1    2    0    0  0.33838720193E+00 -0.40901321113E+00 -0.10543007063E+01  0.90007598507E+02  0.89999858007E+02 0.  0.
         12    1    1    2    0    0 -0.33838720193E+00  0.40901321113E+00  0.10543007063E+01  0.11804014930E+01  0.00000000000E+00 0. -1.
         11    1    3    3    0    0 -0.62047071948E+01  0.66235539695E+01  0.10962194767E+01  0.91417479709E+01  0.51100000000E-03 0. -1.
        -11    1    3    3    0    0 -0.96273813831E+01 -0.31300165656E+02 -0.27085502781E+02  0.42497191713E+02  0.51100000000E-03 0.  1.
         12    1    3    3    0    0  0.16170475780E+02  0.24267598475E+02  0.24934982598E+02  0.38368658823E+02  0.00000000000E+00 0. -1.
</event>
<event>
 7    1  0.4004499E-015  0.9000775E+02  0.7816164E-02  0.1186339E+00
        -11   -1    0    0    0    0  0.00000000000E+00  0.00000000000E+00  0.45593999997E+02  0.45594000000E+02  0.51100000000E-03 0. -1.
         11   -1    0    0    0    0 -0.00000000000E+00 -0.00000000000E+00 -0.45593999997E+02  0.45594000000E+02  0.51100000000E-03 0.  1.
    9900012    2    1    2    0    0 -0.41838499700E+00  0.44738405522E+00 -0.10088527946E+01  0.90007753221E+02  0.90000014763E+02 0.  0.
         12    1    1    2    0    0  0.41838499700E+00 -0.44738405522E+00  0.10088527946E+01  0.11802467792E+01  0.00000000000E+00 0. -1.
         11    1    3    3    0    0  0.19721228244E+02 -0.19665196453E+02  0.30956480177E+02  0.41640730783E+02  0.51100000000E-03 0. -1.
        -11    1    3    3    0    0 -0.89708264154E+01  0.95580671274E+00  0.51803461097E+00  0.90364624254E+01  0.51100000000E-03 0.  1.
        -12    1    3    3    0    0 -0.11168786826E+02  0.19156773795E+02 -0.32483367582E+02  0.39330560012E+02  0.00000000000E+00 0.  1.
</event>
<event>
 7    1  0.2569312E-015  0.9000788E+02  0.7816164E-02  0.1186339E+00
        -11   -1    0    0    0    0  0.00000000000E+00  0.00000000000E+00  0.45593999997E+02  0.45594000000E+02  0.51100000000E-03 0.  1.
         11   -1    0    0    0    0 -0.00000000000E+00 -0.00000000000E+00 -0.45593999997E+02  0.45594000000E+02  0.51100000000E-03 0. -1.
    9900012    2    1    2    0    0  0.10518747361E+01 -0.21494116616E+00 -0.48995307314E+00  0.90007875354E+02  0.90000138509E+02 0.  0.
         12    1    1    2    0    0 -0.10518747361E+01  0.21494116616E+00  0.48995307314E+00  0.11801246456E+01  0.00000000000E+00 0. -1.
         11    1    3    3    0    0  0.69834131812E+01 -0.36521178672E+01  0.39369778174E+01  0.88094165057E+01  0.51100000000E-03 0. -1.
        -11    1    3    3    0    0 -0.15001525185E+01 -0.13984563936E+02  0.35079693420E+02  0.37794224119E+02  0.51100000000E-03 0.  1.
         12    1    3    3    0    0 -0.44313859266E+01  0.17421740637E+02 -0.39506624310E+02  0.43404234730E+02  0.00000000000E+00 0. -1.
</event>
<event>
 7    1  0.2569312E-015  0.9000795E+02  0.7816164E-02  0.1186339E+00
        -11   -1    0    0    0    0  0.00000000000E+00  0.00000000000E+00  0.45593999997E+02  0.45594000000E+02  0.51100000000E-03 0.  1.
         11   -1    0    0    0    0 -0.00000000000E+00 -0.00000000000E+00 -0.45593999997E+02  0.45594000000E+02  0.51100000000E-03 0. -1.
    9900012    2    1    2    0    0  0.10181992582E+01  0.73337950530E-01  0.59196016725E+00  0.90007947025E+02  0.90000211125E+02 0.  0.
         12    1    1    2    0    0 -0.10181992582E+01 -0.73337950530E-01 -0.59196016725E+00  0.11800529751E+01  0.00000000000E+00 0. -1.
         11    1    3    3    0    0  0.28351157493E+01  0.33014435238E+02 -0.21152840064E+02  0.39312001455E+02  0.51100000000E-03 0. -1.
        -11    1    3    3    0    0 -0.18854274328E+01 -0.90509188995E+00 -0.72140925270E+01  0.75111356787E+01  0.51100000000E-03 0.  1.
        -12    1    3    3    0    0  0.68510941729E-01 -0.32036005397E+02  0.28958892758E+02  0.43184809891E+02  0.00000000000E+00 0.  1.
</event>
<event>
 7    1  0.2569312E-015  0.9000774E+02  0.7816164E-02  0.1186339E+00
        -11   -1    0    0    0    0  0.00000000000E+00  0.00000000000E+00  0.45593999997E+02  0.45594000000E+02  0.51100000000E-03 0. -1.
         11   -1    0    0    0    0 -0.00000000000E+00 -0.00000000000E+00 -0.45593999997E+02  0.45594000000E+02  0.51100000000E-03 0.  1.
    9900012    2    1    2    0    0  0.23534153093E+00  0.46860057153E+00 -0.10573762348E+01  0.90007738743E+02  0.90000000095E+02 0.  0.
         12    1    1    2    0    0 -0.23534153093E+00 -0.46860057153E+00  0.10573762348E+01  0.11802612565E+01  0.00000000000E+00 0. -1.
         11    1    3    3    0    0  0.20252961510E+02  0.27329382897E+02 -0.19566022971E+02  0.39241647195E+02  0.51100000000E-03 0. -1.
        -11    1    3    3    0    0  0.21254729784E+01  0.61350217251E+01  0.66574717615E+01  0.92993579061E+01  0.51100000000E-03 0.  1.
        -12    1    3    3    0    0 -0.22143092957E+02 -0.32995804051E+02  0.11851174975E+02  0.41466733642E+02  0.00000000000E+00 0.  1.
</event>
<event>
 7    1  0.2569312E-015  0.9000782E+02  0.7816164E-02  0.1186339E+00
        -11   -1    0    0    0    0  0.00000000000E+00  0.00000000000E+00  0.45593999997E+02  0.45594000000E+02  0.51100000000E-03 0.  1.
         11   -1    0    0    0    0 -0.00000000000E+00 -0.00000000000E+00 -0.45593999997E+02  0.45594000000E+02  0.51100000000E-03 0. -1.
    9900012    2    1    2    0    0  0.48006594018E+00  0.88766211989E+00  0.61190142289E+00  0.90007817515E+02  0.90000079906E+02 0.  0.
         12    1    1    2    0    0 -0.48006594018E+00 -0.88766211989E+00 -0.61190142289E+00  0.11801824848E+01  0.00000000000E+00 0. -1.
         11    1    3    3    0    0  0.32447248275E+02  0.68319818482E+01 -0.20396529207E+02  0.38929658367E+02  0.51100000000E-03 0. -1.
        -11    1    3    3    0    0  0.62183212722E+01 -0.55170035614E+01  0.47404852436E+01  0.95695897690E+01  0.51100000000E-03 0.  1.
        -12    1    3    3    0    0 -0.38185503607E+02 -0.42731616685E+00  0.16267945386E+02  0.41508569379E+02  0.00000000000E+00 0.  1.
</event>
<event>
 7    1  0.2569312E-015  0.9000765E+02  0.7816164E-02  0.1186339E+00
        -11   -1    0    0    0    0  0.00000000000E+00  0.00000000000E+00  0.45593999997E+02  0.45594000000E+02  0.51100000000E-03 0. -1.
         11   -1    0    0    0    0 -0.00000000000E+00 -0.00000000000E+00 -0.45593999997E+02  0.45594000000E+02  0.51100000000E-03 0.  1.
    9900012    2    1    2    0    0 -0.97742267597E+00  0.18341462125E+00 -0.63578848945E+00  0.90007651317E+02  0.89999911514E+02 0.  0.
         12    1    1    2    0    0  0.97742267597E+00 -0.18341462125E+00  0.63578848945E+00  0.11803486833E+01  0.00000000000E+00 0. -1.
         11    1    3    3    0    0  0.72211870776E+01  0.26305773742E+01 -0.17323894912E+01  0.78782392539E+01  0.51100000000E-03 0. -1.
        -11    1    3    3    0    0 -0.11730779412E+02 -0.27063825217E+02 -0.30160146080E+02  0.42186446080E+02  0.51100000000E-03 0.  1.
         12    1    3    3    0    0  0.35321696589E+01  0.24616662464E+02  0.31256747082E+02  0.39942965983E+02  0.00000000000E+00 0. -1.
</event>
<event>
 7    1  0.3165995E-015  0.9000775E+02  0.7816164E-02  0.1186339E+00
        -11   -1    0    0    0    0  0.00000000000E+00  0.00000000000E+00  0.45593999997E+02  0.45594000000E+02  0.51100000000E-03 0.  1.
         11   -1    0    0    0    0 -0.00000000000E+00 -0.00000000000E+00 -0.45593999997E+02  0.45594000000E+02  0.51100000000E-03 0. -1.
    9900012    2    1    2    0    0  0.88994290508E+00  0.36375023299E+00  0.68460594324E+00  0.90007746678E+02  0.90000008134E+02 0.  0.
         12    1    1    2    0    0 -0.88994290508E+00 -0.36375023299E+00 -0.68460594324E+00  0.11802533219E+01  0.00000000000E+00 0. -1.
         11    1    3    3    0    0 -0.13934578996E+02  0.34985245396E+01 -0.35253506626E+02  0.38068647145E+02  0.51100000000E-03 0. -1.
        -11    1    3    3    0    0 -0.48647782302E+01  0.80966068963E+01 -0.45788422030E-02  0.94456938173E+01  0.51100000000E-03 0.  1.
        -12    1    3    3    0    0  0.19689300132E+02 -0.11231381203E+02  0.35942691412E+02  0.42493405716E+02  0.00000000000E+00 0.  1.
</event>
<event>
 7    1  0.2569312E-015  0.9000768E+02  0.7816164E-02  0.1186339E+00
        -11   -1    0    0    0    0  0.00000000000E+00  0.00000000000E+00  0.45593999997E+02  0.45594000000E+02  0.51100000000E-03 0.  1.
         11   -1    0    0    0    0 -0.00000000000E+00 -0.00000000000E+00 -0.45593999997E+02  0.45594000000E+02  0.51100000000E-03 0. -1.
    9900012    2    1    2    0    0 -0.47451042567E+00 -0.99349306166E+00 -0.42539079841E+00  0.90007683966E+02  0.89999944595E+02 0.  0.
         12    1    1    2    0    0  0.47451042567E+00  0.99349306166E+00  0.42539079841E+00  0.11803160335E+01  0.00000000000E+00 0. -1.
         11    1    3    3    0    0  0.75177686209E+01 -0.27177323501E+01  0.18485865878E+02  0.20140261957E+02  0.51100000000E-03 0. -1.
        -11    1    3    3    0    0  0.13601629163E+02  0.63516601850E+01  0.20071269345E+02  0.25063993224E+02  0.51100000000E-03 0.  1.
         12    1    3    3    0    0 -0.21593908209E+02 -0.46274208966E+01 -0.38982526021E+02  0.44803428785E+02  0.00000000000E+00 0. -1.
</event>
<event>
 7    1  0.2569312E-015  0.9000780E+02  0.7816164E-02  0.1186339E+00
        -11   -1    0    0    0    0  0.00000000000E+00  0.00000000000E+00  0.45593999997E+02  0.45594000000E+02  0.51100000000E-03 0.  1.
         11   -1    0    0    0    0 -0.00000000000E+00 -0.00000000000E+00 -0.45593999997E+02  0.45594000000E+02  0.51100000000E-03 0. -1.
    9900012    2    1    2    0    0 -0.92168405529E+00  0.49654659819E+00  0.54480034120E+00  0.90007801951E+02  0.90000064137E+02 0.  0.
         12    1    1    2    0    0  0.92168405529E+00 -0.49654659819E+00 -0.54480034120E+00  0.11801980485E+01  0.00000000000E+00 0. -1.
         11    1    3    3    0    0 -0.11760035083E+01 -0.85968692113E+01 -0.26723034064E+01  0.90791161599E+01  0.51100000000E-03 0. -1.
        -11    1    3    3    0    0  0.62234122733E+01 -0.34874684455E+02 -0.50805358102E+01  0.35788075116E+02  0.51100000000E-03 0.  1.
         12    1    3    3    0    0 -0.59690928203E+01  0.43968100264E+02  0.82976395577E+01  0.45140610676E+02  0.00000000000E+00 0. -1.
</event>
<event>
 7    1  0.2569312E-015  0.9000789E+02  0.7816164E-02  0.1186339E+00
        -11   -1    0    0    0    0  0.00000000000E+00  0.00000000000E+00  0.45593999997E+02  0.45594000000E+02  0.51100000000E-03 0.  1.
         11   -1    0    0    0    0 -0.00000000000E+00 -0.00000000000E+00 -0.45593999997E+02  0.45594000000E+02  0.51100000000E-03 0. -1.
    9900012    2    1    2    0    0 -0.25294910359E+00  0.11521220451E+01 -0.36027692638E-01  0.90007887103E+02  0.90000150412E+02 0.  0.
         12    1    1    2    0    0  0.25294910359E+00 -0.11521220451E+01  0.36027692638E-01  0.11801128973E+01  0.00000000000E+00 0. -1.
         11    1    3    3    0    0 -0.13384600257E+01 -0.91797258724E+01  0.52654676312E+01  0.10666957953E+02  0.51100000000E-03 0. -1.
        -11    1    3    3    0    0 -0.18816501492E+02  0.82897274704E+01  0.31404373571E+02  0.37536848424E+02  0.51100000000E-03 0.  1.
         12    1    3    3    0    0  0.19902012414E+02  0.20421204471E+01 -0.36705868895E+02  0.41804080726E+02  0.00000000000E+00 0. -1.
</event>
<event>
 7    1  0.2569312E-015  0.9000780E+02  0.7816164E-02  0.1186339E+00
        -11   -1    0    0    0    0  0.00000000000E+00  0.00000000000E+00  0.45593999997E+02  0.45594000000E+02  0.51100000000E-03 0.  1.
         11   -1    0    0    0    0 -0.00000000000E+00 -0.00000000000E+00 -0.45593999997E+02  0.45594000000E+02  0.51100000000E-03 0. -1.
    9900012    2    1    2    0    0 -0.10980573638E+01  0.35280279692E+00 -0.25032264655E+00  0.90007804586E+02  0.90000066807E+02 0.  0.
         12    1    1    2    0    0  0.10980573638E+01 -0.35280279692E+00  0.25032264655E+00  0.11801954139E+01  0.00000000000E+00 0. -1.
         11    1    3    3    0    0  0.18791013610E+02  0.24790521840E+02  0.15644572326E+02  0.34819890998E+02  0.51100000000E-03 0. -1.
        -11    1    3    3    0    0  0.60285888643E+01  0.61546003984E+01  0.50143869816E+01  0.99683031064E+01  0.51100000000E-03 0.  1.
        -12    1    3    3    0    0 -0.25917659838E+02 -0.30592319441E+02 -0.20909281954E+02  0.45219610482E+02  0.00000000000E+00 0.  1.
</event>
<event>
 7    1  0.2569312E-015  0.9000787E+02  0.7816164E-02  0.1186339E+00
        -11   -1    0    0    0    0  0.00000000000E+00  0.00000000000E+00  0.45593999997E+02  0.45594000000E+02  0.51100000000E-03 0.  1.
         11   -1    0    0    0    0 -0.00000000000E+00 -0.00000000000E+00 -0.45593999997E+02  0.45594000000E+02  0.51100000000E-03 0. -1.
    9900012    2    1    2    0    0 -0.93310752543E-03  0.54482909841E+00  0.10468414028E+01  0.90007865881E+02  0.90000128910E+02 0.  0.
         12    1    1    2    0    0  0.93310752543E-03 -0.54482909841E+00 -0.10468414028E+01  0.11801341194E+01  0.00000000000E+00 0. -1.
         11    1    3    3    0    0 -0.11568355438E+02  0.36831960317E+02  0.56108055239E+01  0.39011553253E+02  0.51100000000E-03 0. -1.
        -11    1    3    3    0    0 -0.10005404303E+02 -0.19338677452E+01 -0.14987821748E+00  0.10191684035E+02  0.51100000000E-03 0.  1.
        -12    1    3    3    0    0  0.21572826634E+02 -0.34353263473E+02 -0.44140859036E+01  0.40804628593E+02  0.00000000000E+00 0.  1.
</event>
<event>
 7    1  0.2569312E-015  0.9000773E+02  0.7816164E-02  0.1186339E+00
        -11   -1    0    0    0    0  0.00000000000E+00  0.00000000000E+00  0.45593999997E+02  0.45594000000E+02  0.51100000000E-03 0. -1.
         11   -1    0    0    0    0 -0.00000000000E+00 -0.00000000000E+00 -0.45593999997E+02  0.45594000000E+02  0.51100000000E-03 0.  1.
    9900012    2    1    2    0    0  0.28009631954E+00  0.89300802744E+00 -0.71910718236E+00  0.90007732054E+02  0.89999993317E+02 0.  0.
         12    1    1    2    0    0 -0.28009631954E+00 -0.89300802744E+00  0.71910718236E+00  0.11802679463E+01  0.00000000000E+00 0. -1.
         11    1    3    3    0    0 -0.35525521291E+02  0.15506559469E+01  0.99756426667E+01  0.36932108574E+02  0.51100000000E-03 0. -1.
        -11    1    3    3    0    0 -0.80429462442E+01 -0.11270796076E+01 -0.12203225279E+01  0.82127023605E+01  0.51100000000E-03 0.  1.
        -12    1    3    3    0    0  0.43848563855E+02  0.46943168810E+00 -0.94744273211E+01  0.44862921119E+02  0.00000000000E+00 0.  1.
</event>
<event>
 7    1  0.2569312E-015  0.9000775E+02  0.7816164E-02  0.1186339E+00
        -11   -1    0    0    0    0  0.00000000000E+00  0.00000000000E+00  0.45593999997E+02  0.45594000000E+02  0.51100000000E-03 0.  1.
         11   -1    0    0    0    0 -0.00000000000E+00 -0.00000000000E+00 -0.45593999997E+02  0.45594000000E+02  0.51100000000E-03 0. -1.
    9900012    2    1    2    0    0  0.11122072405E+01  0.39495007993E+00 -0.13525809922E-02  0.90007749035E+02  0.90000010522E+02 0.  0.
         12    1    1    2    0    0 -0.11122072405E+01 -0.39495007993E+00  0.13525809922E-02  0.11802509652E+01  0.00000000000E+00 0. -1.
         11    1    3    3    0    0  0.48487641453E+01  0.53421147065E+01  0.61261010380E+01  0.94645558513E+01  0.51100000000E-03 0. -1.
        -11    1    3    3    0    0 -0.56623322067E+01  0.17834162959E+02  0.31427752247E+02  0.36576262603E+02  0.51100000000E-03 0.  1.
         12    1    3    3    0    0  0.19257753018E+01 -0.22781327585E+02 -0.37555205866E+02  0.43966930581E+02  0.00000000000E+00 0. -1.
</event>
<event>
 7    1  0.2569312E-015  0.9000772E+02  0.7816164E-02  0.1186339E+00
        -11   -1    0    0    0    0  0.00000000000E+00  0.00000000000E+00  0.45593999997E+02  0.45594000000E+02  0.51100000000E-03 0.  1.
         11   -1    0    0    0    0 -0.00000000000E+00 -0.00000000000E+00 -0.45593999997E+02  0.45594000000E+02  0.51100000000E-03 0. -1.
    9900012    2    1    2    0    0  0.10828320723E+01  0.46961763386E+00 -0.23570285728E-02  0.90007715469E+02  0.89999976513E+02 0.  0.
         12    1    1    2    0    0 -0.10828320723E+01 -0.46961763386E+00  0.23570285728E-02  0.11802845311E+01  0.00000000000E+00 0. -1.
         11    1    3    3    0    0 -0.54955010000E+01  0.72425440055E+01  0.77929862180E+01  0.11974373026E+02  0.51100000000E-03 0. -1.
        -11    1    3    3    0    0 -0.15860784873E+02  0.22725983559E+02  0.17848186801E+02  0.32963504029E+02  0.51100000000E-03 0.  1.
         12    1    3    3    0    0  0.22439117946E+02 -0.29498909931E+02 -0.25643530048E+02  0.45069838413E+02  0.00000000000E+00 0. -1.
</event>
<event>
 7    1  0.2569312E-015  0.9000777E+02  0.7816164E-02  0.1186339E+00
        -11   -1    0    0    0    0  0.00000000000E+00  0.00000000000E+00  0.45593999997E+02  0.45594000000E+02  0.51100000000E-03 0. -1.
         11   -1    0    0    0    0 -0.00000000000E+00 -0.00000000000E+00 -0.45593999997E+02  0.45594000000E+02  0.51100000000E-03 0.  1.
    9900012    2    1    2    0    0 -0.75141571696E+00  0.68242181938E+00 -0.60217242694E+00  0.90007772585E+02  0.90000034383E+02 0.  0.
         12    1    1    2    0    0  0.75141571696E+00 -0.68242181938E+00  0.60217242694E+00  0.11802274150E+01  0.00000000000E+00 0. -1.
         11    1    3    3    0    0  0.21105835167E+02  0.22264875708E+02 -0.87415586837E+00  0.30691124403E+02  0.51100000000E-03 0. -1.
        -11    1    3    3    0    0  0.16081177911E+02 -0.32557128431E+01 -0.42295145883E+01  0.16943811349E+02  0.51100000000E-03 0.  1.
        -12    1    3    3    0    0 -0.37938428795E+02 -0.18326741045E+02  0.45014980298E+01  0.42372836833E+02  0.00000000000E+00 0.  1.
</event>
<event>
 7    1  0.2569312E-015  0.9000827E+02  0.7816164E-02  0.1186338E+00
        -11   -1    0    0    0    0  0.00000000000E+00  0.00000000000E+00  0.45593999997E+02  0.45594000000E+02  0.51100000000E-03 0. -1.
         11   -1    0    0    0    0 -0.00000000000E+00 -0.00000000000E+00 -0.45593999997E+02  0.45594000000E+02  0.51100000000E-03 0.  1.
    9900012    2    1    2    0    0 -0.89255754327E-01 -0.11614940220E+01 -0.18632606366E+00  0.90008274458E+02  0.90000542879E+02 0.  0.
         12    1    1    2    0    0  0.89255754327E-01  0.11614940220E+01  0.18632606366E+00  0.11797255422E+01  0.00000000000E+00 0. -1.
         11    1    3    3    0    0 -0.28068954313E+01 -0.69323801826E+01  0.61002541528E+01  0.96514070450E+01  0.51100000000E-03 0. -1.
        -11    1    3    3    0    0 -0.21654637855E+02 -0.24836288791E+02 -0.20410369158E+02  0.38760130946E+02  0.51100000000E-03 0.  1.
         12    1    3    3    0    0  0.24372277532E+02  0.30607174951E+02  0.14123788942E+02  0.41596736467E+02  0.00000000000E+00 0. -1.
</event>
<event>
 7    1  0.2569312E-015  0.9000770E+02  0.7816164E-02  0.1186339E+00
        -11   -1    0    0    0    0  0.00000000000E+00  0.00000000000E+00  0.45593999997E+02  0.45594000000E+02  0.51100000000E-03 0.  1.
         11   -1    0    0    0    0 -0.00000000000E+00 -0.00000000000E+00 -0.45593999997E+02  0.45594000000E+02  0.51100000000E-03 0. -1.
    9900012    2    1    2    0    0 -0.74438735021E+00  0.10831264071E+00  0.90954185675E+00  0.90007698960E+02  0.89999959787E+02 0.  0.
         12    1    1    2    0    0  0.74438735021E+00 -0.10831264071E+00 -0.90954185675E+00  0.11803010398E+01  0.00000000000E+00 0. -1.
         11    1    3    3    0    0 -0.15420644233E+00 -0.11490806680E+02 -0.49395684992E+00  0.11502452409E+02  0.51100000000E-03 0. -1.
        -11    1    3    3    0    0 -0.86351201904E+01  0.20301095589E+02 -0.34358128556E+02  0.40831125149E+02  0.51100000000E-03 0.  1.
         12    1    3    3    0    0  0.80449392826E+01 -0.87019762683E+01  0.35761627262E+02  0.37674121403E+02  0.00000000000E+00 0. -1.
</event>
<event>
 7    1  0.2569312E-015  0.9000771E+02  0.7816164E-02  0.1186339E+00
        -11   -1    0    0    0    0  0.00000000000E+00  0.00000000000E+00  0.45593999997E+02  0.45594000000E+02  0.51100000000E-03 0.  1.
         11   -1    0    0    0    0 -0.00000000000E+00 -0.00000000000E+00 -0.45593999997E+02  0.45594000000E+02  0.51100000000E-03 0. -1.
    9900012    2    1    2    0    0  0.54366924048E+00  0.49054042705E+00 -0.92567446815E+00  0.90007712165E+02  0.89999973165E+02 0.  0.
         12    1    1    2    0    0 -0.54366924048E+00 -0.49054042705E+00  0.92567446815E+00  0.11802878355E+01  0.00000000000E+00 0. -1.
         11    1    3    3    0    0  0.57217838655E+01 -0.95654561929E+01  0.41701895820E+01  0.11900724524E+02  0.51100000000E-03 0. -1.
        -11    1    3    3    0    0 -0.39724562356E+02 -0.50548780035E+01  0.92592927619E-01  0.40044989946E+02  0.51100000000E-03 0.  1.
         12    1    3    3    0    0  0.34546447731E+02  0.15110874623E+02 -0.51884569778E+01  0.38061997695E+02  0.00000000000E+00 0. -1.
</event>
<event>
 7    1  0.2569312E-015  0.9000775E+02  0.7816164E-02  0.1186339E+00
        -11   -1    0    0    0    0  0.00000000000E+00  0.00000000000E+00  0.45593999997E+02  0.45594000000E+02  0.51100000000E-03 0. -1.
         11   -1    0    0    0    0 -0.00000000000E+00 -0.00000000000E+00 -0.45593999997E+02  0.45594000000E+02  0.51100000000E-03 0.  1.
    9900012    2    1    2    0    0  0.18489924415E-01 -0.73768013132E-01 -0.11777929721E+01  0.90007754313E+02  0.90000015870E+02 0.  0.
         12    1    1    2    0    0 -0.18489924415E-01  0.73768013132E-01  0.11777929721E+01  0.11802456872E+01  0.00000000000E+00 0. -1.
         11    1    3    3    0    0  0.41626096633E+01 -0.28805662832E+01 -0.87117757812E+01  0.10075714309E+02  0.51100000000E-03 0. -1.
        -11    1    3    3    0    0  0.35606365227E+02  0.12254319764E+02 -0.28859153985E+01  0.37766520961E+02  0.51100000000E-03 0.  1.
         12    1    3    3    0    0 -0.39750484966E+02 -0.94475214935E+01  0.10419898208E+02  0.42165519042E+02  0.00000000000E+00 0. -1.
</event>
<event>
 7    1  0.2569312E-015  0.9000768E+02  0.7816164E-02  0.1186339E+00
        -11   -1    0    0    0    0  0.00000000000E+00  0.00000000000E+00  0.45593999997E+02  0.45594000000E+02  0.51100000000E-03 0. -1.
         11   -1    0    0    0    0 -0.00000000000E+00 -0.00000000000E+00 -0.45593999997E+02  0.45594000000E+02  0.51100000000E-03 0.  1.
    9900012    2    1    2    0    0  0.50478756002E+00 -0.12170809446E+00 -0.10599641298E+01  0.90007683391E+02  0.89999944012E+02 0.  0.
         12    1    1    2    0    0 -0.50478756002E+00  0.12170809446E+00  0.10599641298E+01  0.11803166090E+01  0.00000000000E+00 0. -1.
         11    1    3    3    0    0 -0.10047608201E+02 -0.13036657547E+01  0.47502779229E+01  0.11190134743E+02  0.51100000000E-03 0. -1.
        -11    1    3    3    0    0 -0.22666446208E+02  0.21386672308E+02  0.15145595770E+02  0.34648904854E+02  0.51100000000E-03 0.  1.
        -12    1    3    3    0    0  0.33218841969E+02 -0.20204714647E+02 -0.20955837822E+02  0.44168643794E+02  0.00000000000E+00 0.  1.
</event>
<event>
 7    1  0.2569312E-015  0.9000777E+02  0.7816164E-02  0.1186339E+00
        -11   -1    0    0    0    0  0.00000000000E+00  0.00000000000E+00  0.45593999997E+02  0.45594000000E+02  0.51100000000E-03 0. -1.
         11   -1    0    0    0    0 -0.00000000000E+00 -0.00000000000E+00 -0.45593999997E+02  0.45594000000E+02  0.51100000000E-03 0.  1.
    9900012    2    1    2    0    0 -0.52193364869E+00 -0.10516438556E+01  0.12072879114E+00  0.90007769102E+02  0.90000030854E+02 0.  0.
         12    1    1    2    0    0  0.52193364869E+00  0.10516438556E+01 -0.12072879114E+00  0.11802308984E+01  0.00000000000E+00 0. -1.
         11    1    3    3    0    0 -0.95683959951E+01  0.36512182610E+02 -0.52463605846E+01  0.38107977912E+02  0.51100000000E-03 0. -1.
        -11    1    3    3    0    0 -0.51983395922E+00  0.35837507828E+01  0.87996143488E+01  0.95156034999E+01  0.51100000000E-03 0.  1.
        -12    1    3    3    0    0  0.95662963057E+01 -0.41147577249E+02 -0.34325249730E+01  0.42384187690E+02  0.00000000000E+00 0.  1.
</event>
<event>
 7    1  0.2569312E-015  0.9000780E+02  0.7816164E-02  0.1186339E+00
        -11   -1    0    0    0    0  0.00000000000E+00  0.00000000000E+00  0.45593999997E+02  0.45594000000E+02  0.51100000000E-03 0.  1.
         11   -1    0    0    0    0 -0.00000000000E+00 -0.00000000000E+00 -0.45593999997E+02  0.45594000000E+02  0.51100000000E-03 0. -1.
    9900012    2    1    2    0    0  0.98255988651E+00 -0.25223280152E+00  0.60317974363E+00  0.90007800390E+02  0.90000062555E+02 0.  0.
         12    1    1    2    0    0 -0.98255988651E+00  0.25223280152E+00 -0.60317974363E+00  0.11801996102E+01  0.00000000000E+00 0. -1.
         11    1    3    3    0    0  0.18027311817E+01 -0.34684003383E+02  0.44591898520E+01  0.35015915021E+02  0.51100000000E-03 0. -1.
        -11    1    3    3    0    0  0.41979018788E+01 -0.88963042396E+01  0.40952043485E+01  0.10655388694E+02  0.51100000000E-03 0.  1.
        -12    1    3    3    0    0 -0.50180731740E+01  0.43328074821E+02 -0.79512144568E+01  0.44336496675E+02  0.00000000000E+00 0.  1.
</event>
<event>
 7    1  0.2569312E-015  0.9000774E+02  0.7816164E-02  0.1186339E+00
        -11   -1    0    0    0    0  0.00000000000E+00  0.00000000000E+00  0.45593999997E+02  0.45594000000E+02  0.51100000000E-03 0.  1.
         11   -1    0    0    0    0 -0.00000000000E+00 -0.00000000000E+00 -0.45593999997E+02  0.45594000000E+02  0.51100000000E-03 0. -1.
    9900012    2    1    2    0    0 -0.21192545868E+00 -0.11491360028E+01  0.16613067720E+00  0.90007735049E+02  0.89999996351E+02 0.  0.
         12    1    1    2    0    0  0.21192545868E+00  0.11491360028E+01 -0.16613067720E+00  0.11802649512E+01  0.00000000000E+00 0. -1.
         11    1    3    3    0    0 -0.69814453449E+01 -0.33004705465E+02 -0.31567888823E+01  0.33882391861E+02  0.51100000000E-03 0. -1.
        -11    1    3    3    0    0 -0.60530654542E+01 -0.95470568928E+01 -0.43430959783E+01  0.12109846392E+02  0.51100000000E-03 0.  1.
        -12    1    3    3    0    0  0.12822585340E+02  0.41402626355E+02  0.76660155378E+01  0.44015496795E+02  0.00000000000E+00 0.  1.
</event>
<event>
 7    1  0.2569312E-015  0.9000784E+02  0.7816164E-02  0.1186339E+00
        -11   -1    0    0    0    0  0.00000000000E+00  0.00000000000E+00  0.45593999997E+02  0.45594000000E+02  0.51100000000E-03 0. -1.
         11   -1    0    0    0    0 -0.00000000000E+00 -0.00000000000E+00 -0.45593999997E+02  0.45594000000E+02  0.51100000000E-03 0.  1.
    9900012    2    1    2    0    0 -0.10398206118E+01 -0.55813643283E+00  0.59418774986E-02  0.90007839635E+02  0.90000102318E+02 0.  0.
         12    1    1    2    0    0  0.10398206118E+01  0.55813643283E+00 -0.59418774986E-02  0.11801603655E+01  0.00000000000E+00 0. -1.
         11    1    3    3    0    0 -0.55778135668E+01  0.34844940365E+01  0.10429587727E+02  0.12330044740E+02  0.51100000000E-03 0. -1.
        -11    1    3    3    0    0  0.31041561517E+02 -0.25224877769E+02  0.51818457740E+01  0.40332673179E+02  0.51100000000E-03 0.  1.
         12    1    3    3    0    0 -0.26503568562E+02  0.21182247299E+02 -0.15605491623E+02  0.37345121716E+02  0.00000000000E+00 0. -1.
</event>
<event>
 7    1  0.2569312E-015  0.9000769E+02  0.7816164E-02  0.1186339E+00
        -11   -1    0    0    0    0  0.00000000000E+00  0.00000000000E+00  0.45593999997E+02  0.45594000000E+02  0.51100000000E-03 0.  1.
         11   -1    0    0    0    0 -0.00000000000E+00 -0.00000000000E+00 -0.45593999997E+02  0.45594000000E+02  0.51100000000E-03 0. -1.
    9900012    2    1    2    0    0  0.98453593896E-01  0.10032899375E+01  0.61388059095E+00  0.90007689368E+02  0.89999950067E+02 0.  0.
         12    1    1    2    0    0 -0.98453593896E-01 -0.10032899375E+01 -0.61388059095E+00  0.11803106323E+01  0.00000000000E+00 0. -1.
         11    1    3    3    0    0  0.11609015020E+02  0.43185645839E+01  0.33375382873E+01  0.12828031489E+02  0.51100000000E-03 0. -1.
        -11    1    3    3    0    0 -0.12091504624E+02  0.27367233063E+02  0.22516366736E+02  0.37445382905E+02  0.51100000000E-03 0.  1.
         12    1    3    3    0    0  0.58094319752E+00 -0.30682507710E+02 -0.25240024432E+02  0.39734274974E+02  0.00000000000E+00 0. -1.
</event>
<event>
 7    1  0.2569312E-015  0.9000780E+02  0.7816164E-02  0.1186339E+00
        -11   -1    0    0    0    0  0.00000000000E+00  0.00000000000E+00  0.45593999997E+02  0.45594000000E+02  0.51100000000E-03 0. -1.
         11   -1    0    0    0    0 -0.00000000000E+00 -0.00000000000E+00 -0.45593999997E+02  0.45594000000E+02  0.51100000000E-03 0.  1.
    9900012    2    1    2    0    0 -0.71644255649E+00 -0.20037176400E-01 -0.93765005604E+00  0.90007797029E+02  0.90000059150E+02 0.  0.
         12    1    1    2    0    0  0.71644255649E+00  0.20037176400E-01  0.93765005604E+00  0.11802029710E+01  0.00000000000E+00 0. -1.
         11    1    3    3    0    0  0.14406293959E+01 -0.96716989144E+00 -0.92323695729E+01  0.93940129256E+01  0.51100000000E-03 0. -1.
        -11    1    3    3    0    0 -0.44766662201E+01  0.51459706752E+01 -0.35706374061E+02  0.36351983487E+02  0.51100000000E-03 0.  1.
         12    1    3    3    0    0  0.23195942677E+01 -0.41988379601E+01  0.44001093577E+02  0.44261800616E+02  0.00000000000E+00 0. -1.
</event>
<event>
 7    1  0.2569312E-015  0.9000776E+02  0.7816164E-02  0.1186339E+00
        -11   -1    0    0    0    0  0.00000000000E+00  0.00000000000E+00  0.45593999997E+02  0.45594000000E+02  0.51100000000E-03 0.  1.
         11   -1    0    0    0    0 -0.00000000000E+00 -0.00000000000E+00 -0.45593999997E+02  0.45594000000E+02  0.51100000000E-03 0. -1.
    9900012    2    1    2    0    0 -0.72337223282E+00 -0.85128474902E+00  0.38079560179E+00  0.90007763413E+02  0.90000025090E+02 0.  0.
         12    1    1    2    0    0  0.72337223282E+00  0.85128474902E+00 -0.38079560179E+00  0.11802365871E+01  0.00000000000E+00 0. -1.
         11    1    3    3    0    0  0.21820169746E+02  0.21315857906E+02  0.17273673552E+02  0.35055176568E+02  0.51100000000E-03 0. -1.
        -11    1    3    3    0    0  0.50005505710E+01  0.84632738629E+01  0.13090071597E+01  0.99169557071E+01  0.51100000000E-03 0.  1.
        -12    1    3    3    0    0 -0.27544092549E+02 -0.30630416518E+02 -0.18201885110E+02  0.45035631138E+02  0.00000000000E+00 0.  1.
</event>
<event>
 7    1  0.2569312E-015  0.9000774E+02  0.7816164E-02  0.1186339E+00
        -11   -1    0    0    0    0  0.00000000000E+00  0.00000000000E+00  0.45593999997E+02  0.45594000000E+02  0.51100000000E-03 0. -1.
         11   -1    0    0    0    0 -0.00000000000E+00 -0.00000000000E+00 -0.45593999997E+02  0.45594000000E+02  0.51100000000E-03 0.  1.
    9900012    2    1    2    0    0  0.16794557938E+00  0.81249999520E+00 -0.83943565265E+00  0.90007739785E+02  0.90000001150E+02 0.  0.
         12    1    1    2    0    0 -0.16794557938E+00 -0.81249999520E+00  0.83943565265E+00  0.11802602149E+01  0.00000000000E+00 0. -1.
         11    1    3    3    0    0 -0.29648400813E+02 -0.27786983833E+02 -0.33253907707E+01  0.40770116082E+02  0.51100000000E-03 0. -1.
        -11    1    3    3    0    0 -0.29292999158E+01 -0.26178441061E+01  0.38273063580E+00  0.39472001167E+01  0.51100000000E-03 0.  1.
        -12    1    3    3    0    0  0.32745646308E+02  0.31217327934E+02  0.21032244823E+01  0.45290423587E+02  0.00000000000E+00 0.  1.
</event>
<event>
 7    1  0.2569312E-015  0.9000767E+02  0.7816164E-02  0.1186339E+00
        -11   -1    0    0    0    0  0.00000000000E+00  0.00000000000E+00  0.45593999997E+02  0.45594000000E+02  0.51100000000E-03 0. -1.
         11   -1    0    0    0    0 -0.00000000000E+00 -0.00000000000E+00 -0.45593999997E+02  0.45594000000E+02  0.51100000000E-03 0.  1.
    9900012    2    1    2    0    0 -0.69909723813E+00  0.45798715667E-01 -0.94991598074E+00  0.90007671723E+02  0.89999932190E+02 0.  0.
         12    1    1    2    0    0  0.69909723813E+00 -0.45798715667E-01  0.94991598074E+00  0.11803282769E+01  0.00000000000E+00 0. -1.
         11    1    3    3    0    0 -0.13198214451E+01  0.98825151048E+01  0.79387897192E+00  0.10001813712E+02  0.51100000000E-03 0. -1.
        -11    1    3    3    0    0  0.15542603169E+02  0.26945959067E+02  0.17716028036E+02  0.35798252373E+02  0.51100000000E-03 0.  1.
         12    1    3    3    0    0 -0.14921878962E+02 -0.36782675456E+02 -0.19459822989E+02  0.44207605638E+02  0.00000000000E+00 0. -1.
</event>
<event>
 7    1  0.2569312E-015  0.9000702E+02  0.7816164E-02  0.1186340E+00
        -11   -1    0    0    0    0  0.00000000000E+00  0.00000000000E+00  0.45593999997E+02  0.45594000000E+02  0.51100000000E-03 0. -1.
         11   -1    0    0    0    0 -0.00000000000E+00 -0.00000000000E+00 -0.45593999997E+02  0.45594000000E+02  0.51100000000E-03 0.  1.
    9900012    2    1    2    0    0 -0.10496060532E+01  0.38949379318E+00  0.37596101571E+00  0.90007015255E+02  0.89999267054E+02 0.  0.
         12    1    1    2    0    0  0.10496060532E+01 -0.38949379318E+00 -0.37596101571E+00  0.11809847447E+01  0.00000000000E+00 0. -1.
         11    1    3    3    0    0  0.14336792630E+01  0.11652992450E+01  0.13870848691E+02  0.13993348499E+02  0.51100000000E-03 0. -1.
        -11    1    3    3    0    0  0.17881510702E+02 -0.14976370570E+02 -0.35740592306E+02  0.42678215041E+02  0.51100000000E-03 0.  1.
         12    1    3    3    0    0 -0.20364796018E+02  0.14200565118E+02  0.22245704631E+02  0.33335451715E+02  0.00000000000E+00 0. -1.
</event>
<event>
 7    1  0.2569312E-015  0.9000776E+02  0.7816164E-02  0.1186339E+00
        -11   -1    0    0    0    0  0.00000000000E+00  0.00000000000E+00  0.45593999997E+02  0.45594000000E+02  0.51100000000E-03 0. -1.
         11   -1    0    0    0    0 -0.00000000000E+00 -0.00000000000E+00 -0.45593999997E+02  0.45594000000E+02  0.51100000000E-03 0.  1.
    9900012    2    1    2    0    0  0.40207032764E+00 -0.50228995481E+00 -0.98944715572E+00  0.90007762134E+02  0.90000023794E+02 0.  0.
         12    1    1    2    0    0 -0.40207032764E+00  0.50228995481E+00  0.98944715572E+00  0.11802378663E+01  0.00000000000E+00 0. -1.
         11    1    3    3    0    0  0.30695478194E+02  0.11818147032E+02 -0.21789483345E+02  0.39454563304E+02  0.51100000000E-03 0. -1.
        -11    1    3    3    0    0  0.50420211859E+01  0.41861955915E+01  0.58520635497E+01  0.87859466889E+01  0.51100000000E-03 0.  1.
        -12    1    3    3    0    0 -0.35335429052E+02 -0.16506632578E+02  0.14947972640E+02  0.41767252141E+02  0.00000000000E+00 0.  1.
</event>
<event>
 7    1  0.2569312E-015  0.9000773E+02  0.7816164E-02  0.1186339E+00
        -11   -1    0    0    0    0  0.00000000000E+00  0.00000000000E+00  0.45593999997E+02  0.45594000000E+02  0.51100000000E-03 0.  1.
         11   -1    0    0    0    0 -0.00000000000E+00 -0.00000000000E+00 -0.45593999997E+02  0.45594000000E+02  0.51100000000E-03 0. -1.
    9900012    2    1    2    0    0  0.27437888050E-01  0.10868645845E+01  0.45935566820E+00  0.90007730924E+02  0.89999992172E+02 0.  0.
         12    1    1    2    0    0 -0.27437888050E-01 -0.10868645845E+01 -0.45935566820E+00  0.11802690764E+01  0.00000000000E+00 0. -1.
         11    1    3    3    0    0 -0.17138845401E+02 -0.80915850047E+01 -0.32330138852E+02  0.37476014303E+02  0.51100000000E-03 0. -1.
        -11    1    3    3    0    0  0.39235625589E+00 -0.10940494485E+01 -0.75570700293E+01  0.76459267140E+01  0.51100000000E-03 0.  1.
        -12    1    3    3    0    0  0.16773927033E+02  0.10272499038E+02  0.40346564550E+02  0.44885789907E+02  0.00000000000E+00 0.  1.
</event>
<event>
 7    1  0.2569312E-015  0.9000774E+02  0.7816164E-02  0.1186339E+00
        -11   -1    0    0    0    0  0.00000000000E+00  0.00000000000E+00  0.45593999997E+02  0.45594000000E+02  0.51100000000E-03 0. -1.
         11   -1    0    0    0    0 -0.00000000000E+00 -0.00000000000E+00 -0.45593999997E+02  0.45594000000E+02  0.51100000000E-03 0.  1.
    9900012    2    1    2    0    0  0.28542551099E+00 -0.11435434835E+01 -0.62037817951E-01  0.90007742354E+02  0.90000003753E+02 0.  0.
         12    1    1    2    0    0 -0.28542551099E+00  0.11435434835E+01  0.62037817951E-01  0.11802576464E+01  0.00000000000E+00 0. -1.
         11    1    3    3    0    0  0.16294886713E+01  0.34375213790E+02 -0.13489703914E+02  0.36963261062E+02  0.51100000000E-03 0. -1.
        -11    1    3    3    0    0 -0.48653288216E+01  0.70317293468E+01  0.32867801594E+01  0.91607623169E+01  0.51100000000E-03 0.  1.
        -12    1    3    3    0    0  0.35212656613E+01 -0.42550486620E+02  0.10140885937E+02  0.43883718974E+02  0.00000000000E+00 0.  1.
</event>
<event>
 7    1  0.2569312E-015  0.9000774E+02  0.7816164E-02  0.1186339E+00
        -11   -1    0    0    0    0  0.00000000000E+00  0.00000000000E+00  0.45593999997E+02  0.45594000000E+02  0.51100000000E-03 0. -1.
         11   -1    0    0    0    0 -0.00000000000E+00 -0.00000000000E+00 -0.45593999997E+02  0.45594000000E+02  0.51100000000E-03 0.  1.
    9900012    2    1    2    0    0  0.19548315352E+00 -0.58115298527E+00 -0.10084988745E+01  0.90007736286E+02  0.89999997605E+02 0.  0.
         12    1    1    2    0    0 -0.19548315352E+00  0.58115298527E+00  0.10084988745E+01  0.11802637143E+01  0.00000000000E+00 0. -1.
         11    1    3    3    0    0 -0.19134715342E+02  0.30921720251E+01 -0.33381904096E+02  0.38601170712E+02  0.51100000000E-03 0. -1.
        -11    1    3    3    0    0  0.70111663015E+00  0.98935893513E+01 -0.19067255854E+01  0.10100013738E+02  0.51100000000E-03 0.  1.
        -12    1    3    3    0    0  0.18629081865E+02 -0.13566914362E+02  0.34280130807E+02  0.41306551836E+02  0.00000000000E+00 0.  1.
</event>
<event>
 7    1  0.2569312E-015  0.9000775E+02  0.7816164E-02  0.1186339E+00
        -11   -1    0    0    0    0  0.00000000000E+00  0.00000000000E+00  0.45593999997E+02  0.45594000000E+02  0.51100000000E-03 0.  1.
         11   -1    0    0    0    0 -0.00000000000E+00 -0.00000000000E+00 -0.45593999997E+02  0.45594000000E+02  0.51100000000E-03 0. -1.
    9900012    2    1    2    0    0 -0.60613829474E+00 -0.30722760323E+00  0.96498312988E+00  0.90007752198E+02  0.90000013727E+02 0.  0.
         12    1    1    2    0    0  0.60613829474E+00  0.30722760323E+00 -0.96498312988E+00  0.11802478017E+01  0.00000000000E+00 0. -1.
         11    1    3    3    0    0 -0.60059074582E+01  0.65029068005E+00 -0.82914083677E+01  0.10258716067E+02  0.51100000000E-03 0. -1.
        -11    1    3    3    0    0  0.18978426758E+02  0.20344253612E+02  0.34308409995E+02  0.44171668905E+02  0.51100000000E-03 0.  1.
         12    1    3    3    0    0 -0.13578657594E+02 -0.21301771895E+02 -0.25052018497E+02  0.35577367226E+02  0.00000000000E+00 0. -1.
</event>
<event>
 7    1  0.2569312E-015  0.9000769E+02  0.7816164E-02  0.1186339E+00
        -11   -1    0    0    0    0  0.00000000000E+00  0.00000000000E+00  0.45593999997E+02  0.45594000000E+02  0.51100000000E-03 0.  1.
         11   -1    0    0    0    0 -0.00000000000E+00 -0.00000000000E+00 -0.45593999997E+02  0.45594000000E+02  0.51100000000E-03 0. -1.
    9900012    2    1    2    0    0  0.39105789892E+00 -0.62125981810E+00  0.92424620520E+00  0.90007694493E+02  0.89999955260E+02 0.  0.
         12    1    1    2    0    0 -0.39105789892E+00  0.62125981810E+00 -0.92424620520E+00  0.11803055069E+01  0.00000000000E+00 0. -1.
         11    1    3    3    0    0  0.97685659629E+01  0.21692312272E+01  0.32049978298E+01  0.10507257322E+02  0.51100000000E-03 0. -1.
        -11    1    3    3    0    0  0.21566291468E+02 -0.15557350375E+02  0.24862511525E+02  0.36404403002E+02  0.51100000000E-03 0.  1.
         12    1    3    3    0    0 -0.30943799532E+02  0.12766859330E+02 -0.27143263149E+02  0.43096034168E+02  0.00000000000E+00 0. -1.
</event>
<event>
 7    1  0.2569312E-015  0.9000762E+02  0.7816164E-02  0.1186339E+00
        -11   -1    0    0    0    0  0.00000000000E+00  0.00000000000E+00  0.45593999997E+02  0.45594000000E+02  0.51100000000E-03 0. -1.
         11   -1    0    0    0    0 -0.00000000000E+00 -0.00000000000E+00 -0.45593999997E+02  0.45594000000E+02  0.51100000000E-03 0.  1.
    9900012    2    1    2    0    0 -0.23558893408E+00 -0.11066429422E+01 -0.33635581323E+00  0.90007620408E+02  0.89999880198E+02 0.  0.
         12    1    1    2    0    0  0.23558893408E+00  0.11066429422E+01  0.33635581323E+00  0.11803795917E+01  0.00000000000E+00 0. -1.
         11    1    3    3    0    0 -0.37456739196E+01  0.36109539169E+02 -0.19930952039E+02  0.41414631975E+02  0.51100000000E-03 0. -1.
        -11    1    3    3    0    0  0.25915592444E+00 -0.89503630855E+01 -0.56235046408E+01  0.10573550296E+02  0.51100000000E-03 0.  1.
        -12    1    3    3    0    0  0.32509290611E+01 -0.28265819026E+02  0.25218100867E+02  0.38019438138E+02  0.00000000000E+00 0.  1.
</event>
<event>
 7    1  0.3312135E-015  0.9000776E+02  0.7816164E-02  0.1186339E+00
        -11   -1    0    0    0    0  0.00000000000E+00  0.00000000000E+00  0.45593999997E+02  0.45594000000E+02  0.51100000000E-03 0.  1.
         11   -1    0    0    0    0 -0.00000000000E+00 -0.00000000000E+00 -0.45593999997E+02  0.45594000000E+02  0.51100000000E-03 0. -1.
    9900012    2    1    2    0    0  0.35113644401E+00 -0.68725092584E+00  0.89294774619E+00  0.90007760060E+02  0.90000021693E+02 0.  0.
         12    1    1    2    0    0 -0.35113644401E+00  0.68725092584E+00 -0.89294774619E+00  0.11802399395E+01  0.00000000000E+00 0. -1.
         11    1    3    3    0    0 -0.17186832851E+02 -0.10820689625E+02 -0.35241358378E+02  0.40674659040E+02  0.51100000000E-03 0. -1.
        -11    1    3    3    0    0 -0.70976355885E+01  0.19241026073E+01  0.55571090474E+01  0.92173783158E+01  0.51100000000E-03 0.  1.
        -12    1    3    3    0    0  0.24635604884E+02  0.82093360924E+01  0.30577197077E+02  0.40115722705E+02  0.00000000000E+00 0.  1.
</event>
<event>
 7    1  0.2569312E-015  0.9000774E+02  0.7816164E-02  0.1186339E+00
        -11   -1    0    0    0    0  0.00000000000E+00  0.00000000000E+00  0.45593999997E+02  0.45594000000E+02  0.51100000000E-03 0.  1.
         11   -1    0    0    0    0 -0.00000000000E+00 -0.00000000000E+00 -0.45593999997E+02  0.45594000000E+02  0.51100000000E-03 0. -1.
    9900012    2    1    2    0    0 -0.11225823215E+01 -0.35820895776E+00  0.67091496406E-01  0.90007743250E+02  0.90000004661E+02 0.  0.
         12    1    1    2    0    0  0.11225823215E+01  0.35820895776E+00 -0.67091496406E-01  0.11802567495E+01  0.00000000000E+00 0. -1.
         11    1    3    3    0    0  0.29636693542E+02 -0.20833415538E+02 -0.57266317826E+01  0.36676410933E+02  0.51100000000E-03 0. -1.
        -11    1    3    3    0    0  0.37629505424E+01 -0.74634078198E+01  0.28179150154E+01  0.88205951253E+01  0.51100000000E-03 0.  1.
        -12    1    3    3    0    0 -0.34522226406E+02  0.27938614400E+02  0.29758082637E+01  0.44510737192E+02  0.00000000000E+00 0.  1.
</event>
<event>
 7    1  0.2569312E-015  0.9000778E+02  0.7816164E-02  0.1186339E+00
        -11   -1    0    0    0    0  0.00000000000E+00  0.00000000000E+00  0.45593999997E+02  0.45594000000E+02  0.51100000000E-03 0.  1.
         11   -1    0    0    0    0 -0.00000000000E+00 -0.00000000000E+00 -0.45593999997E+02  0.45594000000E+02  0.51100000000E-03 0. -1.
    9900012    2    1    2    0    0  0.19188424289E+00  0.23432509581E+00  0.11406994384E+01  0.90007778401E+02  0.90000040276E+02 0.  0.
         12    1    1    2    0    0 -0.19188424289E+00 -0.23432509581E+00 -0.11406994384E+01  0.11802215987E+01  0.00000000000E+00 0. -1.
         11    1    3    3    0    0 -0.15773648744E+01 -0.24893031411E+01  0.12767120802E+02  0.13102827325E+02  0.51100000000E-03 0. -1.
        -11    1    3    3    0    0 -0.22768864738E+02  0.26519741973E+02  0.10124413516E+02  0.36389856623E+02  0.51100000000E-03 0.  1.
         12    1    3    3    0    0  0.24538113855E+02 -0.23796113736E+02 -0.21750834880E+02  0.40515094453E+02  0.00000000000E+00 0. -1.
</event>
<event>
 7    1  0.2569312E-015  0.9000778E+02  0.7816164E-02  0.1186339E+00
        -11   -1    0    0    0    0  0.00000000000E+00  0.00000000000E+00  0.45593999997E+02  0.45594000000E+02  0.51100000000E-03 0.  1.
         11   -1    0    0    0    0 -0.00000000000E+00 -0.00000000000E+00 -0.45593999997E+02  0.45594000000E+02  0.51100000000E-03 0. -1.
    9900012    2    1    2    0    0 -0.32820084668E+00  0.12586116256E-01  0.11336031276E+01  0.90007775336E+02  0.90000037171E+02 0.  0.
         12    1    1    2    0    0  0.32820084668E+00 -0.12586116256E-01 -0.11336031276E+01  0.11802246638E+01  0.00000000000E+00 0. -1.
         11    1    3    3    0    0  0.58689659719E+01 -0.90403716814E+01  0.11752028552E+01  0.10842240715E+02  0.51100000000E-03 0. -1.
        -11    1    3    3    0    0 -0.79924827645E+01 -0.29343081762E+02 -0.19455733822E+02  0.36102933494E+02  0.51100000000E-03 0.  1.
         12    1    3    3    0    0  0.17953159460E+01  0.38396039560E+02  0.19414134094E+02  0.43062601127E+02  0.00000000000E+00 0. -1.
</event>
<event>
 7    1  0.2569312E-015  0.9000777E+02  0.7816164E-02  0.1186339E+00
        -11   -1    0    0    0    0  0.00000000000E+00  0.00000000000E+00  0.45593999997E+02  0.45594000000E+02  0.51100000000E-03 0. -1.
         11   -1    0    0    0    0 -0.00000000000E+00 -0.00000000000E+00 -0.45593999997E+02  0.45594000000E+02  0.51100000000E-03 0.  1.
    9900012    2    1    2    0    0  0.11789756711E+01  0.49467092633E-01 -0.22625128042E-01  0.90007770140E+02  0.90000031906E+02 0.  0.
         12    1    1    2    0    0 -0.11789756711E+01 -0.49467092633E-01  0.22625128042E-01  0.11802298601E+01  0.00000000000E+00 0. -1.
         11    1    3    3    0    0 -0.85370892341E+01  0.47573214912E+01 -0.56911220369E+01  0.11309415134E+02  0.51100000000E-03 0. -1.
        -11    1    3    3    0    0 -0.13087939573E+02  0.32394187320E+02  0.20414001129E+01  0.34997783488E+02  0.51100000000E-03 0.  1.
         12    1    3    3    0    0  0.22804004478E+02 -0.37102041718E+02  0.36270967960E+01  0.43700571519E+02  0.00000000000E+00 0. -1.
</event>
<event>
 7    1  0.2569312E-015  0.9000773E+02  0.7816164E-02  0.1186339E+00
        -11   -1    0    0    0    0  0.00000000000E+00  0.00000000000E+00  0.45593999997E+02  0.45594000000E+02  0.51100000000E-03 0.  1.
         11   -1    0    0    0    0 -0.00000000000E+00 -0.00000000000E+00 -0.45593999997E+02  0.45594000000E+02  0.51100000000E-03 0. -1.
    9900012    2    1    2    0    0 -0.77356246854E+00  0.88371413605E+00  0.11696162883E+00  0.90007733255E+02  0.89999994534E+02 0.  0.
         12    1    1    2    0    0  0.77356246854E+00 -0.88371413605E+00 -0.11696162883E+00  0.11802667451E+01  0.00000000000E+00 0. -1.
         11    1    3    3    0    0  0.79209826345E+01  0.37890906502E+01 -0.20891851558E+01  0.90257336947E+01  0.51100000000E-03 0. -1.
        -11    1    3    3    0    0  0.34203805709E+02  0.10840327230E+02 -0.13921180412E-01  0.35880540875E+02  0.51100000000E-03 0.  1.
         12    1    3    3    0    0 -0.42898350812E+02 -0.13745703744E+02  0.22200679650E+01  0.45101458685E+02  0.00000000000E+00 0. -1.
</event>
<event>
 7    1  0.2569312E-015  0.9000789E+02  0.7816164E-02  0.1186339E+00
        -11   -1    0    0    0    0  0.00000000000E+00  0.00000000000E+00  0.45593999997E+02  0.45594000000E+02  0.51100000000E-03 0.  1.
         11   -1    0    0    0    0 -0.00000000000E+00 -0.00000000000E+00 -0.45593999997E+02  0.45594000000E+02  0.51100000000E-03 0. -1.
    9900012    2    1    2    0    0  0.89579033799E+00 -0.63542058925E+00  0.43180904623E+00  0.90007890383E+02  0.90000153736E+02 0.  0.
         12    1    1    2    0    0 -0.89579033799E+00  0.63542058925E+00 -0.43180904623E+00  0.11801096166E+01  0.00000000000E+00 0. -1.
         11    1    3    3    0    0  0.28517927198E+02  0.96661508432E+00 -0.31792049437E+02  0.42719327289E+02  0.51100000000E-03 0. -1.
        -11    1    3    3    0    0 -0.71948184711E+01 -0.60065788095E+01  0.60981960027E+00  0.93923523163E+01  0.51100000000E-03 0.  1.
        -12    1    3    3    0    0 -0.20427318388E+02  0.44045431359E+01  0.31614038883E+02  0.37896210778E+02  0.00000000000E+00 0.  1.
</event>
<event>
 7    1  0.2569312E-015  0.9000776E+02  0.7816164E-02  0.1186339E+00
        -11   -1    0    0    0    0  0.00000000000E+00  0.00000000000E+00  0.45593999997E+02  0.45594000000E+02  0.51100000000E-03 0.  1.
         11   -1    0    0    0    0 -0.00000000000E+00 -0.00000000000E+00 -0.45593999997E+02  0.45594000000E+02  0.51100000000E-03 0. -1.
    9900012    2    1    2    0    0 -0.97840572700E+00 -0.62444271048E+00 -0.21393874898E+00  0.90007755850E+02  0.90000017427E+02 0.  0.
         12    1    1    2    0    0  0.97840572700E+00  0.62444271048E+00  0.21393874898E+00  0.11802441500E+01  0.00000000000E+00 0. -1.
         11    1    3    3    0    0 -0.48263384983E+01 -0.42598812695E+01 -0.71198166875E+01  0.95985374748E+01  0.51100000000E-03 0. -1.
        -11    1    3    3    0    0 -0.13418859953E+02  0.28475681448E+02  0.29115924371E+02  0.42879683868E+02  0.51100000000E-03 0.  1.
         12    1    3    3    0    0  0.17266792724E+02 -0.24840242889E+02 -0.22210046433E+02  0.37529534507E+02  0.00000000000E+00 0. -1.
</event>
<event>
 7    1  0.2569312E-015  0.9000786E+02  0.7816164E-02  0.1186339E+00
        -11   -1    0    0    0    0  0.00000000000E+00  0.00000000000E+00  0.45593999997E+02  0.45594000000E+02  0.51100000000E-03 0.  1.
         11   -1    0    0    0    0 -0.00000000000E+00 -0.00000000000E+00 -0.45593999997E+02  0.45594000000E+02  0.51100000000E-03 0. -1.
    9900012    2    1    2    0    0  0.59516975473E+00 -0.39506440649E+00 -0.93937101773E+00  0.90007864062E+02  0.90000127068E+02 0.  0.
         12    1    1    2    0    0 -0.59516975473E+00  0.39506440649E+00  0.93937101773E+00  0.11801359376E+01  0.00000000000E+00 0. -1.
         11    1    3    3    0    0 -0.49597409751E+01 -0.33590343432E+01 -0.70094718418E+01  0.92203491268E+01  0.51100000000E-03 0. -1.
        -11    1    3    3    0    0  0.41320822951E+02  0.79815249607E+00  0.14816273625E+02  0.43904093444E+02  0.51100000000E-03 0.  1.
         12    1    3    3    0    0 -0.35765912222E+02  0.21658174406E+01 -0.87461728011E+01  0.36883421491E+02  0.00000000000E+00 0. -1.
</event>
<event>
 7    1  0.2569312E-015  0.9000772E+02  0.7816164E-02  0.1186339E+00
        -11   -1    0    0    0    0  0.00000000000E+00  0.00000000000E+00  0.45593999997E+02  0.45594000000E+02  0.51100000000E-03 0. -1.
         11   -1    0    0    0    0 -0.00000000000E+00 -0.00000000000E+00 -0.45593999997E+02  0.45594000000E+02  0.51100000000E-03 0.  1.
    9900012    2    1    2    0    0 -0.72653499196E-01  0.11018210000E+01  0.41685689695E+00  0.90007721338E+02  0.89999982460E+02 0.  0.
         12    1    1    2    0    0  0.72653499196E-01 -0.11018210000E+01 -0.41685689695E+00  0.11802786618E+01  0.00000000000E+00 0. -1.
         11    1    3    3    0    0  0.65661698730E+00 -0.10944718571E+02  0.20066336001E+01  0.11146505691E+02  0.51100000000E-03 0. -1.
        -11    1    3    3    0    0  0.24483293901E+01 -0.30027053894E+02  0.14838076003E+02  0.33582536862E+02  0.51100000000E-03 0.  1.
         12    1    3    3    0    0 -0.31775998766E+01  0.42073593464E+02 -0.16427852707E+02  0.45278678785E+02  0.00000000000E+00 0. -1.
</event>
<event>
 7    1  0.2569312E-015  0.9000757E+02  0.7816164E-02  0.1186339E+00
        -11   -1    0    0    0    0  0.00000000000E+00  0.00000000000E+00  0.45593999997E+02  0.45594000000E+02  0.51100000000E-03 0. -1.
         11   -1    0    0    0    0 -0.00000000000E+00 -0.00000000000E+00 -0.45593999997E+02  0.45594000000E+02  0.51100000000E-03 0.  1.
    9900012    2    1    2    0    0 -0.57016495462E+00  0.10972994515E+00 -0.10277590058E+01  0.90007569015E+02  0.89999828126E+02 0.  0.
         12    1    1    2    0    0  0.57016495462E+00 -0.10972994515E+00  0.10277590058E+01  0.11804309850E+01  0.00000000000E+00 0. -1.
         11    1    3    3    0    0 -0.80152945653E+01 -0.25743711194E+01  0.25373697514E+01  0.87926434674E+01  0.51100000000E-03 0. -1.
        -11    1    3    3    0    0 -0.32812993211E+02  0.50903910151E+01  0.15453718538E+02  0.36625428613E+02  0.51100000000E-03 0.  1.
         12    1    3    3    0    0  0.40258122822E+02 -0.24062899505E+01 -0.19018847295E+02  0.44589496935E+02  0.00000000000E+00 0. -1.
</event>
<event>
 7    1  0.2569312E-015  0.9000770E+02  0.7816164E-02  0.1186339E+00
        -11   -1    0    0    0    0  0.00000000000E+00  0.00000000000E+00  0.45593999997E+02  0.45594000000E+02  0.51100000000E-03 0.  1.
         11   -1    0    0    0    0 -0.00000000000E+00 -0.00000000000E+00 -0.45593999997E+02  0.45594000000E+02  0.51100000000E-03 0. -1.
    9900012    2    1    2    0    0  0.87755055022E+00 -0.36763270646E+00 -0.69847276170E+00  0.90007697931E+02  0.89999958744E+02 0.  0.
         12    1    1    2    0    0 -0.87755055022E+00  0.36763270646E+00  0.69847276170E+00  0.11803020689E+01  0.00000000000E+00 0. -1.
         11    1    3    3    0    0 -0.61006505318E+01  0.10247389581E+02 -0.48737009834E+00  0.11935847687E+02  0.51100000000E-03 0. -1.
        -11    1    3    3    0    0 -0.24146962126E+02 -0.25270393823E+02 -0.18029439162E+02  0.39328479002E+02  0.51100000000E-03 0.  1.
         12    1    3    3    0    0  0.31125163208E+02  0.14655371536E+02  0.17818336498E+02  0.38743371241E+02  0.00000000000E+00 0. -1.
</event>
<event>
 7    1  0.2569312E-015  0.9000764E+02  0.7816164E-02  0.1186339E+00
        -11   -1    0    0    0    0  0.00000000000E+00  0.00000000000E+00  0.45593999997E+02  0.45594000000E+02  0.51100000000E-03 0. -1.
         11   -1    0    0    0    0 -0.00000000000E+00 -0.00000000000E+00 -0.45593999997E+02  0.45594000000E+02  0.51100000000E-03 0.  1.
    9900012    2    1    2    0    0 -0.95085961067E+00  0.67934666252E+00 -0.16616843352E+00  0.90007636566E+02  0.89999896569E+02 0.  0.
         12    1    1    2    0    0  0.95085961067E+00 -0.67934666252E+00  0.16616843352E+00  0.11803634336E+01  0.00000000000E+00 0. -1.
         11    1    3    3    0    0  0.10085073780E+02 -0.75999146264E+01  0.23934000258E+01  0.12852851023E+02  0.51100000000E-03 0. -1.
        -11    1    3    3    0    0 -0.17674273642E+02 -0.11014613188E+02  0.31316295401E+02  0.37608669351E+02  0.51100000000E-03 0.  1.
         12    1    3    3    0    0  0.66383402514E+01  0.19293874477E+02 -0.33875863860E+02  0.39546116192E+02  0.00000000000E+00 0. -1.
</event>
<event>
 7    1  0.2569312E-015  0.9000773E+02  0.7816164E-02  0.1186339E+00
        -11   -1    0    0    0    0  0.00000000000E+00  0.00000000000E+00  0.45593999997E+02  0.45594000000E+02  0.51100000000E-03 0. -1.
         11   -1    0    0    0    0 -0.00000000000E+00 -0.00000000000E+00 -0.45593999997E+02  0.45594000000E+02  0.51100000000E-03 0.  1.
    9900012    2    1    2    0    0 -0.86264741040E+00  0.19336250632E+00  0.78197585928E+00  0.90007730599E+02  0.89999991843E+02 0.  0.
         12    1    1    2    0    0  0.86264741040E+00 -0.19336250632E+00 -0.78197585928E+00  0.11802694006E+01  0.00000000000E+00 0. -1.
         11    1    3    3    0    0 -0.16074365906E+02 -0.12979150478E+02  0.28804395158E+02  0.35447662364E+02  0.51100000000E-03 0. -1.
        -11    1    3    3    0    0 -0.35016696070E+01 -0.38618036298E+01  0.85932922141E+01  0.10050865070E+02  0.51100000000E-03 0.  1.
        -12    1    3    3    0    0  0.18713388103E+02  0.17034316614E+02 -0.36615711513E+02  0.44509203165E+02  0.00000000000E+00 0.  1.
</event>
<event>
 7    1  0.2569312E-015  0.9000774E+02  0.7816164E-02  0.1186339E+00
        -11   -1    0    0    0    0  0.00000000000E+00  0.00000000000E+00  0.45593999997E+02  0.45594000000E+02  0.51100000000E-03 0. -1.
         11   -1    0    0    0    0 -0.00000000000E+00 -0.00000000000E+00 -0.45593999997E+02  0.45594000000E+02  0.51100000000E-03 0.  1.
    9900012    2    1    2    0    0  0.98121985373E+00 -0.22058053583E-01 -0.65553551622E+00  0.90007743345E+02  0.90000004757E+02 0.  0.
         12    1    1    2    0    0 -0.98121985373E+00  0.22058053583E-01  0.65553551622E+00  0.11802566552E+01  0.00000000000E+00 0. -1.
         11    1    3    3    0    0 -0.89071278197E+01 -0.32712974161E+02  0.10573301550E+02  0.35514367661E+02  0.51100000000E-03 0. -1.
        -11    1    3    3    0    0  0.47588328056E+01 -0.94442531748E+01 -0.46001926038E+01  0.11532657107E+02  0.51100000000E-03 0.  1.
        -12    1    3    3    0    0  0.51295148678E+01  0.42135169282E+02 -0.66286444627E+01  0.42960718576E+02  0.00000000000E+00 0.  1.
</event>
<event>
 7    1  0.2569312E-015  0.9000771E+02  0.7816164E-02  0.1186339E+00
        -11   -1    0    0    0    0  0.00000000000E+00  0.00000000000E+00  0.45593999997E+02  0.45594000000E+02  0.51100000000E-03 0. -1.
         11   -1    0    0    0    0 -0.00000000000E+00 -0.00000000000E+00 -0.45593999997E+02  0.45594000000E+02  0.51100000000E-03 0.  1.
    9900012    2    1    2    0    0 -0.61314116437E+00 -0.10077559888E+01  0.39619569946E-01  0.90007710234E+02  0.89999971210E+02 0.  0.
         12    1    1    2    0    0  0.61314116437E+00  0.10077559888E+01 -0.39619569946E-01  0.11802897655E+01  0.00000000000E+00 0. -1.
         11    1    3    3    0    0  0.36769920591E+01 -0.10256820868E+00  0.99937344111E+01  0.10649202720E+02  0.51100000000E-03 0. -1.
        -11    1    3    3    0    0  0.38639346787E+01  0.38217069286E+02 -0.86523746909E+01  0.39374331285E+02  0.51100000000E-03 0.  1.
         12    1    3    3    0    0 -0.81540679022E+01 -0.39122257067E+02 -0.13017401502E+01  0.39984176230E+02  0.00000000000E+00 0. -1.
</event>
<event>
 7    1  0.2569312E-015  0.9000772E+02  0.7816164E-02  0.1186339E+00
        -11   -1    0    0    0    0  0.00000000000E+00  0.00000000000E+00  0.45593999997E+02  0.45594000000E+02  0.51100000000E-03 0.  1.
         11   -1    0    0    0    0 -0.00000000000E+00 -0.00000000000E+00 -0.45593999997E+02  0.45594000000E+02  0.51100000000E-03 0. -1.
    9900012    2    1    2    0    0  0.32021580119E-01 -0.11401042283E+01 -0.30364601450E+00  0.90007718705E+02  0.89999979792E+02 0.  0.
         12    1    1    2    0    0 -0.32021580119E-01  0.11401042283E+01  0.30364601450E+00  0.11802812949E+01  0.00000000000E+00 0. -1.
         11    1    3    3    0    0 -0.81324623111E+01 -0.42635128603E+02  0.78333324601E+01  0.44105013682E+02  0.51100000000E-03 0. -1.
        -11    1    3    3    0    0  0.68610095762E+01  0.50930776199E+01  0.15240504497E+00  0.85461172240E+01  0.51100000000E-03 0.  1.
        -12    1    3    3    0    0  0.13034743150E+01  0.36401946755E+02 -0.82893835196E+01  0.37356587799E+02  0.00000000000E+00 0.  1.
</event>
<event>
 7    1  0.2569312E-015  0.9000689E+02  0.7816164E-02  0.1186341E+00
        -11   -1    0    0    0    0  0.00000000000E+00  0.00000000000E+00  0.45593999997E+02  0.45594000000E+02  0.51100000000E-03 0.  1.
         11   -1    0    0    0    0 -0.00000000000E+00 -0.00000000000E+00 -0.45593999997E+02  0.45594000000E+02  0.51100000000E-03 0. -1.
    9900012    2    1    2    0    0 -0.24630637302E+00  0.88716032780E+00  0.73980406630E+00  0.90006885978E+02  0.89999136069E+02 0.  0.
         12    1    1    2    0    0  0.24630637302E+00 -0.88716032780E+00 -0.73980406630E+00  0.11811140221E+01  0.00000000000E+00 0. -1.
         11    1    3    3    0    0 -0.14908556492E+02 -0.30338507799E+02 -0.10490552458E+02  0.35394092774E+02  0.51100000000E-03 0. -1.
        -11    1    3    3    0    0 -0.17243170252E+01 -0.22834780452E+01 -0.10880653126E+02  0.11250606823E+02  0.51100000000E-03 0.  1.
        -12    1    3    3    0    0  0.16386567144E+02  0.33509146172E+02  0.22111009650E+02  0.43362186381E+02  0.00000000000E+00 0.  1.
</event>
<event>
 7    1  0.2569312E-015  0.9000777E+02  0.7816164E-02  0.1186339E+00
        -11   -1    0    0    0    0  0.00000000000E+00  0.00000000000E+00  0.45593999997E+02  0.45594000000E+02  0.51100000000E-03 0. -1.
         11   -1    0    0    0    0 -0.00000000000E+00 -0.00000000000E+00 -0.45593999997E+02  0.45594000000E+02  0.51100000000E-03 0.  1.
    9900012    2    1    2    0    0 -0.10954546567E+01 -0.35063845335E+00 -0.26452721833E+00  0.90007769989E+02  0.90000031753E+02 0.  0.
         12    1    1    2    0    0  0.10954546567E+01  0.35063845335E+00  0.26452721833E+00  0.11802300111E+01  0.00000000000E+00 0. -1.
         11    1    3    3    0    0  0.13326925101E+02  0.21477898338E+02 -0.19202865246E+02  0.31743614847E+02  0.51100000000E-03 0. -1.
        -11    1    3    3    0    0  0.16727541148E+01  0.10665515222E+02 -0.77076693746E+01  0.13264972248E+02  0.51100000000E-03 0.  1.
        -12    1    3    3    0    0 -0.16095133872E+02 -0.32494052013E+02  0.26646007403E+02  0.44999182894E+02  0.00000000000E+00 0.  1.
</event>
<event>
 7    1  0.2569312E-015  0.9000772E+02  0.7816164E-02  0.1186339E+00
        -11   -1    0    0    0    0  0.00000000000E+00  0.00000000000E+00  0.45593999997E+02  0.45594000000E+02  0.51100000000E-03 0.  1.
         11   -1    0    0    0    0 -0.00000000000E+00 -0.00000000000E+00 -0.45593999997E+02  0.45594000000E+02  0.51100000000E-03 0. -1.
    9900012    2    1    2    0    0  0.22732042621E+00  0.24633869834E+00  0.11316784853E+01  0.90007723115E+02  0.89999984260E+02 0.  0.
         12    1    1    2    0    0 -0.22732042621E+00 -0.24633869834E+00 -0.11316784853E+01  0.11802768847E+01  0.00000000000E+00 0. -1.
         11    1    3    3    0    0  0.14919836484E+02 -0.19703311554E+00 -0.11060467580E+01  0.14962074804E+02  0.51100000000E-03 0. -1.
        -11    1    3    3    0    0  0.30092514738E+01  0.11512525029E+02  0.34568857022E+02  0.36559536417E+02  0.51100000000E-03 0.  1.
         12    1    3    3    0    0 -0.17701767532E+02 -0.11069153216E+02 -0.32331131778E+02  0.38486111894E+02  0.00000000000E+00 0. -1.
</event>
<event>
 7    1  0.2569312E-015  0.9000776E+02  0.7816164E-02  0.1186339E+00
        -11   -1    0    0    0    0  0.00000000000E+00  0.00000000000E+00  0.45593999997E+02  0.45594000000E+02  0.51100000000E-03 0. -1.
         11   -1    0    0    0    0 -0.00000000000E+00 -0.00000000000E+00 -0.45593999997E+02  0.45594000000E+02  0.51100000000E-03 0.  1.
    9900012    2    1    2    0    0  0.35837314087E+00  0.94365315171E+00 -0.61160590432E+00  0.90007756652E+02  0.90000018240E+02 0.  0.
         12    1    1    2    0    0 -0.35837314087E+00 -0.94365315171E+00  0.61160590432E+00  0.11802433482E+01  0.00000000000E+00 0. -1.
         11    1    3    3    0    0  0.44349488820E+01 -0.76619616478E+01 -0.13137024685E+01  0.89498738715E+01  0.51100000000E-03 0. -1.
        -11    1    3    3    0    0 -0.10006781575E+02 -0.35040233942E+02  0.50820959190E+01  0.36793768105E+02  0.51100000000E-03 0.  1.
         12    1    3    3    0    0  0.59302058340E+01  0.43645848742E+02 -0.43799993548E+01  0.44264114675E+02  0.00000000000E+00 0. -1.
</event>
<event>
 7    1  0.2569312E-015  0.9000771E+02  0.7816164E-02  0.1186339E+00
        -11   -1    0    0    0    0  0.00000000000E+00  0.00000000000E+00  0.45593999997E+02  0.45594000000E+02  0.51100000000E-03 0. -1.
         11   -1    0    0    0    0 -0.00000000000E+00 -0.00000000000E+00 -0.45593999997E+02  0.45594000000E+02  0.51100000000E-03 0.  1.
    9900012    2    1    2    0    0  0.99809269427E+00 -0.50413196999E+00  0.37780657383E+00  0.90007713646E+02  0.89999974666E+02 0.  0.
         12    1    1    2    0    0 -0.99809269427E+00  0.50413196999E+00 -0.37780657383E+00  0.11802863537E+01  0.00000000000E+00 0. -1.
         11    1    3    3    0    0  0.29855780323E+02  0.30731563796E+02  0.44606359981E+01  0.43077765794E+02  0.51100000000E-03 0. -1.
        -11    1    3    3    0    0  0.11015163451E+01 -0.80706590777E+01 -0.39650809530E+01  0.90592904486E+01  0.51100000000E-03 0.  1.
        -12    1    3    3    0    0 -0.29959203974E+02 -0.23165036688E+02 -0.11774847130E+00  0.37870657404E+02  0.00000000000E+00 0.  1.
</event>
<event>
 7    1  0.2569312E-015  0.9000777E+02  0.7816164E-02  0.1186339E+00
        -11   -1    0    0    0    0  0.00000000000E+00  0.00000000000E+00  0.45593999997E+02  0.45594000000E+02  0.51100000000E-03 0.  1.
         11   -1    0    0    0    0 -0.00000000000E+00 -0.00000000000E+00 -0.45593999997E+02  0.45594000000E+02  0.51100000000E-03 0. -1.
    9900012    2    1    2    0    0 -0.18649535026E+00  0.85732447703E+00  0.78940219650E+00  0.90007770530E+02  0.90000032301E+02 0.  0.
         12    1    1    2    0    0  0.18649535026E+00 -0.85732447703E+00 -0.78940219650E+00  0.11802294702E+01  0.00000000000E+00 0. -1.
         11    1    3    3    0    0 -0.20435370190E+02 -0.12683447138E+02 -0.96273173032E+01  0.25906744774E+02  0.51100000000E-03 0. -1.
        -11    1    3    3    0    0 -0.15692254626E+02  0.17541931500E+02 -0.61456061199E+01  0.24325597441E+02  0.51100000000E-03 0.  1.
        -12    1    3    3    0    0  0.35941129465E+02 -0.40011598853E+01  0.16562325620E+02  0.39775428315E+02  0.00000000000E+00 0.  1.
</event>
<event>
 7    1  0.2569312E-015  0.9000776E+02  0.7816164E-02  0.1186339E+00
        -11   -1    0    0    0    0  0.00000000000E+00  0.00000000000E+00  0.45593999997E+02  0.45594000000E+02  0.51100000000E-03 0.  1.
         11   -1    0    0    0    0 -0.00000000000E+00 -0.00000000000E+00 -0.45593999997E+02  0.45594000000E+02  0.51100000000E-03 0. -1.
    9900012    2    1    2    0    0 -0.45515461951E+00 -0.11784082369E+00  0.10825491162E+01  0.90007760712E+02  0.90000022354E+02 0.  0.
         12    1    1    2    0    0  0.45515461951E+00  0.11784082369E+00 -0.10825491162E+01  0.11802392877E+01  0.00000000000E+00 0. -1.
         11    1    3    3    0    0 -0.29067814587E+01  0.30384999169E+02 -0.16648712444E+02  0.34768911102E+02  0.51100000000E-03 0. -1.
        -11    1    3    3    0    0  0.18173642258E+01 -0.10799562582E+01 -0.12717634021E+02  0.12892142320E+02  0.51100000000E-03 0.  1.
        -12    1    3    3    0    0  0.63426261345E+00 -0.29422883734E+02  0.30448895580E+02  0.42346707291E+02  0.00000000000E+00 0.  1.
</event>
<event>
 7    1  0.2569312E-015  0.9000780E+02  0.7816164E-02  0.1186339E+00
        -11   -1    0    0    0    0  0.00000000000E+00  0.00000000000E+00  0.45593999997E+02  0.45594000000E+02  0.51100000000E-03 0.  1.
         11   -1    0    0    0    0 -0.00000000000E+00 -0.00000000000E+00 -0.45593999997E+02  0.45594000000E+02  0.51100000000E-03 0. -1.
    9900012    2    1    2    0    0 -0.74349435581E-01 -0.44544560470E+00 -0.10903751715E+01  0.90007801864E+02  0.90000064049E+02 0.  0.
         12    1    1    2    0    0  0.74349435581E-01  0.44544560470E+00  0.10903751715E+01  0.11801981359E+01  0.00000000000E+00 0. -1.
         11    1    3    3    0    0 -0.61747124743E+01  0.69533426290E+01  0.37433653542E+01  0.10024411818E+02  0.51100000000E-03 0. -1.
        -11    1    3    3    0    0 -0.22332991677E+02  0.33728144348E+01  0.27508576581E+02  0.35592979367E+02  0.51100000000E-03 0.  1.
         12    1    3    3    0    0  0.28433354716E+02 -0.10771602668E+02 -0.32342317106E+02  0.44390410679E+02  0.00000000000E+00 0. -1.
</event>
<event>
 7    1  0.2569312E-015  0.9000736E+02  0.7816164E-02  0.1186340E+00
        -11   -1    0    0    0    0  0.00000000000E+00  0.00000000000E+00  0.45593999997E+02  0.45594000000E+02  0.51100000000E-03 0.  1.
         11   -1    0    0    0    0 -0.00000000000E+00 -0.00000000000E+00 -0.45593999997E+02  0.45594000000E+02  0.51100000000E-03 0. -1.
    9900012    2    1    2    0    0 -0.95643094523E+00  0.17828659429E+00 -0.66885410575E+00  0.90007359463E+02  0.89999615807E+02 0.  0.
         12    1    1    2    0    0  0.95643094523E+00 -0.17828659429E+00  0.66885410575E+00  0.11806405369E+01  0.00000000000E+00 0. -1.
         11    1    3    3    0    0  0.10698500916E+02  0.12021908125E+01  0.11598986632E+01  0.10828136948E+02  0.51100000000E-03 0. -1.
        -11    1    3    3    0    0  0.26151836819E+02  0.17622375489E+02  0.13527892901E+02  0.34314291097E+02  0.51100000000E-03 0.  1.
         12    1    3    3    0    0 -0.37806768680E+02 -0.18646279707E+02 -0.15356645670E+02  0.44864931418E+02  0.00000000000E+00 0. -1.
</event>
<event>
 7    1  0.2569312E-015  0.9000778E+02  0.7816164E-02  0.1186339E+00
        -11   -1    0    0    0    0  0.00000000000E+00  0.00000000000E+00  0.45593999997E+02  0.45594000000E+02  0.51100000000E-03 0.  1.
         11   -1    0    0    0    0 -0.00000000000E+00 -0.00000000000E+00 -0.45593999997E+02  0.45594000000E+02  0.51100000000E-03 0. -1.
    9900012    2    1    2    0    0 -0.51899616612E+00  0.10266292303E+01  0.26379126341E+00  0.90007783737E+02  0.90000045682E+02 0.  0.
         12    1    1    2    0    0  0.51899616612E+00 -0.10266292303E+01 -0.26379126341E+00  0.11802162631E+01  0.00000000000E+00 0. -1.
         11    1    3    3    0    0 -0.72587769402E+01 -0.55343807031E+01 -0.22173577033E+01  0.93933959716E+01  0.51100000000E-03 0. -1.
        -11    1    3    3    0    0  0.36911949807E+02 -0.14183698066E+02 -0.11870643406E+02  0.41286577777E+02  0.51100000000E-03 0.  1.
         12    1    3    3    0    0 -0.30172169033E+02  0.20744708000E+02  0.14351792372E+02  0.39327809988E+02  0.00000000000E+00 0. -1.
</event>
<event>
 7    1  0.2569312E-015  0.9000762E+02  0.7816164E-02  0.1186339E+00
        -11   -1    0    0    0    0  0.00000000000E+00  0.00000000000E+00  0.45593999997E+02  0.45594000000E+02  0.51100000000E-03 0. -1.
         11   -1    0    0    0    0 -0.00000000000E+00 -0.00000000000E+00 -0.45593999997E+02  0.45594000000E+02  0.51100000000E-03 0.  1.
    9900012    2    1    2    0    0  0.32533326702E+00  0.70853026799E+00 -0.88625272481E+00  0.90007618381E+02  0.89999878143E+02 0.  0.
         12    1    1    2    0    0 -0.32533326702E+00 -0.70853026799E+00  0.88625272481E+00  0.11803816194E+01  0.00000000000E+00 0. -1.
         11    1    3    3    0    0  0.44362104750E+01  0.99694653195E+01 -0.21483263005E-01  0.10911950510E+02  0.51100000000E-03 0. -1.
        -11    1    3    3    0    0 -0.23024743717E+02  0.20768029598E+02 -0.21789039641E+02  0.37897389426E+02  0.51100000000E-03 0.  1.
         12    1    3    3    0    0  0.18913866509E+02 -0.30028964650E+02  0.20924270179E+02  0.41198278444E+02  0.00000000000E+00 0. -1.
</event>
<event>
 7    1  0.2569312E-015  0.9000774E+02  0.7816164E-02  0.1186339E+00
        -11   -1    0    0    0    0  0.00000000000E+00  0.00000000000E+00  0.45593999997E+02  0.45594000000E+02  0.51100000000E-03 0.  1.
         11   -1    0    0    0    0 -0.00000000000E+00 -0.00000000000E+00 -0.45593999997E+02  0.45594000000E+02  0.51100000000E-03 0. -1.
    9900012    2    1    2    0    0 -0.10933906539E+01 -0.15932539822E+00  0.41488974713E+00  0.90007736806E+02  0.89999998132E+02 0.  0.
         12    1    1    2    0    0  0.10933906539E+01  0.15932539822E+00 -0.41488974713E+00  0.11802631939E+01  0.00000000000E+00 0. -1.
         11    1    3    3    0    0  0.25424169581E+02  0.20428075409E+02  0.40132583552E+01  0.32860324203E+02  0.51100000000E-03 0. -1.
        -11    1    3    3    0    0  0.10304412952E+02 -0.53362512311E+01  0.97078791607E+01  0.15129422380E+02  0.51100000000E-03 0.  1.
        -12    1    3    3    0    0 -0.36821973187E+02 -0.15251149576E+02 -0.13306247769E+02  0.42017990224E+02  0.00000000000E+00 0.  1.
</event>
<event>
 7    1  0.2569312E-015  0.9000773E+02  0.7816164E-02  0.1186339E+00
        -11   -1    0    0    0    0  0.00000000000E+00  0.00000000000E+00  0.45593999997E+02  0.45594000000E+02  0.51100000000E-03 0.  1.
         11   -1    0    0    0    0 -0.00000000000E+00 -0.00000000000E+00 -0.45593999997E+02  0.45594000000E+02  0.51100000000E-03 0. -1.
    9900012    2    1    2    0    0  0.10647266722E+01 -0.50832375394E+00  0.31694941922E-01  0.90007728635E+02  0.89999989853E+02 0.  0.
         12    1    1    2    0    0 -0.10647266722E+01  0.50832375394E+00 -0.31694941922E-01  0.11802713648E+01  0.00000000000E+00 0. -1.
         11    1    3    3    0    0  0.43223221658E+01 -0.35443073395E+02  0.40510343383E+01  0.35934729720E+02  0.51100000000E-03 0. -1.
        -11    1    3    3    0    0 -0.45031982899E+00 -0.93861512318E+01 -0.20599091409E+01  0.96200753025E+01  0.51100000000E-03 0.  1.
        -12    1    3    3    0    0 -0.28072756647E+01  0.44320900873E+02 -0.19594302555E+01  0.44452923613E+02  0.00000000000E+00 0.  1.
</event>
<event>
 7    1  0.2569312E-015  0.9000774E+02  0.7816164E-02  0.1186339E+00
        -11   -1    0    0    0    0  0.00000000000E+00  0.00000000000E+00  0.45593999997E+02  0.45594000000E+02  0.51100000000E-03 0.  1.
         11   -1    0    0    0    0 -0.00000000000E+00 -0.00000000000E+00 -0.45593999997E+02  0.45594000000E+02  0.51100000000E-03 0. -1.
    9900012    2    1    2    0    0 -0.52886101387E+00  0.55651479049E+00  0.89643701001E+00  0.90007744944E+02  0.90000006377E+02 0.  0.
         12    1    1    2    0    0  0.52886101387E+00 -0.55651479049E+00 -0.89643701001E+00  0.11802550559E+01  0.00000000000E+00 0. -1.
         11    1    3    3    0    0 -0.49306129297E+01 -0.75922024943E+01 -0.25459046167E+01  0.94039413628E+01  0.51100000000E-03 0. -1.
        -11    1    3    3    0    0 -0.28486429762E+02 -0.14851193798E+02  0.19271460903E+02  0.37462298961E+02  0.51100000000E-03 0.  1.
         12    1    3    3    0    0  0.32888181678E+02  0.22999911083E+02 -0.15829119276E+02  0.43141504621E+02  0.00000000000E+00 0. -1.
</event>
<event>
 7    1  0.2569312E-015  0.9000756E+02  0.7816164E-02  0.1186339E+00
        -11   -1    0    0    0    0  0.00000000000E+00  0.00000000000E+00  0.45593999997E+02  0.45594000000E+02  0.51100000000E-03 0. -1.
         11   -1    0    0    0    0 -0.00000000000E+00 -0.00000000000E+00 -0.45593999997E+02  0.45594000000E+02  0.51100000000E-03 0.  1.
    9900012    2    1    2    0    0 -0.45178639897E+00  0.10884133531E+01  0.68386446064E-01  0.90007563096E+02  0.89999822129E+02 0.  0.
         12    1    1    2    0    0  0.45178639897E+00 -0.10884133531E+01 -0.68386446064E-01  0.11804369036E+01  0.00000000000E+00 0. -1.
         11    1    3    3    0    0  0.33129548106E+01  0.22163631248E+01  0.85284520278E+01  0.94139486577E+01  0.51100000000E-03 0. -1.
        -11    1    3    3    0    0  0.37560875064E+02 -0.75629401407E+01 -0.34086497767E+01  0.38466040772E+02  0.51100000000E-03 0.  1.
         12    1    3    3    0    0 -0.41325616273E+02  0.64349903689E+01 -0.50514158050E+01  0.42127573667E+02  0.00000000000E+00 0. -1.
</event>
<event>
 7    1  0.2569312E-015  0.9000776E+02  0.7816164E-02  0.1186339E+00
        -11   -1    0    0    0    0  0.00000000000E+00  0.00000000000E+00  0.45593999997E+02  0.45594000000E+02  0.51100000000E-03 0. -1.
         11   -1    0    0    0    0 -0.00000000000E+00 -0.00000000000E+00 -0.45593999997E+02  0.45594000000E+02  0.51100000000E-03 0.  1.
    9900012    2    1    2    0    0  0.10333043621E+01 -0.24155262912E+00 -0.51662612786E+00  0.90007759290E+02  0.90000020913E+02 0.  0.
         12    1    1    2    0    0 -0.10333043621E+01  0.24155262912E+00  0.51662612786E+00  0.11802407100E+01  0.00000000000E+00 0. -1.
         11    1    3    3    0    0  0.31047270061E+02  0.31230447958E+01  0.99723949371E+01  0.32758740026E+02  0.51100000000E-03 0. -1.
        -11    1    3    3    0    0 -0.17673228878E+02 -0.67803322522E+01  0.17933439532E+02  0.26075355763E+02  0.51100000000E-03 0.  1.
        -12    1    3    3    0    0 -0.12340736820E+02  0.34157348273E+01 -0.28422460597E+02  0.31173663501E+02  0.00000000000E+00 0.  1.
</event>
<event>
 7    1  0.2569312E-015  0.9000767E+02  0.7816164E-02  0.1186339E+00
        -11   -1    0    0    0    0  0.00000000000E+00  0.00000000000E+00  0.45593999997E+02  0.45594000000E+02  0.51100000000E-03 0.  1.
         11   -1    0    0    0    0 -0.00000000000E+00 -0.00000000000E+00 -0.45593999997E+02  0.45594000000E+02  0.51100000000E-03 0. -1.
    9900012    2    1    2    0    0  0.60922218407E+00 -0.44507526931E+00  0.90770881624E+00  0.90007669978E+02  0.89999930422E+02 0.  0.
         12    1    1    2    0    0 -0.60922218407E+00  0.44507526931E+00 -0.90770881624E+00  0.11803300216E+01  0.00000000000E+00 0. -1.
         11    1    3    3    0    0 -0.55260512965E+01  0.78912993844E+01 -0.29149625920E+01  0.10065130704E+02  0.51100000000E-03 0. -1.
        -11    1    3    3    0    0  0.11415191491E+02  0.20599653179E+02  0.31650332122E+02  0.39451182892E+02  0.51100000000E-03 0.  1.
         12    1    3    3    0    0 -0.52799180100E+01 -0.28936027833E+02 -0.27827660714E+02  0.40491356383E+02  0.00000000000E+00 0. -1.
</event>
<event>
 7    1  0.2569312E-015  0.9000782E+02  0.7816164E-02  0.1186339E+00
        -11   -1    0    0    0    0  0.00000000000E+00  0.00000000000E+00  0.45593999997E+02  0.45594000000E+02  0.51100000000E-03 0. -1.
         11   -1    0    0    0    0 -0.00000000000E+00 -0.00000000000E+00 -0.45593999997E+02  0.45594000000E+02  0.51100000000E-03 0.  1.
    9900012    2    1    2    0    0 -0.10436867920E+01  0.48830788288E+00 -0.25513047802E+00  0.90007822781E+02  0.90000085241E+02 0.  0.
         12    1    1    2    0    0  0.10436867920E+01 -0.48830788288E+00  0.25513047802E+00  0.11801772193E+01  0.00000000000E+00 0. -1.
         11    1    3    3    0    0 -0.16610077338E+02  0.40862102317E+01  0.38567213351E+02  0.42190303734E+02  0.51100000000E-03 0. -1.
        -11    1    3    3    0    0  0.52984981958E+01  0.63941653627E+01 -0.23473672343E+01  0.86295751350E+01  0.51100000000E-03 0.  1.
        -12    1    3    3    0    0  0.10267892350E+02 -0.99920677115E+01 -0.36474976595E+02  0.39187943912E+02  0.00000000000E+00 0.  1.
</event>
<event>
 7    1  0.2569312E-015  0.9000836E+02  0.7816164E-02  0.1186338E+00
        -11   -1    0    0    0    0  0.00000000000E+00  0.00000000000E+00  0.45593999997E+02  0.45594000000E+02  0.51100000000E-03 0. -1.
         11   -1    0    0    0    0 -0.00000000000E+00 -0.00000000000E+00 -0.45593999997E+02  0.45594000000E+02  0.51100000000E-03 0.  1.
    9900012    2    1    2    0    0  0.42846608292E+00  0.92140085600E+00 -0.59915401876E+00  0.90008360962E+02  0.90000630525E+02 0.  0.
         12    1    1    2    0    0 -0.42846608292E+00 -0.92140085600E+00  0.59915401876E+00  0.11796390379E+01  0.00000000000E+00 0. -1.
         11    1    3    3    0    0  0.18894132365E+02 -0.24702768030E+02  0.21487865434E+02  0.37801367004E+02  0.51100000000E-03 0. -1.
        -11    1    3    3    0    0  0.55421339905E+01  0.11626700937E+01 -0.16545126688E+02  0.17487374540E+02  0.51100000000E-03 0.  1.
        -12    1    3    3    0    0 -0.24007800273E+02  0.24461498792E+02 -0.55418927650E+01  0.34719619418E+02  0.00000000000E+00 0.  1.
</event>
<event>
 7    1  0.2569312E-015  0.9000777E+02  0.7816164E-02  0.1186339E+00
        -11   -1    0    0    0    0  0.00000000000E+00  0.00000000000E+00  0.45593999997E+02  0.45594000000E+02  0.51100000000E-03 0.  1.
         11   -1    0    0    0    0 -0.00000000000E+00 -0.00000000000E+00 -0.45593999997E+02  0.45594000000E+02  0.51100000000E-03 0. -1.
    9900012    2    1    2    0    0  0.10757829110E+01  0.34375899777E+00 -0.34273057066E+00  0.90007769783E+02  0.90000031545E+02 0.  0.
         12    1    1    2    0    0 -0.10757829110E+01 -0.34375899777E+00  0.34273057066E+00  0.11802302166E+01  0.00000000000E+00 0. -1.
         11    1    3    3    0    0  0.84439006524E+01 -0.78680982362E+00 -0.39623967227E+01  0.93605083182E+01  0.51100000000E-03 0. -1.
        -11    1    3    3    0    0  0.22584807682E+02  0.22146066889E+02  0.23125218798E+02  0.39182873317E+02  0.51100000000E-03 0.  1.
         12    1    3    3    0    0 -0.29952925424E+02 -0.21015498067E+02 -0.19505552646E+02  0.41464388148E+02  0.00000000000E+00 0. -1.
</event>
<event>
 7    1  0.2569312E-015  0.9000751E+02  0.7816164E-02  0.1186339E+00
        -11   -1    0    0    0    0  0.00000000000E+00  0.00000000000E+00  0.45593999997E+02  0.45594000000E+02  0.51100000000E-03 0.  1.
         11   -1    0    0    0    0 -0.00000000000E+00 -0.00000000000E+00 -0.45593999997E+02  0.45594000000E+02  0.51100000000E-03 0. -1.
    9900012    2    1    2    0    0 -0.70093301865E+00 -0.59099124364E+00 -0.74362096452E+00  0.90007512861E+02  0.89999771230E+02 0.  0.
         12    1    1    2    0    0  0.70093301865E+00  0.59099124364E+00  0.74362096452E+00  0.11804871391E+01  0.00000000000E+00 0. -1.
         11    1    3    3    0    0 -0.19632115740E+02  0.25283641136E+02 -0.25352270764E+02  0.40834055771E+02  0.51100000000E-03 0. -1.
        -11    1    3    3    0    0  0.59615780246E+01 -0.17300013628E+02 -0.19464166448E+01  0.18401614660E+02  0.51100000000E-03 0.  1.
        -12    1    3    3    0    0  0.12969604697E+02 -0.85746187520E+01  0.26555066444E+02  0.30771842431E+02  0.00000000000E+00 0.  1.
</event>
<event>
 7    1  0.2569312E-015  0.9000780E+02  0.7816164E-02  0.1186339E+00
        -11   -1    0    0    0    0  0.00000000000E+00  0.00000000000E+00  0.45593999997E+02  0.45594000000E+02  0.51100000000E-03 0.  1.
         11   -1    0    0    0    0 -0.00000000000E+00 -0.00000000000E+00 -0.45593999997E+02  0.45594000000E+02  0.51100000000E-03 0. -1.
    9900012    2    1    2    0    0  0.46316041831E+00 -0.27169314148E+00  0.10509658217E+01  0.90007803451E+02  0.90000065656E+02 0.  0.
         12    1    1    2    0    0 -0.46316041831E+00  0.27169314148E+00 -0.10509658217E+01  0.11801965492E+01  0.00000000000E+00 0. -1.
         11    1    3    3    0    0 -0.36913335562E+01 -0.45608581972E+01  0.42929511529E+01  0.72702682743E+01  0.51100000000E-03 0. -1.
        -11    1    3    3    0    0 -0.28498255828E+01 -0.36731018067E+02  0.11492132730E+02  0.38592205289E+02  0.51100000000E-03 0.  1.
         12    1    3    3    0    0  0.70043195573E+01  0.41020183123E+02 -0.14734118061E+02  0.44145329888E+02  0.00000000000E+00 0. -1.
</event>
<event>
 7    1  0.2569312E-015  0.9000771E+02  0.7816164E-02  0.1186339E+00
        -11   -1    0    0    0    0  0.00000000000E+00  0.00000000000E+00  0.45593999997E+02  0.45594000000E+02  0.51100000000E-03 0. -1.
         11   -1    0    0    0    0 -0.00000000000E+00 -0.00000000000E+00 -0.45593999997E+02  0.45594000000E+02  0.51100000000E-03 0.  1.
    9900012    2    1    2    0    0 -0.97056389176E+00 -0.38624880931E+00 -0.54946158618E+00  0.90007707475E+02  0.89999968413E+02 0.  0.
         12    1    1    2    0    0  0.97056389176E+00  0.38624880931E+00  0.54946158618E+00  0.11802925253E+01  0.00000000000E+00 0. -1.
         11    1    3    3    0    0 -0.37737175396E+01  0.34958595002E+02  0.82761103289E+01  0.36122545744E+02  0.51100000000E-03 0. -1.
        -11    1    3    3    0    0  0.31728909106E+01  0.42119179275E+01  0.90508735695E+01  0.10475008448E+02  0.51100000000E-03 0.  1.
        -12    1    3    3    0    0 -0.36973726273E+00 -0.39556761739E+02 -0.17876445485E+02  0.43410153283E+02  0.00000000000E+00 0.  1.
</event>
<event>
 7    1  0.2569312E-015  0.9000778E+02  0.7816164E-02  0.1186339E+00
        -11   -1    0    0    0    0  0.00000000000E+00  0.00000000000E+00  0.45593999997E+02  0.45594000000E+02  0.51100000000E-03 0.  1.
         11   -1    0    0    0    0 -0.00000000000E+00 -0.00000000000E+00 -0.45593999997E+02  0.45594000000E+02  0.51100000000E-03 0. -1.
    9900012    2    1    2    0    0  0.81644941848E+00 -0.23413908859E-01  0.85193291727E+00  0.90007776479E+02  0.90000038328E+02 0.  0.
         12    1    1    2    0    0 -0.81644941848E+00  0.23413908859E-01 -0.85193291727E+00  0.11802235210E+01  0.00000000000E+00 0. -1.
         11    1    3    3    0    0  0.53536444330E+00  0.10697500721E+02  0.37306309217E+00  0.10717383687E+02  0.51100000000E-03 0. -1.
        -11    1    3    3    0    0  0.24960137952E+02  0.24676365739E+02  0.65791037745E+01  0.35710168291E+02  0.51100000000E-03 0.  1.
         12    1    3    3    0    0 -0.24679052977E+02 -0.35397280368E+02 -0.61002339494E+01  0.43580224501E+02  0.00000000000E+00 0. -1.
</event>
<event>
 7    1  0.2569312E-015  0.9000689E+02  0.7816164E-02  0.1186341E+00
        -11   -1    0    0    0    0  0.00000000000E+00  0.00000000000E+00  0.45593999997E+02  0.45594000000E+02  0.51100000000E-03 0.  1.
         11   -1    0    0    0    0 -0.00000000000E+00 -0.00000000000E+00 -0.45593999997E+02  0.45594000000E+02  0.51100000000E-03 0. -1.
    9900012    2    1    2    0    0  0.11110187149E+01  0.30867761942E+00 -0.25566567028E+00  0.90006894843E+02  0.89999145051E+02 0.  0.
         12    1    1    2    0    0 -0.11110187149E+01 -0.30867761942E+00  0.25566567028E+00  0.11811051573E+01  0.00000000000E+00 0. -1.
         11    1    3    3    0    0  0.64390167023E+01 -0.22114737235E+02 -0.26309649262E+02  0.34967416027E+02  0.51100000000E-03 0. -1.
        -11    1    3    3    0    0 -0.30566940587E+01 -0.74655324641E+01 -0.68110328624E+01  0.10557827544E+02  0.51100000000E-03 0.  1.
        -12    1    3    3    0    0 -0.22713039287E+01  0.29888947318E+02  0.32865016454E+02  0.44481651272E+02  0.00000000000E+00 0.  1.
</event>
<event>
 7    1  0.2727405E-015  0.9000803E+02  0.7816164E-02  0.1186338E+00
        -11   -1    0    0    0    0  0.00000000000E+00  0.00000000000E+00  0.45593999997E+02  0.45594000000E+02  0.51100000000E-03 0. -1.
         11   -1    0    0    0    0 -0.00000000000E+00 -0.00000000000E+00 -0.45593999997E+02  0.45594000000E+02  0.51100000000E-03 0.  1.
    9900012    2    1    2    0    0  0.11202799749E+00 -0.11604578529E+01 -0.18200766773E+00  0.90008025639E+02  0.90000290777E+02 0.  0.
         12    1    1    2    0    0 -0.11202799749E+00  0.11604578529E+01  0.18200766773E+00  0.11799743606E+01  0.00000000000E+00 0. -1.
         11    1    3    3    0    0 -0.31181999311E+02 -0.17157356575E+01  0.19859299779E+02  0.37008818110E+02  0.51100000000E-03 0. -1.
        -11    1    3    3    0    0 -0.87536596986E+01  0.20406254704E+01 -0.36038301806E+01  0.96839197984E+01  0.51100000000E-03 0.  1.
        -12    1    3    3    0    0  0.40047687007E+02 -0.14853476659E+01 -0.16437477267E+02  0.43315287731E+02  0.00000000000E+00 0.  1.
</event>
<event>
 7    1  0.2569312E-015  0.9000799E+02  0.7816164E-02  0.1186339E+00
        -11   -1    0    0    0    0  0.00000000000E+00  0.00000000000E+00  0.45593999997E+02  0.45594000000E+02  0.51100000000E-03 0.  1.
         11   -1    0    0    0    0 -0.00000000000E+00 -0.00000000000E+00 -0.45593999997E+02  0.45594000000E+02  0.51100000000E-03 0. -1.
    9900012    2    1    2    0    0  0.60426914500E+00 -0.10111999581E+01 -0.68897747835E-01  0.90007994299E+02  0.90000259023E+02 0.  0.
         12    1    1    2    0    0 -0.60426914500E+00  0.10111999581E+01  0.68897747835E-01  0.11800057011E+01  0.00000000000E+00 0. -1.
         11    1    3    3    0    0 -0.47621646751E+01 -0.12565527772E+02  0.67021765496E+01  0.15016320166E+02  0.51100000000E-03 0. -1.
        -11    1    3    3    0    0  0.15296454802E+02 -0.12829390773E+02  0.26110496944E+02  0.32868417182E+02  0.51100000000E-03 0.  1.
         12    1    3    3    0    0 -0.99300209820E+01  0.24383718587E+02 -0.32881571241E+02  0.42123256951E+02  0.00000000000E+00 0. -1.
</event>
<event>
 7    1  0.2569312E-015  0.9000777E+02  0.7816164E-02  0.1186339E+00
        -11   -1    0    0    0    0  0.00000000000E+00  0.00000000000E+00  0.45593999997E+02  0.45594000000E+02  0.51100000000E-03 0.  1.
         11   -1    0    0    0    0 -0.00000000000E+00 -0.00000000000E+00 -0.45593999997E+02  0.45594000000E+02  0.51100000000E-03 0. -1.
    9900012    2    1    2    0    0  0.40602944980E+00 -0.23139561656E+00  0.10837562582E+01  0.90007774821E+02  0.90000036649E+02 0.  0.
         12    1    1    2    0    0 -0.40602944980E+00  0.23139561656E+00 -0.10837562582E+01  0.11802251788E+01  0.00000000000E+00 0. -1.
         11    1    3    3    0    0  0.63893486241E+01  0.24122216480E+02 -0.30138092599E+02  0.39128119422E+02  0.51100000000E-03 0. -1.
        -11    1    3    3    0    0  0.81316571641E+01 -0.87450960057E+00 -0.13818068968E+01  0.82944563316E+01  0.51100000000E-03 0.  1.
        -12    1    3    3    0    0 -0.14114976338E+02 -0.23479102496E+02  0.32603655754E+02  0.42585199067E+02  0.00000000000E+00 0.  1.
</event>
<event>
 7    1  0.2569312E-015  0.9000772E+02  0.7816164E-02  0.1186339E+00
        -11   -1    0    0    0    0  0.00000000000E+00  0.00000000000E+00  0.45593999997E+02  0.45594000000E+02  0.51100000000E-03 0.  1.
         11   -1    0    0    0    0 -0.00000000000E+00 -0.00000000000E+00 -0.45593999997E+02  0.45594000000E+02  0.51100000000E-03 0. -1.
    9900012    2    1    2    0    0 -0.79023793614E+00  0.58221716873E+00  0.65545015761E+00  0.90007717095E+02  0.89999978160E+02 0.  0.
         12    1    1    2    0    0  0.79023793614E+00 -0.58221716873E+00 -0.65545015761E+00  0.11802829052E+01  0.00000000000E+00 0. -1.
         11    1    3    3    0    0 -0.57180657578E+01  0.38898175209E+01  0.87701280061E+01  0.11168800377E+02  0.51100000000E-03 0. -1.
        -11    1    3    3    0    0 -0.23132002569E+01 -0.32603710354E+02  0.19392752382E+02  0.38005679438E+02  0.51100000000E-03 0.  1.
         12    1    3    3    0    0  0.72410280785E+01  0.29296110002E+02 -0.27507430231E+02  0.40833237280E+02  0.00000000000E+00 0. -1.
</event>
<event>
 7    1  0.2569312E-015  0.9000753E+02  0.7816164E-02  0.1186339E+00
        -11   -1    0    0    0    0  0.00000000000E+00  0.00000000000E+00  0.45593999997E+02  0.45594000000E+02  0.51100000000E-03 0.  1.
         11   -1    0    0    0    0 -0.00000000000E+00 -0.00000000000E+00 -0.45593999997E+02  0.45594000000E+02  0.51100000000E-03 0. -1.
    9900012    2    1    2    0    0 -0.10523616521E+01  0.64614268431E-01  0.53092071944E+00  0.90007526849E+02  0.89999785403E+02 0.  0.
         12    1    1    2    0    0  0.10523616521E+01 -0.64614268431E-01 -0.53092071944E+00  0.11804731513E+01  0.00000000000E+00 0. -1.
         11    1    3    3    0    0 -0.38653976977E+02 -0.53387720858E+01  0.17675145180E+02  0.42837403994E+02  0.51100000000E-03 0. -1.
        -11    1    3    3    0    0  0.27664036578E+01  0.85122820968E+01 -0.40721305539E+01  0.98333200498E+01  0.51100000000E-03 0.  1.
        -12    1    3    3    0    0  0.34835211667E+02 -0.31088957426E+01 -0.13072093907E+02  0.37336802805E+02  0.00000000000E+00 0.  1.
</event>
<event>
 7    1  0.2569312E-015  0.9000775E+02  0.7816164E-02  0.1186339E+00
        -11   -1    0    0    0    0  0.00000000000E+00  0.00000000000E+00  0.45593999997E+02  0.45594000000E+02  0.51100000000E-03 0.  1.
         11   -1    0    0    0    0 -0.00000000000E+00 -0.00000000000E+00 -0.45593999997E+02  0.45594000000E+02  0.51100000000E-03 0. -1.
    9900012    2    1    2    0    0 -0.93999376297E+00  0.66832889245E+00  0.25049853258E+00  0.90007745240E+02  0.90000006677E+02 0.  0.
         12    1    1    2    0    0  0.93999376297E+00 -0.66832889245E+00 -0.25049853258E+00  0.11802547597E+01  0.00000000000E+00 0. -1.
         11    1    3    3    0    0 -0.22407850508E+02 -0.48906089048E+01 -0.38495223621E+02  0.44809731775E+02  0.51100000000E-03 0. -1.
        -11    1    3    3    0    0  0.74871795933E+01  0.89985492103E+00  0.74214065811E+01  0.10580400420E+02  0.51100000000E-03 0.  1.
        -12    1    3    3    0    0  0.13980677152E+02  0.46590828762E+01  0.31324315573E+02  0.34617613045E+02  0.00000000000E+00 0.  1.
</event>
<event>
 7    1  0.2569312E-015  0.9000775E+02  0.7816164E-02  0.1186339E+00
        -11   -1    0    0    0    0  0.00000000000E+00  0.00000000000E+00  0.45593999997E+02  0.45594000000E+02  0.51100000000E-03 0.  1.
         11   -1    0    0    0    0 -0.00000000000E+00 -0.00000000000E+00 -0.45593999997E+02  0.45594000000E+02  0.51100000000E-03 0. -1.
    9900012    2    1    2    0    0  0.39098207804E+00  0.31141147591E+00  0.10691839194E+01  0.90007746491E+02  0.90000007944E+02 0.  0.
         12    1    1    2    0    0 -0.39098207804E+00 -0.31141147591E+00 -0.10691839194E+01  0.11802535093E+01  0.00000000000E+00 0. -1.
         11    1    3    3    0    0 -0.77902052485E+01  0.31592259341E+01  0.37068614772E+01  0.91874277460E+01  0.51100000000E-03 0. -1.
        -11    1    3    3    0    0 -0.21205193067E+02 -0.25020330226E+02  0.19213321270E+02  0.38010904384E+02  0.51100000000E-03 0.  1.
         12    1    3    3    0    0  0.29386380393E+02  0.22172515768E+02 -0.21850998828E+02  0.42809414360E+02  0.00000000000E+00 0. -1.
</event>
<event>
 7    1  0.2569312E-015  0.9000764E+02  0.7816164E-02  0.1186339E+00
        -11   -1    0    0    0    0  0.00000000000E+00  0.00000000000E+00  0.45593999997E+02  0.45594000000E+02  0.51100000000E-03 0.  1.
         11   -1    0    0    0    0 -0.00000000000E+00 -0.00000000000E+00 -0.45593999997E+02  0.45594000000E+02  0.51100000000E-03 0. -1.
    9900012    2    1    2    0    0  0.11773620340E-01  0.19125719714E+00  0.11647061909E+01  0.90007636308E+02  0.89999896308E+02 0.  0.
         12    1    1    2    0    0 -0.11773620340E-01 -0.19125719714E+00 -0.11647061909E+01  0.11803636917E+01  0.00000000000E+00 0. -1.
         11    1    3    3    0    0 -0.19894039614E+01  0.26142499901E+01 -0.10942993480E+02  0.11425460065E+02  0.51100000000E-03 0. -1.
        -11    1    3    3    0    0 -0.25807426012E+01 -0.30926328777E+02  0.31171945836E+02  0.43986227975E+02  0.51100000000E-03 0.  1.
         12    1    3    3    0    0  0.45819201829E+01  0.28503335984E+02 -0.19064246166E+02  0.34595948269E+02  0.00000000000E+00 0. -1.
</event>
<event>
 7    1  0.2569312E-015  0.9000775E+02  0.7816164E-02  0.1186339E+00
        -11   -1    0    0    0    0  0.00000000000E+00  0.00000000000E+00  0.45593999997E+02  0.45594000000E+02  0.51100000000E-03 0. -1.
         11   -1    0    0    0    0 -0.00000000000E+00 -0.00000000000E+00 -0.45593999997E+02  0.45594000000E+02  0.51100000000E-03 0.  1.
    9900012    2    1    2    0    0 -0.83282064727E+00 -0.59040228580E+00 -0.59230790227E+00  0.90007748442E+02  0.90000009921E+02 0.  0.
         12    1    1    2    0    0  0.83282064727E+00  0.59040228580E+00  0.59230790227E+00  0.11802515582E+01  0.00000000000E+00 0. -1.
         11    1    3    3    0    0 -0.15754211740E+01  0.75789509276E+01  0.42738392666E+01  0.88424064245E+01  0.51100000000E-03 0. -1.
        -11    1    3    3    0    0 -0.27521969729E+02  0.92539286345E+01 -0.28283804443E+02  0.40534770346E+02  0.51100000000E-03 0.  1.
         12    1    3    3    0    0  0.28264570256E+02 -0.17423281848E+02  0.23417657275E+02  0.40630571671E+02  0.00000000000E+00 0. -1.
</event>
<event>
 7    1  0.2569312E-015  0.9000783E+02  0.7816164E-02  0.1186339E+00
        -11   -1    0    0    0    0  0.00000000000E+00  0.00000000000E+00  0.45593999997E+02  0.45594000000E+02  0.51100000000E-03 0.  1.
         11   -1    0    0    0    0 -0.00000000000E+00 -0.00000000000E+00 -0.45593999997E+02  0.45594000000E+02  0.51100000000E-03 0. -1.
    9900012    2    1    2    0    0 -0.11288843170E+01 -0.21276009040E+00  0.27049225966E+00  0.90007825132E+02  0.90000087623E+02 0.  0.
         12    1    1    2    0    0  0.11288843170E+01  0.21276009040E+00 -0.27049225966E+00  0.11801748683E+01  0.00000000000E+00 0. -1.
         11    1    3    3    0    0 -0.84186100674E+01  0.37616986273E+02 -0.32181894352E+01  0.38681615727E+02  0.51100000000E-03 0. -1.
        -11    1    3    3    0    0  0.22763927682E+01  0.37889343318E+01  0.80251325387E+01  0.91619179177E+01  0.51100000000E-03 0.  1.
        -12    1    3    3    0    0  0.50133329822E+01 -0.41618680695E+02 -0.45364508438E+01  0.42164291487E+02  0.00000000000E+00 0.  1.
</event>
<event>
 7    1  0.2569312E-015  0.9000801E+02  0.7816164E-02  0.1186338E+00
        -11   -1    0    0    0    0  0.00000000000E+00  0.00000000000E+00  0.45593999997E+02  0.45594000000E+02  0.51100000000E-03 0. -1.
         11   -1    0    0    0    0 -0.00000000000E+00 -0.00000000000E+00 -0.45593999997E+02  0.45594000000E+02  0.51100000000E-03 0.  1.
    9900012    2    1    2    0    0  0.10916793232E+01 -0.43153890422E+00  0.11990935108E+00  0.90008013634E+02  0.90000278614E+02 0.  0.
         12    1    1    2    0    0 -0.10916793232E+01  0.43153890422E+00 -0.11990935108E+00  0.11799863656E+01  0.00000000000E+00 0. -1.
         11    1    3    3    0    0 -0.45160590136E+01  0.23781989486E+02 -0.30499630551E+02  0.38938480671E+02  0.51100000000E-03 0. -1.
        -11    1    3    3    0    0  0.24330338646E+01 -0.83838061850E+01 -0.63057572528E+01  0.10768956993E+02  0.51100000000E-03 0.  1.
        -12    1    3    3    0    0  0.31747044722E+01 -0.15829722205E+02  0.36925297155E+02  0.40300575970E+02  0.00000000000E+00 0.  1.
</event>
<event>
 7    1  0.3316545E-015  0.9000773E+02  0.7816164E-02  0.1186339E+00
        -11   -1    0    0    0    0  0.00000000000E+00  0.00000000000E+00  0.45593999997E+02  0.45594000000E+02  0.51100000000E-03 0. -1.
         11   -1    0    0    0    0 -0.00000000000E+00 -0.00000000000E+00 -0.45593999997E+02  0.45594000000E+02  0.51100000000E-03 0.  1.
    9900012    2    1    2    0    0  0.48563672106E+00  0.68787198179E+00 -0.82705883509E+00  0.90007730029E+02  0.89999991265E+02 0.  0.
         12    1    1    2    0    0 -0.48563672106E+00 -0.68787198179E+00  0.82705883509E+00  0.11802699712E+01  0.00000000000E+00 0. -1.
         11    1    3    3    0    0 -0.11663278586E+02  0.24212131820E+02  0.23923320948E+02  0.35980337410E+02  0.51100000000E-03 0. -1.
        -11    1    3    3    0    0 -0.72865690595E+00  0.31749262724E+01  0.87254950926E+01  0.93137190527E+01  0.51100000000E-03 0.  1.
        -12    1    3    3    0    0  0.12877572213E+02 -0.26699186111E+02 -0.33475874876E+02  0.44713673566E+02  0.00000000000E+00 0.  1.
</event>
<event>
 7    1  0.2569312E-015  0.9000776E+02  0.7816164E-02  0.1186339E+00
        -11   -1    0    0    0    0  0.00000000000E+00  0.00000000000E+00  0.45593999997E+02  0.45594000000E+02  0.51100000000E-03 0.  1.
         11   -1    0    0    0    0 -0.00000000000E+00 -0.00000000000E+00 -0.45593999997E+02  0.45594000000E+02  0.51100000000E-03 0. -1.
    9900012    2    1    2    0    0 -0.97934512908E+00  0.60800920666E+00  0.25334895762E+00  0.90007755207E+02  0.90000016776E+02 0.  0.
         12    1    1    2    0    0  0.97934512908E+00 -0.60800920666E+00 -0.25334895762E+00  0.11802447931E+01  0.00000000000E+00 0. -1.
         11    1    3    3    0    0 -0.93889673509E+00 -0.65582255141E+01  0.78965691131E+01  0.10307650217E+02  0.51100000000E-03 0. -1.
        -11    1    3    3    0    0  0.20234042653E+02 -0.13758070871E+02  0.25656509519E+02  0.35453596110E+02  0.51100000000E-03 0.  1.
         12    1    3    3    0    0 -0.20274491047E+02  0.20924305592E+02 -0.33299729674E+02  0.44246508880E+02  0.00000000000E+00 0. -1.
</event>
<event>
 7    1  0.2569312E-015  0.9000772E+02  0.7816164E-02  0.1186339E+00
        -11   -1    0    0    0    0  0.00000000000E+00  0.00000000000E+00  0.45593999997E+02  0.45594000000E+02  0.51100000000E-03 0.  1.
         11   -1    0    0    0    0 -0.00000000000E+00 -0.00000000000E+00 -0.45593999997E+02  0.45594000000E+02  0.51100000000E-03 0. -1.
    9900012    2    1    2    0    0 -0.73085148833E+00 -0.74362287503E+00  0.55311193442E+00  0.90007723892E+02  0.89999985048E+02 0.  0.
         12    1    1    2    0    0  0.73085148833E+00  0.74362287503E+00 -0.55311193442E+00  0.11802761076E+01  0.00000000000E+00 0. -1.
         11    1    3    3    0    0  0.34724051275E+00 -0.57895169316E+01  0.73869067491E+01  0.93917769276E+01  0.51100000000E-03 0. -1.
        -11    1    3    3    0    0  0.37317763493E+00 -0.25889728942E+02  0.25149370179E+02  0.36095818967E+02  0.51100000000E-03 0.  1.
         12    1    3    3    0    0 -0.14512696360E+01  0.30935622999E+02 -0.31983164994E+02  0.44520127997E+02  0.00000000000E+00 0. -1.
</event>
<event>
 7    1  0.2569312E-015  0.9000775E+02  0.7816164E-02  0.1186339E+00
        -11   -1    0    0    0    0  0.00000000000E+00  0.00000000000E+00  0.45593999997E+02  0.45594000000E+02  0.51100000000E-03 0.  1.
         11   -1    0    0    0    0 -0.00000000000E+00 -0.00000000000E+00 -0.45593999997E+02  0.45594000000E+02  0.51100000000E-03 0. -1.
    9900012    2    1    2    0    0 -0.36420297193E+00 -0.11137412552E+01  0.14118890836E+00  0.90007746766E+02  0.90000008223E+02 0.  0.
         12    1    1    2    0    0  0.36420297193E+00  0.11137412552E+01 -0.14118890836E+00  0.11802532339E+01  0.00000000000E+00 0. -1.
         11    1    3    3    0    0  0.27705573137E+01 -0.29331830743E+01 -0.95237032312E+01  0.10343136578E+02  0.51100000000E-03 0. -1.
        -11    1    3    3    0    0 -0.30932382164E+02  0.17389042647E+02  0.25875009212E+02  0.43917048768E+02  0.51100000000E-03 0.  1.
         12    1    3    3    0    0  0.27797621878E+02 -0.15569600828E+02 -0.16210117072E+02  0.35747561420E+02  0.00000000000E+00 0. -1.
</event>
<event>
 7    1  0.2569312E-015  0.9000772E+02  0.7816164E-02  0.1186339E+00
        -11   -1    0    0    0    0  0.00000000000E+00  0.00000000000E+00  0.45593999997E+02  0.45594000000E+02  0.51100000000E-03 0.  1.
         11   -1    0    0    0    0 -0.00000000000E+00 -0.00000000000E+00 -0.45593999997E+02  0.45594000000E+02  0.51100000000E-03 0. -1.
    9900012    2    1    2    0    0  0.48833701294E+00 -0.79739012573E+00  0.72024196668E+00  0.90007723532E+02  0.89999984682E+02 0.  0.
         12    1    1    2    0    0 -0.48833701294E+00  0.79739012573E+00 -0.72024196668E+00  0.11802764682E+01  0.00000000000E+00 0. -1.
         11    1    3    3    0    0  0.45960935851E+01  0.67942781970E+01  0.14268891318E+02  0.16458661919E+02  0.51100000000E-03 0. -1.
        -11    1    3    3    0    0 -0.20220776441E+02  0.10795614901E+02  0.21092143522E+02  0.31149696942E+02  0.51100000000E-03 0.  1.
         12    1    3    3    0    0  0.16113019869E+02 -0.18387283223E+02 -0.34640792873E+02  0.42399364671E+02  0.00000000000E+00 0. -1.
</event>
<event>
 7    1  0.2569312E-015  0.9000782E+02  0.7816164E-02  0.1186339E+00
        -11   -1    0    0    0    0  0.00000000000E+00  0.00000000000E+00  0.45593999997E+02  0.45594000000E+02  0.51100000000E-03 0.  1.
         11   -1    0    0    0    0 -0.00000000000E+00 -0.00000000000E+00 -0.45593999997E+02  0.45594000000E+02  0.51100000000E-03 0. -1.
    9900012    2    1    2    0    0  0.30348701810E+00 -0.10142000983E+01 -0.52165524902E+00  0.90007817638E+02  0.90000080030E+02 0.  0.
         12    1    1    2    0    0 -0.30348701810E+00  0.10142000983E+01  0.52165524902E+00  0.11801823623E+01  0.00000000000E+00 0. -1.
         11    1    3    3    0    0  0.14881015976E+02  0.32364291101E+02 -0.18684660431E+02  0.40224476511E+02  0.51100000000E-03 0. -1.
        -11    1    3    3    0    0 -0.21284203792E+01  0.50437233737E+01 -0.58026643505E-01  0.54747316038E+01  0.51100000000E-03 0.  1.
        -12    1    3    3    0    0 -0.12449108579E+02 -0.38422214573E+02  0.18221031825E+02  0.44308609523E+02  0.00000000000E+00 0.  1.
</event>
<event>
 7    1  0.3373923E-015  0.9000907E+02  0.7816164E-02  0.1186336E+00
        -11   -1    0    0    0    0  0.00000000000E+00  0.00000000000E+00  0.45593999997E+02  0.45594000000E+02  0.51100000000E-03 0. -1.
         11   -1    0    0    0    0 -0.00000000000E+00 -0.00000000000E+00 -0.45593999997E+02  0.45594000000E+02  0.51100000000E-03 0.  1.
    9900012    2    1    2    0    0  0.36564163254E+00 -0.10719851817E+01  0.32716884281E+00  0.90009065954E+02  0.90001344814E+02 0.  0.
         12    1    1    2    0    0 -0.36564163254E+00  0.10719851817E+01 -0.32716884281E+00  0.11789340460E+01  0.00000000000E+00 0. -1.
         11    1    3    3    0    0 -0.24875236758E+01 -0.35373323016E+02  0.10640205480E+02  0.37022611039E+02  0.51100000000E-03 0. -1.
        -11    1    3    3    0    0 -0.10269269442E+01 -0.83600759256E+01 -0.50654323950E+01  0.98287361365E+01  0.51100000000E-03 0.  1.
        -12    1    3    3    0    0  0.38800922525E+01  0.42661413760E+02 -0.52476042424E+01  0.43157718778E+02  0.00000000000E+00 0.  1.
</event>
<event>
 7    1  0.2569312E-015  0.9000770E+02  0.7816164E-02  0.1186339E+00
        -11   -1    0    0    0    0  0.00000000000E+00  0.00000000000E+00  0.45593999997E+02  0.45594000000E+02  0.51100000000E-03 0. -1.
         11   -1    0    0    0    0 -0.00000000000E+00 -0.00000000000E+00 -0.45593999997E+02  0.45594000000E+02  0.51100000000E-03 0.  1.
    9900012    2    1    2    0    0  0.14135855297E+00  0.24103649217E+00 -0.11467433098E+01  0.90007702982E+02  0.89999963862E+02 0.  0.
         12    1    1    2    0    0 -0.14135855297E+00 -0.24103649217E+00  0.11467433098E+01  0.11802970175E+01  0.00000000000E+00 0. -1.
         11    1    3    3    0    0 -0.43059192420E+01 -0.84851851498E+01  0.16849475935E+01  0.96632477045E+01  0.51100000000E-03 0. -1.
        -11    1    3    3    0    0 -0.12414465800E+02 -0.14082297829E+02 -0.33604884387E+02  0.38493094551E+02  0.51100000000E-03 0.  1.
         12    1    3    3    0    0  0.16861743595E+02  0.22808519471E+02  0.30773193483E+02  0.41851360727E+02  0.00000000000E+00 0. -1.
</event>
<event>
 7    1  0.2569312E-015  0.9000777E+02  0.7816164E-02  0.1186339E+00
        -11   -1    0    0    0    0  0.00000000000E+00  0.00000000000E+00  0.45593999997E+02  0.45594000000E+02  0.51100000000E-03 0.  1.
         11   -1    0    0    0    0 -0.00000000000E+00 -0.00000000000E+00 -0.45593999997E+02  0.45594000000E+02  0.51100000000E-03 0. -1.
    9900012    2    1    2    0    0 -0.94422192582E+00  0.44655262095E+00  0.54952533791E+00  0.90007770198E+02  0.90000031965E+02 0.  0.
         12    1    1    2    0    0  0.94422192582E+00 -0.44655262095E+00 -0.54952533791E+00  0.11802298020E+01  0.00000000000E+00 0. -1.
         11    1    3    3    0    0  0.18137516754E+01 -0.67826734616E+01  0.60030331591E+01  0.92374651175E+01  0.51100000000E-03 0. -1.
        -11    1    3    3    0    0  0.98627098861E+01  0.12100475791E+02  0.34887814341E+02  0.38221121784E+02  0.51100000000E-03 0.  1.
         12    1    3    3    0    0 -0.12620683487E+02 -0.48712497087E+01 -0.40341322162E+02  0.42549183297E+02  0.00000000000E+00 0. -1.
</event>
<event>
 7    1  0.2569312E-015  0.9000790E+02  0.7816164E-02  0.1186339E+00
        -11   -1    0    0    0    0  0.00000000000E+00  0.00000000000E+00  0.45593999997E+02  0.45594000000E+02  0.51100000000E-03 0. -1.
         11   -1    0    0    0    0 -0.00000000000E+00 -0.00000000000E+00 -0.45593999997E+02  0.45594000000E+02  0.51100000000E-03 0.  1.
    9900012    2    1    2    0    0  0.38856207588E+00  0.97116134989E+00  0.54636024475E+00  0.90007896457E+02  0.90000159890E+02 0.  0.
         12    1    1    2    0    0 -0.38856207588E+00 -0.97116134989E+00 -0.54636024475E+00  0.11801035427E+01  0.00000000000E+00 0. -1.
         11    1    3    3    0    0  0.13894168664E+01 -0.84491730671E+01 -0.40511724787E+01  0.94726450087E+01  0.51100000000E-03 0. -1.
        -11    1    3    3    0    0  0.32098682833E+02 -0.11745370263E+02 -0.14162257175E+02  0.36997955224E+02  0.51100000000E-03 0.  1.
         12    1    3    3    0    0 -0.33099537624E+02  0.21165704680E+02  0.18759789898E+02  0.43537296224E+02  0.00000000000E+00 0. -1.
</event>
<event>
 7    1  0.3131857E-015  0.9000778E+02  0.7816164E-02  0.1186339E+00
        -11   -1    0    0    0    0  0.00000000000E+00  0.00000000000E+00  0.45593999997E+02  0.45594000000E+02  0.51100000000E-03 0.  1.
         11   -1    0    0    0    0 -0.00000000000E+00 -0.00000000000E+00 -0.45593999997E+02  0.45594000000E+02  0.51100000000E-03 0. -1.
    9900012    2    1    2    0    0 -0.71797953360E+00 -0.68224959388E+00  0.64184033322E+00  0.90007780473E+02  0.90000042375E+02 0.  0.
         12    1    1    2    0    0  0.71797953360E+00  0.68224959388E+00 -0.64184033322E+00  0.11802195272E+01  0.00000000000E+00 0. -1.
         11    1    3    3    0    0 -0.26483958543E+02  0.22806110267E+02 -0.15258587746E+02  0.38135852238E+02  0.51100000000E-03 0. -1.
        -11    1    3    3    0    0  0.43707519653E+00  0.84596854336E+01  0.42044416175E+01  0.94569890525E+01  0.51100000000E-03 0.  1.
        -12    1    3    3    0    0  0.25328903813E+02 -0.31948045295E+02  0.11695986461E+02  0.42414939182E+02  0.00000000000E+00 0.  1.
</event>
<event>
 7    1  0.2569312E-015  0.9000774E+02  0.7816164E-02  0.1186339E+00
        -11   -1    0    0    0    0  0.00000000000E+00  0.00000000000E+00  0.45593999997E+02  0.45594000000E+02  0.51100000000E-03 0.  1.
         11   -1    0    0    0    0 -0.00000000000E+00 -0.00000000000E+00 -0.45593999997E+02  0.45594000000E+02  0.51100000000E-03 0. -1.
    9900012    2    1    2    0    0 -0.43968039954E+00  0.55926519961E+00  0.94176736541E+00  0.90007736391E+02  0.89999997711E+02 0.  0.
         12    1    1    2    0    0  0.43968039954E+00 -0.55926519961E+00 -0.94176736541E+00  0.11802636094E+01  0.00000000000E+00 0. -1.
         11    1    3    3    0    0  0.34829292869E+01 -0.34364326428E+02  0.10688001384E+01  0.34556910470E+02  0.51100000000E-03 0. -1.
        -11    1    3    3    0    0  0.27911036440E+01 -0.81443706770E+01  0.72345584071E+01  0.11245437692E+02  0.51100000000E-03 0.  1.
        -12    1    3    3    0    0 -0.67137133305E+01  0.43067962304E+02 -0.73615911801E+01  0.44205388228E+02  0.00000000000E+00 0.  1.
</event>
<event>
 7    1  0.2569312E-015  0.9000776E+02  0.7816164E-02  0.1186339E+00
        -11   -1    0    0    0    0  0.00000000000E+00  0.00000000000E+00  0.45593999997E+02  0.45594000000E+02  0.51100000000E-03 0. -1.
         11   -1    0    0    0    0 -0.00000000000E+00 -0.00000000000E+00 -0.45593999997E+02  0.45594000000E+02  0.51100000000E-03 0.  1.
    9900012    2    1    2    0    0 -0.10321744242E+01 -0.47661480922E+00  0.31688565077E+00  0.90007761789E+02  0.90000023445E+02 0.  0.
         12    1    1    2    0    0  0.10321744242E+01  0.47661480922E+00 -0.31688565077E+00  0.11802382107E+01  0.00000000000E+00 0. -1.
         11    1    3    3    0    0 -0.27510329870E+02  0.70196310722E+01  0.21148915807E+02  0.35402967531E+02  0.51100000000E-03 0. -1.
        -11    1    3    3    0    0 -0.46178773018E+01 -0.10275234799E+01  0.95463162436E+01  0.10654236217E+02  0.51100000000E-03 0.  1.
        -12    1    3    3    0    0  0.31096032747E+02 -0.64687224014E+01 -0.30378346400E+02  0.43950558041E+02  0.00000000000E+00 0.  1.
</event>
<event>
 7    1  0.2569312E-015  0.9000771E+02  0.7816164E-02  0.1186339E+00
        -11   -1    0    0    0    0  0.00000000000E+00  0.00000000000E+00  0.45593999997E+02  0.45594000000E+02  0.51100000000E-03 0.  1.
         11   -1    0    0    0    0 -0.00000000000E+00 -0.00000000000E+00 -0.45593999997E+02  0.45594000000E+02  0.51100000000E-03 0. -1.
    9900012    2    1    2    0    0 -0.83226114829E+00  0.62494910387E+00 -0.55665059337E+00  0.90007711949E+02  0.89999972946E+02 0.  0.
         12    1    1    2    0    0  0.83226114829E+00 -0.62494910387E+00  0.55665059337E+00  0.11802880515E+01  0.00000000000E+00 0. -1.
         11    1    3    3    0    0  0.15187880064E+02  0.31498450047E+02 -0.64181182564E+01  0.35553006882E+02  0.51100000000E-03 0. -1.
        -11    1    3    3    0    0  0.63504569421E+01  0.60317380229E+01 -0.48190983278E+01  0.99966932485E+01  0.51100000000E-03 0.  1.
        -12    1    3    3    0    0 -0.22370598154E+02 -0.36905238966E+02  0.10680565991E+02  0.44458011818E+02  0.00000000000E+00 0.  1.
</event>
<event>
 7    1  0.2569312E-015  0.9000775E+02  0.7816164E-02  0.1186339E+00
        -11   -1    0    0    0    0  0.00000000000E+00  0.00000000000E+00  0.45593999997E+02  0.45594000000E+02  0.51100000000E-03 0.  1.
         11   -1    0    0    0    0 -0.00000000000E+00 -0.00000000000E+00 -0.45593999997E+02  0.45594000000E+02  0.51100000000E-03 0. -1.
    9900012    2    1    2    0    0 -0.18675500685E+00  0.89425595470E+00 -0.74727277864E+00  0.90007750979E+02  0.90000012492E+02 0.  0.
         12    1    1    2    0    0  0.18675500685E+00 -0.89425595470E+00  0.74727277864E+00  0.11802490207E+01  0.00000000000E+00 0. -1.
         11    1    3    3    0    0 -0.24831703226E+02 -0.29592750154E+02  0.14639899132E+02  0.41311874729E+02  0.51100000000E-03 0. -1.
        -11    1    3    3    0    0 -0.38880435751E+01  0.55853586902E+01 -0.72822508143E+01  0.99671606651E+01  0.51100000000E-03 0.  1.
        -12    1    3    3    0    0  0.28532991794E+02  0.24901647419E+02 -0.81049210961E+01  0.38728715585E+02  0.00000000000E+00 0.  1.
</event>
<event>
 7    1  0.2569312E-015  0.9000772E+02  0.7816164E-02  0.1186339E+00
        -11   -1    0    0    0    0  0.00000000000E+00  0.00000000000E+00  0.45593999997E+02  0.45594000000E+02  0.51100000000E-03 0.  1.
         11   -1    0    0    0    0 -0.00000000000E+00 -0.00000000000E+00 -0.45593999997E+02  0.45594000000E+02  0.51100000000E-03 0. -1.
    9900012    2    1    2    0    0  0.24183504576E+00  0.10880590496E+00  0.11501077699E+01  0.90007715798E+02  0.89999976847E+02 0.  0.
         12    1    1    2    0    0 -0.24183504576E+00 -0.10880590496E+00 -0.11501077699E+01  0.11802842016E+01  0.00000000000E+00 0. -1.
         11    1    3    3    0    0  0.29706648209E+02  0.23165282019E+02 -0.14881861081E+02  0.40504135941E+02  0.51100000000E-03 0. -1.
        -11    1    3    3    0    0  0.22349257581E+01 -0.88774664122E+01 -0.33335519980E+01  0.97425290469E+01  0.51100000000E-03 0.  1.
        -12    1    3    3    0    0 -0.31699738922E+02 -0.14179009701E+02  0.19365520849E+02  0.39761050811E+02  0.00000000000E+00 0.  1.
</event>
<event>
 7    1  0.2569312E-015  0.9000780E+02  0.7816164E-02  0.1186339E+00
        -11   -1    0    0    0    0  0.00000000000E+00  0.00000000000E+00  0.45593999997E+02  0.45594000000E+02  0.51100000000E-03 0.  1.
         11   -1    0    0    0    0 -0.00000000000E+00 -0.00000000000E+00 -0.45593999997E+02  0.45594000000E+02  0.51100000000E-03 0. -1.
    9900012    2    1    2    0    0  0.16736021178E+00  0.42749990755E-01  0.11674943570E+01  0.90007796596E+02  0.90000058711E+02 0.  0.
         12    1    1    2    0    0 -0.16736021178E+00 -0.42749990755E-01 -0.11674943570E+01  0.11802034045E+01  0.00000000000E+00 0. -1.
         11    1    3    3    0    0  0.31585780470E+02 -0.19692377749E+02 -0.10332966094E+02  0.38629282389E+02  0.51100000000E-03 0. -1.
        -11    1    3    3    0    0 -0.14803069148E+01  0.21745866422E+01 -0.10140568428E+02  0.10476223743E+02  0.51100000000E-03 0.  1.
        -12    1    3    3    0    0 -0.29938113344E+02  0.17560541097E+02  0.21641028879E+02  0.40902290463E+02  0.00000000000E+00 0.  1.
</event>
<event>
 7    1  0.2569312E-015  0.9000771E+02  0.7816164E-02  0.1186339E+00
        -11   -1    0    0    0    0  0.00000000000E+00  0.00000000000E+00  0.45593999997E+02  0.45594000000E+02  0.51100000000E-03 0. -1.
         11   -1    0    0    0    0 -0.00000000000E+00 -0.00000000000E+00 -0.45593999997E+02  0.45594000000E+02  0.51100000000E-03 0.  1.
    9900012    2    1    2    0    0 -0.37007948813E+00 -0.53620806850E+00 -0.98417801465E+00  0.90007710084E+02  0.89999971058E+02 0.  0.
         12    1    1    2    0    0  0.37007948813E+00  0.53620806850E+00  0.98417801465E+00  0.11802899156E+01  0.00000000000E+00 0. -1.
         11    1    3    3    0    0 -0.16730173384E+02 -0.30905130481E+02  0.71637023911E+01  0.35865644058E+02  0.51100000000E-03 0. -1.
        -11    1    3    3    0    0  0.30273383607E+01 -0.71936902250E+01  0.79634469851E+01  0.11150356261E+02  0.51100000000E-03 0.  1.
        -12    1    3    3    0    0  0.13332755535E+02  0.37562612637E+02 -0.16111327391E+02  0.42991709766E+02  0.00000000000E+00 0.  1.
</event>
<event>
 7    1  0.2569312E-015  0.9000771E+02  0.7816164E-02  0.1186339E+00
        -11   -1    0    0    0    0  0.00000000000E+00  0.00000000000E+00  0.45593999997E+02  0.45594000000E+02  0.51100000000E-03 0.  1.
         11   -1    0    0    0    0 -0.00000000000E+00 -0.00000000000E+00 -0.45593999997E+02  0.45594000000E+02  0.51100000000E-03 0. -1.
    9900012    2    1    2    0    0  0.17370771905E+00 -0.56615672840E+00  0.10209699447E+01  0.90007708748E+02  0.89999969703E+02 0.  0.
         12    1    1    2    0    0 -0.17370771905E+00  0.56615672840E+00 -0.10209699447E+01  0.11802912525E+01  0.00000000000E+00 0. -1.
         11    1    3    3    0    0 -0.26429114890E+02  0.22616472285E+02 -0.19761201735E+02  0.40006349830E+02  0.51100000000E-03 0. -1.
        -11    1    3    3    0    0  0.20087042075E+01  0.50214185681E+01 -0.24688614613E+01  0.59451504780E+01  0.51100000000E-03 0.  1.
        -12    1    3    3    0    0  0.24594118402E+02 -0.28204047581E+02  0.23251033141E+02  0.44056208439E+02  0.00000000000E+00 0.  1.
</event>
<event>
 7    1  0.2569312E-015  0.9000776E+02  0.7816164E-02  0.1186339E+00
        -11   -1    0    0    0    0  0.00000000000E+00  0.00000000000E+00  0.45593999997E+02  0.45594000000E+02  0.51100000000E-03 0.  1.
         11   -1    0    0    0    0 -0.00000000000E+00 -0.00000000000E+00 -0.45593999997E+02  0.45594000000E+02  0.51100000000E-03 0. -1.
    9900012    2    1    2    0    0 -0.63520514758E+00  0.84229826124E+00  0.52915531105E+00  0.90007763886E+02  0.90000025570E+02 0.  0.
         12    1    1    2    0    0  0.63520514758E+00 -0.84229826124E+00 -0.52915531105E+00  0.11802361135E+01  0.00000000000E+00 0. -1.
         11    1    3    3    0    0 -0.54170471210E+01 -0.75592342885E+01 -0.16907963335E+01  0.94522597849E+01  0.51100000000E-03 0. -1.
        -11    1    3    3    0    0  0.32986347228E+02 -0.20996088718E+02  0.63240910615E+01  0.39609708064E+02  0.51100000000E-03 0.  1.
         12    1    3    3    0    0 -0.28204505254E+02  0.29397621267E+02 -0.41041394170E+01  0.40945796038E+02  0.00000000000E+00 0. -1.
</event>
<event>
 7    1  0.2569312E-015  0.9000771E+02  0.7816164E-02  0.1186339E+00
        -11   -1    0    0    0    0  0.00000000000E+00  0.00000000000E+00  0.45593999997E+02  0.45594000000E+02  0.51100000000E-03 0.  1.
         11   -1    0    0    0    0 -0.00000000000E+00 -0.00000000000E+00 -0.45593999997E+02  0.45594000000E+02  0.51100000000E-03 0. -1.
    9900012    2    1    2    0    0  0.83639656438E+00 -0.19996283853E+00  0.80841528991E+00  0.90007712056E+02  0.89999973055E+02 0.  0.
         12    1    1    2    0    0 -0.83639656438E+00  0.19996283853E+00 -0.80841528991E+00  0.11802879440E+01  0.00000000000E+00 0. -1.
         11    1    3    3    0    0  0.81517503097E+01 -0.22964239875E+01  0.59876985864E+01  0.10371939590E+02  0.51100000000E-03 0. -1.
        -11    1    3    3    0    0  0.33956411335E+02 -0.10788334145E+00  0.10326862781E+02  0.35492162581E+02  0.51100000000E-03 0.  1.
         12    1    3    3    0    0 -0.41271765080E+02  0.22043444904E+01 -0.15506146078E+02  0.44143609884E+02  0.00000000000E+00 0. -1.
</event>
<event>
 7    1  0.2569312E-015  0.9000785E+02  0.7816164E-02  0.1186339E+00
        -11   -1    0    0    0    0  0.00000000000E+00  0.00000000000E+00  0.45593999997E+02  0.45594000000E+02  0.51100000000E-03 0. -1.
         11   -1    0    0    0    0 -0.00000000000E+00 -0.00000000000E+00 -0.45593999997E+02  0.45594000000E+02  0.51100000000E-03 0.  1.
    9900012    2    1    2    0    0 -0.91662522763E+00  0.74319152795E+00 -0.15014211594E-01  0.90007847094E+02  0.90000109876E+02 0.  0.
         12    1    1    2    0    0  0.91662522763E+00 -0.74319152795E+00  0.15014211594E-01  0.11801529061E+01  0.00000000000E+00 0. -1.
         11    1    3    3    0    0  0.35041753253E+01 -0.94221758430E+01 -0.86814071172E+00  0.10090109558E+02  0.51100000000E-03 0. -1.
        -11    1    3    3    0    0  0.83905661311E+01 -0.19789200418E+02 -0.28750733336E+02  0.35897335846E+02  0.51100000000E-03 0.  1.
         12    1    3    3    0    0 -0.12811366684E+02  0.29954567789E+02  0.29603859837E+02  0.44020401690E+02  0.00000000000E+00 0. -1.
</event>
<event>
 7    1  0.2569312E-015  0.9000774E+02  0.7816164E-02  0.1186339E+00
        -11   -1    0    0    0    0  0.00000000000E+00  0.00000000000E+00  0.45593999997E+02  0.45594000000E+02  0.51100000000E-03 0. -1.
         11   -1    0    0    0    0 -0.00000000000E+00 -0.00000000000E+00 -0.45593999997E+02  0.45594000000E+02  0.51100000000E-03 0.  1.
    9900012    2    1    2    0    0  0.50675918232E-01  0.11091745054E+01 -0.40023182511E+00  0.90007736620E+02  0.89999997943E+02 0.  0.
         12    1    1    2    0    0 -0.50675918232E-01 -0.11091745054E+01  0.40023182511E+00  0.11802633799E+01  0.00000000000E+00 0. -1.
         11    1    3    3    0    0 -0.28796310988E+02 -0.83318628288E+01  0.30542330053E+02  0.42795810426E+02  0.51100000000E-03 0. -1.
        -11    1    3    3    0    0 -0.28164181352E+00  0.56149222534E+01 -0.87191364190E+01  0.10374488622E+02  0.51100000000E-03 0.  1.
        -12    1    3    3    0    0  0.29128628720E+02  0.38261150809E+01 -0.22223425459E+02  0.36837437571E+02  0.00000000000E+00 0.  1.
</event>
<event>
 7    1  0.2569312E-015  0.9000782E+02  0.7816164E-02  0.1186339E+00
        -11   -1    0    0    0    0  0.00000000000E+00  0.00000000000E+00  0.45593999997E+02  0.45594000000E+02  0.51100000000E-03 0.  1.
         11   -1    0    0    0    0 -0.00000000000E+00 -0.00000000000E+00 -0.45593999997E+02  0.45594000000E+02  0.51100000000E-03 0. -1.
    9900012    2    1    2    0    0  0.17786694367E+00  0.90739385216E+00  0.73337078607E+00  0.90007816556E+02  0.90000078934E+02 0.  0.
         12    1    1    2    0    0 -0.17786694367E+00 -0.90739385216E+00 -0.73337078607E+00  0.11801834444E+01  0.00000000000E+00 0. -1.
         11    1    3    3    0    0 -0.10064248741E+02  0.10253168806E+02 -0.44327177163E+01  0.15035476710E+02  0.51100000000E-03 0. -1.
        -11    1    3    3    0    0 -0.28939627514E+02 -0.12651651036E+02  0.14195906638E+02  0.34627880098E+02  0.51100000000E-03 0.  1.
         12    1    3    3    0    0  0.39181743198E+02  0.33058760815E+01 -0.90298181361E+01  0.40344459747E+02  0.00000000000E+00 0. -1.
</event>
<event>
 7    1  0.2569312E-015  0.9000806E+02  0.7816164E-02  0.1186338E+00
        -11   -1    0    0    0    0  0.00000000000E+00  0.00000000000E+00  0.45593999997E+02  0.45594000000E+02  0.51100000000E-03 0. -1.
         11   -1    0    0    0    0 -0.00000000000E+00 -0.00000000000E+00 -0.45593999997E+02  0.45594000000E+02  0.51100000000E-03 0.  1.
    9900012    2    1    2    0    0  0.16493176681E+00  0.11098164408E+01  0.36518940608E+00  0.90008060034E+02  0.90000325626E+02 0.  0.
         12    1    1    2    0    0 -0.16493176681E+00 -0.11098164408E+01 -0.36518940608E+00  0.11799399656E+01  0.00000000000E+00 0. -1.
         11    1    3    3    0    0 -0.63911502838E+01 -0.14277648022E+01 -0.50077241200E+01  0.82439441655E+01  0.51100000000E-03 0. -1.
        -11    1    3    3    0    0 -0.19762085441E+02 -0.13094703677E+02 -0.27860345983E+02  0.36581554968E+02  0.51100000000E-03 0.  1.
         12    1    3    3    0    0  0.26318167492E+02  0.15632284920E+02  0.33233259509E+02  0.45182560900E+02  0.00000000000E+00 0. -1.
</event>
<event>
 7    1  0.2569312E-015  0.9000783E+02  0.7816164E-02  0.1186339E+00
        -11   -1    0    0    0    0  0.00000000000E+00  0.00000000000E+00  0.45593999997E+02  0.45594000000E+02  0.51100000000E-03 0.  1.
         11   -1    0    0    0    0 -0.00000000000E+00 -0.00000000000E+00 -0.45593999997E+02  0.45594000000E+02  0.51100000000E-03 0. -1.
    9900012    2    1    2    0    0  0.43437011080E+00  0.10417809859E+01  0.34470166432E+00  0.90007828719E+02  0.90000091258E+02 0.  0.
         12    1    1    2    0    0 -0.43437011080E+00 -0.10417809859E+01 -0.34470166432E+00  0.11801712813E+01  0.00000000000E+00 0. -1.
         11    1    3    3    0    0 -0.27459140749E+02  0.60344735482E+01 -0.13049313959E+02  0.30995223450E+02  0.51100000000E-03 0. -1.
        -11    1    3    3    0    0  0.38360733718E+01 -0.12870597723E+02 -0.15558971986E+02  0.20553572784E+02  0.51100000000E-03 0.  1.
        -12    1    3    3    0    0  0.24057437488E+02  0.78779051605E+01  0.28952987609E+02  0.38459032485E+02  0.00000000000E+00 0.  1.
</event>
<event>
 7    1  0.2569312E-015  0.9000763E+02  0.7816164E-02  0.1186339E+00
        -11   -1    0    0    0    0  0.00000000000E+00  0.00000000000E+00  0.45593999997E+02  0.45594000000E+02  0.51100000000E-03 0. -1.
         11   -1    0    0    0    0 -0.00000000000E+00 -0.00000000000E+00 -0.45593999997E+02  0.45594000000E+02  0.51100000000E-03 0.  1.
    9900012    2    1    2    0    0 -0.56859074305E+00 -0.34328506276E+00 -0.97576989581E+00  0.90007632703E+02  0.89999892654E+02 0.  0.
         12    1    1    2    0    0  0.56859074305E+00  0.34328506276E+00  0.97576989581E+00  0.11803672975E+01  0.00000000000E+00 0. -1.
         11    1    3    3    0    0  0.39931404207E+01  0.33224751744E+02  0.23869186099E+02  0.41104347022E+02  0.51100000000E-03 0. -1.
        -11    1    3    3    0    0 -0.59324960814E+01 -0.48340087656E+01  0.35918597651E+01  0.84536150454E+01  0.51100000000E-03 0.  1.
        -12    1    3    3    0    0  0.13707649176E+01 -0.28734028041E+02 -0.28436815760E+02  0.40449670635E+02  0.00000000000E+00 0.  1.
</event>
<event>
 7    1  0.2569312E-015  0.9000787E+02  0.7816164E-02  0.1186339E+00
        -11   -1    0    0    0    0  0.00000000000E+00  0.00000000000E+00  0.45593999997E+02  0.45594000000E+02  0.51100000000E-03 0. -1.
         11   -1    0    0    0    0 -0.00000000000E+00 -0.00000000000E+00 -0.45593999997E+02  0.45594000000E+02  0.51100000000E-03 0.  1.
    9900012    2    1    2    0    0 -0.10097331353E+00  0.54641280569E+00 -0.10411269531E+01  0.90007869542E+02  0.90000132620E+02 0.  0.
         12    1    1    2    0    0  0.10097331353E+00 -0.54641280569E+00  0.10411269531E+01  0.11801304575E+01  0.00000000000E+00 0. -1.
         11    1    3    3    0    0 -0.23105099007E+02 -0.64535692013E+01  0.17563260669E+02  0.29731503176E+02  0.51100000000E-03 0. -1.
        -11    1    3    3    0    0 -0.36887374458E+01  0.11353713635E+02  0.13682681314E+02  0.18158451626E+02  0.51100000000E-03 0.  1.
        -12    1    3    3    0    0  0.26692863139E+02 -0.43537316277E+01 -0.32287068936E+02  0.42117914741E+02  0.00000000000E+00 0.  1.
</event>
<event>
 7    1  0.2569312E-015  0.9000749E+02  0.7816164E-02  0.1186340E+00
        -11   -1    0    0    0    0  0.00000000000E+00  0.00000000000E+00  0.45593999997E+02  0.45594000000E+02  0.51100000000E-03 0. -1.
         11   -1    0    0    0    0 -0.00000000000E+00 -0.00000000000E+00 -0.45593999997E+02  0.45594000000E+02  0.51100000000E-03 0.  1.
    9900012    2    1    2    0    0 -0.10260086499E+01  0.15072228997E+00 -0.56408447298E+00  0.90007490682E+02  0.89999748758E+02 0.  0.
         12    1    1    2    0    0  0.10260086499E+01 -0.15072228997E+00  0.56408447298E+00  0.11805093185E+01  0.00000000000E+00 0. -1.
         11    1    3    3    0    0 -0.34761189667E+01 -0.57195124795E+01  0.35060726524E+02  0.35693847799E+02  0.51100000000E-03 0. -1.
        -11    1    3    3    0    0 -0.56713672949E+00  0.15437481964E+00  0.91026472825E+01  0.91216042156E+01  0.51100000000E-03 0.  1.
        -12    1    3    3    0    0  0.30172470463E+01  0.57158599499E+01 -0.44727458279E+02  0.45192038667E+02  0.00000000000E+00 0.  1.
</event>
<event>
 7    1  0.2569312E-015  0.9000768E+02  0.7816164E-02  0.1186339E+00
        -11   -1    0    0    0    0  0.00000000000E+00  0.00000000000E+00  0.45593999997E+02  0.45594000000E+02  0.51100000000E-03 0.  1.
         11   -1    0    0    0    0 -0.00000000000E+00 -0.00000000000E+00 -0.45593999997E+02  0.45594000000E+02  0.51100000000E-03 0. -1.
    9900012    2    1    2    0    0 -0.33483685593E+00  0.11146091599E+01  0.19667893178E+00  0.90007681441E+02  0.89999942036E+02 0.  0.
         12    1    1    2    0    0  0.33483685593E+00 -0.11146091599E+01 -0.19667893178E+00  0.11803185594E+01  0.00000000000E+00 0. -1.
         11    1    3    3    0    0  0.36963321547E+01  0.68262452687E+01 -0.13621754553E+02  0.15678414882E+02  0.51100000000E-03 0. -1.
        -11    1    3    3    0    0  0.14672090443E+02  0.29619343122E+02  0.59059393288E+01  0.33577609274E+02  0.51100000000E-03 0.  1.
         12    1    3    3    0    0 -0.18703259454E+02 -0.35330979231E+02  0.79124941558E+01  0.40751657284E+02  0.00000000000E+00 0. -1.
</event>
<event>
 7    1  0.2569312E-015  0.9000774E+02  0.7816164E-02  0.1186339E+00
        -11   -1    0    0    0    0  0.00000000000E+00  0.00000000000E+00  0.45593999997E+02  0.45594000000E+02  0.51100000000E-03 0. -1.
         11   -1    0    0    0    0 -0.00000000000E+00 -0.00000000000E+00 -0.45593999997E+02  0.45594000000E+02  0.51100000000E-03 0.  1.
    9900012    2    1    2    0    0 -0.49971387739E+00 -0.10544469142E+01 -0.17731632517E+00  0.90007740142E+02  0.90000001511E+02 0.  0.
         12    1    1    2    0    0  0.49971387739E+00  0.10544469142E+01  0.17731632517E+00  0.11802598584E+01  0.00000000000E+00 0. -1.
         11    1    3    3    0    0  0.15536119770E+02 -0.36956598164E+02  0.69453302793E+01  0.40686592120E+02  0.51100000000E-03 0. -1.
        -11    1    3    3    0    0 -0.13641933993E+01 -0.12545080695E+01 -0.91359625452E+01  0.93220505263E+01  0.51100000000E-03 0.  1.
        -12    1    3    3    0    0 -0.14671640248E+02  0.37156659320E+02  0.20133159407E+01  0.39999097495E+02  0.00000000000E+00 0.  1.
</event>
<event>
 7    1  0.2569312E-015  0.9000747E+02  0.7816164E-02  0.1186340E+00
        -11   -1    0    0    0    0  0.00000000000E+00  0.00000000000E+00  0.45593999997E+02  0.45594000000E+02  0.51100000000E-03 0.  1.
         11   -1    0    0    0    0 -0.00000000000E+00 -0.00000000000E+00 -0.45593999997E+02  0.45594000000E+02  0.51100000000E-03 0. -1.
    9900012    2    1    2    0    0  0.34317420435E+00  0.10720913719E+01 -0.35568497189E+00  0.90007466119E+02  0.89999723872E+02 0.  0.
         12    1    1    2    0    0 -0.34317420435E+00 -0.10720913719E+01  0.35568497189E+00  0.11805338807E+01  0.00000000000E+00 0. -1.
         11    1    3    3    0    0  0.52223062934E+00 -0.84946995503E+01 -0.42112404137E+01  0.94956406504E+01  0.51100000000E-03 0. -1.
        -11    1    3    3    0    0  0.13740145424E+02 -0.29394233385E+02 -0.14140707926E+02  0.35394521800E+02  0.51100000000E-03 0.  1.
         12    1    3    3    0    0 -0.13919201849E+02  0.38961024307E+02  0.17996263368E+02  0.45117303669E+02  0.00000000000E+00 0. -1.
</event>
<event>
 7    1  0.2569312E-015  0.9000735E+02  0.7816164E-02  0.1186340E+00
        -11   -1    0    0    0    0  0.00000000000E+00  0.00000000000E+00  0.45593999997E+02  0.45594000000E+02  0.51100000000E-03 0. -1.
         11   -1    0    0    0    0 -0.00000000000E+00 -0.00000000000E+00 -0.45593999997E+02  0.45594000000E+02  0.51100000000E-03 0.  1.
    9900012    2    1    2    0    0  0.32107494274E+00  0.14647737303E+00 -0.11266718097E+01  0.90007350134E+02  0.89999606355E+02 0.  0.
         12    1    1    2    0    0 -0.32107494274E+00 -0.14647737303E+00  0.11266718097E+01  0.11806498662E+01  0.00000000000E+00 0. -1.
         11    1    3    3    0    0  0.32044280379E+00 -0.22350203046E+01 -0.78143687611E+01  0.81340247570E+01  0.51100000000E-03 0. -1.
        -11    1    3    3    0    0 -0.12131841169E+02 -0.36033473523E+02 -0.82535991930E+01  0.38906486403E+02  0.51100000000E-03 0.  1.
         12    1    3    3    0    0  0.12132473308E+02  0.38414971201E+02  0.14941296144E+02  0.42966838974E+02  0.00000000000E+00 0. -1.
</event>
<event>
 7    1  0.2569312E-015  0.9000776E+02  0.7816164E-02  0.1186339E+00
        -11   -1    0    0    0    0  0.00000000000E+00  0.00000000000E+00  0.45593999997E+02  0.45594000000E+02  0.51100000000E-03 0.  1.
         11   -1    0    0    0    0 -0.00000000000E+00 -0.00000000000E+00 -0.45593999997E+02  0.45594000000E+02  0.51100000000E-03 0. -1.
    9900012    2    1    2    0    0 -0.24853223062E+00 -0.96064810151E+00  0.63903390445E+00  0.90007755375E+02  0.90000016946E+02 0.  0.
         12    1    1    2    0    0  0.24853223062E+00  0.96064810151E+00 -0.63903390445E+00  0.11802446253E+01  0.00000000000E+00 0. -1.
         11    1    3    3    0    0  0.95761013060E+00  0.18515638139E+02  0.32219243250E+02  0.37172913643E+02  0.51100000000E-03 0. -1.
        -11    1    3    3    0    0 -0.41861433217E+01  0.36706333666E+01  0.62593002508E+01  0.83771227228E+01  0.51100000000E-03 0.  1.
        -12    1    3    3    0    0  0.29800009605E+01 -0.23146919607E+02 -0.37839509596E+02  0.44457719009E+02  0.00000000000E+00 0.  1.
</event>
<event>
 7    1  0.2569312E-015  0.9000774E+02  0.7816164E-02  0.1186339E+00
        -11   -1    0    0    0    0  0.00000000000E+00  0.00000000000E+00  0.45593999997E+02  0.45594000000E+02  0.51100000000E-03 0.  1.
         11   -1    0    0    0    0 -0.00000000000E+00 -0.00000000000E+00 -0.45593999997E+02  0.45594000000E+02  0.51100000000E-03 0. -1.
    9900012    2    1    2    0    0  0.42974678854E+00 -0.27424534105E+00  0.10644837206E+01  0.90007737995E+02  0.89999999336E+02 0.  0.
         12    1    1    2    0    0 -0.42974678854E+00  0.27424534105E+00 -0.10644837206E+01  0.11802620052E+01  0.00000000000E+00 0. -1.
         11    1    3    3    0    0  0.26915645215E+02 -0.17603266563E+02  0.15479643749E+02  0.35692384649E+02  0.51100000000E-03 0. -1.
        -11    1    3    3    0    0 -0.11747069395E+01 -0.90797156858E+01  0.73582845033E+01  0.11745872655E+02  0.51100000000E-03 0.  1.
        -12    1    3    3    0    0 -0.25311191487E+02  0.26408736908E+02 -0.21773444532E+02  0.42569480692E+02  0.00000000000E+00 0.  1.
</event>
<event>
 7    1  0.2569312E-015  0.9000768E+02  0.7816164E-02  0.1186339E+00
        -11   -1    0    0    0    0  0.00000000000E+00  0.00000000000E+00  0.45593999997E+02  0.45594000000E+02  0.51100000000E-03 0. -1.
         11   -1    0    0    0    0 -0.00000000000E+00 -0.00000000000E+00 -0.45593999997E+02  0.45594000000E+02  0.51100000000E-03 0.  1.
    9900012    2    1    2    0    0 -0.10861717824E+01 -0.19207654737E+00  0.42011421436E+00  0.90007678648E+02  0.89999939206E+02 0.  0.
         12    1    1    2    0    0  0.10861717824E+01  0.19207654737E+00 -0.42011421436E+00  0.11803213520E+01  0.00000000000E+00 0. -1.
         11    1    3    3    0    0  0.32738642852E+02 -0.19298921109E+01  0.23675070506E+02  0.40448141899E+02  0.51100000000E-03 0. -1.
        -11    1    3    3    0    0 -0.72930981555E+01  0.66508082358E+01  0.45022759721E+01  0.10848641394E+02  0.51100000000E-03 0.  1.
        -12    1    3    3    0    0 -0.26531716479E+02 -0.49129926723E+01 -0.27757232264E+02  0.38710895356E+02  0.00000000000E+00 0.  1.
</event>
<event>
 7    1  0.2569312E-015  0.9000778E+02  0.7816164E-02  0.1186339E+00
        -11   -1    0    0    0    0  0.00000000000E+00  0.00000000000E+00  0.45593999997E+02  0.45594000000E+02  0.51100000000E-03 0.  1.
         11   -1    0    0    0    0 -0.00000000000E+00 -0.00000000000E+00 -0.45593999997E+02  0.45594000000E+02  0.51100000000E-03 0. -1.
    9900012    2    1    2    0    0  0.10927172732E+01 -0.44585471723E+00 -0.99787785395E-02  0.90007780934E+02  0.90000042842E+02 0.  0.
         12    1    1    2    0    0 -0.10927172732E+01  0.44585471723E+00  0.99787785395E-02  0.11802190661E+01  0.00000000000E+00 0. -1.
         11    1    3    3    0    0 -0.19173602435E+02  0.30307203279E+01  0.18857190732E+02  0.27062999438E+02  0.51100000000E-03 0. -1.
        -11    1    3    3    0    0  0.70770260085E+01  0.15287673244E+02  0.14654036665E+02  0.22327965451E+02  0.51100000000E-03 0.  1.
         12    1    3    3    0    0  0.13189293699E+02 -0.18764248290E+02 -0.33521206175E+02  0.40616816045E+02  0.00000000000E+00 0. -1.
</event>
<event>
 7    1  0.2569312E-015  0.9000767E+02  0.7816164E-02  0.1186339E+00
        -11   -1    0    0    0    0  0.00000000000E+00  0.00000000000E+00  0.45593999997E+02  0.45594000000E+02  0.51100000000E-03 0. -1.
         11   -1    0    0    0    0 -0.00000000000E+00 -0.00000000000E+00 -0.45593999997E+02  0.45594000000E+02  0.51100000000E-03 0.  1.
    9900012    2    1    2    0    0 -0.29150886308E+00 -0.69760532392E+00 -0.90638667836E+00  0.90007674869E+02  0.89999935377E+02 0.  0.
         12    1    1    2    0    0  0.29150886308E+00  0.69760532392E+00  0.90638667836E+00  0.11803251314E+01  0.00000000000E+00 0. -1.
         11    1    3    3    0    0  0.83942266450E+00 -0.79497150225E+01  0.22390467304E+01  0.83015618934E+01  0.51100000000E-03 0. -1.
        -11    1    3    3    0    0 -0.37452052572E+02  0.76795156792E+01 -0.18254073315E+02  0.42365580319E+02  0.51100000000E-03 0.  1.
         12    1    3    3    0    0  0.36321121045E+02 -0.42740598062E+00  0.15108639906E+02  0.39340532656E+02  0.00000000000E+00 0. -1.
</event>
<event>
 7    1  0.2569312E-015  0.9000774E+02  0.7816164E-02  0.1186339E+00
        -11   -1    0    0    0    0  0.00000000000E+00  0.00000000000E+00  0.45593999997E+02  0.45594000000E+02  0.51100000000E-03 0.  1.
         11   -1    0    0    0    0 -0.00000000000E+00 -0.00000000000E+00 -0.45593999997E+02  0.45594000000E+02  0.51100000000E-03 0. -1.
    9900012    2    1    2    0    0  0.94943943718E+00 -0.69118173277E+00  0.11768693157E+00  0.90007738314E+02  0.89999999660E+02 0.  0.
         12    1    1    2    0    0 -0.94943943718E+00  0.69118173277E+00 -0.11768693157E+00  0.11802616856E+01  0.00000000000E+00 0. -1.
         11    1    3    3    0    0 -0.14005114226E+02  0.29444313510E+02 -0.26256030782E+02  0.41862751644E+02  0.51100000000E-03 0. -1.
        -11    1    3    3    0    0 -0.47725380714E+01 -0.78138707700E+01  0.13804400244E+01  0.92595524176E+01  0.51100000000E-03 0.  1.
        -12    1    3    3    0    0  0.19727091735E+02 -0.22321624472E+02  0.24993277689E+02  0.38885434253E+02  0.00000000000E+00 0.  1.
</event>
<event>
 7    1  0.2569312E-015  0.9000775E+02  0.7816164E-02  0.1186339E+00
        -11   -1    0    0    0    0  0.00000000000E+00  0.00000000000E+00  0.45593999997E+02  0.45594000000E+02  0.51100000000E-03 0.  1.
         11   -1    0    0    0    0 -0.00000000000E+00 -0.00000000000E+00 -0.45593999997E+02  0.45594000000E+02  0.51100000000E-03 0. -1.
    9900012    2    1    2    0    0  0.11300708453E+01  0.34033172854E+00  0.10622976608E-01  0.90007746363E+02  0.90000007815E+02 0.  0.
         12    1    1    2    0    0 -0.11300708453E+01 -0.34033172854E+00 -0.10622976608E-01  0.11802536373E+01  0.00000000000E+00 0. -1.
         11    1    3    3    0    0 -0.72171222079E+01  0.39315890217E+01  0.25631046983E+01  0.86089343797E+01  0.51100000000E-03 0. -1.
        -11    1    3    3    0    0 -0.27003401408E+02  0.22453684111E+02  0.84728438694E+01  0.36126731118E+02  0.51100000000E-03 0.  1.
         12    1    3    3    0    0  0.35350594461E+02 -0.26044941404E+02 -0.11025325591E+02  0.45272080865E+02  0.00000000000E+00 0. -1.
</event>
<event>
 7    1  0.2569312E-015  0.9000776E+02  0.7816164E-02  0.1186339E+00
        -11   -1    0    0    0    0  0.00000000000E+00  0.00000000000E+00  0.45593999997E+02  0.45594000000E+02  0.51100000000E-03 0.  1.
         11   -1    0    0    0    0 -0.00000000000E+00 -0.00000000000E+00 -0.45593999997E+02  0.45594000000E+02  0.51100000000E-03 0. -1.
    9900012    2    1    2    0    0 -0.47122980256E+00  0.10057485703E+01  0.39923092175E+00  0.90007757210E+02  0.90000018806E+02 0.  0.
         12    1    1    2    0    0  0.47122980256E+00 -0.10057485703E+01 -0.39923092175E+00  0.11802427895E+01  0.00000000000E+00 0. -1.
         11    1    3    3    0    0 -0.11331285886E+02 -0.47476688149E+01 -0.87749285055E+00  0.12316996102E+02  0.51100000000E-03 0. -1.
        -11    1    3    3    0    0 -0.29774262715E+02  0.17894013318E+02  0.50980731136E+01  0.35109724900E+02  0.51100000000E-03 0.  1.
         12    1    3    3    0    0  0.40634318798E+02 -0.12140595933E+02 -0.38213493413E+01  0.42581036208E+02  0.00000000000E+00 0. -1.
</event>
<event>
 7    1  0.2569312E-015  0.9000792E+02  0.7816164E-02  0.1186339E+00
        -11   -1    0    0    0    0  0.00000000000E+00  0.00000000000E+00  0.45593999997E+02  0.45594000000E+02  0.51100000000E-03 0.  1.
         11   -1    0    0    0    0 -0.00000000000E+00 -0.00000000000E+00 -0.45593999997E+02  0.45594000000E+02  0.51100000000E-03 0. -1.
    9900012    2    1    2    0    0 -0.76052952734E+00 -0.27050789544E+00  0.86082346787E+00  0.90007916644E+02  0.90000180344E+02 0.  0.
         12    1    1    2    0    0  0.76052952734E+00  0.27050789544E+00 -0.86082346787E+00  0.11800833557E+01  0.00000000000E+00 0. -1.
         11    1    3    3    0    0 -0.22618332907E+02 -0.71883578313E+01 -0.23059968320E+02  0.33091140974E+02  0.51100000000E-03 0. -1.
        -11    1    3    3    0    0 -0.11468587590E+02 -0.20725469457E+01 -0.42063878124E+01  0.12390224003E+02  0.51100000000E-03 0.  1.
        -12    1    3    3    0    0  0.33326390969E+02  0.89903968816E+01  0.28127179600E+02  0.44526551667E+02  0.00000000000E+00 0.  1.
</event>
<event>
 7    1  0.2569312E-015  0.9000777E+02  0.7816164E-02  0.1186339E+00
        -11   -1    0    0    0    0  0.00000000000E+00  0.00000000000E+00  0.45593999997E+02  0.45594000000E+02  0.51100000000E-03 0.  1.
         11   -1    0    0    0    0 -0.00000000000E+00 -0.00000000000E+00 -0.45593999997E+02  0.45594000000E+02  0.51100000000E-03 0. -1.
    9900012    2    1    2    0    0 -0.57491940459E+00  0.68945461121E-02  0.10307126596E+01  0.90007767632E+02  0.90000029364E+02 0.  0.
         12    1    1    2    0    0  0.57491940459E+00 -0.68945461120E-02 -0.10307126596E+01  0.11802323683E+01  0.00000000000E+00 0. -1.
         11    1    3    3    0    0 -0.32370508060E+01 -0.38365457588E+01  0.20729995790E+02  0.21329095316E+02  0.51100000000E-03 0. -1.
        -11    1    3    3    0    0  0.11364184739E+02 -0.29055090567E+02 -0.49451803985E+01  0.31587937445E+02  0.51100000000E-03 0.  1.
         12    1    3    3    0    0 -0.87020533371E+01  0.32898530872E+02 -0.14754102732E+02  0.37090734870E+02  0.00000000000E+00 0. -1.
</event>
<event>
 7    1  0.2569312E-015  0.9000764E+02  0.7816164E-02  0.1186339E+00
        -11   -1    0    0    0    0  0.00000000000E+00  0.00000000000E+00  0.45593999997E+02  0.45594000000E+02  0.51100000000E-03 0.  1.
         11   -1    0    0    0    0 -0.00000000000E+00 -0.00000000000E+00 -0.45593999997E+02  0.45594000000E+02  0.51100000000E-03 0. -1.
    9900012    2    1    2    0    0 -0.92441593934E+00 -0.68498647129E+00  0.26362629303E+00  0.90007639836E+02  0.89999899882E+02 0.  0.
         12    1    1    2    0    0  0.92441593934E+00  0.68498647129E+00 -0.26362629303E+00  0.11803601642E+01  0.00000000000E+00 0. -1.
         11    1    3    3    0    0 -0.31270454192E+02 -0.11886951751E+02 -0.21269277200E+02  0.39642440391E+02  0.51100000000E-03 0. -1.
        -11    1    3    3    0    0 -0.16338147939E+00 -0.87095494052E+01  0.16680430955E+01  0.88693467842E+01  0.51100000000E-03 0.  1.
        -12    1    3    3    0    0  0.30509419732E+02  0.19911514685E+02  0.19864860398E+02  0.41495852661E+02  0.00000000000E+00 0.  1.
</event>
<event>
 7    1  0.2569312E-015  0.9000755E+02  0.7816164E-02  0.1186339E+00
        -11   -1    0    0    0    0  0.00000000000E+00  0.00000000000E+00  0.45593999997E+02  0.45594000000E+02  0.51100000000E-03 0. -1.
         11   -1    0    0    0    0 -0.00000000000E+00 -0.00000000000E+00 -0.45593999997E+02  0.45594000000E+02  0.51100000000E-03 0.  1.
    9900012    2    1    2    0    0 -0.51276756800E-01 -0.99368987998E+00 -0.63515743739E+00  0.90007545065E+02  0.89999803860E+02 0.  0.
         12    1    1    2    0    0  0.51276756800E-01  0.99368987998E+00  0.63515743739E+00  0.11804549350E+01  0.00000000000E+00 0. -1.
         11    1    3    3    0    0  0.27592885286E+02 -0.27628064206E+02 -0.25505909094E+01  0.39130330492E+02  0.51100000000E-03 0. -1.
        -11    1    3    3    0    0 -0.41112517596E+01 -0.79257746589E+01 -0.88293263062E+00  0.89721717141E+01  0.51100000000E-03 0.  1.
        -12    1    3    3    0    0 -0.23532910283E+02  0.34560148984E+02  0.27983661026E+01  0.41905042859E+02  0.00000000000E+00 0.  1.
</event>
<event>
 7    1  0.2569312E-015  0.9000684E+02  0.7816164E-02  0.1186341E+00
        -11   -1    0    0    0    0  0.00000000000E+00  0.00000000000E+00  0.45593999997E+02  0.45594000000E+02  0.51100000000E-03 0.  1.
         11   -1    0    0    0    0 -0.00000000000E+00 -0.00000000000E+00 -0.45593999997E+02  0.45594000000E+02  0.51100000000E-03 0. -1.
    9900012    2    1    2    0    0  0.15239119703E+00  0.10380085017E+01 -0.54262673889E+00  0.90006844420E+02  0.89999093962E+02 0.  0.
         12    1    1    2    0    0 -0.15239119703E+00 -0.10380085017E+01  0.54262673889E+00  0.11811555800E+01  0.00000000000E+00 0. -1.
         11    1    3    3    0    0  0.57576101682E+00  0.29324735173E+02 -0.27330076800E+02  0.40089957494E+02  0.51100000000E-03 0. -1.
        -11    1    3    3    0    0  0.57175861407E+01  0.52646699333E+01  0.29928790216E+01  0.83285572510E+01  0.51100000000E-03 0.  1.
        -12    1    3    3    0    0 -0.61409559605E+01 -0.33551396604E+02  0.23794571040E+02  0.41588329675E+02  0.00000000000E+00 0.  1.
</event>
<event>
 7    1  0.2569312E-015  0.9000772E+02  0.7816164E-02  0.1186339E+00
        -11   -1    0    0    0    0  0.00000000000E+00  0.00000000000E+00  0.45593999997E+02  0.45594000000E+02  0.51100000000E-03 0.  1.
         11   -1    0    0    0    0 -0.00000000000E+00 -0.00000000000E+00 -0.45593999997E+02  0.45594000000E+02  0.51100000000E-03 0. -1.
    9900012    2    1    2    0    0  0.20388743413E+00 -0.55785477339E+00  0.10199422208E+01  0.90007722843E+02  0.89999983984E+02 0.  0.
         12    1    1    2    0    0 -0.20388743413E+00  0.55785477339E+00 -0.10199422208E+01  0.11802771572E+01  0.00000000000E+00 0. -1.
         11    1    3    3    0    0  0.64189107889E+01 -0.47963751497E+01  0.49982815131E+01  0.94440694957E+01  0.51100000000E-03 0. -1.
        -11    1    3    3    0    0 -0.15471435470E+02  0.30857807185E+02  0.23056001939E+02  0.41510827569E+02  0.51100000000E-03 0.  1.
         12    1    3    3    0    0  0.92564121155E+01 -0.26619286809E+02 -0.27034341231E+02  0.39052825778E+02  0.00000000000E+00 0. -1.
</event>
<event>
 7    1  0.4289321E-015  0.9000837E+02  0.7816164E-02  0.1186338E+00
        -11   -1    0    0    0    0  0.00000000000E+00  0.00000000000E+00  0.45593999997E+02  0.45594000000E+02  0.51100000000E-03 0. -1.
         11   -1    0    0    0    0 -0.00000000000E+00 -0.00000000000E+00 -0.45593999997E+02  0.45594000000E+02  0.51100000000E-03 0.  1.
    9900012    2    1    2    0    0  0.21485157810E+00 -0.95019547020E+00 -0.66519959441E+00  0.90008371612E+02  0.90000641315E+02 0.  0.
         12    1    1    2    0    0 -0.21485157810E+00  0.95019547020E+00  0.66519959441E+00  0.11796283875E+01  0.00000000000E+00 0. -1.
         11    1    3    3    0    0 -0.19957301643E+02  0.50642819903E+01  0.34694090938E+02  0.40343782511E+02  0.51100000000E-03 0. -1.
        -11    1    3    3    0    0 -0.51585661713E+01  0.50074628740E+01 -0.61454304125E+01  0.94578964149E+01  0.51100000000E-03 0.  1.
        -12    1    3    3    0    0  0.25330719393E+02 -0.11021940334E+02 -0.29213860120E+02  0.40206692687E+02  0.00000000000E+00 0.  1.
</event>
<event>
 7    1  0.2880493E-015  0.9000751E+02  0.7816164E-02  0.1186340E+00
        -11   -1    0    0    0    0  0.00000000000E+00  0.00000000000E+00  0.45593999997E+02  0.45594000000E+02  0.51100000000E-03 0. -1.
         11   -1    0    0    0    0 -0.00000000000E+00 -0.00000000000E+00 -0.45593999997E+02  0.45594000000E+02  0.51100000000E-03 0.  1.
    9900012    2    1    2    0    0 -0.69106802967E+00 -0.76246925756E+00 -0.57846931335E+00  0.90007508095E+02  0.89999766402E+02 0.  0.
         12    1    1    2    0    0  0.69106802967E+00  0.76246925756E+00  0.57846931335E+00  0.11804919046E+01  0.00000000000E+00 0. -1.
         11    1    3    3    0    0 -0.27444898342E+02  0.10788306543E+02  0.21329235217E+02  0.36394316565E+02  0.51100000000E-03 0. -1.
        -11    1    3    3    0    0  0.68567255245E+00  0.44837259166E+01  0.90239168122E+01  0.10099753454E+02  0.51100000000E-03 0.  1.
        -12    1    3    3    0    0  0.26068157760E+02 -0.16034501717E+02 -0.30931621342E+02  0.43513438076E+02  0.00000000000E+00 0.  1.
</event>
<event>
 7    1  0.2569312E-015  0.9000782E+02  0.7816164E-02  0.1186339E+00
        -11   -1    0    0    0    0  0.00000000000E+00  0.00000000000E+00  0.45593999997E+02  0.45594000000E+02  0.51100000000E-03 0.  1.
         11   -1    0    0    0    0 -0.00000000000E+00 -0.00000000000E+00 -0.45593999997E+02  0.45594000000E+02  0.51100000000E-03 0. -1.
    9900012    2    1    2    0    0  0.69850644724E+00 -0.13782550189E+00  0.94122899772E+00  0.90007822407E+02  0.90000084862E+02 0.  0.
         12    1    1    2    0    0 -0.69850644724E+00  0.13782550189E+00 -0.94122899772E+00  0.11801775934E+01  0.00000000000E+00 0. -1.
         11    1    3    3    0    0 -0.53402661603E+01 -0.65103268390E+01 -0.35792648597E+01  0.91495319777E+01  0.51100000000E-03 0. -1.
        -11    1    3    3    0    0  0.41838420042E+02  0.12264496542E+02  0.82955305055E+01  0.44381156967E+02  0.51100000000E-03 0.  1.
         12    1    3    3    0    0 -0.35799647435E+02 -0.58919952048E+01 -0.37750366482E+01  0.36477133462E+02  0.00000000000E+00 0. -1.
</event>
<event>
 7    1  0.2569312E-015  0.9000799E+02  0.7816164E-02  0.1186339E+00
        -11   -1    0    0    0    0  0.00000000000E+00  0.00000000000E+00  0.45593999997E+02  0.45594000000E+02  0.51100000000E-03 0.  1.
         11   -1    0    0    0    0 -0.00000000000E+00 -0.00000000000E+00 -0.45593999997E+02  0.45594000000E+02  0.51100000000E-03 0. -1.
    9900012    2    1    2    0    0 -0.58483165254E+00 -0.56471634114E+00 -0.85527610742E+00  0.90007987361E+02  0.90000251994E+02 0.  0.
         12    1    1    2    0    0  0.58483165254E+00  0.56471634114E+00  0.85527610742E+00  0.11800126388E+01  0.00000000000E+00 0. -1.
         11    1    3    3    0    0 -0.78024334608E+01  0.11756705576E+02 -0.16277245196E+02  0.21541745643E+02  0.51100000000E-03 0. -1.
        -11    1    3    3    0    0 -0.31193299823E+01  0.17902451468E+02  0.28622095168E+02  0.33903573856E+02  0.51100000000E-03 0.  1.
         12    1    3    3    0    0  0.10336931791E+02 -0.30223873385E+02 -0.13200126080E+02  0.34562667863E+02  0.00000000000E+00 0. -1.
</event>
<event>
 7    1  0.2569312E-015  0.9000770E+02  0.7816164E-02  0.1186339E+00
        -11   -1    0    0    0    0  0.00000000000E+00  0.00000000000E+00  0.45593999997E+02  0.45594000000E+02  0.51100000000E-03 0. -1.
         11   -1    0    0    0    0 -0.00000000000E+00 -0.00000000000E+00 -0.45593999997E+02  0.45594000000E+02  0.51100000000E-03 0.  1.
    9900012    2    1    2    0    0  0.81477576813E+00 -0.52762816492E+00 -0.67146328242E+00  0.90007697508E+02  0.89999958315E+02 0.  0.
         12    1    1    2    0    0 -0.81477576813E+00  0.52762816492E+00  0.67146328242E+00  0.11803024919E+01  0.00000000000E+00 0. -1.
         11    1    3    3    0    0 -0.13966862545E+02  0.34125987169E+02 -0.34503180624E+01  0.37034591190E+02  0.51100000000E-03 0. -1.
        -11    1    3    3    0    0 -0.56672344147E+01  0.12675920187E+01  0.94624476735E+01  0.11102353429E+02  0.51100000000E-03 0.  1.
        -12    1    3    3    0    0  0.20448872728E+02 -0.35921207353E+02 -0.66835928935E+01  0.41870752889E+02  0.00000000000E+00 0.  1.
</event>
<event>
 7    1  0.2569312E-015  0.9000773E+02  0.7816164E-02  0.1186339E+00
        -11   -1    0    0    0    0  0.00000000000E+00  0.00000000000E+00  0.45593999997E+02  0.45594000000E+02  0.51100000000E-03 0.  1.
         11   -1    0    0    0    0 -0.00000000000E+00 -0.00000000000E+00 -0.45593999997E+02  0.45594000000E+02  0.51100000000E-03 0. -1.
    9900012    2    1    2    0    0  0.64204847936E+00  0.85177122353E+00 -0.50528013291E+00  0.90007725252E+02  0.89999986426E+02 0.  0.
         12    1    1    2    0    0 -0.64204847936E+00 -0.85177122353E+00  0.50528013291E+00  0.11802747476E+01  0.00000000000E+00 0. -1.
         11    1    3    3    0    0 -0.10816079340E+02  0.60287734609E+01 -0.14290117075E+01  0.12464981205E+02  0.51100000000E-03 0. -1.
        -11    1    3    3    0    0 -0.29737313766E+02  0.93559334496E+01  0.10361311099E+02  0.32851150493E+02  0.51100000000E-03 0.  1.
         12    1    3    3    0    0  0.41195441586E+02 -0.14532935687E+02 -0.94375795244E+01  0.44691593554E+02  0.00000000000E+00 0. -1.
</event>
<event>
 7    1  0.2569312E-015  0.9000734E+02  0.7816164E-02  0.1186340E+00
        -11   -1    0    0    0    0  0.00000000000E+00  0.00000000000E+00  0.45593999997E+02  0.45594000000E+02  0.51100000000E-03 0.  1.
         11   -1    0    0    0    0 -0.00000000000E+00 -0.00000000000E+00 -0.45593999997E+02  0.45594000000E+02  0.51100000000E-03 0. -1.
    9900012    2    1    2    0    0 -0.85879308853E+00  0.12216116429E+00  0.80094707341E+00  0.90007336994E+02  0.89999593042E+02 0.  0.
         12    1    1    2    0    0  0.85879308853E+00 -0.12216116429E+00 -0.80094707341E+00  0.11806630058E+01  0.00000000000E+00 0. -1.
         11    1    3    3    0    0 -0.21778209109E+02 -0.27749867901E+02 -0.92184882931E+01  0.36459924399E+02  0.51100000000E-03 0. -1.
        -11    1    3    3    0    0 -0.65252350703E+01 -0.57623100465E+01 -0.99301997937E+00  0.87617919820E+01  0.51100000000E-03 0.  1.
        -12    1    3    3    0    0  0.27444651091E+02  0.33634339111E+02  0.11012455346E+02  0.44785620613E+02  0.00000000000E+00 0.  1.
</event>
<event>
 7    1  0.2569312E-015  0.9000774E+02  0.7816164E-02  0.1186339E+00
        -11   -1    0    0    0    0  0.00000000000E+00  0.00000000000E+00  0.45593999997E+02  0.45594000000E+02  0.51100000000E-03 0.  1.
         11   -1    0    0    0    0 -0.00000000000E+00 -0.00000000000E+00 -0.45593999997E+02  0.45594000000E+02  0.51100000000E-03 0. -1.
    9900012    2    1    2    0    0 -0.11119920144E+01  0.25348122650E+00  0.30371070881E+00  0.90007737670E+02  0.89999999008E+02 0.  0.
         12    1    1    2    0    0  0.11119920144E+01 -0.25348122650E+00 -0.30371070881E+00  0.11802623297E+01  0.00000000000E+00 0. -1.
         11    1    3    3    0    0  0.80017721755E+01  0.69693427259E+01  0.83348958186E+00  0.10644003059E+02  0.51100000000E-03 0.  1.
        -11    1    3    3    0    0  0.33017361580E+02  0.92761257482E+01 -0.52003084281E+00  0.34299607971E+02  0.51100000000E-03 0. -1.
        -12    1    3    3    0    0 -0.42131125770E+02 -0.15991987248E+02 -0.97480302380E-02  0.45064126640E+02  0.00000000000E+00 0.  1.
</event>
<event>
 7    1  0.2569312E-015  0.9000775E+02  0.7816164E-02  0.1186339E+00
        -11   -1    0    0    0    0  0.00000000000E+00  0.00000000000E+00  0.45593999997E+02  0.45594000000E+02  0.51100000000E-03 0. -1.
         11   -1    0    0    0    0 -0.00000000000E+00 -0.00000000000E+00 -0.45593999997E+02  0.45594000000E+02  0.51100000000E-03 0.  1.
    9900012    2    1    2    0    0 -0.97910837649E+00 -0.57855174383E+00 -0.31561246636E+00  0.90007751483E+02  0.90000013002E+02 0.  0.
         12    1    1    2    0    0  0.97910837649E+00  0.57855174383E+00  0.31561246636E+00  0.11802485171E+01  0.00000000000E+00 0. -1.
         11    1    3    3    0    0 -0.86213771604E+01 -0.53249544619E+01 -0.39186156752E+01  0.10864567789E+02  0.51100000000E-03 0. -1.
        -11    1    3    3    0    0  0.35506227876E+02  0.84568688819E+01 -0.20720310519E+02  0.41970729294E+02  0.51100000000E-03 0.  1.
         12    1    3    3    0    0 -0.27863959092E+02 -0.37104661639E+01  0.24323313727E+02  0.37172454400E+02  0.00000000000E+00 0. -1.
</event>
<event>
 7    1  0.2569312E-015  0.9000785E+02  0.7816164E-02  0.1186339E+00
        -11   -1    0    0    0    0  0.00000000000E+00  0.00000000000E+00  0.45593999997E+02  0.45594000000E+02  0.51100000000E-03 0. -1.
         11   -1    0    0    0    0 -0.00000000000E+00 -0.00000000000E+00 -0.45593999997E+02  0.45594000000E+02  0.51100000000E-03 0.  1.
    9900012    2    1    2    0    0 -0.72156837561E+00  0.91218991606E+00 -0.20001865355E+00  0.90007847965E+02  0.90000110758E+02 0.  0.
         12    1    1    2    0    0  0.72156837561E+00 -0.91218991606E+00  0.20001865355E+00  0.11801520349E+01  0.00000000000E+00 0. -1.
         11    1    3    3    0    0  0.24666732674E+02 -0.11470548674E+02  0.33146550900E+02  0.42880240490E+02  0.51100000000E-03 0. -1.
        -11    1    3    3    0    0  0.67009835903E+00  0.63833883903E+01 -0.82729762230E+01  0.10470855505E+02  0.51100000000E-03 0.  1.
        -12    1    3    3    0    0 -0.26058399408E+02  0.59993502001E+01 -0.25073593330E+02  0.36656751970E+02  0.00000000000E+00 0.  1.
</event>
<event>
 7    1  0.2569312E-015  0.9000765E+02  0.7816164E-02  0.1186339E+00
        -11   -1    0    0    0    0  0.00000000000E+00  0.00000000000E+00  0.45593999997E+02  0.45594000000E+02  0.51100000000E-03 0.  1.
         11   -1    0    0    0    0 -0.00000000000E+00 -0.00000000000E+00 -0.45593999997E+02  0.45594000000E+02  0.51100000000E-03 0. -1.
    9900012    2    1    2    0    0 -0.21014864542E+00 -0.64027600058E+00  0.96907761885E+00  0.90007649526E+02  0.89999909700E+02 0.  0.
         12    1    1    2    0    0  0.21014864542E+00  0.64027600058E+00 -0.96907761885E+00  0.11803504740E+01  0.00000000000E+00 0. -1.
         11    1    3    3    0    0 -0.79199201594E+01 -0.22010784823E+00  0.60719309732E+01  0.99820803844E+01  0.51100000000E-03 0. -1.
        -11    1    3    3    0    0  0.38821109311E+02 -0.19414013752E+02 -0.22549241532E+01  0.43463400020E+02  0.51100000000E-03 0.  1.
         12    1    3    3    0    0 -0.31111337797E+02  0.18993845600E+02 -0.28479292011E+01  0.36562169122E+02  0.00000000000E+00 0. -1.
</event>
<event>
 7    1  0.2569312E-015  0.9000779E+02  0.7816164E-02  0.1186339E+00
        -11   -1    0    0    0    0  0.00000000000E+00  0.00000000000E+00  0.45593999997E+02  0.45594000000E+02  0.51100000000E-03 0. -1.
         11   -1    0    0    0    0 -0.00000000000E+00 -0.00000000000E+00 -0.45593999997E+02  0.45594000000E+02  0.51100000000E-03 0.  1.
    9900012    2    1    2    0    0  0.61791758088E+00 -0.34964988970E+00 -0.94277529337E+00  0.90007787123E+02  0.90000049113E+02 0.  0.
         12    1    1    2    0    0 -0.61791758088E+00  0.34964988970E+00  0.94277529337E+00  0.11802128774E+01  0.00000000000E+00 0. -1.
         11    1    3    3    0    0  0.38606347793E+01 -0.78534829990E+01  0.47717701609E+01  0.99675215999E+01  0.51100000000E-03 0. -1.
        -11    1    3    3    0    0 -0.20083581308E+02  0.13472164434E+02 -0.36888491929E+02  0.44109072646E+02  0.51100000000E-03 0.  1.
         12    1    3    3    0    0  0.16840864109E+02 -0.59683313245E+01  0.31173946474E+02  0.35931192877E+02  0.00000000000E+00 0. -1.
</event>
<event>
 7    1  0.2569312E-015  0.9000781E+02  0.7816164E-02  0.1186339E+00
        -11   -1    0    0    0    0  0.00000000000E+00  0.00000000000E+00  0.45593999997E+02  0.45594000000E+02  0.51100000000E-03 0.  1.
         11   -1    0    0    0    0 -0.00000000000E+00 -0.00000000000E+00 -0.45593999997E+02  0.45594000000E+02  0.51100000000E-03 0. -1.
    9900012    2    1    2    0    0 -0.98914254543E+00  0.36768014614E+00  0.52845742908E+00  0.90007805559E+02  0.90000067792E+02 0.  0.
         12    1    1    2    0    0  0.98914254543E+00 -0.36768014614E+00 -0.52845742908E+00  0.11801944414E+01  0.00000000000E+00 0. -1.
         11    1    3    3    0    0  0.23275758107E+01 -0.18377946946E+01 -0.37828177590E+02  0.37944250138E+02  0.51100000000E-03 0. -1.
        -11    1    3    3    0    0 -0.29616387512E+01 -0.78565134308E+01 -0.34383671489E+01  0.90729530084E+01  0.51100000000E-03 0.  1.
        -12    1    3    3    0    0 -0.35507960493E+00  0.10061988272E+02  0.41795002168E+02  0.42990602412E+02  0.00000000000E+00 0.  1.
</event>
<event>
 7    1  0.2569312E-015  0.9000772E+02  0.7816164E-02  0.1186339E+00
        -11   -1    0    0    0    0  0.00000000000E+00  0.00000000000E+00  0.45593999997E+02  0.45594000000E+02  0.51100000000E-03 0. -1.
         11   -1    0    0    0    0 -0.00000000000E+00 -0.00000000000E+00 -0.45593999997E+02  0.45594000000E+02  0.51100000000E-03 0.  1.
    9900012    2    1    2    0    0  0.92287838931E+00 -0.72233303514E+00 -0.13993833220E+00  0.90007723646E+02  0.89999984798E+02 0.  0.
         12    1    1    2    0    0 -0.92287838931E+00  0.72233303514E+00  0.13993833220E+00  0.11802763540E+01  0.00000000000E+00 0. -1.
         11    1    3    3    0    0 -0.54107167278E+01  0.76884598600E+01  0.32529928406E+01  0.99483784211E+01  0.51100000000E-03 0. -1.
        -11    1    3    3    0    0 -0.28727186812E+02  0.13171762864E+02  0.14981353637E+02  0.34974098360E+02  0.51100000000E-03 0.  1.
         12    1    3    3    0    0  0.35060781929E+02 -0.21582555759E+02 -0.18374284809E+02  0.45085246864E+02  0.00000000000E+00 0. -1.
</event>
<event>
 7    1  0.2569312E-015  0.9000766E+02  0.7816164E-02  0.1186339E+00
        -11   -1    0    0    0    0  0.00000000000E+00  0.00000000000E+00  0.45593999997E+02  0.45594000000E+02  0.51100000000E-03 0. -1.
         11   -1    0    0    0    0 -0.00000000000E+00 -0.00000000000E+00 -0.45593999997E+02  0.45594000000E+02  0.51100000000E-03 0.  1.
    9900012    2    1    2    0    0  0.48312235586E+00  0.10729544112E+01 -0.92577880711E-01  0.90007657235E+02  0.89999917510E+02 0.  0.
         12    1    1    2    0    0 -0.48312235586E+00 -0.10729544112E+01  0.92577880711E-01  0.11803427652E+01  0.00000000000E+00 0. -1.
         11    1    3    3    0    0  0.27400672798E+01 -0.79380119136E+01 -0.48230117513E+01  0.96840820139E+01  0.51100000000E-03 0. -1.
        -11    1    3    3    0    0 -0.24329937850E+01  0.27223247764E+02 -0.30321773800E+02  0.40821987265E+02  0.51100000000E-03 0.  1.
         12    1    3    3    0    0  0.17604886106E+00 -0.18212281439E+02  0.35052207671E+02  0.39501587956E+02  0.00000000000E+00 0. -1.
</event>
<event>
 7    1  0.2569312E-015  0.9000773E+02  0.7816164E-02  0.1186339E+00
        -11   -1    0    0    0    0  0.00000000000E+00  0.00000000000E+00  0.45593999997E+02  0.45594000000E+02  0.51100000000E-03 0.  1.
         11   -1    0    0    0    0 -0.00000000000E+00 -0.00000000000E+00 -0.45593999997E+02  0.45594000000E+02  0.51100000000E-03 0. -1.
    9900012    2    1    2    0    0  0.88826024353E-01 -0.19984035293E+00  0.11598360219E+01  0.90007726376E+02  0.89999987564E+02 0.  0.
         12    1    1    2    0    0 -0.88826024353E-01  0.19984035293E+00 -0.11598360219E+01  0.11802736238E+01  0.00000000000E+00 0. -1.
         11    1    3    3    0    0 -0.29304282104E+02 -0.20963733770E+02 -0.63267762633E+01  0.36582060923E+02  0.51100000000E-03 0. -1.
        -11    1    3    3    0    0  0.17097344319E+02 -0.99541640686E+01  0.36287711330E+01  0.20113988796E+02  0.51100000000E-03 0.  1.
        -12    1    3    3    0    0  0.12295763810E+02  0.30718057486E+02  0.38578411522E+01  0.33311676657E+02  0.00000000000E+00 0.  1.
</event>
<event>
 7    1  0.2569312E-015  0.9000778E+02  0.7816164E-02  0.1186339E+00
        -11   -1    0    0    0    0  0.00000000000E+00  0.00000000000E+00  0.45593999997E+02  0.45594000000E+02  0.51100000000E-03 0. -1.
         11   -1    0    0    0    0 -0.00000000000E+00 -0.00000000000E+00 -0.45593999997E+02  0.45594000000E+02  0.51100000000E-03 0.  1.
    9900012    2    1    2    0    0 -0.49738294368E+00  0.10684581650E+01 -0.62698525041E-01  0.90007778094E+02  0.90000039965E+02 0.  0.
         12    1    1    2    0    0  0.49738294368E+00 -0.10684581650E+01  0.62698525041E-01  0.11802219062E+01  0.00000000000E+00 0. -1.
         11    1    3    3    0    0 -0.64872817185E+01 -0.65105206082E+01  0.27854376958E+01  0.96036642019E+01  0.51100000000E-03 0. -1.
        -11    1    3    3    0    0 -0.16788736048E+01  0.38878182920E+02  0.17098649961E+02  0.42505241494E+02  0.51100000000E-03 0.  1.
         12    1    3    3    0    0  0.76687723795E+01 -0.31299204146E+02 -0.19946786182E+02  0.37898872398E+02  0.00000000000E+00 0. -1.
</event>
<event>
 7    1  0.2569312E-015  0.9000771E+02  0.7816164E-02  0.1186339E+00
        -11   -1    0    0    0    0  0.00000000000E+00  0.00000000000E+00  0.45593999997E+02  0.45594000000E+02  0.51100000000E-03 0. -1.
         11   -1    0    0    0    0 -0.00000000000E+00 -0.00000000000E+00 -0.45593999997E+02  0.45594000000E+02  0.51100000000E-03 0.  1.
    9900012    2    1    2    0    0  0.49017940412E+00 -0.36057882849E+00 -0.10113285791E+01  0.90007712563E+02  0.89999973568E+02 0.  0.
         12    1    1    2    0    0 -0.49017940412E+00  0.36057882849E+00  0.10113285791E+01  0.11802874374E+01  0.00000000000E+00 0. -1.
         11    1    3    3    0    0  0.49501401356E+01  0.37019040121E+02  0.74593487172E+00  0.37355985303E+02  0.51100000000E-03 0. -1.
        -11    1    3    3    0    0 -0.56682163807E+01  0.50894816180E+01 -0.63507612952E+01  0.99178460044E+01  0.51100000000E-03 0.  1.
        -12    1    3    3    0    0  0.12082556492E+01 -0.42469100567E+02  0.45934978443E+01  0.42733881256E+02  0.00000000000E+00 0.  1.
</event>
<event>
 7    1  0.2569312E-015  0.9000772E+02  0.7816164E-02  0.1186339E+00
        -11   -1    0    0    0    0  0.00000000000E+00  0.00000000000E+00  0.45593999997E+02  0.45594000000E+02  0.51100000000E-03 0.  1.
         11   -1    0    0    0    0 -0.00000000000E+00 -0.00000000000E+00 -0.45593999997E+02  0.45594000000E+02  0.51100000000E-03 0. -1.
    9900012    2    1    2    0    0 -0.41967990147E+00  0.10426360729E+01  0.36032346759E+00  0.90007722829E+02  0.89999983970E+02 0.  0.
         12    1    1    2    0    0  0.41967990147E+00 -0.10426360729E+01 -0.36032346759E+00  0.11802771715E+01  0.00000000000E+00 0. -1.
         11    1    3    3    0    0 -0.31166219010E+00 -0.41110376459E+01 -0.27925827172E+02  0.28228524356E+02  0.51100000000E-03 0. -1.
        -11    1    3    3    0    0 -0.97639135057E+01 -0.13766211667E+02 -0.88052304677E+01  0.19036141270E+02  0.51100000000E-03 0.  1.
         12    1    3    3    0    0  0.96558957943E+01  0.18919885386E+02  0.37091381107E+02  0.42743057202E+02  0.00000000000E+00 0. -1.
</event>
<event>
 7    1  0.2569312E-015  0.9000730E+02  0.7816164E-02  0.1186340E+00
        -11   -1    0    0    0    0  0.00000000000E+00  0.00000000000E+00  0.45593999997E+02  0.45594000000E+02  0.51100000000E-03 0.  1.
         11   -1    0    0    0    0 -0.00000000000E+00 -0.00000000000E+00 -0.45593999997E+02  0.45594000000E+02  0.51100000000E-03 0. -1.
    9900012    2    1    2    0    0  0.39098989905E+00  0.58019156909E+00  0.95108652241E+00  0.90007296425E+02  0.89999551937E+02 0.  0.
         12    1    1    2    0    0 -0.39098989905E+00 -0.58019156909E+00 -0.95108652241E+00  0.11807035746E+01  0.00000000000E+00 0. -1.
         11    1    3    3    0    0  0.25435228134E+02  0.76978565286E+01 -0.25383455786E+02  0.36749525892E+02  0.51100000000E-03 0. -1.
        -11    1    3    3    0    0 -0.77410524443E+01  0.48694489632E+00 -0.97883979998E+01  0.12488944869E+02  0.51100000000E-03 0.  1.
        -12    1    3    3    0    0 -0.17303185790E+02 -0.76046098558E+01  0.36122940308E+02  0.40768825665E+02  0.00000000000E+00 0.  1.
</event>
<event>
 7    1  0.2569312E-015  0.9000795E+02  0.7816164E-02  0.1186339E+00
        -11   -1    0    0    0    0  0.00000000000E+00  0.00000000000E+00  0.45593999997E+02  0.45594000000E+02  0.51100000000E-03 0. -1.
         11   -1    0    0    0    0 -0.00000000000E+00 -0.00000000000E+00 -0.45593999997E+02  0.45594000000E+02  0.51100000000E-03 0.  1.
    9900012    2    1    2    0    0  0.78209477184E+00 -0.87126515287E+00 -0.14749429107E+00  0.90007945016E+02  0.90000209090E+02 0.  0.
         12    1    1    2    0    0 -0.78209477184E+00  0.87126515287E+00  0.14749429107E+00  0.11800549837E+01  0.00000000000E+00 0. -1.
         11    1    3    3    0    0  0.45240750486E+01 -0.69964869225E+01 -0.82989151538E+00  0.83729806217E+01  0.51100000000E-03 0. -1.
        -11    1    3    3    0    0 -0.13493557272E+02 -0.33268276398E+02 -0.13920644392E+02  0.38505046980E+02  0.51100000000E-03 0.  1.
         12    1    3    3    0    0  0.97515769952E+01  0.39393498168E+02  0.14603041617E+02  0.43129917415E+02  0.00000000000E+00 0. -1.
</event>
<event>
 7    1  0.2569312E-015  0.9000762E+02  0.7816164E-02  0.1186339E+00
        -11   -1    0    0    0    0  0.00000000000E+00  0.00000000000E+00  0.45593999997E+02  0.45594000000E+02  0.51100000000E-03 0. -1.
         11   -1    0    0    0    0 -0.00000000000E+00 -0.00000000000E+00 -0.45593999997E+02  0.45594000000E+02  0.51100000000E-03 0.  1.
    9900012    2    1    2    0    0 -0.73123832696E+00 -0.87878096123E+00 -0.29382819609E+00  0.90007618503E+02  0.89999878268E+02 0.  0.
         12    1    1    2    0    0  0.73123832696E+00  0.87878096123E+00  0.29382819609E+00  0.11803814966E+01  0.00000000000E+00 0. -1.
         11    1    3    3    0    0  0.34418869144E+02 -0.15691248419E+02  0.29096162328E+01  0.37938630669E+02  0.51100000000E-03 0. -1.
        -11    1    3    3    0    0  0.42704618335E+01 -0.41302074874E+01 -0.57385609784E+01  0.82599358668E+01  0.51100000000E-03 0.  1.
        -12    1    3    3    0    0 -0.39420569305E+02  0.18942674946E+02  0.25351165495E+01  0.43809051968E+02  0.00000000000E+00 0.  1.
</event>
<event>
 7    1  0.2569312E-015  0.9000765E+02  0.7816164E-02  0.1186339E+00
        -11   -1    0    0    0    0  0.00000000000E+00  0.00000000000E+00  0.45593999997E+02  0.45594000000E+02  0.51100000000E-03 0. -1.
         11   -1    0    0    0    0 -0.00000000000E+00 -0.00000000000E+00 -0.45593999997E+02  0.45594000000E+02  0.51100000000E-03 0.  1.
    9900012    2    1    2    0    0  0.46318917101E+00 -0.10240064601E+01  0.36067950919E+00  0.90007651260E+02  0.89999911457E+02 0.  0.
         12    1    1    2    0    0 -0.46318917101E+00  0.10240064601E+01 -0.36067950919E+00  0.11803487395E+01  0.00000000000E+00 0. -1.
         11    1    3    3    0    0  0.19127037266E+02  0.10647840273E+02  0.34240771074E+02  0.40640502716E+02  0.51100000000E-03 0. -1.
        -11    1    3    3    0    0  0.27881061832E+01 -0.78125483335E+01  0.87671791485E+00  0.83413477397E+01  0.51100000000E-03 0.  1.
        -12    1    3    3    0    0 -0.21451954278E+02 -0.38592983996E+01 -0.34756809479E+02  0.41025800805E+02  0.00000000000E+00 0.  1.
</event>
<event>
 7    1  0.2569312E-015  0.9000780E+02  0.7816164E-02  0.1186339E+00
        -11   -1    0    0    0    0  0.00000000000E+00  0.00000000000E+00  0.45593999997E+02  0.45594000000E+02  0.51100000000E-03 0.  1.
         11   -1    0    0    0    0 -0.00000000000E+00 -0.00000000000E+00 -0.45593999997E+02  0.45594000000E+02  0.51100000000E-03 0. -1.
    9900012    2    1    2    0    0 -0.84582709596E+00 -0.32440419884E+00  0.75644765891E+00  0.90007798906E+02  0.90000061052E+02 0.  0.
         12    1    1    2    0    0  0.84582709596E+00  0.32440419884E+00 -0.75644765891E+00  0.11802010935E+01  0.00000000000E+00 0. -1.
         11    1    3    3    0    0 -0.65933449319E+01 -0.56859171059E+01  0.11474064884E+01  0.87817078428E+01  0.51100000000E-03 0. -1.
        -11    1    3    3    0    0 -0.35183224562E+02  0.14594707735E+00  0.13506325760E+02  0.37686886671E+02  0.51100000000E-03 0.  1.
         12    1    3    3    0    0  0.40930742398E+02  0.52155658297E+01 -0.13897284590E+02  0.43539204393E+02  0.00000000000E+00 0. -1.
</event>
<event>
 7    1  0.2569312E-015  0.9000776E+02  0.7816164E-02  0.1186339E+00
        -11   -1    0    0    0    0  0.00000000000E+00  0.00000000000E+00  0.45593999997E+02  0.45594000000E+02  0.51100000000E-03 0. -1.
         11   -1    0    0    0    0 -0.00000000000E+00 -0.00000000000E+00 -0.45593999997E+02  0.45594000000E+02  0.51100000000E-03 0.  1.
    9900012    2    1    2    0    0 -0.38587006274E+00 -0.10896527257E+01 -0.23816340123E+00  0.90007762493E+02  0.90000024158E+02 0.  0.
         12    1    1    2    0    0  0.38587006274E+00  0.10896527257E+01  0.23816340123E+00  0.11802375073E+01  0.00000000000E+00 0. -1.
         11    1    3    3    0    0 -0.15386352206E+02 -0.30271075392E+02 -0.21508022901E+02  0.40195433683E+02  0.51100000000E-03 0. -1.
        -11    1    3    3    0    0  0.59435379951E+01  0.16117637106E+01 -0.69834980982E+01  0.93108899739E+01  0.51100000000E-03 0.  1.
        -12    1    3    3    0    0  0.90569441482E+01  0.27569658956E+02  0.28253357598E+02  0.40501438836E+02  0.00000000000E+00 0.  1.
</event>
<event>
 7    1  0.2569312E-015  0.9000774E+02  0.7816164E-02  0.1186339E+00
        -11   -1    0    0    0    0  0.00000000000E+00  0.00000000000E+00  0.45593999997E+02  0.45594000000E+02  0.51100000000E-03 0. -1.
         11   -1    0    0    0    0 -0.00000000000E+00 -0.00000000000E+00 -0.45593999997E+02  0.45594000000E+02  0.51100000000E-03 0.  1.
    9900012    2    1    2    0    0 -0.21560342234E+00  0.93528436140E+00 -0.68685059936E+00  0.90007743495E+02  0.90000004909E+02 0.  0.
         12    1    1    2    0    0  0.21560342234E+00 -0.93528436140E+00  0.68685059936E+00  0.11802565053E+01  0.00000000000E+00 0. -1.
         11    1    3    3    0    0 -0.94278022773E+01  0.38653454733E+01  0.71708109639E+00  0.10214624661E+02  0.51100000000E-03 0. -1.
        -11    1    3    3    0    0 -0.44717170279E+01 -0.11541724217E+02 -0.37903232964E+02  0.39873082656E+02  0.51100000000E-03 0.  1.
         12    1    3    3    0    0  0.13683915883E+02  0.86116631047E+01  0.36499301269E+02  0.39920036178E+02  0.00000000000E+00 0. -1.
</event>
<event>
 7    1  0.2569312E-015  0.9000768E+02  0.7816164E-02  0.1186339E+00
        -11   -1    0    0    0    0  0.00000000000E+00  0.00000000000E+00  0.45593999997E+02  0.45594000000E+02  0.51100000000E-03 0. -1.
         11   -1    0    0    0    0 -0.00000000000E+00 -0.00000000000E+00 -0.45593999997E+02  0.45594000000E+02  0.51100000000E-03 0.  1.
    9900012    2    1    2    0    0 -0.10752552360E+00  0.60483200348E+00 -0.10078557579E+01  0.90007679400E+02  0.89999939968E+02 0.  0.
         12    1    1    2    0    0  0.10752552360E+00 -0.60483200348E+00  0.10078557579E+01  0.11803206002E+01  0.00000000000E+00 0. -1.
         11    1    3    3    0    0  0.29400197805E+02 -0.41599151011E+01 -0.23811392415E+02  0.38061252392E+02  0.51100000000E-03 0. -1.
        -11    1    3    3    0    0 -0.29973574736E+00 -0.81673428695E+01 -0.50144998503E+01  0.95885629829E+01  0.51100000000E-03 0.  1.
        -12    1    3    3    0    0 -0.29207987581E+02  0.12932089974E+02  0.27818036507E+02  0.42357864025E+02  0.00000000000E+00 0.  1.
</event>
<event>
 7    1  0.2569312E-015  0.9000772E+02  0.7816164E-02  0.1186339E+00
        -11   -1    0    0    0    0  0.00000000000E+00  0.00000000000E+00  0.45593999997E+02  0.45594000000E+02  0.51100000000E-03 0.  1.
         11   -1    0    0    0    0 -0.00000000000E+00 -0.00000000000E+00 -0.45593999997E+02  0.45594000000E+02  0.51100000000E-03 0. -1.
    9900012    2    1    2    0    0 -0.30837320554E+00 -0.10826785874E+01 -0.35464997434E+00  0.90007718863E+02  0.89999979952E+02 0.  0.
         12    1    1    2    0    0  0.30837320554E+00  0.10826785874E+01  0.35464997434E+00  0.11802811368E+01  0.00000000000E+00 0. -1.
         11    1    3    3    0    0  0.22228245041E+02 -0.44150723413E+01 -0.28737422145E+02  0.36598185381E+02  0.51100000000E-03 0. -1.
        -11    1    3    3    0    0  0.67780176886E+00 -0.73038876920E+01 -0.67560563134E+01  0.99724865418E+01  0.51100000000E-03 0.  1.
        -12    1    3    3    0    0 -0.23214420016E+02  0.10636281446E+02  0.35138828484E+02  0.43437046940E+02  0.00000000000E+00 0.  1.
</event>
<event>
 7    1  0.2569312E-015  0.9000760E+02  0.7816164E-02  0.1186339E+00
        -11   -1    0    0    0    0  0.00000000000E+00  0.00000000000E+00  0.45593999997E+02  0.45594000000E+02  0.51100000000E-03 0. -1.
         11   -1    0    0    0    0 -0.00000000000E+00 -0.00000000000E+00 -0.45593999997E+02  0.45594000000E+02  0.51100000000E-03 0.  1.
    9900012    2    1    2    0    0  0.11549614595E+01  0.24082888376E+00  0.37405548346E-01  0.90007604431E+02  0.89999864009E+02 0.  0.
         12    1    1    2    0    0 -0.11549614595E+01 -0.24082888376E+00 -0.37405548346E-01  0.11803955690E+01  0.00000000000E+00 0. -1.
         11    1    3    3    0    0 -0.65394355863E+01  0.54791426773E+01 -0.15938360957E+02  0.18078068827E+02  0.51100000000E-03 0. -1.
        -11    1    3    3    0    0  0.14606232171E+02  0.14311983500E+02 -0.21141185639E+02  0.29413000874E+02  0.51100000000E-03 0.  1.
         12    1    3    3    0    0 -0.69118351254E+01 -0.19550297293E+02  0.37116952143E+02  0.42516534730E+02  0.00000000000E+00 0. -1.
</event>
<event>
 7    1  0.2645350E-015  0.9000810E+02  0.7816164E-02  0.1186338E+00
        -11   -1    0    0    0    0  0.00000000000E+00  0.00000000000E+00  0.45593999997E+02  0.45594000000E+02  0.51100000000E-03 0. -1.
         11   -1    0    0    0    0 -0.00000000000E+00 -0.00000000000E+00 -0.45593999997E+02  0.45594000000E+02  0.51100000000E-03 0.  1.
    9900012    2    1    2    0    0  0.10417243544E+01  0.11444774992E+00 -0.54210667193E+00  0.90008098495E+02  0.90000364594E+02 0.  0.
         12    1    1    2    0    0 -0.10417243544E+01 -0.11444774992E+00  0.54210667193E+00  0.11799015051E+01  0.00000000000E+00 0. -1.
         11    1    3    3    0    0 -0.44462997329E+00 -0.14178086804E+02  0.38561396000E+02  0.41087675804E+02  0.51100000000E-03 0. -1.
        -11    1    3    3    0    0 -0.82597087557E+01 -0.92335217971E+00 -0.35479749726E+01  0.90367856367E+01  0.51100000000E-03 0.  1.
        -12    1    3    3    0    0  0.97460630834E+01  0.15215886734E+02 -0.35555527699E+02  0.39883637054E+02  0.00000000000E+00 0.  1.
</event>
<event>
 7    1  0.2569312E-015  0.9000779E+02  0.7816164E-02  0.1186339E+00
        -11   -1    0    0    0    0  0.00000000000E+00  0.00000000000E+00  0.45593999997E+02  0.45594000000E+02  0.51100000000E-03 0. -1.
         11   -1    0    0    0    0 -0.00000000000E+00 -0.00000000000E+00 -0.45593999997E+02  0.45594000000E+02  0.51100000000E-03 0.  1.
    9900012    2    1    2    0    0 -0.11775086490E+01 -0.71725676011E-01 -0.34968790032E-01  0.90007790693E+02  0.90000052731E+02 0.  0.
         12    1    1    2    0    0  0.11775086490E+01  0.71725676011E-01  0.34968790032E-01  0.11802093066E+01  0.00000000000E+00 0. -1.
         11    1    3    3    0    0  0.20953638525E+02  0.65448118087E+01  0.28170011142E+02  0.35713289642E+02  0.51100000000E-03 0. -1.
        -11    1    3    3    0    0  0.39010735590E+01  0.11513399888E+02 -0.48421839401E+00  0.12165986175E+02  0.51100000000E-03 0.  1.
        -12    1    3    3    0    0 -0.26032220733E+02 -0.18129937373E+02 -0.27720761538E+02  0.42128514876E+02  0.00000000000E+00 0.  1.
</event>
<event>
 7    1  0.2569312E-015  0.9000765E+02  0.7816164E-02  0.1186339E+00
        -11   -1    0    0    0    0  0.00000000000E+00  0.00000000000E+00  0.45593999997E+02  0.45594000000E+02  0.51100000000E-03 0.  1.
         11   -1    0    0    0    0 -0.00000000000E+00 -0.00000000000E+00 -0.45593999997E+02  0.45594000000E+02  0.51100000000E-03 0. -1.
    9900012    2    1    2    0    0  0.15755621731E+00 -0.94893954701E+00  0.68403536940E+00  0.90007654876E+02  0.89999915120E+02 0.  0.
         12    1    1    2    0    0 -0.15755621731E+00  0.94893954701E+00 -0.68403536940E+00  0.11803451241E+01  0.00000000000E+00 0. -1.
         11    1    3    3    0    0 -0.37923540971E+02  0.68759919383E+01 -0.12232133836E+02  0.40436361401E+02  0.51100000000E-03 0. -1.
        -11    1    3    3    0    0  0.48499077917E+01  0.42838899473E+01 -0.65435479309E+01  0.92027897103E+01  0.51100000000E-03 0.  1.
        -12    1    3    3    0    0  0.33231189396E+02 -0.12108821433E+02  0.19459717137E+02  0.40368503765E+02  0.00000000000E+00 0.  1.
</event>
<event>
 7    1  0.2569312E-015  0.9000772E+02  0.7816164E-02  0.1186339E+00
        -11   -1    0    0    0    0  0.00000000000E+00  0.00000000000E+00  0.45593999997E+02  0.45594000000E+02  0.51100000000E-03 0. -1.
         11   -1    0    0    0    0 -0.00000000000E+00 -0.00000000000E+00 -0.45593999997E+02  0.45594000000E+02  0.51100000000E-03 0.  1.
    9900012    2    1    2    0    0  0.99438035571E+00  0.56796227139E+00 -0.28579632006E+00  0.90007723350E+02  0.89999984498E+02 0.  0.
         12    1    1    2    0    0 -0.99438035571E+00 -0.56796227139E+00  0.28579632006E+00  0.11802766498E+01  0.00000000000E+00 0. -1.
         11    1    3    3    0    0 -0.19059644497E+02  0.32082163532E+02  0.14783931468E+02  0.40138508881E+02  0.51100000000E-03 0. -1.
        -11    1    3    3    0    0  0.74169982377E+01  0.45249219165E+01  0.32073733816E+00  0.86942310706E+01  0.51100000000E-03 0.  1.
        -12    1    3    3    0    0  0.12637026615E+02 -0.36039123178E+02 -0.15390465126E+02  0.41174983399E+02  0.00000000000E+00 0.  1.
</event>
<event>
 7    1  0.2569312E-015  0.9000769E+02  0.7816164E-02  0.1186339E+00
        -11   -1    0    0    0    0  0.00000000000E+00  0.00000000000E+00  0.45593999997E+02  0.45594000000E+02  0.51100000000E-03 0.  1.
         11   -1    0    0    0    0 -0.00000000000E+00 -0.00000000000E+00 -0.45593999997E+02  0.45594000000E+02  0.51100000000E-03 0. -1.
    9900012    2    1    2    0    0 -0.94581547796E-01 -0.11673714922E+01  0.14641567813E+00  0.90007686728E+02  0.89999947393E+02 0.  0.
         12    1    1    2    0    0  0.94581547796E-01  0.11673714922E+01 -0.14641567813E+00  0.11803132723E+01  0.00000000000E+00 0. -1.
         11    1    3    3    0    0  0.92395550900E+01 -0.12501430827E+01 -0.30125566314E+01  0.97983536222E+01  0.51100000000E-03 0. -1.
        -11    1    3    3    0    0  0.20993148147E+01 -0.39047253339E+02  0.48791137993E+01  0.39406863206E+02  0.51100000000E-03 0.  1.
         12    1    3    3    0    0 -0.11433451452E+02  0.39130024930E+02 -0.17201414898E+01  0.40802469899E+02  0.00000000000E+00 0. -1.
</event>
<event>
 7    1  0.2569312E-015  0.9000788E+02  0.7816164E-02  0.1186339E+00
        -11   -1    0    0    0    0  0.00000000000E+00  0.00000000000E+00  0.45593999997E+02  0.45594000000E+02  0.51100000000E-03 0.  1.
         11   -1    0    0    0    0 -0.00000000000E+00 -0.00000000000E+00 -0.45593999997E+02  0.45594000000E+02  0.51100000000E-03 0. -1.
    9900012    2    1    2    0    0  0.29231032273E+00  0.10146425702E-02  0.11433483773E+01  0.90007876334E+02  0.90000139502E+02 0.  0.
         12    1    1    2    0    0 -0.29231032273E+00 -0.10146425702E-02 -0.11433483773E+01  0.11801236656E+01  0.00000000000E+00 0. -1.
         11    1    3    3    0    0  0.37708668172E+01  0.28226714787E+02  0.28085556372E+02  0.39997066657E+02  0.51100000000E-03 0. -1.
        -11    1    3    3    0    0 -0.83893891134E+01 -0.31297579147E+01  0.40527221107E+01  0.98286210155E+01  0.51100000000E-03 0.  1.
        -12    1    3    3    0    0  0.49108326189E+01 -0.25095942230E+02 -0.30994930105E+02  0.40182188662E+02  0.00000000000E+00 0.  1.
</event>
<event>
 7    1  0.2569312E-015  0.9000772E+02  0.7816164E-02  0.1186339E+00
        -11   -1    0    0    0    0  0.00000000000E+00  0.00000000000E+00  0.45593999997E+02  0.45594000000E+02  0.51100000000E-03 0.  1.
         11   -1    0    0    0    0 -0.00000000000E+00 -0.00000000000E+00 -0.45593999997E+02  0.45594000000E+02  0.51100000000E-03 0. -1.
    9900012    2    1    2    0    0  0.73591523973E+00 -0.45859527140E-01  0.92162699444E+00  0.90007715859E+02  0.89999976908E+02 0.  0.
         12    1    1    2    0    0 -0.73591523973E+00  0.45859527140E-01 -0.92162699444E+00  0.11802841409E+01  0.00000000000E+00 0. -1.
         11    1    3    3    0    0 -0.52844675210E+00  0.11457777378E+02 -0.21210433035E+01  0.11664422119E+02  0.51100000000E-03 0. -1.
        -11    1    3    3    0    0 -0.69485802323E+01 -0.15727147029E+02 -0.35107228786E+02  0.39091475211E+02  0.51100000000E-03 0.  1.
         12    1    3    3    0    0  0.82129422242E+01  0.42235101236E+01  0.38149899084E+02  0.39251818529E+02  0.00000000000E+00 0. -1.
</event>
<event>
 7    1  0.2569312E-015  0.9000767E+02  0.7816164E-02  0.1186339E+00
        -11   -1    0    0    0    0  0.00000000000E+00  0.00000000000E+00  0.45593999997E+02  0.45594000000E+02  0.51100000000E-03 0. -1.
         11   -1    0    0    0    0 -0.00000000000E+00 -0.00000000000E+00 -0.45593999997E+02  0.45594000000E+02  0.51100000000E-03 0.  1.
    9900012    2    1    2    0    0  0.55657678261E+00  0.52015610859E+00 -0.90158172802E+00  0.90007665427E+02  0.89999925810E+02 0.  0.
         12    1    1    2    0    0 -0.55657678261E+00 -0.52015610859E+00  0.90158172802E+00  0.11803345731E+01  0.00000000000E+00 0. -1.
         11    1    3    3    0    0 -0.97850447131E+01  0.12137582797E+00  0.62652512044E+01  0.11619604341E+02  0.51100000000E-03 0. -1.
        -11    1    3    3    0    0 -0.33389570501E+02 -0.38299949742E+01 -0.75723231774E+01  0.34451013894E+02  0.51100000000E-03 0.  1.
         12    1    3    3    0    0  0.43731191997E+02  0.42287752548E+01  0.40549024497E+00  0.43937047192E+02  0.00000000000E+00 0. -1.
</event>
<event>
 7    1  0.2569312E-015  0.9000775E+02  0.7816164E-02  0.1186339E+00
        -11   -1    0    0    0    0  0.00000000000E+00  0.00000000000E+00  0.45593999997E+02  0.45594000000E+02  0.51100000000E-03 0. -1.
         11   -1    0    0    0    0 -0.00000000000E+00 -0.00000000000E+00 -0.45593999997E+02  0.45594000000E+02  0.51100000000E-03 0.  1.
    9900012    2    1    2    0    0 -0.16905354736E-03  0.98685402176E+00 -0.64739072066E+00  0.90007747640E+02  0.90000009109E+02 0.  0.
         12    1    1    2    0    0  0.16905354736E-03 -0.98685402176E+00  0.64739072066E+00  0.11802523603E+01  0.00000000000E+00 0. -1.
         11    1    3    3    0    0  0.14192725431E+01  0.25281300413E+01 -0.10226198189E+02  0.10629247655E+02  0.51100000000E-03 0. -1.
        -11    1    3    3    0    0 -0.15566594676E+02 -0.28765131597E+02 -0.18681320722E+02  0.37666210451E+02  0.51100000000E-03 0.  1.
         12    1    3    3    0    0  0.14147153079E+02  0.27223855577E+02  0.28260128191E+02  0.41712289533E+02  0.00000000000E+00 0. -1.
</event>
<event>
 7    1  0.2907483E-015  0.9000769E+02  0.7816164E-02  0.1186339E+00
        -11   -1    0    0    0    0  0.00000000000E+00  0.00000000000E+00  0.45593999997E+02  0.45594000000E+02  0.51100000000E-03 0. -1.
         11   -1    0    0    0    0 -0.00000000000E+00 -0.00000000000E+00 -0.45593999997E+02  0.45594000000E+02  0.51100000000E-03 0.  1.
    9900012    2    1    2    0    0  0.99191864728E+00 -0.34721757291E+00 -0.53728890343E+00  0.90007685630E+02  0.89999946281E+02 0.  0.
         12    1    1    2    0    0 -0.99191864728E+00  0.34721757291E+00  0.53728890343E+00  0.11803143698E+01  0.00000000000E+00 0. -1.
         11    1    3    3    0    0  0.15476761150E+02 -0.30181948706E+00  0.38124873464E+02  0.41147626999E+02  0.51100000000E-03 0. -1.
        -11    1    3    3    0    0  0.24589577623E+00 -0.88277468850E+01 -0.30666344480E+01  0.93484665532E+01  0.51100000000E-03 0.  1.
        -12    1    3    3    0    0 -0.14730738279E+02  0.87823487992E+01 -0.35595527920E+02  0.39511592078E+02  0.00000000000E+00 0.  1.
</event>
<event>
 7    1  0.2569312E-015  0.9000772E+02  0.7816164E-02  0.1186339E+00
        -11   -1    0    0    0    0  0.00000000000E+00  0.00000000000E+00  0.45593999997E+02  0.45594000000E+02  0.51100000000E-03 0. -1.
         11   -1    0    0    0    0 -0.00000000000E+00 -0.00000000000E+00 -0.45593999997E+02  0.45594000000E+02  0.51100000000E-03 0.  1.
    9900012    2    1    2    0    0 -0.70547898953E+00  0.94574486524E+00 -0.30421839685E-01  0.90007720608E+02  0.89999981720E+02 0.  0.
         12    1    1    2    0    0  0.70547898953E+00 -0.94574486524E+00  0.30421839685E-01  0.11802793920E+01  0.00000000000E+00 0. -1.
         11    1    3    3    0    0  0.14788901899E+01 -0.97717088680E+01 -0.45999561748E+01  0.10901055337E+02  0.51100000000E-03 0. -1.
        -11    1    3    3    0    0  0.29213287164E+01 -0.31898514124E+02 -0.10356575354E+02  0.33664640472E+02  0.51100000000E-03 0.  1.
         12    1    3    3    0    0 -0.51056978958E+01  0.42615967857E+02  0.14926109689E+02  0.45442024799E+02  0.00000000000E+00 0. -1.
</event>
<event>
 7    1  0.2569312E-015  0.9000776E+02  0.7816164E-02  0.1186339E+00
        -11   -1    0    0    0    0  0.00000000000E+00  0.00000000000E+00  0.45593999997E+02  0.45594000000E+02  0.51100000000E-03 0. -1.
         11   -1    0    0    0    0 -0.00000000000E+00 -0.00000000000E+00 -0.45593999997E+02  0.45594000000E+02  0.51100000000E-03 0.  1.
    9900012    2    1    2    0    0  0.61083674632E+00 -0.83034771355E+00  0.57476779915E+00  0.90007764058E+02  0.90000025743E+02 0.  0.
         12    1    1    2    0    0 -0.61083674632E+00  0.83034771355E+00 -0.57476779915E+00  0.11802359421E+01  0.00000000000E+00 0. -1.
         11    1    3    3    0    0 -0.36819572221E+02 -0.11882700268E+02 -0.69092738087E+01  0.39301622474E+02  0.51100000000E-03 0. -1.
        -11    1    3    3    0    0  0.44648044197E+00 -0.71888472774E+01  0.61105649616E+01  0.94455213924E+01  0.51100000000E-03 0.  1.
        -12    1    3    3    0    0  0.36983928526E+02  0.18241199832E+02  0.13734766462E+01  0.41260620192E+02  0.00000000000E+00 0.  1.
</event>
<event>
 7    1  0.2569312E-015  0.9000813E+02  0.7816164E-02  0.1186338E+00
        -11   -1    0    0    0    0  0.00000000000E+00  0.00000000000E+00  0.45593999997E+02  0.45594000000E+02  0.51100000000E-03 0. -1.
         11   -1    0    0    0    0 -0.00000000000E+00 -0.00000000000E+00 -0.45593999997E+02  0.45594000000E+02  0.51100000000E-03 0.  1.
    9900012    2    1    2    0    0 -0.55458411893E+00 -0.93384617071E+00 -0.46093480072E+00  0.90008130047E+02  0.90000396563E+02 0.  0.
         12    1    1    2    0    0  0.55458411893E+00  0.93384617071E+00  0.46093480072E+00  0.11798699530E+01  0.00000000000E+00 0. -1.
         11    1    3    3    0    0 -0.49335578796E+01 -0.46997636909E+00 -0.70859889932E+01  0.86470868743E+01  0.51100000000E-03 0. -1.
        -11    1    3    3    0    0 -0.35994399530E+02  0.66343753880E+01 -0.86603107443E+01  0.37611337609E+02  0.51100000000E-03 0.  1.
         12    1    3    3    0    0  0.40373373291E+02 -0.70982451896E+01  0.15285364937E+02  0.43749705563E+02  0.00000000000E+00 0. -1.
</event>
<event>
 7    1  0.2569312E-015  0.9000787E+02  0.7816164E-02  0.1186339E+00
        -11   -1    0    0    0    0  0.00000000000E+00  0.00000000000E+00  0.45593999997E+02  0.45594000000E+02  0.51100000000E-03 0.  1.
         11   -1    0    0    0    0 -0.00000000000E+00 -0.00000000000E+00 -0.45593999997E+02  0.45594000000E+02  0.51100000000E-03 0. -1.
    9900012    2    1    2    0    0  0.96680672187E+00  0.33411073480E+00  0.58853032447E+00  0.90007867311E+02  0.90000130360E+02 0.  0.
         12    1    1    2    0    0 -0.96680672187E+00 -0.33411073480E+00 -0.58853032447E+00  0.11801326889E+01  0.00000000000E+00 0. -1.
         11    1    3    3    0    0  0.12209535286E+02 -0.11650280665E+02  0.99772721615E+01  0.19604788995E+02  0.51100000000E-03 0. -1.
        -11    1    3    3    0    0 -0.28852825687E+02  0.20819445096E+02  0.15373361285E+02  0.38759193512E+02  0.51100000000E-03 0.  1.
         12    1    3    3    0    0  0.17610097123E+02 -0.88350536962E+01 -0.24762103122E+02  0.31643884804E+02  0.00000000000E+00 0. -1.
</event>
<event>
 7    1  0.2569312E-015  0.9000742E+02  0.7816164E-02  0.1186340E+00
        -11   -1    0    0    0    0  0.00000000000E+00  0.00000000000E+00  0.45593999997E+02  0.45594000000E+02  0.51100000000E-03 0.  1.
         11   -1    0    0    0    0 -0.00000000000E+00 -0.00000000000E+00 -0.45593999997E+02  0.45594000000E+02  0.51100000000E-03 0. -1.
    9900012    2    1    2    0    0 -0.10693051093E+01 -0.39788579168E+00 -0.30337661275E+00  0.90007422222E+02  0.89999679395E+02 0.  0.
         12    1    1    2    0    0  0.10693051093E+01  0.39788579168E+00  0.30337661275E+00  0.11805777777E+01  0.00000000000E+00 0. -1.
         11    1    3    3    0    0  0.84820069887E+01  0.30749067770E+02 -0.19482746902E+02  0.37376824884E+02  0.51100000000E-03 0. -1.
        -11    1    3    3    0    0 -0.25635093169E+01  0.28766329105E+01 -0.77667980544E+01  0.86700489733E+01  0.51100000000E-03 0.  1.
        -12    1    3    3    0    0 -0.69878027812E+01 -0.34023586473E+02  0.26946168343E+02  0.43960548365E+02  0.00000000000E+00 0.  1.
</event>
<event>
 7    1  0.2569312E-015  0.9000772E+02  0.7816164E-02  0.1186339E+00
        -11   -1    0    0    0    0  0.00000000000E+00  0.00000000000E+00  0.45593999997E+02  0.45594000000E+02  0.51100000000E-03 0.  1.
         11   -1    0    0    0    0 -0.00000000000E+00 -0.00000000000E+00 -0.45593999997E+02  0.45594000000E+02  0.51100000000E-03 0. -1.
    9900012    2    1    2    0    0  0.24314182304E+00 -0.24308117665E+00  0.11290905229E+01  0.90007723840E+02  0.89999984995E+02 0.  0.
         12    1    1    2    0    0 -0.24314182304E+00  0.24308117665E+00 -0.11290905229E+01  0.11802761598E+01  0.00000000000E+00 0. -1.
         11    1    3    3    0    0  0.33744002473E+01 -0.13565541494E+02  0.63082233009E+01  0.15336367709E+02  0.51100000000E-03 0. -1.
        -11    1    3    3    0    0 -0.10646281942E+02  0.45192017122E+01  0.32899063587E+02  0.34872838835E+02  0.51100000000E-03 0.  1.
         12    1    3    3    0    0  0.75150235178E+01  0.88032586047E+01 -0.38078196365E+02  0.39798517295E+02  0.00000000000E+00 0. -1.
</event>
<event>
 7    1  0.2569312E-015  0.9000769E+02  0.7816164E-02  0.1186339E+00
        -11   -1    0    0    0    0  0.00000000000E+00  0.00000000000E+00  0.45593999997E+02  0.45594000000E+02  0.51100000000E-03 0. -1.
         11   -1    0    0    0    0 -0.00000000000E+00 -0.00000000000E+00 -0.45593999997E+02  0.45594000000E+02  0.51100000000E-03 0.  1.
    9900012    2    1    2    0    0 -0.44169096863E+00  0.10380754096E+01 -0.34704157251E+00  0.90007691006E+02  0.89999951727E+02 0.  0.
         12    1    1    2    0    0  0.44169096863E+00 -0.10380754096E+01  0.34704157251E+00  0.11803089938E+01  0.00000000000E+00 0. -1.
         11    1    3    3    0    0  0.11059567831E+02  0.19220044779E+02  0.26373685589E+02  0.34457153883E+02  0.51100000000E-03 0. -1.
        -11    1    3    3    0    0 -0.23918312028E+01 -0.53168432744E+01  0.12220350056E+02  0.13539816641E+02  0.51100000000E-03 0.  1.
        -12    1    3    3    0    0 -0.91094275966E+01 -0.12865126095E+02 -0.38941077217E+02  0.42010720482E+02  0.00000000000E+00 0.  1.
</event>
<event>
 7    1  0.2569312E-015  0.9000777E+02  0.7816164E-02  0.1186339E+00
        -11   -1    0    0    0    0  0.00000000000E+00  0.00000000000E+00  0.45593999997E+02  0.45594000000E+02  0.51100000000E-03 0.  1.
         11   -1    0    0    0    0 -0.00000000000E+00 -0.00000000000E+00 -0.45593999997E+02  0.45594000000E+02  0.51100000000E-03 0. -1.
    9900012    2    1    2    0    0  0.64428735317E+00  0.83167261106E+00  0.53492695890E+00  0.90007774438E+02  0.90000036261E+02 0.  0.
         12    1    1    2    0    0 -0.64428735317E+00 -0.83167261106E+00 -0.53492695890E+00  0.11802255618E+01  0.00000000000E+00 0. -1.
         11    1    3    3    0    0 -0.35196487883E+02 -0.52432477371E+01 -0.10369541425E+02  0.37064967230E+02  0.51100000000E-03 0. -1.
        -11    1    3    3    0    0 -0.68479243936E+01  0.59387921558E+01  0.99515254295E+00  0.91188622983E+01  0.51100000000E-03 0.  1.
        -12    1    3    3    0    0  0.42688699630E+02  0.13612819232E+00  0.99093158413E+01  0.43823944910E+02  0.00000000000E+00 0.  1.
</event>
<event>
 7    1  0.2569312E-015  0.9000776E+02  0.7816164E-02  0.1186339E+00
        -11   -1    0    0    0    0  0.00000000000E+00  0.00000000000E+00  0.45593999997E+02  0.45594000000E+02  0.51100000000E-03 0.  1.
         11   -1    0    0    0    0 -0.00000000000E+00 -0.00000000000E+00 -0.45593999997E+02  0.45594000000E+02  0.51100000000E-03 0. -1.
    9900012    2    1    2    0    0  0.21875725803E+00  0.95970517094E+00  0.65120704018E+00  0.90007763006E+02  0.90000024678E+02 0.  0.
         12    1    1    2    0    0 -0.21875725803E+00 -0.95970517094E+00 -0.65120704018E+00  0.11802369941E+01  0.00000000000E+00 0. -1.
         11    1    3    3    0    0  0.35158664887E+02 -0.17783910710E+02  0.15040062671E+02  0.42173483164E+02  0.51100000000E-03 0. -1.
        -11    1    3    3    0    0 -0.88294444894E+01 -0.51500455384E+01 -0.29539239338E+01  0.10639911931E+02  0.51100000000E-03 0.  1.
        -12    1    3    3    0    0 -0.26110463139E+02  0.23893661419E+02 -0.11434931697E+02  0.37194367911E+02  0.00000000000E+00 0.  1.
</event>
<event>
 7    1  0.2569312E-015  0.9000775E+02  0.7816164E-02  0.1186339E+00
        -11   -1    0    0    0    0  0.00000000000E+00  0.00000000000E+00  0.45593999997E+02  0.45594000000E+02  0.51100000000E-03 0. -1.
         11   -1    0    0    0    0 -0.00000000000E+00 -0.00000000000E+00 -0.45593999997E+02  0.45594000000E+02  0.51100000000E-03 0.  1.
    9900012    2    1    2    0    0 -0.26132833170E+00  0.11300552667E+01  0.21834363226E+00  0.90007749457E+02  0.90000010950E+02 0.  0.
         12    1    1    2    0    0  0.26132833170E+00 -0.11300552667E+01 -0.21834363226E+00  0.11802505431E+01  0.00000000000E+00 0. -1.
         11    1    3    3    0    0  0.18062735971E+02  0.19329063781E+02  0.30937250225E+02  0.40706124713E+02  0.51100000000E-03 0. -1.
        -11    1    3    3    0    0 -0.63313204264E+01 -0.50071700117E+01  0.49192150595E+01  0.94528327464E+01  0.51100000000E-03 0.  1.
        -12    1    3    3    0    0 -0.11992743876E+02 -0.13191838503E+02 -0.35638121652E+02  0.39848791998E+02  0.00000000000E+00 0.  1.
</event>
<event>
 7    1  0.2569312E-015  0.9000779E+02  0.7816164E-02  0.1186339E+00
        -11   -1    0    0    0    0  0.00000000000E+00  0.00000000000E+00  0.45593999997E+02  0.45594000000E+02  0.51100000000E-03 0.  1.
         11   -1    0    0    0    0 -0.00000000000E+00 -0.00000000000E+00 -0.45593999997E+02  0.45594000000E+02  0.51100000000E-03 0. -1.
    9900012    2    1    2    0    0 -0.22177724037E+00  0.97514009998E+00  0.62673926370E+00  0.90007794313E+02  0.90000056398E+02 0.  0.
         12    1    1    2    0    0  0.22177724037E+00 -0.97514009998E+00 -0.62673926370E+00  0.11802056870E+01  0.00000000000E+00 0. -1.
         11    1    3    3    0    0  0.68035132870E+01  0.24432105923E+02 -0.27322529446E+02  0.37279165876E+02  0.51100000000E-03 0. -1.
        -11    1    3    3    0    0  0.83733835085E+01  0.23122708408E+01 -0.33960275403E+01  0.93270119083E+01  0.51100000000E-03 0.  1.
        -12    1    3    3    0    0 -0.15398674036E+02 -0.25769236664E+02  0.31345296250E+02  0.43401616528E+02  0.00000000000E+00 0.  1.
</event>
<event>
 7    1  0.2569312E-015  0.9000778E+02  0.7816164E-02  0.1186339E+00
        -11   -1    0    0    0    0  0.00000000000E+00  0.00000000000E+00  0.45593999997E+02  0.45594000000E+02  0.51100000000E-03 0. -1.
         11   -1    0    0    0    0 -0.00000000000E+00 -0.00000000000E+00 -0.45593999997E+02  0.45594000000E+02  0.51100000000E-03 0.  1.
    9900012    2    1    2    0    0  0.10241162112E+01  0.45505044267E+00 -0.37017492017E+00  0.90007782058E+02  0.90000043981E+02 0.  0.
         12    1    1    2    0    0 -0.10241162112E+01 -0.45505044267E+00  0.37017492017E+00  0.11802179422E+01  0.00000000000E+00 0. -1.
         11    1    3    3    0    0 -0.98051345986E+01 -0.25001234436E+02  0.30293948673E+02  0.40483647493E+02  0.51100000000E-03 0. -1.
        -11    1    3    3    0    0 -0.33528017487E+01 -0.36600458167E+01 -0.98383254620E+01  0.11019521909E+02  0.51100000000E-03 0.  1.
        -12    1    3    3    0    0  0.14182052558E+02  0.29116330696E+02 -0.20825798132E+02  0.38504612656E+02  0.00000000000E+00 0.  1.
</event>
<event>
 7    1  0.2569312E-015  0.9000771E+02  0.7816164E-02  0.1186339E+00
        -11   -1    0    0    0    0  0.00000000000E+00  0.00000000000E+00  0.45593999997E+02  0.45594000000E+02  0.51100000000E-03 0.  1.
         11   -1    0    0    0    0 -0.00000000000E+00 -0.00000000000E+00 -0.45593999997E+02  0.45594000000E+02  0.51100000000E-03 0. -1.
    9900012    2    1    2    0    0 -0.24882648794E+00 -0.11533865351E+01 -0.29467885904E-01  0.90007710427E+02  0.89999971404E+02 0.  0.
         12    1    1    2    0    0  0.24882648794E+00  0.11533865351E+01  0.29467885904E-01  0.11802895732E+01  0.00000000000E+00 0. -1.
         11    1    3    3    0    0 -0.32489089317E+01  0.20694561859E+02 -0.21498560041E+02  0.30016801693E+02  0.51100000000E-03 0. -1.
        -11    1    3    3    0    0  0.60732228257E+01  0.10085103165E+02  0.25082118769E+02  0.27707508433E+02  0.51100000000E-03 0.  1.
        -12    1    3    3    0    0 -0.30731403820E+01 -0.31933051559E+02 -0.36130266144E+01  0.32283400301E+02  0.00000000000E+00 0.  1.
</event>
<event>
 7    1  0.2569312E-015  0.9000771E+02  0.7816164E-02  0.1186339E+00
        -11   -1    0    0    0    0  0.00000000000E+00  0.00000000000E+00  0.45593999997E+02  0.45594000000E+02  0.51100000000E-03 0.  1.
         11   -1    0    0    0    0 -0.00000000000E+00 -0.00000000000E+00 -0.45593999997E+02  0.45594000000E+02  0.51100000000E-03 0. -1.
    9900012    2    1    2    0    0 -0.11446624989E+01 -0.68698761226E-01  0.27949780899E+00  0.90007707332E+02  0.89999968269E+02 0.  0.
         12    1    1    2    0    0  0.11446624989E+01  0.68698761226E-01 -0.27949780899E+00  0.11802926677E+01  0.00000000000E+00 0. -1.
         11    1    3    3    0    0  0.69125986362E+01 -0.24184173373E+01  0.68260166767E+01  0.10011356864E+02  0.51100000000E-03 0. -1.
        -11    1    3    3    0    0 -0.12451948624E+01  0.31955566705E+01  0.36371506141E+02  0.36532842100E+02  0.51100000000E-03 0.  1.
         12    1    3    3    0    0 -0.68120662727E+01 -0.84583809446E+00 -0.42918025009E+02  0.43463508368E+02  0.00000000000E+00 0. -1.
</event>
<event>
 7    1  0.2569312E-015  0.9000757E+02  0.7816164E-02  0.1186339E+00
        -11   -1    0    0    0    0  0.00000000000E+00  0.00000000000E+00  0.45593999997E+02  0.45594000000E+02  0.51100000000E-03 0.  1.
         11   -1    0    0    0    0 -0.00000000000E+00 -0.00000000000E+00 -0.45593999997E+02  0.45594000000E+02  0.51100000000E-03 0. -1.
    9900012    2    1    2    0    0  0.11648905007E+01  0.43190040888E-01  0.18594732034E+00  0.90007571407E+02  0.89999830549E+02 0.  0.
         12    1    1    2    0    0 -0.11648905007E+01 -0.43190040888E-01 -0.18594732034E+00  0.11804285934E+01  0.00000000000E+00 0. -1.
         11    1    3    3    0    0  0.33832582766E+02 -0.15362756414E+02  0.54533698668E+01  0.37555255084E+02  0.51100000000E-03 0. -1.
        -11    1    3    3    0    0  0.64437144526E+01 -0.46836545814E+01  0.10374827549E+01  0.80333334870E+01  0.51100000000E-03 0.  1.
        -12    1    3    3    0    0 -0.39111406718E+02  0.20089601037E+02 -0.63049053013E+01  0.44418982835E+02  0.00000000000E+00 0.  1.
</event>
<event>
 7    1  0.2569312E-015  0.9000764E+02  0.7816164E-02  0.1186339E+00
        -11   -1    0    0    0    0  0.00000000000E+00  0.00000000000E+00  0.45593999997E+02  0.45594000000E+02  0.51100000000E-03 0. -1.
         11   -1    0    0    0    0 -0.00000000000E+00 -0.00000000000E+00 -0.45593999997E+02  0.45594000000E+02  0.51100000000E-03 0.  1.
    9900012    2    1    2    0    0 -0.24406314262E+00  0.41960306868E+00  0.10759264491E+01  0.90007639345E+02  0.89999899384E+02 0.  0.
         12    1    1    2    0    0  0.24406314262E+00 -0.41960306868E+00 -0.10759264491E+01  0.11803606553E+01  0.00000000000E+00 0. -1.
         11    1    3    3    0    0  0.91843301809E+01  0.27941554168E+01  0.11139349830E+00  0.96006059256E+01  0.51100000000E-03 0. -1.
        -11    1    3    3    0    0  0.35260737595E+02 -0.39141051595E+01 -0.24458748330E+01  0.35561526104E+02  0.51100000000E-03 0.  1.
         12    1    3    3    0    0 -0.44689130918E+02  0.15395528114E+01  0.34104077838E+01  0.44845507315E+02  0.00000000000E+00 0. -1.
</event>
<event>
 7    1  0.2569312E-015  0.9000775E+02  0.7816164E-02  0.1186339E+00
        -11   -1    0    0    0    0  0.00000000000E+00  0.00000000000E+00  0.45593999997E+02  0.45594000000E+02  0.51100000000E-03 0.  1.
         11   -1    0    0    0    0 -0.00000000000E+00 -0.00000000000E+00 -0.45593999997E+02  0.45594000000E+02  0.51100000000E-03 0. -1.
    9900012    2    1    2    0    0  0.15268252324E+00  0.97780763322E+00  0.64309470153E+00  0.90007749808E+02  0.90000011306E+02 0.  0.
         12    1    1    2    0    0 -0.15268252324E+00 -0.97780763322E+00 -0.64309470153E+00  0.11802501920E+01  0.00000000000E+00 0. -1.
         11    1    3    3    0    0 -0.27515840001E+01 -0.13090701440E+02 -0.29606464994E+02  0.32488158587E+02  0.51100000000E-03 0. -1.
        -11    1    3    3    0    0 -0.53820698702E+01 -0.13835895739E+02 -0.91644102853E+00  0.14874089935E+02  0.51100000000E-03 0.  1.
        -12    1    3    3    0    0  0.82863363936E+01  0.27904404812E+02  0.31166000724E+02  0.42645501285E+02  0.00000000000E+00 0.  1.
</event>
<event>
 7    1  0.2569312E-015  0.9000757E+02  0.7816164E-02  0.1186339E+00
        -11   -1    0    0    0    0  0.00000000000E+00  0.00000000000E+00  0.45593999997E+02  0.45594000000E+02  0.51100000000E-03 0.  1.
         11   -1    0    0    0    0 -0.00000000000E+00 -0.00000000000E+00 -0.45593999997E+02  0.45594000000E+02  0.51100000000E-03 0. -1.
    9900012    2    1    2    0    0 -0.17446460553E+00 -0.11298039637E+01  0.29413825960E+00  0.90007571175E+02  0.89999830314E+02 0.  0.
         12    1    1    2    0    0  0.17446460553E+00  0.11298039637E+01 -0.29413825960E+00  0.11804288250E+01  0.00000000000E+00 0. -1.
         11    1    3    3    0    0 -0.36238528599E+02 -0.11358926643E+02 -0.15121736534E+02  0.40876926078E+02  0.51100000000E-03 0. -1.
        -11    1    3    3    0    0 -0.28614368631E+01  0.56003909551E+01  0.62647866540E+01  0.88769224314E+01  0.51100000000E-03 0.  1.
        -12    1    3    3    0    0  0.38925500857E+02  0.46287317238E+01  0.91510881395E+01  0.40253722666E+02  0.00000000000E+00 0.  1.
</event>
<event>
 7    1  0.2569312E-015  0.9000764E+02  0.7816164E-02  0.1186339E+00
        -11   -1    0    0    0    0  0.00000000000E+00  0.00000000000E+00  0.45593999997E+02  0.45594000000E+02  0.51100000000E-03 0.  1.
         11   -1    0    0    0    0 -0.00000000000E+00 -0.00000000000E+00 -0.45593999997E+02  0.45594000000E+02  0.51100000000E-03 0. -1.
    9900012    2    1    2    0    0 -0.81887426112E+00  0.77332527566E+00  0.35308960217E+00  0.90007635944E+02  0.89999895938E+02 0.  0.
         12    1    1    2    0    0  0.81887426112E+00 -0.77332527566E+00 -0.35308960217E+00  0.11803640560E+01  0.00000000000E+00 0. -1.
         11    1    3    3    0    0 -0.93107537567E+01  0.23215838518E+02 -0.28024557415E+02  0.37563827177E+02  0.51100000000E-03 0. -1.
        -11    1    3    3    0    0 -0.36179848910E+01  0.68595910160E+01 -0.25382044105E+01  0.81600420016E+01  0.51100000000E-03 0.  1.
        -12    1    3    3    0    0  0.12109864387E+02 -0.29302104258E+02  0.30915851428E+02  0.44283766765E+02  0.00000000000E+00 0.  1.
</event>
<event>
 7    1  0.2569312E-015  0.9000769E+02  0.7816164E-02  0.1186339E+00
        -11   -1    0    0    0    0  0.00000000000E+00  0.00000000000E+00  0.45593999997E+02  0.45594000000E+02  0.51100000000E-03 0.  1.
         11   -1    0    0    0    0 -0.00000000000E+00 -0.00000000000E+00 -0.45593999997E+02  0.45594000000E+02  0.51100000000E-03 0. -1.
    9900012    2    1    2    0    0 -0.69530398288E+00  0.93885360392E+00  0.16807397398E+00  0.90007685390E+02  0.89999946037E+02 0.  0.
         12    1    1    2    0    0  0.69530398288E+00 -0.93885360392E+00 -0.16807397398E+00  0.11803146102E+01  0.00000000000E+00 0. -1.
         11    1    3    3    0    0  0.10275410819E+02 -0.13885324672E+02 -0.33348708529E+02  0.37556925721E+02  0.51100000000E-03 0. -1.
        -11    1    3    3    0    0 -0.57708485460E+01 -0.56490312376E+01 -0.42891839456E+01  0.91439239960E+01  0.51100000000E-03 0.  1.
        -12    1    3    3    0    0 -0.51998662559E+01  0.20473209514E+02  0.37805966449E+02  0.43306835673E+02  0.00000000000E+00 0.  1.
</event>
<event>
 7    1  0.2569312E-015  0.9000767E+02  0.7816164E-02  0.1186339E+00
        -11   -1    0    0    0    0  0.00000000000E+00  0.00000000000E+00  0.45593999997E+02  0.45594000000E+02  0.51100000000E-03 0. -1.
         11   -1    0    0    0    0 -0.00000000000E+00 -0.00000000000E+00 -0.45593999997E+02  0.45594000000E+02  0.51100000000E-03 0.  1.
    9900012    2    1    2    0    0 -0.44977103613E+00  0.22878408671E+00 -0.10670291204E+01  0.90007666451E+02  0.89999926848E+02 0.  0.
         12    1    1    2    0    0  0.44977103613E+00 -0.22878408671E+00  0.10670291204E+01  0.11803335491E+01  0.00000000000E+00 0. -1.
         11    1    3    3    0    0  0.38200108489E+01 -0.12552256676E+02  0.21316987148E+01  0.13292696123E+02  0.51100000000E-03 0. -1.
        -11    1    3    3    0    0 -0.34317828220E+02  0.13731622881E+01  0.17438832935E+02  0.38518979774E+02  0.51100000000E-03 0.  1.
         12    1    3    3    0    0  0.30048046335E+02  0.11407878474E+02 -0.20637560770E+02  0.38195990554E+02  0.00000000000E+00 0. -1.
</event>
<event>
 7    1  0.2569312E-015  0.9000768E+02  0.7816164E-02  0.1186339E+00
        -11   -1    0    0    0    0  0.00000000000E+00  0.00000000000E+00  0.45593999997E+02  0.45594000000E+02  0.51100000000E-03 0.  1.
         11   -1    0    0    0    0 -0.00000000000E+00 -0.00000000000E+00 -0.45593999997E+02  0.45594000000E+02  0.51100000000E-03 0. -1.
    9900012    2    1    2    0    0 -0.10911288110E+01  0.41897154182E+00  0.16447070940E+00  0.90007682310E+02  0.89999942917E+02 0.  0.
         12    1    1    2    0    0  0.10911288110E+01 -0.41897154182E+00 -0.16447070940E+00  0.11803176900E+01  0.00000000000E+00 0. -1.
         11    1    3    3    0    0 -0.66640111791E+01  0.15524185815E+01 -0.71302313015E+01  0.98822693305E+01  0.51100000000E-03 0. -1.
        -11    1    3    3    0    0 -0.97308198910E+01 -0.23433247958E+02  0.33795342830E+02  0.42260278784E+02  0.51100000000E-03 0.  1.
         12    1    3    3    0    0  0.15303702259E+02  0.22299800918E+02 -0.26500640819E+02  0.37865134196E+02  0.00000000000E+00 0. -1.
</event>
<event>
 7    1  0.2569312E-015  0.9000770E+02  0.7816164E-02  0.1186339E+00
        -11   -1    0    0    0    0  0.00000000000E+00  0.00000000000E+00  0.45593999997E+02  0.45594000000E+02  0.51100000000E-03 0. -1.
         11   -1    0    0    0    0 -0.00000000000E+00 -0.00000000000E+00 -0.45593999997E+02  0.45594000000E+02  0.51100000000E-03 0.  1.
    9900012    2    1    2    0    0 -0.11502690714E+01  0.13772328326E+00  0.22587603995E+00  0.90007700621E+02  0.89999961469E+02 0.  0.
         12    1    1    2    0    0  0.11502690714E+01 -0.13772328326E+00 -0.22587603995E+00  0.11802993793E+01  0.00000000000E+00 0. -1.
         11    1    3    3    0    0 -0.37279756126E+01 -0.14558627812E+02 -0.11654550677E+01  0.15073477758E+02  0.51100000000E-03 0. -1.
        -11    1    3    3    0    0 -0.92308906777E+01 -0.28109518169E+02  0.63289886089E+01  0.30255750717E+02  0.51100000000E-03 0.  1.
         12    1    3    3    0    0  0.11808597219E+02  0.42805869264E+02 -0.49376575012E+01  0.44678472146E+02  0.00000000000E+00 0. -1.
</event>
<event>
 7    1  0.2569312E-015  0.9000783E+02  0.7816164E-02  0.1186339E+00
        -11   -1    0    0    0    0  0.00000000000E+00  0.00000000000E+00  0.45593999997E+02  0.45594000000E+02  0.51100000000E-03 0.  1.
         11   -1    0    0    0    0 -0.00000000000E+00 -0.00000000000E+00 -0.45593999997E+02  0.45594000000E+02  0.51100000000E-03 0. -1.
    9900012    2    1    2    0    0 -0.74547500043E+00  0.90122481769E+00  0.15770204821E+00  0.90007826672E+02  0.90000089184E+02 0.  0.
         12    1    1    2    0    0  0.74547500043E+00 -0.90122481769E+00 -0.15770204821E+00  0.11801733281E+01  0.00000000000E+00 0. -1.
         11    1    3    3    0    0 -0.74796376637E+01 -0.46400429157E+01  0.39366993996E+01  0.96422290091E+01  0.51100000000E-03 0. -1.
        -11    1    3    3    0    0  0.13736574619E+02 -0.11169030912E+02  0.34074556054E+02  0.38399428438E+02  0.51100000000E-03 0.  1.
         12    1    3    3    0    0 -0.70024119558E+01  0.16710298645E+02 -0.37853553406E+02  0.41966169225E+02  0.00000000000E+00 0. -1.
</event>
<event>
 7    1  0.2569312E-015  0.9000777E+02  0.7816164E-02  0.1186339E+00
        -11   -1    0    0    0    0  0.00000000000E+00  0.00000000000E+00  0.45593999997E+02  0.45594000000E+02  0.51100000000E-03 0. -1.
         11   -1    0    0    0    0 -0.00000000000E+00 -0.00000000000E+00 -0.45593999997E+02  0.45594000000E+02  0.51100000000E-03 0.  1.
    9900012    2    1    2    0    0 -0.84575324738E-01  0.11733690424E+01  0.94790125778E-01  0.90007774147E+02  0.90000035966E+02 0.  0.
         12    1    1    2    0    0  0.84575324738E-01 -0.11733690424E+01 -0.94790125778E-01  0.11802258526E+01  0.00000000000E+00 0. -1.
         11    1    3    3    0    0  0.12499588540E+01  0.96859436783E+01  0.32910480960E+01  0.10305867256E+02  0.51100000000E-03 0. -1.
        -11    1    3    3    0    0  0.19858304370E+02  0.20789507069E+02 -0.24463161519E+02  0.37749200368E+02  0.51100000000E-03 0.  1.
         12    1    3    3    0    0 -0.21192838549E+02 -0.29302081705E+02  0.21266903549E+02  0.41952706523E+02  0.00000000000E+00 0. -1.
</event>
<event>
 7    1  0.2569312E-015  0.9000816E+02  0.7816164E-02  0.1186338E+00
        -11   -1    0    0    0    0  0.00000000000E+00  0.00000000000E+00  0.45593999997E+02  0.45594000000E+02  0.51100000000E-03 0. -1.
         11   -1    0    0    0    0 -0.00000000000E+00 -0.00000000000E+00 -0.45593999997E+02  0.45594000000E+02  0.51100000000E-03 0.  1.
    9900012    2    1    2    0    0  0.44971875458E+00 -0.12144797704E-01 -0.10906993851E+01  0.90008161196E+02  0.90000428123E+02 0.  0.
         12    1    1    2    0    0 -0.44971875458E+00  0.12144797704E-01  0.10906993851E+01  0.11798388038E+01  0.00000000000E+00 0. -1.
         11    1    3    3    0    0 -0.37538984673E+01  0.28704081074E+02 -0.21764274015E+02  0.36217394270E+02  0.51100000000E-03 0. -1.
        -11    1    3    3    0    0  0.30703657690E+01  0.76590522553E+01 -0.46336571089E+01  0.94635620074E+01  0.51100000000E-03 0.  1.
        -12    1    3    3    0    0  0.11332514528E+01 -0.36375278127E+02  0.25307231739E+02  0.44327204919E+02  0.00000000000E+00 0.  1.
</event>
<event>
 7    1  0.2569312E-015  0.9000769E+02  0.7816164E-02  0.1186339E+00
        -11   -1    0    0    0    0  0.00000000000E+00  0.00000000000E+00  0.45593999997E+02  0.45594000000E+02  0.51100000000E-03 0.  1.
         11   -1    0    0    0    0 -0.00000000000E+00 -0.00000000000E+00 -0.45593999997E+02  0.45594000000E+02  0.51100000000E-03 0. -1.
    9900012    2    1    2    0    0  0.11189802119E+01 -0.37441753583E+00  0.28654046810E-01  0.90007692303E+02  0.89999953041E+02 0.  0.
         12    1    1    2    0    0 -0.11189802119E+01  0.37441753583E+00 -0.28654046810E-01  0.11803076972E+01  0.00000000000E+00 0. -1.
         11    1    3    3    0    0 -0.13820287538E+02 -0.25354247357E+01 -0.35180998049E+02  0.37883127514E+02  0.51100000000E-03 0. -1.
        -11    1    3    3    0    0  0.66106973418E+01 -0.27690446455E+01 -0.62749382920E+01  0.95259528880E+01  0.51100000000E-03 0.  1.
        -12    1    3    3    0    0  0.83285704084E+01  0.49300518453E+01  0.41484590388E+02  0.42598611901E+02  0.00000000000E+00 0.  1.
</event>
<event>
 7    1  0.2569312E-015  0.9000776E+02  0.7816164E-02  0.1186339E+00
        -11   -1    0    0    0    0  0.00000000000E+00  0.00000000000E+00  0.45593999997E+02  0.45594000000E+02  0.51100000000E-03 0.  1.
         11   -1    0    0    0    0 -0.00000000000E+00 -0.00000000000E+00 -0.45593999997E+02  0.45594000000E+02  0.51100000000E-03 0. -1.
    9900012    2    1    2    0    0  0.71713973508E+00  0.91617366027E+00  0.19823631046E+00  0.90007762223E+02  0.90000023884E+02 0.  0.
         12    1    1    2    0    0 -0.71713973508E+00 -0.91617366027E+00 -0.19823631046E+00  0.11802377770E+01  0.00000000000E+00 0. -1.
         11    1    3    3    0    0  0.15699527564E+02  0.18304616793E+02 -0.23131644067E+02  0.33415671760E+02  0.51100000000E-03 0. -1.
        -11    1    3    3    0    0 -0.23860347278E+02  0.14239319922E+01 -0.17988246628E+01  0.23970388503E+02  0.51100000000E-03 0.  1.
        -12    1    3    3    0    0  0.88779594489E+01 -0.18812375125E+02  0.25128705040E+02  0.32621701961E+02  0.00000000000E+00 0.  1.
</event>
<event>
 7    1  0.2569312E-015  0.9000771E+02  0.7816164E-02  0.1186339E+00
        -11   -1    0    0    0    0  0.00000000000E+00  0.00000000000E+00  0.45593999997E+02  0.45594000000E+02  0.51100000000E-03 0.  1.
         11   -1    0    0    0    0 -0.00000000000E+00 -0.00000000000E+00 -0.45593999997E+02  0.45594000000E+02  0.51100000000E-03 0. -1.
    9900012    2    1    2    0    0 -0.11248625515E+01 -0.29771760212E+00  0.19784848125E+00  0.90007705311E+02  0.89999966222E+02 0.  0.
         12    1    1    2    0    0  0.11248625515E+01  0.29771760212E+00 -0.19784848125E+00  0.11802946886E+01  0.00000000000E+00 0. -1.
         11    1    3    3    0    0  0.21657051862E+01  0.10076394984E+02 -0.26321877163E+01  0.10637312972E+02  0.51100000000E-03 0. -1.
        -11    1    3    3    0    0 -0.32989163247E+02  0.27120215758E+01 -0.20917602319E+02  0.39155919601E+02  0.51100000000E-03 0.  1.
         12    1    3    3    0    0  0.29698595510E+02 -0.13086134162E+02  0.23747638516E+02  0.40214472739E+02  0.00000000000E+00 0. -1.
</event>
<event>
 7    1  0.2569312E-015  0.9000794E+02  0.7816164E-02  0.1186339E+00
        -11   -1    0    0    0    0  0.00000000000E+00  0.00000000000E+00  0.45593999997E+02  0.45594000000E+02  0.51100000000E-03 0.  1.
         11   -1    0    0    0    0 -0.00000000000E+00 -0.00000000000E+00 -0.45593999997E+02  0.45594000000E+02  0.51100000000E-03 0. -1.
    9900012    2    1    2    0    0  0.72541118170E+00 -0.57157225389E+00  0.73459601469E+00  0.90007937489E+02  0.90000201464E+02 0.  0.
         12    1    1    2    0    0 -0.72541118170E+00  0.57157225389E+00 -0.73459601469E+00  0.11800625105E+01  0.00000000000E+00 0. -1.
         11    1    3    3    0    0  0.21298054557E+00 -0.25258364303E+01  0.29940160858E+01  0.39229253075E+01  0.51100000000E-03 0.  1.
        -11    1    3    3    0    0 -0.68229010254E+01  0.28614081539E+02  0.31065215850E+02  0.42782768456E+02  0.51100000000E-03 0. -1.
         12    1    3    3    0    0  0.73353316615E+01 -0.26659817362E+02 -0.33324635921E+02  0.43302243726E+02  0.00000000000E+00 0. -1.
</event>
<event>
 7    1  0.2569312E-015  0.9000826E+02  0.7816164E-02  0.1186338E+00
        -11   -1    0    0    0    0  0.00000000000E+00  0.00000000000E+00  0.45593999997E+02  0.45594000000E+02  0.51100000000E-03 0. -1.
         11   -1    0    0    0    0 -0.00000000000E+00 -0.00000000000E+00 -0.45593999997E+02  0.45594000000E+02  0.51100000000E-03 0.  1.
    9900012    2    1    2    0    0 -0.70344553304E+00 -0.24343533838E+00 -0.91525410447E+00  0.90008260004E+02  0.90000528235E+02 0.  0.
         12    1    1    2    0    0  0.70344553304E+00  0.24343533838E+00  0.91525410447E+00  0.11797399958E+01  0.00000000000E+00 0. -1.
         11    1    3    3    0    0 -0.21086697055E+01 -0.10129914916E+02 -0.87641492080E+00  0.10384111301E+02  0.51100000000E-03 0. -1.
        -11    1    3    3    0    0 -0.34365812315E+02 -0.13430414278E+02  0.10296060459E+01  0.36911314968E+02  0.51100000000E-03 0.  1.
         12    1    3    3    0    0  0.35771036488E+02  0.23316893856E+02 -0.10684452296E+01  0.42712833735E+02  0.00000000000E+00 0. -1.
</event>
<event>
 7    1  0.2569312E-015  0.9000780E+02  0.7816164E-02  0.1186339E+00
        -11   -1    0    0    0    0  0.00000000000E+00  0.00000000000E+00  0.45593999997E+02  0.45594000000E+02  0.51100000000E-03 0.  1.
         11   -1    0    0    0    0 -0.00000000000E+00 -0.00000000000E+00 -0.45593999997E+02  0.45594000000E+02  0.51100000000E-03 0. -1.
    9900012    2    1    2    0    0  0.10607359219E+01  0.45378857300E+00  0.24855941650E+00  0.90007802326E+02  0.90000064517E+02 0.  0.
         12    1    1    2    0    0 -0.10607359219E+01 -0.45378857300E+00 -0.24855941650E+00  0.11801976735E+01  0.00000000000E+00 0. -1.
         11    1    3    3    0    0  0.17379325777E+02 -0.24418845680E+02 -0.50530017163E+01  0.30394963652E+02  0.51100000000E-03 0. -1.
        -11    1    3    3    0    0  0.77473783899E+01 -0.10509043040E+02 -0.73607670365E+01  0.14988086908E+02  0.51100000000E-03 0.  1.
        -12    1    3    3    0    0 -0.24065968245E+02  0.35381677293E+02  0.12662328169E+02  0.44624751767E+02  0.00000000000E+00 0.  1.
</event>
<event>
 7    1  0.2569312E-015  0.9000780E+02  0.7816164E-02  0.1186339E+00
        -11   -1    0    0    0    0  0.00000000000E+00  0.00000000000E+00  0.45593999997E+02  0.45594000000E+02  0.51100000000E-03 0.  1.
         11   -1    0    0    0    0 -0.00000000000E+00 -0.00000000000E+00 -0.45593999997E+02  0.45594000000E+02  0.51100000000E-03 0. -1.
    9900012    2    1    2    0    0 -0.13752597448E+00  0.87509907707E+00  0.77983989378E+00  0.90007804233E+02  0.90000066449E+02 0.  0.
         12    1    1    2    0    0  0.13752597448E+00 -0.87509907707E+00 -0.77983989378E+00  0.11801957669E+01  0.00000000000E+00 0. -1.
         11    1    3    3    0    0  0.54723727711E+01 -0.91716346905E+01  0.38394945008E+01  0.11349337643E+02  0.51100000000E-03 0. -1.
        -11    1    3    3    0    0 -0.32683536831E+02 -0.17561258624E+02  0.89534942537E+01  0.38167740879E+02  0.51100000000E-03 0.  1.
         12    1    3    3    0    0  0.27073638085E+02  0.27607992392E+02 -0.12013148861E+02  0.40490725711E+02  0.00000000000E+00 0. -1.
</event>
<event>
 7    1  0.2714070E-015  0.9000796E+02  0.7816164E-02  0.1186339E+00
        -11   -1    0    0    0    0  0.00000000000E+00  0.00000000000E+00  0.45593999997E+02  0.45594000000E+02  0.51100000000E-03 0. -1.
         11   -1    0    0    0    0 -0.00000000000E+00 -0.00000000000E+00 -0.45593999997E+02  0.45594000000E+02  0.51100000000E-03 0.  1.
    9900012    2    1    2    0    0 -0.98261449467E+00  0.34478136177E-01 -0.65252148200E+00  0.90007955818E+02  0.90000220035E+02 0.  0.
         12    1    1    2    0    0  0.98261449467E+00 -0.34478136177E-01  0.65252148200E+00  0.11800441820E+01  0.00000000000E+00 0. -1.
         11    1    3    3    0    0  0.21149731493E+02 -0.14905306794E+02  0.24045821928E+02  0.35322526316E+02  0.51100000000E-03 0. -1.
        -11    1    3    3    0    0  0.30074638148E+01 -0.28294482817E+01  0.84754133265E+01  0.94277912309E+01  0.51100000000E-03 0.  1.
        -12    1    3    3    0    0 -0.25139809803E+02  0.17769233212E+02 -0.33173756737E+02  0.45257638271E+02  0.00000000000E+00 0.  1.
</event>
<event>
 7    1  0.2569312E-015  0.9000773E+02  0.7816164E-02  0.1186339E+00
        -11   -1    0    0    0    0  0.00000000000E+00  0.00000000000E+00  0.45593999997E+02  0.45594000000E+02  0.51100000000E-03 0. -1.
         11   -1    0    0    0    0 -0.00000000000E+00 -0.00000000000E+00 -0.45593999997E+02  0.45594000000E+02  0.51100000000E-03 0.  1.
    9900012    2    1    2    0    0  0.16588267977E+00  0.11181634248E+01 -0.33944391047E+00  0.90007733642E+02  0.89999994926E+02 0.  0.
         12    1    1    2    0    0 -0.16588267977E+00 -0.11181634248E+01  0.33944391047E+00  0.11802663582E+01  0.00000000000E+00 0. -1.
         11    1    3    3    0    0 -0.69829952149E+01  0.63971677744E+01 -0.92593235196E+01  0.13244661189E+02  0.51100000000E-03 0. -1.
        -11    1    3    3    0    0  0.30346826070E+02  0.24138514409E+02  0.48787311178E+01  0.39081961926E+02  0.51100000000E-03 0.  1.
         12    1    3    3    0    0 -0.23197948175E+02 -0.29417518759E+02  0.40411484914E+01  0.37681110527E+02  0.00000000000E+00 0. -1.
</event>
<event>
 7    1  0.2569312E-015  0.9000779E+02  0.7816164E-02  0.1186339E+00
        -11   -1    0    0    0    0  0.00000000000E+00  0.00000000000E+00  0.45593999997E+02  0.45594000000E+02  0.51100000000E-03 0.  1.
         11   -1    0    0    0    0 -0.00000000000E+00 -0.00000000000E+00 -0.45593999997E+02  0.45594000000E+02  0.51100000000E-03 0. -1.
    9900012    2    1    2    0    0 -0.11130892437E+01  0.23137058414E+00 -0.31685964089E+00  0.90007788136E+02  0.90000050139E+02 0.  0.
         12    1    1    2    0    0  0.11130892437E+01 -0.23137058414E+00  0.31685964089E+00  0.11802118639E+01  0.00000000000E+00 0. -1.
         11    1    3    3    0    0  0.23178544865E+02 -0.14296125905E+02 -0.25355943818E+02  0.37209515519E+02  0.51100000000E-03 0. -1.
        -11    1    3    3    0    0  0.92017484270E+01 -0.34820232215E+00  0.17412253013E+01  0.93715145404E+01  0.51100000000E-03 0.  1.
        -12    1    3    3    0    0 -0.33493382536E+02  0.14875698812E+02  0.23297858876E+02  0.43426758077E+02  0.00000000000E+00 0.  1.
</event>
<event>
 7    1  0.2569312E-015  0.9000793E+02  0.7816164E-02  0.1186339E+00
        -11   -1    0    0    0    0  0.00000000000E+00  0.00000000000E+00  0.45593999997E+02  0.45594000000E+02  0.51100000000E-03 0.  1.
         11   -1    0    0    0    0 -0.00000000000E+00 -0.00000000000E+00 -0.45593999997E+02  0.45594000000E+02  0.51100000000E-03 0. -1.
    9900012    2    1    2    0    0  0.99476334411E+00  0.33685514942E+00  0.53809070448E+00  0.90007929193E+02  0.90000193058E+02 0.  0.
         12    1    1    2    0    0 -0.99476334411E+00 -0.33685514942E+00 -0.53809070448E+00  0.11800708067E+01  0.00000000000E+00 0. -1.
         11    1    3    3    0    0 -0.49369337934E+01  0.42444640647E+00 -0.80557425705E+01  0.94577195272E+01  0.51100000000E-03 0. -1.
        -11    1    3    3    0    0 -0.27962650219E+02 -0.50139275101E+01  0.29069596257E+02  0.40645918653E+02  0.51100000000E-03 0.  1.
         12    1    3    3    0    0  0.33894347356E+02  0.49263362531E+01 -0.20475762982E+02  0.39904291013E+02  0.00000000000E+00 0. -1.
</event>
<event>
 7    1  0.2569312E-015  0.9000768E+02  0.7816164E-02  0.1186339E+00
        -11   -1    0    0    0    0  0.00000000000E+00  0.00000000000E+00  0.45593999997E+02  0.45594000000E+02  0.51100000000E-03 0.  1.
         11   -1    0    0    0    0 -0.00000000000E+00 -0.00000000000E+00 -0.45593999997E+02  0.45594000000E+02  0.51100000000E-03 0. -1.
    9900012    2    1    2    0    0  0.58225787828E+00  0.13214638618E+00  0.10181643387E+01  0.90007684142E+02  0.89999944773E+02 0.  0.
         12    1    1    2    0    0 -0.58225787828E+00 -0.13214638618E+00 -0.10181643387E+01  0.11803158581E+01  0.00000000000E+00 0. -1.
         11    1    3    3    0    0  0.16553928784E+02  0.30166300756E+02  0.19043040163E+02  0.39327797274E+02  0.51100000000E-03 0. -1.
        -11    1    3    3    0    0 -0.77698297775E+01  0.10623432500E+01  0.65401179239E+01  0.10211364780E+02  0.51100000000E-03 0.  1.
        -12    1    3    3    0    0 -0.82018411287E+01 -0.31096497620E+02 -0.24564993748E+02  0.40468522088E+02  0.00000000000E+00 0.  1.
</event>
<event>
 7    1  0.2569312E-015  0.9000775E+02  0.7816164E-02  0.1186339E+00
        -11   -1    0    0    0    0  0.00000000000E+00  0.00000000000E+00  0.45593999997E+02  0.45594000000E+02  0.51100000000E-03 0.  1.
         11   -1    0    0    0    0 -0.00000000000E+00 -0.00000000000E+00 -0.45593999997E+02  0.45594000000E+02  0.51100000000E-03 0. -1.
    9900012    2    1    2    0    0  0.84730693786E+00  0.43938226850E+00  0.69426531169E+00  0.90007749964E+02  0.90000011463E+02 0.  0.
         12    1    1    2    0    0 -0.84730693786E+00 -0.43938226850E+00 -0.69426531169E+00  0.11802500361E+01  0.00000000000E+00 0. -1.
         11    1    3    3    0    0 -0.21858597151E+01  0.21703712786E+02 -0.28274307102E+02  0.35710860726E+02  0.51100000000E-03 0. -1.
        -11    1    3    3    0    0 -0.72029791489E+01  0.59457560362E+01 -0.41571124490E+01  0.10223331533E+02  0.51100000000E-03 0.  1.
        -12    1    3    3    0    0  0.10236145802E+02 -0.27210086554E+02  0.33125684863E+02  0.44073557705E+02  0.00000000000E+00 0.  1.
</event>
<event>
 7    1  0.2569312E-015  0.9000781E+02  0.7816164E-02  0.1186339E+00
        -11   -1    0    0    0    0  0.00000000000E+00  0.00000000000E+00  0.45593999997E+02  0.45594000000E+02  0.51100000000E-03 0.  1.
         11   -1    0    0    0    0 -0.00000000000E+00 -0.00000000000E+00 -0.45593999997E+02  0.45594000000E+02  0.51100000000E-03 0. -1.
    9900012    2    1    2    0    0  0.58560553019E+00 -0.23166220768E+00  0.99811676728E+00  0.90007814296E+02  0.90000076644E+02 0.  0.
         12    1    1    2    0    0 -0.58560553019E+00  0.23166220768E+00 -0.99811676728E+00  0.11801857043E+01  0.00000000000E+00 0. -1.
         11    1    3    3    0    0  0.19685915690E+02 -0.24264669095E+02 -0.22076207402E+02  0.38257919133E+02  0.51100000000E-03 0. -1.
        -11    1    3    3    0    0 -0.29352023253E+01  0.29230140538E+01 -0.91074936513E+01  0.10005291836E+02  0.51100000000E-03 0.  1.
        -12    1    3    3    0    0 -0.16165107835E+02  0.21109992833E+02  0.32181817821E+02  0.41744603327E+02  0.00000000000E+00 0.  1.
</event>
<event>
 7    1  0.2569312E-015  0.9000781E+02  0.7816164E-02  0.1186339E+00
        -11   -1    0    0    0    0  0.00000000000E+00  0.00000000000E+00  0.45593999997E+02  0.45594000000E+02  0.51100000000E-03 0.  1.
         11   -1    0    0    0    0 -0.00000000000E+00 -0.00000000000E+00 -0.45593999997E+02  0.45594000000E+02  0.51100000000E-03 0. -1.
    9900012    2    1    2    0    0  0.11782716570E+01 -0.63808365927E-01  0.21523937187E-01  0.90007805573E+02  0.90000067807E+02 0.  0.
         12    1    1    2    0    0 -0.11782716570E+01  0.63808365927E-01 -0.21523937187E-01  0.11801944269E+01  0.00000000000E+00 0. -1.
         11    1    3    3    0    0  0.25435038826E+02  0.25135863651E+02  0.12903701871E+02  0.38016553813E+02  0.51100000000E-03 0. -1.
        -11    1    3    3    0    0  0.83354068112E+01 -0.46235553519E+01  0.34403773927E+01  0.10133729208E+02  0.51100000000E-03 0.  1.
        -12    1    3    3    0    0 -0.32592173980E+02 -0.20576116665E+02 -0.16322555327E+02  0.41857522552E+02  0.00000000000E+00 0.  1.
</event>
<event>
 7    1  0.2569312E-015  0.9000784E+02  0.7816164E-02  0.1186339E+00
        -11   -1    0    0    0    0  0.00000000000E+00  0.00000000000E+00  0.45593999997E+02  0.45594000000E+02  0.51100000000E-03 0.  1.
         11   -1    0    0    0    0 -0.00000000000E+00 -0.00000000000E+00 -0.45593999997E+02  0.45594000000E+02  0.51100000000E-03 0. -1.
    9900012    2    1    2    0    0  0.81555018693E+00 -0.34821892668E-01  0.85232035631E+00  0.90007837019E+02  0.90000099668E+02 0.  0.
         12    1    1    2    0    0 -0.81555018693E+00  0.34821892668E-01 -0.85232035631E+00  0.11801629809E+01  0.00000000000E+00 0. -1.
         11    1    3    3    0    0 -0.18395552388E+01  0.92053237952E-01  0.87605675942E+01  0.89520937277E+01  0.51100000000E-03 0. -1.
        -11    1    3    3    0    0 -0.28851536003E+02  0.17276253779E+02  0.16607883455E+02  0.37506024416E+02  0.51100000000E-03 0.  1.
         12    1    3    3    0    0  0.31506641429E+02 -0.17403128910E+02 -0.24516130693E+02  0.43549718875E+02  0.00000000000E+00 0. -1.
</event>
<event>
 7    1  0.2569312E-015  0.9000773E+02  0.7816164E-02  0.1186339E+00
        -11   -1    0    0    0    0  0.00000000000E+00  0.00000000000E+00  0.45593999997E+02  0.45594000000E+02  0.51100000000E-03 0. -1.
         11   -1    0    0    0    0 -0.00000000000E+00 -0.00000000000E+00 -0.45593999997E+02  0.45594000000E+02  0.51100000000E-03 0.  1.
    9900012    2    1    2    0    0 -0.11332550022E+01  0.17630281176E+00  0.27873428028E+00  0.90007727836E+02  0.89999989044E+02 0.  0.
         12    1    1    2    0    0  0.11332550022E+01 -0.17630281176E+00 -0.27873428028E+00  0.11802721638E+01  0.00000000000E+00 0. -1.
         11    1    3    3    0    0  0.75513240662E+01 -0.16400697734E+01  0.53478528931E-01  0.77275600437E+01  0.51100000000E-03 0. -1.
        -11    1    3    3    0    0 -0.29474286079E+01 -0.53098077596E+01 -0.40289854149E+02  0.40744984249E+02  0.51100000000E-03 0.  1.
         12    1    3    3    0    0 -0.57371504606E+01  0.71261803448E+01  0.40515109901E+02  0.41535183543E+02  0.00000000000E+00 0. -1.
</event>
<event>
 7    1  0.2569312E-015  0.9000842E+02  0.7816164E-02  0.1186338E+00
        -11   -1    0    0    0    0  0.00000000000E+00  0.00000000000E+00  0.45593999997E+02  0.45594000000E+02  0.51100000000E-03 0. -1.
         11   -1    0    0    0    0 -0.00000000000E+00 -0.00000000000E+00 -0.45593999997E+02  0.45594000000E+02  0.51100000000E-03 0.  1.
    9900012    2    1    2    0    0 -0.10337020102E+01 -0.47682163706E-01 -0.56621141666E+00  0.90008420073E+02  0.90000690416E+02 0.  0.
         12    1    1    2    0    0  0.10337020102E+01  0.47682163706E-01  0.56621141666E+00  0.11795799265E+01  0.00000000000E+00 0. -1.
         11    1    3    3    0    0 -0.91946039132E+01 -0.93839998102E+00  0.37982006829E+02  0.39090333571E+02  0.51100000000E-03 0. -1.
        -11    1    3    3    0    0 -0.19317618298E+01 -0.34520119810E+01  0.47879980927E+01  0.62107178716E+01  0.51100000000E-03 0.  1.
        -12    1    3    3    0    0  0.10092663733E+02  0.43427297983E+01 -0.43336216339E+02  0.44707368631E+02  0.00000000000E+00 0.  1.
</event>
<event>
 7    1  0.2569312E-015  0.9000773E+02  0.7816164E-02  0.1186339E+00
        -11   -1    0    0    0    0  0.00000000000E+00  0.00000000000E+00  0.45593999997E+02  0.45594000000E+02  0.51100000000E-03 0.  1.
         11   -1    0    0    0    0 -0.00000000000E+00 -0.00000000000E+00 -0.45593999997E+02  0.45594000000E+02  0.51100000000E-03 0. -1.
    9900012    2    1    2    0    0  0.44438634946E+00  0.85754218010E+00  0.67836116687E+00  0.90007732365E+02  0.89999993632E+02 0.  0.
         12    1    1    2    0    0 -0.44438634946E+00 -0.85754218010E+00 -0.67836116687E+00  0.11802676353E+01  0.00000000000E+00 0. -1.
         11    1    3    3    0    0  0.21550327694E+02  0.13136027504E+02  0.19684968239E+02  0.32007340051E+02  0.51100000000E-03 0. -1.
        -11    1    3    3    0    0  0.98902672420E+01 -0.19272655518E-01  0.98160230470E+01  0.13934563727E+02  0.51100000000E-03 0.  1.
        -12    1    3    3    0    0 -0.30996208587E+02 -0.12259212668E+02 -0.28822630119E+02  0.44065828586E+02  0.00000000000E+00 0.  1.
</event>
<event>
 7    1  0.2569312E-015  0.9000768E+02  0.7816164E-02  0.1186339E+00
        -11   -1    0    0    0    0  0.00000000000E+00  0.00000000000E+00  0.45593999997E+02  0.45594000000E+02  0.51100000000E-03 0.  1.
         11   -1    0    0    0    0 -0.00000000000E+00 -0.00000000000E+00 -0.45593999997E+02  0.45594000000E+02  0.51100000000E-03 0. -1.
    9900012    2    1    2    0    0 -0.11513621471E+01 -0.61991517799E-01 -0.25235056913E+00  0.90007678624E+02  0.89999939181E+02 0.  0.
         12    1    1    2    0    0  0.11513621471E+01  0.61991517799E-01  0.25235056913E+00  0.11803213765E+01  0.00000000000E+00 0. -1.
         11    1    3    3    0    0 -0.88341823495E+01 -0.30581927226E+01  0.35340090440E+01  0.99942253675E+01  0.51100000000E-03 0. -1.
        -11    1    3    3    0    0  0.20301402038E+02 -0.14375873924E+02  0.30623652395E+02  0.39454033533E+02  0.51100000000E-03 0.  1.
         12    1    3    3    0    0 -0.12618581836E+02  0.17372075129E+02 -0.34410012008E+02  0.40559419723E+02  0.00000000000E+00 0. -1.
</event>
<event>
 7    1  0.2569312E-015  0.9000754E+02  0.7816164E-02  0.1186339E+00
        -11   -1    0    0    0    0  0.00000000000E+00  0.00000000000E+00  0.45593999997E+02  0.45594000000E+02  0.51100000000E-03 0. -1.
         11   -1    0    0    0    0 -0.00000000000E+00 -0.00000000000E+00 -0.45593999997E+02  0.45594000000E+02  0.51100000000E-03 0.  1.
    9900012    2    1    2    0    0 -0.17098830729E-02  0.47325859581E+00 -0.10814347920E+01  0.90007543380E+02  0.89999802152E+02 0.  0.
         12    1    1    2    0    0  0.17098830729E-02 -0.47325859581E+00  0.10814347920E+01  0.11804566199E+01  0.00000000000E+00 0. -1.
         11    1    3    3    0    0  0.72546680396E+01 -0.11268719313E+02  0.68740314628E+01  0.15062089899E+02  0.51100000000E-03 0. -1.
        -11    1    3    3    0    0  0.31001273689E+02 -0.49940029012E+01 -0.10499792157E+02  0.33109887812E+02  0.51100000000E-03 0.  1.
         12    1    3    3    0    0 -0.38257651612E+02  0.16735980810E+02  0.25443259027E+01  0.41835565669E+02  0.00000000000E+00 0. -1.
</event>
<event>
 7    1  0.2569312E-015  0.9000785E+02  0.7816164E-02  0.1186339E+00
        -11   -1    0    0    0    0  0.00000000000E+00  0.00000000000E+00  0.45593999997E+02  0.45594000000E+02  0.51100000000E-03 0.  1.
         11   -1    0    0    0    0 -0.00000000000E+00 -0.00000000000E+00 -0.45593999997E+02  0.45594000000E+02  0.51100000000E-03 0. -1.
    9900012    2    1    2    0    0 -0.44430591692E+00 -0.52320226627E+00  0.95999783601E+00  0.90007854160E+02  0.90000117035E+02 0.  0.
         12    1    1    2    0    0  0.44430591692E+00  0.52320226627E+00 -0.95999783601E+00  0.11801458403E+01  0.00000000000E+00 0. -1.
         11    1    3    3    0    0  0.56661940206E+01 -0.13692472376E+01  0.82687037167E+01  0.10116919200E+02  0.51100000000E-03 0. -1.
        -11    1    3    3    0    0  0.20742112225E+02 -0.11983262993E+02  0.25912939819E+02  0.35289010497E+02  0.51100000000E-03 0.  1.
         12    1    3    3    0    0 -0.26852612162E+02  0.12829307964E+02 -0.33221645700E+02  0.44601924463E+02  0.00000000000E+00 0. -1.
</event>
<event>
 7    1  0.2569312E-015  0.9000785E+02  0.7816164E-02  0.1186339E+00
        -11   -1    0    0    0    0  0.00000000000E+00  0.00000000000E+00  0.45593999997E+02  0.45594000000E+02  0.51100000000E-03 0. -1.
         11   -1    0    0    0    0 -0.00000000000E+00 -0.00000000000E+00 -0.45593999997E+02  0.45594000000E+02  0.51100000000E-03 0.  1.
    9900012    2    1    2    0    0 -0.55140327382E+00  0.34674943276E+00 -0.98411476386E+00  0.90007846363E+02  0.90000109134E+02 0.  0.
         12    1    1    2    0    0  0.55140327382E+00 -0.34674943276E+00  0.98411476386E+00  0.11801536374E+01  0.00000000000E+00 0. -1.
         11    1    3    3    0    0 -0.33771012873E+02  0.15134457711E+02 -0.39614846614E+01  0.37218630841E+02  0.51100000000E-03 0. -1.
        -11    1    3    3    0    0 -0.78250804047E+01 -0.77739605443E+01  0.14110038886E+01  0.11120129411E+02  0.51100000000E-03 0.  1.
        -12    1    3    3    0    0  0.41044690004E+02 -0.70137477337E+01  0.15663660089E+01  0.41669086111E+02  0.00000000000E+00 0.  1.
</event>
<event>
 7    1  0.2569312E-015  0.9000779E+02  0.7816164E-02  0.1186339E+00
        -11   -1    0    0    0    0  0.00000000000E+00  0.00000000000E+00  0.45593999997E+02  0.45594000000E+02  0.51100000000E-03 0.  1.
         11   -1    0    0    0    0 -0.00000000000E+00 -0.00000000000E+00 -0.45593999997E+02  0.45594000000E+02  0.51100000000E-03 0. -1.
    9900012    2    1    2    0    0  0.14406531552E+00 -0.11713886817E+01 -0.52910372787E-03  0.90007785384E+02  0.90000047352E+02 0.  0.
         12    1    1    2    0    0 -0.14406531552E+00  0.11713886817E+01  0.52910372787E-03  0.11802146155E+01  0.00000000000E+00 0. -1.
         11    1    3    3    0    0  0.35163019068E+02 -0.11355278946E+02 -0.19818158313E+02  0.41930176115E+02  0.51100000000E-03 0. -1.
        -11    1    3    3    0    0 -0.20122200482E+01  0.65132528320E+01 -0.33394064303E+01  0.75909898922E+01  0.51100000000E-03 0.  1.
        -12    1    3    3    0    0 -0.33006733704E+02  0.36706374319E+01  0.23157035640E+02  0.40486619377E+02  0.00000000000E+00 0.  1.
</event>
<event>
 7    1  0.2569312E-015  0.9000768E+02  0.7816164E-02  0.1186339E+00
        -11   -1    0    0    0    0  0.00000000000E+00  0.00000000000E+00  0.45593999997E+02  0.45594000000E+02  0.51100000000E-03 0.  1.
         11   -1    0    0    0    0 -0.00000000000E+00 -0.00000000000E+00 -0.45593999997E+02  0.45594000000E+02  0.51100000000E-03 0. -1.
    9900012    2    1    2    0    0 -0.65514207121E+00  0.31288917605E+00 -0.93061553117E+00  0.90007679689E+02  0.89999940261E+02 0.  0.
         12    1    1    2    0    0  0.65514207121E+00 -0.31288917605E+00  0.93061553117E+00  0.11803203111E+01  0.00000000000E+00 0. -1.
         11    1    3    3    0    0 -0.51122953201E+01 -0.29552784328E+01 -0.77767876008E+01  0.97646126244E+01  0.51100000000E-03 0. -1.
        -11    1    3    3    0    0 -0.16770969588E+02 -0.75429228148E+01  0.37295151899E+02  0.41582321495E+02  0.51100000000E-03 0.  1.
         12    1    3    3    0    0  0.21228122837E+02  0.10811090424E+02 -0.30448979829E+02  0.38660745569E+02  0.00000000000E+00 0. -1.
</event>
<event>
 7    1  0.2569312E-015  0.9000739E+02  0.7816164E-02  0.1186340E+00
        -11   -1    0    0    0    0  0.00000000000E+00  0.00000000000E+00  0.45593999997E+02  0.45594000000E+02  0.51100000000E-03 0.  1.
         11   -1    0    0    0    0 -0.00000000000E+00 -0.00000000000E+00 -0.45593999997E+02  0.45594000000E+02  0.51100000000E-03 0. -1.
    9900012    2    1    2    0    0 -0.63197444156E+00 -0.43037563668E+00  0.89957101848E+00  0.90007388760E+02  0.89999645491E+02 0.  0.
         12    1    1    2    0    0  0.63197444156E+00  0.43037563668E+00 -0.89957101848E+00  0.11806112403E+01  0.00000000000E+00 0. -1.
         11    1    3    3    0    0 -0.33359051606E+02  0.67391318610E+01  0.12879514576E+01  0.34057319940E+02  0.51100000000E-03 0. -1.
        -11    1    3    3    0    0 -0.10893275835E+02  0.22847079513E+01 -0.19002035532E+01  0.11291329534E+02  0.51100000000E-03 0.  1.
        -12    1    3    3    0    0  0.43620352999E+02 -0.94542154490E+01  0.15118231141E+01  0.44658739286E+02  0.00000000000E+00 0.  1.
</event>
<event>
 7    1  0.2569312E-015  0.9000778E+02  0.7816164E-02  0.1186339E+00
        -11   -1    0    0    0    0  0.00000000000E+00  0.00000000000E+00  0.45593999997E+02  0.45594000000E+02  0.51100000000E-03 0. -1.
         11   -1    0    0    0    0 -0.00000000000E+00 -0.00000000000E+00 -0.45593999997E+02  0.45594000000E+02  0.51100000000E-03 0.  1.
    9900012    2    1    2    0    0 -0.78909558735E+00 -0.55566321399E+00 -0.67933558918E+00  0.90007775320E+02  0.90000037154E+02 0.  0.
         12    1    1    2    0    0  0.78909558735E+00  0.55566321399E+00  0.67933558918E+00  0.11802246803E+01  0.00000000000E+00 0. -1.
         11    1    3    3    0    0  0.80303088497E+01  0.37310375827E+01  0.35237561046E+01  0.95301290133E+01  0.51100000000E-03 0. -1.
        -11    1    3    3    0    0 -0.80919228830E+01  0.37385824639E+02 -0.62011107364E+01  0.38750908048E+02  0.51100000000E-03 0.  1.
         12    1    3    3    0    0 -0.72748155404E+00 -0.41672525436E+02  0.19980190426E+01  0.41726738259E+02  0.00000000000E+00 0. -1.
</event>
<event>
 7    1  0.2569312E-015  0.9000774E+02  0.7816164E-02  0.1186339E+00
        -11   -1    0    0    0    0  0.00000000000E+00  0.00000000000E+00  0.45593999997E+02  0.45594000000E+02  0.51100000000E-03 0. -1.
         11   -1    0    0    0    0 -0.00000000000E+00 -0.00000000000E+00 -0.45593999997E+02  0.45594000000E+02  0.51100000000E-03 0.  1.
    9900012    2    1    2    0    0  0.82862439963E+00  0.48924989032E+00 -0.68339190457E+00  0.90007742254E+02  0.90000003652E+02 0.  0.
         12    1    1    2    0    0 -0.82862439963E+00 -0.48924989032E+00  0.68339190457E+00  0.11802577456E+01  0.00000000000E+00 0. -1.
         11    1    3    3    0    0 -0.17184993358E+01 -0.67052628623E+01 -0.45522558275E+01  0.82847343591E+01  0.51100000000E-03 0. -1.
        -11    1    3    3    0    0  0.13395050788E+02 -0.96282596734E+01 -0.34614819296E+02  0.38344706090E+02  0.51100000000E-03 0.  1.
         12    1    3    3    0    0 -0.10847927053E+02  0.16822772426E+02  0.38483683219E+02  0.43378301806E+02  0.00000000000E+00 0. -1.
</event>
<event>
 7    1  0.2569312E-015  0.9000776E+02  0.7816164E-02  0.1186339E+00
        -11   -1    0    0    0    0  0.00000000000E+00  0.00000000000E+00  0.45593999997E+02  0.45594000000E+02  0.51100000000E-03 0. -1.
         11   -1    0    0    0    0 -0.00000000000E+00 -0.00000000000E+00 -0.45593999997E+02  0.45594000000E+02  0.51100000000E-03 0.  1.
    9900012    2    1    2    0    0  0.89209666503E+00 -0.34746281451E+00 -0.69021197762E+00  0.90007762972E+02  0.90000024644E+02 0.  0.
         12    1    1    2    0    0 -0.89209666503E+00  0.34746281451E+00  0.69021197762E+00  0.11802370276E+01  0.00000000000E+00 0. -1.
         11    1    3    3    0    0 -0.49132809440E+01 -0.76892905018E+01 -0.15093114973E+01  0.92489750521E+01  0.51100000000E-03 0. -1.
        -11    1    3    3    0    0 -0.11320737503E+02 -0.42486366124E+01 -0.36303850196E+02  0.38264599175E+02  0.51100000000E-03 0.  1.
         12    1    3    3    0    0  0.17126115112E+02  0.11590464300E+02  0.37122949716E+02  0.42494188745E+02  0.00000000000E+00 0. -1.
</event>
<event>
 7    1  0.2569312E-015  0.9000687E+02  0.7816164E-02  0.1186341E+00
        -11   -1    0    0    0    0  0.00000000000E+00  0.00000000000E+00  0.45593999997E+02  0.45594000000E+02  0.51100000000E-03 0.  1.
         11   -1    0    0    0    0 -0.00000000000E+00 -0.00000000000E+00 -0.45593999997E+02  0.45594000000E+02  0.51100000000E-03 0. -1.
    9900012    2    1    2    0    0  0.10421647167E+01  0.20415980398E-01  0.55546553774E+00  0.90006870848E+02  0.89999120739E+02 0.  0.
         12    1    1    2    0    0 -0.10421647167E+01 -0.20415980398E-01 -0.55546553774E+00  0.11811291515E+01  0.00000000000E+00 0. -1.
         11    1    3    3    0    0 -0.63501175251E+00  0.66922795197E+01  0.73898324824E+01  0.99899684422E+01  0.51100000000E-03 0. -1.
        -11    1    3    3    0    0  0.82256501562E+00  0.15877208884E+02  0.31642094361E+02  0.35411643720E+02  0.51100000000E-03 0.  1.
         12    1    3    3    0    0  0.85461145356E+00 -0.22549072423E+02 -0.38476461306E+02  0.44605258686E+02  0.00000000000E+00 0. -1.
</event>
<event>
 7    1  0.2569312E-015  0.9000801E+02  0.7816164E-02  0.1186339E+00
        -11   -1    0    0    0    0  0.00000000000E+00  0.00000000000E+00  0.45593999997E+02  0.45594000000E+02  0.51100000000E-03 0.  1.
         11   -1    0    0    0    0 -0.00000000000E+00 -0.00000000000E+00 -0.45593999997E+02  0.45594000000E+02  0.51100000000E-03 0. -1.
    9900012    2    1    2    0    0  0.81379883303E+00  0.56515803809E+00  0.64087060325E+00  0.90008005390E+02  0.90000270261E+02 0.  0.
         12    1    1    2    0    0 -0.81379883303E+00 -0.56515803809E+00 -0.64087060325E+00  0.11799946096E+01  0.00000000000E+00 0. -1.
         11    1    3    3    0    0 -0.45295372626E+01  0.30770555153E+02 -0.30999794441E+02  0.43912766115E+02  0.51100000000E-03 0. -1.
        -11    1    3    3    0    0 -0.12785883974E+01 -0.70479425485E+01  0.11749694679E+01  0.72587075963E+01  0.51100000000E-03 0.  1.
        -12    1    3    3    0    0  0.66219244931E+01 -0.23157454566E+02  0.30465695576E+02  0.38836531679E+02  0.00000000000E+00 0.  1.
</event>
<event>
 7    1  0.2569312E-015  0.9000738E+02  0.7816164E-02  0.1186340E+00
        -11   -1    0    0    0    0  0.00000000000E+00  0.00000000000E+00  0.45593999997E+02  0.45594000000E+02  0.51100000000E-03 0.  1.
         11   -1    0    0    0    0 -0.00000000000E+00 -0.00000000000E+00 -0.45593999997E+02  0.45594000000E+02  0.51100000000E-03 0. -1.
    9900012    2    1    2    0    0  0.42683219663E+00  0.97882802537E+00 -0.50357093672E+00  0.90007375709E+02  0.89999632268E+02 0.  0.
         12    1    1    2    0    0 -0.42683219663E+00 -0.97882802537E+00  0.50357093672E+00  0.11806242906E+01  0.00000000000E+00 0. -1.
         11    1    3    3    0    0  0.20532804671E+01 -0.60872566858E+01  0.12389501305E+01  0.65426028705E+01  0.51100000000E-03 0. -1.
        -11    1    3    3    0    0 -0.28221770983E+02 -0.19790794225E+02  0.20008882227E+02  0.39855981505E+02  0.51100000000E-03 0.  1.
         12    1    3    3    0    0  0.26595322712E+02  0.26856878936E+02 -0.21751403295E+02  0.43608791334E+02  0.00000000000E+00 0. -1.
</event>
<event>
 7    1  0.2569312E-015  0.9000771E+02  0.7816164E-02  0.1186339E+00
        -11   -1    0    0    0    0  0.00000000000E+00  0.00000000000E+00  0.45593999997E+02  0.45594000000E+02  0.51100000000E-03 0.  1.
         11   -1    0    0    0    0 -0.00000000000E+00 -0.00000000000E+00 -0.45593999997E+02  0.45594000000E+02  0.51100000000E-03 0. -1.
    9900012    2    1    2    0    0  0.28391764892E+00 -0.99083330581E+00  0.57509651799E+00  0.90007705174E+02  0.89999966082E+02 0.  0.
         12    1    1    2    0    0 -0.28391764892E+00  0.99083330581E+00 -0.57509651799E+00  0.11802948260E+01  0.00000000000E+00 0. -1.
         11    1    3    3    0    0 -0.24979890318E+02  0.67279711131E+01 -0.35180822841E+02  0.43668647926E+02  0.51100000000E-03 0. -1.
        -11    1    3    3    0    0  0.19370456740E+01  0.15467410862E+01  0.10284470996E+02  0.10578983782E+02  0.51100000000E-03 0.  1.
        -12    1    3    3    0    0  0.23326762293E+02 -0.92655455051E+01  0.25471448363E+02  0.35760073466E+02  0.00000000000E+00 0.  1.
</event>
<event>
 7    1  0.2569312E-015  0.9000780E+02  0.7816164E-02  0.1186339E+00
        -11   -1    0    0    0    0  0.00000000000E+00  0.00000000000E+00  0.45593999997E+02  0.45594000000E+02  0.51100000000E-03 0. -1.
         11   -1    0    0    0    0 -0.00000000000E+00 -0.00000000000E+00 -0.45593999997E+02  0.45594000000E+02  0.51100000000E-03 0.  1.
    9900012    2    1    2    0    0 -0.45760962937E+00 -0.96885393215E+00  0.49476592762E+00  0.90007797544E+02  0.90000059671E+02 0.  0.
         12    1    1    2    0    0  0.45760962937E+00  0.96885393215E+00 -0.49476592762E+00  0.11802024563E+01  0.00000000000E+00 0. -1.
         11    1    3    3    0    0  0.22508671970E+02  0.67319841601E+01  0.37660699993E+02  0.44387929089E+02  0.51100000000E-03 0. -1.
        -11    1    3    3    0    0 -0.43010230533E+01  0.27082216319E+01 -0.72852348715E+01  0.88830125018E+01  0.51100000000E-03 0.  1.
        -12    1    3    3    0    0 -0.18665258546E+02 -0.10409059724E+02 -0.29880699194E+02  0.36736855952E+02  0.00000000000E+00 0.  1.
</event>
<event>
 7    1  0.2569312E-015  0.9000772E+02  0.7816164E-02  0.1186339E+00
        -11   -1    0    0    0    0  0.00000000000E+00  0.00000000000E+00  0.45593999997E+02  0.45594000000E+02  0.51100000000E-03 0. -1.
         11   -1    0    0    0    0 -0.00000000000E+00 -0.00000000000E+00 -0.45593999997E+02  0.45594000000E+02  0.51100000000E-03 0.  1.
    9900012    2    1    2    0    0  0.93694977921E+00 -0.86005616372E-01 -0.71259098874E+00  0.90007721316E+02  0.89999982437E+02 0.  0.
         12    1    1    2    0    0 -0.93694977921E+00  0.86005616372E-01  0.71259098874E+00  0.11802786841E+01  0.00000000000E+00 0. -1.
         11    1    3    3    0    0  0.16836533918E+01 -0.38365030050E+00 -0.98745375111E+01  0.10024388641E+02  0.51100000000E-03 0. -1.
        -11    1    3    3    0    0  0.38936641346E+02  0.41222200778E+01  0.87207745533E+01  0.40113671569E+02  0.51100000000E-03 0.  1.
         12    1    3    3    0    0 -0.39683344958E+02 -0.38245753936E+01  0.44117196914E+00  0.39869661106E+02  0.00000000000E+00 0. -1.
</event>
<event>
 7    1  0.2569312E-015  0.9000775E+02  0.7816164E-02  0.1186339E+00
        -11   -1    0    0    0    0  0.00000000000E+00  0.00000000000E+00  0.45593999997E+02  0.45594000000E+02  0.51100000000E-03 0. -1.
         11   -1    0    0    0    0 -0.00000000000E+00 -0.00000000000E+00 -0.45593999997E+02  0.45594000000E+02  0.51100000000E-03 0.  1.
    9900012    2    1    2    0    0 -0.97701354028E+00  0.39121823019E+00  0.53421346161E+00  0.90007749525E+02  0.90000011019E+02 0.  0.
         12    1    1    2    0    0  0.97701354028E+00 -0.39121823019E+00 -0.53421346161E+00  0.11802504751E+01  0.00000000000E+00 0. -1.
         11    1    3    3    0    0  0.23172598085E+02 -0.11788491094E+02  0.28666462722E+02  0.38700179709E+02  0.51100000000E-03 0. -1.
        -11    1    3    3    0    0 -0.28871543271E+01  0.55497231941E+01  0.72020423164E+01  0.95396279502E+01  0.51100000000E-03 0.  1.
        -12    1    3    3    0    0 -0.21262457298E+02  0.66299861298E+01 -0.35334291577E+02  0.41767941865E+02  0.00000000000E+00 0.  1.
</event>
<event>
 7    1  0.2569312E-015  0.9000776E+02  0.7816164E-02  0.1186339E+00
        -11   -1    0    0    0    0  0.00000000000E+00  0.00000000000E+00  0.45593999997E+02  0.45594000000E+02  0.51100000000E-03 0.  1.
         11   -1    0    0    0    0 -0.00000000000E+00 -0.00000000000E+00 -0.45593999997E+02  0.45594000000E+02  0.51100000000E-03 0. -1.
    9900012    2    1    2    0    0 -0.37089347810E+00 -0.48893197964E+00  0.10081411298E+01  0.90007760622E+02  0.90000022262E+02 0.  0.
         12    1    1    2    0    0  0.37089347810E+00  0.48893197964E+00 -0.10081411298E+01  0.11802393784E+01  0.00000000000E+00 0. -1.
         11    1    3    3    0    0  0.15016721500E+02  0.32706500489E+02  0.14644737573E+02  0.38854670732E+02  0.51100000000E-03 0. -1.
        -11    1    3    3    0    0 -0.89035286079E+01  0.38312837360E+01  0.28547532671E+01  0.10104512517E+02  0.51100000000E-03 0.  1.
        -12    1    3    3    0    0 -0.64840863705E+01 -0.37026716205E+02 -0.16491349710E+02  0.41048577372E+02  0.00000000000E+00 0.  1.
</event>
<event>
 7    1  0.2569312E-015  0.9000781E+02  0.7816164E-02  0.1186339E+00
        -11   -1    0    0    0    0  0.00000000000E+00  0.00000000000E+00  0.45593999997E+02  0.45594000000E+02  0.51100000000E-03 0. -1.
         11   -1    0    0    0    0 -0.00000000000E+00 -0.00000000000E+00 -0.45593999997E+02  0.45594000000E+02  0.51100000000E-03 0.  1.
    9900012    2    1    2    0    0  0.10954588429E+01  0.13947576318E+00  0.41636008829E+00  0.90007813876E+02  0.90000076219E+02 0.  0.
         12    1    1    2    0    0 -0.10954588429E+01 -0.13947576318E+00 -0.41636008829E+00  0.11801861243E+01  0.00000000000E+00 0. -1.
         11    1    3    3    0    0  0.58549961180E+01 -0.44397089594E+01 -0.19329465451E+01  0.75979127261E+01  0.51100000000E-03 0. -1.
        -11    1    3    3    0    0  0.27039698471E+02 -0.98853707539E+01 -0.24932076658E+02  0.38085092820E+02  0.51100000000E-03 0.  1.
         12    1    3    3    0    0 -0.31799235746E+02  0.14464555476E+02  0.27281383291E+02  0.44324808330E+02  0.00000000000E+00 0. -1.
</event>
<event>
 7    1  0.2569312E-015  0.9000769E+02  0.7816164E-02  0.1186339E+00
        -11   -1    0    0    0    0  0.00000000000E+00  0.00000000000E+00  0.45593999997E+02  0.45594000000E+02  0.51100000000E-03 0. -1.
         11   -1    0    0    0    0 -0.00000000000E+00 -0.00000000000E+00 -0.45593999997E+02  0.45594000000E+02  0.51100000000E-03 0.  1.
    9900012    2    1    2    0    0  0.11547805071E+01  0.24407518172E+00  0.72490043421E-02  0.90007685100E+02  0.89999945744E+02 0.  0.
         12    1    1    2    0    0 -0.11547805071E+01 -0.24407518172E+00 -0.72490043421E-02  0.11803148995E+01  0.00000000000E+00 0. -1.
         11    1    3    3    0    0 -0.55577630929E+01  0.53522012444E+01  0.49685405973E+01  0.91772100709E+01  0.51100000000E-03 0. -1.
        -11    1    3    3    0    0  0.19175548919E+02 -0.84393309408E+01  0.33918048542E+02  0.39866753069E+02  0.51100000000E-03 0.  1.
         12    1    3    3    0    0 -0.12463005319E+02  0.33312048781E+01 -0.38879340135E+02  0.40963721961E+02  0.00000000000E+00 0. -1.
</event>
<event>
 7    1  0.2569312E-015  0.9000770E+02  0.7816164E-02  0.1186339E+00
        -11   -1    0    0    0    0  0.00000000000E+00  0.00000000000E+00  0.45593999997E+02  0.45594000000E+02  0.51100000000E-03 0.  1.
         11   -1    0    0    0    0 -0.00000000000E+00 -0.00000000000E+00 -0.45593999997E+02  0.45594000000E+02  0.51100000000E-03 0. -1.
    9900012    2    1    2    0    0  0.11515008044E+01  0.18078152610E+00  0.18569296978E+00  0.90007695827E+02  0.89999956612E+02 0.  0.
         12    1    1    2    0    0 -0.11515008044E+01 -0.18078152610E+00 -0.18569296978E+00  0.11803041734E+01  0.00000000000E+00 0. -1.
         11    1    3    3    0    0  0.67634665992E+01  0.51850020929E+01 -0.49612222977E+01  0.98611588614E+01  0.51100000000E-03 0. -1.
        -11    1    3    3    0    0  0.14131866908E+02 -0.27665060266E+02 -0.23246414219E+02  0.38800270568E+02  0.51100000000E-03 0.  1.
         12    1    3    3    0    0 -0.19743832703E+02  0.22660839699E+02  0.28393329486E+02  0.41346266397E+02  0.00000000000E+00 0. -1.
</event>
<event>
 7    1  0.2569312E-015  0.9000772E+02  0.7816164E-02  0.1186339E+00
        -11   -1    0    0    0    0  0.00000000000E+00  0.00000000000E+00  0.45593999997E+02  0.45594000000E+02  0.51100000000E-03 0. -1.
         11   -1    0    0    0    0 -0.00000000000E+00 -0.00000000000E+00 -0.45593999997E+02  0.45594000000E+02  0.51100000000E-03 0.  1.
    9900012    2    1    2    0    0 -0.96004936893E+00  0.22489028429E+00  0.64868305788E+00  0.90007720313E+02  0.89999981421E+02 0.  0.
         12    1    1    2    0    0  0.96004936893E+00 -0.22489028429E+00 -0.64868305788E+00  0.11802796873E+01  0.00000000000E+00 0. -1.
         11    1    3    3    0    0  0.52943479009E+00 -0.67146450083E+01 -0.59144001247E+01  0.89636425565E+01  0.51100000000E-03 0. -1.
        -11    1    3    3    0    0 -0.20260940476E+02  0.30140968747E+02 -0.19676066901E+02  0.41305342450E+02  0.51100000000E-03 0.  1.
         12    1    3    3    0    0  0.18771456317E+02 -0.23201433454E+02  0.26239150084E+02  0.39738735306E+02  0.00000000000E+00 0. -1.
</event>
<event>
 7    1  0.2569312E-015  0.9000767E+02  0.7816164E-02  0.1186339E+00
        -11   -1    0    0    0    0  0.00000000000E+00  0.00000000000E+00  0.45593999997E+02  0.45594000000E+02  0.51100000000E-03 0.  1.
         11   -1    0    0    0    0 -0.00000000000E+00 -0.00000000000E+00 -0.45593999997E+02  0.45594000000E+02  0.51100000000E-03 0. -1.
    9900012    2    1    2    0    0 -0.43516253824E+00 -0.10592605157E+01  0.28595864601E+00  0.90007673087E+02  0.89999933571E+02 0.  0.
         12    1    1    2    0    0  0.43516253824E+00  0.10592605157E+01 -0.28595864601E+00  0.11803269132E+01  0.00000000000E+00 0. -1.
         11    1    3    3    0    0 -0.55076037373E+01 -0.24681665463E+02 -0.27744358282E+02  0.37540214780E+02  0.51100000000E-03 0. -1.
        -11    1    3    3    0    0 -0.18879636482E+01 -0.17699272185E+01 -0.76777271161E+01  0.81021320049E+01  0.51100000000E-03 0.  1.
        -12    1    3    3    0    0  0.69604048473E+01  0.25392332165E+02  0.35708044044E+02  0.44365326302E+02  0.00000000000E+00 0.  1.
</event>
<event>
 7    1  0.2569312E-015  0.9000766E+02  0.7816164E-02  0.1186339E+00
        -11   -1    0    0    0    0  0.00000000000E+00  0.00000000000E+00  0.45593999997E+02  0.45594000000E+02  0.51100000000E-03 0.  1.
         11   -1    0    0    0    0 -0.00000000000E+00 -0.00000000000E+00 -0.45593999997E+02  0.45594000000E+02  0.51100000000E-03 0. -1.
    9900012    2    1    2    0    0 -0.49408588827E+00  0.85015267018E+00  0.65293679945E+00  0.90007658146E+02  0.89999918434E+02 0.  0.
         12    1    1    2    0    0  0.49408588827E+00 -0.85015267018E+00 -0.65293679945E+00  0.11803418537E+01  0.00000000000E+00 0. -1.
         11    1    3    3    0    0 -0.54094706318E+00 -0.11609574550E+02  0.55433470699E+01  0.12876472419E+02  0.51100000000E-03 0. -1.
        -11    1    3    3    0    0  0.12965038689E+02 -0.13056363065E+02  0.28025565137E+02  0.33526007012E+02  0.51100000000E-03 0.  1.
         12    1    3    3    0    0 -0.12918177514E+02  0.25516090285E+02 -0.32915975407E+02  0.43605178715E+02  0.00000000000E+00 0. -1.
</event>
<event>
 7    1  0.2569312E-015  0.9000770E+02  0.7816164E-02  0.1186339E+00
        -11   -1    0    0    0    0  0.00000000000E+00  0.00000000000E+00  0.45593999997E+02  0.45594000000E+02  0.51100000000E-03 0. -1.
         11   -1    0    0    0    0 -0.00000000000E+00 -0.00000000000E+00 -0.45593999997E+02  0.45594000000E+02  0.51100000000E-03 0.  1.
    9900012    2    1    2    0    0 -0.88958936062E+00 -0.34578852343E+00 -0.69438581944E+00  0.90007698937E+02  0.89999959763E+02 0.  0.
         12    1    1    2    0    0  0.88958936062E+00  0.34578852343E+00  0.69438581944E+00  0.11803010632E+01  0.00000000000E+00 0. -1.
         11    1    3    3    0    0  0.23197570435E+02 -0.13531357251E+02 -0.18770737485E+02  0.32765309233E+02  0.51100000000E-03 0. -1.
        -11    1    3    3    0    0 -0.41622262029E+01 -0.15955415351E+02 -0.20342310197E+01  0.16614376367E+02  0.51100000000E-03 0.  1.
        -12    1    3    3    0    0 -0.19924933593E+02  0.29140984078E+02  0.20110582685E+02  0.40628013336E+02  0.00000000000E+00 0.  1.
</event>
<event>
 7    1  0.2569312E-015  0.9000775E+02  0.7816164E-02  0.1186339E+00
        -11   -1    0    0    0    0  0.00000000000E+00  0.00000000000E+00  0.45593999997E+02  0.45594000000E+02  0.51100000000E-03 0.  1.
         11   -1    0    0    0    0 -0.00000000000E+00 -0.00000000000E+00 -0.45593999997E+02  0.45594000000E+02  0.51100000000E-03 0. -1.
    9900012    2    1    2    0    0  0.23994655010E+00  0.33142606098E+00  0.11070558491E+01  0.90007749927E+02  0.90000011426E+02 0.  0.
         12    1    1    2    0    0 -0.23994655010E+00 -0.33142606098E+00 -0.11070558491E+01  0.11802500725E+01  0.00000000000E+00 0. -1.
         11    1    3    3    0    0 -0.24885816157E+01  0.82645087716E+01 -0.60064907481E+01  0.10515373273E+02  0.51100000000E-03 0. -1.
        -11    1    3    3    0    0 -0.27608713739E+02 -0.81519615142E+01  0.29933737969E+02  0.41529799180E+02  0.51100000000E-03 0.  1.
         12    1    3    3    0    0  0.30337241905E+02  0.21887880353E+00 -0.22820191371E+02  0.37962577475E+02  0.00000000000E+00 0. -1.
</event>
<event>
 7    1  0.2569312E-015  0.9000772E+02  0.7816164E-02  0.1186339E+00
        -11   -1    0    0    0    0  0.00000000000E+00  0.00000000000E+00  0.45593999997E+02  0.45594000000E+02  0.51100000000E-03 0.  1.
         11   -1    0    0    0    0 -0.00000000000E+00 -0.00000000000E+00 -0.45593999997E+02  0.45594000000E+02  0.51100000000E-03 0. -1.
    9900012    2    1    2    0    0  0.84318400491E+00 -0.82377787680E+00 -0.59154726966E-01  0.90007716755E+02  0.89999977816E+02 0.  0.
         12    1    1    2    0    0 -0.84318400491E+00  0.82377787680E+00  0.59154726966E-01  0.11802832449E+01  0.00000000000E+00 0. -1.
         11    1    3    3    0    0  0.30538554860E+01 -0.89388872932E+01  0.38680841981E+01  0.10207439199E+02  0.51100000000E-03 0. -1.
        -11    1    3    3    0    0  0.62616096587E+01 -0.30674730928E+02  0.16238874871E+02  0.35268228342E+02  0.51100000000E-03 0.  1.
         12    1    3    3    0    0 -0.84722811398E+01  0.38789840344E+02 -0.20166113796E+02  0.44532049215E+02  0.00000000000E+00 0. -1.
</event>
<event>
 7    1  0.2569312E-015  0.9000769E+02  0.7816164E-02  0.1186339E+00
        -11   -1    0    0    0    0  0.00000000000E+00  0.00000000000E+00  0.45593999997E+02  0.45594000000E+02  0.51100000000E-03 0. -1.
         11   -1    0    0    0    0 -0.00000000000E+00 -0.00000000000E+00 -0.45593999997E+02  0.45594000000E+02  0.51100000000E-03 0.  1.
    9900012    2    1    2    0    0  0.56664788760E-01  0.64140584456E-01 -0.11772066300E+01  0.90007686329E+02  0.89999946988E+02 0.  0.
         12    1    1    2    0    0 -0.56664788760E-01 -0.64140584456E-01  0.11772066300E+01  0.11803136712E+01  0.00000000000E+00 0. -1.
         11    1    3    3    0    0 -0.12741643965E+01  0.82995960628E+01  0.38266635443E+01  0.92276835586E+01  0.51100000000E-03 0. -1.
        -11    1    3    3    0    0 -0.39066944152E+02 -0.92979429344E+01 -0.10028637442E+01  0.40170680902E+02  0.51100000000E-03 0.  1.
         12    1    3    3    0    0  0.40397773337E+02  0.10624874561E+01 -0.40010064301E+01  0.40609321869E+02  0.00000000000E+00 0. -1.
</event>
<event>
 7    1  0.2569312E-015  0.9000679E+02  0.7816164E-02  0.1186341E+00
        -11   -1    0    0    0    0  0.00000000000E+00  0.00000000000E+00  0.45593999997E+02  0.45594000000E+02  0.51100000000E-03 0.  1.
         11   -1    0    0    0    0 -0.00000000000E+00 -0.00000000000E+00 -0.45593999997E+02  0.45594000000E+02  0.51100000000E-03 0. -1.
    9900012    2    1    2    0    0 -0.10148857699E+01  0.29128777602E+00  0.52953910034E+00  0.90006791571E+02  0.89999040414E+02 0.  0.
         12    1    1    2    0    0  0.10148857699E+01 -0.29128777602E+00 -0.52953910034E+00  0.11812084292E+01  0.00000000000E+00 0. -1.
         11    1    3    3    0    0 -0.82216404538E+01  0.26460224854E+01 -0.38853212206E+02  0.39801619386E+02  0.51100000000E-03 0. -1.
        -11    1    3    3    0    0  0.55787706013E+01 -0.76816188310E+01 -0.90266997141E+00  0.95364963496E+01  0.51100000000E-03 0.  1.
        -12    1    3    3    0    0  0.16279840826E+01  0.53268841216E+01  0.40285421278E+02  0.40668675835E+02  0.00000000000E+00 0.  1.
</event>
<event>
 7    1  0.2569312E-015  0.9000760E+02  0.7816164E-02  0.1186339E+00
        -11   -1    0    0    0    0  0.00000000000E+00  0.00000000000E+00  0.45593999997E+02  0.45594000000E+02  0.51100000000E-03 0. -1.
         11   -1    0    0    0    0 -0.00000000000E+00 -0.00000000000E+00 -0.45593999997E+02  0.45594000000E+02  0.51100000000E-03 0.  1.
    9900012    2    1    2    0    0  0.76903093998E-02  0.78426090242E+00 -0.88216349795E+00  0.90007603143E+02  0.89999862704E+02 0.  0.
         12    1    1    2    0    0 -0.76903093998E-02 -0.78426090242E+00  0.88216349795E+00  0.11803968574E+01  0.00000000000E+00 0. -1.
         11    1    3    3    0    0 -0.11158833479E+02 -0.61677910117E+01  0.32723011417E+02  0.35119178336E+02  0.51100000000E-03 0. -1.
        -11    1    3    3    0    0 -0.27406784712E+01 -0.21676527301E+01  0.87302718046E+01  0.94035994643E+01  0.51100000000E-03 0.  1.
        -12    1    3    3    0    0  0.13907202260E+02  0.91197046442E+01 -0.42335446719E+02  0.45484825342E+02  0.00000000000E+00 0.  1.
</event>
<event>
 7    1  0.2569312E-015  0.9000788E+02  0.7816164E-02  0.1186339E+00
        -11   -1    0    0    0    0  0.00000000000E+00  0.00000000000E+00  0.45593999997E+02  0.45594000000E+02  0.51100000000E-03 0.  1.
         11   -1    0    0    0    0 -0.00000000000E+00 -0.00000000000E+00 -0.45593999997E+02  0.45594000000E+02  0.51100000000E-03 0. -1.
    9900012    2    1    2    0    0 -0.96653172342E+00 -0.51619758519E+00  0.43822382841E+00  0.90007879818E+02  0.90000143032E+02 0.  0.
         12    1    1    2    0    0  0.96653172342E+00  0.51619758519E+00 -0.43822382841E+00  0.11801201816E+01  0.00000000000E+00 0. -1.
         11    1    3    3    0    0 -0.43366953633E+02 -0.28247643309E+01 -0.26310654486E+01  0.43538425173E+02  0.51100000000E-03 0. -1.
        -11    1    3    3    0    0  0.87820844163E+01 -0.42806224140E+01  0.69539446908E+01  0.11991917360E+02  0.51100000000E-03 0.  1.
        -12    1    3    3    0    0  0.33618337493E+02  0.65891891597E+01 -0.38846554138E+01  0.34477537285E+02  0.00000000000E+00 0.  1.
</event>
<event>
 7    1  0.2569312E-015  0.9000769E+02  0.7816164E-02  0.1186339E+00
        -11   -1    0    0    0    0  0.00000000000E+00  0.00000000000E+00  0.45593999997E+02  0.45594000000E+02  0.51100000000E-03 0.  1.
         11   -1    0    0    0    0 -0.00000000000E+00 -0.00000000000E+00 -0.45593999997E+02  0.45594000000E+02  0.51100000000E-03 0. -1.
    9900012    2    1    2    0    0 -0.10711086911E+01  0.43496936511E+00 -0.23802781075E+00  0.90007690966E+02  0.89999951687E+02 0.  0.
         12    1    1    2    0    0  0.10711086911E+01 -0.43496936511E+00  0.23802781075E+00  0.11803090338E+01  0.00000000000E+00 0. -1.
         11    1    3    3    0    0  0.54290546568E+01 -0.32481725624E+01 -0.73040513587E+01  0.96630443429E+01  0.51100000000E-03 0. -1.
        -11    1    3    3    0    0  0.82534294930E+01 -0.36366253387E+02  0.48700090593E+01  0.37607718254E+02  0.51100000000E-03 0.  1.
         12    1    3    3    0    0 -0.14753592841E+02  0.40049395315E+02  0.21960144886E+01  0.42736928369E+02  0.00000000000E+00 0. -1.
</event>
<event>
 7    1  0.2569312E-015  0.9000781E+02  0.7816164E-02  0.1186339E+00
        -11   -1    0    0    0    0  0.00000000000E+00  0.00000000000E+00  0.45593999997E+02  0.45594000000E+02  0.51100000000E-03 0.  1.
         11   -1    0    0    0    0 -0.00000000000E+00 -0.00000000000E+00 -0.45593999997E+02  0.45594000000E+02  0.51100000000E-03 0. -1.
    9900012    2    1    2    0    0 -0.95092952801E+00 -0.18816483290E-01  0.69873719366E+00  0.90007807349E+02  0.90000069606E+02 0.  0.
         12    1    1    2    0    0  0.95092952801E+00  0.18816483290E-01 -0.69873719366E+00  0.11801926508E+01  0.00000000000E+00 0. -1.
         11    1    3    3    0    0  0.32059627276E+02 -0.13378689149E+02 -0.11039914099E+02  0.36451182806E+02  0.51100000000E-03 0. -1.
        -11    1    3    3    0    0  0.80951801691E+01  0.57544790736E+01 -0.65807236709E+00  0.99538450299E+01  0.51100000000E-03 0.  1.
        -12    1    3    3    0    0 -0.41105736973E+02  0.76053935918E+01  0.12396723660E+02  0.43602779513E+02  0.00000000000E+00 0.  1.
</event>
<event>
 7    1  0.2569312E-015  0.9000781E+02  0.7816164E-02  0.1186339E+00
        -11   -1    0    0    0    0  0.00000000000E+00  0.00000000000E+00  0.45593999997E+02  0.45594000000E+02  0.51100000000E-03 0.  1.
         11   -1    0    0    0    0 -0.00000000000E+00 -0.00000000000E+00 -0.45593999997E+02  0.45594000000E+02  0.51100000000E-03 0. -1.
    9900012    2    1    2    0    0  0.10465953716E+01  0.20685461620E+00  0.50466719088E+00  0.90007813711E+02  0.90000076052E+02 0.  0.
         12    1    1    2    0    0 -0.10465953716E+01 -0.20685461620E+00 -0.50466719088E+00  0.11801862894E+01  0.00000000000E+00 0. -1.
         11    1    3    3    0    0 -0.25529671425E+02  0.25657469727E+02 -0.86455776550E+01  0.37213114477E+02  0.51100000000E-03 0. -1.
        -11    1    3    3    0    0 -0.25854697544E+01  0.63604135541E+01  0.66641741068E+01  0.95682146306E+01  0.51100000000E-03 0.  1.
        -12    1    3    3    0    0  0.29161736551E+02 -0.31811028665E+02  0.24860707390E+01  0.43226484603E+02  0.00000000000E+00 0.  1.
</event>
<event>
 7    1  0.2569312E-015  0.9000789E+02  0.7816164E-02  0.1186339E+00
        -11   -1    0    0    0    0  0.00000000000E+00  0.00000000000E+00  0.45593999997E+02  0.45594000000E+02  0.51100000000E-03 0.  1.
         11   -1    0    0    0    0 -0.00000000000E+00 -0.00000000000E+00 -0.45593999997E+02  0.45594000000E+02  0.51100000000E-03 0. -1.
    9900012    2    1    2    0    0 -0.15624831793E+00  0.10909042763E+01  0.42209708746E+00  0.90007893383E+02  0.90000156775E+02 0.  0.
         12    1    1    2    0    0  0.15624831793E+00 -0.10909042763E+01 -0.42209708746E+00  0.11801066173E+01  0.00000000000E+00 0. -1.
         11    1    3    3    0    0  0.74465603792E+01  0.15062953152E+02  0.30918620801E+02  0.35189557139E+02  0.51100000000E-03 0. -1.
        -11    1    3    3    0    0 -0.69703083715E+01  0.14788709846E+02 -0.74929681271E+01  0.17984318428E+02  0.51100000000E-03 0.  1.
         12    1    3    3    0    0 -0.63250032561E+00 -0.28760758721E+02 -0.23003555586E+02  0.36834017816E+02  0.00000000000E+00 0. -1.
</event>
<event>
 7    1  0.2569312E-015  0.9000777E+02  0.7816164E-02  0.1186339E+00
        -11   -1    0    0    0    0  0.00000000000E+00  0.00000000000E+00  0.45593999997E+02  0.45594000000E+02  0.51100000000E-03 0. -1.
         11   -1    0    0    0    0 -0.00000000000E+00 -0.00000000000E+00 -0.45593999997E+02  0.45594000000E+02  0.51100000000E-03 0.  1.
    9900012    2    1    2    0    0  0.88265670207E+00  0.90478059982E-01 -0.77825798087E+00  0.90007765016E+02  0.90000026714E+02 0.  0.
         12    1    1    2    0    0 -0.88265670207E+00 -0.90478059982E-01  0.77825798087E+00  0.11802349842E+01  0.00000000000E+00 0. -1.
         11    1    3    3    0    0 -0.82574750368E+01 -0.48293788196E+01 -0.20448300298E+02  0.22575247044E+02  0.51100000000E-03 0. -1.
        -11    1    3    3    0    0 -0.43110064176E+01 -0.27274426287E+02  0.17028206461E+02  0.32441315034E+02  0.51100000000E-03 0.  1.
         12    1    3    3    0    0  0.13451138156E+02  0.32194283166E+02  0.26418358560E+01  0.34991202937E+02  0.00000000000E+00 0. -1.
</event>
<event>
 7    1  0.2569312E-015  0.9000767E+02  0.7816164E-02  0.1186339E+00
        -11   -1    0    0    0    0  0.00000000000E+00  0.00000000000E+00  0.45593999997E+02  0.45594000000E+02  0.51100000000E-03 0. -1.
         11   -1    0    0    0    0 -0.00000000000E+00 -0.00000000000E+00 -0.45593999997E+02  0.45594000000E+02  0.51100000000E-03 0.  1.
    9900012    2    1    2    0    0  0.87978703593E-01 -0.11078602738E+01  0.39758680105E+00  0.90007673815E+02  0.89999934309E+02 0.  0.
         12    1    1    2    0    0 -0.87978703593E-01  0.11078602738E+01 -0.39758680105E+00  0.11803261849E+01  0.00000000000E+00 0. -1.
         11    1    3    3    0    0  0.86964312668E+01 -0.52710667916E+01  0.94541605731E+00  0.10213024708E+02  0.51100000000E-03 0. -1.
        -11    1    3    3    0    0 -0.13356782433E+02 -0.33510861564E+02 -0.15129742314E+02  0.39118928698E+02  0.51100000000E-03 0.  1.
         12    1    3    3    0    0  0.47483298700E+01  0.37674068082E+02  0.14581913057E+02  0.40675720409E+02  0.00000000000E+00 0. -1.
</event>
<event>
 7    1  0.2569312E-015  0.9000769E+02  0.7816164E-02  0.1186339E+00
        -11   -1    0    0    0    0  0.00000000000E+00  0.00000000000E+00  0.45593999997E+02  0.45594000000E+02  0.51100000000E-03 0.  1.
         11   -1    0    0    0    0 -0.00000000000E+00 -0.00000000000E+00 -0.45593999997E+02  0.45594000000E+02  0.51100000000E-03 0. -1.
    9900012    2    1    2    0    0 -0.63603333210E+00  0.92302560379E+00  0.36960857465E+00  0.90007692767E+02  0.89999953512E+02 0.  0.
         12    1    1    2    0    0  0.63603333210E+00 -0.92302560379E+00 -0.36960857465E+00  0.11803072326E+01  0.00000000000E+00 0. -1.
         11    1    3    3    0    0 -0.14942107097E+00  0.49418155833E+01  0.13027734224E+02  0.13934336267E+02  0.51100000000E-03 0. -1.
        -11    1    3    3    0    0 -0.11520084887E+01  0.28064312792E+01  0.31369009472E+02  0.31515360312E+02  0.51100000000E-03 0.  1.
         12    1    3    3    0    0  0.66539622752E+00 -0.68252212588E+01 -0.44027135121E+02  0.44557996189E+02  0.00000000000E+00 0. -1.
</event>
<event>
 7    1  0.2569312E-015  0.9000788E+02  0.7816164E-02  0.1186339E+00
        -11   -1    0    0    0    0  0.00000000000E+00  0.00000000000E+00  0.45593999997E+02  0.45594000000E+02  0.51100000000E-03 0. -1.
         11   -1    0    0    0    0 -0.00000000000E+00 -0.00000000000E+00 -0.45593999997E+02  0.45594000000E+02  0.51100000000E-03 0.  1.
    9900012    2    1    2    0    0 -0.10355300691E+01 -0.52059770984E+00  0.22210056830E+00  0.90007884259E+02  0.90000147531E+02 0.  0.
         12    1    1    2    0    0  0.10355300691E+01  0.52059770984E+00 -0.22210056830E+00  0.11801157409E+01  0.00000000000E+00 0. -1.
         11    1    3    3    0    0 -0.78486375176E+01  0.11561553468E+02  0.33014974748E+02  0.35850511675E+02  0.51100000000E-03 0. -1.
        -11    1    3    3    0    0 -0.48376746455E+01  0.79532499960E+01  0.44295620357E+01  0.10309136800E+02  0.51100000000E-03 0.  1.
        -12    1    3    3    0    0  0.11650782094E+02 -0.20035401174E+02 -0.37222436215E+02  0.43848235784E+02  0.00000000000E+00 0.  1.
</event>
<event>
 7    1  0.2569312E-015  0.9000782E+02  0.7816164E-02  0.1186339E+00
        -11   -1    0    0    0    0  0.00000000000E+00  0.00000000000E+00  0.45593999997E+02  0.45594000000E+02  0.51100000000E-03 0.  1.
         11   -1    0    0    0    0 -0.00000000000E+00 -0.00000000000E+00 -0.45593999997E+02  0.45594000000E+02  0.51100000000E-03 0. -1.
    9900012    2    1    2    0    0  0.10958073744E+01  0.37218560477E+00  0.23131767316E+00  0.90007820441E+02  0.90000082870E+02 0.  0.
         12    1    1    2    0    0 -0.10958073744E+01 -0.37218560477E+00 -0.23131767316E+00  0.11801795593E+01  0.00000000000E+00 0. -1.
         11    1    3    3    0    0 -0.77307580343E+01  0.20939513564E+00  0.66620282995E+01  0.10207403560E+02  0.51100000000E-03 0. -1.
        -11    1    3    3    0    0 -0.30833595385E+02  0.15576620571E+02  0.68671801876E+01  0.35220730782E+02  0.51100000000E-03 0.  1.
         12    1    3    3    0    0  0.39660160794E+02 -0.15413830102E+02 -0.13297890814E+02  0.44579686099E+02  0.00000000000E+00 0. -1.
</event>
<event>
 7    1  0.2569312E-015  0.9000771E+02  0.7816164E-02  0.1186339E+00
        -11   -1    0    0    0    0  0.00000000000E+00  0.00000000000E+00  0.45593999997E+02  0.45594000000E+02  0.51100000000E-03 0. -1.
         11   -1    0    0    0    0 -0.00000000000E+00 -0.00000000000E+00 -0.45593999997E+02  0.45594000000E+02  0.51100000000E-03 0.  1.
    9900012    2    1    2    0    0  0.10031083205E+01 -0.60772910871E+00 -0.13239924057E+00  0.90007707438E+02  0.89999968377E+02 0.  0.
         12    1    1    2    0    0 -0.10031083205E+01  0.60772910871E+00  0.13239924057E+00  0.11802925616E+01  0.00000000000E+00 0. -1.
         11    1    3    3    0    0 -0.62385525244E+01 -0.18418166676E+01  0.37232586919E+02  0.37796525702E+02  0.51100000000E-03 0. -1.
        -11    1    3    3    0    0 -0.38520065688E+01 -0.10311060008E+02  0.58420677355E+00  0.11022577326E+02  0.51100000000E-03 0.  1.
        -12    1    3    3    0    0  0.11093667414E+02  0.11545147567E+02 -0.37949192933E+02  0.41188604410E+02  0.00000000000E+00 0.  1.
</event>
<event>
 7    1  0.2569312E-015  0.9000746E+02  0.7816164E-02  0.1186340E+00
        -11   -1    0    0    0    0  0.00000000000E+00  0.00000000000E+00  0.45593999997E+02  0.45594000000E+02  0.51100000000E-03 0.  1.
         11   -1    0    0    0    0 -0.00000000000E+00 -0.00000000000E+00 -0.45593999997E+02  0.45594000000E+02  0.51100000000E-03 0. -1.
    9900012    2    1    2    0    0  0.76196087299E+00 -0.58831401663E+00  0.68336057763E+00  0.90007457992E+02  0.89999715637E+02 0.  0.
         12    1    1    2    0    0 -0.76196087299E+00  0.58831401663E+00 -0.68336057763E+00  0.11805420082E+01  0.00000000000E+00 0. -1.
         11    1    3    3    0    0 -0.23494895877E+00 -0.88596437900E+01  0.28176274661E+01  0.92998663377E+01  0.51100000000E-03 0. -1.
        -11    1    3    3    0    0  0.16038834354E+02 -0.20902920910E+02  0.26339192748E+02  0.37254924303E+02  0.51100000000E-03 0.  1.
         12    1    3    3    0    0 -0.15041924522E+02  0.29174250683E+02 -0.28473459636E+02  0.43452667351E+02  0.00000000000E+00 0. -1.
</event>
<event>
 7    1  0.2569312E-015  0.9000771E+02  0.7816164E-02  0.1186339E+00
        -11   -1    0    0    0    0  0.00000000000E+00  0.00000000000E+00  0.45593999997E+02  0.45594000000E+02  0.51100000000E-03 0. -1.
         11   -1    0    0    0    0 -0.00000000000E+00 -0.00000000000E+00 -0.45593999997E+02  0.45594000000E+02  0.51100000000E-03 0.  1.
    9900012    2    1    2    0    0 -0.68101927066E+00  0.85785456813E+00 -0.43974770984E+00  0.90007712003E+02  0.89999973002E+02 0.  0.
         12    1    1    2    0    0  0.68101927066E+00 -0.85785456813E+00  0.43974770984E+00  0.11802879968E+01  0.00000000000E+00 0. -1.
         11    1    3    3    0    0 -0.23257930756E+02 -0.12996970297E+02  0.26850473908E+02  0.37825924038E+02  0.51100000000E-03 0. -1.
        -11    1    3    3    0    0 -0.91129255532E+01 -0.14589086402E+01 -0.46655860049E+01  0.10341253289E+02  0.51100000000E-03 0.  1.
        -12    1    3    3    0    0  0.31689837039E+02  0.15313733505E+02 -0.22624635613E+02  0.41840534677E+02  0.00000000000E+00 0.  1.
</event>
<event>
 7    1  0.2569312E-015  0.9000775E+02  0.7816164E-02  0.1186339E+00
        -11   -1    0    0    0    0  0.00000000000E+00  0.00000000000E+00  0.45593999997E+02  0.45594000000E+02  0.51100000000E-03 0. -1.
         11   -1    0    0    0    0 -0.00000000000E+00 -0.00000000000E+00 -0.45593999997E+02  0.45594000000E+02  0.51100000000E-03 0.  1.
    9900012    2    1    2    0    0 -0.34813679328E+00 -0.10931259766E+01  0.27725254709E+00  0.90007748924E+02  0.90000010410E+02 0.  0.
         12    1    1    2    0    0  0.34813679328E+00  0.10931259766E+01 -0.27725254709E+00  0.11802510760E+01  0.00000000000E+00 0. -1.
         11    1    3    3    0    0 -0.55588195323E+01  0.59172420762E+00 -0.59529309524E+01  0.81662720574E+01  0.51100000000E-03 0. -1.
        -11    1    3    3    0    0  0.32397046661E+02  0.15647802735E+02 -0.19197509777E+02  0.40779489264E+02  0.51100000000E-03 0.  1.
         12    1    3    3    0    0 -0.27186363922E+02 -0.17332652919E+02  0.25427693276E+02  0.41061987602E+02  0.00000000000E+00 0. -1.
</event>
<event>
 7    1  0.2569312E-015  0.9000770E+02  0.7816164E-02  0.1186339E+00
        -11   -1    0    0    0    0  0.00000000000E+00  0.00000000000E+00  0.45593999997E+02  0.45594000000E+02  0.51100000000E-03 0.  1.
         11   -1    0    0    0    0 -0.00000000000E+00 -0.00000000000E+00 -0.45593999997E+02  0.45594000000E+02  0.51100000000E-03 0. -1.
    9900012    2    1    2    0    0  0.10923842071E+01  0.33850229889E+00 -0.29192043956E+00  0.90007701476E+02  0.89999962336E+02 0.  0.
         12    1    1    2    0    0 -0.10923842071E+01 -0.33850229889E+00  0.29192043956E+00  0.11802985238E+01  0.00000000000E+00 0. -1.
         11    1    3    3    0    0 -0.32406357422E+02  0.56980523206E+00 -0.20592350794E+02  0.38399760296E+02  0.51100000000E-03 0. -1.
        -11    1    3    3    0    0  0.23462074300E+01  0.10351272765E+02 -0.33031650767E+01  0.11115954162E+02  0.51100000000E-03 0.  1.
        -12    1    3    3    0    0  0.31152534199E+02 -0.10582575698E+02  0.23603595431E+02  0.40491987018E+02  0.00000000000E+00 0.  1.
</event>
<event>
 7    1  0.2569312E-015  0.9000813E+02  0.7816164E-02  0.1186338E+00
        -11   -1    0    0    0    0  0.00000000000E+00  0.00000000000E+00  0.45593999997E+02  0.45594000000E+02  0.51100000000E-03 0.  1.
         11   -1    0    0    0    0 -0.00000000000E+00 -0.00000000000E+00 -0.45593999997E+02  0.45594000000E+02  0.51100000000E-03 0. -1.
    9900012    2    1    2    0    0 -0.56713651392E+00 -0.37284162874E+00  0.96511598148E+00  0.90008125615E+02  0.90000392073E+02 0.  0.
         12    1    1    2    0    0  0.56713651392E+00  0.37284162874E+00 -0.96511598148E+00  0.11798743845E+01  0.00000000000E+00 0. -1.
         11    1    3    3    0    0 -0.30711627155E+02  0.27702938937E+01 -0.22869963338E+02  0.38391584938E+02  0.51100000000E-03 0. -1.
        -11    1    3    3    0    0 -0.36080371732E+01  0.32948627109E+01  0.15509918250E+02  0.16261353477E+02  0.51100000000E-03 0.  1.
        -12    1    3    3    0    0  0.33752527814E+02 -0.64379982334E+01  0.83251610691E+01  0.35355187200E+02  0.00000000000E+00 0.  1.
</event>
<event>
 7    1  0.2569312E-015  0.9000770E+02  0.7816164E-02  0.1186339E+00
        -11   -1    0    0    0    0  0.00000000000E+00  0.00000000000E+00  0.45593999997E+02  0.45594000000E+02  0.51100000000E-03 0. -1.
         11   -1    0    0    0    0 -0.00000000000E+00 -0.00000000000E+00 -0.45593999997E+02  0.45594000000E+02  0.51100000000E-03 0.  1.
    9900012    2    1    2    0    0 -0.12529137537E-01 -0.91836179766E+00 -0.74131841463E+00  0.90007704121E+02  0.89999965015E+02 0.  0.
         12    1    1    2    0    0  0.12529137537E-01  0.91836179766E+00  0.74131841463E+00  0.11802958792E+01  0.00000000000E+00 0. -1.
         11    1    3    3    0    0  0.23291289400E+02  0.24179026106E+02  0.13190458244E+02  0.36070731269E+02  0.51100000000E-03 0. -1.
        -11    1    3    3    0    0  0.93861258192E+01  0.10138538440E+00 -0.78095024725E+01  0.12210567801E+02  0.51100000000E-03 0.  1.
        -12    1    3    3    0    0 -0.32689944356E+02 -0.25198773288E+02 -0.61222741859E+01  0.41726405051E+02  0.00000000000E+00 0.  1.
</event>
<event>
 7    1  0.2569312E-015  0.9000784E+02  0.7816164E-02  0.1186339E+00
        -11   -1    0    0    0    0  0.00000000000E+00  0.00000000000E+00  0.45593999997E+02  0.45594000000E+02  0.51100000000E-03 0.  1.
         11   -1    0    0    0    0 -0.00000000000E+00 -0.00000000000E+00 -0.45593999997E+02  0.45594000000E+02  0.51100000000E-03 0. -1.
    9900012    2    1    2    0    0  0.24004253899E+00  0.10822689937E+01 -0.40479067310E+00  0.90007838111E+02  0.90000100774E+02 0.  0.
         12    1    1    2    0    0 -0.24004253899E+00 -0.10822689937E+01  0.40479067310E+00  0.11801618890E+01  0.00000000000E+00 0. -1.
         11    1    3    3    0    0  0.45012333449E+01  0.74848470051E+01  0.34346435420E+01  0.93851378699E+01  0.51100000000E-03 0. -1.
        -11    1    3    3    0    0  0.24728083895E+02  0.24261385793E+02  0.10263173630E+02  0.36130675429E+02  0.51100000000E-03 0.  1.
         12    1    3    3    0    0 -0.28989274701E+02 -0.30663963805E+02 -0.14102607845E+02  0.44492024812E+02  0.00000000000E+00 0. -1.
</event>
<event>
 7    1  0.2569312E-015  0.9000771E+02  0.7816164E-02  0.1186339E+00
        -11   -1    0    0    0    0  0.00000000000E+00  0.00000000000E+00  0.45593999997E+02  0.45594000000E+02  0.51100000000E-03 0.  1.
         11   -1    0    0    0    0 -0.00000000000E+00 -0.00000000000E+00 -0.45593999997E+02  0.45594000000E+02  0.51100000000E-03 0. -1.
    9900012    2    1    2    0    0  0.38457161002E+00 -0.10242619741E+01  0.44279872263E+00  0.90007712483E+02  0.89999973487E+02 0.  0.
         12    1    1    2    0    0 -0.38457161002E+00  0.10242619741E+01 -0.44279872263E+00  0.11802875174E+01  0.00000000000E+00 0. -1.
         11    1    3    3    0    0  0.96290820171E+01 -0.95442270667E+01  0.84674954634E+01  0.15984679242E+02  0.51100000000E-03 0. -1.
        -11    1    3    3    0    0  0.13999000055E+02 -0.79547241524E+01  0.25419017220E+02  0.30089467851E+02  0.51100000000E-03 0.  1.
         12    1    3    3    0    0 -0.23243510462E+02  0.16474689245E+02 -0.33443713961E+02  0.43933565389E+02  0.00000000000E+00 0. -1.
</event>
<event>
 7    1  0.2569312E-015  0.9000709E+02  0.7816164E-02  0.1186340E+00
        -11   -1    0    0    0    0  0.00000000000E+00  0.00000000000E+00  0.45593999997E+02  0.45594000000E+02  0.51100000000E-03 0. -1.
         11   -1    0    0    0    0 -0.00000000000E+00 -0.00000000000E+00 -0.45593999997E+02  0.45594000000E+02  0.51100000000E-03 0.  1.
    9900012    2    1    2    0    0  0.94391253764E+00 -0.43677071571E+00 -0.55928872227E+00  0.90007092124E+02  0.89999344938E+02 0.  0.
         12    1    1    2    0    0 -0.94391253764E+00  0.43677071571E+00  0.55928872227E+00  0.11809078760E+01  0.00000000000E+00 0. -1.
         11    1    3    3    0    0 -0.11098321770E+02  0.23651540034E+01  0.43904282100E+01  0.12167274127E+02  0.51100000000E-03 0. -1.
        -11    1    3    3    0    0 -0.29502640047E+02 -0.74693057798E+01  0.12019369232E+02  0.32720964771E+02  0.51100000000E-03 0.  1.
         12    1    3    3    0    0  0.41544874355E+02  0.46673810607E+01 -0.16969086164E+02  0.45118853225E+02  0.00000000000E+00 0. -1.
</event>
<event>
 7    1  0.2569312E-015  0.9000770E+02  0.7816164E-02  0.1186339E+00
        -11   -1    0    0    0    0  0.00000000000E+00  0.00000000000E+00  0.45593999997E+02  0.45594000000E+02  0.51100000000E-03 0.  1.
         11   -1    0    0    0    0 -0.00000000000E+00 -0.00000000000E+00 -0.45593999997E+02  0.45594000000E+02  0.51100000000E-03 0. -1.
    9900012    2    1    2    0    0  0.51132923004E-01 -0.36731645279E+00  0.11205247110E+01  0.90007698521E+02  0.89999959342E+02 0.  0.
         12    1    1    2    0    0 -0.51132923004E-01  0.36731645279E+00 -0.11205247110E+01  0.11803014786E+01  0.00000000000E+00 0. -1.
         11    1    3    3    0    0  0.25920628333E+02 -0.10014437792E+02 -0.28223195614E+02  0.39607028522E+02  0.51100000000E-03 0. -1.
        -11    1    3    3    0    0  0.20106812354E+01 -0.74109854448E+01  0.24092097060E+01  0.80479709220E+01  0.51100000000E-03 0.  1.
        -12    1    3    3    0    0 -0.27880176645E+02  0.17058106784E+02  0.26934510619E+02  0.42352699077E+02  0.00000000000E+00 0.  1.
</event>
<event>
 7    1  0.2569312E-015  0.9000772E+02  0.7816164E-02  0.1186339E+00
        -11   -1    0    0    0    0  0.00000000000E+00  0.00000000000E+00  0.45593999997E+02  0.45594000000E+02  0.51100000000E-03 0.  1.
         11   -1    0    0    0    0 -0.00000000000E+00 -0.00000000000E+00 -0.45593999997E+02  0.45594000000E+02  0.51100000000E-03 0. -1.
    9900012    2    1    2    0    0 -0.31633390058E+00 -0.26471603021E+00  0.11058608193E+01  0.90007716193E+02  0.89999977247E+02 0.  0.
         12    1    1    2    0    0  0.31633390058E+00  0.26471603021E+00 -0.11058608193E+01  0.11802838070E+01  0.00000000000E+00 0. -1.
         11    1    3    3    0    0  0.13443452225E+02  0.11476322064E+02 -0.29972832709E+02  0.34796595763E+02  0.51100000000E-03 0. -1.
        -11    1    3    3    0    0  0.10481912694E+01 -0.28181211923E+00 -0.10004006818E+02  0.10062717112E+02  0.51100000000E-03 0.  1.
        -12    1    3    3    0    0 -0.14807977395E+02 -0.11459225975E+02  0.41082700346E+02  0.45148403318E+02  0.00000000000E+00 0.  1.
</event>
<event>
 7    1  0.2569312E-015  0.9000783E+02  0.7816164E-02  0.1186339E+00
        -11   -1    0    0    0    0  0.00000000000E+00  0.00000000000E+00  0.45593999997E+02  0.45594000000E+02  0.51100000000E-03 0. -1.
         11   -1    0    0    0    0 -0.00000000000E+00 -0.00000000000E+00 -0.45593999997E+02  0.45594000000E+02  0.51100000000E-03 0.  1.
    9900012    2    1    2    0    0 -0.26729565316E+00  0.10380150065E+01 -0.49384714675E+00  0.90007827502E+02  0.90000090025E+02 0.  0.
         12    1    1    2    0    0  0.26729565316E+00 -0.10380150065E+01  0.49384714675E+00  0.11801724976E+01  0.00000000000E+00 0. -1.
         11    1    3    3    0    0 -0.19264490514E+01  0.96792854028E+01 -0.70582475219E+01  0.12133368460E+02  0.51100000000E-03 0. -1.
        -11    1    3    3    0    0 -0.37000891247E+00  0.32197244811E+02 -0.10061359879E+02  0.33734706800E+02  0.51100000000E-03 0.  1.
         12    1    3    3    0    0  0.20291623107E+01 -0.40838515207E+02  0.16625760254E+02  0.44139752242E+02  0.00000000000E+00 0. -1.
</event>
<event>
 7    1  0.2569312E-015  0.9000784E+02  0.7816164E-02  0.1186339E+00
        -11   -1    0    0    0    0  0.00000000000E+00  0.00000000000E+00  0.45593999997E+02  0.45594000000E+02  0.51100000000E-03 0.  1.
         11   -1    0    0    0    0 -0.00000000000E+00 -0.00000000000E+00 -0.45593999997E+02  0.45594000000E+02  0.51100000000E-03 0. -1.
    9900012    2    1    2    0    0 -0.49340805088E+00  0.99220171031E+00  0.40603389757E+00  0.90007839306E+02  0.90000101984E+02 0.  0.
         12    1    1    2    0    0  0.49340805088E+00 -0.99220171031E+00 -0.40603389757E+00  0.11801606944E+01  0.00000000000E+00 0. -1.
         11    1    3    3    0    0 -0.28722089850E+02  0.27729083417E+02  0.17724727624E+02  0.43680962467E+02  0.51100000000E-03 0. -1.
        -11    1    3    3    0    0 -0.84437383671E+00 -0.80971151353E+01 -0.12501974716E+01  0.82364576530E+01  0.51100000000E-03 0.  1.
        -12    1    3    3    0    0  0.29073055635E+02 -0.18639766571E+02 -0.16068496255E+02  0.38090419185E+02  0.00000000000E+00 0.  1.
</event>
<event>
 7    1  0.2569312E-015  0.9000768E+02  0.7816164E-02  0.1186339E+00
        -11   -1    0    0    0    0  0.00000000000E+00  0.00000000000E+00  0.45593999997E+02  0.45594000000E+02  0.51100000000E-03 0.  1.
         11   -1    0    0    0    0 -0.00000000000E+00 -0.00000000000E+00 -0.45593999997E+02  0.45594000000E+02  0.51100000000E-03 0. -1.
    9900012    2    1    2    0    0  0.12379721386E+00  0.11646509039E+01  0.14632563366E+00  0.90007682810E+02  0.89999943423E+02 0.  0.
         12    1    1    2    0    0 -0.12379721386E+00 -0.11646509039E+01 -0.14632563366E+00  0.11803171900E+01  0.00000000000E+00 0. -1.
         11    1    3    3    0    0 -0.10746628870E+02  0.16930145446E+01  0.27882409833E+01  0.11230788857E+02  0.51100000000E-03 0. -1.
        -11    1    3    3    0    0 -0.14090249832E+02 -0.10230173542E+01  0.32633824626E+02  0.35560486707E+02  0.51100000000E-03 0.  1.
         12    1    3    3    0    0  0.24960675916E+02  0.49465371347E+00 -0.35275739975E+02  0.43216407246E+02  0.00000000000E+00 0. -1.
</event>
<event>
 7    1  0.2569312E-015  0.9000755E+02  0.7816164E-02  0.1186339E+00
        -11   -1    0    0    0    0  0.00000000000E+00  0.00000000000E+00  0.45593999997E+02  0.45594000000E+02  0.51100000000E-03 0. -1.
         11   -1    0    0    0    0 -0.00000000000E+00 -0.00000000000E+00 -0.45593999997E+02  0.45594000000E+02  0.51100000000E-03 0.  1.
    9900012    2    1    2    0    0 -0.41538851696E+00  0.53625013375E+00 -0.96610573789E+00  0.90007545798E+02  0.89999804602E+02 0.  0.
         12    1    1    2    0    0  0.41538851696E+00 -0.53625013375E+00  0.96610573789E+00  0.11804542019E+01  0.00000000000E+00 0. -1.
         11    1    3    3    0    0 -0.63524098861E+01 -0.93954963342E+01  0.38683457505E+02  0.40311764381E+02  0.51100000000E-03 0. -1.
        -11    1    3    3    0    0  0.55142543311E+01  0.10235252530E+02 -0.17083438703E+01  0.11750992904E+02  0.51100000000E-03 0.  1.
        -12    1    3    3    0    0  0.42276703811E+00 -0.30350606198E+00 -0.37941219372E+02  0.37944788514E+02  0.00000000000E+00 0.  1.
</event>
<event>
 7    1  0.2569312E-015  0.9000768E+02  0.7816164E-02  0.1186339E+00
        -11   -1    0    0    0    0  0.00000000000E+00  0.00000000000E+00  0.45593999997E+02  0.45594000000E+02  0.51100000000E-03 0.  1.
         11   -1    0    0    0    0 -0.00000000000E+00 -0.00000000000E+00 -0.45593999997E+02  0.45594000000E+02  0.51100000000E-03 0. -1.
    9900012    2    1    2    0    0  0.69915873912E+00  0.44799174076E+00 -0.83883270745E+00  0.90007678072E+02  0.89999938623E+02 0.  0.
         12    1    1    2    0    0 -0.69915873912E+00 -0.44799174076E+00  0.83883270745E+00  0.11803219279E+01  0.00000000000E+00 0. -1.
         11    1    3    3    0    0 -0.13034458871E+01 -0.75059449461E+01 -0.44840190152E+01  0.88399438632E+01  0.51100000000E-03 0. -1.
        -11    1    3    3    0    0 -0.13824909793E+02 -0.48802753896E+01  0.38275369052E+02  0.40987182082E+02  0.51100000000E-03 0.  1.
         12    1    3    3    0    0  0.15827514419E+02  0.12834212076E+02 -0.34630182745E+02  0.40180552127E+02  0.00000000000E+00 0. -1.
</event>
<event>
 7    1  0.2569312E-015  0.9000772E+02  0.7816164E-02  0.1186339E+00
        -11   -1    0    0    0    0  0.00000000000E+00  0.00000000000E+00  0.45593999997E+02  0.45594000000E+02  0.51100000000E-03 0.  1.
         11   -1    0    0    0    0 -0.00000000000E+00 -0.00000000000E+00 -0.45593999997E+02  0.45594000000E+02  0.51100000000E-03 0. -1.
    9900012    2    1    2    0    0 -0.71930021352E+00 -0.18233873375E-01  0.93559204568E+00  0.90007721326E+02  0.89999982448E+02 0.  0.
         12    1    1    2    0    0  0.71930021352E+00  0.18233873375E-01 -0.93559204568E+00  0.11802786736E+01  0.00000000000E+00 0. -1.
         11    1    3    3    0    0 -0.12125647088E+01 -0.55285188585E+01 -0.71169904848E+01  0.90932055824E+01  0.51100000000E-03 0. -1.
        -11    1    3    3    0    0  0.82457714999E+01 -0.86232810985E+01  0.41824264227E+02  0.43492790240E+02  0.51100000000E-03 0.  1.
         12    1    3    3    0    0 -0.77525070047E+01  0.14133566084E+02 -0.33771681696E+02  0.37421725504E+02  0.00000000000E+00 0. -1.
</event>
<event>
 7    1  0.2569312E-015  0.9000778E+02  0.7816164E-02  0.1186339E+00
        -11   -1    0    0    0    0  0.00000000000E+00  0.00000000000E+00  0.45593999997E+02  0.45594000000E+02  0.51100000000E-03 0.  1.
         11   -1    0    0    0    0 -0.00000000000E+00 -0.00000000000E+00 -0.45593999997E+02  0.45594000000E+02  0.51100000000E-03 0. -1.
    9900012    2    1    2    0    0 -0.86015622811E+00 -0.20903173101E+00  0.78061661497E+00  0.90007777436E+02  0.90000039298E+02 0.  0.
         12    1    1    2    0    0  0.86015622811E+00  0.20903173101E+00 -0.78061661497E+00  0.11802225641E+01  0.00000000000E+00 0. -1.
         11    1    3    3    0    0  0.30335457760E+01  0.12736525078E+02 -0.35710415084E+02  0.38034921017E+02  0.51100000000E-03 0. -1.
        -11    1    3    3    0    0  0.70236881627E+00  0.25316934461E+01 -0.59826190782E+01  0.65341047554E+01  0.51100000000E-03 0.  1.
        -12    1    3    3    0    0 -0.45960708203E+01 -0.15477250256E+02  0.42473650777E+02  0.45438751664E+02  0.00000000000E+00 0.  1.
</event>
<event>
 7    1  0.2569312E-015  0.9000779E+02  0.7816164E-02  0.1186339E+00
        -11   -1    0    0    0    0  0.00000000000E+00  0.00000000000E+00  0.45593999997E+02  0.45594000000E+02  0.51100000000E-03 0.  1.
         11   -1    0    0    0    0 -0.00000000000E+00 -0.00000000000E+00 -0.45593999997E+02  0.45594000000E+02  0.51100000000E-03 0. -1.
    9900012    2    1    2    0    0 -0.11085486608E+00  0.65902180816E+00  0.97277625869E+00  0.90007791461E+02  0.90000053509E+02 0.  0.
         12    1    1    2    0    0  0.11085486608E+00 -0.65902180816E+00 -0.97277625869E+00  0.11802085385E+01  0.00000000000E+00 0. -1.
         11    1    3    3    0    0 -0.72095265429E+01 -0.51109486866E+01  0.78573269629E+01  0.11825255038E+02  0.51100000000E-03 0. -1.
        -11    1    3    3    0    0 -0.37248101166E+01 -0.28918789420E+02  0.17884537303E+02  0.34205661326E+02  0.51100000000E-03 0.  1.
         12    1    3    3    0    0  0.10823481793E+02  0.34688759915E+02 -0.24769088008E+02  0.43976875097E+02  0.00000000000E+00 0. -1.
</event>
<event>
 7    1  0.2569312E-015  0.9000776E+02  0.7816164E-02  0.1186339E+00
        -11   -1    0    0    0    0  0.00000000000E+00  0.00000000000E+00  0.45593999997E+02  0.45594000000E+02  0.51100000000E-03 0.  1.
         11   -1    0    0    0    0 -0.00000000000E+00 -0.00000000000E+00 -0.45593999997E+02  0.45594000000E+02  0.51100000000E-03 0. -1.
    9900012    2    1    2    0    0 -0.87087063784E+00  0.46755616755E-01  0.79521990345E+00  0.90007755767E+02  0.90000017343E+02 0.  0.
         12    1    1    2    0    0  0.87087063784E+00 -0.46755616755E-01 -0.79521990345E+00  0.11802442334E+01  0.00000000000E+00 0. -1.
         11    1    3    3    0    0 -0.43549186672E+01 -0.12713797456E+02 -0.23296418531E+01  0.13639398585E+02  0.51100000000E-03 0. -1.
        -11    1    3    3    0    0  0.14341815521E+01  0.12385161371E+02  0.38737648195E+02  0.40694649364E+02  0.51100000000E-03 0.  1.
         12    1    3    3    0    0  0.20498664772E+01  0.37539170140E+00 -0.35612786439E+02  0.35673707817E+02  0.00000000000E+00 0. -1.
</event>
<event>
 7    1  0.2569312E-015  0.9000773E+02  0.7816164E-02  0.1186339E+00
        -11   -1    0    0    0    0  0.00000000000E+00  0.00000000000E+00  0.45593999997E+02  0.45594000000E+02  0.51100000000E-03 0. -1.
         11   -1    0    0    0    0 -0.00000000000E+00 -0.00000000000E+00 -0.45593999997E+02  0.45594000000E+02  0.51100000000E-03 0.  1.
    9900012    2    1    2    0    0 -0.26773220955E+00 -0.11322906278E+01  0.19816125160E+00  0.90007732876E+02  0.89999994150E+02 0.  0.
         12    1    1    2    0    0  0.26773220955E+00  0.11322906278E+01 -0.19816125160E+00  0.11802671238E+01  0.00000000000E+00 0. -1.
         11    1    3    3    0    0  0.12830285797E+02 -0.18086006607E+02  0.27736955779E+02  0.35511386692E+02  0.51100000000E-03 0. -1.
        -11    1    3    3    0    0  0.27970946066E+01 -0.75695167275E+01  0.59671493924E+01  0.10036343650E+02  0.51100000000E-03 0.  1.
        -12    1    3    3    0    0 -0.15895112613E+02  0.24523232706E+02 -0.33505943920E+02  0.44460002534E+02  0.00000000000E+00 0.  1.
</event>
<event>
 7    1  0.2569312E-015  0.9000774E+02  0.7816164E-02  0.1186339E+00
        -11   -1    0    0    0    0  0.00000000000E+00  0.00000000000E+00  0.45593999997E+02  0.45594000000E+02  0.51100000000E-03 0.  1.
         11   -1    0    0    0    0 -0.00000000000E+00 -0.00000000000E+00 -0.45593999997E+02  0.45594000000E+02  0.51100000000E-03 0. -1.
    9900012    2    1    2    0    0 -0.42456121373E+00 -0.28291489087E+00  0.10642958633E+01  0.90007737849E+02  0.89999999189E+02 0.  0.
         12    1    1    2    0    0  0.42456121373E+00  0.28291489087E+00 -0.10642958633E+01  0.11802621507E+01  0.00000000000E+00 0. -1.
         11    1    3    3    0    0  0.19918147145E+02 -0.30360886773E+02 -0.15506560062E+02  0.39483787009E+02  0.51100000000E-03 0. -1.
        -11    1    3    3    0    0  0.14534581647E+01  0.90290901490E+01 -0.74988673712E+01  0.11826665704E+02  0.51100000000E-03 0.  1.
        -12    1    3    3    0    0 -0.21796166524E+02  0.21048881733E+02  0.24069723297E+02  0.38697285136E+02  0.00000000000E+00 0.  1.
</event>
<event>
 7    1  0.2569312E-015  0.9000845E+02  0.7816164E-02  0.1186338E+00
        -11   -1    0    0    0    0  0.00000000000E+00  0.00000000000E+00  0.45593999997E+02  0.45594000000E+02  0.51100000000E-03 0. -1.
         11   -1    0    0    0    0 -0.00000000000E+00 -0.00000000000E+00 -0.45593999997E+02  0.45594000000E+02  0.51100000000E-03 0.  1.
    9900012    2    1    2    0    0 -0.28890883032E+00 -0.10576952208E+01 -0.43490211000E+00  0.90008454606E+02  0.90000725403E+02 0.  0.
         12    1    1    2    0    0  0.28890883032E+00  0.10576952208E+01  0.43490211000E+00  0.11795453945E+01  0.00000000000E+00 0. -1.
         11    1    3    3    0    0  0.37636646755E+01  0.64805878937E+01  0.19144403072E+00  0.74966554086E+01  0.51100000000E-03 0. -1.
        -11    1    3    3    0    0  0.31486509693E+01  0.57381696805E+01 -0.39900368675E+02  0.40433649537E+02  0.51100000000E-03 0.  1.
         12    1    3    3    0    0 -0.72012244752E+01 -0.13276452795E+02  0.39274022534E+02  0.42078149660E+02  0.00000000000E+00 0. -1.
</event>
<event>
 7    1  0.2569312E-015  0.9000772E+02  0.7816164E-02  0.1186339E+00
        -11   -1    0    0    0    0  0.00000000000E+00  0.00000000000E+00  0.45593999997E+02  0.45594000000E+02  0.51100000000E-03 0.  1.
         11   -1    0    0    0    0 -0.00000000000E+00 -0.00000000000E+00 -0.45593999997E+02  0.45594000000E+02  0.51100000000E-03 0. -1.
    9900012    2    1    2    0    0  0.60564559598E+00  0.34287933022E+00  0.95325255932E+00  0.90007718989E+02  0.89999980080E+02 0.  0.
         12    1    1    2    0    0 -0.60564559598E+00 -0.34287933022E+00 -0.95325255932E+00  0.11802810110E+01  0.00000000000E+00 0. -1.
         11    1    3    3    0    0  0.12739380328E+02  0.11445587453E+00  0.36672005120E+01  0.13257196957E+02  0.51100000000E-03 0. -1.
        -11    1    3    3    0    0  0.30128490113E+02  0.94094659889E+01 -0.95249502215E+01  0.32969510820E+02  0.51100000000E-03 0.  1.
         12    1    3    3    0    0 -0.42262224846E+02 -0.91810425332E+01  0.68110022688E+01  0.43781011213E+02  0.00000000000E+00 0. -1.
</event>
<event>
 7    1  0.2569312E-015  0.9000796E+02  0.7816164E-02  0.1186339E+00
        -11   -1    0    0    0    0  0.00000000000E+00  0.00000000000E+00  0.45593999997E+02  0.45594000000E+02  0.51100000000E-03 0.  1.
         11   -1    0    0    0    0 -0.00000000000E+00 -0.00000000000E+00 -0.45593999997E+02  0.45594000000E+02  0.51100000000E-03 0. -1.
    9900012    2    1    2    0    0 -0.36222472249E+00 -0.97973911181E+00  0.54899552710E+00  0.90007961202E+02  0.90000225489E+02 0.  0.
         12    1    1    2    0    0  0.36222472249E+00  0.97973911181E+00 -0.54899552710E+00  0.11800387983E+01  0.00000000000E+00 0. -1.
         11    1    3    3    0    0  0.14495639094E+02 -0.34579445418E+02 -0.40328327345E+01  0.37711077129E+02  0.51100000000E-03 0. -1.
        -11    1    3    3    0    0  0.74993454056E+01 -0.33211752289E+01 -0.24621467619E+01  0.85634428445E+01  0.51100000000E-03 0.  1.
        -12    1    3    3    0    0 -0.22357209222E+02  0.36920881535E+02  0.70439750235E+01  0.43733441228E+02  0.00000000000E+00 0.  1.
</event>
<event>
 7    1  0.2569312E-015  0.9000772E+02  0.7816164E-02  0.1186339E+00
        -11   -1    0    0    0    0  0.00000000000E+00  0.00000000000E+00  0.45593999997E+02  0.45594000000E+02  0.51100000000E-03 0. -1.
         11   -1    0    0    0    0 -0.00000000000E+00 -0.00000000000E+00 -0.45593999997E+02  0.45594000000E+02  0.51100000000E-03 0.  1.
    9900012    2    1    2    0    0  0.14786025366E+00 -0.97909554087E+00 -0.64231873453E+00  0.90007718640E+02  0.89999979726E+02 0.  0.
         12    1    1    2    0    0 -0.14786025366E+00  0.97909554087E+00  0.64231873453E+00  0.11802813603E+01  0.00000000000E+00 0. -1.
         11    1    3    3    0    0 -0.18270857221E+01 -0.84863383933E+01 -0.39877309211E+01  0.95529147239E+01  0.51100000000E-03 0. -1.
        -11    1    3    3    0    0  0.14794930576E+02 -0.20863326783E+02 -0.26851437355E+02  0.37083258534E+02  0.51100000000E-03 0.  1.
         12    1    3    3    0    0 -0.12819984600E+02  0.28370569635E+02  0.30196849541E+02  0.43371545382E+02  0.00000000000E+00 0. -1.
</event>
<event>
 7    1  0.2569312E-015  0.9000766E+02  0.7816164E-02  0.1186339E+00
        -11   -1    0    0    0    0  0.00000000000E+00  0.00000000000E+00  0.45593999997E+02  0.45594000000E+02  0.51100000000E-03 0.  1.
         11   -1    0    0    0    0 -0.00000000000E+00 -0.00000000000E+00 -0.45593999997E+02  0.45594000000E+02  0.51100000000E-03 0. -1.
    9900012    2    1    2    0    0 -0.64160850531E+00 -0.97705887418E+00  0.16401048445E+00  0.90007658966E+02  0.89999919264E+02 0.  0.
         12    1    1    2    0    0  0.64160850531E+00  0.97705887418E+00 -0.16401048445E+00  0.11803410341E+01  0.00000000000E+00 0. -1.
         11    1    3    3    0    0  0.37119583557E+02 -0.15573231814E+02 -0.59986034645E+00  0.40258525373E+02  0.51100000000E-03 0. -1.
        -11    1    3    3    0    0 -0.34231621465E+01 -0.60616885920E+01 -0.59005565294E+01  0.91257150561E+01  0.51100000000E-03 0.  1.
        -12    1    3    3    0    0 -0.34338029915E+02  0.20657861532E+02  0.66644273603E+01  0.40623418536E+02  0.00000000000E+00 0.  1.
</event>
<event>
 7    1  0.2569312E-015  0.9000778E+02  0.7816164E-02  0.1186339E+00
        -11   -1    0    0    0    0  0.00000000000E+00  0.00000000000E+00  0.45593999997E+02  0.45594000000E+02  0.51100000000E-03 0.  1.
         11   -1    0    0    0    0 -0.00000000000E+00 -0.00000000000E+00 -0.45593999997E+02  0.45594000000E+02  0.51100000000E-03 0. -1.
    9900012    2    1    2    0    0 -0.33910771061E-01  0.68747960405E+00 -0.95872421014E+00  0.90007775336E+02  0.90000037170E+02 0.  0.
         12    1    1    2    0    0  0.33910771061E-01 -0.68747960405E+00  0.95872421014E+00  0.11802246640E+01  0.00000000000E+00 0. -1.
         11    1    3    3    0    0  0.93854954334E+01  0.13493806168E+01  0.18295906689E+01  0.96569019285E+01  0.51100000000E-03 0. -1.
        -11    1    3    3    0    0  0.12095317147E+02 -0.34076971904E+02  0.11768131615E+02  0.38026643726E+02  0.51100000000E-03 0.  1.
         12    1    3    3    0    0 -0.21514723352E+02  0.33415070892E+02 -0.14556446494E+02  0.42324229682E+02  0.00000000000E+00 0. -1.
</event>
<event>
 7    1  0.2569312E-015  0.9000780E+02  0.7816164E-02  0.1186339E+00
        -11   -1    0    0    0    0  0.00000000000E+00  0.00000000000E+00  0.45593999997E+02  0.45594000000E+02  0.51100000000E-03 0.  1.
         11   -1    0    0    0    0 -0.00000000000E+00 -0.00000000000E+00 -0.45593999997E+02  0.45594000000E+02  0.51100000000E-03 0. -1.
    9900012    2    1    2    0    0 -0.92846938307E+00  0.50191709970E+00  0.52810893845E+00  0.90007798652E+02  0.90000060794E+02 0.  0.
         12    1    1    2    0    0  0.92846938307E+00 -0.50191709970E+00 -0.52810893845E+00  0.11802013477E+01  0.00000000000E+00 0. -1.
         11    1    3    3    0    0 -0.99515758519E+00 -0.12143699181E+02 -0.20099226196E+00  0.12186064442E+02  0.51100000000E-03 0. -1.
        -11    1    3    3    0    0 -0.24630149040E+02 -0.14423685100E+01  0.28761590295E+02  0.37893980329E+02  0.51100000000E-03 0.  1.
         12    1    3    3    0    0  0.24696837242E+02  0.14087984791E+02 -0.28032489094E+02  0.39927753882E+02  0.00000000000E+00 0. -1.
</event>
<event>
 7    1  0.2569312E-015  0.9000775E+02  0.7816164E-02  0.1186339E+00
        -11   -1    0    0    0    0  0.00000000000E+00  0.00000000000E+00  0.45593999997E+02  0.45594000000E+02  0.51100000000E-03 0. -1.
         11   -1    0    0    0    0 -0.00000000000E+00 -0.00000000000E+00 -0.45593999997E+02  0.45594000000E+02  0.51100000000E-03 0.  1.
    9900012    2    1    2    0    0 -0.26412786443E+00 -0.10918064805E+00 -0.11451221930E+01  0.90007750544E+02  0.90000012051E+02 0.  0.
         12    1    1    2    0    0  0.26412786443E+00  0.10918064805E+00  0.11451221930E+01  0.11802494565E+01  0.00000000000E+00 0. -1.
         11    1    3    3    0    0  0.20299374253E+02  0.80283533797E+01  0.29176593527E+02  0.36438889434E+02  0.51100000000E-03 0. -1.
        -11    1    3    3    0    0 -0.45812644471E+01 -0.42100131803E+01  0.90003610592E+01  0.10941603830E+02  0.51100000000E-03 0.  1.
        -12    1    3    3    0    0 -0.15982237670E+02 -0.39275208475E+01 -0.39322076780E+02  0.42627257280E+02  0.00000000000E+00 0.  1.
</event>
<event>
 7    1  0.2569312E-015  0.9000762E+02  0.7816164E-02  0.1186339E+00
        -11   -1    0    0    0    0  0.00000000000E+00  0.00000000000E+00  0.45593999997E+02  0.45594000000E+02  0.51100000000E-03 0.  1.
         11   -1    0    0    0    0 -0.00000000000E+00 -0.00000000000E+00 -0.45593999997E+02  0.45594000000E+02  0.51100000000E-03 0. -1.
    9900012    2    1    2    0    0  0.68339511194E+00 -0.66577534960E+00  0.69499314406E+00  0.90007618212E+02  0.89999877972E+02 0.  0.
         12    1    1    2    0    0 -0.68339511194E+00  0.66577534960E+00 -0.69499314406E+00  0.11803817880E+01  0.00000000000E+00 0. -1.
         11    1    3    3    0    0 -0.19616106695E+01 -0.46964890933E+01 -0.85367795995E+01  0.99388898984E+01  0.51100000000E-03 0. -1.
        -11    1    3    3    0    0 -0.32255871882E+02 -0.18318960796E+02  0.10673857953E+02  0.38599959059E+02  0.51100000000E-03 0.  1.
         12    1    3    3    0    0  0.34900877663E+02  0.22349674540E+02 -0.14420852095E+01  0.41468769254E+02  0.00000000000E+00 0. -1.
</event>
<event>
 7    1  0.2569312E-015  0.9000779E+02  0.7816164E-02  0.1186339E+00
        -11   -1    0    0    0    0  0.00000000000E+00  0.00000000000E+00  0.45593999997E+02  0.45594000000E+02  0.51100000000E-03 0.  1.
         11   -1    0    0    0    0 -0.00000000000E+00 -0.00000000000E+00 -0.45593999997E+02  0.45594000000E+02  0.51100000000E-03 0. -1.
    9900012    2    1    2    0    0  0.92732360698E-01  0.60900768943E+00  0.10066757787E+01  0.90007794179E+02  0.90000056262E+02 0.  0.
         12    1    1    2    0    0 -0.92732360698E-01 -0.60900768943E+00 -0.10066757787E+01  0.11802058210E+01  0.00000000000E+00 0. -1.
         11    1    3    3    0    0 -0.46816976063E+01  0.68495873427E+01 -0.11198251372E+01  0.83719261727E+01  0.51100000000E-03 0. -1.
        -11    1    3    3    0    0 -0.31942299597E+02 -0.94534997058E+01  0.21844924411E+02  0.39835660946E+02  0.51100000000E-03 0.  1.
         12    1    3    3    0    0  0.36716729564E+02  0.32129200525E+01 -0.19718423495E+02  0.41800207060E+02  0.00000000000E+00 0. -1.
</event>
<event>
 7    1  0.2569312E-015  0.9000774E+02  0.7816164E-02  0.1186339E+00
        -11   -1    0    0    0    0  0.00000000000E+00  0.00000000000E+00  0.45593999997E+02  0.45594000000E+02  0.51100000000E-03 0.  1.
         11   -1    0    0    0    0 -0.00000000000E+00 -0.00000000000E+00 -0.45593999997E+02  0.45594000000E+02  0.51100000000E-03 0. -1.
    9900012    2    1    2    0    0  0.57724150495E+00  0.71359304963E+00  0.74201630600E+00  0.90007741133E+02  0.90000002516E+02 0.  0.
         12    1    1    2    0    0 -0.57724150495E+00 -0.71359304963E+00 -0.74201630600E+00  0.11802588673E+01  0.00000000000E+00 0. -1.
         11    1    3    3    0    0  0.58580478140E+01 -0.43195740605E+01 -0.70708185139E+01  0.10147508018E+02  0.51100000000E-03 0. -1.
        -11    1    3    3    0    0  0.33254034001E+02  0.74830093727E+01  0.19813257151E+02  0.39425770326E+02  0.51100000000E-03 0.  1.
         12    1    3    3    0    0 -0.38534840310E+02 -0.24498422626E+01 -0.12000422331E+02  0.40434462788E+02  0.00000000000E+00 0. -1.
</event>
<event>
 7    1  0.2569312E-015  0.9000767E+02  0.7816164E-02  0.1186339E+00
        -11   -1    0    0    0    0  0.00000000000E+00  0.00000000000E+00  0.45593999997E+02  0.45594000000E+02  0.51100000000E-03 0.  1.
         11   -1    0    0    0    0 -0.00000000000E+00 -0.00000000000E+00 -0.45593999997E+02  0.45594000000E+02  0.51100000000E-03 0. -1.
    9900012    2    1    2    0    0 -0.11428416991E+01  0.27448937123E+00 -0.10840025367E+00  0.90007668615E+02  0.89999929040E+02 0.  0.
         12    1    1    2    0    0  0.11428416991E+01 -0.27448937123E+00  0.10840025367E+00  0.11803313853E+01  0.00000000000E+00 0. -1.
         11    1    3    3    0    0  0.18880918009E+01 -0.76619138220E+01 -0.61148438893E+01  0.99830421274E+01  0.51100000000E-03 0. -1.
        -11    1    3    3    0    0  0.21359173239E+02 -0.51427332599E+01  0.34115660621E+02  0.40577583549E+02  0.51100000000E-03 0.  1.
         12    1    3    3    0    0 -0.24390106739E+02  0.13079136453E+02 -0.28109216985E+02  0.39447042938E+02  0.00000000000E+00 0. -1.
</event>
<event>
 7    1  0.2569312E-015  0.9000775E+02  0.7816164E-02  0.1186339E+00
        -11   -1    0    0    0    0  0.00000000000E+00  0.00000000000E+00  0.45593999997E+02  0.45594000000E+02  0.51100000000E-03 0. -1.
         11   -1    0    0    0    0 -0.00000000000E+00 -0.00000000000E+00 -0.45593999997E+02  0.45594000000E+02  0.51100000000E-03 0.  1.
    9900012    2    1    2    0    0 -0.77505399920E+00 -0.26708670366E+00  0.84908725280E+00  0.90007748683E+02  0.90000010165E+02 0.  0.
         12    1    1    2    0    0  0.77505399920E+00  0.26708670366E+00 -0.84908725280E+00  0.11802513172E+01  0.00000000000E+00 0. -1.
         11    1    3    3    0    0 -0.16218794523E+02 -0.30343235224E+02  0.15536431200E+02  0.37751051830E+02  0.51100000000E-03 0. -1.
        -11    1    3    3    0    0  0.60205944671E+01 -0.67111565180E+01  0.40814090660E+01  0.98967206575E+01  0.51100000000E-03 0.  1.
        -12    1    3    3    0    0  0.94231460567E+01  0.36787305038E+02 -0.18768753013E+02  0.42359976195E+02  0.00000000000E+00 0.  1.
</event>
<event>
 7    1  0.2569312E-015  0.9000773E+02  0.7816164E-02  0.1186339E+00
        -11   -1    0    0    0    0  0.00000000000E+00  0.00000000000E+00  0.45593999997E+02  0.45594000000E+02  0.51100000000E-03 0.  1.
         11   -1    0    0    0    0 -0.00000000000E+00 -0.00000000000E+00 -0.45593999997E+02  0.45594000000E+02  0.51100000000E-03 0. -1.
    9900012    2    1    2    0    0 -0.94650656982E+00 -0.66670291480E+00  0.22947374313E+00  0.90007734919E+02  0.89999996220E+02 0.  0.
         12    1    1    2    0    0  0.94650656982E+00  0.66670291480E+00 -0.22947374313E+00  0.11802650813E+01  0.00000000000E+00 0. -1.
         11    1    3    3    0    0  0.13868066496E+02  0.70863666920E+01  0.39893653340E+01  0.16076532501E+02  0.51100000000E-03 0. -1.
        -11    1    3    3    0    0  0.21985113177E+02 -0.15371775479E+02 -0.19524016146E+02  0.33178666181E+02  0.51100000000E-03 0.  1.
         12    1    3    3    0    0 -0.36799686243E+02  0.76187058720E+01  0.15764124555E+02  0.40752536237E+02  0.00000000000E+00 0. -1.
</event>
<event>
 7    1  0.2569312E-015  0.9000772E+02  0.7816164E-02  0.1186339E+00
        -11   -1    0    0    0    0  0.00000000000E+00  0.00000000000E+00  0.45593999997E+02  0.45594000000E+02  0.51100000000E-03 0.  1.
         11   -1    0    0    0    0 -0.00000000000E+00 -0.00000000000E+00 -0.45593999997E+02  0.45594000000E+02  0.51100000000E-03 0. -1.
    9900012    2    1    2    0    0 -0.21022128519E+00 -0.64949596589E+00  0.96281500442E+00  0.90007724299E+02  0.89999985459E+02 0.  0.
         12    1    1    2    0    0  0.21022128519E+00  0.64949596589E+00 -0.96281500442E+00  0.11802757013E+01  0.00000000000E+00 0. -1.
         11    1    3    3    0    0  0.83981522341E+01 -0.23975513582E+02 -0.28048904943E+02  0.37843034779E+02  0.51100000000E-03 0. -1.
        -11    1    3    3    0    0 -0.29466479112E+01 -0.87501594062E+01  0.11544594341E+01  0.93048804610E+01  0.51100000000E-03 0.  1.
        -12    1    3    3    0    0 -0.56617256081E+01  0.32076177023E+02  0.27857260514E+02  0.42859809059E+02  0.00000000000E+00 0.  1.
</event>
<event>
 7    1  0.2569312E-015  0.9000770E+02  0.7816164E-02  0.1186339E+00
        -11   -1    0    0    0    0  0.00000000000E+00  0.00000000000E+00  0.45593999997E+02  0.45594000000E+02  0.51100000000E-03 0. -1.
         11   -1    0    0    0    0 -0.00000000000E+00 -0.00000000000E+00 -0.45593999997E+02  0.45594000000E+02  0.51100000000E-03 0.  1.
    9900012    2    1    2    0    0  0.15699481564E+00 -0.94180157024E+00 -0.69387725253E+00  0.90007702067E+02  0.89999962934E+02 0.  0.
         12    1    1    2    0    0 -0.15699481564E+00  0.94180157024E+00  0.69387725253E+00  0.11802979333E+01  0.00000000000E+00 0. -1.
         11    1    3    3    0    0  0.24402773280E+02  0.29745125033E+02  0.67320974410E+01  0.39058788296E+02  0.51100000000E-03 0. -1.
        -11    1    3    3    0    0  0.49811448100E+01 -0.75225574828E+01  0.65217760458E+01  0.11132575522E+02  0.51100000000E-03 0.  1.
        -12    1    3    3    0    0 -0.29226923274E+02 -0.23164369120E+02 -0.13947750739E+02  0.39816338248E+02  0.00000000000E+00 0.  1.
</event>
<event>
 7    1  0.2569312E-015  0.9000764E+02  0.7816164E-02  0.1186339E+00
        -11   -1    0    0    0    0  0.00000000000E+00  0.00000000000E+00  0.45593999997E+02  0.45594000000E+02  0.51100000000E-03 0.  1.
         11   -1    0    0    0    0 -0.00000000000E+00 -0.00000000000E+00 -0.45593999997E+02  0.45594000000E+02  0.51100000000E-03 0. -1.
    9900012    2    1    2    0    0 -0.61446466964E+00 -0.37907718014E+00 -0.93380110697E+00  0.90007639527E+02  0.89999899569E+02 0.  0.
         12    1    1    2    0    0  0.61446466964E+00  0.37907718014E+00  0.93380110697E+00  0.11803604730E+01  0.00000000000E+00 0. -1.
         11    1    3    3    0    0  0.89230565405E+01 -0.11518204101E+02 -0.35622642938E+02  0.38487175187E+02  0.51100000000E-03 0. -1.
        -11    1    3    3    0    0  0.10043306504E+01  0.81933259025E+01 -0.54661293415E+01  0.99003959335E+01  0.51100000000E-03 0.  1.
        -12    1    3    3    0    0 -0.10541851861E+02  0.29458010180E+01  0.40154971173E+02  0.41620068406E+02  0.00000000000E+00 0.  1.
</event>
<event>
 7    1  0.2569312E-015  0.9000741E+02  0.7816164E-02  0.1186340E+00
        -11   -1    0    0    0    0  0.00000000000E+00  0.00000000000E+00  0.45593999997E+02  0.45594000000E+02  0.51100000000E-03 0.  1.
         11   -1    0    0    0    0 -0.00000000000E+00 -0.00000000000E+00 -0.45593999997E+02  0.45594000000E+02  0.51100000000E-03 0. -1.
    9900012    2    1    2    0    0  0.50526763228E+00 -0.94327626010E+00 -0.49872191501E+00  0.90007411574E+02  0.89999668606E+02 0.  0.
         12    1    1    2    0    0 -0.50526763228E+00  0.94327626010E+00  0.49872191501E+00  0.11805884260E+01  0.00000000000E+00 0. -1.
         11    1    3    3    0    0  0.76687327833E+01  0.69684706879E+01  0.49792328178E+00  0.10373860134E+02  0.51100000000E-03 0. -1.
        -11    1    3    3    0    0  0.23467435600E+02 -0.16754956281E+02  0.25257796177E+02  0.38332823553E+02  0.51100000000E-03 0.  1.
         12    1    3    3    0    0 -0.30630900751E+02  0.88432093325E+01 -0.26254441374E+02  0.41300727886E+02  0.00000000000E+00 0. -1.
</event>
<event>
 7    1  0.2569312E-015  0.9000770E+02  0.7816164E-02  0.1186339E+00
        -11   -1    0    0    0    0  0.00000000000E+00  0.00000000000E+00  0.45593999997E+02  0.45594000000E+02  0.51100000000E-03 0. -1.
         11   -1    0    0    0    0 -0.00000000000E+00 -0.00000000000E+00 -0.45593999997E+02  0.45594000000E+02  0.51100000000E-03 0.  1.
    9900012    2    1    2    0    0  0.95278836584E+00 -0.39269821990E+00 -0.57540963885E+00  0.90007697575E+02  0.89999958383E+02 0.  0.
         12    1    1    2    0    0 -0.95278836584E+00  0.39269821990E+00  0.57540963885E+00  0.11803024250E+01  0.00000000000E+00 0. -1.
         11    1    3    3    0    0  0.48391256563E+01 -0.27035205068E+01 -0.77437160548E+01  0.95231979317E+01  0.51100000000E-03 0. -1.
        -11    1    3    3    0    0 -0.94884083414E+01 -0.26889867439E+02 -0.24100894782E+02  0.37335612936E+02  0.51100000000E-03 0.  1.
         12    1    3    3    0    0  0.56020710509E+01  0.29200689726E+02  0.31269201198E+02  0.43148886707E+02  0.00000000000E+00 0. -1.
</event>
<event>
 7    1  0.2569312E-015  0.9000777E+02  0.7816164E-02  0.1186339E+00
        -11   -1    0    0    0    0  0.00000000000E+00  0.00000000000E+00  0.45593999997E+02  0.45594000000E+02  0.51100000000E-03 0.  1.
         11   -1    0    0    0    0 -0.00000000000E+00 -0.00000000000E+00 -0.45593999997E+02  0.45594000000E+02  0.51100000000E-03 0. -1.
    9900012    2    1    2    0    0  0.28927228420E+00  0.44927983993E-01  0.11433456183E+01  0.90007772826E+02  0.90000034628E+02 0.  0.
         12    1    1    2    0    0 -0.28927228420E+00 -0.44927983993E-01 -0.11433456183E+01  0.11802271735E+01  0.00000000000E+00 0. -1.
         11    1    3    3    0    0 -0.29834420268E+02 -0.11138319532E+02 -0.46171713952E+01  0.32178767327E+02  0.51100000000E-03 0. -1.
        -11    1    3    3    0    0  0.13352976140E+02 -0.10947881144E+02 -0.15226968349E+02  0.23022133670E+02  0.51100000000E-03 0.  1.
        -12    1    3    3    0    0  0.16770716412E+02  0.22131128660E+02  0.20987485363E+02  0.34806871830E+02  0.00000000000E+00 0.  1.
</event>
<event>
 7    1  0.2569312E-015  0.9000792E+02  0.7816164E-02  0.1186339E+00
        -11   -1    0    0    0    0  0.00000000000E+00  0.00000000000E+00  0.45593999997E+02  0.45594000000E+02  0.51100000000E-03 0. -1.
         11   -1    0    0    0    0 -0.00000000000E+00 -0.00000000000E+00 -0.45593999997E+02  0.45594000000E+02  0.51100000000E-03 0.  1.
    9900012    2    1    2    0    0 -0.80425072827E+00  0.39115330631E+00 -0.76990718650E+00  0.90007924910E+02  0.90000188718E+02 0.  0.
         12    1    1    2    0    0  0.80425072827E+00 -0.39115330631E+00  0.76990718650E+00  0.11800750903E+01  0.00000000000E+00 0. -1.
         11    1    3    3    0    0 -0.33863609496E+01 -0.60898454487E+01 -0.14666660848E+02  0.16237752269E+02  0.51100000000E-03 0. -1.
        -11    1    3    3    0    0  0.26458235969E+02 -0.10325191174E+02 -0.15484394307E+02  0.32348327479E+02  0.51100000000E-03 0.  1.
         12    1    3    3    0    0 -0.23876125748E+02  0.16806189929E+02  0.29381147968E+02  0.41421845161E+02  0.00000000000E+00 0. -1.
</event>
<event>
 7    1  0.2569312E-015  0.9000773E+02  0.7816164E-02  0.1186339E+00
        -11   -1    0    0    0    0  0.00000000000E+00  0.00000000000E+00  0.45593999997E+02  0.45594000000E+02  0.51100000000E-03 0.  1.
         11   -1    0    0    0    0 -0.00000000000E+00 -0.00000000000E+00 -0.45593999997E+02  0.45594000000E+02  0.51100000000E-03 0. -1.
    9900012    2    1    2    0    0  0.43033864571E+00 -0.24204763117E-01  0.10987511971E+01  0.90007732482E+02  0.89999993751E+02 0.  0.
         12    1    1    2    0    0 -0.43033864571E+00  0.24204763117E-01 -0.10987511971E+01  0.11802675179E+01  0.00000000000E+00 0. -1.
         11    1    3    3    0    0  0.14142052050E+02 -0.12520115792E+02 -0.31923528255E+02  0.37092621802E+02  0.51100000000E-03 0. -1.
        -11    1    3    3    0    0 -0.69326094746E+01  0.14040809066E+01 -0.75294291858E+01  0.10330770612E+02  0.51100000000E-03 0.  1.
        -12    1    3    3    0    0 -0.67791039295E+01  0.11091830122E+02  0.40551708638E+02  0.42584340068E+02  0.00000000000E+00 0.  1.
</event>
<event>
 7    1  0.2569312E-015  0.9000770E+02  0.7816164E-02  0.1186339E+00
        -11   -1    0    0    0    0  0.00000000000E+00  0.00000000000E+00  0.45593999997E+02  0.45594000000E+02  0.51100000000E-03 0. -1.
         11   -1    0    0    0    0 -0.00000000000E+00 -0.00000000000E+00 -0.45593999997E+02  0.45594000000E+02  0.51100000000E-03 0.  1.
    9900012    2    1    2    0    0 -0.67600679175E+00 -0.36504061206E-01 -0.96684326002E+00  0.90007701894E+02  0.89999962759E+02 0.  0.
         12    1    1    2    0    0  0.67600679175E+00  0.36504061206E-01  0.96684326002E+00  0.11802981057E+01  0.00000000000E+00 0. -1.
         11    1    3    3    0    0  0.18339977844E+02  0.18472988172E+02  0.11289236068E+02  0.28373454682E+02  0.51100000000E-03 0. -1.
        -11    1    3    3    0    0 -0.79871948104E+01  0.84147397692E+01  0.16864115535E+02  0.20469526603E+02  0.51100000000E-03 0.  1.
         12    1    3    3    0    0 -0.11028789826E+02 -0.26924232002E+02 -0.29120194863E+02  0.41164720609E+02  0.00000000000E+00 0. -1.
</event>
<event>
 7    1  0.2569312E-015  0.9000777E+02  0.7816164E-02  0.1186339E+00
        -11   -1    0    0    0    0  0.00000000000E+00  0.00000000000E+00  0.45593999997E+02  0.45594000000E+02  0.51100000000E-03 0. -1.
         11   -1    0    0    0    0 -0.00000000000E+00 -0.00000000000E+00 -0.45593999997E+02  0.45594000000E+02  0.51100000000E-03 0.  1.
    9900012    2    1    2    0    0  0.95622411801E+00  0.34931833672E+00 -0.59712788400E+00  0.90007767153E+02  0.90000028879E+02 0.  0.
         12    1    1    2    0    0 -0.95622411801E+00 -0.34931833672E+00  0.59712788400E+00  0.11802328474E+01  0.00000000000E+00 0. -1.
         11    1    3    3    0    0 -0.50027255354E+00  0.22465810047E+02  0.26887094470E+02  0.35041100767E+02  0.51100000000E-03 0. -1.
        -11    1    3    3    0    0 -0.13812434407E+01  0.20450358287E+01  0.99889419693E+01  0.10289264644E+02  0.51100000000E-03 0.  1.
        -12    1    3    3    0    0  0.28377401123E+01 -0.24161527539E+02 -0.37473164323E+02  0.44677401741E+02  0.00000000000E+00 0.  1.
</event>
<event>
 7    1  0.2569312E-015  0.9000795E+02  0.7816164E-02  0.1186339E+00
        -11   -1    0    0    0    0  0.00000000000E+00  0.00000000000E+00  0.45593999997E+02  0.45594000000E+02  0.51100000000E-03 0.  1.
         11   -1    0    0    0    0 -0.00000000000E+00 -0.00000000000E+00 -0.45593999997E+02  0.45594000000E+02  0.51100000000E-03 0. -1.
    9900012    2    1    2    0    0  0.55196932180E-01 -0.11148766302E+01 -0.38278639823E+00  0.90007948294E+02  0.90000212411E+02 0.  0.
         12    1    1    2    0    0 -0.55196932180E-01  0.11148766302E+01  0.38278639823E+00  0.11800517059E+01  0.00000000000E+00 0. -1.
         11    1    3    3    0    0 -0.36688718364E+02 -0.16638827777E+02  0.17792197466E+02  0.44039470204E+02  0.51100000000E-03 0. -1.
        -11    1    3    3    0    0  0.34588527711E+01  0.57673590796E+01 -0.65474033134E+01  0.93858714915E+01  0.51100000000E-03 0.  1.
        -12    1    3    3    0    0  0.33285062525E+02  0.97565920668E+01 -0.11627580551E+02  0.36582606598E+02  0.00000000000E+00 0.  1.
</event>
<event>
 7    1  0.2569312E-015  0.9000757E+02  0.7816164E-02  0.1186339E+00
        -11   -1    0    0    0    0  0.00000000000E+00  0.00000000000E+00  0.45593999997E+02  0.45594000000E+02  0.51100000000E-03 0.  1.
         11   -1    0    0    0    0 -0.00000000000E+00 -0.00000000000E+00 -0.45593999997E+02  0.45594000000E+02  0.51100000000E-03 0. -1.
    9900012    2    1    2    0    0  0.35119346967E+00  0.68267908769E+00  0.89668114227E+00  0.90007565902E+02  0.89999824971E+02 0.  0.
         12    1    1    2    0    0 -0.35119346967E+00 -0.68267908769E+00 -0.89668114227E+00  0.11804340985E+01  0.00000000000E+00 0. -1.
         11    1    3    3    0    0 -0.51730337342E+01  0.30576265203E+01  0.52019964010E+00  0.60315807115E+01  0.51100000000E-03 0. -1.
        -11    1    3    3    0    0 -0.14931092988E+02  0.12143790259E+00  0.38138424667E+02  0.40957193767E+02  0.51100000000E-03 0.  1.
         12    1    3    3    0    0  0.20455320192E+02 -0.24963853352E+01 -0.37761943164E+02  0.43018791423E+02  0.00000000000E+00 0. -1.
</event>
<event>
 7    1  0.2597049E-015  0.9000776E+02  0.7816164E-02  0.1186339E+00
        -11   -1    0    0    0    0  0.00000000000E+00  0.00000000000E+00  0.45593999997E+02  0.45594000000E+02  0.51100000000E-03 0. -1.
         11   -1    0    0    0    0 -0.00000000000E+00 -0.00000000000E+00 -0.45593999997E+02  0.45594000000E+02  0.51100000000E-03 0.  1.
    9900012    2    1    2    0    0 -0.39691717650E+00  0.10829604056E+01  0.25022361115E+00  0.90007763439E+02  0.90000025116E+02 0.  0.
         12    1    1    2    0    0  0.39691717650E+00 -0.10829604056E+01 -0.25022361115E+00  0.11802365613E+01  0.00000000000E+00 0. -1.
         11    1    3    3    0    0  0.14168118819E+01  0.12440897894E+02  0.35351077970E+02  0.37503093342E+02  0.51100000000E-03 0. -1.
        -11    1    3    3    0    0  0.74440804325E+01  0.35695019731E+01  0.43416994702E+01  0.93277024166E+01  0.51100000000E-03 0.  1.
        -12    1    3    3    0    0 -0.92578094909E+01 -0.14927439462E+02 -0.39442553829E+02  0.43176967680E+02  0.00000000000E+00 0.  1.
</event>
<event>
 7    1  0.2672461E-015  0.9000764E+02  0.7816164E-02  0.1186339E+00
        -11   -1    0    0    0    0  0.00000000000E+00  0.00000000000E+00  0.45593999997E+02  0.45594000000E+02  0.51100000000E-03 0.  1.
         11   -1    0    0    0    0 -0.00000000000E+00 -0.00000000000E+00 -0.45593999997E+02  0.45594000000E+02  0.51100000000E-03 0. -1.
    9900012    2    1    2    0    0 -0.10952734075E+01  0.42539377102E+00  0.11249221488E+00  0.90007644886E+02  0.89999904998E+02 0.  0.
         12    1    1    2    0    0  0.10952734075E+01 -0.42539377102E+00 -0.11249221488E+00  0.11803551144E+01  0.00000000000E+00 0. -1.
         11    1    3    3    0    0 -0.16380259413E+02  0.84114018760E+01 -0.33315482086E+02  0.38065547768E+02  0.51100000000E-03 0. -1.
        -11    1    3    3    0    0  0.89063691369E-01  0.86604574169E+01 -0.29482624823E+01  0.91489729990E+01  0.51100000000E-03 0.  1.
        -12    1    3    3    0    0  0.15195922314E+02 -0.16646465522E+02  0.36376236783E+02  0.42793124119E+02  0.00000000000E+00 0.  1.
</event>
<event>
 7    1  0.2569312E-015  0.9000779E+02  0.7816164E-02  0.1186339E+00
        -11   -1    0    0    0    0  0.00000000000E+00  0.00000000000E+00  0.45593999997E+02  0.45594000000E+02  0.51100000000E-03 0.  1.
         11   -1    0    0    0    0 -0.00000000000E+00 -0.00000000000E+00 -0.45593999997E+02  0.45594000000E+02  0.51100000000E-03 0. -1.
    9900012    2    1    2    0    0 -0.10777523482E+01  0.33835925777E+00 -0.34185134766E+00  0.90007788385E+02  0.90000050392E+02 0.  0.
         12    1    1    2    0    0  0.10777523482E+01 -0.33835925777E+00  0.34185134766E+00  0.11802116147E+01  0.00000000000E+00 0. -1.
         11    1    3    3    0    0  0.94611395438E-01  0.15715016709E+02 -0.36944182335E+02  0.40147768433E+02  0.51100000000E-03 0. -1.
        -11    1    3    3    0    0 -0.94709730721E+01  0.72728109786E+00  0.55348244112E+00  0.95149677772E+01  0.51100000000E-03 0.  1.
        -12    1    3    3    0    0  0.82986093284E+01 -0.16103938549E+02  0.36048848546E+02  0.40345052176E+02  0.00000000000E+00 0.  1.
</event>
<event>
 7    1  0.2569312E-015  0.9000766E+02  0.7816164E-02  0.1186339E+00
        -11   -1    0    0    0    0  0.00000000000E+00  0.00000000000E+00  0.45593999997E+02  0.45594000000E+02  0.51100000000E-03 0.  1.
         11   -1    0    0    0    0 -0.00000000000E+00 -0.00000000000E+00 -0.45593999997E+02  0.45594000000E+02  0.51100000000E-03 0. -1.
    9900012    2    1    2    0    0 -0.74229761667E+00  0.16150343239E+00  0.90338882234E+00  0.90007660865E+02  0.89999921188E+02 0.  0.
         12    1    1    2    0    0  0.74229761667E+00 -0.16150343239E+00 -0.90338882234E+00  0.11803391355E+01  0.00000000000E+00 0. -1.
         11    1    3    3    0    0 -0.28995661347E+02  0.42696182658E+01  0.31587039739E+02  0.43089663457E+02  0.51100000000E-03 0. -1.
        -11    1    3    3    0    0  0.55452885972E+01 -0.79471153109E+01 -0.16026511913E+01  0.98221870524E+01  0.51100000000E-03 0.  1.
        -12    1    3    3    0    0  0.22708075133E+02  0.38390004775E+01 -0.29080999725E+02  0.37095810355E+02  0.00000000000E+00 0.  1.
</event>
<event>
 7    1  0.2569312E-015  0.9000763E+02  0.7816164E-02  0.1186339E+00
        -11   -1    0    0    0    0  0.00000000000E+00  0.00000000000E+00  0.45593999997E+02  0.45594000000E+02  0.51100000000E-03 0. -1.
         11   -1    0    0    0    0 -0.00000000000E+00 -0.00000000000E+00 -0.45593999997E+02  0.45594000000E+02  0.51100000000E-03 0.  1.
    9900012    2    1    2    0    0 -0.86370958992E+00  0.30234355936E+00 -0.74556026964E+00  0.90007633108E+02  0.89999893065E+02 0.  0.
         12    1    1    2    0    0  0.86370958992E+00 -0.30234355936E+00  0.74556026964E+00  0.11803668918E+01  0.00000000000E+00 0. -1.
         11    1    3    3    0    0  0.43551327099E+01  0.30003352814E+01  0.62686351921E+01  0.82015230387E+01  0.51100000000E-03 0. -1.
        -11    1    3    3    0    0 -0.33353293449E+02  0.23780801344E+02 -0.12396923787E+02  0.42797808543E+02  0.51100000000E-03 0.  1.
         12    1    3    3    0    0  0.28134451150E+02 -0.26478793066E+02  0.53827283256E+01  0.39008301526E+02  0.00000000000E+00 0. -1.
</event>
<event>
 7    1  0.2569312E-015  0.9000771E+02  0.7816164E-02  0.1186339E+00
        -11   -1    0    0    0    0  0.00000000000E+00  0.00000000000E+00  0.45593999997E+02  0.45594000000E+02  0.51100000000E-03 0.  1.
         11   -1    0    0    0    0 -0.00000000000E+00 -0.00000000000E+00 -0.45593999997E+02  0.45594000000E+02  0.51100000000E-03 0. -1.
    9900012    2    1    2    0    0 -0.79944989633E-01 -0.11460336417E+01 -0.27072694605E+00  0.90007713006E+02  0.89999974017E+02 0.  0.
         12    1    1    2    0    0  0.79944989633E-01  0.11460336417E+01  0.27072694605E+00  0.11802869942E+01  0.00000000000E+00 0. -1.
         11    1    3    3    0    0 -0.61235140445E+01 -0.15276172725E+02 -0.35769163162E+02  0.39373746468E+02  0.51100000000E-03 0. -1.
        -11    1    3    3    0    0 -0.10671007846E+02  0.27253496888E+01  0.15632451053E+01  0.11123923538E+02  0.51100000000E-03 0.  1.
        -12    1    3    3    0    0  0.16714576901E+02  0.11404789394E+02  0.33935191111E+02  0.39510042999E+02  0.00000000000E+00 0.  1.
</event>
<event>
 7    1  0.2569312E-015  0.9000775E+02  0.7816164E-02  0.1186339E+00
        -11   -1    0    0    0    0  0.00000000000E+00  0.00000000000E+00  0.45593999997E+02  0.45594000000E+02  0.51100000000E-03 0.  1.
         11   -1    0    0    0    0 -0.00000000000E+00 -0.00000000000E+00 -0.45593999997E+02  0.45594000000E+02  0.51100000000E-03 0. -1.
    9900012    2    1    2    0    0 -0.50427813612E+00  0.78002240577E+00  0.72819334926E+00  0.90007747084E+02  0.90000008545E+02 0.  0.
         12    1    1    2    0    0  0.50427813612E+00 -0.78002240577E+00 -0.72819334926E+00  0.11802529161E+01  0.00000000000E+00 0. -1.
         11    1    3    3    0    0 -0.15593992800E+02 -0.92884842999E+01  0.62724254155E+01  0.19203954616E+02  0.51100000000E-03 0. -1.
        -11    1    3    3    0    0 -0.57227026082E+01  0.36404287031E+02 -0.53410093561E+01  0.37236377651E+02  0.51100000000E-03 0.  1.
         12    1    3    3    0    0  0.20812417272E+02 -0.26335780325E+02 -0.20322271014E+00  0.33567414817E+02  0.00000000000E+00 0. -1.
</event>
<event>
 7    1  0.3026167E-015  0.9000753E+02  0.7816164E-02  0.1186339E+00
        -11   -1    0    0    0    0  0.00000000000E+00  0.00000000000E+00  0.45593999997E+02  0.45594000000E+02  0.51100000000E-03 0. -1.
         11   -1    0    0    0    0 -0.00000000000E+00 -0.00000000000E+00 -0.45593999997E+02  0.45594000000E+02  0.51100000000E-03 0.  1.
    9900012    2    1    2    0    0  0.10262518550E+01 -0.85159955088E-01 -0.57711213707E+00  0.90007532505E+02  0.89999791134E+02 0.  0.
         12    1    1    2    0    0 -0.10262518550E+01  0.85159955088E-01  0.57711213707E+00  0.11804674949E+01  0.00000000000E+00 0. -1.
         11    1    3    3    0    0 -0.17291710938E+02  0.18334766792E+02  0.29599529463E+02  0.38875430354E+02  0.51100000000E-03 0. -1.
        -11    1    3    3    0    0  0.79167672653E+01  0.62527670755E+01  0.88021525943E+00  0.10126553175E+02  0.51100000000E-03 0.  1.
        -12    1    3    3    0    0  0.10401195527E+02 -0.24672693823E+02 -0.31056856860E+02  0.41005548977E+02  0.00000000000E+00 0.  1.
</event>
<event>
 7    1  0.2569312E-015  0.9000776E+02  0.7816164E-02  0.1186339E+00
        -11   -1    0    0    0    0  0.00000000000E+00  0.00000000000E+00  0.45593999997E+02  0.45594000000E+02  0.51100000000E-03 0. -1.
         11   -1    0    0    0    0 -0.00000000000E+00 -0.00000000000E+00 -0.45593999997E+02  0.45594000000E+02  0.51100000000E-03 0.  1.
    9900012    2    1    2    0    0 -0.40972443010E+00 -0.79615174445E+00 -0.76892545002E+00  0.90007755086E+02  0.90000016653E+02 0.  0.
         12    1    1    2    0    0  0.40972443010E+00  0.79615174445E+00  0.76892545002E+00  0.11802449138E+01  0.00000000000E+00 0. -1.
         11    1    3    3    0    0 -0.23276518338E+02  0.16264508689E+02 -0.16736190082E+02  0.32961046822E+02  0.51100000000E-03 0. -1.
        -11    1    3    3    0    0  0.96798947792E+01  0.69050783112E+01 -0.12717375436E+02  0.17410115096E+02  0.51100000000E-03 0.  1.
        -12    1    3    3    0    0  0.13186899129E+02 -0.23965738745E+02  0.28684640068E+02  0.39636593169E+02  0.00000000000E+00 0.  1.
</event>
<event>
 7    1  0.2569312E-015  0.9000756E+02  0.7816164E-02  0.1186339E+00
        -11   -1    0    0    0    0  0.00000000000E+00  0.00000000000E+00  0.45593999997E+02  0.45594000000E+02  0.51100000000E-03 0.  1.
         11   -1    0    0    0    0 -0.00000000000E+00 -0.00000000000E+00 -0.45593999997E+02  0.45594000000E+02  0.51100000000E-03 0. -1.
    9900012    2    1    2    0    0  0.78123827450E+00  0.69750653109E+00  0.54460819353E+00  0.90007556572E+02  0.89999815518E+02 0.  0.
         12    1    1    2    0    0 -0.78123827450E+00 -0.69750653109E+00 -0.54460819353E+00  0.11804434281E+01  0.00000000000E+00 0. -1.
         11    1    3    3    0    0 -0.70492335560E+01 -0.34604593246E+02 -0.23793895712E+02  0.42583083976E+02  0.51100000000E-03 0. -1.
        -11    1    3    3    0    0 -0.43157029467E+01  0.83596599978E+01  0.12365490536E+02  0.15537521156E+02  0.51100000000E-03 0.  1.
        -12    1    3    3    0    0  0.12146174777E+02  0.26942439780E+02  0.11973013370E+02  0.31886951440E+02  0.00000000000E+00 0.  1.
</event>
<event>
 7    1  0.2569312E-015  0.9000776E+02  0.7816164E-02  0.1186339E+00
        -11   -1    0    0    0    0  0.00000000000E+00  0.00000000000E+00  0.45593999997E+02  0.45594000000E+02  0.51100000000E-03 0.  1.
         11   -1    0    0    0    0 -0.00000000000E+00 -0.00000000000E+00 -0.45593999997E+02  0.45594000000E+02  0.51100000000E-03 0. -1.
    9900012    2    1    2    0    0 -0.96198686635E+00 -0.48691762449E+00  0.48006124689E+00  0.90007760065E+02  0.90000021698E+02 0.  0.
         12    1    1    2    0    0  0.96198686635E+00  0.48691762449E+00 -0.48006124689E+00  0.11802399353E+01  0.00000000000E+00 0. -1.
         11    1    3    3    0    0  0.77944066887E+01  0.35258034568E+01  0.21617583166E+01  0.88236763838E+01  0.51100000000E-03 0. -1.
        -11    1    3    3    0    0 -0.41204138750E+02  0.54318797917E+01  0.14098746180E+02  0.43886911629E+02  0.51100000000E-03 0.  1.
         12    1    3    3    0    0  0.32447745195E+02 -0.94446008730E+01 -0.15780443250E+02  0.37297172052E+02  0.00000000000E+00 0. -1.
</event>
<event>
 7    1  0.2569312E-015  0.9000774E+02  0.7816164E-02  0.1186339E+00
        -11   -1    0    0    0    0  0.00000000000E+00  0.00000000000E+00  0.45593999997E+02  0.45594000000E+02  0.51100000000E-03 0. -1.
         11   -1    0    0    0    0 -0.00000000000E+00 -0.00000000000E+00 -0.45593999997E+02  0.45594000000E+02  0.51100000000E-03 0.  1.
    9900012    2    1    2    0    0 -0.37402790248E+00 -0.92560142537E+00 -0.62958686554E+00  0.90007739651E+02  0.90000001014E+02 0.  0.
         12    1    1    2    0    0  0.37402790248E+00  0.92560142537E+00  0.62958686554E+00  0.11802603491E+01  0.00000000000E+00 0. -1.
         11    1    3    3    0    0  0.46927973889E+01 -0.97927849364E+00  0.74037286755E+01  0.88202342521E+01  0.51100000000E-03 0. -1.
        -11    1    3    3    0    0  0.11447684531E+02  0.26680473559E+02 -0.30899201500E+02  0.42398794842E+02  0.51100000000E-03 0.  1.
         12    1    3    3    0    0 -0.16514509822E+02 -0.26626796491E+02  0.22865885959E+02  0.38788710557E+02  0.00000000000E+00 0. -1.
</event>
<event>
 7    1  0.2569312E-015  0.9000774E+02  0.7816164E-02  0.1186339E+00
        -11   -1    0    0    0    0  0.00000000000E+00  0.00000000000E+00  0.45593999997E+02  0.45594000000E+02  0.51100000000E-03 0.  1.
         11   -1    0    0    0    0 -0.00000000000E+00 -0.00000000000E+00 -0.45593999997E+02  0.45594000000E+02  0.51100000000E-03 0. -1.
    9900012    2    1    2    0    0  0.55626769003E+00  0.34769824331E+00  0.98116652305E+00  0.90007739199E+02  0.90000000557E+02 0.  0.
         12    1    1    2    0    0 -0.55626769003E+00 -0.34769824331E+00 -0.98116652305E+00  0.11802608006E+01  0.00000000000E+00 0. -1.
         11    1    3    3    0    0 -0.10901983139E+01  0.35395525756E+01 -0.85703538317E+01  0.93363766987E+01  0.51100000000E-03 0. -1.
        -11    1    3    3    0    0 -0.21315448104E+02  0.21946992229E+02  0.28409343019E+02  0.41750563671E+02  0.51100000000E-03 0.  1.
         12    1    3    3    0    0  0.22961914107E+02 -0.25138846561E+02 -0.18857822665E+02  0.38920798830E+02  0.00000000000E+00 0. -1.
</event>
<event>
 7    1  0.2569312E-015  0.9000774E+02  0.7816164E-02  0.1186339E+00
        -11   -1    0    0    0    0  0.00000000000E+00  0.00000000000E+00  0.45593999997E+02  0.45594000000E+02  0.51100000000E-03 0.  1.
         11   -1    0    0    0    0 -0.00000000000E+00 -0.00000000000E+00 -0.45593999997E+02  0.45594000000E+02  0.51100000000E-03 0. -1.
    9900012    2    1    2    0    0 -0.57933855032E-01 -0.11414936051E+01 -0.29434322186E+00  0.90007744979E+02  0.90000006413E+02 0.  0.
         12    1    1    2    0    0  0.57933855032E-01  0.11414936051E+01  0.29434322186E+00  0.11802550209E+01  0.00000000000E+00 0. -1.
         11    1    3    3    0    0 -0.13532546752E+02 -0.30808419218E+02 -0.17976596238E+02  0.38150314925E+02  0.51100000000E-03 0. -1.
        -11    1    3    3    0    0 -0.53066591298E+01 -0.49523761033E+01 -0.24030346389E+01  0.76459947636E+01  0.51100000000E-03 0.  1.
        -12    1    3    3    0    0  0.18781272027E+02  0.34619301716E+02  0.20085287655E+02  0.44211435291E+02  0.00000000000E+00 0.  1.
</event>
<event>
 7    1  0.2569312E-015  0.9000774E+02  0.7816164E-02  0.1186339E+00
        -11   -1    0    0    0    0  0.00000000000E+00  0.00000000000E+00  0.45593999997E+02  0.45594000000E+02  0.51100000000E-03 0. -1.
         11   -1    0    0    0    0 -0.00000000000E+00 -0.00000000000E+00 -0.45593999997E+02  0.45594000000E+02  0.51100000000E-03 0.  1.
    9900012    2    1    2    0    0  0.10253571366E+01  0.33602961636E+00  0.47826970573E+00  0.90007739405E+02  0.90000000765E+02 0.  0.
         12    1    1    2    0    0 -0.10253571366E+01 -0.33602961636E+00 -0.47826970573E+00  0.11802605950E+01  0.00000000000E+00 0. -1.
         11    1    3    3    0    0 -0.37187806179E+01 -0.12779370427E+01 -0.58908344524E+01  0.70826819197E+01  0.51100000000E-03 0. -1.
        -11    1    3    3    0    0 -0.19064721151E+02 -0.25880251640E+02 -0.20128176787E+02  0.37926171947E+02  0.51100000000E-03 0.  1.
         12    1    3    3    0    0  0.23808858905E+02  0.27494218299E+02  0.26497280945E+02  0.44998885539E+02  0.00000000000E+00 0. -1.
</event>
<event>
 7    1  0.2569312E-015  0.9000773E+02  0.7816164E-02  0.1186339E+00
        -11   -1    0    0    0    0  0.00000000000E+00  0.00000000000E+00  0.45593999997E+02  0.45594000000E+02  0.51100000000E-03 0. -1.
         11   -1    0    0    0    0 -0.00000000000E+00 -0.00000000000E+00 -0.45593999997E+02  0.45594000000E+02  0.51100000000E-03 0.  1.
    9900012    2    1    2    0    0 -0.45730012023E+00  0.10876817813E+01  0.29199912481E-01  0.90007734059E+02  0.89999995348E+02 0.  0.
         12    1    1    2    0    0  0.45730012023E+00 -0.10876817813E+01 -0.29199912481E-01  0.11802659413E+01  0.00000000000E+00 0. -1.
         11    1    3    3    0    0  0.46042606681E+01 -0.72521394943E+01  0.35289373903E+01  0.92868801494E+01  0.51100000000E-03 0. -1.
        -11    1    3    3    0    0  0.16865474135E+02  0.33162242059E+02 -0.21556371098E+02  0.42998321495E+02  0.51100000000E-03 0.  1.
         12    1    3    3    0    0 -0.21927034923E+02 -0.24822420783E+02  0.18056633621E+02  0.37722532415E+02  0.00000000000E+00 0. -1.
</event>
<event>
 7    1  0.2569312E-015  0.9000834E+02  0.7816164E-02  0.1186338E+00
        -11   -1    0    0    0    0  0.00000000000E+00  0.00000000000E+00  0.45593999997E+02  0.45594000000E+02  0.51100000000E-03 0.  1.
         11   -1    0    0    0    0 -0.00000000000E+00 -0.00000000000E+00 -0.45593999997E+02  0.45594000000E+02  0.51100000000E-03 0. -1.
    9900012    2    1    2    0    0 -0.98224047303E+00  0.47761354141E+00  0.44574627158E+00  0.90008338701E+02  0.90000607970E+02 0.  0.
         12    1    1    2    0    0  0.98224047303E+00 -0.47761354141E+00 -0.44574627158E+00  0.11796612990E+01  0.00000000000E+00 0. -1.
         11    1    3    3    0    0 -0.13376562039E+02  0.18999128882E+02 -0.32441094452E+02  0.39903933638E+02  0.51100000000E-03 0. -1.
        -11    1    3    3    0    0  0.45966416023E+01  0.83257017215E+01  0.55902908932E+01  0.11031671483E+02  0.51100000000E-03 0.  1.
        -12    1    3    3    0    0  0.77976799641E+01 -0.26847217062E+02  0.27296549830E+02  0.39072733580E+02  0.00000000000E+00 0.  1.
</event>
<event>
 7    1  0.2569312E-015  0.9000770E+02  0.7816164E-02  0.1186339E+00
        -11   -1    0    0    0    0  0.00000000000E+00  0.00000000000E+00  0.45593999997E+02  0.45594000000E+02  0.51100000000E-03 0.  1.
         11   -1    0    0    0    0 -0.00000000000E+00 -0.00000000000E+00 -0.45593999997E+02  0.45594000000E+02  0.51100000000E-03 0. -1.
    9900012    2    1    2    0    0 -0.60547780837E+00 -0.64867947636E+00 -0.77827918674E+00  0.90007700491E+02  0.89999961337E+02 0.  0.
         12    1    1    2    0    0  0.60547780837E+00  0.64867947636E+00  0.77827918674E+00  0.11802995094E+01  0.00000000000E+00 0. -1.
         11    1    3    3    0    0 -0.90828538842E+00 -0.14503996696E+02 -0.37593300539E+02  0.40304430875E+02  0.51100000000E-03 0. -1.
        -11    1    3    3    0    0 -0.40365041896E+01  0.85422326063E+01 -0.25170526699E+01  0.97774566415E+01  0.51100000000E-03 0.  1.
        -12    1    3    3    0    0  0.43393117696E+01  0.53130846135E+01  0.39332074022E+02  0.39925812974E+02  0.00000000000E+00 0.  1.
</event>
<event>
 7    1  0.2569312E-015  0.9000776E+02  0.7816164E-02  0.1186339E+00
        -11   -1    0    0    0    0  0.00000000000E+00  0.00000000000E+00  0.45593999997E+02  0.45594000000E+02  0.51100000000E-03 0. -1.
         11   -1    0    0    0    0 -0.00000000000E+00 -0.00000000000E+00 -0.45593999997E+02  0.45594000000E+02  0.51100000000E-03 0.  1.
    9900012    2    1    2    0    0 -0.53762673925E+00  0.11963456673E+00 -0.10438473497E+01  0.90007757555E+02  0.90000019154E+02 0.  0.
         12    1    1    2    0    0  0.53762673925E+00 -0.11963456673E+00  0.10438473497E+01  0.11802424454E+01  0.00000000000E+00 0. -1.
         11    1    3    3    0    0 -0.82967289628E+01 -0.15871027348E+01 -0.10374141660E+02  0.13378244355E+02  0.51100000000E-03 0. -1.
        -11    1    3    3    0    0  0.40831193064E+00  0.38511625320E+02  0.54553870186E+01  0.38898242263E+02  0.51100000000E-03 0.  1.
         12    1    3    3    0    0  0.73507902929E+01 -0.36804888018E+02  0.38749072921E+01  0.37731270936E+02  0.00000000000E+00 0. -1.
</event>
<event>
 7    1  0.2569312E-015  0.9000812E+02  0.7816164E-02  0.1186338E+00
        -11   -1    0    0    0    0  0.00000000000E+00  0.00000000000E+00  0.45593999997E+02  0.45594000000E+02  0.51100000000E-03 0. -1.
         11   -1    0    0    0    0 -0.00000000000E+00 -0.00000000000E+00 -0.45593999997E+02  0.45594000000E+02  0.51100000000E-03 0.  1.
    9900012    2    1    2    0    0 -0.19895243000E+00  0.10400057190E+01  0.52051378077E+00  0.90008115022E+02  0.90000381340E+02 0.  0.
         12    1    1    2    0    0  0.19895243000E+00 -0.10400057190E+01 -0.52051378077E+00  0.11798849778E+01  0.00000000000E+00 0. -1.
         11    1    3    3    0    0  0.42848000508E+01 -0.86295347892E+01 -0.44653069897E+01  0.10619197188E+02  0.51100000000E-03 0. -1.
        -11    1    3    3    0    0  0.66740414868E+01  0.40088612321E+02  0.18030728342E+02  0.44460621143E+02  0.51100000000E-03 0.  1.
         12    1    3    3    0    0 -0.11157793968E+02 -0.30419071813E+02 -0.13044907571E+02  0.34928296691E+02  0.00000000000E+00 0. -1.
</event>
<event>
 7    1  0.2569312E-015  0.9000776E+02  0.7816164E-02  0.1186339E+00
        -11   -1    0    0    0    0  0.00000000000E+00  0.00000000000E+00  0.45593999997E+02  0.45594000000E+02  0.51100000000E-03 0.  1.
         11   -1    0    0    0    0 -0.00000000000E+00 -0.00000000000E+00 -0.45593999997E+02  0.45594000000E+02  0.51100000000E-03 0. -1.
    9900012    2    1    2    0    0  0.59971901171E+00 -0.93547267010E+00  0.39773562980E+00  0.90007760346E+02  0.90000021983E+02 0.  0.
         12    1    1    2    0    0 -0.59971901171E+00  0.93547267010E+00 -0.39773562980E+00  0.11802396539E+01  0.00000000000E+00 0. -1.
         11    1    3    3    0    0  0.11975825276E+02  0.29343801004E+02  0.16802990616E+02  0.35872267036E+02  0.51100000000E-03 0. -1.
        -11    1    3    3    0    0  0.34315810007E+01  0.63773245684E+01  0.53562191943E+01  0.90075024914E+01  0.51100000000E-03 0.  1.
        -12    1    3    3    0    0 -0.14807687265E+02 -0.36656598242E+02 -0.21761474180E+02  0.45127990819E+02  0.00000000000E+00 0.  1.
</event>
<event>
 7    1  0.3295457E-015  0.9000776E+02  0.7816164E-02  0.1186339E+00
        -11   -1    0    0    0    0  0.00000000000E+00  0.00000000000E+00  0.45593999997E+02  0.45594000000E+02  0.51100000000E-03 0. -1.
         11   -1    0    0    0    0 -0.00000000000E+00 -0.00000000000E+00 -0.45593999997E+02  0.45594000000E+02  0.51100000000E-03 0.  1.
    9900012    2    1    2    0    0 -0.23431022072E+00  0.10854799228E+01 -0.39974323917E+00  0.90007761634E+02  0.90000023288E+02 0.  0.
         12    1    1    2    0    0  0.23431022072E+00 -0.10854799228E+01  0.39974323917E+00  0.11802383655E+01  0.00000000000E+00 0. -1.
         11    1    3    3    0    0 -0.38198370091E+01 -0.44427274554E+01  0.35924252401E+02  0.36398913347E+02  0.51100000000E-03 0. -1.
        -11    1    3    3    0    0  0.62174260686E+01  0.22918667344E+01  0.72578706256E+01  0.98278037387E+01  0.51100000000E-03 0.  1.
        -12    1    3    3    0    0 -0.26318992802E+01  0.32363406438E+01 -0.43581866266E+02  0.43781044549E+02  0.00000000000E+00 0.  1.
</event>
<event>
 7    1  0.2569312E-015  0.9000784E+02  0.7816164E-02  0.1186339E+00
        -11   -1    0    0    0    0  0.00000000000E+00  0.00000000000E+00  0.45593999997E+02  0.45594000000E+02  0.51100000000E-03 0. -1.
         11   -1    0    0    0    0 -0.00000000000E+00 -0.00000000000E+00 -0.45593999997E+02  0.45594000000E+02  0.51100000000E-03 0.  1.
    9900012    2    1    2    0    0 -0.11679964610E+01 -0.54590519287E-01 -0.15997352816E+00  0.90007835864E+02  0.90000098498E+02 0.  0.
         12    1    1    2    0    0  0.11679964610E+01  0.54590519287E-01  0.15997352816E+00  0.11801641358E+01  0.00000000000E+00 0. -1.
         11    1    3    3    0    0 -0.23698070496E+02 -0.20283397447E+02  0.27231885523E+02  0.41407612182E+02  0.51100000000E-03 0. -1.
        -11    1    3    3    0    0 -0.19712660920E+01 -0.17891511471E+01 -0.11907470754E+02  0.12201426632E+02  0.51100000000E-03 0.  1.
        -12    1    3    3    0    0  0.24501340127E+02  0.22017958074E+02 -0.15484388297E+02  0.36398797050E+02  0.00000000000E+00 0.  1.
</event>
<event>
 7    1  0.2569312E-015  0.9000770E+02  0.7816164E-02  0.1186339E+00
        -11   -1    0    0    0    0  0.00000000000E+00  0.00000000000E+00  0.45593999997E+02  0.45594000000E+02  0.51100000000E-03 0.  1.
         11   -1    0    0    0    0 -0.00000000000E+00 -0.00000000000E+00 -0.45593999997E+02  0.45594000000E+02  0.51100000000E-03 0. -1.
    9900012    2    1    2    0    0 -0.10198085602E+01  0.58895573621E+00 -0.78868312106E-01  0.90007704033E+02  0.89999964926E+02 0.  0.
         12    1    1    2    0    0  0.10198085602E+01 -0.58895573621E+00  0.78868312106E-01  0.11802959668E+01  0.00000000000E+00 0. -1.
         11    1    3    3    0    0  0.22855288359E+02 -0.21890885591E+01 -0.37914300540E+02  0.44324378173E+02  0.51100000000E-03 0. -1.
        -11    1    3    3    0    0 -0.38356873494E+01  0.22625843511E+01  0.26331358978E+01  0.51735085103E+01  0.51100000000E-03 0.  1.
        -12    1    3    3    0    0 -0.20039409570E+02  0.51545994418E+00  0.35202296330E+02  0.40509817350E+02  0.00000000000E+00 0.  1.
</event>
<event>
 7    1  0.2569312E-015  0.9000773E+02  0.7816164E-02  0.1186339E+00
        -11   -1    0    0    0    0  0.00000000000E+00  0.00000000000E+00  0.45593999997E+02  0.45594000000E+02  0.51100000000E-03 0.  1.
         11   -1    0    0    0    0 -0.00000000000E+00 -0.00000000000E+00 -0.45593999997E+02  0.45594000000E+02  0.51100000000E-03 0. -1.
    9900012    2    1    2    0    0  0.71020888416E+00  0.55154969952E+00  0.76448430517E+00  0.90007728852E+02  0.89999990073E+02 0.  0.
         12    1    1    2    0    0 -0.71020888416E+00 -0.55154969952E+00 -0.76448430517E+00  0.11802711481E+01  0.00000000000E+00 0. -1.
         11    1    3    3    0    0 -0.37059511102E+01 -0.55906498497E+01  0.65405269749E+01  0.93684541278E+01  0.51100000000E-03 0. -1.
        -11    1    3    3    0    0  0.29076354977E+02 -0.52284503399E+01  0.25637195313E+02  0.39115686054E+02  0.51100000000E-03 0.  1.
         12    1    3    3    0    0 -0.24660194982E+02  0.11370649889E+02 -0.31413237983E+02  0.41523588670E+02  0.00000000000E+00 0. -1.
</event>
<event>
 7    1  0.2569312E-015  0.9000874E+02  0.7816164E-02  0.1186337E+00
        -11   -1    0    0    0    0  0.00000000000E+00  0.00000000000E+00  0.45593999997E+02  0.45594000000E+02  0.51100000000E-03 0.  1.
         11   -1    0    0    0    0 -0.00000000000E+00 -0.00000000000E+00 -0.45593999997E+02  0.45594000000E+02  0.51100000000E-03 0. -1.
    9900012    2    1    2    0    0 -0.81388947738E+00 -0.64946714667E+00 -0.55356510418E+00  0.90008738375E+02  0.90001012916E+02 0.  0.
         12    1    1    2    0    0  0.81388947738E+00  0.64946714667E+00  0.55356510418E+00  0.11792616252E+01  0.00000000000E+00 0. -1.
         11    1    3    3    0    0  0.30339653282E+02  0.77506288470E+01  0.17310973475E+02  0.35780394236E+02  0.51100000000E-03 0. -1.
        -11    1    3    3    0    0  0.65594675958E+01 -0.18146544617E+01  0.60357755168E+01  0.90967121701E+01  0.51100000000E-03 0.  1.
        -12    1    3    3    0    0 -0.37713010355E+02 -0.65854415320E+01 -0.23900314096E+02  0.45131631968E+02  0.00000000000E+00 0.  1.
</event>
<event>
 7    1  0.2569312E-015  0.9000805E+02  0.7816164E-02  0.1186338E+00
        -11   -1    0    0    0    0  0.00000000000E+00  0.00000000000E+00  0.45593999997E+02  0.45594000000E+02  0.51100000000E-03 0. -1.
         11   -1    0    0    0    0 -0.00000000000E+00 -0.00000000000E+00 -0.45593999997E+02  0.45594000000E+02  0.51100000000E-03 0.  1.
    9900012    2    1    2    0    0  0.57645681050E+00 -0.99570160704E+00  0.26184549960E+00  0.90008047793E+02  0.90000313224E+02 0.  0.
         12    1    1    2    0    0 -0.57645681050E+00  0.99570160704E+00 -0.26184549960E+00  0.11799522068E+01  0.00000000000E+00 0. -1.
         11    1    3    3    0    0  0.30477395072E+00 -0.70132746496E+01 -0.54757528000E+01  0.89029645321E+01  0.51100000000E-03 0. -1.
        -11    1    3    3    0    0 -0.16619524866E+01 -0.18839165890E+02 -0.31233399140E+02  0.36513031641E+02  0.51100000000E-03 0.  1.
         12    1    3    3    0    0  0.19336353463E+01  0.24856738932E+02  0.36970997440E+02  0.44592051620E+02  0.00000000000E+00 0. -1.
</event>
<event>
 7    1  0.2569312E-015  0.9000755E+02  0.7816164E-02  0.1186339E+00
        -11   -1    0    0    0    0  0.00000000000E+00  0.00000000000E+00  0.45593999997E+02  0.45594000000E+02  0.51100000000E-03 0. -1.
         11   -1    0    0    0    0 -0.00000000000E+00 -0.00000000000E+00 -0.45593999997E+02  0.45594000000E+02  0.51100000000E-03 0.  1.
    9900012    2    1    2    0    0  0.38301965240E+00 -0.71615380053E+00 -0.85667094340E+00  0.90007548635E+02  0.89999807477E+02 0.  0.
         12    1    1    2    0    0 -0.38301965240E+00  0.71615380053E+00  0.85667094340E+00  0.11804513651E+01  0.00000000000E+00 0. -1.
         11    1    3    3    0    0 -0.75118500339E+01 -0.38548339263E+01  0.47227622659E+01  0.96743020013E+01  0.51100000000E-03 0. -1.
        -11    1    3    3    0    0 -0.11469886604E+02 -0.34910783162E+02 -0.78627095305E+01  0.37578494928E+02  0.51100000000E-03 0.  1.
         12    1    3    3    0    0  0.19364756290E+02  0.38049463287E+02  0.22832763212E+01  0.42754751705E+02  0.00000000000E+00 0. -1.
</event>
<event>
 7    1  0.2569312E-015  0.9000773E+02  0.7816164E-02  0.1186339E+00
        -11   -1    0    0    0    0  0.00000000000E+00  0.00000000000E+00  0.45593999997E+02  0.45594000000E+02  0.51100000000E-03 0. -1.
         11   -1    0    0    0    0 -0.00000000000E+00 -0.00000000000E+00 -0.45593999997E+02  0.45594000000E+02  0.51100000000E-03 0.  1.
    9900012    2    1    2    0    0 -0.74039863334E+00  0.87850449937E+00 -0.27031323958E+00  0.90007733276E+02  0.89999994556E+02 0.  0.
         12    1    1    2    0    0  0.74039863334E+00 -0.87850449937E+00  0.27031323958E+00  0.11802667237E+01  0.00000000000E+00 0. -1.
         11    1    3    3    0    0  0.17298251533E+01  0.90808949497E+01 -0.11807462912E+02  0.14995703679E+02  0.51100000000E-03 0. -1.
        -11    1    3    3    0    0 -0.22644340462E+02 -0.26154386103E+02 -0.14489290091E+02  0.37506767322E+02  0.51100000000E-03 0.  1.
         12    1    3    3    0    0  0.20174116675E+02  0.17951995653E+02  0.26026439764E+02  0.37505262275E+02  0.00000000000E+00 0. -1.
</event>
<event>
 7    1  0.3530721E-015  0.9000740E+02  0.7816164E-02  0.1186340E+00
        -11   -1    0    0    0    0  0.00000000000E+00  0.00000000000E+00  0.45593999997E+02  0.45594000000E+02  0.51100000000E-03 0. -1.
         11   -1    0    0    0    0 -0.00000000000E+00 -0.00000000000E+00 -0.45593999997E+02  0.45594000000E+02  0.51100000000E-03 0.  1.
    9900012    2    1    2    0    0  0.65363904724E+00  0.27730382191E+00 -0.94322952787E+00  0.90007397037E+02  0.89999653877E+02 0.  0.
         12    1    1    2    0    0 -0.65363904724E+00 -0.27730382191E+00  0.94322952787E+00  0.11806029629E+01  0.00000000000E+00 0. -1.
         11    1    3    3    0    0 -0.68571141838E+00 -0.33371972386E+02  0.15137748679E+02  0.36651196112E+02  0.51100000000E-03 0. -1.
        -11    1    3    3    0    0  0.36922605789E+01 -0.81823062827E+01 -0.27308131972E+01  0.93829774201E+01  0.51100000000E-03 0.  1.
        -12    1    3    3    0    0 -0.23529101133E+01  0.41831582491E+02 -0.13350165010E+02  0.43973223505E+02  0.00000000000E+00 0.  1.
</event>
<event>
 7    1  0.2569312E-015  0.9000774E+02  0.7816164E-02  0.1186339E+00
        -11   -1    0    0    0    0  0.00000000000E+00  0.00000000000E+00  0.45593999997E+02  0.45594000000E+02  0.51100000000E-03 0. -1.
         11   -1    0    0    0    0 -0.00000000000E+00 -0.00000000000E+00 -0.45593999997E+02  0.45594000000E+02  0.51100000000E-03 0.  1.
    9900012    2    1    2    0    0  0.57754348608E+00 -0.55664081269E+00 -0.86579945417E+00  0.90007739788E+02  0.90000001153E+02 0.  0.
         12    1    1    2    0    0 -0.57754348608E+00  0.55664081269E+00  0.86579945417E+00  0.11802602118E+01  0.00000000000E+00 0. -1.
         11    1    3    3    0    0  0.66413288355E+01 -0.28399911297E+01 -0.70667091913E+01  0.10105007540E+02  0.51100000000E-03 0. -1.
        -11    1    3    3    0    0  0.26094352413E+02  0.49439949137E+01 -0.23933689223E+02  0.35751640433E+02  0.51100000000E-03 0.  1.
         12    1    3    3    0    0 -0.32158137762E+02 -0.26606445967E+01  0.30134598960E+02  0.44151091816E+02  0.00000000000E+00 0. -1.
</event>
<event>
 7    1  0.2569312E-015  0.9000776E+02  0.7816164E-02  0.1186339E+00
        -11   -1    0    0    0    0  0.00000000000E+00  0.00000000000E+00  0.45593999997E+02  0.45594000000E+02  0.51100000000E-03 0.  1.
         11   -1    0    0    0    0 -0.00000000000E+00 -0.00000000000E+00 -0.45593999997E+02  0.45594000000E+02  0.51100000000E-03 0. -1.
    9900012    2    1    2    0    0  0.40482338164E+00 -0.10771771484E+01 -0.26223282128E+00  0.90007763315E+02  0.90000024991E+02 0.  0.
         12    1    1    2    0    0 -0.40482338164E+00  0.10771771484E+01  0.26223282128E+00  0.11802366847E+01  0.00000000000E+00 0. -1.
         11    1    3    3    0    0 -0.12086940769E+02 -0.24956959768E+02 -0.19087152602E+02  0.33663977376E+02  0.51100000000E-03 0. -1.
        -11    1    3    3    0    0  0.36745662189E+00 -0.67701474583E+01 -0.10318396194E+02  0.12346627931E+02  0.51100000000E-03 0.  1.
        -12    1    3    3    0    0  0.12124307529E+02  0.30649930078E+02  0.29143315975E+02  0.43997158009E+02  0.00000000000E+00 0.  1.
</event>
<event>
 7    1  0.2569312E-015  0.9000777E+02  0.7816164E-02  0.1186339E+00
        -11   -1    0    0    0    0  0.00000000000E+00  0.00000000000E+00  0.45593999997E+02  0.45594000000E+02  0.51100000000E-03 0. -1.
         11   -1    0    0    0    0 -0.00000000000E+00 -0.00000000000E+00 -0.45593999997E+02  0.45594000000E+02  0.51100000000E-03 0.  1.
    9900012    2    1    2    0    0  0.21243540592E+00  0.71176580273E-01 -0.11587731328E+01  0.90007766938E+02  0.90000028662E+02 0.  0.
         12    1    1    2    0    0 -0.21243540592E+00 -0.71176580273E-01  0.11587731328E+01  0.11802330620E+01  0.00000000000E+00 0. -1.
         11    1    3    3    0    0 -0.15775825787E+01  0.13146894122E+02 -0.46655196255E+01  0.14039111991E+02  0.51100000000E-03 0. -1.
        -11    1    3    3    0    0 -0.10926671136E+02  0.23695147610E+02 -0.17821671766E+02  0.31598483305E+02  0.51100000000E-03 0.  1.
         12    1    3    3    0    0  0.12716689120E+02 -0.36770865152E+02  0.21328418259E+02  0.44370171643E+02  0.00000000000E+00 0. -1.
</event>
<event>
 7    1  0.2569312E-015  0.9000790E+02  0.7816164E-02  0.1186339E+00
        -11   -1    0    0    0    0  0.00000000000E+00  0.00000000000E+00  0.45593999997E+02  0.45594000000E+02  0.51100000000E-03 0. -1.
         11   -1    0    0    0    0 -0.00000000000E+00 -0.00000000000E+00 -0.45593999997E+02  0.45594000000E+02  0.51100000000E-03 0.  1.
    9900012    2    1    2    0    0 -0.25921049838E+00  0.86184759290E+00 -0.76331967684E+00  0.90007903273E+02  0.90000166796E+02 0.  0.
         12    1    1    2    0    0  0.25921049838E+00 -0.86184759290E+00  0.76331967684E+00  0.11800967269E+01  0.00000000000E+00 0. -1.
         11    1    3    3    0    0  0.33326153442E+02 -0.12688492312E+02  0.23320834720E+02  0.42608586843E+02  0.51100000000E-03 0. -1.
        -11    1    3    3    0    0 -0.14511493947E+01  0.42509959246E+01 -0.10264744513E+02  0.11204542878E+02  0.51100000000E-03 0.  1.
        -12    1    3    3    0    0 -0.32134214546E+02  0.92993439808E+01 -0.13819409884E+02  0.36194773552E+02  0.00000000000E+00 0.  1.
</event>
<event>
 7    1  0.2569312E-015  0.9000763E+02  0.7816164E-02  0.1186339E+00
        -11   -1    0    0    0    0  0.00000000000E+00  0.00000000000E+00  0.45593999997E+02  0.45594000000E+02  0.51100000000E-03 0.  1.
         11   -1    0    0    0    0 -0.00000000000E+00 -0.00000000000E+00 -0.45593999997E+02  0.45594000000E+02  0.51100000000E-03 0. -1.
    9900012    2    1    2    0    0 -0.99922347289E+00  0.57336756393E+00 -0.25707134553E+00  0.90007625657E+02  0.89999885516E+02 0.  0.
         12    1    1    2    0    0  0.99922347289E+00 -0.57336756393E+00  0.25707134553E+00  0.11803743427E+01  0.00000000000E+00 0. -1.
         11    1    3    3    0    0  0.26248017445E+01 -0.57771093382E+00  0.87084373666E+01  0.91137377486E+01  0.51100000000E-03 0. -1.
        -11    1    3    3    0    0 -0.35085483447E+02 -0.21787753244E+02 -0.20694997447E+01  0.41351906480E+02  0.51100000000E-03 0.  1.
         12    1    3    3    0    0  0.31461458230E+02  0.22938831741E+02 -0.68960089674E+01  0.39541981428E+02  0.00000000000E+00 0. -1.
</event>
<event>
 7    1  0.2569312E-015  0.9000769E+02  0.7816164E-02  0.1186339E+00
        -11   -1    0    0    0    0  0.00000000000E+00  0.00000000000E+00  0.45593999997E+02  0.45594000000E+02  0.51100000000E-03 0.  1.
         11   -1    0    0    0    0 -0.00000000000E+00 -0.00000000000E+00 -0.45593999997E+02  0.45594000000E+02  0.51100000000E-03 0. -1.
    9900012    2    1    2    0    0  0.18965346263E+00  0.71916762464E+00  0.91649001512E+00  0.90007693067E+02  0.89999953815E+02 0.  0.
         12    1    1    2    0    0 -0.18965346263E+00 -0.71916762464E+00 -0.91649001512E+00  0.11803069330E+01  0.00000000000E+00 0. -1.
         11    1    3    3    0    0 -0.30735047754E+01  0.58066507543E+01 -0.53374788063E+01  0.84647684467E+01  0.51100000000E-03 0. -1.
        -11    1    3    3    0    0 -0.37731485511E+02 -0.10304156048E+02  0.89699193739E+01  0.40128544511E+02  0.51100000000E-03 0.  1.
         12    1    3    3    0    0  0.40994643749E+02  0.52166729187E+01 -0.27159505524E+01  0.41414380109E+02  0.00000000000E+00 0. -1.
</event>
<event>
 7    1  0.2569312E-015  0.9000775E+02  0.7816164E-02  0.1186339E+00
        -11   -1    0    0    0    0  0.00000000000E+00  0.00000000000E+00  0.45593999997E+02  0.45594000000E+02  0.51100000000E-03 0. -1.
         11   -1    0    0    0    0 -0.00000000000E+00 -0.00000000000E+00 -0.45593999997E+02  0.45594000000E+02  0.51100000000E-03 0.  1.
    9900012    2    1    2    0    0  0.95217621727E+00  0.37885779255E+00 -0.58551261662E+00  0.90007746722E+02  0.90000008179E+02 0.  0.
         12    1    1    2    0    0 -0.95217621727E+00 -0.37885779255E+00  0.58551261662E+00  0.11802532779E+01  0.00000000000E+00 0. -1.
         11    1    3    3    0    0 -0.11851539191E+01  0.10621491310E+02 -0.14190806996E+01  0.10781208548E+02  0.51100000000E-03 0. -1.
        -11    1    3    3    0    0  0.15086507672E+02 -0.17382342930E+02 -0.34186573032E+02  0.41212502173E+02  0.51100000000E-03 0.  1.
         12    1    3    3    0    0 -0.12949177536E+02  0.71397094120E+01  0.35020141115E+02  0.38014036001E+02  0.00000000000E+00 0. -1.
</event>
<event>
 7    1  0.2569312E-015  0.9000778E+02  0.7816164E-02  0.1186339E+00
        -11   -1    0    0    0    0  0.00000000000E+00  0.00000000000E+00  0.45593999997E+02  0.45594000000E+02  0.51100000000E-03 0.  1.
         11   -1    0    0    0    0 -0.00000000000E+00 -0.00000000000E+00 -0.45593999997E+02  0.45594000000E+02  0.51100000000E-03 0. -1.
    9900012    2    1    2    0    0  0.10913472379E+01  0.43145331952E+00  0.12539711569E+00  0.90007781716E+02  0.90000043635E+02 0.  0.
         12    1    1    2    0    0 -0.10913472379E+01 -0.43145331952E+00 -0.12539711569E+00  0.11802182837E+01  0.00000000000E+00 0. -1.
         11    1    3    3    0    0 -0.41020036686E+01  0.30052198306E+02 -0.25834268266E+02  0.39841818159E+02  0.51100000000E-03 0. -1.
        -11    1    3    3    0    0  0.77710172626E+01  0.11943102479E+01  0.15746701998E+02  0.17600389494E+02  0.51100000000E-03 0.  1.
        -12    1    3    3    0    0 -0.25776663561E+01 -0.30815055235E+02  0.10212963383E+02  0.32565574063E+02  0.00000000000E+00 0.  1.
</event>
<event>
 7    1  0.2569312E-015  0.9000749E+02  0.7816164E-02  0.1186340E+00
        -11   -1    0    0    0    0  0.00000000000E+00  0.00000000000E+00  0.45593999997E+02  0.45594000000E+02  0.51100000000E-03 0.  1.
         11   -1    0    0    0    0 -0.00000000000E+00 -0.00000000000E+00 -0.45593999997E+02  0.45594000000E+02  0.51100000000E-03 0. -1.
    9900012    2    1    2    0    0  0.54450488220E+00 -0.81223828828E+00  0.66134864669E+00  0.90007492213E+02  0.89999750309E+02 0.  0.
         12    1    1    2    0    0 -0.54450488220E+00  0.81223828828E+00 -0.66134864669E+00  0.11805077874E+01  0.00000000000E+00 0. -1.
         11    1    3    3    0    0 -0.61271179788E+01 -0.36412780981E+02 -0.18433610614E+01  0.36970666396E+02  0.51100000000E-03 0. -1.
        -11    1    3    3    0    0  0.24200778987E+01 -0.81026768827E+01 -0.25619701398E+01  0.88359402985E+01  0.51100000000E-03 0.  1.
        -12    1    3    3    0    0  0.42515449623E+01  0.43703219576E+02  0.50666798479E+01  0.44200885518E+02  0.00000000000E+00 0.  1.
</event>
<event>
 7    1  0.2569312E-015  0.9000777E+02  0.7816164E-02  0.1186339E+00
        -11   -1    0    0    0    0  0.00000000000E+00  0.00000000000E+00  0.45593999997E+02  0.45594000000E+02  0.51100000000E-03 0. -1.
         11   -1    0    0    0    0 -0.00000000000E+00 -0.00000000000E+00 -0.45593999997E+02  0.45594000000E+02  0.51100000000E-03 0.  1.
    9900012    2    1    2    0    0 -0.11686466578E+01 -0.47376487970E-01 -0.15801394270E+00  0.90007767841E+02  0.90000029577E+02 0.  0.
         12    1    1    2    0    0  0.11686466578E+01  0.47376487970E-01  0.15801394270E+00  0.11802321587E+01  0.00000000000E+00 0. -1.
         11    1    3    3    0    0  0.92460632880E+01 -0.21491103911E+01  0.59729449364E+01  0.11215365945E+02  0.51100000000E-03 0. -1.
        -11    1    3    3    0    0  0.26036959336E+02 -0.18944602966E+02  0.99988371169E+01  0.33716434820E+02  0.51100000000E-03 0.  1.
         12    1    3    3    0    0 -0.36451669282E+02  0.21046336869E+02 -0.16129795996E+02  0.45075967077E+02  0.00000000000E+00 0. -1.
</event>
<event>
 7    1  0.2569312E-015  0.9000773E+02  0.7816164E-02  0.1186339E+00
        -11   -1    0    0    0    0  0.00000000000E+00  0.00000000000E+00  0.45593999997E+02  0.45594000000E+02  0.51100000000E-03 0. -1.
         11   -1    0    0    0    0 -0.00000000000E+00 -0.00000000000E+00 -0.45593999997E+02  0.45594000000E+02  0.51100000000E-03 0.  1.
    9900012    2    1    2    0    0 -0.10509380524E+01  0.48463023474E+00 -0.23175408429E+00  0.90007725790E+02  0.89999986971E+02 0.  0.
         12    1    1    2    0    0  0.10509380524E+01 -0.48463023474E+00  0.23175408429E+00  0.11802742097E+01  0.00000000000E+00 0. -1.
         11    1    3    3    0    0 -0.58444286119E+01 -0.26750955738E+01 -0.78107688038E+00  0.64748408075E+01  0.51100000000E-03 0. -1.
        -11    1    3    3    0    0 -0.26204545673E+02 -0.28621701178E+02  0.39578950119E+01  0.39006985597E+02  0.51100000000E-03 0.  1.
         12    1    3    3    0    0  0.30998036232E+02  0.31781426986E+02 -0.34085722158E+01  0.44525899385E+02  0.00000000000E+00 0. -1.
</event>
<event>
 7    1  0.2569312E-015  0.9000770E+02  0.7816164E-02  0.1186339E+00
        -11   -1    0    0    0    0  0.00000000000E+00  0.00000000000E+00  0.45593999997E+02  0.45594000000E+02  0.51100000000E-03 0.  1.
         11   -1    0    0    0    0 -0.00000000000E+00 -0.00000000000E+00 -0.45593999997E+02  0.45594000000E+02  0.51100000000E-03 0. -1.
    9900012    2    1    2    0    0 -0.91643996357E+00  0.23621448779E+00  0.70529441073E+00  0.90007703556E+02  0.89999964442E+02 0.  0.
         12    1    1    2    0    0  0.91643996357E+00 -0.23621448779E+00 -0.70529441073E+00  0.11802964445E+01  0.00000000000E+00 0. -1.
         11    1    3    3    0    0  0.89528743287E+01 -0.42654307336E+01 -0.26942023097E+01  0.10276506431E+02  0.51100000000E-03 0. -1.
        -11    1    3    3    0    0  0.20559795576E+02 -0.25502774486E+02  0.14122006755E+02  0.35672507280E+02  0.51100000000E-03 0.  1.
         12    1    3    3    0    0 -0.30429109868E+02  0.30004419707E+02 -0.10722510034E+02  0.44058689844E+02  0.00000000000E+00 0. -1.
</event>
<event>
 7    1  0.2569312E-015  0.9000776E+02  0.7816164E-02  0.1186339E+00
        -11   -1    0    0    0    0  0.00000000000E+00  0.00000000000E+00  0.45593999997E+02  0.45594000000E+02  0.51100000000E-03 0.  1.
         11   -1    0    0    0    0 -0.00000000000E+00 -0.00000000000E+00 -0.45593999997E+02  0.45594000000E+02  0.51100000000E-03 0. -1.
    9900012    2    1    2    0    0  0.65320152671E-02  0.11794396150E+01 -0.42876977730E-01  0.90007763198E+02  0.90000024873E+02 0.  0.
         12    1    1    2    0    0 -0.65320152671E-02 -0.11794396150E+01  0.42876977730E-01  0.11802368016E+01  0.00000000000E+00 0. -1.
         11    1    3    3    0    0 -0.85473905684E+01  0.17169864271E+01 -0.36750218779E+01  0.94610630472E+01  0.51100000000E-03 0. -1.
        -11    1    3    3    0    0 -0.25295965097E+02  0.15882894885E+02 -0.20157018017E+02  0.36034116831E+02  0.51100000000E-03 0.  1.
         12    1    3    3    0    0  0.33849887681E+02 -0.16420441697E+02  0.23789162918E+02  0.44512583321E+02  0.00000000000E+00 0. -1.
</event>
<event>
 7    1  0.2569312E-015  0.9000773E+02  0.7816164E-02  0.1186339E+00
        -11   -1    0    0    0    0  0.00000000000E+00  0.00000000000E+00  0.45593999997E+02  0.45594000000E+02  0.51100000000E-03 0. -1.
         11   -1    0    0    0    0 -0.00000000000E+00 -0.00000000000E+00 -0.45593999997E+02  0.45594000000E+02  0.51100000000E-03 0.  1.
    9900012    2    1    2    0    0  0.10681654637E+00 -0.11640034773E+01 -0.16348995409E+00  0.90007727644E+02  0.89999988849E+02 0.  0.
         12    1    1    2    0    0 -0.10681654637E+00  0.11640034773E+01  0.16348995409E+00  0.11802723562E+01  0.00000000000E+00 0. -1.
         11    1    3    3    0    0  0.37613031628E+02 -0.18450316050E+02  0.83387743714E+01  0.42716384080E+02  0.51100000000E-03 0. -1.
        -11    1    3    3    0    0 -0.25061029196E+01  0.10118741688E+02 -0.44543860360E+01  0.11336271010E+02  0.51100000000E-03 0.  1.
        -12    1    3    3    0    0 -0.35000112162E+02  0.71675708841E+01 -0.40478782895E+01  0.35955072554E+02  0.00000000000E+00 0.  1.
</event>
<event>
 7    1  0.2569312E-015  0.9000774E+02  0.7816164E-02  0.1186339E+00
        -11   -1    0    0    0    0  0.00000000000E+00  0.00000000000E+00  0.45593999997E+02  0.45594000000E+02  0.51100000000E-03 0. -1.
         11   -1    0    0    0    0 -0.00000000000E+00 -0.00000000000E+00 -0.45593999997E+02  0.45594000000E+02  0.51100000000E-03 0.  1.
    9900012    2    1    2    0    0 -0.59037308707E+00 -0.18954617167E-01 -0.10218141675E+01  0.90007744158E+02  0.90000005581E+02 0.  0.
         12    1    1    2    0    0  0.59037308707E+00  0.18954617167E-01  0.10218141675E+01  0.11802558419E+01  0.00000000000E+00 0. -1.
         11    1    3    3    0    0 -0.21873545531E+01 -0.48517893873E+01 -0.88404172918E+01  0.10318786671E+02  0.51100000000E-03 0. -1.
        -11    1    3    3    0    0  0.38701638268E+02 -0.87054051356E+01  0.62715156697E+01  0.40161334542E+02  0.51100000000E-03 0.  1.
         12    1    3    3    0    0 -0.37104656802E+02  0.13538239906E+02  0.15470874546E+01  0.39527622945E+02  0.00000000000E+00 0. -1.
</event>
<event>
 7    1  0.2569312E-015  0.9000774E+02  0.7816164E-02  0.1186339E+00
        -11   -1    0    0    0    0  0.00000000000E+00  0.00000000000E+00  0.45593999997E+02  0.45594000000E+02  0.51100000000E-03 0.  1.
         11   -1    0    0    0    0 -0.00000000000E+00 -0.00000000000E+00 -0.45593999997E+02  0.45594000000E+02  0.51100000000E-03 0. -1.
    9900012    2    1    2    0    0  0.85808861393E+00 -0.79533766260E+00  0.15538528705E+00  0.90007736193E+02  0.89999997511E+02 0.  0.
         12    1    1    2    0    0 -0.85808861393E+00  0.79533766260E+00 -0.15538528705E+00  0.11802638071E+01  0.00000000000E+00 0. -1.
         11    1    3    3    0    0 -0.74693724887E+00  0.49028801221E+01 -0.12139581619E+02  0.13113565148E+02  0.51100000000E-03 0. -1.
        -11    1    3    3    0    0  0.22591420594E+02 -0.33685250404E+02  0.28467541295E+01  0.40659222675E+02  0.51100000000E-03 0.  1.
         12    1    3    3    0    0 -0.20986394731E+02  0.27987032619E+02  0.94482127767E+01  0.36234948369E+02  0.00000000000E+00 0. -1.
</event>
<event>
 7    1  0.2569312E-015  0.9000677E+02  0.7816164E-02  0.1186341E+00
        -11   -1    0    0    0    0  0.00000000000E+00  0.00000000000E+00  0.45593999997E+02  0.45594000000E+02  0.51100000000E-03 0.  1.
         11   -1    0    0    0    0 -0.00000000000E+00 -0.00000000000E+00 -0.45593999997E+02  0.45594000000E+02  0.51100000000E-03 0. -1.
    9900012    2    1    2    0    0 -0.11430355121E+01 -0.17248032586E+00  0.24296423886E+00  0.90006767057E+02  0.89999015577E+02 0.  0.
         12    1    1    2    0    0  0.11430355121E+01  0.17248032586E+00 -0.24296423886E+00  0.11812329432E+01  0.00000000000E+00 0. -1.
         11    1    3    3    0    0  0.17192028354E+02  0.16327599184E+02 -0.29089537517E+02  0.37528089843E+02  0.51100000000E-03 0. -1.
        -11    1    3    3    0    0 -0.69213849929E+01  0.77286414859E+01 -0.27043191131E+01  0.10721511627E+02  0.51100000000E-03 0.  1.
        -12    1    3    3    0    0 -0.11413678873E+02 -0.24228720996E+02  0.32036820869E+02  0.41757165587E+02  0.00000000000E+00 0.  1.
</event>
<event>
 7    1  0.2569312E-015  0.9000773E+02  0.7816164E-02  0.1186339E+00
        -11   -1    0    0    0    0  0.00000000000E+00  0.00000000000E+00  0.45593999997E+02  0.45594000000E+02  0.51100000000E-03 0.  1.
         11   -1    0    0    0    0 -0.00000000000E+00 -0.00000000000E+00 -0.45593999997E+02  0.45594000000E+02  0.51100000000E-03 0. -1.
    9900012    2    1    2    0    0  0.39990011048E+00 -0.10687254719E+01  0.30158213770E+00  0.90007726295E+02  0.89999987482E+02 0.  0.
         12    1    1    2    0    0 -0.39990011048E+00  0.10687254719E+01 -0.30158213770E+00  0.11802737049E+01  0.00000000000E+00 0. -1.
         11    1    3    3    0    0 -0.35991694766E+02  0.47099166207E+01 -0.12512445883E+02  0.38394618229E+02  0.51100000000E-03 0. -1.
        -11    1    3    3    0    0  0.82994881451E+00  0.98803605116E+01 -0.18412292631E+01  0.10084664810E+02  0.51100000000E-03 0.  1.
        -12    1    3    3    0    0  0.35561646062E+02 -0.15659002604E+02  0.14655257283E+02  0.41528443256E+02  0.00000000000E+00 0.  1.
</event>
<event>
 7    1  0.2569312E-015  0.9000769E+02  0.7816164E-02  0.1186339E+00
        -11   -1    0    0    0    0  0.00000000000E+00  0.00000000000E+00  0.45593999997E+02  0.45594000000E+02  0.51100000000E-03 0. -1.
         11   -1    0    0    0    0 -0.00000000000E+00 -0.00000000000E+00 -0.45593999997E+02  0.45594000000E+02  0.51100000000E-03 0.  1.
    9900012    2    1    2    0    0  0.10237608334E+01  0.20176883045E-01 -0.58705123565E+00  0.90007693894E+02  0.89999954653E+02 0.  0.
         12    1    1    2    0    0 -0.10237608334E+01 -0.20176883045E-01  0.58705123565E+00  0.11803061060E+01  0.00000000000E+00 0. -1.
         11    1    3    3    0    0 -0.87113847537E+01  0.23549508521E+02  0.23721662796E+02  0.34542508044E+02  0.51100000000E-03 0. -1.
        -11    1    3    3    0    0  0.17897799320E+01  0.11706309018E+02  0.14924079622E+00  0.11843278942E+02  0.51100000000E-03 0.  1.
        -12    1    3    3    0    0  0.79453656551E+01 -0.35235640656E+02 -0.24457954828E+02  0.43621906907E+02  0.00000000000E+00 0.  1.
</event>
<event>
 7    1  0.2569312E-015  0.9000782E+02  0.7816164E-02  0.1186339E+00
        -11   -1    0    0    0    0  0.00000000000E+00  0.00000000000E+00  0.45593999997E+02  0.45594000000E+02  0.51100000000E-03 0.  1.
         11   -1    0    0    0    0 -0.00000000000E+00 -0.00000000000E+00 -0.45593999997E+02  0.45594000000E+02  0.51100000000E-03 0. -1.
    9900012    2    1    2    0    0  0.11325160629E+01  0.20437115292E+00  0.26165028980E+00  0.90007821592E+02  0.90000084037E+02 0.  0.
         12    1    1    2    0    0 -0.11325160629E+01 -0.20437115292E+00 -0.26165028980E+00  0.11801784081E+01  0.00000000000E+00 0. -1.
         11    1    3    3    0    0  0.47031791006E+01  0.73968987079E+01 -0.37072800637E+01  0.95172438174E+01  0.51100000000E-03 0. -1.
        -11    1    3    3    0    0  0.56360266644E+01 -0.29675984870E+02 -0.27421318620E+02  0.40796538943E+02  0.51100000000E-03 0.  1.
         12    1    3    3    0    0 -0.92066897021E+01  0.22483457315E+02  0.31390248974E+02  0.39694038832E+02  0.00000000000E+00 0. -1.
</event>
<event>
 7    1  0.2569312E-015  0.9000774E+02  0.7816164E-02  0.1186339E+00
        -11   -1    0    0    0    0  0.00000000000E+00  0.00000000000E+00  0.45593999997E+02  0.45594000000E+02  0.51100000000E-03 0.  1.
         11   -1    0    0    0    0 -0.00000000000E+00 -0.00000000000E+00 -0.45593999997E+02  0.45594000000E+02  0.51100000000E-03 0. -1.
    9900012    2    1    2    0    0  0.55938231642E+00  0.48082118472E+00  0.92136914764E+00  0.90007737871E+02  0.89999999211E+02 0.  0.
         12    1    1    2    0    0 -0.55938231642E+00 -0.48082118472E+00 -0.92136914764E+00  0.11802621293E+01  0.00000000000E+00 0. -1.
         11    1    3    3    0    0 -0.26073566456E+01 -0.72512225187E+01  0.96398417012E+01  0.12341194633E+02  0.51100000000E-03 0. -1.
        -11    1    3    3    0    0 -0.74302316852E+01 -0.97379183842E+01  0.30817613070E+02  0.33162639716E+02  0.51100000000E-03 0.  1.
         12    1    3    3    0    0  0.10596970647E+02  0.17469962088E+02 -0.39536085623E+02  0.44503903521E+02  0.00000000000E+00 0. -1.
</event>
<event>
 7    1  0.2569312E-015  0.9000758E+02  0.7816164E-02  0.1186339E+00
        -11   -1    0    0    0    0  0.00000000000E+00  0.00000000000E+00  0.45593999997E+02  0.45594000000E+02  0.51100000000E-03 0.  1.
         11   -1    0    0    0    0 -0.00000000000E+00 -0.00000000000E+00 -0.45593999997E+02  0.45594000000E+02  0.51100000000E-03 0. -1.
    9900012    2    1    2    0    0 -0.17255632493E-01 -0.61371271791E+00  0.10081929657E+01  0.90007578841E+02  0.89999838081E+02 0.  0.
         12    1    1    2    0    0  0.17255632493E-01  0.61371271791E+00 -0.10081929657E+01  0.11804211592E+01  0.00000000000E+00 0. -1.
         11    1    3    3    0    0 -0.23988887729E+02  0.32096253766E+02  0.24230266546E+01  0.40143583531E+02  0.51100000000E-03 0. -1.
        -11    1    3    3    0    0  0.16240750766E+01  0.10873362302E+01  0.80264692770E+01  0.82610004992E+01  0.51100000000E-03 0.  1.
        -12    1    3    3    0    0  0.22347557020E+02 -0.33797302714E+02 -0.94413029659E+01  0.41602994811E+02  0.00000000000E+00 0.  1.
</event>
<event>
 7    1  0.2569312E-015  0.9000780E+02  0.7816164E-02  0.1186339E+00
        -11   -1    0    0    0    0  0.00000000000E+00  0.00000000000E+00  0.45593999997E+02  0.45594000000E+02  0.51100000000E-03 0.  1.
         11   -1    0    0    0    0 -0.00000000000E+00 -0.00000000000E+00 -0.45593999997E+02  0.45594000000E+02  0.51100000000E-03 0. -1.
    9900012    2    1    2    0    0  0.63267641496E+00  0.98247418538E+00 -0.16537160379E+00  0.90007795468E+02  0.90000057568E+02 0.  0.
         12    1    1    2    0    0 -0.63267641496E+00 -0.98247418538E+00  0.16537160379E+00  0.11802045324E+01  0.00000000000E+00 0. -1.
         11    1    3    3    0    0  0.29316684337E+01  0.14961760039E+00  0.82474379250E+01  0.87542731177E+01  0.51100000000E-03 0. -1.
        -11    1    3    3    0    0  0.13998633192E+01 -0.39824626243E+02 -0.65646323725E+01  0.40386320347E+02  0.51100000000E-03 0.  1.
         12    1    3    3    0    0 -0.36988553380E+01  0.40657482828E+02 -0.18481771563E+01  0.40867202003E+02  0.00000000000E+00 0. -1.
</event>
<event>
 7    1  0.2569312E-015  0.9000769E+02  0.7816164E-02  0.1186339E+00
        -11   -1    0    0    0    0  0.00000000000E+00  0.00000000000E+00  0.45593999997E+02  0.45594000000E+02  0.51100000000E-03 0.  1.
         11   -1    0    0    0    0 -0.00000000000E+00 -0.00000000000E+00 -0.45593999997E+02  0.45594000000E+02  0.51100000000E-03 0. -1.
    9900012    2    1    2    0    0 -0.10294113281E+01  0.57618505063E+00 -0.38139942956E-01  0.90007690062E+02  0.89999950771E+02 0.  0.
         12    1    1    2    0    0  0.10294113281E+01 -0.57618505063E+00  0.38139942956E-01  0.11803099382E+01  0.00000000000E+00 0. -1.
         11    1    3    3    0    0 -0.40487439180E+01 -0.36198971499E+00 -0.15952661653E+02  0.16462404987E+02  0.51100000000E-03 0. -1.
        -11    1    3    3    0    0  0.13451548823E+02  0.17284164822E+02 -0.21947688511E+02  0.31006250186E+02  0.51100000000E-03 0.  1.
        -12    1    3    3    0    0 -0.10432216233E+02 -0.16345990057E+02  0.37862210221E+02  0.42539034889E+02  0.00000000000E+00 0.  1.
</event>
<event>
 7    1  0.2569312E-015  0.9000783E+02  0.7816164E-02  0.1186339E+00
        -11   -1    0    0    0    0  0.00000000000E+00  0.00000000000E+00  0.45593999997E+02  0.45594000000E+02  0.51100000000E-03 0.  1.
         11   -1    0    0    0    0 -0.00000000000E+00 -0.00000000000E+00 -0.45593999997E+02  0.45594000000E+02  0.51100000000E-03 0. -1.
    9900012    2    1    2    0    0  0.27809887307E+00 -0.57879244683E+00  0.99018852098E+00  0.90007825019E+02  0.90000087509E+02 0.  0.
         12    1    1    2    0    0 -0.27809887307E+00  0.57879244683E+00 -0.99018852098E+00  0.11801749814E+01  0.00000000000E+00 0. -1.
         11    1    3    3    0    0  0.13364150323E+01 -0.95182181909E+01 -0.49604152579E+00  0.96243721938E+01  0.51100000000E-03 0. -1.
        -11    1    3    3    0    0 -0.31798567807E+01  0.23025550156E+01  0.40531580129E+02  0.40721274989E+02  0.51100000000E-03 0.  1.
         12    1    3    3    0    0  0.21215406215E+01  0.66368707284E+01 -0.39045350082E+02  0.39662177836E+02  0.00000000000E+00 0. -1.
</event>
<event>
 7    1  0.2569312E-015  0.9000779E+02  0.7816164E-02  0.1186339E+00
        -11   -1    0    0    0    0  0.00000000000E+00  0.00000000000E+00  0.45593999997E+02  0.45594000000E+02  0.51100000000E-03 0.  1.
         11   -1    0    0    0    0 -0.00000000000E+00 -0.00000000000E+00 -0.45593999997E+02  0.45594000000E+02  0.51100000000E-03 0. -1.
    9900012    2    1    2    0    0 -0.24193296404E+00 -0.95685173056E+00  0.64714474640E+00  0.90007791071E+02  0.90000053113E+02 0.  0.
         12    1    1    2    0    0  0.24193296404E+00  0.95685173056E+00 -0.64714474640E+00  0.11802089290E+01  0.00000000000E+00 0. -1.
         11    1    3    3    0    0  0.24037599547E+02  0.32308722420E+02  0.14077350180E+02  0.42659483409E+02  0.51100000000E-03 0. -1.
        -11    1    3    3    0    0  0.77808746702E+00 -0.20668663635E+01 -0.63345901111E+01  0.67085310469E+01  0.51100000000E-03 0.  1.
        -12    1    3    3    0    0 -0.25057619978E+02 -0.31198707787E+02 -0.70956153230E+01  0.40639776615E+02  0.00000000000E+00 0.  1.
</event>
<event>
 7    1  0.2569312E-015  0.9000775E+02  0.7816164E-02  0.1186339E+00
        -11   -1    0    0    0    0  0.00000000000E+00  0.00000000000E+00  0.45593999997E+02  0.45594000000E+02  0.51100000000E-03 0.  1.
         11   -1    0    0    0    0 -0.00000000000E+00 -0.00000000000E+00 -0.45593999997E+02  0.45594000000E+02  0.51100000000E-03 0. -1.
    9900012    2    1    2    0    0  0.13774709373E+00 -0.11683839189E+01  0.94256216373E-01  0.90007754484E+02  0.90000016043E+02 0.  0.
         12    1    1    2    0    0 -0.13774709373E+00  0.11683839189E+01 -0.94256216373E-01  0.11802455160E+01  0.00000000000E+00 0. -1.
         11    1    3    3    0    0  0.47846466532E+01  0.79813665887E+01 -0.30641078866E+01  0.97971329286E+01  0.51100000000E-03 0. -1.
        -11    1    3    3    0    0  0.24778763627E+02  0.24587011924E+02  0.57118387818E+01  0.35371363909E+02  0.51100000000E-03 0.  1.
         12    1    3    3    0    0 -0.29425663187E+02 -0.33736762432E+02 -0.25534746789E+01  0.44839257646E+02  0.00000000000E+00 0. -1.
</event>
<event>
 7    1  0.2569312E-015  0.9000772E+02  0.7816164E-02  0.1186339E+00
        -11   -1    0    0    0    0  0.00000000000E+00  0.00000000000E+00  0.45593999997E+02  0.45594000000E+02  0.51100000000E-03 0.  1.
         11   -1    0    0    0    0 -0.00000000000E+00 -0.00000000000E+00 -0.45593999997E+02  0.45594000000E+02  0.51100000000E-03 0. -1.
    9900012    2    1    2    0    0 -0.63824052100E+00 -0.99217283369E+00  0.35967837355E-01  0.90007723939E+02  0.89999985095E+02 0.  0.
         12    1    1    2    0    0  0.63824052100E+00  0.99217283369E+00 -0.35967837355E-01  0.11802760609E+01  0.00000000000E+00 0. -1.
         11    1    3    3    0    0  0.53404430855E+01 -0.90612425900E+00  0.52858059266E+01  0.75684303576E+01  0.51100000000E-03 0. -1.
        -11    1    3    3    0    0 -0.10420415996E+01  0.11302776120E+02  0.36844337530E+02  0.38553129665E+02  0.51100000000E-03 0.  1.
         12    1    3    3    0    0 -0.49366420069E+01 -0.11388824694E+02 -0.42094175619E+02  0.43886163916E+02  0.00000000000E+00 0. -1.
</event>
<event>
 7    1  0.2569312E-015  0.9000776E+02  0.7816164E-02  0.1186339E+00
        -11   -1    0    0    0    0  0.00000000000E+00  0.00000000000E+00  0.45593999997E+02  0.45594000000E+02  0.51100000000E-03 0.  1.
         11   -1    0    0    0    0 -0.00000000000E+00 -0.00000000000E+00 -0.45593999997E+02  0.45594000000E+02  0.51100000000E-03 0. -1.
    9900012    2    1    2    0    0  0.99410429648E+00 -0.51458262503E+00  0.37406754202E+00  0.90007760551E+02  0.90000022191E+02 0.  0.
         12    1    1    2    0    0 -0.99410429648E+00  0.51458262503E+00 -0.37406754202E+00  0.11802394487E+01  0.00000000000E+00 0. -1.
         11    1    3    3    0    0 -0.93127056371E+01 -0.37364490849E+01 -0.16305904592E+01  0.10165941351E+02  0.51100000000E-03 0. -1.
        -11    1    3    3    0    0  0.42770003657E+01 -0.11877977695E+01  0.40442215662E+02  0.40685088221E+02  0.51100000000E-03 0.  1.
         12    1    3    3    0    0  0.60298095679E+01  0.44096642293E+01 -0.38437557661E+02  0.39156730979E+02  0.00000000000E+00 0. -1.
</event>
<event>
 7    1  0.2569312E-015  0.9000777E+02  0.7816164E-02  0.1186339E+00
        -11   -1    0    0    0    0  0.00000000000E+00  0.00000000000E+00  0.45593999997E+02  0.45594000000E+02  0.51100000000E-03 0. -1.
         11   -1    0    0    0    0 -0.00000000000E+00 -0.00000000000E+00 -0.45593999997E+02  0.45594000000E+02  0.51100000000E-03 0.  1.
    9900012    2    1    2    0    0 -0.30724594144E-01  0.10393324926E+01 -0.55837111289E+00  0.90007773610E+02  0.90000035422E+02 0.  0.
         12    1    1    2    0    0  0.30724594144E-01 -0.10393324926E+01  0.55837111289E+00  0.11802263895E+01  0.00000000000E+00 0. -1.
         11    1    3    3    0    0 -0.80913849662E+01 -0.26831292157E+01  0.37837593727E+02  0.38785992218E+02  0.51100000000E-03 0. -1.
        -11    1    3    3    0    0 -0.21947320547E+01 -0.76248908426E+01  0.18673604189E+01  0.81512480240E+01  0.51100000000E-03 0.  1.
        -12    1    3    3    0    0  0.10255392427E+02  0.11347352551E+02 -0.40263325259E+02  0.43070533368E+02  0.00000000000E+00 0.  1.
</event>
<event>
 7    1  0.2569312E-015  0.9000778E+02  0.7816164E-02  0.1186339E+00
        -11   -1    0    0    0    0  0.00000000000E+00  0.00000000000E+00  0.45593999997E+02  0.45594000000E+02  0.51100000000E-03 0.  1.
         11   -1    0    0    0    0 -0.00000000000E+00 -0.00000000000E+00 -0.45593999997E+02  0.45594000000E+02  0.51100000000E-03 0. -1.
    9900012    2    1    2    0    0 -0.73890374885E+00 -0.89947754068E+00  0.19463936881E+00  0.90007778377E+02  0.90000040251E+02 0.  0.
         12    1    1    2    0    0  0.73890374885E+00  0.89947754068E+00 -0.19463936881E+00  0.11802216233E+01  0.00000000000E+00 0. -1.
         11    1    3    3    0    0 -0.14868958866E+02  0.31027308726E+02 -0.39399675837E+01  0.34630956807E+02  0.51100000000E-03 0. -1.
        -11    1    3    3    0    0 -0.36971200254E+01  0.91904777679E+01  0.36539692717E+01  0.10558649051E+02  0.51100000000E-03 0.  1.
        -12    1    3    3    0    0  0.17827175143E+02 -0.41117264035E+02  0.48063768089E+00  0.44818172518E+02  0.00000000000E+00 0.  1.
</event>
<event>
 7    1  0.2569312E-015  0.9000769E+02  0.7816164E-02  0.1186339E+00
        -11   -1    0    0    0    0  0.00000000000E+00  0.00000000000E+00  0.45593999997E+02  0.45594000000E+02  0.51100000000E-03 0.  1.
         11   -1    0    0    0    0 -0.00000000000E+00 -0.00000000000E+00 -0.45593999997E+02  0.45594000000E+02  0.51100000000E-03 0. -1.
    9900012    2    1    2    0    0 -0.70387605602E+00 -0.10457589668E+00  0.94168139744E+00  0.90007685858E+02  0.89999946511E+02 0.  0.
         12    1    1    2    0    0  0.70387605602E+00  0.10457589668E+00 -0.94168139744E+00  0.11803141424E+01  0.00000000000E+00 0. -1.
         11    1    3    3    0    0 -0.83984141849E+01  0.13251190304E+01  0.21543733339E+01  0.87710105455E+01  0.51100000000E-03 0. -1.
        -11    1    3    3    0    0 -0.34925601038E+02 -0.79132941591E+00  0.11462636428E+02  0.36767048348E+02  0.51100000000E-03 0.  1.
         12    1    3    3    0    0  0.42620139167E+02 -0.63836551113E+00 -0.12675328365E+02  0.44469626964E+02  0.00000000000E+00 0. -1.
</event>
<event>
 7    1  0.2569312E-015  0.9000782E+02  0.7816164E-02  0.1186339E+00
        -11   -1    0    0    0    0  0.00000000000E+00  0.00000000000E+00  0.45593999997E+02  0.45594000000E+02  0.51100000000E-03 0.  1.
         11   -1    0    0    0    0 -0.00000000000E+00 -0.00000000000E+00 -0.45593999997E+02  0.45594000000E+02  0.51100000000E-03 0. -1.
    9900012    2    1    2    0    0  0.66564805636E+00  0.59879009029E+00  0.76888171180E+00  0.90007823745E+02  0.90000086218E+02 0.  0.
         12    1    1    2    0    0 -0.66564805636E+00 -0.59879009029E+00 -0.76888171180E+00  0.11801762554E+01  0.00000000000E+00 0. -1.
         11    1    3    3    0    0  0.87033256062E+01  0.63402261399E+00  0.42216983215E+01  0.96939464751E+01  0.51100000000E-03 0. -1.
        -11    1    3    3    0    0  0.18634274513E+01  0.12924988290E+02  0.35639072479E+02  0.37956174354E+02  0.51100000000E-03 0.  1.
         12    1    3    3    0    0 -0.99011050011E+01 -0.12960220813E+02 -0.39091889089E+02  0.42357702916E+02  0.00000000000E+00 0. -1.
</event>
<event>
 7    1  0.2569312E-015  0.9000774E+02  0.7816164E-02  0.1186339E+00
        -11   -1    0    0    0    0  0.00000000000E+00  0.00000000000E+00  0.45593999997E+02  0.45594000000E+02  0.51100000000E-03 0. -1.
         11   -1    0    0    0    0 -0.00000000000E+00 -0.00000000000E+00 -0.45593999997E+02  0.45594000000E+02  0.51100000000E-03 0.  1.
    9900012    2    1    2    0    0 -0.64226925623E+00  0.92700549659E+00 -0.34809616700E+00  0.90007737347E+02  0.89999998680E+02 0.  0.
         12    1    1    2    0    0  0.64226925623E+00 -0.92700549659E+00  0.34809616700E+00  0.11802626528E+01  0.00000000000E+00 0. -1.
         11    1    3    3    0    0 -0.98741997415E+01  0.33519983813E+01  0.30329144286E+01  0.10859755240E+02  0.51100000000E-03 0. -1.
        -11    1    3    3    0    0 -0.19377089340E+02 -0.29929125749E+02 -0.13612785415E+02  0.38164539646E+02  0.51100000000E-03 0.  1.
         12    1    3    3    0    0  0.28609019826E+02  0.27504132864E+02  0.10231774820E+02  0.40983442461E+02  0.00000000000E+00 0. -1.
</event>
<event>
 7    1  0.2569312E-015  0.9000775E+02  0.7816164E-02  0.1186339E+00
        -11   -1    0    0    0    0  0.00000000000E+00  0.00000000000E+00  0.45593999997E+02  0.45594000000E+02  0.51100000000E-03 0.  1.
         11   -1    0    0    0    0 -0.00000000000E+00 -0.00000000000E+00 -0.45593999997E+02  0.45594000000E+02  0.51100000000E-03 0. -1.
    9900012    2    1    2    0    0 -0.11690804261E+01 -0.36928774300E-01  0.15775926284E+00  0.90007745467E+02  0.90000006907E+02 0.  0.
         12    1    1    2    0    0  0.11690804261E+01  0.36928774300E-01 -0.15775926284E+00  0.11802545328E+01  0.00000000000E+00 0. -1.
         11    1    3    3    0    0 -0.38386444624E+02  0.14839712775E+02 -0.65237496376E-01  0.41155078208E+02  0.51100000000E-03 0. -1.
        -11    1    3    3    0    0  0.28742307355E+01  0.42729345642E+01  0.72658522867E+01  0.89057162443E+01  0.51100000000E-03 0.  1.
        -12    1    3    3    0    0  0.34343133463E+02 -0.19149576113E+02 -0.70428555275E+01  0.39946951014E+02  0.00000000000E+00 0.  1.
</event>
<event>
 7    1  0.2569312E-015  0.9000784E+02  0.7816164E-02  0.1186339E+00
        -11   -1    0    0    0    0  0.00000000000E+00  0.00000000000E+00  0.45593999997E+02  0.45594000000E+02  0.51100000000E-03 0.  1.
         11   -1    0    0    0    0 -0.00000000000E+00 -0.00000000000E+00 -0.45593999997E+02  0.45594000000E+02  0.51100000000E-03 0. -1.
    9900012    2    1    2    0    0 -0.10563470350E+01  0.50862476947E+00 -0.13496332172E+00  0.90007837591E+02  0.90000100247E+02 0.  0.
         12    1    1    2    0    0  0.10563470350E+01 -0.50862476947E+00  0.13496332172E+00  0.11801624094E+01  0.00000000000E+00 0. -1.
         11    1    3    3    0    0 -0.88262214816E+01 -0.10041936931E+01  0.19277934122E+01  0.90899383011E+01  0.51100000000E-03 0. -1.
        -11    1    3    3    0    0  0.39871533851E+02 -0.17390915081E+02  0.12467130364E+01  0.43517093569E+02  0.51100000000E-03 0.  1.
         12    1    3    3    0    0 -0.32101659405E+02  0.18903733543E+02 -0.33094697703E+01  0.37400805721E+02  0.00000000000E+00 0. -1.
</event>
<event>
 7    1  0.2569312E-015  0.9000774E+02  0.7816164E-02  0.1186339E+00
        -11   -1    0    0    0    0  0.00000000000E+00  0.00000000000E+00  0.45593999997E+02  0.45594000000E+02  0.51100000000E-03 0. -1.
         11   -1    0    0    0    0 -0.00000000000E+00 -0.00000000000E+00 -0.45593999997E+02  0.45594000000E+02  0.51100000000E-03 0.  1.
    9900012    2    1    2    0    0 -0.11569481025E+01 -0.23100312372E+00  0.33518418155E-01  0.90007739504E+02  0.90000000865E+02 0.  0.
         12    1    1    2    0    0  0.11569481025E+01  0.23100312372E+00 -0.33518418155E-01  0.11802604964E+01  0.00000000000E+00 0. -1.
         11    1    3    3    0    0  0.33351829635E+02 -0.13055883804E+02  0.71561631293E+01  0.36524119605E+02  0.51100000000E-03 0. -1.
        -11    1    3    3    0    0  0.36202532375E+01  0.32273878658E+01 -0.12864342261E+02  0.13748220540E+02  0.51100000000E-03 0.  1.
         12    1    3    3    0    0 -0.38129030975E+02  0.95974928147E+01  0.57416975501E+01  0.39735399359E+02  0.00000000000E+00 0. -1.
</event>
<event>
 7    1  0.2569312E-015  0.9000779E+02  0.7816164E-02  0.1186339E+00
        -11   -1    0    0    0    0  0.00000000000E+00  0.00000000000E+00  0.45593999997E+02  0.45594000000E+02  0.51100000000E-03 0. -1.
         11   -1    0    0    0    0 -0.00000000000E+00 -0.00000000000E+00 -0.45593999997E+02  0.45594000000E+02  0.51100000000E-03 0.  1.
    9900012    2    1    2    0    0 -0.53443145290E+00 -0.97274847164E-01 -0.10477625239E+01  0.90007794221E+02  0.90000056305E+02 0.  0.
         12    1    1    2    0    0  0.53443145290E+00  0.97274847164E-01  0.10477625239E+01  0.11802057788E+01  0.00000000000E+00 0. -1.
         11    1    3    3    0    0  0.17936006140E+02  0.53259057406E+01  0.36474209118E+02  0.40993091116E+02  0.51100000000E-03 0. -1.
        -11    1    3    3    0    0 -0.67694054101E+01  0.84052595446E+01 -0.52388827340E+01  0.11996629951E+02  0.51100000000E-03 0.  1.
        -12    1    3    3    0    0 -0.11701032183E+02 -0.13828440132E+02 -0.32283088908E+02  0.37018073154E+02  0.00000000000E+00 0.  1.
</event>
<event>
 7    1  0.2569312E-015  0.9000764E+02  0.7816164E-02  0.1186339E+00
        -11   -1    0    0    0    0  0.00000000000E+00  0.00000000000E+00  0.45593999997E+02  0.45594000000E+02  0.51100000000E-03 0.  1.
         11   -1    0    0    0    0 -0.00000000000E+00 -0.00000000000E+00 -0.45593999997E+02  0.45594000000E+02  0.51100000000E-03 0. -1.
    9900012    2    1    2    0    0 -0.11329952107E+01  0.32812120613E+00  0.43590071037E-01  0.90007643373E+02  0.89999903465E+02 0.  0.
         12    1    1    2    0    0  0.11329952107E+01 -0.32812120613E+00 -0.43590071037E-01  0.11803566273E+01  0.00000000000E+00 0. -1.
         11    1    3    3    0    0 -0.14351177596E+01 -0.77719000831E+00  0.87696436156E+01  0.89202150590E+01  0.51100000000E-03 0. -1.
        -11    1    3    3    0    0 -0.26750418968E+01  0.27947928032E+02  0.25198494309E+02  0.37725411146E+02  0.51100000000E-03 0.  1.
         12    1    3    3    0    0  0.29771644456E+01 -0.26842616818E+02 -0.33924547854E+02  0.43362017167E+02  0.00000000000E+00 0. -1.
</event>
<event>
 7    1  0.2569312E-015  0.9000773E+02  0.7816164E-02  0.1186339E+00
        -11   -1    0    0    0    0  0.00000000000E+00  0.00000000000E+00  0.45593999997E+02  0.45594000000E+02  0.51100000000E-03 0. -1.
         11   -1    0    0    0    0 -0.00000000000E+00 -0.00000000000E+00 -0.45593999997E+02  0.45594000000E+02  0.51100000000E-03 0.  1.
    9900012    2    1    2    0    0 -0.17133085655E+00  0.51570703968E+00 -0.10477262255E+01  0.90007729583E+02  0.89999990814E+02 0.  0.
         12    1    1    2    0    0  0.17133085655E+00 -0.51570703968E+00  0.10477262255E+01  0.11802704168E+01  0.00000000000E+00 0. -1.
         11    1    3    3    0    0 -0.78628224743E+01 -0.11597844986E+01 -0.57742469766E+01  0.98240015143E+01  0.51100000000E-03 0. -1.
        -11    1    3    3    0    0 -0.31085286252E+02 -0.30184498704E+01 -0.16926725455E+02  0.35523514689E+02  0.51100000000E-03 0.  1.
         12    1    3    3    0    0  0.38776777869E+02  0.46939414087E+01  0.21653246206E+02  0.44660213380E+02  0.00000000000E+00 0. -1.
</event>
<event>
 7    1  0.2569312E-015  0.9000778E+02  0.7816164E-02  0.1186339E+00
        -11   -1    0    0    0    0  0.00000000000E+00  0.00000000000E+00  0.45593999997E+02  0.45594000000E+02  0.51100000000E-03 0. -1.
         11   -1    0    0    0    0 -0.00000000000E+00 -0.00000000000E+00 -0.45593999997E+02  0.45594000000E+02  0.51100000000E-03 0.  1.
    9900012    2    1    2    0    0 -0.49531909833E+00  0.10039131246E+01  0.37381126525E+00  0.90007780769E+02  0.90000042675E+02 0.  0.
         12    1    1    2    0    0  0.49531909833E+00 -0.10039131246E+01 -0.37381126525E+00  0.11802192309E+01  0.00000000000E+00 0. -1.
         11    1    3    3    0    0 -0.11473641985E+02 -0.68447989199E+01  0.13101656594E+01  0.13424316257E+02  0.51100000000E-03 0. -1.
        -11    1    3    3    0    0  0.18179461607E+02 -0.14835537298E+02 -0.30594560263E+02  0.38556622118E+02  0.51100000000E-03 0.  1.
         12    1    3    3    0    0 -0.72011387207E+01  0.22684249342E+02  0.29658205869E+02  0.38026842394E+02  0.00000000000E+00 0. -1.
</event>
<event>
 7    1  0.2569312E-015  0.9000805E+02  0.7816164E-02  0.1186338E+00
        -11   -1    0    0    0    0  0.00000000000E+00  0.00000000000E+00  0.45593999997E+02  0.45594000000E+02  0.51100000000E-03 0.  1.
         11   -1    0    0    0    0 -0.00000000000E+00 -0.00000000000E+00 -0.45593999997E+02  0.45594000000E+02  0.51100000000E-03 0. -1.
    9900012    2    1    2    0    0  0.14299607000E+00  0.36957110220E+00  0.11114138454E+01  0.90008054488E+02  0.90000320007E+02 0.  0.
         12    1    1    2    0    0 -0.14299607000E+00 -0.36957110220E+00 -0.11114138454E+01  0.11799455120E+01  0.00000000000E+00 0. -1.
         11    1    3    3    0    0  0.13910880688E+02 -0.27481857090E+02 -0.16787877193E+02  0.35079878728E+02  0.51100000000E-03 0. -1.
        -11    1    3    3    0    0  0.42812136295E+00 -0.90056104623E+01 -0.38910071990E+01  0.98195847663E+01  0.51100000000E-03 0.  1.
        -12    1    3    3    0    0 -0.14196005981E+02  0.36857038655E+02  0.21790298237E+02  0.45108590994E+02  0.00000000000E+00 0.  1.
</event>
<event>
 7    1  0.2569312E-015  0.9000771E+02  0.7816164E-02  0.1186339E+00
        -11   -1    0    0    0    0  0.00000000000E+00  0.00000000000E+00  0.45593999997E+02  0.45594000000E+02  0.51100000000E-03 0.  1.
         11   -1    0    0    0    0 -0.00000000000E+00 -0.00000000000E+00 -0.45593999997E+02  0.45594000000E+02  0.51100000000E-03 0. -1.
    9900012    2    1    2    0    0  0.62609067423E+00  0.70635557184E+00  0.70862971414E+00  0.90007710291E+02  0.89999971266E+02 0.  0.
         12    1    1    2    0    0 -0.62609067423E+00 -0.70635557184E+00 -0.70862971414E+00  0.11802897093E+01  0.00000000000E+00 0. -1.
         11    1    3    3    0    0  0.24421117244E+02  0.36797510147E+01 -0.16685379239E+02  0.29804922674E+02  0.51100000000E-03 0. -1.
        -11    1    3    3    0    0  0.76045792172E+01 -0.42122468185E+01 -0.13551099397E+02  0.16099842964E+02  0.51100000000E-03 0.  1.
        -12    1    3    3    0    0 -0.31399605787E+02  0.12388513757E+01  0.30945108350E+02  0.44102944653E+02  0.00000000000E+00 0.  1.
</event>
<event>
 7    1  0.2569312E-015  0.9000746E+02  0.7816164E-02  0.1186340E+00
        -11   -1    0    0    0    0  0.00000000000E+00  0.00000000000E+00  0.45593999997E+02  0.45594000000E+02  0.51100000000E-03 0. -1.
         11   -1    0    0    0    0 -0.00000000000E+00 -0.00000000000E+00 -0.45593999997E+02  0.45594000000E+02  0.51100000000E-03 0.  1.
    9900012    2    1    2    0    0  0.37658273942E+00  0.49746289308E+00 -0.10021882341E+01  0.90007464043E+02  0.89999721768E+02 0.  0.
         12    1    1    2    0    0 -0.37658273942E+00 -0.49746289308E+00  0.10021882341E+01  0.11805359572E+01  0.00000000000E+00 0. -1.
         11    1    3    3    0    0  0.34660340034E+02 -0.18187333999E+01 -0.23597166453E+02  0.41969908593E+02  0.51100000000E-03 0. -1.
        -11    1    3    3    0    0  0.13128671418E+01  0.62595186995E+01  0.50909639878E+01  0.81745402970E+01  0.51100000000E-03 0.  1.
        -12    1    3    3    0    0 -0.35596624436E+02 -0.39433224065E+01  0.17504014231E+02  0.39863015153E+02  0.00000000000E+00 0.  1.
</event>
<event>
 7    1  0.2569312E-015  0.9000774E+02  0.7816164E-02  0.1186339E+00
        -11   -1    0    0    0    0  0.00000000000E+00  0.00000000000E+00  0.45593999997E+02  0.45594000000E+02  0.51100000000E-03 0. -1.
         11   -1    0    0    0    0 -0.00000000000E+00 -0.00000000000E+00 -0.45593999997E+02  0.45594000000E+02  0.51100000000E-03 0.  1.
    9900012    2    1    2    0    0 -0.54441625487E+00 -0.10089932878E+01  0.28027975700E+00  0.90007740175E+02  0.90000001545E+02 0.  0.
         12    1    1    2    0    0  0.54441625487E+00  0.10089932878E+01 -0.28027975700E+00  0.11802598255E+01  0.00000000000E+00 0. -1.
         11    1    3    3    0    0  0.78510392324E+01 -0.28410613238E+01  0.69146400021E+01  0.10840788398E+02  0.51100000000E-03 0. -1.
        -11    1    3    3    0    0  0.26607540821E+02  0.18039020998E+02 -0.20558387957E+02  0.38157762287E+02  0.51100000000E-03 0.  1.
         12    1    3    3    0    0 -0.35002996308E+02 -0.16206952962E+02  0.13924027712E+02  0.41009189489E+02  0.00000000000E+00 0. -1.
</event>
<event>
 7    1  0.2569312E-015  0.9000790E+02  0.7816164E-02  0.1186339E+00
        -11   -1    0    0    0    0  0.00000000000E+00  0.00000000000E+00  0.45593999997E+02  0.45594000000E+02  0.51100000000E-03 0.  1.
         11   -1    0    0    0    0 -0.00000000000E+00 -0.00000000000E+00 -0.45593999997E+02  0.45594000000E+02  0.51100000000E-03 0. -1.
    9900012    2    1    2    0    0 -0.11574851087E+01 -0.13702350445E+00  0.18465447067E+00  0.90007896407E+02  0.90000159839E+02 0.  0.
         12    1    1    2    0    0  0.11574851087E+01  0.13702350445E+00 -0.18465447067E+00  0.11801035934E+01  0.00000000000E+00 0. -1.
         11    1    3    3    0    0  0.43055607719E+01  0.16107557433E+01 -0.84703732809E+01  0.96374068817E+01  0.51100000000E-03 0. -1.
        -11    1    3    3    0    0  0.22405112326E+02 -0.31046393993E+02  0.11093314516E+02  0.39861375610E+02  0.51100000000E-03 0.  1.
         12    1    3    3    0    0 -0.27868158207E+02  0.29298614745E+02 -0.24382867640E+01  0.40509113915E+02  0.00000000000E+00 0. -1.
</event>
<event>
 7    1  0.2569312E-015  0.9000771E+02  0.7816164E-02  0.1186339E+00
        -11   -1    0    0    0    0  0.00000000000E+00  0.00000000000E+00  0.45593999997E+02  0.45594000000E+02  0.51100000000E-03 0.  1.
         11   -1    0    0    0    0 -0.00000000000E+00 -0.00000000000E+00 -0.45593999997E+02  0.45594000000E+02  0.51100000000E-03 0. -1.
    9900012    2    1    2    0    0 -0.81458458111E+00  0.81167969552E+00  0.26590668131E+00  0.90007712607E+02  0.89999973613E+02 0.  0.
         12    1    1    2    0    0  0.81458458111E+00 -0.81167969552E+00 -0.26590668131E+00  0.11802873934E+01  0.00000000000E+00 0. -1.
         11    1    3    3    0    0  0.71083239315E+01  0.16138742850E+01  0.51223960887E+01  0.89090853220E+01  0.51100000000E-03 0. -1.
        -11    1    3    3    0    0 -0.11539249340E+02 -0.28309593642E+01  0.37090564301E+02  0.38947125268E+02  0.51100000000E-03 0.  1.
         12    1    3    3    0    0  0.36163408270E+01  0.20287647747E+01 -0.41947053708E+02  0.42151502017E+02  0.00000000000E+00 0. -1.
</event>
<event>
 7    1  0.2569312E-015  0.9000774E+02  0.7816164E-02  0.1186339E+00
        -11   -1    0    0    0    0  0.00000000000E+00  0.00000000000E+00  0.45593999997E+02  0.45594000000E+02  0.51100000000E-03 0.  1.
         11   -1    0    0    0    0 -0.00000000000E+00 -0.00000000000E+00 -0.45593999997E+02  0.45594000000E+02  0.51100000000E-03 0. -1.
    9900012    2    1    2    0    0  0.34774759475E+00 -0.53540276180E+00  0.99268438373E+00  0.90007742912E+02  0.90000004319E+02 0.  0.
         12    1    1    2    0    0 -0.34774759475E+00  0.53540276180E+00 -0.99268438373E+00  0.11802570875E+01  0.00000000000E+00 0. -1.
         11    1    3    3    0    0  0.37342512205E+01  0.24442773897E+02 -0.27658687518E+02  0.37099822417E+02  0.51100000000E-03 0. -1.
        -11    1    3    3    0    0  0.82091239779E+01  0.29773815199E+01 -0.28868075050E+01  0.91971829943E+01  0.51100000000E-03 0.  1.
        -12    1    3    3    0    0 -0.11595627604E+02 -0.27955558178E+02  0.31538179407E+02  0.43710737501E+02  0.00000000000E+00 0.  1.
</event>
<event>
 7    1  0.2569312E-015  0.9000758E+02  0.7816164E-02  0.1186339E+00
        -11   -1    0    0    0    0  0.00000000000E+00  0.00000000000E+00  0.45593999997E+02  0.45594000000E+02  0.51100000000E-03 0. -1.
         11   -1    0    0    0    0 -0.00000000000E+00 -0.00000000000E+00 -0.45593999997E+02  0.45594000000E+02  0.51100000000E-03 0.  1.
    9900012    2    1    2    0    0  0.81827370024E+00 -0.11212417122E+00 -0.84335940288E+00  0.90007576872E+02  0.89999836087E+02 0.  0.
         12    1    1    2    0    0 -0.81827370024E+00  0.11212417122E+00  0.84335940288E+00  0.11804231278E+01  0.00000000000E+00 0. -1.
         11    1    3    3    0    0  0.29962662109E+02  0.21618662289E+02  0.16172128465E+02  0.40331940434E+02  0.51100000000E-03 0. -1.
        -11    1    3    3    0    0 -0.27035730890E+01 -0.58617567374E+01  0.77776116776E+01  0.10107459778E+02  0.51100000000E-03 0.  1.
        -12    1    3    3    0    0 -0.26440815319E+02 -0.15869029723E+02 -0.24793099546E+02  0.39568176660E+02  0.00000000000E+00 0.  1.
</event>
<event>
 7    1  0.2569312E-015  0.9000846E+02  0.7816164E-02  0.1186338E+00
        -11   -1    0    0    0    0  0.00000000000E+00  0.00000000000E+00  0.45593999997E+02  0.45594000000E+02  0.51100000000E-03 0.  1.
         11   -1    0    0    0    0 -0.00000000000E+00 -0.00000000000E+00 -0.45593999997E+02  0.45594000000E+02  0.51100000000E-03 0. -1.
    9900012    2    1    2    0    0 -0.10125780909E+01  0.48752665922E+00 -0.35822850707E+00  0.90008455894E+02  0.90000726709E+02 0.  0.
         12    1    1    2    0    0  0.10125780909E+01 -0.48752665922E+00  0.35822850707E+00  0.11795441055E+01  0.00000000000E+00 0. -1.
         11    1    3    3    0    0  0.29153230080E+01  0.99786287864E+01 -0.14401117086E+01  0.10495049437E+02  0.51100000000E-03 0. -1.
        -11    1    3    3    0    0  0.99988238464E+01 -0.35933762216E+02  0.21749715684E+02  0.43177098998E+02  0.51100000000E-03 0.  1.
         12    1    3    3    0    0 -0.13926724945E+02  0.26442660089E+02 -0.20667832482E+02  0.36336307459E+02  0.00000000000E+00 0. -1.
</event>
<event>
 7    1  0.2569312E-015  0.9000768E+02  0.7816164E-02  0.1186339E+00
        -11   -1    0    0    0    0  0.00000000000E+00  0.00000000000E+00  0.45593999997E+02  0.45594000000E+02  0.51100000000E-03 0.  1.
         11   -1    0    0    0    0 -0.00000000000E+00 -0.00000000000E+00 -0.45593999997E+02  0.45594000000E+02  0.51100000000E-03 0. -1.
    9900012    2    1    2    0    0  0.10186543481E+01 -0.21386543108E+00  0.55656287271E+00  0.90007679139E+02  0.89999939704E+02 0.  0.
         12    1    1    2    0    0 -0.10186543481E+01  0.21386543108E+00 -0.55656287271E+00  0.11803208610E+01  0.00000000000E+00 0. -1.
         11    1    3    3    0    0 -0.71494238093E+01 -0.50613881957E+01 -0.59041603531E+01  0.10563665131E+02  0.51100000000E-03 0. -1.
        -11    1    3    3    0    0 -0.26578671782E+02 -0.17958158275E+02  0.17364225699E+02  0.36475163834E+02  0.51100000000E-03 0.  1.
         12    1    3    3    0    0  0.34746749939E+02  0.22805681040E+02 -0.10903502473E+02  0.42968850173E+02  0.00000000000E+00 0. -1.
</event>
<event>
 7    1  0.2569312E-015  0.9000776E+02  0.7816164E-02  0.1186339E+00
        -11   -1    0    0    0    0  0.00000000000E+00  0.00000000000E+00  0.45593999997E+02  0.45594000000E+02  0.51100000000E-03 0.  1.
         11   -1    0    0    0    0 -0.00000000000E+00 -0.00000000000E+00 -0.45593999997E+02  0.45594000000E+02  0.51100000000E-03 0. -1.
    9900012    2    1    2    0    0 -0.10722589986E+01 -0.19686420573E+00  0.45218133520E+00  0.90007761535E+02  0.90000023187E+02 0.  0.
         12    1    1    2    0    0  0.10722589986E+01  0.19686420573E+00 -0.45218133520E+00  0.11802384655E+01  0.00000000000E+00 0. -1.
         11    1    3    3    0    0 -0.91208335018E+01 -0.13913079813E+01 -0.47962023010E+01  0.10398504625E+02  0.51100000000E-03 0. -1.
        -11    1    3    3    0    0 -0.62313689768E+01 -0.32794561554E+02  0.21087226071E+02  0.39483975617E+02  0.51100000000E-03 0.  1.
         12    1    3    3    0    0  0.14279943480E+02  0.33989005330E+02 -0.15838842435E+02  0.40125281292E+02  0.00000000000E+00 0. -1.
</event>
<event>
 7    1  0.2569312E-015  0.9000772E+02  0.7816164E-02  0.1186339E+00
        -11   -1    0    0    0    0  0.00000000000E+00  0.00000000000E+00  0.45593999997E+02  0.45594000000E+02  0.51100000000E-03 0.  1.
         11   -1    0    0    0    0 -0.00000000000E+00 -0.00000000000E+00 -0.45593999997E+02  0.45594000000E+02  0.51100000000E-03 0. -1.
    9900012    2    1    2    0    0 -0.56404605287E+00  0.96291380614E+00  0.38433549936E+00  0.90007718371E+02  0.89999979453E+02 0.  0.
         12    1    1    2    0    0  0.56404605287E+00 -0.96291380614E+00 -0.38433549936E+00  0.11802816291E+01  0.00000000000E+00 0. -1.
         11    1    3    3    0    0 -0.99791033324E+01  0.40154144658E+01  0.42000373331E+01  0.11547569896E+02  0.51100000000E-03 0. -1.
        -11    1    3    3    0    0  0.63506301855E+01  0.22613321965E+02  0.28594644062E+02  0.37004682182E+02  0.51100000000E-03 0.  1.
         12    1    3    3    0    0  0.30644270940E+01 -0.25665822625E+02 -0.32410345896E+02  0.41455466293E+02  0.00000000000E+00 0. -1.
</event>
<event>
 7    1  0.2569312E-015  0.9000765E+02  0.7816164E-02  0.1186339E+00
        -11   -1    0    0    0    0  0.00000000000E+00  0.00000000000E+00  0.45593999997E+02  0.45594000000E+02  0.51100000000E-03 0.  1.
         11   -1    0    0    0    0 -0.00000000000E+00 -0.00000000000E+00 -0.45593999997E+02  0.45594000000E+02  0.51100000000E-03 0. -1.
    9900012    2    1    2    0    0  0.52761179900E+00  0.79990549669E+00  0.68921006896E+00  0.90007646861E+02  0.89999906999E+02 0.  0.
         12    1    1    2    0    0 -0.52761179900E+00 -0.79990549669E+00 -0.68921006896E+00  0.11803531392E+01  0.00000000000E+00 0. -1.
         11    1    3    3    0    0  0.54931497004E+01  0.63152856293E+01 -0.41230465730E+01  0.93304361911E+01  0.51100000000E-03 0. -1.
        -11    1    3    3    0    0  0.93364859327E+01  0.24244693732E+02  0.29604028096E+02  0.39387480542E+02  0.51100000000E-03 0.  1.
         12    1    3    3    0    0 -0.14302023834E+02 -0.29760073865E+02 -0.24791771454E+02  0.41289730127E+02  0.00000000000E+00 0. -1.
</event>
<event>
 7    1  0.2569312E-015  0.9000788E+02  0.7816164E-02  0.1186339E+00
        -11   -1    0    0    0    0  0.00000000000E+00  0.00000000000E+00  0.45593999997E+02  0.45594000000E+02  0.51100000000E-03 0. -1.
         11   -1    0    0    0    0 -0.00000000000E+00 -0.00000000000E+00 -0.45593999997E+02  0.45594000000E+02  0.51100000000E-03 0.  1.
    9900012    2    1    2    0    0 -0.30114290931E+00 -0.36048132912E-01 -0.11404808148E+01  0.90007880087E+02  0.90000143304E+02 0.  0.
         12    1    1    2    0    0  0.30114290931E+00  0.36048132912E-01  0.11404808148E+01  0.11801199128E+01  0.00000000000E+00 0. -1.
         11    1    3    3    0    0 -0.11358886459E+02  0.17157506661E+01  0.15017758966E+01  0.11585483721E+02  0.51100000000E-03 0. -1.
        -11    1    3    3    0    0 -0.11056315181E+02 -0.30397879821E+02 -0.20265904638E+02  0.38170408618E+02  0.51100000000E-03 0.  1.
         12    1    3    3    0    0  0.22114058731E+02  0.28646081022E+02  0.17623647927E+02  0.40251987749E+02  0.00000000000E+00 0. -1.
</event>
<event>
 7    1  0.2569312E-015  0.9000784E+02  0.7816164E-02  0.1186339E+00
        -11   -1    0    0    0    0  0.00000000000E+00  0.00000000000E+00  0.45593999997E+02  0.45594000000E+02  0.51100000000E-03 0. -1.
         11   -1    0    0    0    0 -0.00000000000E+00 -0.00000000000E+00 -0.45593999997E+02  0.45594000000E+02  0.51100000000E-03 0.  1.
    9900012    2    1    2    0    0 -0.76123196116E+00  0.50755077357E-01 -0.90040486393E+00  0.90007839377E+02  0.90000102057E+02 0.  0.
         12    1    1    2    0    0  0.76123196116E+00 -0.50755077357E-01  0.90040486393E+00  0.11801606228E+01  0.00000000000E+00 0. -1.
         11    1    3    3    0    0 -0.63754918811E+01  0.28663448090E+01 -0.27092903679E+01  0.74968716041E+01  0.51100000000E-03 0. -1.
        -11    1    3    3    0    0 -0.25352085936E+02 -0.26067815619E+02 -0.16194614184E+02  0.39806090003E+02  0.51100000000E-03 0.  1.
         12    1    3    3    0    0  0.30966345856E+02  0.23252225888E+02  0.18003499688E+02  0.42704877771E+02  0.00000000000E+00 0. -1.
</event>
<event>
 7    1  0.2569312E-015  0.9000834E+02  0.7816164E-02  0.1186338E+00
        -11   -1    0    0    0    0  0.00000000000E+00  0.00000000000E+00  0.45593999997E+02  0.45594000000E+02  0.51100000000E-03 0.  1.
         11   -1    0    0    0    0 -0.00000000000E+00 -0.00000000000E+00 -0.45593999997E+02  0.45594000000E+02  0.51100000000E-03 0. -1.
    9900012    2    1    2    0    0 -0.70508885900E+00  0.93689048554E+00  0.12918925540E+00  0.90008337360E+02  0.90000606611E+02 0.  0.
         12    1    1    2    0    0  0.70508885900E+00 -0.93689048554E+00 -0.12918925540E+00  0.11796626402E+01  0.00000000000E+00 0. -1.
         11    1    3    3    0    0  0.69846946116E+01 -0.34102594665E+02 -0.17083590457E+02  0.38776564893E+02  0.51100000000E-03 0. -1.
        -11    1    3    3    0    0  0.77173402920E+01 -0.15721633003E+01  0.61672218620E+01  0.10003182713E+02  0.51100000000E-03 0.  1.
        -12    1    3    3    0    0 -0.15407123763E+02  0.36611648451E+02  0.11045557850E+02  0.41228589755E+02  0.00000000000E+00 0.  1.
</event>
<event>
 7    1  0.2569312E-015  0.9000774E+02  0.7816164E-02  0.1186339E+00
        -11   -1    0    0    0    0  0.00000000000E+00  0.00000000000E+00  0.45593999997E+02  0.45594000000E+02  0.51100000000E-03 0.  1.
         11   -1    0    0    0    0 -0.00000000000E+00 -0.00000000000E+00 -0.45593999997E+02  0.45594000000E+02  0.51100000000E-03 0. -1.
    9900012    2    1    2    0    0  0.73675393189E+00  0.88810974946E+00 -0.24794218246E+00  0.90007737059E+02  0.89999998389E+02 0.  0.
         12    1    1    2    0    0 -0.73675393189E+00 -0.88810974946E+00  0.24794218246E+00  0.11802629407E+01  0.00000000000E+00 0. -1.
         11    1    3    3    0    0  0.27732603993E+02 -0.19665731744E+02  0.12986456231E+00  0.33997870438E+02  0.51100000000E-03 0. -1.
        -11    1    3    3    0    0  0.60688603208E+01 -0.95294845190E+01 -0.46941728091E+00  0.11307629886E+02  0.51100000000E-03 0.  1.
        -12    1    3    3    0    0 -0.33064710382E+02  0.30083326013E+02  0.91610536134E-01  0.44702236735E+02  0.00000000000E+00 0.  1.
</event>
<event>
 7    1  0.2569312E-015  0.9000791E+02  0.7816164E-02  0.1186339E+00
        -11   -1    0    0    0    0  0.00000000000E+00  0.00000000000E+00  0.45593999997E+02  0.45594000000E+02  0.51100000000E-03 0. -1.
         11   -1    0    0    0    0 -0.00000000000E+00 -0.00000000000E+00 -0.45593999997E+02  0.45594000000E+02  0.51100000000E-03 0.  1.
    9900012    2    1    2    0    0 -0.10160370204E+01 -0.36669396530E+00 -0.47519855957E+00  0.90007911291E+02  0.90000174920E+02 0.  0.
         12    1    1    2    0    0  0.10160370204E+01  0.36669396530E+00  0.47519855957E+00  0.11800887094E+01  0.00000000000E+00 0. -1.
         11    1    3    3    0    0  0.95131041572E+01 -0.17154701605E+01  0.28078805062E+01  0.10066090690E+02  0.51100000000E-03 0. -1.
        -11    1    3    3    0    0 -0.40412377237E+01  0.20771526941E+02  0.32459949932E+02  0.38748371368E+02  0.51100000000E-03 0.  1.
         12    1    3    3    0    0 -0.64879034538E+01 -0.19422750746E+02 -0.35743028998E+02  0.41193449233E+02  0.00000000000E+00 0. -1.
</event>
<event>
 7    1  0.2569312E-015  0.9000756E+02  0.7816164E-02  0.1186339E+00
        -11   -1    0    0    0    0  0.00000000000E+00  0.00000000000E+00  0.45593999997E+02  0.45594000000E+02  0.51100000000E-03 0. -1.
         11   -1    0    0    0    0 -0.00000000000E+00 -0.00000000000E+00 -0.45593999997E+02  0.45594000000E+02  0.51100000000E-03 0.  1.
    9900012    2    1    2    0    0 -0.43511671990E+00  0.10139029533E+01  0.41966912920E+00  0.90007556043E+02  0.89999814982E+02 0.  0.
         12    1    1    2    0    0  0.43511671990E+00 -0.10139029533E+01 -0.41966912920E+00  0.11804439574E+01  0.00000000000E+00 0. -1.
         11    1    3    3    0    0 -0.12705492184E+02  0.69685762874E+01  0.32230569497E+02  0.35338367216E+02  0.51100000000E-03 0. -1.
        -11    1    3    3    0    0 -0.85253054210E+00  0.62211267806E+01  0.84966981504E+01  0.10565183693E+02  0.51100000000E-03 0.  1.
        -12    1    3    3    0    0  0.13122906007E+02 -0.12175800115E+02 -0.40307598519E+02  0.44104005134E+02  0.00000000000E+00 0.  1.
</event>
<event>
 7    1  0.2569312E-015  0.9000758E+02  0.7816164E-02  0.1186339E+00
        -11   -1    0    0    0    0  0.00000000000E+00  0.00000000000E+00  0.45593999997E+02  0.45594000000E+02  0.51100000000E-03 0. -1.
         11   -1    0    0    0    0 -0.00000000000E+00 -0.00000000000E+00 -0.45593999997E+02  0.45594000000E+02  0.51100000000E-03 0.  1.
    9900012    2    1    2    0    0  0.45676196938E+00 -0.92409296643E+00 -0.57516384506E+00  0.90007579416E+02  0.89999838664E+02 0.  0.
         12    1    1    2    0    0 -0.45676196938E+00  0.92409296643E+00  0.57516384506E+00  0.11804205843E+01  0.00000000000E+00 0. -1.
         11    1    3    3    0    0  0.30345399021E+02 -0.23921274565E+02  0.28534229190E+01  0.38745485430E+02  0.51100000000E-03 0. -1.
        -11    1    3    3    0    0 -0.11826140701E+01 -0.76038960040E+01 -0.51656098570E+01  0.92682973590E+01  0.51100000000E-03 0.  1.
        -12    1    3    3    0    0 -0.28706022982E+02  0.30601077603E+02  0.17370230930E+01  0.41993796627E+02  0.00000000000E+00 0.  1.
</event>
<event>
 7    1  0.2569312E-015  0.9000776E+02  0.7816164E-02  0.1186339E+00
        -11   -1    0    0    0    0  0.00000000000E+00  0.00000000000E+00  0.45593999997E+02  0.45594000000E+02  0.51100000000E-03 0.  1.
         11   -1    0    0    0    0 -0.00000000000E+00 -0.00000000000E+00 -0.45593999997E+02  0.45594000000E+02  0.51100000000E-03 0. -1.
    9900012    2    1    2    0    0 -0.37606685321E+00 -0.10414316194E+01  0.40859749635E+00  0.90007763579E+02  0.90000025258E+02 0.  0.
         12    1    1    2    0    0  0.37606685321E+00  0.10414316194E+01 -0.40859749635E+00  0.11802364212E+01  0.00000000000E+00 0. -1.
         11    1    3    3    0    0  0.18770719622E+00  0.67100192039E+01  0.71838938590E+01  0.98319846901E+01  0.51100000000E-03 0. -1.
        -11    1    3    3    0    0 -0.12878112705E+02 -0.13095214711E+02  0.33235721017E+02  0.37972932293E+02  0.51100000000E-03 0.  1.
         12    1    3    3    0    0  0.12314338656E+02  0.53437638872E+01 -0.40011017380E+02  0.42202846595E+02  0.00000000000E+00 0. -1.
</event>
<event>
 7    1  0.2569312E-015  0.9000897E+02  0.7816164E-02  0.1186337E+00
        -11   -1    0    0    0    0  0.00000000000E+00  0.00000000000E+00  0.45593999997E+02  0.45594000000E+02  0.51100000000E-03 0.  1.
         11   -1    0    0    0    0 -0.00000000000E+00 -0.00000000000E+00 -0.45593999997E+02  0.45594000000E+02  0.51100000000E-03 0. -1.
    9900012    2    1    2    0    0  0.58147567164E+00  0.84880091611E+00  0.57578603101E+00  0.90008972220E+02  0.90001249845E+02 0.  0.
         12    1    1    2    0    0 -0.58147567164E+00 -0.84880091611E+00 -0.57578603101E+00  0.11790277797E+01  0.00000000000E+00 0. -1.
         11    1    3    3    0    0 -0.42273962627E+01 -0.44935828620E-01 -0.26364951965E+02  0.26701752579E+02  0.51100000000E-03 0. -1.
        -11    1    3    3    0    0 -0.24418509468E+02 -0.39415017007E+01  0.24232235622E+01  0.24852988814E+02  0.51100000000E-03 0.  1.
        -12    1    3    3    0    0  0.29227381403E+02  0.48352384454E+01  0.24517514434E+02  0.38454230827E+02  0.00000000000E+00 0.  1.
</event>
<event>
 7    1  0.2569312E-015  0.9000769E+02  0.7816164E-02  0.1186339E+00
        -11   -1    0    0    0    0  0.00000000000E+00  0.00000000000E+00  0.45593999997E+02  0.45594000000E+02  0.51100000000E-03 0.  1.
         11   -1    0    0    0    0 -0.00000000000E+00 -0.00000000000E+00 -0.45593999997E+02  0.45594000000E+02  0.51100000000E-03 0. -1.
    9900012    2    1    2    0    0  0.32498378661E+00  0.29602305718E+00  0.10953927300E+01  0.90007690996E+02  0.89999951717E+02 0.  0.
         12    1    1    2    0    0 -0.32498378661E+00 -0.29602305718E+00 -0.10953927300E+01  0.11803090040E+01  0.00000000000E+00 0. -1.
         11    1    3    3    0    0 -0.86670156762E+01  0.10929005766E+01 -0.23291104449E+01  0.90408156783E+01  0.51100000000E-03 0. -1.
        -11    1    3    3    0    0  0.33261860904E+01 -0.38480254173E+02  0.14543123993E+02  0.41271005935E+02  0.51100000000E-03 0.  1.
         12    1    3    3    0    0  0.56658133725E+01  0.37683376654E+02 -0.11118620818E+02  0.39695869383E+02  0.00000000000E+00 0. -1.
</event>
<event>
 7    1  0.2569312E-015  0.9000777E+02  0.7816164E-02  0.1186339E+00
        -11   -1    0    0    0    0  0.00000000000E+00  0.00000000000E+00  0.45593999997E+02  0.45594000000E+02  0.51100000000E-03 0. -1.
         11   -1    0    0    0    0 -0.00000000000E+00 -0.00000000000E+00 -0.45593999997E+02  0.45594000000E+02  0.51100000000E-03 0.  1.
    9900012    2    1    2    0    0  0.11576388270E+01 -0.20737974357E+00 -0.98989511840E-01  0.90007774202E+02  0.90000036021E+02 0.  0.
         12    1    1    2    0    0 -0.11576388270E+01  0.20737974357E+00  0.98989511840E-01  0.11802257984E+01  0.00000000000E+00 0. -1.
         11    1    3    3    0    0  0.19240894075E+02  0.25015791833E+02  0.26676765964E+02  0.41323742429E+02  0.51100000000E-03 0. -1.
        -11    1    3    3    0    0  0.69024169719E+01 -0.55844304892E+01 -0.59866068193E+01  0.10708346530E+02  0.51100000000E-03 0.  1.
        -12    1    3    3    0    0 -0.24985672219E+02 -0.19638741087E+02 -0.20789148656E+02  0.37975685242E+02  0.00000000000E+00 0.  1.
</event>
<event>
 7    1  0.2569312E-015  0.9000758E+02  0.7816164E-02  0.1186339E+00
        -11   -1    0    0    0    0  0.00000000000E+00  0.00000000000E+00  0.45593999997E+02  0.45594000000E+02  0.51100000000E-03 0.  1.
         11   -1    0    0    0    0 -0.00000000000E+00 -0.00000000000E+00 -0.45593999997E+02  0.45594000000E+02  0.51100000000E-03 0. -1.
    9900012    2    1    2    0    0  0.51687592039E+00  0.54489101644E+00  0.91067377084E+00  0.90007579035E+02  0.89999838278E+02 0.  0.
         12    1    1    2    0    0 -0.51687592039E+00 -0.54489101644E+00 -0.91067377084E+00  0.11804209646E+01  0.00000000000E+00 0. -1.
         11    1    3    3    0    0 -0.16622539617E+01 -0.87308373222E+01  0.26820211605E+01  0.92835255343E+01  0.51100000000E-03 0. -1.
        -11    1    3    3    0    0 -0.20303804413E+02  0.38613385207E+02  0.12029554357E+01  0.43642698047E+02  0.51100000000E-03 0.  1.
         12    1    3    3    0    0  0.22482934295E+02 -0.29337656868E+02 -0.29743028254E+01  0.37081355454E+02  0.00000000000E+00 0. -1.
</event>
<event>
 7    1  0.2569312E-015  0.9000772E+02  0.7816164E-02  0.1186339E+00
        -11   -1    0    0    0    0  0.00000000000E+00  0.00000000000E+00  0.45593999997E+02  0.45594000000E+02  0.51100000000E-03 0. -1.
         11   -1    0    0    0    0 -0.00000000000E+00 -0.00000000000E+00 -0.45593999997E+02  0.45594000000E+02  0.51100000000E-03 0.  1.
    9900012    2    1    2    0    0  0.28647616043E+00  0.10473552825E+01  0.46263732594E+00  0.90007722501E+02  0.89999983638E+02 0.  0.
         12    1    1    2    0    0 -0.28647616043E+00 -0.10473552825E+01 -0.46263732594E+00  0.11802774986E+01  0.00000000000E+00 0. -1.
         11    1    3    3    0    0  0.24313900788E+01 -0.19280485201E+00  0.11896575544E+02  0.12144024925E+02  0.51100000000E-03 0. -1.
        -11    1    3    3    0    0  0.25375381594E+02 -0.21026493995E+02  0.12375059717E+02  0.35201783251E+02  0.51100000000E-03 0.  1.
         12    1    3    3    0    0 -0.27520295513E+02  0.22266654130E+02 -0.23808997935E+02  0.42661914326E+02  0.00000000000E+00 0. -1.
</event>
<event>
 7    1  0.2569312E-015  0.9000763E+02  0.7816164E-02  0.1186339E+00
        -11   -1    0    0    0    0  0.00000000000E+00  0.00000000000E+00  0.45593999997E+02  0.45594000000E+02  0.51100000000E-03 0.  1.
         11   -1    0    0    0    0 -0.00000000000E+00 -0.00000000000E+00 -0.45593999997E+02  0.45594000000E+02  0.51100000000E-03 0. -1.
    9900012    2    1    2    0    0  0.79878357856E+00  0.31926095619E+00  0.80827005126E+00  0.90007625805E+02  0.89999885666E+02 0.  0.
         12    1    1    2    0    0 -0.79878357856E+00 -0.31926095619E+00 -0.80827005126E+00  0.11803741946E+01  0.00000000000E+00 0. -1.
         11    1    3    3    0    0  0.43583451261E+01 -0.27936752344E+01 -0.35030933624E+01  0.62507165125E+01  0.51100000000E-03 0. -1.
        -11    1    3    3    0    0 -0.30199067974E+02 -0.28000038623E+02 -0.57445240028E+01  0.41581070521E+02  0.51100000000E-03 0.  1.
         12    1    3    3    0    0  0.26639506427E+02  0.31112974813E+02  0.10055887416E+02  0.42175838772E+02  0.00000000000E+00 0. -1.
</event>
<event>
 7    1  0.2569312E-015  0.9000815E+02  0.7816164E-02  0.1186338E+00
        -11   -1    0    0    0    0  0.00000000000E+00  0.00000000000E+00  0.45593999997E+02  0.45594000000E+02  0.51100000000E-03 0. -1.
         11   -1    0    0    0    0 -0.00000000000E+00 -0.00000000000E+00 -0.45593999997E+02  0.45594000000E+02  0.51100000000E-03 0.  1.
    9900012    2    1    2    0    0 -0.58149505907E+00 -0.35923093792E+00 -0.96169425415E+00  0.90008152887E+02  0.90000419705E+02 0.  0.
         12    1    1    2    0    0  0.58149505907E+00  0.35923093792E+00  0.96169425415E+00  0.11798471125E+01  0.00000000000E+00 0. -1.
         11    1    3    3    0    0  0.10343676408E+02 -0.47743389517E+01  0.11841166681E+01  0.11453736796E+02  0.51100000000E-03 0. -1.
        -11    1    3    3    0    0  0.23583823975E+02  0.12759134090E+02 -0.24729776586E+02  0.36476761182E+02  0.51100000000E-03 0.  1.
         12    1    3    3    0    0 -0.34508995442E+02 -0.83440260763E+01  0.22583965664E+02  0.42077654910E+02  0.00000000000E+00 0. -1.
</event>
<event>
 7    1  0.2569312E-015  0.9000776E+02  0.7816164E-02  0.1186339E+00
        -11   -1    0    0    0    0  0.00000000000E+00  0.00000000000E+00  0.45593999997E+02  0.45594000000E+02  0.51100000000E-03 0. -1.
         11   -1    0    0    0    0 -0.00000000000E+00 -0.00000000000E+00 -0.45593999997E+02  0.45594000000E+02  0.51100000000E-03 0.  1.
    9900012    2    1    2    0    0  0.39050362616E+00  0.10881633589E+00 -0.11084409753E+01  0.90007756181E+02  0.90000017762E+02 0.  0.
         12    1    1    2    0    0 -0.39050362616E+00 -0.10881633589E+00  0.11084409753E+01  0.11802438192E+01  0.00000000000E+00 0. -1.
         11    1    3    3    0    0 -0.93860346748E+01 -0.20590300799E+00 -0.53828524013E+01  0.10821975014E+02  0.51100000000E-03 0. -1.
        -11    1    3    3    0    0 -0.11160462952E+02  0.23004852252E+02 -0.25630191595E+02  0.36203395999E+02  0.51100000000E-03 0.  1.
         12    1    3    3    0    0  0.20937001253E+02 -0.22690132909E+02  0.29904603021E+02  0.42982385167E+02  0.00000000000E+00 0. -1.
</event>
<event>
 7    1  0.2569312E-015  0.9000776E+02  0.7816164E-02  0.1186339E+00
        -11   -1    0    0    0    0  0.00000000000E+00  0.00000000000E+00  0.45593999997E+02  0.45594000000E+02  0.51100000000E-03 0. -1.
         11   -1    0    0    0    0 -0.00000000000E+00 -0.00000000000E+00 -0.45593999997E+02  0.45594000000E+02  0.51100000000E-03 0.  1.
    9900012    2    1    2    0    0  0.21591080670E+00 -0.11047838901E+00 -0.11550548085E+01  0.90007756567E+02  0.90000018154E+02 0.  0.
         12    1    1    2    0    0 -0.21591080670E+00  0.11047838901E+00  0.11550548085E+01  0.11802434331E+01  0.00000000000E+00 0. -1.
         11    1    3    3    0    0 -0.33329481781E+01 -0.37017396693E+01 -0.88209570258E+01  0.10130187720E+02  0.51100000000E-03 0. -1.
        -11    1    3    3    0    0 -0.34447906509E+01 -0.38778416428E+01 -0.35315814822E+02  0.35694691695E+02  0.51100000000E-03 0.  1.
         12    1    3    3    0    0  0.69936496358E+01  0.74691029230E+01  0.42981717039E+02  0.44182877151E+02  0.00000000000E+00 0. -1.
</event>
<event>
 7    1  0.2569312E-015  0.9000768E+02  0.7816164E-02  0.1186339E+00
        -11   -1    0    0    0    0  0.00000000000E+00  0.00000000000E+00  0.45593999997E+02  0.45594000000E+02  0.51100000000E-03 0.  1.
         11   -1    0    0    0    0 -0.00000000000E+00 -0.00000000000E+00 -0.45593999997E+02  0.45594000000E+02  0.51100000000E-03 0. -1.
    9900012    2    1    2    0    0  0.79213925104E-01 -0.11333608556E+01 -0.31995299706E+00  0.90007681570E+02  0.89999942167E+02 0.  0.
         12    1    1    2    0    0 -0.79213925104E-01  0.11333608556E+01  0.31995299706E+00  0.11803184296E+01  0.00000000000E+00 0. -1.
         11    1    3    3    0    0  0.67998259351E+01 -0.63153837253E+01  0.35564180848E+01  0.99383003678E+01  0.51100000000E-03 0. -1.
        -11    1    3    3    0    0  0.15991044379E+02 -0.32094682006E+02  0.25496950150E+01  0.35948338742E+02  0.51100000000E-03 0.  1.
         12    1    3    3    0    0 -0.22711656389E+02  0.37276704876E+02 -0.64260660968E+01  0.44121042460E+02  0.00000000000E+00 0. -1.
</event>
<event>
 7    1  0.2569312E-015  0.9000779E+02  0.7816164E-02  0.1186339E+00
        -11   -1    0    0    0    0  0.00000000000E+00  0.00000000000E+00  0.45593999997E+02  0.45594000000E+02  0.51100000000E-03 0. -1.
         11   -1    0    0    0    0 -0.00000000000E+00 -0.00000000000E+00 -0.45593999997E+02  0.45594000000E+02  0.51100000000E-03 0.  1.
    9900012    2    1    2    0    0  0.94981492182E+00  0.69828515807E+00 -0.56122705499E-01  0.90007788025E+02  0.90000050027E+02 0.  0.
         12    1    1    2    0    0 -0.94981492182E+00 -0.69828515807E+00  0.56122705499E-01  0.11802119749E+01  0.00000000000E+00 0. -1.
         11    1    3    3    0    0  0.29689453531E+01  0.26877599732E+02  0.21273345031E+02  0.34406034543E+02  0.51100000000E-03 0. -1.
        -11    1    3    3    0    0  0.16290918289E+01  0.64143194975E+01  0.88373468431E+01  0.11040658236E+02  0.51100000000E-03 0.  1.
        -12    1    3    3    0    0 -0.36482222601E+01 -0.32593634072E+02 -0.30166814579E+02  0.44561095246E+02  0.00000000000E+00 0.  1.
</event>
<event>
 7    1  0.2569312E-015  0.9000768E+02  0.7816164E-02  0.1186339E+00
        -11   -1    0    0    0    0  0.00000000000E+00  0.00000000000E+00  0.45593999997E+02  0.45594000000E+02  0.51100000000E-03 0.  1.
         11   -1    0    0    0    0 -0.00000000000E+00 -0.00000000000E+00 -0.45593999997E+02  0.45594000000E+02  0.51100000000E-03 0. -1.
    9900012    2    1    2    0    0 -0.10434116075E+01  0.61464986602E-01  0.54832475270E+00  0.90007684042E+02  0.89999944671E+02 0.  0.
         12    1    1    2    0    0  0.10434116075E+01 -0.61464986602E-01 -0.54832475270E+00  0.11803159584E+01  0.00000000000E+00 0. -1.
         11    1    3    3    0    0  0.11896019495E+02 -0.56821091104E+01 -0.16070419380E+01  0.13280972398E+02  0.51100000000E-03 0. -1.
        -11    1    3    3    0    0  0.16706562040E+02 -0.15942817190E+02  0.24552019852E+02  0.33705849852E+02  0.51100000000E-03 0.  1.
         12    1    3    3    0    0 -0.29645993143E+02  0.21686391287E+02 -0.22396653162E+02  0.43020861792E+02  0.00000000000E+00 0. -1.
</event>
<event>
 7    1  0.2569312E-015  0.9000760E+02  0.7816164E-02  0.1186339E+00
        -11   -1    0    0    0    0  0.00000000000E+00  0.00000000000E+00  0.45593999997E+02  0.45594000000E+02  0.51100000000E-03 0.  1.
         11   -1    0    0    0    0 -0.00000000000E+00 -0.00000000000E+00 -0.45593999997E+02  0.45594000000E+02  0.51100000000E-03 0. -1.
    9900012    2    1    2    0    0  0.83715592664E+00 -0.17987654236E-01  0.83197650747E+00  0.90007602393E+02  0.89999861945E+02 0.  0.
         12    1    1    2    0    0 -0.83715592664E+00  0.17987654236E-01 -0.83197650747E+00  0.11803976068E+01  0.00000000000E+00 0. -1.
         11    1    3    3    0    0  0.16562641530E+01 -0.98191221439E+01  0.32498520028E+01  0.10474727153E+02  0.51100000000E-03 0. -1.
        -11    1    3    3    0    0  0.47214266121E+01  0.95889087022E+01  0.37622068099E+02  0.39110855880E+02  0.51100000000E-03 0.  1.
         12    1    3    3    0    0 -0.55405348385E+01  0.21222578751E+00 -0.40039943595E+02  0.40422019360E+02  0.00000000000E+00 0. -1.
</event>
<event>
 7    1  0.2569312E-015  0.9000763E+02  0.7816164E-02  0.1186339E+00
        -11   -1    0    0    0    0  0.00000000000E+00  0.00000000000E+00  0.45593999997E+02  0.45594000000E+02  0.51100000000E-03 0.  1.
         11   -1    0    0    0    0 -0.00000000000E+00 -0.00000000000E+00 -0.45593999997E+02  0.45594000000E+02  0.51100000000E-03 0. -1.
    9900012    2    1    2    0    0 -0.88569776486E+00 -0.54731434236E-01  0.77834588368E+00  0.90007627866E+02  0.89999887754E+02 0.  0.
         12    1    1    2    0    0  0.88569776486E+00  0.54731434236E-01 -0.77834588368E+00  0.11803721342E+01  0.00000000000E+00 0. -1.
         11    1    3    3    0    0  0.38339978713E+01  0.67010578987E+01 -0.63292840450E+01  0.99831634978E+01  0.51100000000E-03 0. -1.
        -11    1    3    3    0    0  0.19455877837E+02  0.29058073292E+02 -0.45625279373E+01  0.35266407065E+02  0.51100000000E-03 0.  1.
         12    1    3    3    0    0 -0.24175573473E+02 -0.35813862625E+02  0.11670157866E+02  0.44758057303E+02  0.00000000000E+00 0. -1.
</event>
<event>
 7    1  0.2569312E-015  0.9000774E+02  0.7816164E-02  0.1186339E+00
        -11   -1    0    0    0    0  0.00000000000E+00  0.00000000000E+00  0.45593999997E+02  0.45594000000E+02  0.51100000000E-03 0. -1.
         11   -1    0    0    0    0 -0.00000000000E+00 -0.00000000000E+00 -0.45593999997E+02  0.45594000000E+02  0.51100000000E-03 0.  1.
    9900012    2    1    2    0    0 -0.88923168117E+00 -0.10098531587E-01 -0.77600415172E+00  0.90007738416E+02  0.89999999763E+02 0.  0.
         12    1    1    2    0    0  0.88923168117E+00  0.10098531587E-01  0.77600415172E+00  0.11802615840E+01  0.00000000000E+00 0. -1.
         11    1    3    3    0    0 -0.24781642078E+02  0.70876577515E+01 -0.37444463162E+02  0.45458250057E+02  0.51100000000E-03 0. -1.
        -11    1    3    3    0    0  0.42844195424E+01  0.40744334792E+00  0.63720700569E+01  0.76893132312E+01  0.51100000000E-03 0.  1.
        -12    1    3    3    0    0  0.19607990855E+02 -0.75051996310E+01  0.30296388953E+02  0.36860175128E+02  0.00000000000E+00 0.  1.
</event>
<event>
 7    1  0.2569312E-015  0.9000768E+02  0.7816164E-02  0.1186339E+00
        -11   -1    0    0    0    0  0.00000000000E+00  0.00000000000E+00  0.45593999997E+02  0.45594000000E+02  0.51100000000E-03 0.  1.
         11   -1    0    0    0    0 -0.00000000000E+00 -0.00000000000E+00 -0.45593999997E+02  0.45594000000E+02  0.51100000000E-03 0. -1.
    9900012    2    1    2    0    0 -0.56104436395E+00 -0.91746654799E+00  0.48644540653E+00  0.90007684458E+02  0.89999945093E+02 0.  0.
         12    1    1    2    0    0  0.56104436395E+00  0.91746654799E+00 -0.48644540653E+00  0.11803155419E+01  0.00000000000E+00 0. -1.
         11    1    3    3    0    0 -0.70239033302E+01 -0.16434889278E+01  0.11883534787E+02  0.13901606854E+02  0.51100000000E-03 0. -1.
        -11    1    3    3    0    0 -0.13024851000E+02 -0.70413868939E+01  0.27885534571E+02  0.31572629151E+02  0.51100000000E-03 0.  1.
         12    1    3    3    0    0  0.19487709966E+02  0.77674092737E+01 -0.39282623951E+02  0.44533448452E+02  0.00000000000E+00 0. -1.
</event>
<event>
 7    1  0.2569312E-015  0.9000794E+02  0.7816164E-02  0.1186339E+00
        -11   -1    0    0    0    0  0.00000000000E+00  0.00000000000E+00  0.45593999997E+02  0.45594000000E+02  0.51100000000E-03 0.  1.
         11   -1    0    0    0    0 -0.00000000000E+00 -0.00000000000E+00 -0.45593999997E+02  0.45594000000E+02  0.51100000000E-03 0. -1.
    9900012    2    1    2    0    0  0.69507543490E+00  0.58733357972E+00  0.75129486532E+00  0.90007942981E+02  0.90000207028E+02 0.  0.
         12    1    1    2    0    0 -0.69507543490E+00 -0.58733357972E+00 -0.75129486532E+00  0.11800570193E+01  0.00000000000E+00 0. -1.
         11    1    3    3    0    0  0.81493223321E+01  0.71352542115E+00 -0.44268804589E+01  0.93014968611E+01  0.51100000000E-03 0. -1.
        -11    1    3    3    0    0  0.33650618376E+02 -0.97417288893E+01  0.13743407179E+02  0.37631723851E+02  0.51100000000E-03 0.  1.
         12    1    3    3    0    0 -0.41104865273E+02  0.96155370479E+01 -0.85652318548E+01  0.43074722269E+02  0.00000000000E+00 0. -1.
</event>
<event>
 7    1  0.2569312E-015  0.9000773E+02  0.7816164E-02  0.1186339E+00
        -11   -1    0    0    0    0  0.00000000000E+00  0.00000000000E+00  0.45593999997E+02  0.45594000000E+02  0.51100000000E-03 0.  1.
         11   -1    0    0    0    0 -0.00000000000E+00 -0.00000000000E+00 -0.45593999997E+02  0.45594000000E+02  0.51100000000E-03 0. -1.
    9900012    2    1    2    0    0  0.30315959546E+00 -0.15435508883E-02  0.11406687226E+01  0.90007731701E+02  0.89999992959E+02 0.  0.
         12    1    1    2    0    0 -0.30315959546E+00  0.15435508883E-02 -0.11406687226E+01  0.11802682990E+01  0.00000000000E+00 0. -1.
         11    1    3    3    0    0 -0.21015936826E+01  0.77214660472E+01  0.16752283366E+02  0.18565471504E+02  0.51100000000E-03 0. -1.
        -11    1    3    3    0    0  0.17416540166E+02 -0.26632707656E+02  0.12674421678E+02  0.34253145164E+02  0.51100000000E-03 0.  1.
         12    1    3    3    0    0 -0.15011786888E+02  0.18909698058E+02 -0.28286036321E+02  0.37189115034E+02  0.00000000000E+00 0. -1.
</event>
<event>
 7    1  0.2569312E-015  0.9000777E+02  0.7816164E-02  0.1186339E+00
        -11   -1    0    0    0    0  0.00000000000E+00  0.00000000000E+00  0.45593999997E+02  0.45594000000E+02  0.51100000000E-03 0. -1.
         11   -1    0    0    0    0 -0.00000000000E+00 -0.00000000000E+00 -0.45593999997E+02  0.45594000000E+02  0.51100000000E-03 0.  1.
    9900012    2    1    2    0    0  0.78175817824E+00 -0.34706583088E+00 -0.81323378923E+00  0.90007767084E+02  0.90000028809E+02 0.  0.
         12    1    1    2    0    0 -0.78175817824E+00  0.34706583088E+00  0.81323378923E+00  0.11802329161E+01  0.00000000000E+00 0. -1.
         11    1    3    3    0    0  0.92675293627E+01  0.25861579023E+02 -0.20724425156E+02  0.34412354880E+02  0.51100000000E-03 0. -1.
        -11    1    3    3    0    0  0.38879755655E+01  0.69066421857E+01 -0.74614023081E+01  0.10885338072E+02  0.51100000000E-03 0.  1.
        -12    1    3    3    0    0 -0.12373746750E+02 -0.33115287040E+02  0.27372593675E+02  0.44710074132E+02  0.00000000000E+00 0.  1.
</event>
<event>
 7    1  0.2569312E-015  0.9000773E+02  0.7816164E-02  0.1186339E+00
        -11   -1    0    0    0    0  0.00000000000E+00  0.00000000000E+00  0.45593999997E+02  0.45594000000E+02  0.51100000000E-03 0.  1.
         11   -1    0    0    0    0 -0.00000000000E+00 -0.00000000000E+00 -0.45593999997E+02  0.45594000000E+02  0.51100000000E-03 0. -1.
    9900012    2    1    2    0    0  0.17236231356E+00  0.11674230241E+01 -0.21331411830E-01  0.90007728712E+02  0.89999989931E+02 0.  0.
         12    1    1    2    0    0 -0.17236231356E+00 -0.11674230241E+01  0.21331411830E-01  0.11802712880E+01  0.00000000000E+00 0. -1.
         11    1    3    3    0    0 -0.23152451292E+01  0.32430093440E+02 -0.21420110743E+02  0.38934463718E+02  0.51100000000E-03 0. -1.
        -11    1    3    3    0    0 -0.10483818736E+01  0.72993599601E+01  0.55601723792E+01  0.92355442464E+01  0.51100000000E-03 0.  1.
        -12    1    3    3    0    0  0.35359893164E+01 -0.38562030376E+02  0.15838606952E+02  0.41837720747E+02  0.00000000000E+00 0.  1.
</event>
<event>
 7    1  0.2569312E-015  0.9000783E+02  0.7816164E-02  0.1186339E+00
        -11   -1    0    0    0    0  0.00000000000E+00  0.00000000000E+00  0.45593999997E+02  0.45594000000E+02  0.51100000000E-03 0.  1.
         11   -1    0    0    0    0 -0.00000000000E+00 -0.00000000000E+00 -0.45593999997E+02  0.45594000000E+02  0.51100000000E-03 0. -1.
    9900012    2    1    2    0    0  0.15192389782E+00 -0.98115361606E+00 -0.63801567322E+00  0.90007827433E+02  0.90000089955E+02 0.  0.
         12    1    1    2    0    0 -0.15192389782E+00  0.98115361606E+00  0.63801567322E+00  0.11801725672E+01  0.00000000000E+00 0. -1.
         11    1    3    3    0    0  0.13919095677E+02 -0.40175195938E+01 -0.33302600409E+02  0.36317280768E+02  0.51100000000E-03 0. -1.
        -11    1    3    3    0    0  0.16157813786E+01  0.93693024317E+00 -0.90185415263E+01  0.92099228697E+01  0.51100000000E-03 0.  1.
        -12    1    3    3    0    0 -0.15382953158E+02  0.20994357346E+01  0.41683126262E+02  0.44480623795E+02  0.00000000000E+00 0.  1.
</event>
<event>
 7    1  0.2569312E-015  0.9000753E+02  0.7816164E-02  0.1186339E+00
        -11   -1    0    0    0    0  0.00000000000E+00  0.00000000000E+00  0.45593999997E+02  0.45594000000E+02  0.51100000000E-03 0. -1.
         11   -1    0    0    0    0 -0.00000000000E+00 -0.00000000000E+00 -0.45593999997E+02  0.45594000000E+02  0.51100000000E-03 0.  1.
    9900012    2    1    2    0    0 -0.30254107334E+00  0.96894538724E+00  0.60259145342E+00  0.90007532836E+02  0.89999791470E+02 0.  0.
         12    1    1    2    0    0  0.30254107334E+00 -0.96894538724E+00 -0.60259145342E+00  0.11804671636E+01  0.00000000000E+00 0. -1.
         11    1    3    3    0    0  0.30002837829E+02 -0.14153789939E+02  0.23677782873E+02  0.40757053984E+02  0.51100000000E-03 0. -1.
        -11    1    3    3    0    0 -0.85998283490E+01 -0.90000346383E+00  0.52638406279E+01  0.10122997199E+02  0.51100000000E-03 0.  1.
        -12    1    3    3    0    0 -0.21705550554E+02  0.16022738790E+02 -0.28339032047E+02  0.39127481653E+02  0.00000000000E+00 0.  1.
</event>
<event>
 7    1  0.2569312E-015  0.9000764E+02  0.7816164E-02  0.1186339E+00
        -11   -1    0    0    0    0  0.00000000000E+00  0.00000000000E+00  0.45593999997E+02  0.45594000000E+02  0.51100000000E-03 0.  1.
         11   -1    0    0    0    0 -0.00000000000E+00 -0.00000000000E+00 -0.45593999997E+02  0.45594000000E+02  0.51100000000E-03 0. -1.
    9900012    2    1    2    0    0 -0.23888821947E+00 -0.11493086630E+01  0.12353724749E+00  0.90007644360E+02  0.89999904466E+02 0.  0.
         12    1    1    2    0    0  0.23888821947E+00  0.11493086630E+01 -0.12353724749E+00  0.11803556395E+01  0.00000000000E+00 0. -1.
         11    1    3    3    0    0  0.46026135418E+01 -0.13455019223E+02 -0.12277115519E+02  0.18786941194E+02  0.51100000000E-03 0. -1.
        -11    1    3    3    0    0  0.31296768273E+02 -0.11727066710E+01  0.85142048899E+01  0.32455425285E+02  0.51100000000E-03 0.  1.
         12    1    3    3    0    0 -0.36138270034E+02  0.13478417231E+02  0.38864478762E+01  0.38765277881E+02  0.00000000000E+00 0. -1.
</event>
<event>
 7    1  0.2569312E-015  0.9000803E+02  0.7816164E-02  0.1186338E+00
        -11   -1    0    0    0    0  0.00000000000E+00  0.00000000000E+00  0.45593999997E+02  0.45594000000E+02  0.51100000000E-03 0. -1.
         11   -1    0    0    0    0 -0.00000000000E+00 -0.00000000000E+00 -0.45593999997E+02  0.45594000000E+02  0.51100000000E-03 0.  1.
    9900012    2    1    2    0    0 -0.65630180083E+00  0.73754335185E+00 -0.64624790162E+00  0.90008026017E+02  0.90000291160E+02 0.  0.
         12    1    1    2    0    0  0.65630180083E+00 -0.73754335185E+00  0.64624790162E+00  0.11799739828E+01  0.00000000000E+00 0. -1.
         11    1    3    3    0    0 -0.19876640444E+01  0.28905689801E+01 -0.88459244118E+01  0.95161219172E+01  0.51100000000E-03 0. -1.
        -11    1    3    3    0    0 -0.33481239835E+02  0.82081467786E+01  0.22816263229E+02  0.41339435922E+02  0.51100000000E-03 0.  1.
         12    1    3    3    0    0  0.34812602078E+02 -0.10361172407E+02 -0.14616586719E+02  0.39152468178E+02  0.00000000000E+00 0. -1.
</event>
<event>
 7    1  0.2569312E-015  0.9000766E+02  0.7816164E-02  0.1186339E+00
        -11   -1    0    0    0    0  0.00000000000E+00  0.00000000000E+00  0.45593999997E+02  0.45594000000E+02  0.51100000000E-03 0.  1.
         11   -1    0    0    0    0 -0.00000000000E+00 -0.00000000000E+00 -0.45593999997E+02  0.45594000000E+02  0.51100000000E-03 0. -1.
    9900012    2    1    2    0    0  0.69378241348E+00 -0.58475989895E+00  0.75493991792E+00  0.90007655789E+02  0.89999916045E+02 0.  0.
         12    1    1    2    0    0 -0.69378241348E+00  0.58475989895E+00 -0.75493991792E+00  0.11803442110E+01  0.00000000000E+00 0. -1.
         11    1    3    3    0    0 -0.17292370007E+01 -0.42901185420E+01 -0.16130721446E+02  0.16780809049E+02  0.51100000000E-03 0. -1.
        -11    1    3    3    0    0  0.57396541761E+01  0.27787489571E+01 -0.27742526807E+02  0.28465994971E+02  0.51100000000E-03 0.  1.
         12    1    3    3    0    0 -0.33166347619E+01  0.92660968593E+00  0.44628188171E+02  0.44760851769E+02  0.00000000000E+00 0. -1.
</event>
<event>
 7    1  0.2569312E-015  0.9000763E+02  0.7816164E-02  0.1186339E+00
        -11   -1    0    0    0    0  0.00000000000E+00  0.00000000000E+00  0.45593999997E+02  0.45594000000E+02  0.51100000000E-03 0.  1.
         11   -1    0    0    0    0 -0.00000000000E+00 -0.00000000000E+00 -0.45593999997E+02  0.45594000000E+02  0.51100000000E-03 0. -1.
    9900012    2    1    2    0    0  0.10687732801E+01  0.31560827605E+00 -0.38909931424E+00  0.90007625829E+02  0.89999885689E+02 0.  0.
         12    1    1    2    0    0 -0.10687732801E+01 -0.31560827605E+00  0.38909931424E+00  0.11803741714E+01  0.00000000000E+00 0. -1.
         11    1    3    3    0    0 -0.19137768233E+02 -0.13450523501E+02 -0.24168460065E+02  0.33634583654E+02  0.51100000000E-03 0. -1.
        -11    1    3    3    0    0  0.11240406190E+02 -0.94976854750E+01 -0.73834751243E+01  0.16464157005E+02  0.51100000000E-03 0.  1.
        -12    1    3    3    0    0  0.89661353233E+01  0.23263817252E+02  0.31162835875E+02  0.39908885170E+02  0.00000000000E+00 0.  1.
</event>
<event>
 7    1  0.2721098E-015  0.9000765E+02  0.7816164E-02  0.1186339E+00
        -11   -1    0    0    0    0  0.00000000000E+00  0.00000000000E+00  0.45593999997E+02  0.45594000000E+02  0.51100000000E-03 0. -1.
         11   -1    0    0    0    0 -0.00000000000E+00 -0.00000000000E+00 -0.45593999997E+02  0.45594000000E+02  0.51100000000E-03 0.  1.
    9900012    2    1    2    0    0 -0.47898958126E+00 -0.68099791485E+00 -0.83668199643E+00  0.90007650076E+02  0.89999910257E+02 0.  0.
         12    1    1    2    0    0  0.47898958126E+00  0.68099791485E+00  0.83668199643E+00  0.11803499236E+01  0.00000000000E+00 0. -1.
         11    1    3    3    0    0 -0.46855874382E+01  0.40731110899E+02  0.10744240628E+01  0.41013808797E+02  0.51100000000E-03 0. -1.
        -11    1    3    3    0    0  0.84806055889E+01 -0.31052010528E+01  0.42133541036E+01  0.99657060861E+01  0.51100000000E-03 0.  1.
        -12    1    3    3    0    0 -0.42740077320E+01 -0.38306907762E+02 -0.61244601628E+01  0.39028135193E+02  0.00000000000E+00 0.  1.
</event>
<event>
 7    1  0.2569312E-015  0.9000774E+02  0.7816164E-02  0.1186339E+00
        -11   -1    0    0    0    0  0.00000000000E+00  0.00000000000E+00  0.45593999997E+02  0.45594000000E+02  0.51100000000E-03 0.  1.
         11   -1    0    0    0    0 -0.00000000000E+00 -0.00000000000E+00 -0.45593999997E+02  0.45594000000E+02  0.51100000000E-03 0. -1.
    9900012    2    1    2    0    0  0.11024371883E+01  0.42146260606E+00  0.25328602471E-02  0.90007743715E+02  0.90000005132E+02 0.  0.
         12    1    1    2    0    0 -0.11024371883E+01 -0.42146260606E+00 -0.25328602471E-02  0.11802562848E+01  0.00000000000E+00 0. -1.
         11    1    3    3    0    0  0.88597270133E+00 -0.63075198153E+01  0.99803570331E+01  0.11839648670E+02  0.51100000000E-03 0. -1.
        -11    1    3    3    0    0  0.15882146085E+02 -0.31319238720E+02  0.24045770651E+01  0.35198285035E+02  0.51100000000E-03 0.  1.
         12    1    3    3    0    0 -0.15665681598E+02  0.38048221142E+02 -0.12382401238E+02  0.42969810011E+02  0.00000000000E+00 0. -1.
</event>
<event>
 7    1  0.2569312E-015  0.9000768E+02  0.7816164E-02  0.1186339E+00
        -11   -1    0    0    0    0  0.00000000000E+00  0.00000000000E+00  0.45593999997E+02  0.45594000000E+02  0.51100000000E-03 0.  1.
         11   -1    0    0    0    0 -0.00000000000E+00 -0.00000000000E+00 -0.45593999997E+02  0.45594000000E+02  0.51100000000E-03 0. -1.
    9900012    2    1    2    0    0 -0.73934788396E+00  0.89895624454E+00  0.19593648386E+00  0.90007682785E+02  0.89999943397E+02 0.  0.
         12    1    1    2    0    0  0.73934788396E+00 -0.89895624454E+00 -0.19593648386E+00  0.11803172153E+01  0.00000000000E+00 0. -1.
         11    1    3    3    0    0  0.24268868000E+02 -0.34355153295E+01 -0.31123488063E+02  0.39616312663E+02  0.51100000000E-03 0. -1.
        -11    1    3    3    0    0 -0.15117022313E+02 -0.12133629548E+01 -0.19049134228E+01  0.15284806465E+02  0.51100000000E-03 0.  1.
        -12    1    3    3    0    0 -0.98911935710E+01  0.55478345288E+01  0.33224337970E+02  0.35106563656E+02  0.00000000000E+00 0.  1.
</event>
<event>
 7    1  0.2569312E-015  0.9000773E+02  0.7816164E-02  0.1186339E+00
        -11   -1    0    0    0    0  0.00000000000E+00  0.00000000000E+00  0.45593999997E+02  0.45594000000E+02  0.51100000000E-03 0.  1.
         11   -1    0    0    0    0 -0.00000000000E+00 -0.00000000000E+00 -0.45593999997E+02  0.45594000000E+02  0.51100000000E-03 0. -1.
    9900012    2    1    2    0    0 -0.10310446551E+01 -0.67463487890E-01  0.57047714417E+00  0.90007725212E+02  0.89999986385E+02 0.  0.
         12    1    1    2    0    0  0.10310446551E+01  0.67463487890E-01 -0.57047714417E+00  0.11802747880E+01  0.00000000000E+00 0. -1.
         11    1    3    3    0    0  0.23591264340E+01 -0.91231345603E+01  0.16126004441E+01  0.95602061793E+01  0.51100000000E-03 0. -1.
        -11    1    3    3    0    0  0.33615404965E+02 -0.14461839758E+02 -0.59071005633E+00  0.36599032757E+02  0.51100000000E-03 0.  1.
         12    1    3    3    0    0 -0.37005576054E+02  0.23517510830E+02 -0.45141324365E+00  0.43848486276E+02  0.00000000000E+00 0. -1.
</event>
<event>
 7    1  0.2569312E-015  0.9000776E+02  0.7816164E-02  0.1186339E+00
        -11   -1    0    0    0    0  0.00000000000E+00  0.00000000000E+00  0.45593999997E+02  0.45594000000E+02  0.51100000000E-03 0.  1.
         11   -1    0    0    0    0 -0.00000000000E+00 -0.00000000000E+00 -0.45593999997E+02  0.45594000000E+02  0.51100000000E-03 0. -1.
    9900012    2    1    2    0    0 -0.83526800424E-01  0.21035390701E+00  0.11583310575E+01  0.90007764290E+02  0.90000025979E+02 0.  0.
         12    1    1    2    0    0  0.83526800424E-01 -0.21035390701E+00 -0.11583310575E+01  0.11802357101E+01  0.00000000000E+00 0. -1.
         11    1    3    3    0    0 -0.31885902338E+02 -0.22434736489E+02 -0.79739539040E+01  0.39794624138E+02  0.51100000000E-03 0. -1.
        -11    1    3    3    0    0 -0.50748048003E+01  0.77547692034E+01 -0.54172797882E+00  0.92835100379E+01  0.51100000000E-03 0.  1.
        -12    1    3    3    0    0  0.36877180338E+02  0.14890321192E+02  0.96740129403E+01  0.40929630114E+02  0.00000000000E+00 0.  1.
</event>
<event>
 7    1  0.2903999E-015  0.9000777E+02  0.7816164E-02  0.1186339E+00
        -11   -1    0    0    0    0  0.00000000000E+00  0.00000000000E+00  0.45593999997E+02  0.45594000000E+02  0.51100000000E-03 0. -1.
         11   -1    0    0    0    0 -0.00000000000E+00 -0.00000000000E+00 -0.45593999997E+02  0.45594000000E+02  0.51100000000E-03 0.  1.
    9900012    2    1    2    0    0  0.11322501956E+01 -0.19332293711E+00 -0.27126014595E+00  0.90007768527E+02  0.90000030271E+02 0.  0.
         12    1    1    2    0    0 -0.11322501956E+01  0.19332293711E+00  0.27126014595E+00  0.11802314732E+01  0.00000000000E+00 0. -1.
         11    1    3    3    0    0 -0.42466761011E+01  0.22978489204E+02  0.32892662044E+02  0.40348140486E+02  0.51100000000E-03 0. -1.
        -11    1    3    3    0    0  0.97411688428E+01 -0.73702495151E+00 -0.48433629117E+00  0.97810100760E+01  0.51100000000E-03 0.  1.
        -12    1    3    3    0    0 -0.43622425460E+01 -0.22434787190E+02 -0.32679585899E+02  0.39878617965E+02  0.00000000000E+00 0.  1.
</event>
<event>
 7    1  0.2569312E-015  0.9000754E+02  0.7816164E-02  0.1186339E+00
        -11   -1    0    0    0    0  0.00000000000E+00  0.00000000000E+00  0.45593999997E+02  0.45594000000E+02  0.51100000000E-03 0. -1.
         11   -1    0    0    0    0 -0.00000000000E+00 -0.00000000000E+00 -0.45593999997E+02  0.45594000000E+02  0.51100000000E-03 0.  1.
    9900012    2    1    2    0    0  0.92618538461E+00 -0.14373554545E+00 -0.71763272079E+00  0.90007544158E+02  0.89999802940E+02 0.  0.
         12    1    1    2    0    0 -0.92618538461E+00  0.14373554545E+00  0.71763272079E+00  0.11804558423E+01  0.00000000000E+00 0. -1.
         11    1    3    3    0    0  0.42408961714E+01 -0.87527766926E+01  0.31946255359E+02  0.33394004430E+02  0.51100000000E-03 0. -1.
        -11    1    3    3    0    0  0.48425575559E+01  0.20267480745E+01  0.10744077363E+02  0.11957979348E+02  0.51100000000E-03 0.  1.
        -12    1    3    3    0    0 -0.81572683427E+01  0.65822930726E+01 -0.43407965443E+02  0.44655560379E+02  0.00000000000E+00 0.  1.
</event>
<event>
 7    1  0.2569312E-015  0.9000780E+02  0.7816164E-02  0.1186339E+00
        -11   -1    0    0    0    0  0.00000000000E+00  0.00000000000E+00  0.45593999997E+02  0.45594000000E+02  0.51100000000E-03 0. -1.
         11   -1    0    0    0    0 -0.00000000000E+00 -0.00000000000E+00 -0.45593999997E+02  0.45594000000E+02  0.51100000000E-03 0.  1.
    9900012    2    1    2    0    0  0.51141640746E+00  0.27272120480E+00 -0.10280750465E+01  0.90007804296E+02  0.90000066513E+02 0.  0.
         12    1    1    2    0    0 -0.51141640746E+00 -0.27272120480E+00  0.10280750465E+01  0.11801957035E+01  0.00000000000E+00 0. -1.
         11    1    3    3    0    0  0.56872828655E+01  0.59148701925E+01 -0.40425088310E+01  0.91472812189E+01  0.51100000000E-03 0. -1.
        -11    1    3    3    0    0 -0.25439736254E+02  0.27545748138E+02 -0.11708282922E+02  0.39281449953E+02  0.51100000000E-03 0.  1.
         12    1    3    3    0    0  0.20263869796E+02 -0.33187897125E+02  0.14722716707E+02  0.41579073125E+02  0.00000000000E+00 0. -1.
</event>
<event>
 7    1  0.2569312E-015  0.9000713E+02  0.7816164E-02  0.1186340E+00
        -11   -1    0    0    0    0  0.00000000000E+00  0.00000000000E+00  0.45593999997E+02  0.45594000000E+02  0.51100000000E-03 0. -1.
         11   -1    0    0    0    0 -0.00000000000E+00 -0.00000000000E+00 -0.45593999997E+02  0.45594000000E+02  0.51100000000E-03 0.  1.
    9900012    2    1    2    0    0 -0.77666797257E+00  0.39852813382E+00  0.79524616796E+00  0.90007129863E+02  0.89999383175E+02 0.  0.
         12    1    1    2    0    0  0.77666797257E+00 -0.39852813382E+00 -0.79524616796E+00  0.11808701371E+01  0.00000000000E+00 0. -1.
         11    1    3    3    0    0  0.84010199901E+01  0.98604507038E+00 -0.47043411082E+01  0.96788556803E+01  0.51100000000E-03 0. -1.
        -11    1    3    3    0    0  0.20410087111E+02  0.17672652135E+02 -0.22925748735E+02  0.35418699082E+02  0.51100000000E-03 0.  1.
         12    1    3    3    0    0 -0.29587775074E+02 -0.18260169071E+02  0.28425336011E+02  0.44909575100E+02  0.00000000000E+00 0. -1.
</event>
<event>
 7    1  0.2569312E-015  0.9000771E+02  0.7816164E-02  0.1186339E+00
        -11   -1    0    0    0    0  0.00000000000E+00  0.00000000000E+00  0.45593999997E+02  0.45594000000E+02  0.51100000000E-03 0. -1.
         11   -1    0    0    0    0 -0.00000000000E+00 -0.00000000000E+00 -0.45593999997E+02  0.45594000000E+02  0.51100000000E-03 0.  1.
    9900012    2    1    2    0    0  0.66599425243E+00 -0.84782827190E+00 -0.48033503723E+00  0.90007710683E+02  0.89999971664E+02 0.  0.
         12    1    1    2    0    0 -0.66599425243E+00  0.84782827190E+00  0.48033503723E+00  0.11802893166E+01  0.00000000000E+00 0. -1.
         11    1    3    3    0    0 -0.24915287978E+02  0.24683349506E+02 -0.19321630447E+02  0.40042036926E+02  0.51100000000E-03 0. -1.
        -11    1    3    3    0    0  0.39869007553E+01 -0.76795811322E+01 -0.75439063920E+01  0.11479628387E+02  0.51100000000E-03 0.  1.
        -12    1    3    3    0    0  0.21594381475E+02 -0.17851596645E+02  0.26385201802E+02  0.38486045370E+02  0.00000000000E+00 0.  1.
</event>
<event>
 7    1  0.2569312E-015  0.9000764E+02  0.7816164E-02  0.1186339E+00
        -11   -1    0    0    0    0  0.00000000000E+00  0.00000000000E+00  0.45593999997E+02  0.45594000000E+02  0.51100000000E-03 0.  1.
         11   -1    0    0    0    0 -0.00000000000E+00 -0.00000000000E+00 -0.45593999997E+02  0.45594000000E+02  0.51100000000E-03 0. -1.
    9900012    2    1    2    0    0 -0.46711904350E+00  0.57262851137E+00  0.92040857899E+00  0.90007637528E+02  0.89999897543E+02 0.  0.
         12    1    1    2    0    0  0.46711904350E+00 -0.57262851137E+00 -0.92040857899E+00  0.11803624719E+01  0.00000000000E+00 0. -1.
         11    1    3    3    0    0  0.84098990455E+01  0.35880023032E+02  0.76343388952E+01  0.37634898503E+02  0.51100000000E-03 0. -1.
        -11    1    3    3    0    0 -0.94797034454E+01  0.45670363771E+01  0.37041038827E+01  0.11155401585E+02  0.51100000000E-03 0.  1.
        -12    1    3    3    0    0  0.60268535642E+00 -0.39874430898E+02 -0.10418034199E+02  0.41217337440E+02  0.00000000000E+00 0.  1.
</event>
<event>
 7    1  0.2569312E-015  0.9000762E+02  0.7816164E-02  0.1186339E+00
        -11   -1    0    0    0    0  0.00000000000E+00  0.00000000000E+00  0.45593999997E+02  0.45594000000E+02  0.51100000000E-03 0.  1.
         11   -1    0    0    0    0 -0.00000000000E+00 -0.00000000000E+00 -0.45593999997E+02  0.45594000000E+02  0.51100000000E-03 0. -1.
    9900012    2    1    2    0    0  0.69400495735E+00  0.95042634722E+00 -0.91325170268E-01  0.90007621498E+02  0.89999881301E+02 0.  0.
         12    1    1    2    0    0 -0.69400495735E+00 -0.95042634722E+00  0.91325170268E-01  0.11803785024E+01  0.00000000000E+00 0. -1.
         11    1    3    3    0    0  0.85908203731E+01  0.40724356505E+01 -0.35208211630E+01  0.10138200468E+02  0.51100000000E-03 0. -1.
        -11    1    3    3    0    0  0.35463234524E+02  0.60902451714E-02  0.73614790078E+01  0.36219227124E+02  0.51100000000E-03 0.  1.
         12    1    3    3    0    0 -0.43360049940E+02 -0.31280995485E+01 -0.39319830150E+01  0.43650193906E+02  0.00000000000E+00 0. -1.
</event>
<event>
 7    1  0.3868229E-015  0.9000783E+02  0.7816164E-02  0.1186339E+00
        -11   -1    0    0    0    0  0.00000000000E+00  0.00000000000E+00  0.45593999997E+02  0.45594000000E+02  0.51100000000E-03 0. -1.
         11   -1    0    0    0    0 -0.00000000000E+00 -0.00000000000E+00 -0.45593999997E+02  0.45594000000E+02  0.51100000000E-03 0.  1.
    9900012    2    1    2    0    0  0.49851078819E+00 -0.53176310306E+00 -0.92818192633E+00  0.90007827685E+02  0.90000090211E+02 0.  0.
         12    1    1    2    0    0 -0.49851078819E+00  0.53176310306E+00  0.92818192633E+00  0.11801723146E+01  0.00000000000E+00 0. -1.
         11    1    3    3    0    0  0.77787180018E+01  0.32104795731E+02  0.20749616568E+02  0.39009908365E+02  0.51100000000E-03 0. -1.
        -11    1    3    3    0    0 -0.80684879088E+01  0.42025686834E+01 -0.23831365990E+01  0.94043299061E+01  0.51100000000E-03 0.  1.
        -12    1    3    3    0    0  0.78828069516E+00 -0.36839127518E+02 -0.19294661895E+02  0.41593589414E+02  0.00000000000E+00 0.  1.
</event>
<event>
 7    1  0.2569312E-015  0.9000771E+02  0.7816164E-02  0.1186339E+00
        -11   -1    0    0    0    0  0.00000000000E+00  0.00000000000E+00  0.45593999997E+02  0.45594000000E+02  0.51100000000E-03 0. -1.
         11   -1    0    0    0    0 -0.00000000000E+00 -0.00000000000E+00 -0.45593999997E+02  0.45594000000E+02  0.51100000000E-03 0.  1.
    9900012    2    1    2    0    0 -0.25619059562E+00 -0.78605961650E+00 -0.84235659159E+00  0.90007708524E+02  0.89999969476E+02 0.  0.
         12    1    1    2    0    0  0.25619059562E+00  0.78605961650E+00  0.84235659159E+00  0.11802914764E+01  0.00000000000E+00 0. -1.
         11    1    3    3    0    0  0.27272869729E+02  0.23365499691E+02  0.20700922401E+02  0.41452191590E+02  0.51100000000E-03 0. -1.
        -11    1    3    3    0    0 -0.24788248100E+01 -0.91744943625E+01  0.34702197846E+01  0.10117230098E+02  0.51100000000E-03 0.  1.
        -12    1    3    3    0    0 -0.25050235515E+02 -0.14977064945E+02 -0.25013498778E+02  0.38438286835E+02  0.00000000000E+00 0.  1.
</event>
<event>
 7    1  0.2569312E-015  0.9000801E+02  0.7816164E-02  0.1186338E+00
        -11   -1    0    0    0    0  0.00000000000E+00  0.00000000000E+00  0.45593999997E+02  0.45594000000E+02  0.51100000000E-03 0. -1.
         11   -1    0    0    0    0 -0.00000000000E+00 -0.00000000000E+00 -0.45593999997E+02  0.45594000000E+02  0.51100000000E-03 0.  1.
    9900012    2    1    2    0    0 -0.21058760639E-01 -0.90070855003E-01 -0.11763543598E+01  0.90008014487E+02  0.90000279478E+02 0.  0.
         12    1    1    2    0    0  0.21058760639E-01  0.90070855003E-01  0.11763543598E+01  0.11799855127E+01  0.00000000000E+00 0. -1.
         11    1    3    3    0    0 -0.29750313235E+02  0.11768061937E+02  0.11729787576E+02  0.34075744103E+02  0.51100000000E-03 0. -1.
        -11    1    3    3    0    0 -0.46302571694E+01  0.48542574060E+01  0.95067441807E+01  0.11635346217E+02  0.51100000000E-03 0.  1.
        -12    1    3    3    0    0  0.34359511644E+02 -0.16712390198E+02 -0.22412886117E+02  0.44296924167E+02  0.00000000000E+00 0.  1.
</event>
<event>
 7    1  0.2569312E-015  0.9000754E+02  0.7816164E-02  0.1186339E+00
        -11   -1    0    0    0    0  0.00000000000E+00  0.00000000000E+00  0.45593999997E+02  0.45594000000E+02  0.51100000000E-03 0. -1.
         11   -1    0    0    0    0 -0.00000000000E+00 -0.00000000000E+00 -0.45593999997E+02  0.45594000000E+02  0.51100000000E-03 0.  1.
    9900012    2    1    2    0    0 -0.10847969620E+01  0.72705459314E-01  0.45979012126E+00  0.90007543525E+02  0.89999802300E+02 0.  0.
         12    1    1    2    0    0  0.10847969620E+01 -0.72705459314E-01 -0.45979012126E+00  0.11804564745E+01  0.00000000000E+00 0. -1.
         11    1    3    3    0    0  0.99245030949E+01  0.53683706771E+01  0.30134403657E+02  0.32177592350E+02  0.51100000000E-03 0. -1.
        -11    1    3    3    0    0  0.19577806315E+01  0.19152272983E+02 -0.31705777423E+01  0.19511407660E+02  0.51100000000E-03 0.  1.
         12    1    3    3    0    0 -0.12967080688E+02 -0.24447938200E+02 -0.26504035793E+02  0.38318543516E+02  0.00000000000E+00 0. -1.
</event>
<event>
 7    1  0.2569312E-015  0.9000774E+02  0.7816164E-02  0.1186339E+00
        -11   -1    0    0    0    0  0.00000000000E+00  0.00000000000E+00  0.45593999997E+02  0.45594000000E+02  0.51100000000E-03 0.  1.
         11   -1    0    0    0    0 -0.00000000000E+00 -0.00000000000E+00 -0.45593999997E+02  0.45594000000E+02  0.51100000000E-03 0. -1.
    9900012    2    1    2    0    0  0.11072511502E+01 -0.87610574121E-01 -0.39917305003E+00  0.90007737383E+02  0.89999998716E+02 0.  0.
         12    1    1    2    0    0 -0.11072511502E+01  0.87610574121E-01  0.39917305003E+00  0.11802626174E+01  0.00000000000E+00 0. -1.
         11    1    3    3    0    0 -0.96708991597E+01  0.10071238727E+02  0.34648807355E+01  0.14386157890E+02  0.51100000000E-03 0. -1.
        -11    1    3    3    0    0  0.35899835001E+02  0.13033455741E+02  0.87438354927E+01  0.39180655699E+02  0.51100000000E-03 0.  1.
         12    1    3    3    0    0 -0.25121684691E+02 -0.23192305043E+02 -0.12607889278E+02  0.36440923794E+02  0.00000000000E+00 0. -1.
</event>
<event>
 7    1  0.2569312E-015  0.9000772E+02  0.7816164E-02  0.1186339E+00
        -11   -1    0    0    0    0  0.00000000000E+00  0.00000000000E+00  0.45593999997E+02  0.45594000000E+02  0.51100000000E-03 0.  1.
         11   -1    0    0    0    0 -0.00000000000E+00 -0.00000000000E+00 -0.45593999997E+02  0.45594000000E+02  0.51100000000E-03 0. -1.
    9900012    2    1    2    0    0 -0.20549924500E+00 -0.11369613611E+01 -0.24113467968E+00  0.90007721639E+02  0.89999982764E+02 0.  0.
         12    1    1    2    0    0  0.20549924500E+00  0.11369613611E+01  0.24113467968E+00  0.11802783613E+01  0.00000000000E+00 0. -1.
         11    1    3    3    0    0  0.67929093668E+01 -0.51719421982E+01 -0.21229071324E+00  0.85403554595E+01  0.51100000000E-03 0. -1.
        -11    1    3    3    0    0 -0.87439630741E+01  0.48856528264E+01  0.40079452096E+02  0.41312092350E+02  0.51100000000E-03 0.  1.
         12    1    3    3    0    0  0.17455544624E+01 -0.85067198933E+00 -0.40108296063E+02  0.40155273829E+02  0.00000000000E+00 0. -1.
</event>
<event>
 7    1  0.2569312E-015  0.9000782E+02  0.7816164E-02  0.1186339E+00
        -11   -1    0    0    0    0  0.00000000000E+00  0.00000000000E+00  0.45593999997E+02  0.45594000000E+02  0.51100000000E-03 0.  1.
         11   -1    0    0    0    0 -0.00000000000E+00 -0.00000000000E+00 -0.45593999997E+02  0.45594000000E+02  0.51100000000E-03 0. -1.
    9900012    2    1    2    0    0  0.10126078568E+00 -0.79419910963E+00  0.86706934885E+00  0.90007824069E+02  0.90000086547E+02 0.  0.
         12    1    1    2    0    0 -0.10126078568E+00  0.79419910963E+00 -0.86706934885E+00  0.11801759310E+01  0.00000000000E+00 0. -1.
         11    1    3    3    0    0  0.31367872071E+02 -0.24385079591E+01 -0.25239004952E+02  0.40334812390E+02  0.51100000000E-03 0. -1.
        -11    1    3    3    0    0 -0.59377101934E+01  0.92252469693E+01 -0.19270184058E+01  0.11138895106E+02  0.51100000000E-03 0.  1.
        -12    1    3    3    0    0 -0.25328901092E+02 -0.75809381198E+01  0.28033092707E+02  0.38534116572E+02  0.00000000000E+00 0.  1.
</event>
<event>
 7    1  0.2569312E-015  0.9000774E+02  0.7816164E-02  0.1186339E+00
        -11   -1    0    0    0    0  0.00000000000E+00  0.00000000000E+00  0.45593999997E+02  0.45594000000E+02  0.51100000000E-03 0.  1.
         11   -1    0    0    0    0 -0.00000000000E+00 -0.00000000000E+00 -0.45593999997E+02  0.45594000000E+02  0.51100000000E-03 0. -1.
    9900012    2    1    2    0    0  0.37496540424E+00 -0.86642701301E+00  0.70832448614E+00  0.90007737995E+02  0.89999999336E+02 0.  0.
         12    1    1    2    0    0 -0.37496540424E+00  0.86642701301E+00 -0.70832448614E+00  0.11802620052E+01  0.00000000000E+00 0. -1.
         11    1    3    3    0    0 -0.68076431383E+01  0.29146167704E+02  0.28659445312E+02  0.41439195248E+02  0.51100000000E-03 0. -1.
        -11    1    3    3    0    0  0.72759063508E+01  0.21047086450E+01 -0.60607734606E+01  0.97005972449E+01  0.51100000000E-03 0.  1.
        -12    1    3    3    0    0 -0.93297808252E-01 -0.32117303362E+02 -0.21890347365E+02  0.38867945502E+02  0.00000000000E+00 0.  1.
</event>
<event>
 7    1  0.2569312E-015  0.9000773E+02  0.7816164E-02  0.1186339E+00
        -11   -1    0    0    0    0  0.00000000000E+00  0.00000000000E+00  0.45593999997E+02  0.45594000000E+02  0.51100000000E-03 0. -1.
         11   -1    0    0    0    0 -0.00000000000E+00 -0.00000000000E+00 -0.45593999997E+02  0.45594000000E+02  0.51100000000E-03 0.  1.
    9900012    2    1    2    0    0 -0.13379996852E+00  0.11002873221E+01 -0.40559540093E+00  0.90007727891E+02  0.89999989099E+02 0.  0.
         12    1    1    2    0    0  0.13379996852E+00 -0.11002873221E+01  0.40559540093E+00  0.11802721093E+01  0.00000000000E+00 0. -1.
         11    1    3    3    0    0  0.58779835876E+01  0.50727256184E+01 -0.61387706476E+01  0.98978655063E+01  0.51100000000E-03 0. -1.
        -11    1    3    3    0    0  0.31549807357E+02  0.16801711620E+02  0.96027213125E+01  0.37012161710E+02  0.51100000000E-03 0.  1.
         12    1    3    3    0    0 -0.37561590913E+02 -0.20774149916E+02 -0.38695460658E+01  0.43097700674E+02  0.00000000000E+00 0. -1.
</event>
<event>
 7    1  0.2569312E-015  0.9000783E+02  0.7816164E-02  0.1186339E+00
        -11   -1    0    0    0    0  0.00000000000E+00  0.00000000000E+00  0.45593999997E+02  0.45594000000E+02  0.51100000000E-03 0. -1.
         11   -1    0    0    0    0 -0.00000000000E+00 -0.00000000000E+00 -0.45593999997E+02  0.45594000000E+02  0.51100000000E-03 0.  1.
    9900012    2    1    2    0    0 -0.96836696569E-01 -0.10894382690E+01 -0.44333629755E+00  0.90007830453E+02  0.90000093015E+02 0.  0.
         12    1    1    2    0    0  0.96836696569E-01  0.10894382690E+01  0.44333629755E+00  0.11801695474E+01  0.00000000000E+00 0. -1.
         11    1    3    3    0    0  0.40129144378E+02  0.46886301224E+01 -0.73796757544E+01  0.41070562395E+02  0.51100000000E-03 0. -1.
        -11    1    3    3    0    0 -0.16504080293E+01  0.70918998312E+01  0.36331595340E+01  0.81374896829E+01  0.51100000000E-03 0.  1.
        -12    1    3    3    0    0 -0.38575573045E+02 -0.12869968223E+02  0.33031799229E+01  0.40799778375E+02  0.00000000000E+00 0.  1.
</event>
<event>
 7    1  0.2569312E-015  0.9000775E+02  0.7816164E-02  0.1186339E+00
        -11   -1    0    0    0    0  0.00000000000E+00  0.00000000000E+00  0.45593999997E+02  0.45594000000E+02  0.51100000000E-03 0. -1.
         11   -1    0    0    0    0 -0.00000000000E+00 -0.00000000000E+00 -0.45593999997E+02  0.45594000000E+02  0.51100000000E-03 0.  1.
    9900012    2    1    2    0    0  0.50457336350E+00 -0.49320220495E+00 -0.94611670546E+00  0.90007754469E+02  0.90000016028E+02 0.  0.
         12    1    1    2    0    0 -0.50457336350E+00  0.49320220495E+00  0.94611670546E+00  0.11802455314E+01  0.00000000000E+00 0. -1.
         11    1    3    3    0    0 -0.31920004249E+02  0.12704012179E+02  0.18707535954E+02  0.39118416359E+02  0.51100000000E-03 0. -1.
        -11    1    3    3    0    0  0.45255818562E+01 -0.49129392906E+01  0.82197273555E+01  0.10591590139E+02  0.51100000000E-03 0.  1.
        -12    1    3    3    0    0  0.27898995757E+02 -0.82842750928E+01 -0.27873380015E+02  0.40297747971E+02  0.00000000000E+00 0.  1.
</event>
<event>
 7    1  0.2569312E-015  0.9000827E+02  0.7816164E-02  0.1186338E+00
        -11   -1    0    0    0    0  0.00000000000E+00  0.00000000000E+00  0.45593999997E+02  0.45594000000E+02  0.51100000000E-03 0. -1.
         11   -1    0    0    0    0 -0.00000000000E+00 -0.00000000000E+00 -0.45593999997E+02  0.45594000000E+02  0.51100000000E-03 0.  1.
    9900012    2    1    2    0    0  0.20911939495E-01 -0.10849395615E+01  0.46286292965E+00  0.90008265601E+02  0.90000533905E+02 0.  0.
         12    1    1    2    0    0 -0.20911939495E-01  0.10849395615E+01 -0.46286292965E+00  0.11797343994E+01  0.00000000000E+00 0. -1.
         11    1    3    3    0    0 -0.64836544435E+01  0.38366747442E+02  0.14289362189E+02  0.41451549503E+02  0.51100000000E-03 0. -1.
        -11    1    3    3    0    0 -0.52493533137E+01 -0.28385049880E+01 -0.75026595259E+01  0.95865906871E+01  0.51100000000E-03 0.  1.
        -12    1    3    3    0    0  0.11753919697E+02 -0.36613182015E+02 -0.63238397337E+01  0.38970125410E+02  0.00000000000E+00 0.  1.
</event>
<event>
 7    1  0.2569312E-015  0.9000804E+02  0.7816164E-02  0.1186338E+00
        -11   -1    0    0    0    0  0.00000000000E+00  0.00000000000E+00  0.45593999997E+02  0.45594000000E+02  0.51100000000E-03 0.  1.
         11   -1    0    0    0    0 -0.00000000000E+00 -0.00000000000E+00 -0.45593999997E+02  0.45594000000E+02  0.51100000000E-03 0. -1.
    9900012    2    1    2    0    0  0.51523116086E+00 -0.10087347451E+01  0.33059617499E+00  0.90008041202E+02  0.90000306545E+02 0.  0.
         12    1    1    2    0    0 -0.51523116086E+00  0.10087347451E+01 -0.33059617499E+00  0.11799587985E+01  0.00000000000E+00 0. -1.
         11    1    3    3    0    0  0.72703989908E+00  0.22299695191E+02 -0.31400632697E+02  0.38520185964E+02  0.51100000000E-03 0. -1.
        -11    1    3    3    0    0 -0.82928518006E+01 -0.10596576611E+02 -0.28625381532E+01  0.13756923777E+02  0.51100000000E-03 0.  1.
        -12    1    3    3    0    0  0.80810430624E+01 -0.12711853325E+02  0.34593767025E+02  0.37730931461E+02  0.00000000000E+00 0.  1.
</event>
<event>
 7    1  0.2569312E-015  0.9000746E+02  0.7816164E-02  0.1186340E+00
        -11   -1    0    0    0    0  0.00000000000E+00  0.00000000000E+00  0.45593999997E+02  0.45594000000E+02  0.51100000000E-03 0. -1.
         11   -1    0    0    0    0 -0.00000000000E+00 -0.00000000000E+00 -0.45593999997E+02  0.45594000000E+02  0.51100000000E-03 0.  1.
    9900012    2    1    2    0    0  0.34842198102E+00 -0.10981349762E+01  0.25763477846E+00  0.90007460301E+02  0.89999717976E+02 0.  0.
         12    1    1    2    0    0 -0.34842198102E+00  0.10981349762E+01 -0.25763477846E+00  0.11805396994E+01  0.00000000000E+00 0. -1.
         11    1    3    3    0    0  0.63875186287E+01 -0.40367568428E+01  0.61304032025E+01  0.97302437650E+01  0.51100000000E-03 0. -1.
        -11    1    3    3    0    0  0.11089226511E+02  0.24007060834E+02 -0.32735359415E+02  0.42082225117E+02  0.51100000000E-03 0.  1.
         12    1    3    3    0    0 -0.17128323159E+02 -0.21068438967E+02  0.26862590991E+02  0.38194991419E+02  0.00000000000E+00 0. -1.
</event>
<event>
 7    1  0.2569312E-015  0.9000778E+02  0.7816164E-02  0.1186339E+00
        -11   -1    0    0    0    0  0.00000000000E+00  0.00000000000E+00  0.45593999997E+02  0.45594000000E+02  0.51100000000E-03 0.  1.
         11   -1    0    0    0    0 -0.00000000000E+00 -0.00000000000E+00 -0.45593999997E+02  0.45594000000E+02  0.51100000000E-03 0. -1.
    9900012    2    1    2    0    0 -0.16742859100E+00  0.27566969679E+00  0.11352978090E+01  0.90007776619E+02  0.90000038470E+02 0.  0.
         12    1    1    2    0    0  0.16742859100E+00 -0.27566969679E+00 -0.11352978090E+01  0.11802233814E+01  0.00000000000E+00 0. -1.
         11    1    3    3    0    0 -0.78612389698E+01  0.14897084250E+02 -0.33523154560E+02  0.37516984010E+02  0.51100000000E-03 0. -1.
        -11    1    3    3    0    0 -0.33263549215E+01  0.80424728466E+01 -0.10699904259E+01  0.87687448546E+01  0.51100000000E-03 0.  1.
        -12    1    3    3    0    0  0.11020165300E+02 -0.22663887400E+02  0.35728442794E+02  0.43722047754E+02  0.00000000000E+00 0.  1.
</event>
<event>
 7    1  0.2569312E-015  0.9000773E+02  0.7816164E-02  0.1186339E+00
        -11   -1    0    0    0    0  0.00000000000E+00  0.00000000000E+00  0.45593999997E+02  0.45594000000E+02  0.51100000000E-03 0.  1.
         11   -1    0    0    0    0 -0.00000000000E+00 -0.00000000000E+00 -0.45593999997E+02  0.45594000000E+02  0.51100000000E-03 0. -1.
    9900012    2    1    2    0    0  0.58514535272E+00 -0.25590548522E+00  0.99255345412E+00  0.90007726701E+02  0.89999987893E+02 0.  0.
         12    1    1    2    0    0 -0.58514535272E+00  0.25590548522E+00 -0.99255345412E+00  0.11802732991E+01  0.00000000000E+00 0. -1.
         11    1    3    3    0    0 -0.44612565617E+01 -0.55963948121E+01 -0.44243895752E+01  0.84141350343E+01  0.51100000000E-03 0. -1.
        -11    1    3    3    0    0 -0.15633636712E+02 -0.32723400699E+02 -0.60866021878E+01  0.36773336490E+02  0.51100000000E-03 0.  1.
         12    1    3    3    0    0  0.20680038626E+02  0.38063890026E+02  0.11503545217E+02  0.44820255176E+02  0.00000000000E+00 0. -1.
</event>
<event>
 7    1  0.2569312E-015  0.9000775E+02  0.7816164E-02  0.1186339E+00
        -11   -1    0    0    0    0  0.00000000000E+00  0.00000000000E+00  0.45593999997E+02  0.45594000000E+02  0.51100000000E-03 0.  1.
         11   -1    0    0    0    0 -0.00000000000E+00 -0.00000000000E+00 -0.45593999997E+02  0.45594000000E+02  0.51100000000E-03 0. -1.
    9900012    2    1    2    0    0  0.64405160145E+00  0.51968489119E+00 -0.84149837596E+00  0.90007748176E+02  0.90000009652E+02 0.  0.
         12    1    1    2    0    0 -0.64405160145E+00 -0.51968489119E+00  0.84149837596E+00  0.11802518241E+01  0.00000000000E+00 0. -1.
         11    1    3    3    0    0 -0.74104388814E+01  0.52033654095E+01  0.60185756049E+00  0.90747919416E+01  0.51100000000E-03 0. -1.
        -11    1    3    3    0    0 -0.32490229311E+02 -0.17806827017E+02  0.64083081738E+01  0.37600059880E+02  0.51100000000E-03 0.  1.
         12    1    3    3    0    0  0.40544719793E+02  0.13123146499E+02 -0.78516641103E+01  0.43332896354E+02  0.00000000000E+00 0. -1.
</event>
<event>
 7    1  0.2569312E-015  0.9000783E+02  0.7816164E-02  0.1186339E+00
        -11   -1    0    0    0    0  0.00000000000E+00  0.00000000000E+00  0.45593999997E+02  0.45594000000E+02  0.51100000000E-03 0. -1.
         11   -1    0    0    0    0 -0.00000000000E+00 -0.00000000000E+00 -0.45593999997E+02  0.45594000000E+02  0.51100000000E-03 0.  1.
    9900012    2    1    2    0    0  0.26618326467E+00  0.71802644456E+00 -0.89799153182E+00  0.90007828700E+02  0.90000091239E+02 0.  0.
         12    1    1    2    0    0 -0.26618326467E+00 -0.71802644456E+00  0.89799153182E+00  0.11801712997E+01  0.00000000000E+00 0. -1.
         11    1    3    3    0    0  0.66916027063E+01  0.39671967620E+02 -0.10959349078E+02  0.41698320039E+02  0.51100000000E-03 0. -1.
        -11    1    3    3    0    0  0.89292834455E+01 -0.60957375984E+01  0.40533677599E+01  0.11546424129E+02  0.51100000000E-03 0.  1.
        -12    1    3    3    0    0 -0.15354702887E+02 -0.32858203577E+02  0.60079897864E+01  0.36763084532E+02  0.00000000000E+00 0.  1.
</event>
<event>
 7    1  0.2569312E-015  0.9000763E+02  0.7816164E-02  0.1186339E+00
        -11   -1    0    0    0    0  0.00000000000E+00  0.00000000000E+00  0.45593999997E+02  0.45594000000E+02  0.51100000000E-03 0.  1.
         11   -1    0    0    0    0 -0.00000000000E+00 -0.00000000000E+00 -0.45593999997E+02  0.45594000000E+02  0.51100000000E-03 0. -1.
    9900012    2    1    2    0    0 -0.10416070522E+01 -0.36751819821E+00  0.41625024375E+00  0.90007627541E+02  0.89999887424E+02 0.  0.
         12    1    1    2    0    0  0.10416070522E+01  0.36751819821E+00 -0.41625024375E+00  0.11803724593E+01  0.00000000000E+00 0. -1.
         11    1    3    3    0    0  0.10289802171E+02  0.24882859077E+01 -0.53595588591E+01  0.11865768703E+02  0.51100000000E-03 0. -1.
        -11    1    3    3    0    0 -0.18064728491E+02  0.31387430700E+02 -0.13043562327E+02  0.38492073727E+02  0.51100000000E-03 0.  1.
         12    1    3    3    0    0  0.67333192670E+01 -0.34243234806E+02  0.18819371430E+02  0.39649785111E+02  0.00000000000E+00 0. -1.
</event>
<event>
 7    1  0.2569312E-015  0.9000774E+02  0.7816164E-02  0.1186339E+00
        -11   -1    0    0    0    0  0.00000000000E+00  0.00000000000E+00  0.45593999997E+02  0.45594000000E+02  0.51100000000E-03 0. -1.
         11   -1    0    0    0    0 -0.00000000000E+00 -0.00000000000E+00 -0.45593999997E+02  0.45594000000E+02  0.51100000000E-03 0.  1.
    9900012    2    1    2    0    0  0.43325198298E+00  0.31719807435E-01 -0.10974097570E+01  0.90007736639E+02  0.89999997963E+02 0.  0.
         12    1    1    2    0    0 -0.43325198298E+00 -0.31719807435E-01  0.10974097570E+01  0.11802633611E+01  0.00000000000E+00 0. -1.
         11    1    3    3    0    0  0.76576570567E+01  0.10327489195E+01 -0.57282919120E+01  0.96187114740E+01  0.51100000000E-03 0. -1.
        -11    1    3    3    0    0 -0.25836339271E+02  0.14390768652E+02 -0.27371034370E+02  0.40296205430E+02  0.51100000000E-03 0.  1.
         12    1    3    3    0    0  0.18611934197E+02 -0.15391797764E+02  0.32001916525E+02  0.40092819735E+02  0.00000000000E+00 0. -1.
</event>
<event>
 7    1  0.2569312E-015  0.9000736E+02  0.7816164E-02  0.1186340E+00
        -11   -1    0    0    0    0  0.00000000000E+00  0.00000000000E+00  0.45593999997E+02  0.45594000000E+02  0.51100000000E-03 0. -1.
         11   -1    0    0    0    0 -0.00000000000E+00 -0.00000000000E+00 -0.45593999997E+02  0.45594000000E+02  0.51100000000E-03 0.  1.
    9900012    2    1    2    0    0  0.85417066908E+00  0.27645453561E+00 -0.76672698057E+00  0.90007362501E+02  0.89999618885E+02 0.  0.
         12    1    1    2    0    0 -0.85417066908E+00 -0.27645453561E+00  0.76672698057E+00  0.11806374994E+01  0.00000000000E+00 0. -1.
         11    1    3    3    0    0 -0.21307947759E+02  0.26749340415E+02 -0.16972126197E+01  0.34240858360E+02  0.51100000000E-03 0. -1.
        -11    1    3    3    0    0 -0.53746696167E+01  0.90713283532E+01 -0.19030605922E+01  0.10714369392E+02  0.51100000000E-03 0.  1.
        -12    1    3    3    0    0  0.27536788044E+02 -0.35544214232E+02  0.28335462314E+01  0.45052134749E+02  0.00000000000E+00 0.  1.
</event>
<event>
 7    1  0.2569312E-015  0.9000791E+02  0.7816164E-02  0.1186339E+00
        -11   -1    0    0    0    0  0.00000000000E+00  0.00000000000E+00  0.45593999997E+02  0.45594000000E+02  0.51100000000E-03 0.  1.
         11   -1    0    0    0    0 -0.00000000000E+00 -0.00000000000E+00 -0.45593999997E+02  0.45594000000E+02  0.51100000000E-03 0. -1.
    9900012    2    1    2    0    0 -0.29084255266E+00 -0.40181243694E+00  0.10707753043E+01  0.90007914250E+02  0.90000177918E+02 0.  0.
         12    1    1    2    0    0  0.29084255266E+00  0.40181243694E+00 -0.10707753043E+01  0.11800857499E+01  0.00000000000E+00 0. -1.
         11    1    3    3    0    0  0.53502321258E+01  0.80954636286E+00 -0.69294053368E+01  0.87918716833E+01  0.51100000000E-03 0. -1.
        -11    1    3    3    0    0 -0.43720912427E+01  0.25446334994E+02  0.34841227824E+02  0.43365219970E+02  0.51100000000E-03 0.  1.
         12    1    3    3    0    0 -0.12689834358E+01 -0.26657693794E+02 -0.26841047183E+02  0.37850822597E+02  0.00000000000E+00 0. -1.
</event>
<event>
 7    1  0.2569312E-015  0.9000774E+02  0.7816164E-02  0.1186339E+00
        -11   -1    0    0    0    0  0.00000000000E+00  0.00000000000E+00  0.45593999997E+02  0.45594000000E+02  0.51100000000E-03 0. -1.
         11   -1    0    0    0    0 -0.00000000000E+00 -0.00000000000E+00 -0.45593999997E+02  0.45594000000E+02  0.51100000000E-03 0.  1.
    9900012    2    1    2    0    0 -0.88255841628E+00  0.33810821951E+00 -0.70695849018E+00  0.90007738659E+02  0.90000000009E+02 0.  0.
         12    1    1    2    0    0  0.88255841628E+00 -0.33810821951E+00  0.70695849018E+00  0.11802613410E+01  0.00000000000E+00 0. -1.
         11    1    3    3    0    0 -0.17511590719E+01  0.34021350224E+02  0.25120976484E+02  0.42327086941E+02  0.51100000000E-03 0. -1.
        -11    1    3    3    0    0  0.54506338116E+01  0.59009768966E+00 -0.40441486774E+01  0.68126913197E+01  0.51100000000E-03 0.  1.
        -12    1    3    3    0    0 -0.45820331560E+01 -0.34273339695E+02 -0.21783786297E+02  0.40867960398E+02  0.00000000000E+00 0.  1.
</event>
<event>
 7    1  0.2569312E-015  0.9000782E+02  0.7816164E-02  0.1186339E+00
        -11   -1    0    0    0    0  0.00000000000E+00  0.00000000000E+00  0.45593999997E+02  0.45594000000E+02  0.51100000000E-03 0. -1.
         11   -1    0    0    0    0 -0.00000000000E+00 -0.00000000000E+00 -0.45593999997E+02  0.45594000000E+02  0.51100000000E-03 0.  1.
    9900012    2    1    2    0    0  0.55293625067E+00  0.97772701827E+00 -0.36212344864E+00  0.90007821195E+02  0.90000083635E+02 0.  0.
         12    1    1    2    0    0 -0.55293625067E+00 -0.97772701827E+00  0.36212344864E+00  0.11801788049E+01  0.00000000000E+00 0. -1.
         11    1    3    3    0    0  0.69693174998E+01  0.35279304940E+02 -0.22759394065E+02  0.42558086916E+02  0.51100000000E-03 0. -1.
        -11    1    3    3    0    0 -0.88818956302E+01 -0.31912130121E+01  0.74708238686E+00  0.94673144465E+01  0.51100000000E-03 0.  1.
        -12    1    3    3    0    0  0.24655143811E+01 -0.31110364910E+02  0.21650188229E+02  0.37982419833E+02  0.00000000000E+00 0.  1.
</event>
<event>
 7    1  0.2569312E-015  0.9000763E+02  0.7816164E-02  0.1186339E+00
        -11   -1    0    0    0    0  0.00000000000E+00  0.00000000000E+00  0.45593999997E+02  0.45594000000E+02  0.51100000000E-03 0. -1.
         11   -1    0    0    0    0 -0.00000000000E+00 -0.00000000000E+00 -0.45593999997E+02  0.45594000000E+02  0.51100000000E-03 0.  1.
    9900012    2    1    2    0    0  0.54237294579E-01 -0.85392020487E+00 -0.81311414376E+00  0.90007628867E+02  0.89999888768E+02 0.  0.
         12    1    1    2    0    0 -0.54237294579E-01  0.85392020487E+00  0.81311414376E+00  0.11803711328E+01  0.00000000000E+00 0. -1.
         11    1    3    3    0    0  0.55529538317E+01  0.24375762710E+01 -0.60636332165E+01  0.85758219652E+01  0.51100000000E-03 0. -1.
        -11    1    3    3    0    0  0.65754801517E+00  0.19109688871E+02 -0.32148200813E+02  0.37404804423E+02  0.51100000000E-03 0.  1.
         12    1    3    3    0    0 -0.61562645523E+01 -0.22401185347E+02  0.37398719886E+02  0.44027002479E+02  0.00000000000E+00 0. -1.
</event>
<event>
 7    1  0.2569312E-015  0.9000783E+02  0.7816164E-02  0.1186339E+00
        -11   -1    0    0    0    0  0.00000000000E+00  0.00000000000E+00  0.45593999997E+02  0.45594000000E+02  0.51100000000E-03 0.  1.
         11   -1    0    0    0    0 -0.00000000000E+00 -0.00000000000E+00 -0.45593999997E+02  0.45594000000E+02  0.51100000000E-03 0. -1.
    9900012    2    1    2    0    0 -0.11573139831E+01 -0.22938570862E+00 -0.28314938111E-01  0.90007832557E+02  0.90000095146E+02 0.  0.
         12    1    1    2    0    0  0.11573139831E+01  0.22938570862E+00  0.28314938111E-01  0.11801674434E+01  0.00000000000E+00 0. -1.
         11    1    3    3    0    0  0.67343678115E+01  0.30508948426E+01 -0.69018791210E+01  0.10114128970E+02  0.51100000000E-03 0. -1.
        -11    1    3    3    0    0 -0.12592701545E+02 -0.34651968936E+02 -0.16597359890E+02  0.40432752057E+02  0.51100000000E-03 0.  1.
         12    1    3    3    0    0  0.47010197502E+01  0.31371688385E+02  0.23470924073E+02  0.39460951530E+02  0.00000000000E+00 0. -1.
</event>
<event>
 7    1  0.2569312E-015  0.9000774E+02  0.7816164E-02  0.1186339E+00
        -11   -1    0    0    0    0  0.00000000000E+00  0.00000000000E+00  0.45593999997E+02  0.45594000000E+02  0.51100000000E-03 0.  1.
         11   -1    0    0    0    0 -0.00000000000E+00 -0.00000000000E+00 -0.45593999997E+02  0.45594000000E+02  0.51100000000E-03 0. -1.
    9900012    2    1    2    0    0 -0.10046825049E+01  0.30466905900E+00 -0.53925975524E+00  0.90007741022E+02  0.90000002404E+02 0.  0.
         12    1    1    2    0    0  0.10046825049E+01 -0.30466905900E+00  0.53925975524E+00  0.11802589778E+01  0.00000000000E+00 0. -1.
         11    1    3    3    0    0 -0.43860864744E-01  0.44769917704E+01 -0.76107254631E+01  0.88299785630E+01  0.51100000000E-03 0. -1.
        -11    1    3    3    0    0 -0.25584148404E+02  0.28898304437E+02  0.99142501123E+01  0.39849128026E+02  0.51100000000E-03 0.  1.
         12    1    3    3    0    0  0.24623326764E+02 -0.33070627149E+02 -0.28427844045E+01  0.41328634433E+02  0.00000000000E+00 0. -1.
</event>
<event>
 7    1  0.2569312E-015  0.9000778E+02  0.7816164E-02  0.1186339E+00
        -11   -1    0    0    0    0  0.00000000000E+00  0.00000000000E+00  0.45593999997E+02  0.45594000000E+02  0.51100000000E-03 0.  1.
         11   -1    0    0    0    0 -0.00000000000E+00 -0.00000000000E+00 -0.45593999997E+02  0.45594000000E+02  0.51100000000E-03 0. -1.
    9900012    2    1    2    0    0 -0.97470199307E+00  0.12936641076E-01 -0.66535751574E+00  0.90007783090E+02  0.90000045026E+02 0.  0.
         12    1    1    2    0    0  0.97470199307E+00 -0.12936641076E-01  0.66535751574E+00  0.11802169105E+01  0.00000000000E+00 0. -1.
         11    1    3    3    0    0 -0.64120128443E+01  0.37906555943E+01  0.72901668352E+01  0.10422548215E+02  0.51100000000E-03 0. -1.
        -11    1    3    3    0    0  0.21555261182E+02  0.30216471076E+02  0.91947557799E+01  0.38238827689E+02  0.51100000000E-03 0.  1.
         12    1    3    3    0    0 -0.16117950331E+02 -0.33994190029E+02 -0.17150280131E+02  0.41346407186E+02  0.00000000000E+00 0. -1.
</event>
<event>
 7    1  0.2569312E-015  0.9000773E+02  0.7816164E-02  0.1186339E+00
        -11   -1    0    0    0    0  0.00000000000E+00  0.00000000000E+00  0.45593999997E+02  0.45594000000E+02  0.51100000000E-03 0. -1.
         11   -1    0    0    0    0 -0.00000000000E+00 -0.00000000000E+00 -0.45593999997E+02  0.45594000000E+02  0.51100000000E-03 0.  1.
    9900012    2    1    2    0    0  0.41382138891E+00 -0.10716266071E+01 -0.27093727551E+00  0.90007729381E+02  0.89999990609E+02 0.  0.
         12    1    1    2    0    0 -0.41382138891E+00  0.10716266071E+01  0.27093727551E+00  0.11802706191E+01  0.00000000000E+00 0. -1.
         11    1    3    3    0    0  0.97271522880E+01  0.25268031711E+02  0.23294807682E+02  0.35717488481E+02  0.51100000000E-03 0. -1.
        -11    1    3    3    0    0  0.37706141644E+01  0.46092390472E+01  0.67734129930E+01  0.90189655507E+01  0.51100000000E-03 0.  1.
        -12    1    3    3    0    0 -0.13083945063E+02 -0.30948897365E+02 -0.30339157951E+02  0.45271275349E+02  0.00000000000E+00 0.  1.
</event>
<event>
 7    1  0.2569312E-015  0.9000778E+02  0.7816164E-02  0.1186339E+00
        -11   -1    0    0    0    0  0.00000000000E+00  0.00000000000E+00  0.45593999997E+02  0.45594000000E+02  0.51100000000E-03 0. -1.
         11   -1    0    0    0    0 -0.00000000000E+00 -0.00000000000E+00 -0.45593999997E+02  0.45594000000E+02  0.51100000000E-03 0.  1.
    9900012    2    1    2    0    0  0.84353347599E+00 -0.54740630121E+00 -0.61782359109E+00  0.90007784607E+02  0.90000046564E+02 0.  0.
         12    1    1    2    0    0 -0.84353347599E+00  0.54740630121E+00  0.61782359109E+00  0.11802153928E+01  0.00000000000E+00 0. -1.
         11    1    3    3    0    0 -0.24437874792E+02 -0.25159787797E+02  0.13386715970E+02  0.37542360222E+02  0.51100000000E-03 0. -1.
        -11    1    3    3    0    0 -0.83511831498E+01 -0.64178114952E+00 -0.96136972557E+00  0.84307991944E+01  0.51100000000E-03 0.  1.
        -12    1    3    3    0    0  0.33632591417E+02  0.25254162645E+02 -0.13043169836E+02  0.44034625191E+02  0.00000000000E+00 0.  1.
</event>
<event>
 7    1  0.2913028E-015  0.9000775E+02  0.7816164E-02  0.1186339E+00
        -11   -1    0    0    0    0  0.00000000000E+00  0.00000000000E+00  0.45593999997E+02  0.45594000000E+02  0.51100000000E-03 0.  1.
         11   -1    0    0    0    0 -0.00000000000E+00 -0.00000000000E+00 -0.45593999997E+02  0.45594000000E+02  0.51100000000E-03 0. -1.
    9900012    2    1    2    0    0  0.63703363973E+00 -0.76255937595E+00  0.63692782337E+00  0.90007751843E+02  0.90000013367E+02 0.  0.
         12    1    1    2    0    0 -0.63703363973E+00  0.76255937595E+00 -0.63692782337E+00  0.11802481570E+01  0.00000000000E+00 0. -1.
         11    1    3    3    0    0  0.39167135772E+02  0.63186134468E+01 -0.60028800340E+01  0.40125103981E+02  0.51100000000E-03 0. -1.
        -11    1    3    3    0    0 -0.10063094921E+00 -0.88933147793E+01 -0.43091355031E+01  0.98828044298E+01  0.51100000000E-03 0.  1.
        -12    1    3    3    0    0 -0.38429471183E+02  0.18121419566E+01  0.10948943361E+02  0.39999843432E+02  0.00000000000E+00 0.  1.
</event>
<event>
 7    1  0.2569312E-015  0.9000783E+02  0.7816164E-02  0.1186339E+00
        -11   -1    0    0    0    0  0.00000000000E+00  0.00000000000E+00  0.45593999997E+02  0.45594000000E+02  0.51100000000E-03 0.  1.
         11   -1    0    0    0    0 -0.00000000000E+00 -0.00000000000E+00 -0.45593999997E+02  0.45594000000E+02  0.51100000000E-03 0. -1.
    9900012    2    1    2    0    0  0.32240485782E+00 -0.82441109087E+00  0.78050688161E+00  0.90007834956E+02  0.90000097577E+02 0.  0.
         12    1    1    2    0    0 -0.32240485782E+00  0.82441109087E+00 -0.78050688161E+00  0.11801650441E+01  0.00000000000E+00 0. -1.
         11    1    3    3    0    0 -0.95754965459E+01  0.10591523890E+01 -0.47024536782E+01  0.10720308239E+02  0.51100000000E-03 0. -1.
        -11    1    3    3    0    0 -0.22187814550E+02  0.40431026335E+01  0.30669244067E+02  0.38068994278E+02  0.51100000000E-03 0.  1.
         12    1    3    3    0    0  0.32085715954E+02 -0.59266661134E+01 -0.25186283508E+02  0.41218532439E+02  0.00000000000E+00 0. -1.
</event>
<event>
 7    1  0.2569312E-015  0.9000773E+02  0.7816164E-02  0.1186339E+00
        -11   -1    0    0    0    0  0.00000000000E+00  0.00000000000E+00  0.45593999997E+02  0.45594000000E+02  0.51100000000E-03 0.  1.
         11   -1    0    0    0    0 -0.00000000000E+00 -0.00000000000E+00 -0.45593999997E+02  0.45594000000E+02  0.51100000000E-03 0. -1.
    9900012    2    1    2    0    0 -0.64356261046E+00  0.22431010567E+00  0.96360962747E+00  0.90007732500E+02  0.89999993769E+02 0.  0.
         12    1    1    2    0    0  0.64356261046E+00 -0.22431010567E+00 -0.96360962747E+00  0.11802674999E+01  0.00000000000E+00 0. -1.
         11    1    3    3    0    0 -0.17758318053E+02  0.74806747397E+01 -0.31015033562E+02  0.36513705122E+02  0.51100000000E-03 0. -1.
        -11    1    3    3    0    0 -0.33387145099E+01 -0.31006430691E+01 -0.75357717295E+01  0.88061829325E+01  0.51100000000E-03 0.  1.
        -12    1    3    3    0    0  0.20453469952E+02 -0.41557215650E+01  0.39514414919E+02  0.44687844446E+02  0.00000000000E+00 0.  1.
</event>
<event>
 7    1  0.2569312E-015  0.9000777E+02  0.7816164E-02  0.1186339E+00
        -11   -1    0    0    0    0  0.00000000000E+00  0.00000000000E+00  0.45593999997E+02  0.45594000000E+02  0.51100000000E-03 0.  1.
         11   -1    0    0    0    0 -0.00000000000E+00 -0.00000000000E+00 -0.45593999997E+02  0.45594000000E+02  0.51100000000E-03 0. -1.
    9900012    2    1    2    0    0 -0.81836843376E+00 -0.64125426539E+00  0.55857328706E+00  0.90007772038E+02  0.90000033828E+02 0.  0.
         12    1    1    2    0    0  0.81836843376E+00  0.64125426539E+00 -0.55857328706E+00  0.11802279624E+01  0.00000000000E+00 0. -1.
         11    1    3    3    0    0 -0.17146074298E+02  0.26937939799E+02 -0.15285154764E+02  0.35401644324E+02  0.51100000000E-03 0. -1.
        -11    1    3    3    0    0 -0.33490998930E+01  0.80614127829E+01 -0.36578103925E+01  0.94647991674E+01  0.51100000000E-03 0.  1.
        -12    1    3    3    0    0  0.19676805757E+02 -0.35640606847E+02  0.19501538444E+02  0.45141328546E+02  0.00000000000E+00 0.  1.
</event>
<event>
 7    1  0.2569312E-015  0.9000777E+02  0.7816164E-02  0.1186339E+00
        -11   -1    0    0    0    0  0.00000000000E+00  0.00000000000E+00  0.45593999997E+02  0.45594000000E+02  0.51100000000E-03 0.  1.
         11   -1    0    0    0    0 -0.00000000000E+00 -0.00000000000E+00 -0.45593999997E+02  0.45594000000E+02  0.51100000000E-03 0. -1.
    9900012    2    1    2    0    0  0.34300884669E+00 -0.97511831863E+00  0.56959890710E+00  0.90007765397E+02  0.90000027100E+02 0.  0.
         12    1    1    2    0    0 -0.34300884669E+00  0.97511831863E+00 -0.56959890710E+00  0.11802346035E+01  0.00000000000E+00 0. -1.
         11    1    3    3    0    0 -0.15000724148E+02  0.34476294873E+02  0.17151106860E+02  0.41325501811E+02  0.51100000000E-03 0. -1.
        -11    1    3    3    0    0  0.63063602246E+01  0.12095021179E+01 -0.74498928796E+01  0.98353433511E+01  0.51100000000E-03 0.  1.
        -12    1    3    3    0    0  0.90373727697E+01 -0.36660915309E+02 -0.91316150735E+01  0.38846920235E+02  0.00000000000E+00 0.  1.
</event>
<event>
 7    1  0.2569312E-015  0.9000709E+02  0.7816164E-02  0.1186340E+00
        -11   -1    0    0    0    0  0.00000000000E+00  0.00000000000E+00  0.45593999997E+02  0.45594000000E+02  0.51100000000E-03 0. -1.
         11   -1    0    0    0    0 -0.00000000000E+00 -0.00000000000E+00 -0.45593999997E+02  0.45594000000E+02  0.51100000000E-03 0.  1.
    9900012    2    1    2    0    0 -0.63165991997E+00  0.28681287417E+00 -0.95565801487E+00  0.90007094364E+02  0.89999347207E+02 0.  0.
         12    1    1    2    0    0  0.63165991997E+00 -0.28681287417E+00  0.95565801487E+00  0.11809056358E+01  0.00000000000E+00 0. -1.
         11    1    3    3    0    0  0.62152845864E-01 -0.91047997496E+01  0.40375654464E+01  0.99600791388E+01  0.51100000000E-03 0. -1.
        -11    1    3    3    0    0  0.38065990623E+02 -0.51663412944E+01 -0.41076254190E+01  0.38633965773E+02  0.51100000000E-03 0.  1.
         12    1    3    3    0    0 -0.38759803389E+02  0.14557953918E+02 -0.88559804220E+00  0.41413049452E+02  0.00000000000E+00 0. -1.
</event>
<event>
 7    1  0.2569312E-015  0.9000775E+02  0.7816164E-02  0.1186339E+00
        -11   -1    0    0    0    0  0.00000000000E+00  0.00000000000E+00  0.45593999997E+02  0.45594000000E+02  0.51100000000E-03 0. -1.
         11   -1    0    0    0    0 -0.00000000000E+00 -0.00000000000E+00 -0.45593999997E+02  0.45594000000E+02  0.51100000000E-03 0.  1.
    9900012    2    1    2    0    0 -0.86299704246E+00  0.44354620165E+00 -0.67193484051E+00  0.90007748519E+02  0.90000010000E+02 0.  0.
         12    1    1    2    0    0  0.86299704246E+00 -0.44354620165E+00  0.67193484051E+00  0.11802514809E+01  0.00000000000E+00 0. -1.
         11    1    3    3    0    0  0.12167294170E+02 -0.27654955186E+02 -0.20075202855E+02  0.36274693158E+02  0.51100000000E-03 0. -1.
        -11    1    3    3    0    0 -0.17381296140E+01 -0.10105812119E+02  0.34443404477E+01  0.10817209183E+02  0.51100000000E-03 0.  1.
        -12    1    3    3    0    0 -0.11292161598E+02  0.38204313506E+02  0.15958927567E+02  0.42915846178E+02  0.00000000000E+00 0.  1.
</event>
<event>
 7    1  0.2569312E-015  0.9000770E+02  0.7816164E-02  0.1186339E+00
        -11   -1    0    0    0    0  0.00000000000E+00  0.00000000000E+00  0.45593999997E+02  0.45594000000E+02  0.51100000000E-03 0. -1.
         11   -1    0    0    0    0 -0.00000000000E+00 -0.00000000000E+00 -0.45593999997E+02  0.45594000000E+02  0.51100000000E-03 0.  1.
    9900012    2    1    2    0    0 -0.34376121468E+00  0.40860961569E+00 -0.10526057699E+01  0.90007698133E+02  0.89999958948E+02 0.  0.
         12    1    1    2    0    0  0.34376121468E+00 -0.40860961569E+00  0.10526057699E+01  0.11803018671E+01  0.00000000000E+00 0. -1.
         11    1    3    3    0    0 -0.32697428033E+01 -0.56230818540E+01  0.30405791409E+01  0.71802081662E+01  0.51100000000E-03 0. -1.
        -11    1    3    3    0    0 -0.20938975721E+02 -0.30310931468E+02  0.80008903632E+01  0.37698906053E+02  0.51100000000E-03 0.  1.
         12    1    3    3    0    0  0.23864957310E+02  0.36342622937E+02 -0.12094075274E+02  0.45128583914E+02  0.00000000000E+00 0. -1.
</event>
<event>
 7    1  0.2569312E-015  0.9000784E+02  0.7816164E-02  0.1186339E+00
        -11   -1    0    0    0    0  0.00000000000E+00  0.00000000000E+00  0.45593999997E+02  0.45594000000E+02  0.51100000000E-03 0.  1.
         11   -1    0    0    0    0 -0.00000000000E+00 -0.00000000000E+00 -0.45593999997E+02  0.45594000000E+02  0.51100000000E-03 0. -1.
    9900012    2    1    2    0    0  0.11493331333E+00  0.10180232700E+01 -0.58582199104E+00  0.90007843887E+02  0.90000106627E+02 0.  0.
         12    1    1    2    0    0 -0.11493331333E+00 -0.10180232700E+01  0.58582199104E+00  0.11801561126E+01  0.00000000000E+00 0. -1.
         11    1    3    3    0    0  0.59828946317E+01  0.41405346874E+00  0.66785197427E+01  0.89760288916E+01  0.51100000000E-03 0. -1.
        -11    1    3    3    0    0 -0.33448737494E+02  0.22263587375E+02  0.10767694573E+02  0.41598420756E+02  0.51100000000E-03 0.  1.
         12    1    3    3    0    0  0.27580776176E+02 -0.21659617573E+02 -0.18032036307E+02  0.39433394240E+02  0.00000000000E+00 0. -1.
</event>
<event>
 7    1  0.2569312E-015  0.9000777E+02  0.7816164E-02  0.1186339E+00
        -11   -1    0    0    0    0  0.00000000000E+00  0.00000000000E+00  0.45593999997E+02  0.45594000000E+02  0.51100000000E-03 0.  1.
         11   -1    0    0    0    0 -0.00000000000E+00 -0.00000000000E+00 -0.45593999997E+02  0.45594000000E+02  0.51100000000E-03 0. -1.
    9900012    2    1    2    0    0 -0.36803618689E-01  0.66471365493E+00  0.97455142929E+00  0.90007767295E+02  0.90000029023E+02 0.  0.
         12    1    1    2    0    0  0.36803618689E-01 -0.66471365493E+00 -0.97455142929E+00  0.11802327049E+01  0.00000000000E+00 0. -1.
         11    1    3    3    0    0 -0.15020949170E+02  0.14093184449E+02 -0.32356439092E+02  0.38356041413E+02  0.51100000000E-03 0. -1.
        -11    1    3    3    0    0 -0.10062217206E+02 -0.51379649873E+00  0.36292317177E+01  0.10709039409E+02  0.51100000000E-03 0.  1.
        -12    1    3    3    0    0  0.25046362758E+02 -0.12914674296E+02  0.29701758804E+02  0.40942686473E+02  0.00000000000E+00 0.  1.
</event>
<event>
 7    1  0.2569312E-015  0.9000770E+02  0.7816164E-02  0.1186339E+00
        -11   -1    0    0    0    0  0.00000000000E+00  0.00000000000E+00  0.45593999997E+02  0.45594000000E+02  0.51100000000E-03 0. -1.
         11   -1    0    0    0    0 -0.00000000000E+00 -0.00000000000E+00 -0.45593999997E+02  0.45594000000E+02  0.51100000000E-03 0.  1.
    9900012    2    1    2    0    0 -0.82422180569E-02 -0.75231862253E+00 -0.90942277569E+00  0.90007702991E+02  0.89999963871E+02 0.  0.
         12    1    1    2    0    0  0.82422180569E-02  0.75231862253E+00  0.90942277569E+00  0.11802970088E+01  0.00000000000E+00 0. -1.
         11    1    3    3    0    0  0.40662615458E+02  0.13796140812E+02 -0.48806497738E+01  0.43215767258E+02  0.51100000000E-03 0. -1.
        -11    1    3    3    0    0 -0.63399191612E+01 -0.73613924813E+01 -0.45023489842E+01  0.10707745835E+02  0.51100000000E-03 0.  1.
        -12    1    3    3    0    0 -0.34330938515E+02 -0.71870669531E+01  0.84735759822E+01  0.36084189898E+02  0.00000000000E+00 0.  1.
</event>
<event>
 7    1  0.2569312E-015  0.9000793E+02  0.7816164E-02  0.1186339E+00
        -11   -1    0    0    0    0  0.00000000000E+00  0.00000000000E+00  0.45593999997E+02  0.45594000000E+02  0.51100000000E-03 0. -1.
         11   -1    0    0    0    0 -0.00000000000E+00 -0.00000000000E+00 -0.45593999997E+02  0.45594000000E+02  0.51100000000E-03 0.  1.
    9900012    2    1    2    0    0  0.24849393734E+00  0.31369415570E+00 -0.11101450058E+01  0.90007925768E+02  0.90000189587E+02 0.  0.
         12    1    1    2    0    0 -0.24849393734E+00 -0.31369415570E+00  0.11101450058E+01  0.11800742325E+01  0.00000000000E+00 0. -1.
         11    1    3    3    0    0 -0.16676210805E+01 -0.87589094289E+00  0.90673424942E+01  0.92609311185E+01  0.51100000000E-03 0. -1.
        -11    1    3    3    0    0 -0.19165220980E+02 -0.14975898411E+02  0.26169077852E+02  0.35726794767E+02  0.51100000000E-03 0.  1.
         12    1    3    3    0    0  0.21081335997E+02  0.16165483510E+02 -0.36346565352E+02  0.45020199882E+02  0.00000000000E+00 0. -1.
</event>
<event>
 7    1  0.2569312E-015  0.9000789E+02  0.7816164E-02  0.1186339E+00
        -11   -1    0    0    0    0  0.00000000000E+00  0.00000000000E+00  0.45593999997E+02  0.45594000000E+02  0.51100000000E-03 0. -1.
         11   -1    0    0    0    0 -0.00000000000E+00 -0.00000000000E+00 -0.45593999997E+02  0.45594000000E+02  0.51100000000E-03 0.  1.
    9900012    2    1    2    0    0  0.12482760724E+00  0.11691375765E+01 -0.10100199638E+00  0.90007887290E+02  0.90000150602E+02 0.  0.
         12    1    1    2    0    0 -0.12482760724E+00 -0.11691375765E+01  0.10100199638E+00  0.11801127097E+01  0.00000000000E+00 0. -1.
         11    1    3    3    0    0  0.42294321799E+01  0.23045884358E+01 -0.84852280289E+01  0.97569626107E+01  0.51100000000E-03 0. -1.
        -11    1    3    3    0    0 -0.15611428727E+02  0.28979522972E+02 -0.18951898170E+02  0.37982942265E+02  0.51100000000E-03 0.  1.
         12    1    3    3    0    0  0.11506824154E+02 -0.30114973831E+02  0.27336124203E+02  0.42267982415E+02  0.00000000000E+00 0. -1.
</event>
<event>
 7    1  0.2569312E-015  0.9000767E+02  0.7816164E-02  0.1186339E+00
        -11   -1    0    0    0    0  0.00000000000E+00  0.00000000000E+00  0.45593999997E+02  0.45594000000E+02  0.51100000000E-03 0.  1.
         11   -1    0    0    0    0 -0.00000000000E+00 -0.00000000000E+00 -0.45593999997E+02  0.45594000000E+02  0.51100000000E-03 0. -1.
    9900012    2    1    2    0    0 -0.63081405511E+00  0.66094242062E-01  0.99542741856E+00  0.90007673534E+02  0.89999934025E+02 0.  0.
         12    1    1    2    0    0  0.63081405511E+00 -0.66094242062E-01 -0.99542741856E+00  0.11803264661E+01  0.00000000000E+00 0. -1.
         11    1    3    3    0    0  0.36220121387E+01 -0.17824606134E+01  0.87301174040E+01  0.96182684471E+01  0.51100000000E-03 0. -1.
        -11    1    3    3    0    0  0.21785092793E+02  0.21745631766E+02  0.20624891607E+02  0.37051975966E+02  0.51100000000E-03 0.  1.
         12    1    3    3    0    0 -0.26037918987E+02 -0.19897076911E+02 -0.28359581592E+02  0.43337429121E+02  0.00000000000E+00 0. -1.
</event>
<event>
 7    1  0.2569312E-015  0.9000777E+02  0.7816164E-02  0.1186339E+00
        -11   -1    0    0    0    0  0.00000000000E+00  0.00000000000E+00  0.45593999997E+02  0.45594000000E+02  0.51100000000E-03 0. -1.
         11   -1    0    0    0    0 -0.00000000000E+00 -0.00000000000E+00 -0.45593999997E+02  0.45594000000E+02  0.51100000000E-03 0.  1.
    9900012    2    1    2    0    0 -0.10429969207E+01 -0.38488894865E-01 -0.55101062363E+00  0.90007772616E+02  0.90000034414E+02 0.  0.
         12    1    1    2    0    0  0.10429969207E+01  0.38488894865E-01  0.55101062363E+00  0.11802273844E+01  0.00000000000E+00 0. -1.
         11    1    3    3    0    0  0.89596373935E+01  0.36159150270E+02 -0.99788829554E+01  0.38566012962E+02  0.51100000000E-03 0. -1.
        -11    1    3    3    0    0  0.80079696540E+00 -0.16623954689E+00 -0.93592919909E+01  0.93949591909E+01  0.51100000000E-03 0.  1.
        -12    1    3    3    0    0 -0.10803431280E+02 -0.36031399618E+02  0.18787164323E+02  0.42046800463E+02  0.00000000000E+00 0.  1.
</event>
<event>
 7    1  0.2569312E-015  0.9000771E+02  0.7816164E-02  0.1186339E+00
        -11   -1    0    0    0    0  0.00000000000E+00  0.00000000000E+00  0.45593999997E+02  0.45594000000E+02  0.51100000000E-03 0. -1.
         11   -1    0    0    0    0 -0.00000000000E+00 -0.00000000000E+00 -0.45593999997E+02  0.45594000000E+02  0.51100000000E-03 0.  1.
    9900012    2    1    2    0    0 -0.63904234021E+00 -0.90933135996E+00 -0.39728453932E+00  0.90007706121E+02  0.89999967042E+02 0.  0.
         12    1    1    2    0    0  0.63904234021E+00  0.90933135996E+00  0.39728453932E+00  0.11802938786E+01  0.00000000000E+00 0. -1.
         11    1    3    3    0    0 -0.28699286700E+02 -0.93514207867E+01 -0.19005173260E+02  0.35669240793E+02  0.51100000000E-03 0. -1.
        -11    1    3    3    0    0 -0.96770918420E+01 -0.50912342100E+01  0.32576594443E+01  0.11409606374E+02  0.51100000000E-03 0.  1.
        -12    1    3    3    0    0  0.37737336202E+02  0.13533323637E+02  0.15350229277E+02  0.42928858954E+02  0.00000000000E+00 0.  1.
</event>
<event>
 7    1  0.2569312E-015  0.9000768E+02  0.7816164E-02  0.1186339E+00
        -11   -1    0    0    0    0  0.00000000000E+00  0.00000000000E+00  0.45593999997E+02  0.45594000000E+02  0.51100000000E-03 0. -1.
         11   -1    0    0    0    0 -0.00000000000E+00 -0.00000000000E+00 -0.45593999997E+02  0.45594000000E+02  0.51100000000E-03 0.  1.
    9900012    2    1    2    0    0 -0.41637092514E+00  0.51277974882E+00 -0.97819004165E+00  0.90007676495E+02  0.89999937025E+02 0.  0.
         12    1    1    2    0    0  0.41637092514E+00 -0.51277974882E+00  0.97819004165E+00  0.11803235047E+01  0.00000000000E+00 0. -1.
         11    1    3    3    0    0 -0.55517715118E+01  0.78190450670E+01  0.34946174022E+00  0.95959239497E+01  0.51100000000E-03 0. -1.
        -11    1    3    3    0    0 -0.25616854073E+02  0.23075197198E+02  0.96663524742E+01  0.35806791377E+02  0.51100000000E-03 0.  1.
         12    1    3    3    0    0  0.30752254660E+02 -0.30381462516E+02 -0.10994004256E+02  0.44604961168E+02  0.00000000000E+00 0. -1.
</event>
<event>
 7    1  0.2569312E-015  0.9000692E+02  0.7816164E-02  0.1186341E+00
        -11   -1    0    0    0    0  0.00000000000E+00  0.00000000000E+00  0.45593999997E+02  0.45594000000E+02  0.51100000000E-03 0.  1.
         11   -1    0    0    0    0 -0.00000000000E+00 -0.00000000000E+00 -0.45593999997E+02  0.45594000000E+02  0.51100000000E-03 0. -1.
    9900012    2    1    2    0    0 -0.45000895682E-01  0.33930622545E+00  0.11303979733E+01  0.90006918558E+02  0.89999169079E+02 0.  0.
         12    1    1    2    0    0  0.45000895682E-01 -0.33930622545E+00 -0.11303979733E+01  0.11810814423E+01  0.00000000000E+00 0. -1.
         11    1    3    3    0    0 -0.21770220753E+02 -0.27773562848E+02 -0.49527193018E+01  0.35634852794E+02  0.51100000000E-03 0. -1.
        -11    1    3    3    0    0 -0.30206129964E+01 -0.88480583236E+01 -0.70998421644E+00  0.93763701303E+01  0.51100000000E-03 0.  1.
        -12    1    3    3    0    0  0.24745832854E+02  0.36960927397E+02  0.67931014915E+01  0.44995695633E+02  0.00000000000E+00 0.  1.
</event>
<event>
 7    1  0.2569312E-015  0.9000772E+02  0.7816164E-02  0.1186339E+00
        -11   -1    0    0    0    0  0.00000000000E+00  0.00000000000E+00  0.45593999997E+02  0.45594000000E+02  0.51100000000E-03 0.  1.
         11   -1    0    0    0    0 -0.00000000000E+00 -0.00000000000E+00 -0.45593999997E+02  0.45594000000E+02  0.51100000000E-03 0. -1.
    9900012    2    1    2    0    0 -0.75113383268E-01  0.66932306947E+00 -0.96924546843E+00  0.90007715217E+02  0.89999976258E+02 0.  0.
         12    1    1    2    0    0  0.75113383268E-01 -0.66932306947E+00  0.96924546843E+00  0.11802847833E+01  0.00000000000E+00 0. -1.
         11    1    3    3    0    0  0.98644373992E+01 -0.10978213269E+02 -0.14545436456E+02  0.20721921092E+02  0.51100000000E-03 0. -1.
        -11    1    3    3    0    0  0.11267877619E+02 -0.18901531608E+02  0.22041462403E+02  0.31145770633E+02  0.51100000000E-03 0.  1.
         12    1    3    3    0    0 -0.21207428402E+02  0.30549067947E+02 -0.84652714153E+01  0.38140023492E+02  0.00000000000E+00 0. -1.
</event>
<event>
 7    1  0.2569312E-015  0.9000777E+02  0.7816164E-02  0.1186339E+00
        -11   -1    0    0    0    0  0.00000000000E+00  0.00000000000E+00  0.45593999997E+02  0.45594000000E+02  0.51100000000E-03 0. -1.
         11   -1    0    0    0    0 -0.00000000000E+00 -0.00000000000E+00 -0.45593999997E+02  0.45594000000E+02  0.51100000000E-03 0.  1.
    9900012    2    1    2    0    0 -0.25900618932E+00  0.11484957570E+01 -0.82572730188E-01  0.90007769105E+02  0.90000030857E+02 0.  0.
         12    1    1    2    0    0  0.25900618932E+00 -0.11484957570E+01  0.82572730188E-01  0.11802308951E+01  0.00000000000E+00 0. -1.
         11    1    3    3    0    0 -0.13227080203E+02  0.35291755752E+02  0.17582883079E+02  0.41588717850E+02  0.51100000000E-03 0. -1.
        -11    1    3    3    0    0  0.24458586082E+01 -0.48737508697E+01  0.68929128767E+01  0.87890795910E+01  0.51100000000E-03 0.  1.
        -12    1    3    3    0    0  0.10522215406E+02 -0.29269509126E+02 -0.24558368686E+02  0.39629971663E+02  0.00000000000E+00 0.  1.
</event>
<event>
 7    1  0.2569312E-015  0.9000780E+02  0.7816164E-02  0.1186339E+00
        -11   -1    0    0    0    0  0.00000000000E+00  0.00000000000E+00  0.45593999997E+02  0.45594000000E+02  0.51100000000E-03 0. -1.
         11   -1    0    0    0    0 -0.00000000000E+00 -0.00000000000E+00 -0.45593999997E+02  0.45594000000E+02  0.51100000000E-03 0.  1.
    9900012    2    1    2    0    0 -0.41441858283E+00 -0.24182491797E+00 -0.10782633231E+01  0.90007799235E+02  0.90000061384E+02 0.  0.
         12    1    1    2    0    0  0.41441858283E+00  0.24182491797E+00  0.10782633231E+01  0.11802007654E+01  0.00000000000E+00 0. -1.
         11    1    3    3    0    0 -0.16361909916E+01 -0.93616041166E+00 -0.12041117100E+02  0.12187781528E+02  0.51100000000E-03 0. -1.
        -11    1    3    3    0    0  0.79132753225E+01 -0.27298649093E+02 -0.20601555704E+02  0.35103564867E+02  0.51100000000E-03 0.  1.
         12    1    3    3    0    0 -0.66915029137E+01  0.27992984587E+02  0.31564409482E+02  0.42716452840E+02  0.00000000000E+00 0. -1.
</event>
<event>
 7    1  0.2569312E-015  0.9000796E+02  0.7816164E-02  0.1186339E+00
        -11   -1    0    0    0    0  0.00000000000E+00  0.00000000000E+00  0.45593999997E+02  0.45594000000E+02  0.51100000000E-03 0.  1.
         11   -1    0    0    0    0 -0.00000000000E+00 -0.00000000000E+00 -0.45593999997E+02  0.45594000000E+02  0.51100000000E-03 0. -1.
    9900012    2    1    2    0    0 -0.82458235217E+00 -0.16040298601E+00 -0.82875431763E+00  0.90007958097E+02  0.90000222344E+02 0.  0.
         12    1    1    2    0    0  0.82458235217E+00  0.16040298601E+00  0.82875431763E+00  0.11800419028E+01  0.00000000000E+00 0. -1.
         11    1    3    3    0    0 -0.34158491958E+02  0.20842984325E+02 -0.13318394749E+02  0.42173596092E+02  0.51100000000E-03 0. -1.
        -11    1    3    3    0    0  0.74932732222E+01  0.46761498697E+01 -0.12060206123E+01  0.89145951767E+01  0.51100000000E-03 0.  1.
        -12    1    3    3    0    0  0.25840636384E+02 -0.25679537181E+02  0.13695661044E+02  0.38919766828E+02  0.00000000000E+00 0.  1.
</event>
<event>
 7    1  0.2569312E-015  0.9000774E+02  0.7816164E-02  0.1186339E+00
        -11   -1    0    0    0    0  0.00000000000E+00  0.00000000000E+00  0.45593999997E+02  0.45594000000E+02  0.51100000000E-03 0.  1.
         11   -1    0    0    0    0 -0.00000000000E+00 -0.00000000000E+00 -0.45593999997E+02  0.45594000000E+02  0.51100000000E-03 0. -1.
    9900012    2    1    2    0    0 -0.17987552123E+00 -0.52073039707E+00  0.10437893925E+01  0.90007740857E+02  0.90000002236E+02 0.  0.
         12    1    1    2    0    0  0.17987552123E+00  0.52073039707E+00 -0.10437893925E+01  0.11802591433E+01  0.00000000000E+00 0. -1.
         11    1    3    3    0    0 -0.58538897337E+01 -0.82260625793E+01  0.14524308108E+01  0.10200278726E+02  0.51100000000E-03 0. -1.
        -11    1    3    3    0    0  0.26700722396E+02  0.79115642448E+01  0.31214440470E+02  0.41831360477E+02  0.51100000000E-03 0.  1.
         12    1    3    3    0    0 -0.21026708183E+02 -0.20623206252E+00 -0.31623081888E+02  0.37976101653E+02  0.00000000000E+00 0. -1.
</event>
<event>
 7    1  0.2569312E-015  0.9000778E+02  0.7816164E-02  0.1186339E+00
        -11   -1    0    0    0    0  0.00000000000E+00  0.00000000000E+00  0.45593999997E+02  0.45594000000E+02  0.51100000000E-03 0. -1.
         11   -1    0    0    0    0 -0.00000000000E+00 -0.00000000000E+00 -0.45593999997E+02  0.45594000000E+02  0.51100000000E-03 0.  1.
    9900012    2    1    2    0    0 -0.49506063860E+00 -0.10630017119E+01 -0.13364619485E+00  0.90007780113E+02  0.90000042011E+02 0.  0.
         12    1    1    2    0    0  0.49506063860E+00  0.10630017119E+01  0.13364619485E+00  0.11802198866E+01  0.00000000000E+00 0. -1.
         11    1    3    3    0    0 -0.81393867844E+01  0.22834586639E+01  0.10459490294E+01  0.85180872459E+01  0.51100000000E-03 0. -1.
        -11    1    3    3    0    0  0.22214156891E+02  0.26126919073E+02  0.22460902604E+02  0.40994838854E+02  0.51100000000E-03 0.  1.
         12    1    3    3    0    0 -0.14569830745E+02 -0.29473379449E+02 -0.23640497828E+02  0.40494854014E+02  0.00000000000E+00 0. -1.
</event>
<event>
 7    1  0.2569312E-015  0.9000766E+02  0.7816164E-02  0.1186339E+00
        -11   -1    0    0    0    0  0.00000000000E+00  0.00000000000E+00  0.45593999997E+02  0.45594000000E+02  0.51100000000E-03 0.  1.
         11   -1    0    0    0    0 -0.00000000000E+00 -0.00000000000E+00 -0.45593999997E+02  0.45594000000E+02  0.51100000000E-03 0. -1.
    9900012    2    1    2    0    0  0.91282939404E+00 -0.60124925546E+00  0.44546385392E+00  0.90007662669E+02  0.89999923016E+02 0.  0.
         12    1    1    2    0    0 -0.91282939404E+00  0.60124925546E+00 -0.44546385392E+00  0.11803373310E+01  0.00000000000E+00 0. -1.
         11    1    3    3    0    0 -0.98652286706E+00 -0.83337553978E+01  0.41458942253E+01  0.93601893991E+01  0.51100000000E-03 0. -1.
        -11    1    3    3    0    0 -0.13390469292E+02  0.20200852533E+02  0.31830227111E+02  0.40006780289E+02  0.51100000000E-03 0.  1.
         12    1    3    3    0    0  0.15289821553E+02 -0.12468346391E+02 -0.35530657482E+02  0.40640692981E+02  0.00000000000E+00 0. -1.
</event>
<event>
 7    1  0.2569312E-015  0.9000775E+02  0.7816164E-02  0.1186339E+00
        -11   -1    0    0    0    0  0.00000000000E+00  0.00000000000E+00  0.45593999997E+02  0.45594000000E+02  0.51100000000E-03 0.  1.
         11   -1    0    0    0    0 -0.00000000000E+00 -0.00000000000E+00 -0.45593999997E+02  0.45594000000E+02  0.51100000000E-03 0. -1.
    9900012    2    1    2    0    0 -0.50633488582E+00  0.99891943517E+00 -0.37253621233E+00  0.90007746517E+02  0.90000007971E+02 0.  0.
         12    1    1    2    0    0  0.50633488582E+00 -0.99891943517E+00  0.37253621233E+00  0.11802534830E+01  0.00000000000E+00 0. -1.
         11    1    3    3    0    0  0.25414473273E+02  0.24463042935E+02  0.61772195690E+01  0.35811924875E+02  0.51100000000E-03 0. -1.
        -11    1    3    3    0    0  0.77265136279E+01  0.53393624072E+01  0.19076761992E+00  0.93938382093E+01  0.51100000000E-03 0.  1.
        -12    1    3    3    0    0 -0.33647321787E+02 -0.28803485907E+02 -0.67405234012E+01  0.44801983433E+02  0.00000000000E+00 0.  1.
</event>
<event>
 8    1  0.2569312E-015  0.9000770E+02  0.7816164E-02  0.1186339E+00
        -11   -1    0    0    0    0  0.00000000000E+00  0.00000000000E+00  0.45593999997E+02  0.45594000000E+02  0.51100000000E-03 0.  1.
         11   -1    0    0    0    0 -0.00000000000E+00 -0.00000000000E+00 -0.45593999997E+02  0.45594000000E+02  0.51100000000E-03 0. -1.
    9900012    2    1    2    0    0  0.73360531197E+00 -0.46026188581E+00  0.80192780579E+00  0.90007700901E+02  0.89999961753E+02 0.  0.
         23    2    3    3    0    0 -0.13306198369E+02 -0.17826711426E+02  0.12444075681E+02  0.64823394991E+02  0.59601769801E+02 0.  0.
         12    1    1    2    0    0 -0.73360531197E+00  0.46026188581E+00 -0.80192780579E+00  0.11802990989E+01  0.00000000000E+00 0. -1.
         11    1    4    4    0    0 -0.62736459670E+00 -0.37272731946E+02  0.17315979148E+02  0.41103445928E+02  0.51100000000E-03 0. -1.
        -11    1    4    4    0    0 -0.12678833772E+02  0.19446020520E+02 -0.48719034673E+01  0.23719949063E+02  0.51100000000E-03 0.  1.
        -12    1    3    3    0    0  0.14039803681E+02  0.17366449540E+02 -0.11642147875E+02  0.25184305910E+02  0.00000000000E+00 0.  1.
</event>
<event>
 7    1  0.2569312E-015  0.9000764E+02  0.7816164E-02  0.1186339E+00
        -11   -1    0    0    0    0  0.00000000000E+00  0.00000000000E+00  0.45593999997E+02  0.45594000000E+02  0.51100000000E-03 0. -1.
         11   -1    0    0    0    0 -0.00000000000E+00 -0.00000000000E+00 -0.45593999997E+02  0.45594000000E+02  0.51100000000E-03 0.  1.
    9900012    2    1    2    0    0  0.97549949204E+00  0.63982881701E+00 -0.17966367608E+00  0.90007635984E+02  0.89999895979E+02 0.  0.
         12    1    1    2    0    0 -0.97549949204E+00 -0.63982881701E+00  0.17966367608E+00  0.11803640161E+01  0.00000000000E+00 0. -1.
         11    1    3    3    0    0  0.33195477805E+02  0.23492481566E+02  0.12634355169E+02  0.42584778590E+02  0.51100000000E-03 0. -1.
        -11    1    3    3    0    0  0.12054544227E-01 -0.44227745390E+00 -0.78392106247E+01  0.78516863245E+01  0.51100000000E-03 0.  1.
        -12    1    3    3    0    0 -0.32232032857E+02 -0.22410375295E+02 -0.49748082199E+01  0.39571171069E+02  0.00000000000E+00 0.  1.
</event>
<event>
 7    1  0.2569312E-015  0.9000771E+02  0.7816164E-02  0.1186339E+00
        -11   -1    0    0    0    0  0.00000000000E+00  0.00000000000E+00  0.45593999997E+02  0.45594000000E+02  0.51100000000E-03 0.  1.
         11   -1    0    0    0    0 -0.00000000000E+00 -0.00000000000E+00 -0.45593999997E+02  0.45594000000E+02  0.51100000000E-03 0. -1.
    9900012    2    1    2    0    0 -0.10971849604E+01 -0.32130160631E+00 -0.29329837128E+00  0.90007714656E+02  0.89999975689E+02 0.  0.
         12    1    1    2    0    0  0.10971849604E+01  0.32130160631E+00  0.29329837128E+00  0.11802853444E+01  0.00000000000E+00 0. -1.
         11    1    3    3    0    0 -0.81353780479E+01 -0.63652770647E+01 -0.10820935610E+01  0.10386147256E+02  0.51100000000E-03 0. -1.
        -11    1    3    3    0    0  0.10993491765E+02 -0.33083674450E+02 -0.14051482444E+02  0.37587638066E+02  0.51100000000E-03 0.  1.
         12    1    3    3    0    0 -0.39552986770E+01  0.39127649908E+02  0.14840277633E+02  0.42033929333E+02  0.00000000000E+00 0. -1.
</event>
<event>
 7    1  0.2569312E-015  0.9000767E+02  0.7816164E-02  0.1186339E+00
        -11   -1    0    0    0    0  0.00000000000E+00  0.00000000000E+00  0.45593999997E+02  0.45594000000E+02  0.51100000000E-03 0.  1.
         11   -1    0    0    0    0 -0.00000000000E+00 -0.00000000000E+00 -0.45593999997E+02  0.45594000000E+02  0.51100000000E-03 0. -1.
    9900012    2    1    2    0    0  0.94221683687E+00  0.54542198240E+00  0.45597266479E+00  0.90007674292E+02  0.89999934792E+02 0.  0.
         12    1    1    2    0    0 -0.94221683687E+00 -0.54542198240E+00 -0.45597266479E+00  0.11803257083E+01  0.00000000000E+00 0. -1.
         11    1    3    3    0    0 -0.50369580171E+01 -0.39025486510E+01  0.59782103756E+01  0.87372668264E+01  0.51100000000E-03 0. -1.
        -11    1    3    3    0    0 -0.59155799747E+01 -0.25964954098E+02  0.25032649744E+02  0.36548686450E+02  0.51100000000E-03 0.  1.
         12    1    3    3    0    0  0.11894754829E+02  0.30412924731E+02 -0.30554887455E+02  0.44721721015E+02  0.00000000000E+00 0. -1.
</event>
<event>
 7    1  0.2569312E-015  0.9000784E+02  0.7816164E-02  0.1186339E+00
        -11   -1    0    0    0    0  0.00000000000E+00  0.00000000000E+00  0.45593999997E+02  0.45594000000E+02  0.51100000000E-03 0.  1.
         11   -1    0    0    0    0 -0.00000000000E+00 -0.00000000000E+00 -0.45593999997E+02  0.45594000000E+02  0.51100000000E-03 0. -1.
    9900012    2    1    2    0    0 -0.36890014576E+00  0.12588099454E+00  0.11139369094E+01  0.90007835274E+02  0.90000097900E+02 0.  0.
         12    1    1    2    0    0  0.36890014576E+00 -0.12588099454E+00 -0.11139369094E+01  0.11801647260E+01  0.00000000000E+00 0. -1.
         11    1    3    3    0    0  0.13268095014E+01 -0.38015180639E+01 -0.68643948448E+01  0.79581329400E+01  0.51100000000E-03 0. -1.
        -11    1    3    3    0    0 -0.22033018591E+02  0.31223927006E+02  0.23259834048E+02  0.44737092061E+02  0.51100000000E-03 0.  1.
         12    1    3    3    0    0  0.20337308944E+02 -0.27296527947E+02 -0.15281502293E+02  0.37312610273E+02  0.00000000000E+00 0. -1.
</event>
<event>
 7    1  0.3714965E-015  0.9000780E+02  0.7816164E-02  0.1186339E+00
        -11   -1    0    0    0    0  0.00000000000E+00  0.00000000000E+00  0.45593999997E+02  0.45594000000E+02  0.51100000000E-03 0. -1.
         11   -1    0    0    0    0 -0.00000000000E+00 -0.00000000000E+00 -0.45593999997E+02  0.45594000000E+02  0.51100000000E-03 0.  1.
    9900012    2    1    2    0    0  0.73045381264E+00  0.22348014791E+00 -0.89965243522E+00  0.90007796351E+02  0.90000058463E+02 0.  0.
         12    1    1    2    0    0 -0.73045381264E+00 -0.22348014791E+00  0.89965243522E+00  0.11802036490E+01  0.00000000000E+00 0. -1.
         11    1    3    3    0    0 -0.18088832274E+01 -0.28671113928E+01  0.35813648470E+02  0.35973737688E+02  0.51100000000E-03 0. -1.
        -11    1    3    3    0    0  0.15718677277E+01  0.18004415862E+01  0.84808249056E+01  0.88111718517E+01  0.51100000000E-03 0.  1.
        -12    1    3    3    0    0  0.96746931239E+00  0.12901499544E+01 -0.45194125811E+02  0.45222886811E+02  0.00000000000E+00 0.  1.
</event>
<event>
 7    1  0.2569312E-015  0.9000791E+02  0.7816164E-02  0.1186339E+00
        -11   -1    0    0    0    0  0.00000000000E+00  0.00000000000E+00  0.45593999997E+02  0.45594000000E+02  0.51100000000E-03 0.  1.
         11   -1    0    0    0    0 -0.00000000000E+00 -0.00000000000E+00 -0.45593999997E+02  0.45594000000E+02  0.51100000000E-03 0. -1.
    9900012    2    1    2    0    0 -0.11025162553E+01 -0.38859203989E+00  0.16142794824E+00  0.90007913203E+02  0.90000176857E+02 0.  0.
         12    1    1    2    0    0  0.11025162553E+01  0.38859203989E+00 -0.16142794824E+00  0.11800867973E+01  0.00000000000E+00 0. -1.
         11    1    3    3    0    0 -0.51752743758E+01  0.47415330596E+01 -0.31498914426E+02  0.32271461245E+02  0.51100000000E-03 0. -1.
        -11    1    3    3    0    0  0.40070521193E+01  0.36275462209E+01 -0.12023911094E+02  0.13182943394E+02  0.51100000000E-03 0.  1.
        -12    1    3    3    0    0  0.65706001288E-01 -0.87576713204E+01  0.43684253468E+02  0.44553508563E+02  0.00000000000E+00 0.  1.
</event>
<event>
 7    1  0.2569312E-015  0.9000775E+02  0.7816164E-02  0.1186339E+00
        -11   -1    0    0    0    0  0.00000000000E+00  0.00000000000E+00  0.45593999997E+02  0.45594000000E+02  0.51100000000E-03 0.  1.
         11   -1    0    0    0    0 -0.00000000000E+00 -0.00000000000E+00 -0.45593999997E+02  0.45594000000E+02  0.51100000000E-03 0. -1.
    9900012    2    1    2    0    0  0.85010112649E+00  0.52527201610E+00  0.62802592469E+00  0.90007746138E+02  0.90000007587E+02 0.  0.
         12    1    1    2    0    0 -0.85010112649E+00 -0.52527201610E+00 -0.62802592469E+00  0.11802538618E+01  0.00000000000E+00 0. -1.
         11    1    3    3    0    0 -0.83848980242E+01 -0.42989646805E+01 -0.31183727308E+01  0.99253141487E+01  0.51100000000E-03 0. -1.
        -11    1    3    3    0    0 -0.32109556470E+02 -0.11611475094E+02  0.89215139713E+01  0.35290839921E+02  0.51100000000E-03 0.  1.
         12    1    3    3    0    0  0.41344555620E+02  0.16435711790E+02 -0.51751153158E+01  0.44791592069E+02  0.00000000000E+00 0. -1.
</event>
<event>
 7    1  0.2569312E-015  0.9000773E+02  0.7816164E-02  0.1186339E+00
        -11   -1    0    0    0    0  0.00000000000E+00  0.00000000000E+00  0.45593999997E+02  0.45594000000E+02  0.51100000000E-03 0.  1.
         11   -1    0    0    0    0 -0.00000000000E+00 -0.00000000000E+00 -0.45593999997E+02  0.45594000000E+02  0.51100000000E-03 0. -1.
    9900012    2    1    2    0    0  0.87499272112E+00  0.50258830615E+00  0.61224045854E+00  0.90007726453E+02  0.89999987642E+02 0.  0.
         12    1    1    2    0    0 -0.87499272112E+00 -0.50258830615E+00 -0.61224045854E+00  0.11802735473E+01  0.00000000000E+00 0. -1.
         11    1    3    3    0    0  0.27479209452E+02  0.15492366633E+02 -0.18813887308E+02  0.36729861583E+02  0.51100000000E-03 0. -1.
        -11    1    3    3    0    0  0.82749213553E+01  0.35995584983E+01 -0.45545511088E+00  0.90354072646E+01  0.51100000000E-03 0.  1.
        -12    1    3    3    0    0 -0.34879138086E+02 -0.18589336825E+02  0.19881582878E+02  0.44242457605E+02  0.00000000000E+00 0.  1.
</event>
<event>
 7    1  0.2569312E-015  0.9000777E+02  0.7816164E-02  0.1186339E+00
        -11   -1    0    0    0    0  0.00000000000E+00  0.00000000000E+00  0.45593999997E+02  0.45594000000E+02  0.51100000000E-03 0.  1.
         11   -1    0    0    0    0 -0.00000000000E+00 -0.00000000000E+00 -0.45593999997E+02  0.45594000000E+02  0.51100000000E-03 0. -1.
    9900012    2    1    2    0    0  0.10507063855E+01 -0.51345270911E+00  0.15912785753E+00  0.90007771519E+02  0.90000033303E+02 0.  0.
         12    1    1    2    0    0 -0.10507063855E+01  0.51345270911E+00 -0.15912785753E+00  0.11802284813E+01  0.00000000000E+00 0. -1.
         11    1    3    3    0    0  0.33642636446E+01  0.32476135799E+01  0.68125154290E+01  0.82629069077E+01  0.51100000000E-03 0. -1.
        -11    1    3    3    0    0  0.13644702645E+02  0.17613433745E+02  0.29404872856E+02  0.36892512879E+02  0.51100000000E-03 0.  1.
         12    1    3    3    0    0 -0.15958259904E+02 -0.21374500034E+02 -0.36058260428E+02  0.44852351732E+02  0.00000000000E+00 0. -1.
</event>
<event>
 7    1  0.2569312E-015  0.9000784E+02  0.7816164E-02  0.1186339E+00
        -11   -1    0    0    0    0  0.00000000000E+00  0.00000000000E+00  0.45593999997E+02  0.45594000000E+02  0.51100000000E-03 0. -1.
         11   -1    0    0    0    0 -0.00000000000E+00 -0.00000000000E+00 -0.45593999997E+02  0.45594000000E+02  0.51100000000E-03 0.  1.
    9900012    2    1    2    0    0 -0.92034898452E+00 -0.67745887030E+00 -0.29458807843E+00  0.90007841150E+02  0.90000103854E+02 0.  0.
         12    1    1    2    0    0  0.92034898452E+00  0.67745887030E+00  0.29458807843E+00  0.11801588496E+01  0.00000000000E+00 0. -1.
         11    1    3    3    0    0  0.24195934785E+02 -0.23258501926E+01  0.11192695094E+02  0.26760591604E+02  0.51100000000E-03 0. -1.
        -11    1    3    3    0    0  0.15027762882E+02  0.12976268073E+02  0.45345131858E+00  0.19860080782E+02  0.51100000000E-03 0.  1.
        -12    1    3    3    0    0 -0.40144046651E+02 -0.11327876751E+02 -0.11940734491E+02  0.43387168764E+02  0.00000000000E+00 0.  1.
</event>
<event>
 7    1  0.2569312E-015  0.9000769E+02  0.7816164E-02  0.1186339E+00
        -11   -1    0    0    0    0  0.00000000000E+00  0.00000000000E+00  0.45593999997E+02  0.45594000000E+02  0.51100000000E-03 0. -1.
         11   -1    0    0    0    0 -0.00000000000E+00 -0.00000000000E+00 -0.45593999997E+02  0.45594000000E+02  0.51100000000E-03 0.  1.
    9900012    2    1    2    0    0  0.87898264562E+00  0.39042284328E+00 -0.68417041144E+00  0.90007690871E+02  0.89999951591E+02 0.  0.
         12    1    1    2    0    0 -0.87898264562E+00 -0.39042284328E+00  0.68417041144E+00  0.11803091289E+01  0.00000000000E+00 0. -1.
         11    1    3    3    0    0  0.57130578216E+01 -0.49386609563E+01  0.64461920941E+01  0.99288868706E+01  0.51100000000E-03 0. -1.
        -11    1    3    3    0    0 -0.30092343913E+01  0.22509442557E+02  0.30876886344E+02  0.38329004767E+02  0.51100000000E-03 0.  1.
         12    1    3    3    0    0 -0.18248407847E+01 -0.17180358757E+02 -0.38007248850E+02  0.41749799234E+02  0.00000000000E+00 0. -1.
</event>
<event>
 7    1  0.2895642E-015  0.9000780E+02  0.7816164E-02  0.1186339E+00
        -11   -1    0    0    0    0  0.00000000000E+00  0.00000000000E+00  0.45593999997E+02  0.45594000000E+02  0.51100000000E-03 0. -1.
         11   -1    0    0    0    0 -0.00000000000E+00 -0.00000000000E+00 -0.45593999997E+02  0.45594000000E+02  0.51100000000E-03 0.  1.
    9900012    2    1    2    0    0  0.57253785754E+00  0.43881583058E-01 -0.10310935703E+01  0.90007796991E+02  0.90000059111E+02 0.  0.
         12    1    1    2    0    0 -0.57253785754E+00 -0.43881583058E-01  0.10310935703E+01  0.11802030090E+01  0.00000000000E+00 0. -1.
         11    1    3    3    0    0  0.32474055871E+02  0.25069349547E+02 -0.51814506447E+01  0.41350743916E+02  0.51100000000E-03 0. -1.
        -11    1    3    3    0    0 -0.71836139830E+01  0.37702756451E+01 -0.51176482180E+01  0.95921640854E+01  0.51100000000E-03 0.  1.
        -12    1    3    3    0    0 -0.24717904030E+02 -0.28795743609E+02  0.92680052924E+01  0.39064888989E+02  0.00000000000E+00 0.  1.
</event>
<event>
 7    1  0.2569312E-015  0.9000771E+02  0.7816164E-02  0.1186339E+00
        -11   -1    0    0    0    0  0.00000000000E+00  0.00000000000E+00  0.45593999997E+02  0.45594000000E+02  0.51100000000E-03 0. -1.
         11   -1    0    0    0    0 -0.00000000000E+00 -0.00000000000E+00 -0.45593999997E+02  0.45594000000E+02  0.51100000000E-03 0.  1.
    9900012    2    1    2    0    0 -0.65615106946E+00  0.87715864279E+00 -0.43947948895E+00  0.90007710319E+02  0.89999971295E+02 0.  0.
         12    1    1    2    0    0  0.65615106946E+00 -0.87715864279E+00  0.43947948895E+00  0.11802896813E+01  0.00000000000E+00 0. -1.
         11    1    3    3    0    0  0.32748738373E+01  0.85445273676E+01 -0.62946467401E+01  0.11106589235E+02  0.51100000000E-03 0. -1.
        -11    1    3    3    0    0  0.18697362482E+02 -0.23902164822E+02 -0.23541383288E+02  0.38407051102E+02  0.51100000000E-03 0.  1.
         12    1    3    3    0    0 -0.22628387389E+02  0.16234796097E+02  0.29396550539E+02  0.40494069982E+02  0.00000000000E+00 0. -1.
</event>
<event>
 7    1  0.2569312E-015  0.9000740E+02  0.7816164E-02  0.1186340E+00
        -11   -1    0    0    0    0  0.00000000000E+00  0.00000000000E+00  0.45593999997E+02  0.45594000000E+02  0.51100000000E-03 0.  1.
         11   -1    0    0    0    0 -0.00000000000E+00 -0.00000000000E+00 -0.45593999997E+02  0.45594000000E+02  0.51100000000E-03 0. -1.
    9900012    2    1    2    0    0  0.60780451067E+00 -0.76755400246E+00  0.65973273660E+00  0.90007401527E+02  0.89999658427E+02 0.  0.
         12    1    1    2    0    0 -0.60780451067E+00  0.76755400246E+00 -0.65973273660E+00  0.11805984727E+01  0.00000000000E+00 0. -1.
         11    1    3    3    0    0  0.53077638046E+01  0.86706936991E+01  0.21343364180E+01  0.10387910186E+02  0.51100000000E-03 0. -1.
        -11    1    3    3    0    0 -0.35117057706E+02 -0.75263384457E+01  0.21134704419E+02  0.41671683953E+02  0.51100000000E-03 0.  1.
         12    1    3    3    0    0  0.30417098412E+02 -0.19119092558E+01 -0.22609308100E+02  0.37947807388E+02  0.00000000000E+00 0. -1.
</event>
<event>
 7    1  0.2569312E-015  0.9000774E+02  0.7816164E-02  0.1186339E+00
        -11   -1    0    0    0    0  0.00000000000E+00  0.00000000000E+00  0.45593999997E+02  0.45594000000E+02  0.51100000000E-03 0. -1.
         11   -1    0    0    0    0 -0.00000000000E+00 -0.00000000000E+00 -0.45593999997E+02  0.45594000000E+02  0.51100000000E-03 0.  1.
    9900012    2    1    2    0    0 -0.10563446302E+01 -0.33179448163E+00  0.40872461249E+00  0.90007742670E+02  0.90000004073E+02 0.  0.
         12    1    1    2    0    0  0.10563446302E+01  0.33179448163E+00 -0.40872461249E+00  0.11802573298E+01  0.00000000000E+00 0. -1.
         11    1    3    3    0    0 -0.77480317538E+01 -0.69256280456E+00  0.49587948361E+01  0.92250358148E+01  0.51100000000E-03 0. -1.
        -11    1    3    3    0    0  0.59038200974E+01 -0.11045943144E+02 -0.40848786074E+02  0.42725768286E+02  0.51100000000E-03 0.  1.
         12    1    3    3    0    0  0.78786702630E+00  0.11406711466E+02  0.36298715850E+02  0.38056938570E+02  0.00000000000E+00 0. -1.
</event>
<event>
 7    1  0.2569312E-015  0.9000766E+02  0.7816164E-02  0.1186339E+00
        -11   -1    0    0    0    0  0.00000000000E+00  0.00000000000E+00  0.45593999997E+02  0.45594000000E+02  0.51100000000E-03 0.  1.
         11   -1    0    0    0    0 -0.00000000000E+00 -0.00000000000E+00 -0.45593999997E+02  0.45594000000E+02  0.51100000000E-03 0. -1.
    9900012    2    1    2    0    0  0.79466020835E-01  0.11688989898E+01  0.14339121421E+00  0.90007660753E+02  0.89999921075E+02 0.  0.
         12    1    1    2    0    0 -0.79466020835E-01 -0.11688989898E+01 -0.14339121421E+00  0.11803392466E+01  0.00000000000E+00 0. -1.
         11    1    3    3    0    0 -0.51803935177E+01 -0.99965748353E+00 -0.12868487620E+02  0.13908046806E+02  0.51100000000E-03 0. -1.
        -11    1    3    3    0    0 -0.18402767911E+02 -0.24340332907E+02 -0.11847459513E+02  0.32733407552E+02  0.51100000000E-03 0.  1.
         12    1    3    3    0    0  0.23662627450E+02  0.26508889380E+02  0.24859338348E+02  0.43366206395E+02  0.00000000000E+00 0. -1.
</event>
<event>
 7    1  0.2569312E-015  0.9000797E+02  0.7816164E-02  0.1186339E+00
        -11   -1    0    0    0    0  0.00000000000E+00  0.00000000000E+00  0.45593999997E+02  0.45594000000E+02  0.51100000000E-03 0. -1.
         11   -1    0    0    0    0 -0.00000000000E+00 -0.00000000000E+00 -0.45593999997E+02  0.45594000000E+02  0.51100000000E-03 0.  1.
    9900012    2    1    2    0    0 -0.55028723225E+00 -0.10139496414E+01 -0.24810588740E+00  0.90007971846E+02  0.90000236274E+02 0.  0.
         12    1    1    2    0    0  0.55028723225E+00  0.10139496414E+01  0.24810588740E+00  0.11800281542E+01  0.00000000000E+00 0. -1.
         11    1    3    3    0    0 -0.29232592232E+02 -0.21393117585E+02  0.80839512568E+01  0.37115498067E+02  0.51100000000E-03 0. -1.
        -11    1    3    3    0    0 -0.88155131346E+01  0.25758699830E+01  0.33407881786E+01  0.97728830911E+01  0.51100000000E-03 0.  1.
        -12    1    3    3    0    0  0.37497818134E+02  0.17803297960E+02 -0.11672845323E+02  0.43119590687E+02  0.00000000000E+00 0.  1.
</event>
<event>
 7    1  0.2569312E-015  0.9000773E+02  0.7816164E-02  0.1186339E+00
        -11   -1    0    0    0    0  0.00000000000E+00  0.00000000000E+00  0.45593999997E+02  0.45594000000E+02  0.51100000000E-03 0. -1.
         11   -1    0    0    0    0 -0.00000000000E+00 -0.00000000000E+00 -0.45593999997E+02  0.45594000000E+02  0.51100000000E-03 0.  1.
    9900012    2    1    2    0    0  0.77426611176E+00 -0.70318207527E-01 -0.88802910905E+00  0.90007733776E+02  0.89999995061E+02 0.  0.
         12    1    1    2    0    0 -0.77426611176E+00  0.70318207527E-01  0.88802910905E+00  0.11802662245E+01  0.00000000000E+00 0. -1.
         11    1    3    3    0    0  0.21066013671E+01  0.91550266796E+01  0.11222293272E+02  0.14635304895E+02  0.51100000000E-03 0. -1.
        -11    1    3    3    0    0 -0.15843211440E+02  0.29226589423E+02 -0.67864503328E+01  0.33930175160E+02  0.51100000000E-03 0.  1.
         12    1    3    3    0    0  0.14510876185E+02 -0.38451934310E+02 -0.53238720482E+01  0.41442253720E+02  0.00000000000E+00 0. -1.
</event>
<event>
 7    1  0.2569312E-015  0.9000775E+02  0.7816164E-02  0.1186339E+00
        -11   -1    0    0    0    0  0.00000000000E+00  0.00000000000E+00  0.45593999997E+02  0.45594000000E+02  0.51100000000E-03 0.  1.
         11   -1    0    0    0    0 -0.00000000000E+00 -0.00000000000E+00 -0.45593999997E+02  0.45594000000E+02  0.51100000000E-03 0. -1.
    9900012    2    1    2    0    0 -0.85660038769E+00 -0.48854013268E+00  0.64850537668E+00  0.90007747947E+02  0.90000009420E+02 0.  0.
         12    1    1    2    0    0  0.85660038769E+00  0.48854013268E+00 -0.64850537668E+00  0.11802520532E+01  0.00000000000E+00 0. -1.
         11    1    3    3    0    0  0.77191742179E+01  0.50468089966E+01  0.13421496180E+01  0.93197262574E+01  0.51100000000E-03 0. -1.
        -11    1    3    3    0    0 -0.43269671160E+01 -0.41214201236E+02  0.11046441842E+02  0.42887724416E+02  0.51100000000E-03 0.  1.
         12    1    3    3    0    0 -0.42488074896E+01  0.35678852107E+02 -0.11740086083E+02  0.37800297274E+02  0.00000000000E+00 0. -1.
</event>
<event>
 7    1  0.2569312E-015  0.9000770E+02  0.7816164E-02  0.1186339E+00
        -11   -1    0    0    0    0  0.00000000000E+00  0.00000000000E+00  0.45593999997E+02  0.45594000000E+02  0.51100000000E-03 0. -1.
         11   -1    0    0    0    0 -0.00000000000E+00 -0.00000000000E+00 -0.45593999997E+02  0.45594000000E+02  0.51100000000E-03 0.  1.
    9900012    2    1    2    0    0 -0.26429843805E-01  0.28611657474E+00 -0.11447870600E+01  0.90007704002E+02  0.89999964894E+02 0.  0.
         12    1    1    2    0    0  0.26429843805E-01 -0.28611657474E+00  0.11447870600E+01  0.11802959983E+01  0.00000000000E+00 0. -1.
         11    1    3    3    0    0 -0.10244402750E+02  0.22922632503E+01  0.79080856781E+01  0.13143061967E+02  0.51100000000E-03 0. -1.
        -11    1    3    3    0    0 -0.21035755123E+02  0.26486224812E+02 -0.68856880754E+01  0.34517181213E+02  0.51100000000E-03 0.  1.
         12    1    3    3    0    0  0.31253728029E+02 -0.28492371487E+02 -0.21671846626E+01  0.42347460822E+02  0.00000000000E+00 0. -1.
</event>
<event>
 7    1  0.2569312E-015  0.9000774E+02  0.7816164E-02  0.1186339E+00
        -11   -1    0    0    0    0  0.00000000000E+00  0.00000000000E+00  0.45593999997E+02  0.45594000000E+02  0.51100000000E-03 0. -1.
         11   -1    0    0    0    0 -0.00000000000E+00 -0.00000000000E+00 -0.45593999997E+02  0.45594000000E+02  0.51100000000E-03 0.  1.
    9900012    2    1    2    0    0 -0.87399743185E+00 -0.29265602047E+00 -0.73721552048E+00  0.90007743341E+02  0.90000004753E+02 0.  0.
         12    1    1    2    0    0  0.87399743185E+00  0.29265602047E+00  0.73721552048E+00  0.11802566589E+01  0.00000000000E+00 0. -1.
         11    1    3    3    0    0 -0.18973038782E+01  0.22798965713E+02  0.30471279322E+02  0.38103693566E+02  0.51100000000E-03 0. -1.
        -11    1    3    3    0    0 -0.57359202471E-01  0.90318102988E+01 -0.43849169904E+01  0.10040138676E+02  0.51100000000E-03 0.  1.
        -12    1    3    3    0    0  0.10806656488E+01 -0.32123432033E+02 -0.26823577852E+02  0.41863911100E+02  0.00000000000E+00 0.  1.
</event>
<event>
 7    1  0.2569312E-015  0.9000782E+02  0.7816164E-02  0.1186339E+00
        -11   -1    0    0    0    0  0.00000000000E+00  0.00000000000E+00  0.45593999997E+02  0.45594000000E+02  0.51100000000E-03 0. -1.
         11   -1    0    0    0    0 -0.00000000000E+00 -0.00000000000E+00 -0.45593999997E+02  0.45594000000E+02  0.51100000000E-03 0.  1.
    9900012    2    1    2    0    0 -0.82215081316E+00 -0.36284862991E+00 -0.76500075762E+00  0.90007823214E+02  0.90000085680E+02 0.  0.
         12    1    1    2    0    0  0.82215081316E+00  0.36284862991E+00  0.76500075762E+00  0.11801767863E+01  0.00000000000E+00 0. -1.
         11    1    3    3    0    0  0.32669070999E+02 -0.13954489568E+02  0.11210488551E+01  0.35542266808E+02  0.51100000000E-03 0. -1.
        -11    1    3    3    0    0  0.28590742717E+01  0.12089438761E+02 -0.11399953885E+02  0.16860835807E+02  0.51100000000E-03 0.  1.
        -12    1    3    3    0    0 -0.36350296084E+02  0.15022021771E+01  0.95139042724E+01  0.37604720599E+02  0.00000000000E+00 0.  1.
</event>
<event>
 7    1  0.2569312E-015  0.9000780E+02  0.7816164E-02  0.1186339E+00
        -11   -1    0    0    0    0  0.00000000000E+00  0.00000000000E+00  0.45593999997E+02  0.45594000000E+02  0.51100000000E-03 0.  1.
         11   -1    0    0    0    0 -0.00000000000E+00 -0.00000000000E+00 -0.45593999997E+02  0.45594000000E+02  0.51100000000E-03 0. -1.
    9900012    2    1    2    0    0  0.11554605423E+01 -0.22056774514E+00 -0.95569349835E-01  0.90007799722E+02  0.90000061879E+02 0.  0.
         12    1    1    2    0    0 -0.11554605423E+01  0.22056774514E+00  0.95569349835E-01  0.11802002777E+01  0.00000000000E+00 0. -1.
         11    1    3    3    0    0 -0.20816464370E+02  0.17692367250E+02 -0.28666408286E+02  0.39599343581E+02  0.51100000000E-03 0. -1.
        -11    1    3    3    0    0  0.32859138499E+01 -0.52146671147E+01 -0.63289400782E+01  0.88343344809E+01  0.51100000000E-03 0.  1.
        -12    1    3    3    0    0  0.18686011063E+02 -0.12698267881E+02  0.34899779014E+02  0.41574121660E+02  0.00000000000E+00 0.  1.
</event>
<event>
 7    1  0.2569312E-015  0.9000774E+02  0.7816164E-02  0.1186339E+00
        -11   -1    0    0    0    0  0.00000000000E+00  0.00000000000E+00  0.45593999997E+02  0.45594000000E+02  0.51100000000E-03 0.  1.
         11   -1    0    0    0    0 -0.00000000000E+00 -0.00000000000E+00 -0.45593999997E+02  0.45594000000E+02  0.51100000000E-03 0. -1.
    9900012    2    1    2    0    0  0.49145808310E+00  0.30913345531E+00  0.10275833529E+01  0.90007736433E+02  0.89999997754E+02 0.  0.
         12    1    1    2    0    0 -0.49145808310E+00 -0.30913345531E+00 -0.10275833529E+01  0.11802635671E+01  0.00000000000E+00 0. -1.
         11    1    3    3    0    0  0.16155396140E+02 -0.68385744170E+01 -0.33835412322E+02  0.38112964353E+02  0.51100000000E-03 0. -1.
        -11    1    3    3    0    0  0.72160498766E+01 -0.57967950028E+01  0.14320386323E+01  0.93661594601E+01  0.51100000000E-03 0.  1.
        -12    1    3    3    0    0 -0.22879987934E+02  0.12944502875E+02  0.33430957043E+02  0.42528612620E+02  0.00000000000E+00 0.  1.
</event>
<event>
 7    1  0.2569312E-015  0.9000772E+02  0.7816164E-02  0.1186339E+00
        -11   -1    0    0    0    0  0.00000000000E+00  0.00000000000E+00  0.45593999997E+02  0.45594000000E+02  0.51100000000E-03 0.  1.
         11   -1    0    0    0    0 -0.00000000000E+00 -0.00000000000E+00 -0.45593999997E+02  0.45594000000E+02  0.51100000000E-03 0. -1.
    9900012    2    1    2    0    0 -0.38963789835E+00 -0.23766589319E+00 -0.10884670351E+01  0.90007718993E+02  0.89999980084E+02 0.  0.
         12    1    1    2    0    0  0.38963789835E+00  0.23766589319E+00  0.10884670351E+01  0.11802810068E+01  0.00000000000E+00 0. -1.
         11    1    3    3    0    0 -0.59080694346E+01 -0.77828500976E+01  0.60024469391E+00  0.97897055135E+01  0.51100000000E-03 0. -1.
        -11    1    3    3    0    0  0.18369122997E+02 -0.24703182760E+02  0.22307554063E+02  0.38017086773E+02  0.51100000000E-03 0.  1.
         12    1    3    3    0    0 -0.12850691461E+02  0.32248366965E+02 -0.23996265792E+02  0.42200926706E+02  0.00000000000E+00 0. -1.
</event>
<event>
 7    1  0.2569312E-015  0.9000771E+02  0.7816164E-02  0.1186339E+00
        -11   -1    0    0    0    0  0.00000000000E+00  0.00000000000E+00  0.45593999997E+02  0.45594000000E+02  0.51100000000E-03 0.  1.
         11   -1    0    0    0    0 -0.00000000000E+00 -0.00000000000E+00 -0.45593999997E+02  0.45594000000E+02  0.51100000000E-03 0. -1.
    9900012    2    1    2    0    0  0.10886702628E+01  0.36363749044E+00 -0.27505055505E+00  0.90007708522E+02  0.89999969474E+02 0.  0.
         12    1    1    2    0    0 -0.10886702628E+01 -0.36363749044E+00  0.27505055505E+00  0.11802914782E+01  0.00000000000E+00 0. -1.
         11    1    3    3    0    0  0.53076994309E+01  0.68036739505E+01 -0.30759585073E+01  0.91609592005E+01  0.51100000000E-03 0. -1.
        -11    1    3    3    0    0 -0.19814361570E+02  0.42473174306E+01 -0.33938590348E+02  0.39528174064E+02  0.51100000000E-03 0.  1.
         12    1    3    3    0    0  0.15595332402E+02 -0.10687353891E+02  0.36739498300E+02  0.41318575257E+02  0.00000000000E+00 0. -1.
</event>
<event>
 7    1  0.2569312E-015  0.9000765E+02  0.7816164E-02  0.1186339E+00
        -11   -1    0    0    0    0  0.00000000000E+00  0.00000000000E+00  0.45593999997E+02  0.45594000000E+02  0.51100000000E-03 0. -1.
         11   -1    0    0    0    0 -0.00000000000E+00 -0.00000000000E+00 -0.45593999997E+02  0.45594000000E+02  0.51100000000E-03 0.  1.
    9900012    2    1    2    0    0 -0.77479397076E+00 -0.87906596796E+00 -0.14201339501E+00  0.90007648155E+02  0.89999908311E+02 0.  0.
         12    1    1    2    0    0  0.77479397076E+00  0.87906596796E+00  0.14201339501E+00  0.11803518448E+01  0.00000000000E+00 0. -1.
         11    1    3    3    0    0  0.93041027253E+01  0.14258605682E+01 -0.21249368572E+01  0.96495991000E+01  0.51100000000E-03 0. -1.
        -11    1    3    3    0    0  0.56328257265E+01 -0.45140031302E+00 -0.37447855350E+02  0.37871814829E+02  0.51100000000E-03 0.  1.
         12    1    3    3    0    0 -0.15711722423E+02 -0.18535262231E+01  0.39430778812E+02  0.42486234226E+02  0.00000000000E+00 0. -1.
</event>
<event>
 7    1  0.2569312E-015  0.9000760E+02  0.7816164E-02  0.1186339E+00
        -11   -1    0    0    0    0  0.00000000000E+00  0.00000000000E+00  0.45593999997E+02  0.45594000000E+02  0.51100000000E-03 0. -1.
         11   -1    0    0    0    0 -0.00000000000E+00 -0.00000000000E+00 -0.45593999997E+02  0.45594000000E+02  0.51100000000E-03 0.  1.
    9900012    2    1    2    0    0  0.60546764685E+00 -0.94534072066E+00 -0.36480121574E+00  0.90007601730E+02  0.89999861272E+02 0.  0.
         12    1    1    2    0    0 -0.60546764685E+00  0.94534072066E+00  0.36480121574E+00  0.11803982703E+01  0.00000000000E+00 0. -1.
         11    1    3    3    0    0 -0.81278583583E+01  0.95140722932E+01  0.14206649990E+01  0.12593567501E+02  0.51100000000E-03 0. -1.
        -11    1    3    3    0    0  0.38997073889E+02 -0.77707963644E+00 -0.16557031857E+02  0.42373469634E+02  0.51100000000E-03 0.  1.
         12    1    3    3    0    0 -0.30263747884E+02 -0.96823333774E+01  0.14771565642E+02  0.35040564595E+02  0.00000000000E+00 0. -1.
</event>
<event>
 7    1  0.2569312E-015  0.9000773E+02  0.7816164E-02  0.1186339E+00
        -11   -1    0    0    0    0  0.00000000000E+00  0.00000000000E+00  0.45593999997E+02  0.45594000000E+02  0.51100000000E-03 0.  1.
         11   -1    0    0    0    0 -0.00000000000E+00 -0.00000000000E+00 -0.45593999997E+02  0.45594000000E+02  0.51100000000E-03 0. -1.
    9900012    2    1    2    0    0  0.14138544476E+00  0.43796577276E-01  0.11709536041E+01  0.90007728706E+02  0.89999989925E+02 0.  0.
         12    1    1    2    0    0 -0.14138544476E+00 -0.43796577276E-01 -0.11709536041E+01  0.11802712938E+01  0.00000000000E+00 0. -1.
         11    1    3    3    0    0  0.29924867163E+02 -0.12092146475E+02  0.16496608637E+02  0.36247148548E+02  0.51100000000E-03 0. -1.
        -11    1    3    3    0    0  0.29866869458E+01  0.13768745933E+01  0.10286759515E+02  0.10799699262E+02  0.51100000000E-03 0.  1.
        -12    1    3    3    0    0 -0.32770168664E+02  0.10759068459E+02 -0.25612414548E+02  0.42960880896E+02  0.00000000000E+00 0.  1.
</event>
<event>
 7    1  0.2569312E-015  0.9000772E+02  0.7816164E-02  0.1186339E+00
        -11   -1    0    0    0    0  0.00000000000E+00  0.00000000000E+00  0.45593999997E+02  0.45594000000E+02  0.51100000000E-03 0.  1.
         11   -1    0    0    0    0 -0.00000000000E+00 -0.00000000000E+00 -0.45593999997E+02  0.45594000000E+02  0.51100000000E-03 0. -1.
    9900012    2    1    2    0    0  0.33193857789E+00  0.10816754394E+01  0.33592805140E+00  0.90007723494E+02  0.89999984644E+02 0.  0.
         12    1    1    2    0    0 -0.33193857789E+00 -0.10816754394E+01 -0.33592805140E+00  0.11802765064E+01  0.00000000000E+00 0. -1.
         11    1    3    3    0    0  0.13591776323E+02 -0.37223601567E+02 -0.17250200194E+02  0.43219235351E+02  0.51100000000E-03 0. -1.
        -11    1    3    3    0    0 -0.75728199940E+01  0.44934664151E+01  0.15661743422E+01  0.89438104529E+01  0.51100000000E-03 0.  1.
        -12    1    3    3    0    0 -0.56870177516E+01  0.33811810592E+02  0.16019953904E+02  0.37844677690E+02  0.00000000000E+00 0.  1.
</event>
<event>
 7    1  0.2569312E-015  0.9000756E+02  0.7816164E-02  0.1186339E+00
        -11   -1    0    0    0    0  0.00000000000E+00  0.00000000000E+00  0.45593999997E+02  0.45594000000E+02  0.51100000000E-03 0.  1.
         11   -1    0    0    0    0 -0.00000000000E+00 -0.00000000000E+00 -0.45593999997E+02  0.45594000000E+02  0.51100000000E-03 0. -1.
    9900012    2    1    2    0    0  0.60074373679E+00 -0.69192844600E+00  0.74415820079E+00  0.90007563877E+02  0.89999822920E+02 0.  0.
         12    1    1    2    0    0 -0.60074373679E+00  0.69192844600E+00 -0.74415820079E+00  0.11804361226E+01  0.00000000000E+00 0. -1.
         11    1    3    3    0    0  0.99201477052E+01  0.64145927984E+01  0.16215856345E+02  0.20062660056E+02  0.51100000000E-03 0. -1.
        -11    1    3    3    0    0  0.55851194826E+01 -0.35044171783E+02 -0.20276329858E+01  0.35544322069E+02  0.51100000000E-03 0.  1.
         12    1    3    3    0    0 -0.14904523451E+02  0.27937650538E+02 -0.13444065158E+02  0.34400581752E+02  0.00000000000E+00 0. -1.
</event>
<event>
 7    1  0.2569312E-015  0.9000771E+02  0.7816164E-02  0.1186339E+00
        -11   -1    0    0    0    0  0.00000000000E+00  0.00000000000E+00  0.45593999997E+02  0.45594000000E+02  0.51100000000E-03 0. -1.
         11   -1    0    0    0    0 -0.00000000000E+00 -0.00000000000E+00 -0.45593999997E+02  0.45594000000E+02  0.51100000000E-03 0.  1.
    9900012    2    1    2    0    0  0.77713045719E+00 -0.64984639206E+00  0.60568779974E+00  0.90007707752E+02  0.89999968694E+02 0.  0.
         12    1    1    2    0    0 -0.77713045719E+00  0.64984639206E+00 -0.60568779974E+00  0.11802922484E+01  0.00000000000E+00 0. -1.
         11    1    3    3    0    0  0.21013465404E+02 -0.69532625729E+01  0.13970488945E+02  0.26174188628E+02  0.51100000000E-03 0. -1.
        -11    1    3    3    0    0  0.15534133637E+02 -0.39020853763E+01  0.10942614450E+02  0.19397844968E+02  0.51100000000E-03 0.  1.
        -12    1    3    3    0    0 -0.35770468584E+02  0.10205501557E+02 -0.24307415596E+02  0.44435674156E+02  0.00000000000E+00 0.  1.
</event>
<event>
 7    1  0.2702173E-015  0.9000777E+02  0.7816164E-02  0.1186339E+00
        -11   -1    0    0    0    0  0.00000000000E+00  0.00000000000E+00  0.45593999997E+02  0.45594000000E+02  0.51100000000E-03 0.  1.
         11   -1    0    0    0    0 -0.00000000000E+00 -0.00000000000E+00 -0.45593999997E+02  0.45594000000E+02  0.51100000000E-03 0. -1.
    9900012    2    1    2    0    0 -0.71632003952E+00 -0.53473283478E+00  0.77064033060E+00  0.90007771157E+02  0.90000032936E+02 0.  0.
         12    1    1    2    0    0  0.71632003952E+00  0.53473283478E+00 -0.77064033060E+00  0.11802288434E+01  0.00000000000E+00 0. -1.
         11    1    3    3    0    0 -0.34419283238E+02 -0.86317198743E+00 -0.11872046634E+02  0.36419467542E+02  0.51100000000E-03 0. -1.
        -11    1    3    3    0    0 -0.52931839268E+01 -0.59188765030E+01 -0.59644796743E+01  0.99310580095E+01  0.51100000000E-03 0.  1.
        -12    1    3    3    0    0  0.38996147125E+02  0.62473156557E+01  0.18607166639E+02  0.43657245605E+02  0.00000000000E+00 0.  1.
</event>
<event>
 7    1  0.2569312E-015  0.9000779E+02  0.7816164E-02  0.1186339E+00
        -11   -1    0    0    0    0  0.00000000000E+00  0.00000000000E+00  0.45593999997E+02  0.45594000000E+02  0.51100000000E-03 0.  1.
         11   -1    0    0    0    0 -0.00000000000E+00 -0.00000000000E+00 -0.45593999997E+02  0.45594000000E+02  0.51100000000E-03 0. -1.
    9900012    2    1    2    0    0 -0.98140864461E+00 -0.65514815687E+00  0.22874698368E-01  0.90007785915E+02  0.90000047889E+02 0.  0.
         12    1    1    2    0    0  0.98140864461E+00  0.65514815687E+00 -0.22874698368E-01  0.11802140852E+01  0.00000000000E+00 0. -1.
         11    1    3    3    0    0 -0.20458168715E+01  0.31554285095E+00 -0.37996400250E+02  0.38052744529E+02  0.51100000000E-03 0. -1.
        -11    1    3    3    0    0  0.43207502479E+01 -0.94453360971E+01 -0.22899090263E+01  0.10636114906E+02  0.51100000000E-03 0.  1.
        -12    1    3    3    0    0 -0.32563420210E+01  0.84746450893E+01  0.40309183974E+02  0.41318926480E+02  0.00000000000E+00 0.  1.
</event>
<event>
 7    1  0.2569312E-015  0.9000775E+02  0.7816164E-02  0.1186339E+00
        -11   -1    0    0    0    0  0.00000000000E+00  0.00000000000E+00  0.45593999997E+02  0.45594000000E+02  0.51100000000E-03 0. -1.
         11   -1    0    0    0    0 -0.00000000000E+00 -0.00000000000E+00 -0.45593999997E+02  0.45594000000E+02  0.51100000000E-03 0.  1.
    9900012    2    1    2    0    0  0.13898760545E-01 -0.52352892982E+00 -0.10576898275E+01  0.90007752786E+02  0.90000014322E+02 0.  0.
         12    1    1    2    0    0 -0.13898760545E-01  0.52352892982E+00  0.10576898275E+01  0.11802472144E+01  0.00000000000E+00 0. -1.
         11    1    3    3    0    0  0.13238973385E+01 -0.61304838366E+01  0.97545466921E+01  0.11596840848E+02  0.51100000000E-03 0. -1.
        -11    1    3    3    0    0  0.36860904447E+02  0.99331503457E+01 -0.11877527742E+02  0.39980863146E+02  0.51100000000E-03 0.  1.
         12    1    3    3    0    0 -0.38170903024E+02 -0.43261954390E+01  0.10652912221E+01  0.38430048791E+02  0.00000000000E+00 0. -1.
</event>
<event>
 7    1  0.2569312E-015  0.9000796E+02  0.7816164E-02  0.1186339E+00
        -11   -1    0    0    0    0  0.00000000000E+00  0.00000000000E+00  0.45593999997E+02  0.45594000000E+02  0.51100000000E-03 0.  1.
         11   -1    0    0    0    0 -0.00000000000E+00 -0.00000000000E+00 -0.45593999997E+02  0.45594000000E+02  0.51100000000E-03 0. -1.
    9900012    2    1    2    0    0  0.99817146001E+00  0.80711139496E-01  0.62419987051E+00  0.90007963547E+02  0.90000227866E+02 0.  0.
         12    1    1    2    0    0 -0.99817146001E+00 -0.80711139496E-01 -0.62419987051E+00  0.11800364528E+01  0.00000000000E+00 0. -1.
         11    1    3    3    0    0  0.27972114843E+00  0.59305168891E+01 -0.82337709059E+01  0.10151071770E+02  0.51100000000E-03 0. -1.
        -11    1    3    3    0    0 -0.36609460270E+02 -0.15509872340E+02  0.10959011393E+02  0.41242073811E+02  0.51100000000E-03 0.  1.
         12    1    3    3    0    0  0.37327910581E+02  0.96600665905E+01 -0.21010406169E+01  0.38614817966E+02  0.00000000000E+00 0. -1.
</event>
<event>
 7    1  0.2569312E-015  0.9000771E+02  0.7816164E-02  0.1186339E+00
        -11   -1    0    0    0    0  0.00000000000E+00  0.00000000000E+00  0.45593999997E+02  0.45594000000E+02  0.51100000000E-03 0. -1.
         11   -1    0    0    0    0 -0.00000000000E+00 -0.00000000000E+00 -0.45593999997E+02  0.45594000000E+02  0.51100000000E-03 0.  1.
    9900012    2    1    2    0    0  0.96032401154E+00  0.20650847733E+00 -0.65438368662E+00  0.90007709372E+02  0.89999970335E+02 0.  0.
         12    1    1    2    0    0 -0.96032401154E+00 -0.20650847733E+00  0.65438368662E+00  0.11802906285E+01  0.00000000000E+00 0. -1.
         11    1    3    3    0    0 -0.47583564226E+01 -0.16401062824E+01  0.28773904339E+02  0.29210776704E+02  0.51100000000E-03 0. -1.
        -11    1    3    3    0    0 -0.85601720467E+01  0.19509875631E+01  0.13192970475E+02  0.15847314225E+02  0.51100000000E-03 0.  1.
        -12    1    3    3    0    0  0.14278852481E+02 -0.10437280338E+00 -0.42621258501E+02  0.44949618442E+02  0.00000000000E+00 0.  1.
</event>
<event>
 7    1  0.2569312E-015  0.9000779E+02  0.7816164E-02  0.1186339E+00
        -11   -1    0    0    0    0  0.00000000000E+00  0.00000000000E+00  0.45593999997E+02  0.45594000000E+02  0.51100000000E-03 0. -1.
         11   -1    0    0    0    0 -0.00000000000E+00 -0.00000000000E+00 -0.45593999997E+02  0.45594000000E+02  0.51100000000E-03 0.  1.
    9900012    2    1    2    0    0  0.49985374131E+00  0.99637213396E+00 -0.38766701266E+00  0.90007789466E+02  0.90000051487E+02 0.  0.
         12    1    1    2    0    0 -0.49985374131E+00 -0.99637213396E+00  0.38766701266E+00  0.11802105341E+01  0.00000000000E+00 0. -1.
         11    1    3    3    0    0  0.14930273275E+02 -0.26919084857E+02  0.10054244096E+02  0.32382680775E+02  0.51100000000E-03 0. -1.
        -11    1    3    3    0    0  0.75227938018E+01 -0.63353599696E+01  0.82659393525E+01  0.12847371956E+02  0.51100000000E-03 0.  1.
        -12    1    3    3    0    0 -0.21953213335E+02  0.34250816961E+02 -0.18707850461E+02  0.44777736735E+02  0.00000000000E+00 0.  1.
</event>
<event>
 7    1  0.3010312E-015  0.9000774E+02  0.7816164E-02  0.1186339E+00
        -11   -1    0    0    0    0  0.00000000000E+00  0.00000000000E+00  0.45593999997E+02  0.45594000000E+02  0.51100000000E-03 0. -1.
         11   -1    0    0    0    0 -0.00000000000E+00 -0.00000000000E+00 -0.45593999997E+02  0.45594000000E+02  0.51100000000E-03 0.  1.
    9900012    2    1    2    0    0 -0.11515210952E+01 -0.25842122149E+00  0.15200954516E-01  0.90007740101E+02  0.90000001470E+02 0.  0.
         12    1    1    2    0    0  0.11515210952E+01  0.25842122149E+00 -0.15200954516E-01  0.11802598991E+01  0.00000000000E+00 0. -1.
         11    1    3    3    0    0 -0.15605360724E+02 -0.13835213779E+02  0.34518554138E+02  0.40329530169E+02  0.51100000000E-03 0. -1.
        -11    1    3    3    0    0  0.52466641224E+01 -0.79824528795E+01 -0.22646491248E+01  0.98171113015E+01  0.51100000000E-03 0.  1.
        -12    1    3    3    0    0  0.92071755069E+01  0.21559245438E+02 -0.32238704058E+02  0.39861098630E+02  0.00000000000E+00 0.  1.
</event>
<event>
 7    1  0.2569312E-015  0.9000722E+02  0.7816164E-02  0.1186340E+00
        -11   -1    0    0    0    0  0.00000000000E+00  0.00000000000E+00  0.45593999997E+02  0.45594000000E+02  0.51100000000E-03 0. -1.
         11   -1    0    0    0    0 -0.00000000000E+00 -0.00000000000E+00 -0.45593999997E+02  0.45594000000E+02  0.51100000000E-03 0.  1.
    9900012    2    1    2    0    0 -0.10281068744E+01  0.41998986922E+00 -0.40106042210E+00  0.90007218607E+02  0.89999473091E+02 0.  0.
         12    1    1    2    0    0  0.10281068744E+01 -0.41998986922E+00  0.40106042210E+00  0.11807813928E+01  0.00000000000E+00 0. -1.
         11    1    3    3    0    0  0.61125314789E+01 -0.65071756077E+01  0.51004909655E+01  0.10282090440E+02  0.51100000000E-03 0. -1.
        -11    1    3    3    0    0  0.78973573785E+01 -0.32768561655E+02  0.89656952469E+01  0.34878798403E+02  0.51100000000E-03 0.  1.
         12    1    3    3    0    0 -0.15037995732E+02  0.39695727132E+02 -0.14467246634E+02  0.44846329764E+02  0.00000000000E+00 0. -1.
</event>
<event>
 7    1  0.2569312E-015  0.9000736E+02  0.7816164E-02  0.1186340E+00
        -11   -1    0    0    0    0  0.00000000000E+00  0.00000000000E+00  0.45593999997E+02  0.45594000000E+02  0.51100000000E-03 0. -1.
         11   -1    0    0    0    0 -0.00000000000E+00 -0.00000000000E+00 -0.45593999997E+02  0.45594000000E+02  0.51100000000E-03 0.  1.
    9900012    2    1    2    0    0  0.97095714247E+00 -0.65821422948E+00 -0.13383081687E+00  0.90007358466E+02  0.89999614797E+02 0.  0.
         12    1    1    2    0    0 -0.97095714247E+00  0.65821422948E+00  0.13383081687E+00  0.11806415341E+01  0.00000000000E+00 0. -1.
         11    1    3    3    0    0  0.18721671704E+01  0.21364933557E+01  0.13451152628E+02  0.13747840597E+02  0.51100000000E-03 0. -1.
        -11    1    3    3    0    0 -0.27373832607E+02 -0.11433937966E+02 -0.31403440542E+02  0.43199973694E+02  0.51100000000E-03 0.  1.
         12    1    3    3    0    0  0.26472622579E+02  0.86392303809E+01  0.17818457097E+02  0.33059544176E+02  0.00000000000E+00 0. -1.
</event>
<event>
 7    1  0.2569312E-015  0.9000769E+02  0.7816164E-02  0.1186339E+00
        -11   -1    0    0    0    0  0.00000000000E+00  0.00000000000E+00  0.45593999997E+02  0.45594000000E+02  0.51100000000E-03 0.  1.
         11   -1    0    0    0    0 -0.00000000000E+00 -0.00000000000E+00 -0.45593999997E+02  0.45594000000E+02  0.51100000000E-03 0. -1.
    9900012    2    1    2    0    0 -0.77464583604E+00  0.84574361469E+00 -0.27889527490E+00  0.90007686056E+02  0.89999946711E+02 0.  0.
         12    1    1    2    0    0  0.77464583604E+00 -0.84574361469E+00  0.27889527490E+00  0.11803139444E+01  0.00000000000E+00 0. -1.
         11    1    3    3    0    0 -0.30892626426E+01 -0.40921779459E+02 -0.11290102283E+02  0.42562917987E+02  0.51100000000E-03 0. -1.
        -11    1    3    3    0    0 -0.41241424775E+01  0.90913520628E+01 -0.42004921936E+01  0.10830760289E+02  0.51100000000E-03 0.  1.
        -12    1    3    3    0    0  0.64387592840E+01  0.32676171011E+02  0.15211699202E+02  0.36614007779E+02  0.00000000000E+00 0.  1.
</event>
<event>
 7    1  0.2569312E-015  0.9000770E+02  0.7816164E-02  0.1186339E+00
        -11   -1    0    0    0    0  0.00000000000E+00  0.00000000000E+00  0.45593999997E+02  0.45594000000E+02  0.51100000000E-03 0.  1.
         11   -1    0    0    0    0 -0.00000000000E+00 -0.00000000000E+00 -0.45593999997E+02  0.45594000000E+02  0.51100000000E-03 0. -1.
    9900012    2    1    2    0    0 -0.35939920656E+00  0.97055804217E+00 -0.56740883414E+00  0.90007701950E+02  0.89999962815E+02 0.  0.
         12    1    1    2    0    0  0.35939920656E+00 -0.97055804217E+00  0.56740883414E+00  0.11802980505E+01  0.00000000000E+00 0. -1.
         11    1    3    3    0    0 -0.84669297061E+01  0.33045842499E+01 -0.30397602047E+01  0.95838049895E+01  0.51100000000E-03 0. -1.
        -11    1    3    3    0    0 -0.20167085808E+02 -0.30617172933E+02  0.13285917641E+02  0.38995361727E+02  0.51100000000E-03 0.  1.
         12    1    3    3    0    0  0.28274616308E+02  0.28283146725E+02 -0.10813566270E+02  0.41428535233E+02  0.00000000000E+00 0. -1.
</event>
<event>
 7    1  0.2569312E-015  0.9000786E+02  0.7816164E-02  0.1186339E+00
        -11   -1    0    0    0    0  0.00000000000E+00  0.00000000000E+00  0.45593999997E+02  0.45594000000E+02  0.51100000000E-03 0.  1.
         11   -1    0    0    0    0 -0.00000000000E+00 -0.00000000000E+00 -0.45593999997E+02  0.45594000000E+02  0.51100000000E-03 0. -1.
    9900012    2    1    2    0    0 -0.10575429981E+01 -0.41135394733E-01  0.52214603731E+00  0.90007861958E+02  0.90000124936E+02 0.  0.
         12    1    1    2    0    0  0.10575429981E+01  0.41135394733E-01 -0.52214603731E+00  0.11801380419E+01  0.00000000000E+00 0. -1.
         11    1    3    3    0    0 -0.37858773576E+01  0.58240800356E+01  0.77969534505E+01  0.10442473797E+02  0.51100000000E-03 0. -1.
        -11    1    3    3    0    0  0.54027510978E+01 -0.23286850740E+02  0.29984394350E+02  0.38347503721E+02  0.51100000000E-03 0.  1.
         12    1    3    3    0    0 -0.26744167384E+01  0.17421635310E+02 -0.37259201763E+02  0.41217884441E+02  0.00000000000E+00 0. -1.
</event>
<event>
 7    1  0.2569312E-015  0.9000775E+02  0.7816164E-02  0.1186339E+00
        -11   -1    0    0    0    0  0.00000000000E+00  0.00000000000E+00  0.45593999997E+02  0.45594000000E+02  0.51100000000E-03 0.  1.
         11   -1    0    0    0    0 -0.00000000000E+00 -0.00000000000E+00 -0.45593999997E+02  0.45594000000E+02  0.51100000000E-03 0. -1.
    9900012    2    1    2    0    0  0.90713488488E+00 -0.15652495031E-01  0.75488731094E+00  0.90007748522E+02  0.90000010002E+02 0.  0.
         12    1    1    2    0    0 -0.90713488488E+00  0.15652495031E-01 -0.75488731094E+00  0.11802514784E+01  0.00000000000E+00 0. -1.
         11    1    3    3    0    0  0.19536011223E+01 -0.55639497229E+01 -0.36195761532E+02  0.36672977068E+02  0.51100000000E-03 0. -1.
        -11    1    3    3    0    0 -0.58955028619E+01 -0.72603244723E+01 -0.39870161941E+01  0.10166885651E+02  0.51100000000E-03 0.  1.
        -12    1    3    3    0    0  0.48490366245E+01  0.12808621700E+02  0.40937665037E+02  0.43167885803E+02  0.00000000000E+00 0.  1.
</event>
<event>
 7    1  0.2569312E-015  0.9000762E+02  0.7816164E-02  0.1186339E+00
        -11   -1    0    0    0    0  0.00000000000E+00  0.00000000000E+00  0.45593999997E+02  0.45594000000E+02  0.51100000000E-03 0.  1.
         11   -1    0    0    0    0 -0.00000000000E+00 -0.00000000000E+00 -0.45593999997E+02  0.45594000000E+02  0.51100000000E-03 0. -1.
    9900012    2    1    2    0    0  0.90754942101E+00  0.33055046132E+00  0.67852690199E+00  0.90007615183E+02  0.89999874904E+02 0.  0.
         12    1    1    2    0    0 -0.90754942101E+00 -0.33055046132E+00 -0.67852690199E+00  0.11803848168E+01  0.00000000000E+00 0. -1.
         11    1    3    3    0    0 -0.10176765452E+02 -0.80923383610E+01  0.76356104328E+01  0.15078297058E+02  0.51100000000E-03 0. -1.
        -11    1    3    3    0    0 -0.17542925180E+02  0.22895010584E+02  0.18250607977E+02  0.34132395540E+02  0.51100000000E-03 0.  1.
         12    1    3    3    0    0  0.28627240053E+02 -0.14472121761E+02 -0.25207691507E+02  0.40796922586E+02  0.00000000000E+00 0. -1.
</event>
<event>
 7    1  0.2569312E-015  0.9000772E+02  0.7816164E-02  0.1186339E+00
        -11   -1    0    0    0    0  0.00000000000E+00  0.00000000000E+00  0.45593999997E+02  0.45594000000E+02  0.51100000000E-03 0.  1.
         11   -1    0    0    0    0 -0.00000000000E+00 -0.00000000000E+00 -0.45593999997E+02  0.45594000000E+02  0.51100000000E-03 0. -1.
    9900012    2    1    2    0    0  0.97596152760E+00  0.84851102722E-01 -0.65829398320E+00  0.90007723939E+02  0.89999985095E+02 0.  0.
         12    1    1    2    0    0 -0.97596152760E+00 -0.84851102722E-01  0.65829398320E+00  0.11802760615E+01  0.00000000000E+00 0. -1.
         11    1    3    3    0    0  0.23497700217E+02  0.30191860141E+02 -0.10364247603E+02  0.39637204277E+02  0.51100000000E-03 0. -1.
        -11    1    3    3    0    0  0.58691175638E+01  0.42733363322E+00  0.61708909211E+01  0.85269601872E+01  0.51100000000E-03 0.  1.
        -12    1    3    3    0    0 -0.28390856254E+02 -0.30534342672E+02  0.35350626983E+01  0.41843559474E+02  0.00000000000E+00 0.  1.
</event>
<event>
 7    1  0.2569312E-015  0.9000770E+02  0.7816164E-02  0.1186339E+00
        -11   -1    0    0    0    0  0.00000000000E+00  0.00000000000E+00  0.45593999997E+02  0.45594000000E+02  0.51100000000E-03 0.  1.
         11   -1    0    0    0    0 -0.00000000000E+00 -0.00000000000E+00 -0.45593999997E+02  0.45594000000E+02  0.51100000000E-03 0. -1.
    9900012    2    1    2    0    0  0.92706432321E+00  0.71522858986E+00 -0.14865715479E+00  0.90007703789E+02  0.89999964679E+02 0.  0.
         12    1    1    2    0    0 -0.92706432321E+00 -0.71522858986E+00  0.14865715479E+00  0.11802962106E+01  0.00000000000E+00 0. -1.
         11    1    3    3    0    0 -0.84305002607E+01  0.17071553400E+02 -0.27923774328E+02  0.33797166200E+02  0.51100000000E-03 0. -1.
        -11    1    3    3    0    0  0.10623449747E+02  0.12642442046E+02  0.71772777670E+00  0.16528888614E+02  0.51100000000E-03 0.  1.
        -12    1    3    3    0    0 -0.12658851631E+01 -0.28998766856E+02  0.27057389397E+02  0.39681648975E+02  0.00000000000E+00 0.  1.
</event>
<event>
 7    1  0.2569312E-015  0.9000767E+02  0.7816164E-02  0.1186339E+00
        -11   -1    0    0    0    0  0.00000000000E+00  0.00000000000E+00  0.45593999997E+02  0.45594000000E+02  0.51100000000E-03 0. -1.
         11   -1    0    0    0    0 -0.00000000000E+00 -0.00000000000E+00 -0.45593999997E+02  0.45594000000E+02  0.51100000000E-03 0.  1.
    9900012    2    1    2    0    0  0.43317355118E-01 -0.72433319859E+00 -0.93094314594E+00  0.90007665252E+02  0.89999925634E+02 0.  0.
         12    1    1    2    0    0 -0.43317355118E-01  0.72433319859E+00  0.93094314594E+00  0.11803347478E+01  0.00000000000E+00 0. -1.
         11    1    3    3    0    0 -0.15564267024E+02  0.30818522937E+02  0.17935712209E+02  0.38906523061E+02  0.51100000000E-03 0. -1.
        -11    1    3    3    0    0 -0.67844591784E+01 -0.31021880808E+01  0.38203814392E+01  0.83813943848E+01  0.51100000000E-03 0.  1.
        -12    1    3    3    0    0  0.22392043558E+02 -0.28440668055E+02 -0.22687036794E+02  0.42719747806E+02  0.00000000000E+00 0.  1.
</event>
<event>
 7    1  0.2569312E-015  0.9000797E+02  0.7816164E-02  0.1186339E+00
        -11   -1    0    0    0    0  0.00000000000E+00  0.00000000000E+00  0.45593999997E+02  0.45594000000E+02  0.51100000000E-03 0.  1.
         11   -1    0    0    0    0 -0.00000000000E+00 -0.00000000000E+00 -0.45593999997E+02  0.45594000000E+02  0.51100000000E-03 0. -1.
    9900012    2    1    2    0    0 -0.77602258513E-01 -0.40145083479E+00  0.11069221583E+01  0.90007973921E+02  0.90000238376E+02 0.  0.
         12    1    1    2    0    0  0.77602258513E-01  0.40145083479E+00 -0.11069221583E+01  0.11800260793E+01  0.00000000000E+00 0. -1.
         11    1    3    3    0    0  0.42574593087E+01 -0.48275492166E+01  0.59734724345E+01  0.87814329349E+01  0.51100000000E-03 0. -1.
        -11    1    3    3    0    0 -0.11655207749E+01  0.24574012746E+02  0.31236158531E+02  0.39761012829E+02  0.51100000000E-03 0.  1.
         12    1    3    3    0    0 -0.31695407923E+01 -0.20147914365E+02 -0.36102708807E+02  0.41465528157E+02  0.00000000000E+00 0. -1.
</event>
<event>
 7    1  0.2569312E-015  0.9000775E+02  0.7816164E-02  0.1186339E+00
        -11   -1    0    0    0    0  0.00000000000E+00  0.00000000000E+00  0.45593999997E+02  0.45594000000E+02  0.51100000000E-03 0.  1.
         11   -1    0    0    0    0 -0.00000000000E+00 -0.00000000000E+00 -0.45593999997E+02  0.45594000000E+02  0.51100000000E-03 0. -1.
    9900012    2    1    2    0    0  0.10036328320E+01  0.24264036573E-01  0.62058385759E+00  0.90007749209E+02  0.90000010699E+02 0.  0.
         12    1    1    2    0    0 -0.10036328320E+01 -0.24264036573E-01 -0.62058385759E+00  0.11802507908E+01  0.00000000000E+00 0. -1.
         11    1    3    3    0    0 -0.21190308685E+01 -0.78706315414E+01  0.36964273073E+01  0.89498998755E+01  0.51100000000E-03 0. -1.
        -11    1    3    3    0    0 -0.35765385186E+02  0.20048161982E+01  0.13627913124E+02  0.38326258386E+02  0.51100000000E-03 0.  1.
         12    1    3    3    0    0  0.38888048886E+02  0.58900793798E+01 -0.16703756574E+02  0.42731590948E+02  0.00000000000E+00 0. -1.
</event>
<event>
 7    1  0.2569312E-015  0.9000779E+02  0.7816164E-02  0.1186339E+00
        -11   -1    0    0    0    0  0.00000000000E+00  0.00000000000E+00  0.45593999997E+02  0.45594000000E+02  0.51100000000E-03 0. -1.
         11   -1    0    0    0    0 -0.00000000000E+00 -0.00000000000E+00 -0.45593999997E+02  0.45594000000E+02  0.51100000000E-03 0.  1.
    9900012    2    1    2    0    0  0.53905894982E+00 -0.85329278433E+00  0.61171739821E+00  0.90007791839E+02  0.90000053892E+02 0.  0.
         12    1    1    2    0    0 -0.53905894982E+00  0.85329278433E+00 -0.61171739821E+00  0.11802081606E+01  0.00000000000E+00 0. -1.
         11    1    3    3    0    0 -0.26396514575E+02 -0.23467142838E+02  0.17535173068E+02  0.39433045399E+02  0.51100000000E-03 0. -1.
        -11    1    3    3    0    0 -0.55305773671E+01  0.99061209494E+01  0.96956088811E+00  0.11386771573E+02  0.51100000000E-03 0.  1.
        -12    1    3    3    0    0  0.32466150892E+02  0.12707729104E+02 -0.17893016557E+02  0.39187974868E+02  0.00000000000E+00 0.  1.
</event>
<event>
 7    1  0.2569312E-015  0.9000775E+02  0.7816164E-02  0.1186339E+00
        -11   -1    0    0    0    0  0.00000000000E+00  0.00000000000E+00  0.45593999997E+02  0.45594000000E+02  0.51100000000E-03 0. -1.
         11   -1    0    0    0    0 -0.00000000000E+00 -0.00000000000E+00 -0.45593999997E+02  0.45594000000E+02  0.51100000000E-03 0.  1.
    9900012    2    1    2    0    0 -0.44517857261E+00  0.10063127782E+01 -0.42676701638E+00  0.90007754494E+02  0.90000016053E+02 0.  0.
         12    1    1    2    0    0  0.44517857261E+00 -0.10063127782E+01  0.42676701638E+00  0.11802455064E+01  0.00000000000E+00 0. -1.
         11    1    3    3    0    0 -0.43993095459E+01  0.49038083699E+01  0.70752744340E+01  0.96675110337E+01  0.51100000000E-03 0. -1.
        -11    1    3    3    0    0  0.19275954917E+02 -0.36361899906E+02  0.67709564497E+01  0.41708465019E+02  0.51100000000E-03 0.  1.
         12    1    3    3    0    0 -0.15321823944E+02  0.32464404314E+02 -0.14272997900E+02  0.38631778441E+02  0.00000000000E+00 0. -1.
</event>
<event>
 7    1  0.2569312E-015  0.9000768E+02  0.7816164E-02  0.1186339E+00
        -11   -1    0    0    0    0  0.00000000000E+00  0.00000000000E+00  0.45593999997E+02  0.45594000000E+02  0.51100000000E-03 0. -1.
         11   -1    0    0    0    0 -0.00000000000E+00 -0.00000000000E+00 -0.45593999997E+02  0.45594000000E+02  0.51100000000E-03 0.  1.
    9900012    2    1    2    0    0  0.11734026876E+01 -0.12712652452E+00 -0.10983326451E-01  0.90007679851E+02  0.89999940425E+02 0.  0.
         12    1    1    2    0    0 -0.11734026876E+01  0.12712652452E+00  0.10983326451E-01  0.11803201489E+01  0.00000000000E+00 0. -1.
         11    1    3    3    0    0  0.16996443832E+01 -0.47679062290E+01  0.14489690258E+02  0.15348382484E+02  0.51100000000E-03 0. -1.
        -11    1    3    3    0    0  0.10853290285E+02 -0.28789928731E+02 -0.22906435847E+02  0.38358293885E+02  0.51100000000E-03 0.  1.
         12    1    3    3    0    0 -0.11379531981E+02  0.33430708435E+02  0.84057622626E+01  0.36301003482E+02  0.00000000000E+00 0. -1.
</event>
<event>
 7    1  0.2569312E-015  0.9000769E+02  0.7816164E-02  0.1186339E+00
        -11   -1    0    0    0    0  0.00000000000E+00  0.00000000000E+00  0.45593999997E+02  0.45594000000E+02  0.51100000000E-03 0.  1.
         11   -1    0    0    0    0 -0.00000000000E+00 -0.00000000000E+00 -0.45593999997E+02  0.45594000000E+02  0.51100000000E-03 0. -1.
    9900012    2    1    2    0    0  0.56866076514E+00  0.19239879167E+00  0.10162409786E+01  0.90007687293E+02  0.89999947965E+02 0.  0.
         12    1    1    2    0    0 -0.56866076514E+00 -0.19239879167E+00 -0.10162409786E+01  0.11803127075E+01  0.00000000000E+00 0. -1.
         11    1    3    3    0    0 -0.19282025613E+02 -0.13607051989E+02  0.13573293423E+02  0.27224670249E+02  0.51100000000E-03 0. -1.
        -11    1    3    3    0    0  0.28297293305E+02 -0.96875066144E+01  0.74165580239E+01  0.30815417018E+02  0.51100000000E-03 0.  1.
         12    1    3    3    0    0 -0.84466069267E+01  0.23486957395E+02 -0.19973610468E+02  0.31967600026E+02  0.00000000000E+00 0. -1.
</event>
<event>
 7    1  0.2569312E-015  0.9000771E+02  0.7816164E-02  0.1186339E+00
        -11   -1    0    0    0    0  0.00000000000E+00  0.00000000000E+00  0.45593999997E+02  0.45594000000E+02  0.51100000000E-03 0. -1.
         11   -1    0    0    0    0 -0.00000000000E+00 -0.00000000000E+00 -0.45593999997E+02  0.45594000000E+02  0.51100000000E-03 0.  1.
    9900012    2    1    2    0    0  0.61249180560E+00 -0.20737628731E+00  0.98738911914E+00  0.90007708337E+02  0.89999969287E+02 0.  0.
         12    1    1    2    0    0 -0.61249180560E+00  0.20737628731E+00 -0.98738911914E+00  0.11802916627E+01  0.00000000000E+00 0. -1.
         11    1    3    3    0    0  0.30837491063E+02 -0.26373002597E+02 -0.27828722803E+01  0.40672232536E+02  0.51100000000E-03 0. -1.
        -11    1    3    3    0    0 -0.15162750125E+00  0.11030559435E+01 -0.82960370706E+01  0.83704214142E+01  0.51100000000E-03 0.  1.
        -12    1    3    3    0    0 -0.30073371756E+02  0.25062570366E+02  0.12066298470E+02  0.40965054387E+02  0.00000000000E+00 0.  1.
</event>
<event>
 7    1  0.2569312E-015  0.9000753E+02  0.7816164E-02  0.1186339E+00
        -11   -1    0    0    0    0  0.00000000000E+00  0.00000000000E+00  0.45593999997E+02  0.45594000000E+02  0.51100000000E-03 0.  1.
         11   -1    0    0    0    0 -0.00000000000E+00 -0.00000000000E+00 -0.45593999997E+02  0.45594000000E+02  0.51100000000E-03 0. -1.
    9900012    2    1    2    0    0 -0.11389622931E-01  0.11083962253E+01  0.40600612665E+00  0.90007528530E+02  0.89999787107E+02 0.  0.
         12    1    1    2    0    0  0.11389622931E-01 -0.11083962253E+01 -0.40600612665E+00  0.11804714697E+01  0.00000000000E+00 0. -1.
         11    1    3    3    0    0  0.32461406032E+02 -0.51080994640E+01 -0.28676982327E+01  0.32985743210E+02  0.51100000000E-03 0. -1.
        -11    1    3    3    0    0 -0.73857070219E+00 -0.17082921250E+02 -0.23263876142E+01  0.17256412278E+02  0.51100000000E-03 0.  1.
        -12    1    3    3    0    0 -0.31734224952E+02  0.23299416940E+02  0.56000919736E+01  0.39765373042E+02  0.00000000000E+00 0.  1.
</event>
<event>
 7    1  0.2569312E-015  0.9000769E+02  0.7816164E-02  0.1186339E+00
        -11   -1    0    0    0    0  0.00000000000E+00  0.00000000000E+00  0.45593999997E+02  0.45594000000E+02  0.51100000000E-03 0.  1.
         11   -1    0    0    0    0 -0.00000000000E+00 -0.00000000000E+00 -0.45593999997E+02  0.45594000000E+02  0.51100000000E-03 0. -1.
    9900012    2    1    2    0    0  0.93078239915E+00 -0.59318019600E+00  0.41821480452E+00  0.90007694005E+02  0.89999954766E+02 0.  0.
         12    1    1    2    0    0 -0.93078239915E+00  0.59318019600E+00 -0.41821480452E+00  0.11803059952E+01  0.00000000000E+00 0. -1.
         11    1    3    3    0    0 -0.70787585068E+01 -0.57660042750E+01 -0.43424520627E+01  0.10110020647E+02  0.51100000000E-03 0. -1.
        -11    1    3    3    0    0 -0.30290945046E+02 -0.13106126914E+02 -0.10753053242E+02  0.34712246668E+02  0.51100000000E-03 0.  1.
         12    1    3    3    0    0  0.38300485952E+02  0.18278950993E+02  0.15513720109E+02  0.45185426690E+02  0.00000000000E+00 0. -1.
</event>
<event>
 7    1  0.2569312E-015  0.9000773E+02  0.7816164E-02  0.1186339E+00
        -11   -1    0    0    0    0  0.00000000000E+00  0.00000000000E+00  0.45593999997E+02  0.45594000000E+02  0.51100000000E-03 0. -1.
         11   -1    0    0    0    0 -0.00000000000E+00 -0.00000000000E+00 -0.45593999997E+02  0.45594000000E+02  0.51100000000E-03 0.  1.
    9900012    2    1    2    0    0 -0.10911801887E+01 -0.40973359933E+00 -0.18568786348E+00  0.90007730620E+02  0.89999991864E+02 0.  0.
         12    1    1    2    0    0  0.10911801887E+01  0.40973359933E+00  0.18568786348E+00  0.11802693800E+01  0.00000000000E+00 0. -1.
         11    1    3    3    0    0 -0.10860080267E+02  0.17576618723E+01 -0.18924529985E+01  0.11162978871E+02  0.51100000000E-03 0. -1.
        -11    1    3    3    0    0 -0.33976114030E+02 -0.67630488381E+01 -0.20191867197E+01  0.34701473592E+02  0.51100000000E-03 0.  1.
         12    1    3    3    0    0  0.43745014109E+02  0.45956533665E+01  0.37259518547E+01  0.44143278157E+02  0.00000000000E+00 0. -1.
</event>
<event>
 7    1  0.2569312E-015  0.9000853E+02  0.7816164E-02  0.1186337E+00
        -11   -1    0    0    0    0  0.00000000000E+00  0.00000000000E+00  0.45593999997E+02  0.45594000000E+02  0.51100000000E-03 0.  1.
         11   -1    0    0    0    0 -0.00000000000E+00 -0.00000000000E+00 -0.45593999997E+02  0.45594000000E+02  0.51100000000E-03 0. -1.
    9900012    2    1    2    0    0 -0.32346999660E+00 -0.95575264539E+00  0.61077421268E+00  0.90008533554E+02  0.90000805394E+02 0.  0.
         12    1    1    2    0    0  0.32346999660E+00  0.95575264539E+00 -0.61077421268E+00  0.11794664458E+01  0.00000000000E+00 0. -1.
         11    1    3    3    0    0  0.20095950668E+02  0.18319885571E+02 -0.19941809013E+02  0.33721524099E+02  0.51100000000E-03 0. -1.
        -11    1    3    3    0    0  0.95787512942E+01  0.50166482306E+01 -0.28033880486E+01  0.11170417210E+02  0.51100000000E-03 0.  1.
        -12    1    3    3    0    0 -0.29998171958E+02 -0.24292286447E+02  0.23355971274E+02  0.45116592246E+02  0.00000000000E+00 0.  1.
</event>
<event>
 7    1  0.2569312E-015  0.9000771E+02  0.7816164E-02  0.1186339E+00
        -11   -1    0    0    0    0  0.00000000000E+00  0.00000000000E+00  0.45593999997E+02  0.45594000000E+02  0.51100000000E-03 0.  1.
         11   -1    0    0    0    0 -0.00000000000E+00 -0.00000000000E+00 -0.45593999997E+02  0.45594000000E+02  0.51100000000E-03 0. -1.
    9900012    2    1    2    0    0 -0.97149384817E+00 -0.40907832628E+00  0.53099015912E+00  0.90007705154E+02  0.89999966062E+02 0.  0.
         12    1    1    2    0    0  0.97149384817E+00  0.40907832628E+00 -0.53099015912E+00  0.11802948459E+01  0.00000000000E+00 0. -1.
         11    1    3    3    0    0  0.19959793935E+01  0.14808057106E+01 -0.87658602223E+01  0.91113678990E+01  0.51100000000E-03 0. -1.
        -11    1    3    3    0    0 -0.59041175232E+01  0.28702293993E+02 -0.22296127904E+02  0.36821157015E+02  0.51100000000E-03 0.  1.
         12    1    3    3    0    0  0.29366442815E+01 -0.30592178030E+02  0.31592978285E+02  0.44075180240E+02  0.00000000000E+00 0. -1.
</event>
<event>
 7    1  0.2569312E-015  0.9000779E+02  0.7816164E-02  0.1186339E+00
        -11   -1    0    0    0    0  0.00000000000E+00  0.00000000000E+00  0.45593999997E+02  0.45594000000E+02  0.51100000000E-03 0.  1.
         11   -1    0    0    0    0 -0.00000000000E+00 -0.00000000000E+00 -0.45593999997E+02  0.45594000000E+02  0.51100000000E-03 0. -1.
    9900012    2    1    2    0    0  0.11116744634E+01  0.38921503479E+00  0.74805348937E-01  0.90007786335E+02  0.90000048314E+02 0.  0.
         12    1    1    2    0    0 -0.11116744634E+01 -0.38921503479E+00 -0.74805348937E-01  0.11802136655E+01  0.00000000000E+00 0. -1.
         11    1    3    3    0    0  0.18477596638E+02  0.12486858788E+02 -0.29621006110E+02  0.37077583836E+02  0.51100000000E-03 0. -1.
        -11    1    3    3    0    0 -0.21418000291E+01  0.24463047033E+01 -0.86187850169E+01  0.92116865717E+01  0.51100000000E-03 0.  1.
        -12    1    3    3    0    0 -0.15224122145E+02 -0.14543948456E+02  0.38314596475E+02  0.43718515927E+02  0.00000000000E+00 0.  1.
</event>
<event>
 7    1  0.2569312E-015  0.9000773E+02  0.7816164E-02  0.1186339E+00
        -11   -1    0    0    0    0  0.00000000000E+00  0.00000000000E+00  0.45593999997E+02  0.45594000000E+02  0.51100000000E-03 0.  1.
         11   -1    0    0    0    0 -0.00000000000E+00 -0.00000000000E+00 -0.45593999997E+02  0.45594000000E+02  0.51100000000E-03 0. -1.
    9900012    2    1    2    0    0 -0.10095701945E+01  0.59179139539E+00 -0.15357672474E+00  0.90007731029E+02  0.89999992279E+02 0.  0.
         12    1    1    2    0    0  0.10095701945E+01 -0.59179139539E+00  0.15357672474E+00  0.11802689709E+01  0.00000000000E+00 0. -1.
         11    1    3    3    0    0  0.76068041421E+01  0.14859649824E+01  0.62921979279E-01  0.77508399946E+01  0.51100000000E-03 0. -1.
        -11    1    3    3    0    0  0.18585242911E+02 -0.30599288787E+02  0.15511309194E+02  0.39017027584E+02  0.51100000000E-03 0.  1.
         12    1    3    3    0    0 -0.27201617247E+02  0.29705115200E+02 -0.15727807898E+02  0.43239863450E+02  0.00000000000E+00 0. -1.
</event>
<event>
 7    1  0.2569312E-015  0.9000776E+02  0.7816164E-02  0.1186339E+00
        -11   -1    0    0    0    0  0.00000000000E+00  0.00000000000E+00  0.45593999997E+02  0.45594000000E+02  0.51100000000E-03 0.  1.
         11   -1    0    0    0    0 -0.00000000000E+00 -0.00000000000E+00 -0.45593999997E+02  0.45594000000E+02  0.51100000000E-03 0. -1.
    9900012    2    1    2    0    0 -0.88498009129E+00 -0.74976954719E+00  0.21820055547E+00  0.90007764592E+02  0.90000026285E+02 0.  0.
         12    1    1    2    0    0  0.88498009129E+00  0.74976954719E+00 -0.21820055547E+00  0.11802354080E+01  0.00000000000E+00 0. -1.
         11    1    3    3    0    0 -0.33431730292E+02  0.27384186069E+02  0.63953518951E+01  0.43686093475E+02  0.51100000000E-03 0. -1.
        -11    1    3    3    0    0  0.54959140057E+01 -0.43164698186E+01  0.49926814191E+01  0.85885883862E+01  0.51100000000E-03 0.  1.
        -12    1    3    3    0    0  0.27050836195E+02 -0.23817485797E+02 -0.11169832759E+02  0.37733082731E+02  0.00000000000E+00 0.  1.
</event>
<event>
 7    1  0.2569312E-015  0.9000770E+02  0.7816164E-02  0.1186339E+00
        -11   -1    0    0    0    0  0.00000000000E+00  0.00000000000E+00  0.45593999997E+02  0.45594000000E+02  0.51100000000E-03 0.  1.
         11   -1    0    0    0    0 -0.00000000000E+00 -0.00000000000E+00 -0.45593999997E+02  0.45594000000E+02  0.51100000000E-03 0. -1.
    9900012    2    1    2    0    0  0.59445883322E-01  0.21108307269E+00  0.11597490870E+01  0.90007700114E+02  0.89999960955E+02 0.  0.
         12    1    1    2    0    0 -0.59445883322E-01 -0.21108307269E+00 -0.11597490870E+01  0.11802998862E+01  0.00000000000E+00 0. -1.
         11    1    3    3    0    0 -0.97817228043E+01 -0.20633239969E-01  0.28438819212E+01  0.10186765502E+02  0.51100000000E-03 0. -1.
        -11    1    3    3    0    0 -0.24972096742E+02  0.76034326801E+01  0.24374580348E+02  0.35714674458E+02  0.51100000000E-03 0.  1.
         12    1    3    3    0    0  0.34813265430E+02 -0.73717163675E+01 -0.26058713182E+02  0.44106260154E+02  0.00000000000E+00 0. -1.
</event>
<event>
 7    1  0.2569312E-015  0.9000743E+02  0.7816164E-02  0.1186340E+00
        -11   -1    0    0    0    0  0.00000000000E+00  0.00000000000E+00  0.45593999997E+02  0.45594000000E+02  0.51100000000E-03 0.  1.
         11   -1    0    0    0    0 -0.00000000000E+00 -0.00000000000E+00 -0.45593999997E+02  0.45594000000E+02  0.51100000000E-03 0. -1.
    9900012    2    1    2    0    0 -0.42559937640E+00  0.68031503267E+00  0.86589896875E+00  0.90007430478E+02  0.89999687759E+02 0.  0.
         12    1    1    2    0    0  0.42559937640E+00 -0.68031503267E+00 -0.86589896875E+00  0.11805695223E+01  0.00000000000E+00 0. -1.
         11    1    3    3    0    0 -0.15377960975E+01  0.14805799137E+02  0.23592968167E+02  0.27896319688E+02  0.51100000000E-03 0. -1.
        -11    1    3    3    0    0  0.15402309873E+01 -0.11435627116E+02  0.17952208691E+02  0.21340751537E+02  0.51100000000E-03 0.  1.
         12    1    3    3    0    0 -0.42803426618E+00 -0.26898569881E+01 -0.40679277890E+02  0.40770359253E+02  0.00000000000E+00 0. -1.
</event>
<event>
 7    1  0.2569312E-015  0.9000790E+02  0.7816164E-02  0.1186339E+00
        -11   -1    0    0    0    0  0.00000000000E+00  0.00000000000E+00  0.45593999997E+02  0.45594000000E+02  0.51100000000E-03 0.  1.
         11   -1    0    0    0    0 -0.00000000000E+00 -0.00000000000E+00 -0.45593999997E+02  0.45594000000E+02  0.51100000000E-03 0. -1.
    9900012    2    1    2    0    0  0.29484402924E+00  0.11015861275E+01  0.30364874507E+00  0.90007903581E+02  0.90000167108E+02 0.  0.
         12    1    1    2    0    0 -0.29484402924E+00 -0.11015861275E+01 -0.30364874507E+00  0.11800964190E+01  0.00000000000E+00 0. -1.
         11    1    3    3    0    0 -0.46371719486E+01  0.21316742461E+02 -0.35939129333E+02  0.42041977716E+02  0.51100000000E-03 0. -1.
        -11    1    3    3    0    0 -0.16923473561E+01  0.50119204834E+01  0.71340153260E+01  0.88813040393E+01  0.51100000000E-03 0.  1.
        -12    1    3    3    0    0  0.66243633339E+01 -0.25227076817E+02  0.29108762752E+02  0.39084621826E+02  0.00000000000E+00 0.  1.
</event>
<event>
 7    1  0.2569312E-015  0.9000779E+02  0.7816164E-02  0.1186339E+00
        -11   -1    0    0    0    0  0.00000000000E+00  0.00000000000E+00  0.45593999997E+02  0.45594000000E+02  0.51100000000E-03 0.  1.
         11   -1    0    0    0    0 -0.00000000000E+00 -0.00000000000E+00 -0.45593999997E+02  0.45594000000E+02  0.51100000000E-03 0. -1.
    9900012    2    1    2    0    0  0.64296423978E-01  0.36534974718E+00  0.11203906942E+01  0.90007792486E+02  0.90000054547E+02 0.  0.
         12    1    1    2    0    0 -0.64296423978E-01 -0.36534974718E+00 -0.11203906942E+01  0.11802075138E+01  0.00000000000E+00 0. -1.
         11    1    3    3    0    0  0.29745494094E+02  0.85987055415E+01  0.30815569873E+02  0.43684453788E+02  0.51100000000E-03 0. -1.
        -11    1    3    3    0    0 -0.55952265506E+01 -0.81967876620E+01 -0.29992704482E+01  0.10367714869E+02  0.51100000000E-03 0.  1.
        -12    1    3    3    0    0 -0.24085971119E+02 -0.36568132296E-01 -0.26695908731E+02  0.35955623829E+02  0.00000000000E+00 0.  1.
</event>
<event>
 7    1  0.2569312E-015  0.9000776E+02  0.7816164E-02  0.1186339E+00
        -11   -1    0    0    0    0  0.00000000000E+00  0.00000000000E+00  0.45593999997E+02  0.45594000000E+02  0.51100000000E-03 0.  1.
         11   -1    0    0    0    0 -0.00000000000E+00 -0.00000000000E+00 -0.45593999997E+02  0.45594000000E+02  0.51100000000E-03 0. -1.
    9900012    2    1    2    0    0  0.83337151795E-01 -0.51227304268E+00  0.10599972694E+01  0.90007761481E+02  0.90000023132E+02 0.  0.
         12    1    1    2    0    0 -0.83337151795E-01  0.51227304268E+00 -0.10599972694E+01  0.11802385192E+01  0.00000000000E+00 0. -1.
         11    1    3    3    0    0 -0.65359468002E+01  0.58255629099E+01  0.80421924559E+01  0.11888340656E+02  0.51100000000E-03 0. -1.
        -11    1    3    3    0    0 -0.83646384431E+01  0.33778010763E+02 -0.58137539948E+01  0.35280602647E+02  0.51100000000E-03 0.  1.
         12    1    3    3    0    0  0.14983922395E+02 -0.40115846715E+02 -0.11684411917E+01  0.42838818178E+02  0.00000000000E+00 0. -1.
</event>
<event>
 7    1  0.2569312E-015  0.9000780E+02  0.7816164E-02  0.1186339E+00
        -11   -1    0    0    0    0  0.00000000000E+00  0.00000000000E+00  0.45593999997E+02  0.45594000000E+02  0.51100000000E-03 0. -1.
         11   -1    0    0    0    0 -0.00000000000E+00 -0.00000000000E+00 -0.45593999997E+02  0.45594000000E+02  0.51100000000E-03 0.  1.
    9900012    2    1    2    0    0  0.10985263929E+01 -0.42493077417E+00 -0.74533710451E-01  0.90007795919E+02  0.90000058025E+02 0.  0.
         12    1    1    2    0    0 -0.10985263929E+01  0.42493077417E+00  0.74533710451E-01  0.11802040809E+01  0.00000000000E+00 0. -1.
         11    1    3    3    0    0 -0.46009304261E+01 -0.20340674215E+01 -0.78188231206E+01  0.92973107033E+01  0.51100000000E-03 0. -1.
        -11    1    3    3    0    0 -0.20404715046E+02 -0.17704534250E+02 -0.23382772286E+02  0.35728937420E+02  0.51100000000E-03 0.  1.
         12    1    3    3    0    0  0.26104171865E+02  0.19313670898E+02  0.31127061696E+02  0.44981547796E+02  0.00000000000E+00 0. -1.
</event>
<event>
 7    1  0.2569312E-015  0.9000804E+02  0.7816164E-02  0.1186338E+00
        -11   -1    0    0    0    0  0.00000000000E+00  0.00000000000E+00  0.45593999997E+02  0.45594000000E+02  0.51100000000E-03 0.  1.
         11   -1    0    0    0    0 -0.00000000000E+00 -0.00000000000E+00 -0.45593999997E+02  0.45594000000E+02  0.51100000000E-03 0. -1.
    9900012    2    1    2    0    0  0.10301066464E+01 -0.57300080043E+00 -0.53540784021E-01  0.90008035494E+02  0.90000300762E+02 0.  0.
         12    1    1    2    0    0 -0.10301066464E+01  0.57300080043E+00  0.53540784021E-01  0.11799645062E+01  0.00000000000E+00 0. -1.
         11    1    3    3    0    0  0.59029101689E+01  0.10207562421E+02  0.92906962944E+01  0.15011852549E+02  0.51100000000E-03 0. -1.
        -11    1    3    3    0    0  0.83910712339E+01  0.27969610184E+02  0.83627531990E+01  0.30375068916E+02  0.51100000000E-03 0.  1.
        -12    1    3    3    0    0 -0.13263874756E+02 -0.38750173406E+02 -0.17706990277E+02  0.44621114029E+02  0.00000000000E+00 0.  1.
</event>
<event>
 7    1  0.2569312E-015  0.9000772E+02  0.7816164E-02  0.1186339E+00
        -11   -1    0    0    0    0  0.00000000000E+00  0.00000000000E+00  0.45593999997E+02  0.45594000000E+02  0.51100000000E-03 0.  1.
         11   -1    0    0    0    0 -0.00000000000E+00 -0.00000000000E+00 -0.45593999997E+02  0.45594000000E+02  0.51100000000E-03 0. -1.
    9900012    2    1    2    0    0 -0.11677823184E+01 -0.14549450852E-01  0.17071201774E+00  0.90007716211E+02  0.89999977265E+02 0.  0.
         12    1    1    2    0    0  0.11677823184E+01  0.14549450852E-01 -0.17071201774E+00  0.11802837891E+01  0.00000000000E+00 0. -1.
         11    1    3    3    0    0  0.18822897694E+01  0.35942473880E+02  0.92409796226E+01  0.37159119312E+02  0.51100000000E-03 0. -1.
        -11    1    3    3    0    0 -0.73478543961E+01  0.57508800164E+01  0.18693830985E+01  0.95162061043E+01  0.51100000000E-03 0.  1.
        -12    1    3    3    0    0  0.42977823083E+01 -0.41707903348E+02 -0.10939650703E+02  0.43332390794E+02  0.00000000000E+00 0.  1.
</event>
<event>
 7    1  0.2569312E-015  0.9000779E+02  0.7816164E-02  0.1186339E+00
        -11   -1    0    0    0    0  0.00000000000E+00  0.00000000000E+00  0.45593999997E+02  0.45594000000E+02  0.51100000000E-03 0.  1.
         11   -1    0    0    0    0 -0.00000000000E+00 -0.00000000000E+00 -0.45593999997E+02  0.45594000000E+02  0.51100000000E-03 0. -1.
    9900012    2    1    2    0    0 -0.96688641050E+00  0.96678533827E-01  0.66982902777E+00  0.90007793664E+02  0.90000055740E+02 0.  0.
         12    1    1    2    0    0  0.96688641050E+00 -0.96678533827E-01 -0.66982902777E+00  0.11802063363E+01  0.00000000000E+00 0. -1.
         11    1    3    3    0    0 -0.80227119080E+01  0.58816956991E+01  0.62384498770E+01  0.11742082770E+02  0.51100000000E-03 0. -1.
        -11    1    3    3    0    0 -0.11749496322E+02  0.24375339249E+02  0.20700190137E+02  0.34069131179E+02  0.51100000000E-03 0.  1.
         12    1    3    3    0    0  0.18805321819E+02 -0.30160356415E+02 -0.26268810986E+02  0.44196579714E+02  0.00000000000E+00 0. -1.
</event>
<event>
 7    1  0.2569312E-015  0.9000788E+02  0.7816164E-02  0.1186339E+00
        -11   -1    0    0    0    0  0.00000000000E+00  0.00000000000E+00  0.45593999997E+02  0.45594000000E+02  0.51100000000E-03 0.  1.
         11   -1    0    0    0    0 -0.00000000000E+00 -0.00000000000E+00 -0.45593999997E+02  0.45594000000E+02  0.51100000000E-03 0. -1.
    9900012    2    1    2    0    0 -0.10597561549E+01 -0.51665283110E+00  0.51702160455E-01  0.90007878663E+02  0.90000141862E+02 0.  0.
         12    1    1    2    0    0  0.10597561549E+01  0.51665283110E+00 -0.51702160455E-01  0.11801213366E+01  0.00000000000E+00 0. -1.
         11    1    3    3    0    0  0.74813099269E+01 -0.16254203398E+02 -0.24446512597E+02  0.30295232376E+02  0.51100000000E-03 0. -1.
        -11    1    3    3    0    0 -0.21294227158E+02  0.30959136144E+01 -0.76928145011E+01  0.22851874903E+02  0.51100000000E-03 0.  1.
        -12    1    3    3    0    0  0.12753161077E+02  0.12641636953E+02  0.32191029258E+02  0.36860771384E+02  0.00000000000E+00 0.  1.
</event>
<event>
 7    1  0.2569312E-015  0.9000805E+02  0.7816164E-02  0.1186338E+00
        -11   -1    0    0    0    0  0.00000000000E+00  0.00000000000E+00  0.45593999997E+02  0.45594000000E+02  0.51100000000E-03 0.  1.
         11   -1    0    0    0    0 -0.00000000000E+00 -0.00000000000E+00 -0.45593999997E+02  0.45594000000E+02  0.51100000000E-03 0. -1.
    9900012    2    1    2    0    0  0.57778072747E+00  0.10267808158E+01  0.64608519978E-01  0.90008049292E+02  0.90000314742E+02 0.  0.
         12    1    1    2    0    0 -0.57778072747E+00 -0.10267808158E+01 -0.64608519978E-01  0.11799507081E+01  0.00000000000E+00 0. -1.
         11    1    3    3    0    0 -0.39368756919E+02 -0.47714196049E+00  0.87977984155E+01  0.40342631831E+02  0.51100000000E-03 0. -1.
        -11    1    3    3    0    0  0.44090360282E+01 -0.19161287520E+01  0.86960892349E+01  0.99364539115E+01  0.51100000000E-03 0.  1.
        -12    1    3    3    0    0  0.35537501618E+02  0.34200515282E+01 -0.17429279130E+02  0.39728963550E+02  0.00000000000E+00 0.  1.
</event>
<event>
 7    1  0.2569312E-015  0.9000787E+02  0.7816164E-02  0.1186339E+00
        -11   -1    0    0    0    0  0.00000000000E+00  0.00000000000E+00  0.45593999997E+02  0.45594000000E+02  0.51100000000E-03 0.  1.
         11   -1    0    0    0    0 -0.00000000000E+00 -0.00000000000E+00 -0.45593999997E+02  0.45594000000E+02  0.51100000000E-03 0. -1.
    9900012    2    1    2    0    0 -0.55445792009E+00 -0.30700065851E+00  0.99551123646E+00  0.90007866274E+02  0.90000129309E+02 0.  0.
         12    1    1    2    0    0  0.55445792009E+00  0.30700065851E+00 -0.99551123646E+00  0.11801337261E+01  0.00000000000E+00 0. -1.
         11    1    3    3    0    0 -0.27894105443E+02  0.17385578712E+02 -0.15573005672E+02  0.36371114521E+02  0.51100000000E-03 0. -1.
        -11    1    3    3    0    0 -0.84076896301E+01  0.38684224211E+01  0.34649135965E+01  0.98822853347E+01  0.51100000000E-03 0.  1.
        -12    1    3    3    0    0  0.35747337153E+02 -0.21561001791E+02  0.13103603312E+02  0.43754466418E+02  0.00000000000E+00 0.  1.
</event>
<event>
 7    1  0.2569312E-015  0.9000773E+02  0.7816164E-02  0.1186339E+00
        -11   -1    0    0    0    0  0.00000000000E+00  0.00000000000E+00  0.45593999997E+02  0.45594000000E+02  0.51100000000E-03 0.  1.
         11   -1    0    0    0    0 -0.00000000000E+00 -0.00000000000E+00 -0.45593999997E+02  0.45594000000E+02  0.51100000000E-03 0. -1.
    9900012    2    1    2    0    0  0.11199278185E+01 -0.19912780744E+00  0.31486820895E+00  0.90007732153E+02  0.89999993417E+02 0.  0.
         12    1    1    2    0    0 -0.11199278185E+01  0.19912780744E+00 -0.31486820895E+00  0.11802678473E+01  0.00000000000E+00 0. -1.
         11    1    3    3    0    0 -0.18014238114E+02  0.15688352399E+02 -0.27636897815E+02  0.36529923309E+02  0.51100000000E-03 0. -1.
        -11    1    3    3    0    0  0.29051946004E+00  0.50990475803E+01 -0.69369190679E+01  0.86142634159E+01  0.51100000000E-03 0.  1.
        -12    1    3    3    0    0  0.18843646472E+02 -0.20986527787E+02  0.34888685092E+02  0.44863545428E+02  0.00000000000E+00 0.  1.
</event>
<event>
 7    1  0.2569312E-015  0.9000763E+02  0.7816164E-02  0.1186339E+00
        -11   -1    0    0    0    0  0.00000000000E+00  0.00000000000E+00  0.45593999997E+02  0.45594000000E+02  0.51100000000E-03 0. -1.
         11   -1    0    0    0    0 -0.00000000000E+00 -0.00000000000E+00 -0.45593999997E+02  0.45594000000E+02  0.51100000000E-03 0.  1.
    9900012    2    1    2    0    0 -0.11316115272E+01  0.33540014905E+00  0.15556106758E-01  0.90007627220E+02  0.89999887099E+02 0.  0.
         12    1    1    2    0    0  0.11316115272E+01 -0.33540014905E+00 -0.15556106758E-01  0.11803727805E+01  0.00000000000E+00 0. -1.
         11    1    3    3    0    0 -0.18289388934E+01 -0.31699500620E+01 -0.10326153604E+02  0.10955503155E+02  0.51100000000E-03 0. -1.
        -11    1    3    3    0    0  0.39050904249E+02 -0.41147414872E+01  0.54927427093E+01  0.39649393979E+02  0.51100000000E-03 0.  1.
         12    1    3    3    0    0 -0.38353576883E+02  0.76200916983E+01  0.48489670017E+01  0.39402730085E+02  0.00000000000E+00 0. -1.
</event>
<event>
 7    1  0.2569312E-015  0.9000777E+02  0.7816164E-02  0.1186339E+00
        -11   -1    0    0    0    0  0.00000000000E+00  0.00000000000E+00  0.45593999997E+02  0.45594000000E+02  0.51100000000E-03 0.  1.
         11   -1    0    0    0    0 -0.00000000000E+00 -0.00000000000E+00 -0.45593999997E+02  0.45594000000E+02  0.51100000000E-03 0. -1.
    9900012    2    1    2    0    0  0.10156271661E+01  0.44566751320E+00 -0.40352588972E+00  0.90007766457E+02  0.90000028174E+02 0.  0.
         12    1    1    2    0    0 -0.10156271661E+01 -0.44566751320E+00  0.40352588972E+00  0.11802335432E+01  0.00000000000E+00 0. -1.
         11    1    3    3    0    0  0.92294037812E+01  0.28502949281E+02 -0.23634506619E+02  0.38160056542E+02  0.51100000000E-03 0. -1.
        -11    1    3    3    0    0  0.77065646758E+01  0.53040091967E+01  0.39364058901E+01  0.10149824839E+02  0.51100000000E-03 0.  1.
        -12    1    3    3    0    0 -0.15920341291E+02 -0.33361290964E+02  0.19294574839E+02  0.41697885077E+02  0.00000000000E+00 0.  1.
</event>
<event>
 7    1  0.2569312E-015  0.9000773E+02  0.7816164E-02  0.1186339E+00
        -11   -1    0    0    0    0  0.00000000000E+00  0.00000000000E+00  0.45593999997E+02  0.45594000000E+02  0.51100000000E-03 0. -1.
         11   -1    0    0    0    0 -0.00000000000E+00 -0.00000000000E+00 -0.45593999997E+02  0.45594000000E+02  0.51100000000E-03 0.  1.
    9900012    2    1    2    0    0  0.99114020939E-01 -0.89212072256E+00  0.76637484016E+00  0.90007731654E+02  0.89999992912E+02 0.  0.
         12    1    1    2    0    0 -0.99114020939E-01  0.89212072256E+00 -0.76637484016E+00  0.11802683459E+01  0.00000000000E+00 0. -1.
         11    1    3    3    0    0  0.44820885527E+01  0.28515366537E+01  0.86334623459E+01  0.10136915281E+02  0.51100000000E-03 0. -1.
        -11    1    3    3    0    0 -0.16032440172E+02  0.23387349517E+02  0.23474838133E+02  0.36811347176E+02  0.51100000000E-03 0.  1.
         12    1    3    3    0    0  0.11649465640E+02 -0.27131006893E+02 -0.31341925639E+02  0.43059469197E+02  0.00000000000E+00 0. -1.
</event>
<event>
 7    1  0.2569312E-015  0.9000771E+02  0.7816164E-02  0.1186339E+00
        -11   -1    0    0    0    0  0.00000000000E+00  0.00000000000E+00  0.45593999997E+02  0.45594000000E+02  0.51100000000E-03 0. -1.
         11   -1    0    0    0    0 -0.00000000000E+00 -0.00000000000E+00 -0.45593999997E+02  0.45594000000E+02  0.51100000000E-03 0.  1.
    9900012    2    1    2    0    0  0.16272098152E+00  0.11553856712E+01 -0.17801972600E+00  0.90007709701E+02  0.89999970669E+02 0.  0.
         12    1    1    2    0    0 -0.16272098152E+00 -0.11553856712E+01  0.17801972600E+00  0.11802902990E+01  0.00000000000E+00 0. -1.
         11    1    3    3    0    0  0.28902583946E+02  0.14630864431E+02 -0.19037695275E+02  0.37574664262E+02  0.51100000000E-03 0. -1.
        -11    1    3    3    0    0 -0.10367802946E+00 -0.35811609286E+00 -0.98245517146E+01  0.98316231073E+01  0.51100000000E-03 0.  1.
        -12    1    3    3    0    0 -0.28636184935E+02 -0.13117362667E+02  0.28684227263E+02  0.42601422332E+02  0.00000000000E+00 0.  1.
</event>
<event>
 7    1  0.2569312E-015  0.9000736E+02  0.7816164E-02  0.1186340E+00
        -11   -1    0    0    0    0  0.00000000000E+00  0.00000000000E+00  0.45593999997E+02  0.45594000000E+02  0.51100000000E-03 0.  1.
         11   -1    0    0    0    0 -0.00000000000E+00 -0.00000000000E+00 -0.45593999997E+02  0.45594000000E+02  0.51100000000E-03 0. -1.
    9900012    2    1    2    0    0  0.45954297644E+00  0.90573248095E-01  0.10837580738E+01  0.90007358300E+02  0.89999614629E+02 0.  0.
         12    1    1    2    0    0 -0.45954297644E+00 -0.90573248095E-01 -0.10837580738E+01  0.11806416996E+01  0.00000000000E+00 0. -1.
         11    1    3    3    0    0 -0.11860319817E+02 -0.51138543031E+01 -0.34833859573E+02  0.37151264649E+02  0.51100000000E-03 0. -1.
        -11    1    3    3    0    0 -0.91335973360E+01  0.33588803595E+01 -0.13402420483E+01  0.98234885135E+01  0.51100000000E-03 0.  1.
        -12    1    3    3    0    0  0.21453460129E+02  0.18455471917E+01  0.37257859695E+02  0.43032605138E+02  0.00000000000E+00 0.  1.
</event>
<event>
 7    1  0.2569312E-015  0.9000769E+02  0.7816164E-02  0.1186339E+00
        -11   -1    0    0    0    0  0.00000000000E+00  0.00000000000E+00  0.45593999997E+02  0.45594000000E+02  0.51100000000E-03 0.  1.
         11   -1    0    0    0    0 -0.00000000000E+00 -0.00000000000E+00 -0.45593999997E+02  0.45594000000E+02  0.51100000000E-03 0. -1.
    9900012    2    1    2    0    0 -0.73789118087E+00  0.73543502961E+00  0.55478678807E+00  0.90007687983E+02  0.89999948664E+02 0.  0.
         12    1    1    2    0    0  0.73789118087E+00 -0.73543502961E+00 -0.55478678807E+00  0.11803120171E+01  0.00000000000E+00 0. -1.
         11    1    3    3    0    0  0.27755341209E+02 -0.42422776373E+01 -0.31607140794E+02  0.42277266168E+02  0.51100000000E-03 0. -1.
        -11    1    3    3    0    0 -0.60834415255E+01 -0.69078072557E+01  0.46628521611E+01  0.10318345430E+02  0.51100000000E-03 0.  1.
        -12    1    3    3    0    0 -0.22409790865E+02  0.11885519923E+02  0.27499075421E+02  0.37412076385E+02  0.00000000000E+00 0.  1.
</event>
<event>
 7    1  0.2569312E-015  0.9000769E+02  0.7816164E-02  0.1186339E+00
        -11   -1    0    0    0    0  0.00000000000E+00  0.00000000000E+00  0.45593999997E+02  0.45594000000E+02  0.51100000000E-03 0. -1.
         11   -1    0    0    0    0 -0.00000000000E+00 -0.00000000000E+00 -0.45593999997E+02  0.45594000000E+02  0.51100000000E-03 0.  1.
    9900012    2    1    2    0    0  0.81329879261E+00 -0.42547280982E+00 -0.74206429933E+00  0.90007685863E+02  0.89999946516E+02 0.  0.
         12    1    1    2    0    0 -0.81329879261E+00  0.42547280982E+00  0.74206429933E+00  0.11803141371E+01  0.00000000000E+00 0. -1.
         11    1    3    3    0    0 -0.51818767346E+01 -0.32633545695E+02  0.20639724128E+02  0.38958931754E+02  0.51100000000E-03 0. -1.
        -11    1    3    3    0    0  0.37958156901E+01 -0.65062374196E+01 -0.43301675072E+01  0.86884804779E+01  0.51100000000E-03 0.  1.
        -12    1    3    3    0    0  0.21993598372E+01  0.38714310305E+02 -0.17051620920E+02  0.42360273631E+02  0.00000000000E+00 0.  1.
</event>
<event>
 7    1  0.2569312E-015  0.9000774E+02  0.7816164E-02  0.1186339E+00
        -11   -1    0    0    0    0  0.00000000000E+00  0.00000000000E+00  0.45593999997E+02  0.45594000000E+02  0.51100000000E-03 0.  1.
         11   -1    0    0    0    0 -0.00000000000E+00 -0.00000000000E+00 -0.45593999997E+02  0.45594000000E+02  0.51100000000E-03 0. -1.
    9900012    2    1    2    0    0 -0.71702363878E+00  0.30855785015E+00  0.88525427030E+00  0.90007743262E+02  0.90000004673E+02 0.  0.
         12    1    1    2    0    0  0.71702363878E+00 -0.30855785015E+00 -0.88525427030E+00  0.11802567384E+01  0.00000000000E+00 0. -1.
         11    1    3    3    0    0 -0.61045102540E+00 -0.83800849145E+01 -0.54128207164E+01  0.99948537757E+01  0.51100000000E-03 0. -1.
        -11    1    3    3    0    0  0.10097747355E+02 -0.18929347267E+02  0.33596317791E+02  0.39862228475E+02  0.51100000000E-03 0.  1.
         12    1    3    3    0    0 -0.10204319968E+02  0.27617990032E+02 -0.27298242804E+02  0.40150661011E+02  0.00000000000E+00 0. -1.
</event>
<event>
 7    1  0.2569312E-015  0.9000771E+02  0.7816164E-02  0.1186339E+00
        -11   -1    0    0    0    0  0.00000000000E+00  0.00000000000E+00  0.45593999997E+02  0.45594000000E+02  0.51100000000E-03 0. -1.
         11   -1    0    0    0    0 -0.00000000000E+00 -0.00000000000E+00 -0.45593999997E+02  0.45594000000E+02  0.51100000000E-03 0.  1.
    9900012    2    1    2    0    0  0.10394012670E+01 -0.37321098776E-01  0.55797697714E+00  0.90007709288E+02  0.89999970250E+02 0.  0.
         12    1    1    2    0    0 -0.10394012670E+01  0.37321098776E-01 -0.55797697714E+00  0.11802907122E+01  0.00000000000E+00 0. -1.
         11    1    3    3    0    0 -0.74076904890E+01 -0.40851314400E+01 -0.14839772025E+01  0.85886183907E+01  0.51100000000E-03 0. -1.
        -11    1    3    3    0    0  0.38151012665E+01 -0.64559852443E+01 -0.38530690807E+02  0.39253647951E+02  0.51100000000E-03 0.  1.
         12    1    3    3    0    0  0.46319904895E+01  0.10503795586E+02  0.40572644987E+02  0.42165442946E+02  0.00000000000E+00 0. -1.
</event>
<event>
 7    1  0.2569312E-015  0.9000797E+02  0.7816164E-02  0.1186339E+00
        -11   -1    0    0    0    0  0.00000000000E+00  0.00000000000E+00  0.45593999997E+02  0.45594000000E+02  0.51100000000E-03 0.  1.
         11   -1    0    0    0    0 -0.00000000000E+00 -0.00000000000E+00 -0.45593999997E+02  0.45594000000E+02  0.51100000000E-03 0. -1.
    9900012    2    1    2    0    0  0.10012776110E+01  0.62434785285E+00  0.98365602509E-02  0.90007972944E+02  0.90000237386E+02 0.  0.
         12    1    1    2    0    0 -0.10012776110E+01 -0.62434785285E+00 -0.98365602509E-02  0.11800270563E+01  0.00000000000E+00 0. -1.
         11    1    3    3    0    0 -0.27129982417E+02  0.14104985783E+02 -0.21751540519E+02  0.37524872886E+02  0.51100000000E-03 0. -1.
        -11    1    3    3    0    0 -0.81187706251E+01  0.43897616922E-01  0.54484400173E-01  0.81190721314E+01  0.51100000000E-03 0.  1.
        -12    1    3    3    0    0  0.36250030653E+02 -0.13524535547E+02  0.21706892679E+02  0.44364027927E+02  0.00000000000E+00 0.  1.
</event>
<event>
 7    1  0.2569312E-015  0.9000771E+02  0.7816164E-02  0.1186339E+00
        -11   -1    0    0    0    0  0.00000000000E+00  0.00000000000E+00  0.45593999997E+02  0.45594000000E+02  0.51100000000E-03 0.  1.
         11   -1    0    0    0    0 -0.00000000000E+00 -0.00000000000E+00 -0.45593999997E+02  0.45594000000E+02  0.51100000000E-03 0. -1.
    9900012    2    1    2    0    0 -0.19373588258E+00 -0.73356720243E+00  0.90411443128E+00  0.90007713027E+02  0.89999974039E+02 0.  0.
         12    1    1    2    0    0  0.19373588258E+00  0.73356720243E+00 -0.90411443128E+00  0.11802869725E+01  0.00000000000E+00 0. -1.
         11    1    3    3    0    0  0.85168151867E+01  0.39144252765E+01 -0.38510268474E+01  0.10133571641E+02  0.51100000000E-03 0. -1.
        -11    1    3    3    0    0  0.12126882727E+02  0.56460308112E+01  0.37445998307E+02  0.39763573004E+02  0.51100000000E-03 0.  1.
         12    1    3    3    0    0 -0.20837433797E+02 -0.10294023290E+02 -0.32690857028E+02  0.40110568382E+02  0.00000000000E+00 0. -1.
</event>
<event>
 7    1  0.2569312E-015  0.9000769E+02  0.7816164E-02  0.1186339E+00
        -11   -1    0    0    0    0  0.00000000000E+00  0.00000000000E+00  0.45593999997E+02  0.45594000000E+02  0.51100000000E-03 0.  1.
         11   -1    0    0    0    0 -0.00000000000E+00 -0.00000000000E+00 -0.45593999997E+02  0.45594000000E+02  0.51100000000E-03 0. -1.
    9900012    2    1    2    0    0 -0.80112509727E+00  0.61059496539E+00  0.61522743177E+00  0.90007689691E+02  0.89999950395E+02 0.  0.
         12    1    1    2    0    0  0.80112509727E+00 -0.61059496539E+00 -0.61522743177E+00  0.11803103092E+01  0.00000000000E+00 0. -1.
         11    1    3    3    0    0  0.73449164617E+01  0.40239342152E-01 -0.57370967148E+01  0.93200695282E+01  0.51100000000E-03 0. -1.
        -11    1    3    3    0    0  0.35686630097E+02 -0.10029414875E+01 -0.30483012068E+01  0.35830623771E+02  0.51100000000E-03 0.  1.
         12    1    3    3    0    0 -0.43832671656E+02  0.15732971107E+01  0.94006253534E+01  0.44856996392E+02  0.00000000000E+00 0. -1.
</event>
<event>
 7    1  0.2569312E-015  0.9000775E+02  0.7816164E-02  0.1186339E+00
        -11   -1    0    0    0    0  0.00000000000E+00  0.00000000000E+00  0.45593999997E+02  0.45594000000E+02  0.51100000000E-03 0.  1.
         11   -1    0    0    0    0 -0.00000000000E+00 -0.00000000000E+00 -0.45593999997E+02  0.45594000000E+02  0.51100000000E-03 0. -1.
    9900012    2    1    2    0    0  0.65137798083E+00  0.30960939706E+00  0.93425546526E+00  0.90007752345E+02  0.90000013876E+02 0.  0.
         12    1    1    2    0    0 -0.65137798083E+00 -0.30960939706E+00 -0.93425546526E+00  0.11802476550E+01  0.00000000000E+00 0. -1.
         11    1    3    3    0    0 -0.57519302017E+00 -0.67160754132E+01  0.15328526314E+00  0.67424040668E+01  0.51100000000E-03 0. -1.
        -11    1    3    3    0    0  0.82469389402E+01 -0.35788081663E+02  0.11667560406E+02  0.38534799300E+02  0.51100000000E-03 0.  1.
         12    1    3    3    0    0 -0.70203679392E+01  0.42813766473E+02 -0.10886590204E+02  0.44730548978E+02  0.00000000000E+00 0. -1.
</event>
<event>
 7    1  0.2569312E-015  0.9000819E+02  0.7816164E-02  0.1186338E+00
        -11   -1    0    0    0    0  0.00000000000E+00  0.00000000000E+00  0.45593999997E+02  0.45594000000E+02  0.51100000000E-03 0. -1.
         11   -1    0    0    0    0 -0.00000000000E+00 -0.00000000000E+00 -0.45593999997E+02  0.45594000000E+02  0.51100000000E-03 0.  1.
    9900012    2    1    2    0    0 -0.88367887522E+00  0.72885756945E+00 -0.28255771745E+00  0.90008186212E+02  0.90000453469E+02 0.  0.
         12    1    1    2    0    0  0.88367887522E+00 -0.72885756945E+00  0.28255771745E+00  0.11798137882E+01  0.00000000000E+00 0. -1.
         11    1    3    3    0    0 -0.10728307249E+02  0.75594873815E+01 -0.41930663659E+01  0.13777671491E+02  0.51100000000E-03 0. -1.
        -11    1    3    3    0    0  0.13736572402E+02 -0.21820257048E+02 -0.29635644700E+02  0.39282164860E+02  0.51100000000E-03 0.  1.
         12    1    3    3    0    0 -0.38919440279E+01  0.14989627236E+02  0.33546153349E+02  0.36948349862E+02  0.00000000000E+00 0. -1.
</event>
<event>
 7    1  0.2569312E-015  0.9000773E+02  0.7816164E-02  0.1186339E+00
        -11   -1    0    0    0    0  0.00000000000E+00  0.00000000000E+00  0.45593999997E+02  0.45594000000E+02  0.51100000000E-03 0. -1.
         11   -1    0    0    0    0 -0.00000000000E+00 -0.00000000000E+00 -0.45593999997E+02  0.45594000000E+02  0.51100000000E-03 0.  1.
    9900012    2    1    2    0    0 -0.65154240573E-01 -0.61545321300E+00 -0.10049980256E+01  0.90007725132E+02  0.89999986304E+02 0.  0.
         12    1    1    2    0    0  0.65154240573E-01  0.61545321300E+00  0.10049980256E+01  0.11802748679E+01  0.00000000000E+00 0. -1.
         11    1    3    3    0    0  0.52332457861E+01  0.91189218425E+00 -0.12025189368E+02  0.13146238565E+02  0.51100000000E-03 0. -1.
        -11    1    3    3    0    0 -0.70951051266E+00 -0.37673050446E+02 -0.30507964620E+01  0.37803035519E+02  0.51100000000E-03 0.  1.
         12    1    3    3    0    0 -0.45888895140E+01  0.36145705049E+02  0.14070987805E+02  0.39058451048E+02  0.00000000000E+00 0. -1.
</event>
<event>
 7    1  0.2569312E-015  0.9000777E+02  0.7816164E-02  0.1186339E+00
        -11   -1    0    0    0    0  0.00000000000E+00  0.00000000000E+00  0.45593999997E+02  0.45594000000E+02  0.51100000000E-03 0.  1.
         11   -1    0    0    0    0 -0.00000000000E+00 -0.00000000000E+00 -0.45593999997E+02  0.45594000000E+02  0.51100000000E-03 0. -1.
    9900012    2    1    2    0    0 -0.84053341841E-01 -0.63846118090E+00  0.98906256613E+00  0.90007770190E+02  0.90000031957E+02 0.  0.
         12    1    1    2    0    0  0.84053341841E-01  0.63846118090E+00 -0.98906256613E+00  0.11802298096E+01  0.00000000000E+00 0. -1.
         11    1    3    3    0    0 -0.26367872797E+02  0.16874601289E+02 -0.19316475509E+02  0.36785093596E+02  0.51100000000E-03 0. -1.
        -11    1    3    3    0    0 -0.58481223659E+01 -0.64279238074E+01 -0.57280014750E+01  0.10408109379E+02  0.51100000000E-03 0.  1.
        -12    1    3    3    0    0  0.32131941821E+02 -0.11085138663E+02  0.26033539550E+02  0.42814567216E+02  0.00000000000E+00 0.  1.
</event>
<event>
 7    1  0.2569312E-015  0.9000793E+02  0.7816164E-02  0.1186339E+00
        -11   -1    0    0    0    0  0.00000000000E+00  0.00000000000E+00  0.45593999997E+02  0.45594000000E+02  0.51100000000E-03 0.  1.
         11   -1    0    0    0    0 -0.00000000000E+00 -0.00000000000E+00 -0.45593999997E+02  0.45594000000E+02  0.51100000000E-03 0. -1.
    9900012    2    1    2    0    0  0.49790675201E+00  0.13292115466E+00  0.10615991870E+01  0.90007927121E+02  0.90000190958E+02 0.  0.
         12    1    1    2    0    0 -0.49790675201E+00 -0.13292115466E+00 -0.10615991870E+01  0.11800728795E+01  0.00000000000E+00 0. -1.
         11    1    3    3    0    0  0.57591797473E+01  0.41355959236E+01 -0.70156064842E+01  0.99744693898E+01  0.51100000000E-03 0. -1.
        -11    1    3    3    0    0  0.26659353817E+02  0.16182540547E+02  0.23692370489E+02  0.39165344173E+02  0.51100000000E-03 0.  1.
         12    1    3    3    0    0 -0.31920626813E+02 -0.20185215316E+02 -0.15615164818E+02  0.40868113558E+02  0.00000000000E+00 0. -1.
</event>
<event>
 7    1  0.2569312E-015  0.9000844E+02  0.7816164E-02  0.1186338E+00
        -11   -1    0    0    0    0  0.00000000000E+00  0.00000000000E+00  0.45593999997E+02  0.45594000000E+02  0.51100000000E-03 0.  1.
         11   -1    0    0    0    0 -0.00000000000E+00 -0.00000000000E+00 -0.45593999997E+02  0.45594000000E+02  0.51100000000E-03 0. -1.
    9900012    2    1    2    0    0 -0.22222419481E+00 -0.11536325773E+01  0.10545750371E+00  0.90008435249E+02  0.90000705792E+02 0.  0.
         12    1    1    2    0    0  0.22222419481E+00  0.11536325773E+01 -0.10545750371E+00  0.11795647507E+01  0.00000000000E+00 0. -1.
         11    1    3    3    0    0  0.19786474481E+02  0.11151816022E+02 -0.22154174346E+02  0.31728142306E+02  0.51100000000E-03 0. -1.
        -11    1    3    3    0    0 -0.11372826092E+02  0.11228596356E+02 -0.88963862251E+01  0.18291206564E+02  0.51100000000E-03 0.  1.
        -12    1    3    3    0    0 -0.86358725833E+01 -0.23534044955E+02  0.31156018075E+02  0.39989086380E+02  0.00000000000E+00 0.  1.
</event>
<event>
 7    1  0.2569312E-015  0.9000767E+02  0.7816164E-02  0.1186339E+00
        -11   -1    0    0    0    0  0.00000000000E+00  0.00000000000E+00  0.45593999997E+02  0.45594000000E+02  0.51100000000E-03 0. -1.
         11   -1    0    0    0    0 -0.00000000000E+00 -0.00000000000E+00 -0.45593999997E+02  0.45594000000E+02  0.51100000000E-03 0.  1.
    9900012    2    1    2    0    0 -0.29429577079E+00 -0.22500232116E+00 -0.11206900000E+01  0.90007668639E+02  0.89999929065E+02 0.  0.
         12    1    1    2    0    0  0.29429577079E+00  0.22500232116E+00  0.11206900000E+01  0.11803313608E+01  0.00000000000E+00 0. -1.
         11    1    3    3    0    0  0.40116445117E+01 -0.65631940313E+01 -0.61744252038E+01  0.98636876694E+01  0.51100000000E-03 0.  1.
        -11    1    3    3    0    0 -0.32953120451E+02  0.10971716215E+02  0.26809253620E+02  0.43875081586E+02  0.51100000000E-03 0. -1.
         12    1    3    3    0    0  0.28647180169E+02 -0.46335245051E+01 -0.21755518416E+02  0.36268899384E+02  0.00000000000E+00 0. -1.
</event>
<event>
 7    1  0.2569312E-015  0.9000756E+02  0.7816164E-02  0.1186339E+00
        -11   -1    0    0    0    0  0.00000000000E+00  0.00000000000E+00  0.45593999997E+02  0.45594000000E+02  0.51100000000E-03 0.  1.
         11   -1    0    0    0    0 -0.00000000000E+00 -0.00000000000E+00 -0.45593999997E+02  0.45594000000E+02  0.51100000000E-03 0. -1.
    9900012    2    1    2    0    0 -0.40366611931E+00 -0.10950314680E+01 -0.17719036992E+00  0.90007560811E+02  0.89999819814E+02 0.  0.
         12    1    1    2    0    0  0.40366611931E+00  0.10950314680E+01  0.17719036992E+00  0.11804391890E+01  0.00000000000E+00 0. -1.
         11    1    3    3    0    0  0.24614797200E+02  0.34146263976E+02  0.57927515291E+01  0.42490134799E+02  0.51100000000E-03 0. -1.
        -11    1    3    3    0    0 -0.36284853176E+00 -0.40533804907E+01 -0.66023622111E+01  0.77558197173E+01  0.51100000000E-03 0.  1.
        -12    1    3    3    0    0 -0.24655614787E+02 -0.31187914953E+02  0.63242031206E+00  0.39761606295E+02  0.00000000000E+00 0.  1.
</event>
<event>
 7    1  0.2569312E-015  0.9000774E+02  0.7816164E-02  0.1186339E+00
        -11   -1    0    0    0    0  0.00000000000E+00  0.00000000000E+00  0.45593999997E+02  0.45594000000E+02  0.51100000000E-03 0. -1.
         11   -1    0    0    0    0 -0.00000000000E+00 -0.00000000000E+00 -0.45593999997E+02  0.45594000000E+02  0.51100000000E-03 0.  1.
    9900012    2    1    2    0    0  0.83714229938E+00 -0.24152007970E+00 -0.79615766983E+00  0.90007743158E+02  0.90000004567E+02 0.  0.
         12    1    1    2    0    0 -0.83714229938E+00  0.24152007970E+00  0.79615766983E+00  0.11802568422E+01  0.00000000000E+00 0. -1.
         11    1    3    3    0    0 -0.24664308739E+02  0.73096786361E+01 -0.27053026030E+02  0.37331297124E+02  0.51100000000E-03 0. -1.
        -11    1    3    3    0    0 -0.79785482198E+01  0.36578408987E+01  0.17133368304E+00  0.87787463358E+01  0.51100000000E-03 0.  1.
        -12    1    3    3    0    0  0.33479999258E+02 -0.11209039614E+02  0.26085534677E+02  0.43897699698E+02  0.00000000000E+00 0.  1.
</event>
<event>
 7    1  0.3208290E-015  0.9000768E+02  0.7816164E-02  0.1186339E+00
        -11   -1    0    0    0    0  0.00000000000E+00  0.00000000000E+00  0.45593999997E+02  0.45594000000E+02  0.51100000000E-03 0.  1.
         11   -1    0    0    0    0 -0.00000000000E+00 -0.00000000000E+00 -0.45593999997E+02  0.45594000000E+02  0.51100000000E-03 0. -1.
    9900012    2    1    2    0    0 -0.11127254967E+01 -0.74844231695E-01  0.38651117673E+00  0.90007682001E+02  0.89999942603E+02 0.  0.
         12    1    1    2    0    0  0.11127254967E+01  0.74844231695E-01 -0.38651117673E+00  0.11803179994E+01  0.00000000000E+00 0. -1.
         11    1    3    3    0    0  0.97280011371E+01  0.31308740983E+02  0.14866286881E+02  0.35998302098E+02  0.51100000000E-03 0. -1.
        -11    1    3    3    0    0  0.67659450480E+01  0.64507645645E+01  0.12112173474E+01  0.94264215683E+01  0.51100000000E-03 0.  1.
        -12    1    3    3    0    0 -0.17606671682E+02 -0.37834349779E+02 -0.15690993051E+02  0.44582958334E+02  0.00000000000E+00 0.  1.
</event>
<event>
 7    1  0.2569312E-015  0.9000777E+02  0.7816164E-02  0.1186339E+00
        -11   -1    0    0    0    0  0.00000000000E+00  0.00000000000E+00  0.45593999997E+02  0.45594000000E+02  0.51100000000E-03 0. -1.
         11   -1    0    0    0    0 -0.00000000000E+00 -0.00000000000E+00 -0.45593999997E+02  0.45594000000E+02  0.51100000000E-03 0.  1.
    9900012    2    1    2    0    0 -0.82977742385E+00 -0.76297384117E+00 -0.34969322714E+00  0.90007769087E+02  0.90000030839E+02 0.  0.
         12    1    1    2    0    0  0.82977742385E+00  0.76297384117E+00  0.34969322714E+00  0.11802309132E+01  0.00000000000E+00 0. -1.
         11    1    3    3    0    0  0.10541008496E+02 -0.33953475350E+02  0.83319975271E+01  0.36515387599E+02  0.51100000000E-03 0. -1.
        -11    1    3    3    0    0  0.30277847403E+01 -0.82944359853E+01 -0.67275418819E+00  0.88553795631E+01  0.51100000000E-03 0.  1.
        -12    1    3    3    0    0 -0.14398570660E+02  0.41484937494E+02 -0.80089365661E+01  0.44637001925E+02  0.00000000000E+00 0.  1.
</event>
<event>
 7    1  0.2569312E-015  0.9000772E+02  0.7816164E-02  0.1186339E+00
        -11   -1    0    0    0    0  0.00000000000E+00  0.00000000000E+00  0.45593999997E+02  0.45594000000E+02  0.51100000000E-03 0.  1.
         11   -1    0    0    0    0 -0.00000000000E+00 -0.00000000000E+00 -0.45593999997E+02  0.45594000000E+02  0.51100000000E-03 0. -1.
    9900012    2    1    2    0    0  0.54045612862E+00 -0.58529614721E+00  0.87085840909E+00  0.90007720891E+02  0.89999982007E+02 0.  0.
         12    1    1    2    0    0 -0.54045612862E+00  0.58529614721E+00 -0.87085840909E+00  0.11802791092E+01  0.00000000000E+00 0. -1.
         11    1    3    3    0    0 -0.19009347307E+02 -0.31764811013E+02 -0.13559090340E+02  0.39423437633E+02  0.51100000000E-03 0. -1.
        -11    1    3    3    0    0 -0.78478302361E+00 -0.58750051868E+01  0.17422634617E-01  0.59272147041E+01  0.51100000000E-03 0.  1.
        -12    1    3    3    0    0  0.20334586459E+02  0.37054520052E+02  0.14412526115E+02  0.44657068553E+02  0.00000000000E+00 0.  1.
</event>
<event>
 7    1  0.2569312E-015  0.9000766E+02  0.7816164E-02  0.1186339E+00
        -11   -1    0    0    0    0  0.00000000000E+00  0.00000000000E+00  0.45593999997E+02  0.45594000000E+02  0.51100000000E-03 0. -1.
         11   -1    0    0    0    0 -0.00000000000E+00 -0.00000000000E+00 -0.45593999997E+02  0.45594000000E+02  0.51100000000E-03 0.  1.
    9900012    2    1    2    0    0 -0.62452231634E+00 -0.74467020074E+00 -0.66980098315E+00  0.90007663104E+02  0.89999923457E+02 0.  0.
         12    1    1    2    0    0  0.62452231634E+00  0.74467020074E+00  0.66980098315E+00  0.11803368962E+01  0.00000000000E+00 0. -1.
         11    1    3    3    0    0  0.83473750012E-01 -0.80740180068E+01  0.33248030403E+01  0.87321847300E+01  0.51100000000E-03 0. -1.
        -11    1    3    3    0    0 -0.32962205672E+02 -0.76337821067E+01 -0.23045365168E+02  0.40937397182E+02  0.51100000000E-03 0.  1.
         12    1    3    3    0    0  0.32254209606E+02  0.14963129913E+02  0.19050761145E+02  0.40338081192E+02  0.00000000000E+00 0. -1.
</event>
<event>
 7    1  0.2569312E-015  0.9000780E+02  0.7816164E-02  0.1186339E+00
        -11   -1    0    0    0    0  0.00000000000E+00  0.00000000000E+00  0.45593999997E+02  0.45594000000E+02  0.51100000000E-03 0.  1.
         11   -1    0    0    0    0 -0.00000000000E+00 -0.00000000000E+00 -0.45593999997E+02  0.45594000000E+02  0.51100000000E-03 0. -1.
    9900012    2    1    2    0    0  0.79379626681E+00 -0.85352752328E+00 -0.18505219531E+00  0.90007802533E+02  0.90000064726E+02 0.  0.
         12    1    1    2    0    0 -0.79379626681E+00  0.85352752328E+00  0.18505219531E+00  0.11801974670E+01  0.00000000000E+00 0. -1.
         11    1    3    3    0    0 -0.69547611330E+01 -0.13656402387E+02 -0.11545919848E+01  0.15368770656E+02  0.51100000000E-03 0. -1.
        -11    1    3    3    0    0  0.15059677801E+02 -0.26950397451E+02  0.11374459467E+02  0.32901309194E+02  0.51100000000E-03 0.  1.
         12    1    3    3    0    0 -0.73111204008E+01  0.39753272315E+02 -0.10404919678E+02  0.41737722683E+02  0.00000000000E+00 0. -1.
</event>
<event>
 7    1  0.2569312E-015  0.9000782E+02  0.7816164E-02  0.1186339E+00
        -11   -1    0    0    0    0  0.00000000000E+00  0.00000000000E+00  0.45593999997E+02  0.45594000000E+02  0.51100000000E-03 0. -1.
         11   -1    0    0    0    0 -0.00000000000E+00 -0.00000000000E+00 -0.45593999997E+02  0.45594000000E+02  0.51100000000E-03 0.  1.
    9900012    2    1    2    0    0 -0.95849113191E+00 -0.68524319056E+00 -0.67536689785E-01  0.90007820063E+02  0.90000082487E+02 0.  0.
         12    1    1    2    0    0  0.95849113191E+00  0.68524319056E+00  0.67536689785E-01  0.11801799374E+01  0.00000000000E+00 0. -1.
         11    1    3    3    0    0 -0.18334450250E+01  0.22146417812E+01 -0.90184559833E+01  0.94656593781E+01  0.51100000000E-03 0. -1.
        -11    1    3    3    0    0  0.24998782654E+02 -0.10721122554E+02 -0.25821017055E+02  0.37504753365E+02  0.51100000000E-03 0.  1.
         12    1    3    3    0    0 -0.24123828760E+02  0.78212375825E+01  0.34771936348E+02  0.43037407319E+02  0.00000000000E+00 0. -1.
</event>
<event>
 7    1  0.2569312E-015  0.9000865E+02  0.7816164E-02  0.1186337E+00
        -11   -1    0    0    0    0  0.00000000000E+00  0.00000000000E+00  0.45593999997E+02  0.45594000000E+02  0.51100000000E-03 0. -1.
         11   -1    0    0    0    0 -0.00000000000E+00 -0.00000000000E+00 -0.45593999997E+02  0.45594000000E+02  0.51100000000E-03 0.  1.
    9900012    2    1    2    0    0  0.10408408391E+01 -0.42441924112E+00 -0.35691586156E+00  0.90008648366E+02  0.90000921720E+02 0.  0.
         12    1    1    2    0    0 -0.10408408391E+01  0.42441924112E+00  0.35691586156E+00  0.11793516341E+01  0.00000000000E+00 0. -1.
         11    1    3    3    0    0 -0.36436835962E+01  0.83284828481E+01 -0.15097085271E+01  0.92151655871E+01  0.51100000000E-03 0. -1.
        -11    1    3    3    0    0  0.43580195809E-01  0.19872266067E+02 -0.31423434146E+02  0.37179847655E+02  0.51100000000E-03 0.  1.
         12    1    3    3    0    0  0.46409442395E+01 -0.28625168156E+02  0.32576226812E+02  0.43613635124E+02  0.00000000000E+00 0. -1.
</event>
<event>
 7    1  0.2569312E-015  0.9000769E+02  0.7816164E-02  0.1186339E+00
        -11   -1    0    0    0    0  0.00000000000E+00  0.00000000000E+00  0.45593999997E+02  0.45594000000E+02  0.51100000000E-03 0. -1.
         11   -1    0    0    0    0 -0.00000000000E+00 -0.00000000000E+00 -0.45593999997E+02  0.45594000000E+02  0.51100000000E-03 0.  1.
    9900012    2    1    2    0    0 -0.94287783387E+00  0.66746523431E+00  0.24206348167E+00  0.90007693609E+02  0.89999954364E+02 0.  0.
         12    1    1    2    0    0  0.94287783387E+00 -0.66746523431E+00 -0.24206348167E+00  0.11803063915E+01  0.00000000000E+00 0. -1.
         11    1    3    3    0    0 -0.10905798230E+02  0.33966535088E+02  0.10675475331E+02  0.37237450433E+02  0.51100000000E-03 0. -1.
        -11    1    3    3    0    0 -0.88893876713E+01  0.41243795453E+01 -0.13346870207E+01  0.98900510367E+01  0.51100000000E-03 0.  1.
        -12    1    3    3    0    0  0.18852308067E+02 -0.37423449399E+02 -0.90987248283E+01  0.42880192139E+02  0.00000000000E+00 0.  1.
</event>
<event>
 7    1  0.2569312E-015  0.9000791E+02  0.7816164E-02  0.1186339E+00
        -11   -1    0    0    0    0  0.00000000000E+00  0.00000000000E+00  0.45593999997E+02  0.45594000000E+02  0.51100000000E-03 0.  1.
         11   -1    0    0    0    0 -0.00000000000E+00 -0.00000000000E+00 -0.45593999997E+02  0.45594000000E+02  0.51100000000E-03 0. -1.
    9900012    2    1    2    0    0  0.11648951615E+01 -0.13134541685E+00 -0.13561388173E+00  0.90007905309E+02  0.90000168858E+02 0.  0.
         12    1    1    2    0    0 -0.11648951615E+01  0.13134541685E+00  0.13561388173E+00  0.11800946915E+01  0.00000000000E+00 0. -1.
         11    1    3    3    0    0  0.95162168154E+01  0.35445541959E+02  0.50631643833E+01  0.37048353015E+02  0.51100000000E-03 0. -1.
        -11    1    3    3    0    0  0.33777912686E+01  0.64461945155E+01  0.40962190396E+01  0.83511620908E+01  0.51100000000E-03 0.  1.
        -12    1    3    3    0    0 -0.11729112923E+02 -0.42023081892E+02 -0.92949973046E+01  0.44608390203E+02  0.00000000000E+00 0.  1.
</event>
<event>
 7    1  0.2569312E-015  0.9000776E+02  0.7816164E-02  0.1186339E+00
        -11   -1    0    0    0    0  0.00000000000E+00  0.00000000000E+00  0.45593999997E+02  0.45594000000E+02  0.51100000000E-03 0.  1.
         11   -1    0    0    0    0 -0.00000000000E+00 -0.00000000000E+00 -0.45593999997E+02  0.45594000000E+02  0.51100000000E-03 0. -1.
    9900012    2    1    2    0    0  0.14975551871E+00 -0.47147054949E+00  0.10715713077E+01  0.90007755847E+02  0.90000017424E+02 0.  0.
         12    1    1    2    0    0 -0.14975551871E+00  0.47147054949E+00 -0.10715713077E+01  0.11802441535E+01  0.00000000000E+00 0. -1.
         11    1    3    3    0    0  0.11422015596E+02 -0.74308280358E+01 -0.72655915633E+01  0.15442424246E+02  0.51100000000E-03 0. -1.
        -11    1    3    3    0    0  0.25964460014E+02 -0.12575187559E+02 -0.72046650228E+01  0.29735428773E+02  0.51100000000E-03 0.  1.
         12    1    3    3    0    0 -0.37236720091E+02  0.19534545045E+02  0.15541827894E+02  0.44829902828E+02  0.00000000000E+00 0. -1.
</event>
<event>
 7    1  0.2569312E-015  0.9000772E+02  0.7816164E-02  0.1186339E+00
        -11   -1    0    0    0    0  0.00000000000E+00  0.00000000000E+00  0.45593999997E+02  0.45594000000E+02  0.51100000000E-03 0.  1.
         11   -1    0    0    0    0 -0.00000000000E+00 -0.00000000000E+00 -0.45593999997E+02  0.45594000000E+02  0.51100000000E-03 0. -1.
    9900012    2    1    2    0    0  0.94027142487E+00  0.56002878692E+00 -0.44194097063E+00  0.90007722738E+02  0.89999983878E+02 0.  0.
         12    1    1    2    0    0 -0.94027142487E+00 -0.56002878692E+00  0.44194097063E+00  0.11802772624E+01  0.00000000000E+00 0. -1.
         11    1    3    3    0    0  0.21172433737E+01 -0.82931533554E+01 -0.40700681406E+01  0.94775823399E+01  0.51100000000E-03 0. -1.
        -11    1    3    3    0    0  0.11656422742E+02 -0.16335077134E+02  0.33721863585E+02  0.39241190349E+02  0.51100000000E-03 0.  1.
         12    1    3    3    0    0 -0.12833394691E+02  0.25188259277E+02 -0.30093736415E+02  0.41288950048E+02  0.00000000000E+00 0. -1.
</event>
<event>
 7    1  0.2569312E-015  0.9000752E+02  0.7816164E-02  0.1186339E+00
        -11   -1    0    0    0    0  0.00000000000E+00  0.00000000000E+00  0.45593999997E+02  0.45594000000E+02  0.51100000000E-03 0. -1.
         11   -1    0    0    0    0 -0.00000000000E+00 -0.00000000000E+00 -0.45593999997E+02  0.45594000000E+02  0.51100000000E-03 0.  1.
    9900012    2    1    2    0    0  0.26200104949E+00  0.10774937531E+01 -0.40483529160E+00  0.90007521728E+02  0.89999780214E+02 0.  0.
         12    1    1    2    0    0 -0.26200104949E+00 -0.10774937531E+01  0.40483529160E+00  0.11804782722E+01  0.00000000000E+00 0. -1.
         11    1    3    3    0    0 -0.86858609143E+00 -0.60531681328E+01  0.89399373922E+01  0.10831332655E+02  0.51100000000E-03 0. -1.
        -11    1    3    3    0    0 -0.28014395120E+02 -0.20856119941E+02 -0.15666249373E+02  0.38278132695E+02  0.51100000000E-03 0.  1.
         12    1    3    3    0    0  0.29144982260E+02  0.27986781827E+02  0.63214766894E+01  0.40898056378E+02  0.00000000000E+00 0. -1.
</event>
<event>
 7    1  0.2569312E-015  0.9000775E+02  0.7816164E-02  0.1186339E+00
        -11   -1    0    0    0    0  0.00000000000E+00  0.00000000000E+00  0.45593999997E+02  0.45594000000E+02  0.51100000000E-03 0.  1.
         11   -1    0    0    0    0 -0.00000000000E+00 -0.00000000000E+00 -0.45593999997E+02  0.45594000000E+02  0.51100000000E-03 0. -1.
    9900012    2    1    2    0    0  0.53223447400E+00 -0.88315720917E+00 -0.57424611285E+00  0.90007746303E+02  0.90000007754E+02 0.  0.
         12    1    1    2    0    0 -0.53223447400E+00  0.88315720917E+00  0.57424611285E+00  0.11802536971E+01  0.00000000000E+00 0. -1.
         11    1    3    3    0    0  0.36730559995E+01  0.58161241491E+01  0.73390562679E+01  0.10058846239E+02  0.51100000000E-03 0. -1.
        -11    1    3    3    0    0  0.89443202131E+01 -0.93395858442E+01  0.33932424626E+02  0.36313057831E+02  0.51100000000E-03 0.  1.
         12    1    3    3    0    0 -0.12085141739E+02  0.26403044860E+01 -0.41845727007E+02  0.43635842233E+02  0.00000000000E+00 0. -1.
</event>
<event>
 7    1  0.2569312E-015  0.9000774E+02  0.7816164E-02  0.1186339E+00
        -11   -1    0    0    0    0  0.00000000000E+00  0.00000000000E+00  0.45593999997E+02  0.45594000000E+02  0.51100000000E-03 0.  1.
         11   -1    0    0    0    0 -0.00000000000E+00 -0.00000000000E+00 -0.45593999997E+02  0.45594000000E+02  0.51100000000E-03 0. -1.
    9900012    2    1    2    0    0 -0.63983052432E+00 -0.98699030595E+00 -0.97315891581E-01  0.90007744372E+02  0.90000005798E+02 0.  0.
         12    1    1    2    0    0  0.63983052432E+00  0.98699030595E+00  0.97315891581E-01  0.11802556277E+01  0.00000000000E+00 0. -1.
         11    1    3    3    0    0  0.15832488492E+02 -0.21083066610E+02 -0.31624486588E+02  0.41173675349E+02  0.51100000000E-03 0. -1.
        -11    1    3    3    0    0 -0.22100063921E+00 -0.62465274113E+01  0.66239547529E+01  0.91073993440E+01  0.51100000000E-03 0.  1.
        -12    1    3    3    0    0 -0.16251318377E+02  0.26342603715E+02  0.24903215944E+02  0.39726669679E+02  0.00000000000E+00 0.  1.
</event>
<event>
 7    1  0.2569312E-015  0.9000781E+02  0.7816164E-02  0.1186339E+00
        -11   -1    0    0    0    0  0.00000000000E+00  0.00000000000E+00  0.45593999997E+02  0.45594000000E+02  0.51100000000E-03 0. -1.
         11   -1    0    0    0    0 -0.00000000000E+00 -0.00000000000E+00 -0.45593999997E+02  0.45594000000E+02  0.51100000000E-03 0.  1.
    9900012    2    1    2    0    0  0.31211577583E+00 -0.10411797440E+01  0.45975826011E+00  0.90007809687E+02  0.90000071975E+02 0.  0.
         12    1    1    2    0    0 -0.31211577583E+00  0.10411797440E+01 -0.45975826011E+00  0.11801903128E+01  0.00000000000E+00 0. -1.
         11    1    3    3    0    0 -0.18327410005E+01  0.45089548601E+01 -0.38717856283E+01  0.62193518728E+01  0.51100000000E-03 0. -1.
        -11    1    3    3    0    0  0.41467659061E+02 -0.35694959763E+01  0.12741545414E+02  0.43527635237E+02  0.51100000000E-03 0.  1.
         12    1    3    3    0    0 -0.39322802285E+02 -0.19806386277E+01 -0.84100015257E+01  0.40260822577E+02  0.00000000000E+00 0. -1.
</event>
<event>
 7    1  0.2569312E-015  0.9000780E+02  0.7816164E-02  0.1186339E+00
        -11   -1    0    0    0    0  0.00000000000E+00  0.00000000000E+00  0.45593999997E+02  0.45594000000E+02  0.51100000000E-03 0. -1.
         11   -1    0    0    0    0 -0.00000000000E+00 -0.00000000000E+00 -0.45593999997E+02  0.45594000000E+02  0.51100000000E-03 0.  1.
    9900012    2    1    2    0    0 -0.22962094901E+00  0.89359169203E+00  0.73596430011E+00  0.90007798601E+02  0.90000060742E+02 0.  0.
         12    1    1    2    0    0  0.22962094901E+00 -0.89359169203E+00 -0.73596430011E+00  0.11802013995E+01  0.00000000000E+00 0. -1.
         11    1    3    3    0    0 -0.55880983151E+01 -0.26428142720E+02  0.25597340797E+02  0.37214210009E+02  0.51100000000E-03 0. -1.
        -11    1    3    3    0    0 -0.30600696197E+01 -0.74510046197E+01  0.17025500846E+01  0.82328714901E+01  0.51100000000E-03 0.  1.
        -12    1    3    3    0    0  0.84185469858E+01  0.34772739032E+02 -0.26563926582E+02  0.44560717101E+02  0.00000000000E+00 0.  1.
</event>
<event>
 7    1  0.2569312E-015  0.9000774E+02  0.7816164E-02  0.1186339E+00
        -11   -1    0    0    0    0  0.00000000000E+00  0.00000000000E+00  0.45593999997E+02  0.45594000000E+02  0.51100000000E-03 0. -1.
         11   -1    0    0    0    0 -0.00000000000E+00 -0.00000000000E+00 -0.45593999997E+02  0.45594000000E+02  0.51100000000E-03 0.  1.
    9900012    2    1    2    0    0 -0.67958962023E+00  0.79907511072E+00 -0.54097332521E+00  0.90007739341E+02  0.90000000700E+02 0.  0.
         12    1    1    2    0    0  0.67958962023E+00 -0.79907511072E+00  0.54097332521E+00  0.11802606590E+01  0.00000000000E+00 0. -1.
         11    1    3    3    0    0  0.32225415930E+02  0.10362356288E+01  0.16061890400E+02  0.36021320625E+02  0.51100000000E-03 0. -1.
        -11    1    3    3    0    0  0.83272445120E+01  0.11127693042E+01  0.21467473734E+01  0.86712041398E+01  0.51100000000E-03 0.  1.
        -12    1    3    3    0    0 -0.41232250062E+02 -0.13499298222E+01 -0.18749611099E+02  0.45315214576E+02  0.00000000000E+00 0.  1.
</event>
<event>
 7    1  0.2569312E-015  0.9000757E+02  0.7816164E-02  0.1186339E+00
        -11   -1    0    0    0    0  0.00000000000E+00  0.00000000000E+00  0.45593999997E+02  0.45594000000E+02  0.51100000000E-03 0. -1.
         11   -1    0    0    0    0 -0.00000000000E+00 -0.00000000000E+00 -0.45593999997E+02  0.45594000000E+02  0.51100000000E-03 0.  1.
    9900012    2    1    2    0    0  0.60128974348E+00 -0.59774334376E+00 -0.82131642832E+00  0.90007573325E+02  0.89999832492E+02 0.  0.
         12    1    1    2    0    0 -0.60128974348E+00  0.59774334376E+00  0.82131642832E+00  0.11804266754E+01  0.00000000000E+00 0. -1.
         11    1    3    3    0    0  0.50714214720E+01  0.39194101955E+01 -0.67213637430E+01  0.92875089692E+01  0.51100000000E-03 0. -1.
        -11    1    3    3    0    0 -0.48056408232E+01 -0.27993728540E+02 -0.27736507114E+02  0.39699582472E+02  0.51100000000E-03 0.  1.
         12    1    3    3    0    0  0.33550909474E+00  0.23476575001E+02  0.33636554429E+02  0.41020481884E+02  0.00000000000E+00 0. -1.
</event>
<event>
 7    1  0.2569312E-015  0.9000782E+02  0.7816164E-02  0.1186339E+00
        -11   -1    0    0    0    0  0.00000000000E+00  0.00000000000E+00  0.45593999997E+02  0.45594000000E+02  0.51100000000E-03 0.  1.
         11   -1    0    0    0    0 -0.00000000000E+00 -0.00000000000E+00 -0.45593999997E+02  0.45594000000E+02  0.51100000000E-03 0. -1.
    9900012    2    1    2    0    0  0.27522901153E+00  0.82458200179E+00  0.79821168571E+00  0.90007818496E+02  0.90000080900E+02 0.  0.
         12    1    1    2    0    0 -0.27522901153E+00 -0.82458200179E+00 -0.79821168571E+00  0.11801815037E+01  0.00000000000E+00 0. -1.
         11    1    3    3    0    0  0.27482235049E+01 -0.81653472551E+01 -0.31134288785E-01  0.86154859314E+01  0.51100000000E-03 0. -1.
        -11    1    3    3    0    0 -0.15226581031E+02 -0.26060537780E+02  0.23048835126E+02  0.37976956173E+02  0.51100000000E-03 0.  1.
         12    1    3    3    0    0  0.12753586538E+02  0.35050467037E+02 -0.22219489151E+02  0.43415376392E+02  0.00000000000E+00 0. -1.
</event>
<event>
 7    1  0.2569312E-015  0.9000808E+02  0.7816164E-02  0.1186338E+00
        -11   -1    0    0    0    0  0.00000000000E+00  0.00000000000E+00  0.45593999997E+02  0.45594000000E+02  0.51100000000E-03 0. -1.
         11   -1    0    0    0    0 -0.00000000000E+00 -0.00000000000E+00 -0.45593999997E+02  0.45594000000E+02  0.51100000000E-03 0.  1.
    9900012    2    1    2    0    0 -0.91774882548E-01 -0.73285365577E+00 -0.92017251156E+00  0.90008078579E+02  0.90000344415E+02 0.  0.
         12    1    1    2    0    0  0.91774882548E-01  0.73285365577E+00  0.92017251156E+00  0.11799214215E+01  0.00000000000E+00 0. -1.
         11    1    3    3    0    0  0.25524635073E+02 -0.24295716933E+02  0.16342313573E+02  0.38844048065E+02  0.51100000000E-03 0. -1.
        -11    1    3    3    0    0  0.64834167004E+01  0.10967852232E+02 -0.32145833136E+00  0.12744873888E+02  0.51100000000E-03 0.  1.
        -12    1    3    3    0    0 -0.32099826656E+02  0.12595011045E+02 -0.16941027753E+02  0.38419156626E+02  0.00000000000E+00 0.  1.
</event>
<event>
 7    1  0.2569312E-015  0.9000776E+02  0.7816164E-02  0.1186339E+00
        -11   -1    0    0    0    0  0.00000000000E+00  0.00000000000E+00  0.45593999997E+02  0.45594000000E+02  0.51100000000E-03 0. -1.
         11   -1    0    0    0    0 -0.00000000000E+00 -0.00000000000E+00 -0.45593999997E+02  0.45594000000E+02  0.51100000000E-03 0.  1.
    9900012    2    1    2    0    0 -0.11516345288E+01  0.16234570010E+00 -0.20086243022E+00  0.90007761071E+02  0.90000022717E+02 0.  0.
         12    1    1    2    0    0  0.11516345288E+01 -0.16234570010E+00  0.20086243022E+00  0.11802389292E+01  0.00000000000E+00 0. -1.
         11    1    3    3    0    0 -0.53552180179E+01  0.39345154899E+02  0.18040845996E+01  0.39748890495E+02  0.51100000000E-03 0. -1.
        -11    1    3    3    0    0  0.37407314000E+01  0.12677284561E+01  0.77034914685E+01  0.86570195744E+01  0.51100000000E-03 0.  1.
        -12    1    3    3    0    0  0.46285208922E+00 -0.40450537655E+02 -0.97084384983E+01  0.41601851001E+02  0.00000000000E+00 0.  1.
</event>
<event>
 7    1  0.2569312E-015  0.9000749E+02  0.7816164E-02  0.1186340E+00
        -11   -1    0    0    0    0  0.00000000000E+00  0.00000000000E+00  0.45593999997E+02  0.45594000000E+02  0.51100000000E-03 0.  1.
         11   -1    0    0    0    0 -0.00000000000E+00 -0.00000000000E+00 -0.45593999997E+02  0.45594000000E+02  0.51100000000E-03 0. -1.
    9900012    2    1    2    0    0 -0.15544720690E+00  0.33233905334E+00  0.11220451017E+01  0.90007492359E+02  0.89999750458E+02 0.  0.
         12    1    1    2    0    0  0.15544720690E+00 -0.33233905334E+00 -0.11220451017E+01  0.11805076411E+01  0.00000000000E+00 0. -1.
         11    1    3    3    0    0 -0.10442227906E+02 -0.39079686027E+01 -0.22251190749E+02  0.24888307140E+02  0.51100000000E-03 0. -1.
        -11    1    3    3    0    0 -0.22106260939E+02  0.65671425474E+01  0.23100996011E+02  0.32641540266E+02  0.51100000000E-03 0.  1.
         12    1    3    3    0    0  0.32393041638E+02 -0.23268348913E+01  0.27223983956E+00  0.32477644954E+02  0.00000000000E+00 0. -1.
</event>
<event>
 7    1  0.2569312E-015  0.9000727E+02  0.7816164E-02  0.1186340E+00
        -11   -1    0    0    0    0  0.00000000000E+00  0.00000000000E+00  0.45593999997E+02  0.45594000000E+02  0.51100000000E-03 0.  1.
         11   -1    0    0    0    0 -0.00000000000E+00 -0.00000000000E+00 -0.45593999997E+02  0.45594000000E+02  0.51100000000E-03 0. -1.
    9900012    2    1    2    0    0  0.91467980641E+00  0.15270910477E+00  0.73086238152E+00  0.90007271818E+02  0.89999527005E+02 0.  0.
         12    1    1    2    0    0 -0.91467980641E+00 -0.15270910477E+00 -0.73086238152E+00  0.11807281819E+01  0.00000000000E+00 0. -1.
         11    1    3    3    0    0 -0.19822541052E+01 -0.78799530284E+00  0.89552636906E+01  0.92058142478E+01  0.51100000000E-03 0. -1.
        -11    1    3    3    0    0 -0.94967745707E+01 -0.25044554687E+02  0.25138884728E+02  0.36733934888E+02  0.51100000000E-03 0.  1.
         12    1    3    3    0    0  0.12393708482E+02  0.25985259094E+02 -0.33363286037E+02  0.44067522682E+02  0.00000000000E+00 0. -1.
</event>
<event>
 7    1  0.2569312E-015  0.9000801E+02  0.7816164E-02  0.1186339E+00
        -11   -1    0    0    0    0  0.00000000000E+00  0.00000000000E+00  0.45593999997E+02  0.45594000000E+02  0.51100000000E-03 0.  1.
         11   -1    0    0    0    0 -0.00000000000E+00 -0.00000000000E+00 -0.45593999997E+02  0.45594000000E+02  0.51100000000E-03 0. -1.
    9900012    2    1    2    0    0 -0.10084785956E+01 -0.21416073985E+00 -0.57401337370E+00  0.90008006249E+02  0.90000271131E+02 0.  0.
         12    1    1    2    0    0  0.10084785956E+01  0.21416073985E+00  0.57401337370E+00  0.11799937514E+01  0.00000000000E+00 0. -1.
         11    1    3    3    0    0  0.39967447987E+01  0.92310813434E+01 -0.20047281621E+01  0.10256986254E+02  0.51100000000E-03 0. -1.
        -11    1    3    3    0    0 -0.72197197046E+01  0.26044604835E+02  0.25221737975E+02  0.36967307995E+02  0.51100000000E-03 0.  1.
         12    1    3    3    0    0  0.22144963103E+01 -0.35489846919E+02 -0.23791023186E+02  0.42783712000E+02  0.00000000000E+00 0. -1.
</event>
<event>
 7    1  0.2569312E-015  0.9000771E+02  0.7816164E-02  0.1186339E+00
        -11   -1    0    0    0    0  0.00000000000E+00  0.00000000000E+00  0.45593999997E+02  0.45594000000E+02  0.51100000000E-03 0. -1.
         11   -1    0    0    0    0 -0.00000000000E+00 -0.00000000000E+00 -0.45593999997E+02  0.45594000000E+02  0.51100000000E-03 0.  1.
    9900012    2    1    2    0    0 -0.81705401480E+00 -0.65628503191E+00 -0.54295042979E+00  0.90007710851E+02  0.89999971834E+02 0.  0.
         12    1    1    2    0    0  0.81705401480E+00  0.65628503191E+00  0.54295042979E+00  0.11802891491E+01  0.00000000000E+00 0. -1.
         11    1    3    3    0    0  0.22095573674E+02 -0.30509323262E+02  0.16175199872E+02  0.40995978743E+02  0.51100000000E-03 0. -1.
        -11    1    3    3    0    0 -0.73691479715E+01 -0.20797463594E+01  0.31931118962E+01  0.82961226238E+01  0.51100000000E-03 0.  1.
        -12    1    3    3    0    0 -0.15543479717E+02  0.31932784590E+02 -0.19911262198E+02  0.40715609485E+02  0.00000000000E+00 0.  1.
</event>
<event>
 7    1  0.2569312E-015  0.9000779E+02  0.7816164E-02  0.1186339E+00
        -11   -1    0    0    0    0  0.00000000000E+00  0.00000000000E+00  0.45593999997E+02  0.45594000000E+02  0.51100000000E-03 0. -1.
         11   -1    0    0    0    0 -0.00000000000E+00 -0.00000000000E+00 -0.45593999997E+02  0.45594000000E+02  0.51100000000E-03 0.  1.
    9900012    2    1    2    0    0  0.15243333574E+00  0.40684961875E+00 -0.10973326924E+01  0.90007787489E+02  0.90000049483E+02 0.  0.
         12    1    1    2    0    0 -0.15243333574E+00 -0.40684961875E+00  0.10973326924E+01  0.11802125113E+01  0.00000000000E+00 0. -1.
         11    1    3    3    0    0  0.19731960207E+00  0.41477460728E+01 -0.77375152980E+01  0.87813367865E+01  0.51100000000E-03 0. -1.
        -11    1    3    3    0    0 -0.30352813120E+02 -0.27877772293E+02 -0.29324679845E+01  0.41316616767E+02  0.51100000000E-03 0.  1.
         12    1    3    3    0    0  0.30307926853E+02  0.24136875839E+02  0.95726505901E+01  0.39909833935E+02  0.00000000000E+00 0. -1.
</event>
<event>
 7    1  0.2569312E-015  0.9000774E+02  0.7816164E-02  0.1186339E+00
        -11   -1    0    0    0    0  0.00000000000E+00  0.00000000000E+00  0.45593999997E+02  0.45594000000E+02  0.51100000000E-03 0. -1.
         11   -1    0    0    0    0 -0.00000000000E+00 -0.00000000000E+00 -0.45593999997E+02  0.45594000000E+02  0.51100000000E-03 0.  1.
    9900012    2    1    2    0    0 -0.21152475993E+00 -0.10841572193E+01 -0.41579471718E+00  0.90007735264E+02  0.89999996569E+02 0.  0.
         12    1    1    2    0    0  0.21152475993E+00  0.10841572193E+01  0.41579471718E+00  0.11802647360E+01  0.00000000000E+00 0. -1.
         11    1    3    3    0    0 -0.24511147180E+02 -0.96426802201E+01  0.15931842637E+02  0.30783132199E+02  0.51100000000E-03 0. -1.
        -11    1    3    3    0    0 -0.14072633021E+02 -0.42454678478E+01  0.19478223223E+01  0.14827575980E+02  0.51100000000E-03 0.  1.
        -12    1    3    3    0    0  0.38372255441E+02  0.12803990849E+02 -0.18295459676E+02  0.44397027085E+02  0.00000000000E+00 0.  1.
</event>
<event>
 7    1  0.2569312E-015  0.9000767E+02  0.7816164E-02  0.1186339E+00
        -11   -1    0    0    0    0  0.00000000000E+00  0.00000000000E+00  0.45593999997E+02  0.45594000000E+02  0.51100000000E-03 0.  1.
         11   -1    0    0    0    0 -0.00000000000E+00 -0.00000000000E+00 -0.45593999997E+02  0.45594000000E+02  0.51100000000E-03 0. -1.
    9900012    2    1    2    0    0 -0.10709489271E+01 -0.47817163107E+00 -0.13269408265E+00  0.90007666389E+02  0.89999926785E+02 0.  0.
         12    1    1    2    0    0  0.10709489271E+01  0.47817163107E+00  0.13269408265E+00  0.11803336108E+01  0.00000000000E+00 0. -1.
         11    1    3    3    0    0 -0.56008881846E+01  0.33660803274E+02  0.53314989429E+01  0.34537581079E+02  0.51100000000E-03 0. -1.
        -11    1    3    3    0    0  0.18159227044E+01  0.10290358177E+02  0.97436454433E+00  0.10494685951E+02  0.51100000000E-03 0.  1.
        -12    1    3    3    0    0  0.27140165531E+01 -0.44429333082E+02 -0.64385575699E+01  0.44975399360E+02  0.00000000000E+00 0.  1.
</event>
<event>
 7    1  0.2569312E-015  0.9000773E+02  0.7816164E-02  0.1186339E+00
        -11   -1    0    0    0    0  0.00000000000E+00  0.00000000000E+00  0.45593999997E+02  0.45594000000E+02  0.51100000000E-03 0.  1.
         11   -1    0    0    0    0 -0.00000000000E+00 -0.00000000000E+00 -0.45593999997E+02  0.45594000000E+02  0.51100000000E-03 0. -1.
    9900012    2    1    2    0    0 -0.37218851982E+00  0.83377634101E-01  0.11169474236E+01  0.90007725595E+02  0.89999986773E+02 0.  0.
         12    1    1    2    0    0  0.37218851982E+00 -0.83377634101E-01 -0.11169474236E+01  0.11802744050E+01  0.00000000000E+00 0. -1.
         11    1    3    3    0    0 -0.14431866260E+02 -0.20043567131E+01  0.18648395686E+02  0.23665562987E+02  0.51100000000E-03 0. -1.
        -11    1    3    3    0    0 -0.82816698992E+01 -0.26284483734E+02 -0.43521982624E+01  0.27899852535E+02  0.51100000000E-03 0.  1.
         12    1    3    3    0    0  0.22341347639E+02  0.28372218081E+02 -0.13179250000E+02  0.38442310073E+02  0.00000000000E+00 0. -1.
</event>
<event>
 7    1  0.2569312E-015  0.9000777E+02  0.7816164E-02  0.1186339E+00
        -11   -1    0    0    0    0  0.00000000000E+00  0.00000000000E+00  0.45593999997E+02  0.45594000000E+02  0.51100000000E-03 0.  1.
         11   -1    0    0    0    0 -0.00000000000E+00 -0.00000000000E+00 -0.45593999997E+02  0.45594000000E+02  0.51100000000E-03 0. -1.
    9900012    2    1    2    0    0 -0.89880809033E+00 -0.71691954146E+00  0.26667563053E+00  0.90007768877E+02  0.90000030626E+02 0.  0.
         12    1    1    2    0    0  0.89880809033E+00  0.71691954146E+00 -0.26667563053E+00  0.11802311232E+01  0.00000000000E+00 0. -1.
         11    1    3    3    0    0 -0.40395819339E+01  0.86035470573E+01 -0.14715700562E+01  0.96179396369E+01  0.51100000000E-03 0. -1.
        -11    1    3    3    0    0  0.25548057863E+02 -0.19451175464E+02 -0.27435494562E+02  0.42234557529E+02  0.51100000000E-03 0.  1.
         12    1    3    3    0    0 -0.22407284020E+02  0.10130708866E+02  0.29173740249E+02  0.38155271711E+02  0.00000000000E+00 0. -1.
</event>
